/*--------------------------------*- C++ -*----------------------------------*\
| =========                 |                                                 |
| \\      /  F ield         | OpenFOAM: The Open Source CFD Toolbox           |
|  \\    /   O peration     | Version:  2306                                  |
|   \\  /    A nd           | Website:  www.openfoam.com                      |
|    \\/     M anipulation  |                                                 |
\*---------------------------------------------------------------------------*/
FoamFile
{
    version     2.0;
    format      ascii;
    arch        "LSB;label=32;scalar=64";
    class       volScalarField;
    location    "0.02";
    object      nuTilda;
}
// * * * * * * * * * * * * * * * * * * * * * * * * * * * * * * * * * * * * * //

dimensions      [0 2 -1 0 0 0 0];

internalField   nonuniform List<scalar> 
20000
(
0.00038246368
0.00091802432
0.0011953913
0.0012598724
0.001062598
0.00048483694
5.3692376e-05
1.0392033e-05
1.0066745e-05
1.0041713e-05
1.0043262e-05
1.0033291e-05
1.0031293e-05
1.0026453e-05
1.0024113e-05
1.0020973e-05
1.0018581e-05
1.0016139e-05
1.0014018e-05
1.0012056e-05
1.0010358e-05
1.0008899e-05
1.000769e-05
1.0006689e-05
1.0005859e-05
1.0005157e-05
1.0004584e-05
1.0004161e-05
1.0003873e-05
1.0003673e-05
1.0003495e-05
1.0003277e-05
1.0003049e-05
1.0002859e-05
1.0002726e-05
1.000263e-05
1.0002546e-05
1.0002446e-05
1.0002327e-05
1.0002203e-05
1.0002049e-05
1.0001882e-05
1.0001703e-05
1.000147e-05
1.000124e-05
1.0000987e-05
1.0000752e-05
1.0000577e-05
1.0000361e-05
1.0000142e-05
0.0003799915
0.00090545368
0.0011710459
0.001221416
0.0010110995
0.00042062251
4.1807189e-05
1.0255298e-05
1.0065646e-05
1.0040614e-05
1.0042484e-05
1.0032565e-05
1.0030686e-05
1.0025946e-05
1.0023683e-05
1.002062e-05
1.0018287e-05
1.0015901e-05
1.0013822e-05
1.0011895e-05
1.001022e-05
1.0008777e-05
1.0007575e-05
1.0006576e-05
1.0005746e-05
1.0005043e-05
1.0004469e-05
1.000404e-05
1.0003747e-05
1.0003556e-05
1.0003391e-05
1.0003194e-05
1.0002978e-05
1.0002797e-05
1.0002668e-05
1.0002575e-05
1.0002493e-05
1.0002394e-05
1.0002272e-05
1.0002149e-05
1.0001999e-05
1.0001835e-05
1.0001662e-05
1.0001436e-05
1.000121e-05
1.0000964e-05
1.0000732e-05
1.0000551e-05
1.0000345e-05
1.0000133e-05
0.00037778739
0.00089372385
0.001147748
0.0011838143
0.0009570685
0.00035765327
3.2342635e-05
1.0169185e-05
1.0064539e-05
1.0039551e-05
1.0041509e-05
1.0031834e-05
1.0030054e-05
1.0025433e-05
1.0023246e-05
1.0020268e-05
1.0018e-05
1.0015676e-05
1.001365e-05
1.001177e-05
1.0010135e-05
1.0008725e-05
1.000755e-05
1.0006573e-05
1.0005762e-05
1.0005072e-05
1.0004504e-05
1.0004059e-05
1.0003754e-05
1.0003556e-05
1.0003393e-05
1.00032e-05
1.0002985e-05
1.0002801e-05
1.000267e-05
1.0002569e-05
1.0002481e-05
1.0002377e-05
1.0002249e-05
1.0002122e-05
1.0001975e-05
1.0001809e-05
1.000164e-05
1.0001419e-05
1.0001193e-05
1.0000951e-05
1.0000721e-05
1.0000535e-05
1.0000333e-05
1.0000128e-05
0.00037557341
0.00088190851
0.0011249106
0.0011464316
0.00090155539
0.00030082348
2.5388805e-05
1.0116625e-05
1.0063576e-05
1.0038512e-05
1.0040664e-05
1.003112e-05
1.0029435e-05
1.002493e-05
1.0022813e-05
1.0019917e-05
1.0017709e-05
1.0015445e-05
1.0013466e-05
1.0011627e-05
1.0010024e-05
1.0008639e-05
1.0007483e-05
1.000652e-05
1.0005719e-05
1.0005036e-05
1.0004471e-05
1.0004027e-05
1.0003719e-05
1.0003522e-05
1.0003365e-05
1.000318e-05
1.0002968e-05
1.0002782e-05
1.0002646e-05
1.0002543e-05
1.0002452e-05
1.0002346e-05
1.0002213e-05
1.0002083e-05
1.0001939e-05
1.0001773e-05
1.0001608e-05
1.0001393e-05
1.0001168e-05
1.000093e-05
1.0000704e-05
1.0000516e-05
1.0000318e-05
1.0000124e-05
0.00037336912
0.00086978082
0.0011006314
0.0011077608
0.00084382771
0.00024971157
2.0381303e-05
1.0084438e-05
1.0062698e-05
1.0037504e-05
1.0039788e-05
1.003042e-05
1.0028823e-05
1.0024435e-05
1.0022386e-05
1.0019572e-05
1.0017423e-05
1.0015218e-05
1.0013287e-05
1.0011491e-05
1.0009923e-05
1.0008566e-05
1.000743e-05
1.0006485e-05
1.0005697e-05
1.0005023e-05
1.0004462e-05
1.0004015e-05
1.0003702e-05
1.0003503e-05
1.0003348e-05
1.000317e-05
1.0002961e-05
1.0002772e-05
1.0002632e-05
1.0002524e-05
1.000243e-05
1.0002322e-05
1.0002185e-05
1.0002049e-05
1.0001907e-05
1.0001743e-05
1.0001579e-05
1.0001369e-05
1.0001145e-05
1.000091e-05
1.0000689e-05
1.00005e-05
1.0000309e-05
1.0000121e-05
0.00037123083
0.00085792055
0.0010768281
0.001069511
0.00078391916
0.0002055716
1.6883998e-05
1.0064084e-05
1.0061899e-05
1.0036521e-05
1.0038946e-05
1.0029734e-05
1.0028217e-05
1.0023948e-05
1.0021963e-05
1.001923e-05
1.0017139e-05
1.0014993e-05
1.0013108e-05
1.0011354e-05
1.0009818e-05
1.0008488e-05
1.0007373e-05
1.0006443e-05
1.0005667e-05
1.0005002e-05
1.0004445e-05
1.0003997e-05
1.000368e-05
1.0003478e-05
1.0003327e-05
1.0003155e-05
1.000295e-05
1.0002759e-05
1.0002614e-05
1.0002503e-05
1.0002405e-05
1.0002297e-05
1.0002156e-05
1.0002014e-05
1.0001874e-05
1.0001711e-05
1.000155e-05
1.0001344e-05
1.000112e-05
1.0000888e-05
1.0000672e-05
1.0000485e-05
1.00003e-05
1.0000119e-05
0.00036913968
0.00084604162
0.0010529287
0.0010310523
0.00072182087
0.00016757463
1.4480026e-05
1.0051287e-05
1.0060573e-05
1.0035566e-05
1.0038054e-05
1.002906e-05
1.0027619e-05
1.0023469e-05
1.0021546e-05
1.0018892e-05
1.0016858e-05
1.0014769e-05
1.001293e-05
1.0011218e-05
1.0009716e-05
1.0008412e-05
1.0007317e-05
1.0006403e-05
1.0005639e-05
1.0004984e-05
1.000443e-05
1.0003981e-05
1.0003659e-05
1.0003453e-05
1.0003305e-05
1.000314e-05
1.000294e-05
1.0002747e-05
1.0002598e-05
1.0002483e-05
1.0002382e-05
1.0002272e-05
1.0002128e-05
1.0001981e-05
1.0001841e-05
1.000168e-05
1.000152e-05
1.0001319e-05
1.0001096e-05
1.0000867e-05
1.0000655e-05
1.0000471e-05
1.0000293e-05
1.0000117e-05
0.00036708526
0.00083401441
0.0010288016
0.00099265177
0.00065793791
0.00013453879
1.2859588e-05
1.0043007e-05
1.0058981e-05
1.0034636e-05
1.0037134e-05
1.0028397e-05
1.0027028e-05
1.0022997e-05
1.0021133e-05
1.0018559e-05
1.0016579e-05
1.0014548e-05
1.0012754e-05
1.0011082e-05
1.0009612e-05
1.0008335e-05
1.000726e-05
1.0006362e-05
1.000561e-05
1.0004964e-05
1.0004414e-05
1.0003964e-05
1.0003637e-05
1.0003429e-05
1.0003283e-05
1.0003125e-05
1.0002929e-05
1.0002735e-05
1.0002582e-05
1.0002462e-05
1.0002358e-05
1.0002248e-05
1.0002102e-05
1.0001948e-05
1.0001808e-05
1.0001649e-05
1.000149e-05
1.0001294e-05
1.0001071e-05
1.0000845e-05
1.0000638e-05
1.0000458e-05
1.0000287e-05
1.0000115e-05
0.00036505697
0.00082169781
0.0010037578
0.00095183114
0.00059278531
0.00010635914
1.1800258e-05
1.003753e-05
1.0057872e-05
1.0033735e-05
1.0036248e-05
1.0027746e-05
1.0026444e-05
1.0022533e-05
1.0020726e-05
1.0018229e-05
1.0016304e-05
1.0014328e-05
1.0012579e-05
1.0010947e-05
1.000951e-05
1.0008259e-05
1.0007204e-05
1.0006321e-05
1.0005581e-05
1.0004944e-05
1.0004398e-05
1.0003947e-05
1.0003617e-05
1.0003404e-05
1.0003259e-05
1.0003108e-05
1.0002917e-05
1.0002722e-05
1.0002566e-05
1.0002442e-05
1.0002335e-05
1.0002224e-05
1.0002076e-05
1.0001915e-05
1.0001773e-05
1.0001618e-05
1.000146e-05
1.0001269e-05
1.0001047e-05
1.0000823e-05
1.0000621e-05
1.0000445e-05
1.0000282e-05
1.0000112e-05
0.00036305113
0.0008092566
0.00097800917
0.00091122793
0.00052754162
8.2814954e-05
1.1128757e-05
1.0033818e-05
1.0056651e-05
1.0032862e-05
1.0035511e-05
1.0027111e-05
1.0025867e-05
1.0022076e-05
1.0020323e-05
1.0017904e-05
1.0016031e-05
1.0014111e-05
1.0012405e-05
1.0010813e-05
1.0009408e-05
1.0008183e-05
1.0007147e-05
1.000628e-05
1.0005551e-05
1.0004924e-05
1.0004382e-05
1.0003931e-05
1.0003596e-05
1.000338e-05
1.0003236e-05
1.000309e-05
1.0002905e-05
1.000271e-05
1.0002549e-05
1.0002422e-05
1.0002311e-05
1.0002199e-05
1.0002051e-05
1.0001884e-05
1.0001739e-05
1.0001586e-05
1.000143e-05
1.0001243e-05
1.0001023e-05
1.0000802e-05
1.0000603e-05
1.0000432e-05
1.0000276e-05
1.0000108e-05
0.00036109204
0.00079684954
0.00095197736
0.00087086429
0.00046299935
6.371506e-05
1.0713484e-05
1.0031191e-05
1.0055516e-05
1.0032018e-05
1.0034841e-05
1.0026493e-05
1.0025297e-05
1.0021627e-05
1.0019926e-05
1.0017583e-05
1.0015762e-05
1.0013895e-05
1.0012233e-05
1.001068e-05
1.0009307e-05
1.0008107e-05
1.0007091e-05
1.0006239e-05
1.0005521e-05
1.0004903e-05
1.0004366e-05
1.0003915e-05
1.0003576e-05
1.0003355e-05
1.0003211e-05
1.0003071e-05
1.0002892e-05
1.0002698e-05
1.0002533e-05
1.0002402e-05
1.0002288e-05
1.0002175e-05
1.0002027e-05
1.0001854e-05
1.0001705e-05
1.0001554e-05
1.0001399e-05
1.0001217e-05
1.0000999e-05
1.0000781e-05
1.0000586e-05
1.000042e-05
1.0000271e-05
1.0000104e-05
0.00035916607
0.00078462718
0.0009268482
0.00083005688
0.00040031733
4.8681753e-05
1.0461054e-05
1.0029233e-05
1.00544e-05
1.00312e-05
1.003404e-05
1.0025888e-05
1.0024735e-05
1.0021185e-05
1.0019534e-05
1.0017266e-05
1.0015495e-05
1.0013682e-05
1.0012062e-05
1.0010548e-05
1.0009206e-05
1.0008031e-05
1.0007034e-05
1.0006198e-05
1.0005491e-05
1.0004882e-05
1.000435e-05
1.0003899e-05
1.0003557e-05
1.0003331e-05
1.0003186e-05
1.0003052e-05
1.0002878e-05
1.0002685e-05
1.0002517e-05
1.0002382e-05
1.0002264e-05
1.000215e-05
1.0002003e-05
1.0001825e-05
1.0001671e-05
1.0001521e-05
1.0001369e-05
1.0001191e-05
1.0000975e-05
1.000076e-05
1.0000569e-05
1.0000407e-05
1.0000265e-05
1.0000099e-05
0.00035720113
0.00077204032
0.00090087301
0.00078801663
0.00034126789
3.7197798e-05
1.0310112e-05
1.0027688e-05
1.0053206e-05
1.0030405e-05
1.0033011e-05
1.0025289e-05
1.0024179e-05
1.002075e-05
1.0019147e-05
1.0016953e-05
1.0015231e-05
1.0013471e-05
1.0011893e-05
1.0010417e-05
1.0009106e-05
1.0007957e-05
1.0006978e-05
1.0006157e-05
1.0005461e-05
1.0004861e-05
1.0004333e-05
1.0003883e-05
1.0003537e-05
1.0003307e-05
1.0003161e-05
1.0003031e-05
1.0002864e-05
1.0002673e-05
1.0002502e-05
1.0002362e-05
1.0002241e-05
1.0002126e-05
1.000198e-05
1.0001798e-05
1.0001638e-05
1.0001489e-05
1.0001338e-05
1.0001165e-05
1.0000952e-05
1.000074e-05
1.0000552e-05
1.0000395e-05
1.0000258e-05
1.0000094e-05
0.00035519286
0.0007591806
0.00087427112
0.0007442881
0.0002874296
2.868539e-05
1.0221242e-05
1.002642e-05
1.0052043e-05
1.0029633e-05
1.0032071e-05
1.0024698e-05
1.0023632e-05
1.0020322e-05
1.0018765e-05
1.0016644e-05
1.001497e-05
1.0013263e-05
1.0011725e-05
1.0010287e-05
1.0009006e-05
1.0007882e-05
1.0006922e-05
1.0006115e-05
1.000543e-05
1.0004839e-05
1.0004317e-05
1.0003868e-05
1.0003519e-05
1.0003283e-05
1.0003135e-05
1.0003009e-05
1.0002849e-05
1.000266e-05
1.0002486e-05
1.0002342e-05
1.0002217e-05
1.0002101e-05
1.0001958e-05
1.0001773e-05
1.0001606e-05
1.0001457e-05
1.0001308e-05
1.0001139e-05
1.0000929e-05
1.0000719e-05
1.0000535e-05
1.0000383e-05
1.000025e-05
1.000009e-05
0.00035313822
0.00074614062
0.00084706425
0.00069900866
0.00023870475
2.2559474e-05
1.0168391e-05
1.0025343e-05
1.0050846e-05
1.0028889e-05
1.0031476e-05
1.0024125e-05
1.0023091e-05
1.0019901e-05
1.0018388e-05
1.001634e-05
1.0014714e-05
1.0013056e-05
1.0011559e-05
1.0010158e-05
1.0008908e-05
1.0007808e-05
1.0006867e-05
1.0006074e-05
1.00054e-05
1.0004817e-05
1.00043e-05
1.0003853e-05
1.00035e-05
1.0003259e-05
1.0003109e-05
1.0002987e-05
1.0002833e-05
1.0002647e-05
1.0002471e-05
1.0002323e-05
1.0002194e-05
1.0002076e-05
1.0001935e-05
1.0001749e-05
1.0001575e-05
1.0001425e-05
1.0001277e-05
1.0001113e-05
1.0000906e-05
1.0000699e-05
1.0000519e-05
1.0000371e-05
1.000024e-05
1.0000085e-05
0.00035107565
0.00073313994
0.00081935783
0.00065284456
0.00019551909
1.8283301e-05
1.0136373e-05
1.0024418e-05
1.0049667e-05
1.0028174e-05
1.0030924e-05
1.002357e-05
1.0022558e-05
1.0019487e-05
1.0018017e-05
1.0016041e-05
1.001446e-05
1.0012852e-05
1.0011395e-05
1.001003e-05
1.000881e-05
1.0007734e-05
1.0006812e-05
1.0006033e-05
1.0005369e-05
1.0004795e-05
1.0004283e-05
1.0003838e-05
1.0003483e-05
1.0003237e-05
1.0003084e-05
1.0002964e-05
1.0002816e-05
1.0002634e-05
1.0002455e-05
1.0002303e-05
1.000217e-05
1.0002051e-05
1.0001912e-05
1.0001726e-05
1.0001546e-05
1.0001394e-05
1.0001247e-05
1.0001087e-05
1.0000883e-05
1.0000678e-05
1.0000503e-05
1.000036e-05
1.0000231e-05
1.0000081e-05
0.00034906122
0.00072045813
0.00079159519
0.00060433948
0.00015881158
1.5380887e-05
1.0116615e-05
1.0023618e-05
1.0048481e-05
1.0027486e-05
1.0030173e-05
1.0023027e-05
1.0022033e-05
1.0019079e-05
1.0017652e-05
1.0015745e-05
1.0014209e-05
1.001265e-05
1.0011233e-05
1.0009905e-05
1.0008713e-05
1.0007661e-05
1.0006758e-05
1.0005992e-05
1.0005339e-05
1.0004772e-05
1.0004266e-05
1.0003823e-05
1.0003465e-05
1.0003214e-05
1.0003057e-05
1.0002939e-05
1.0002798e-05
1.000262e-05
1.000244e-05
1.0002284e-05
1.0002147e-05
1.0002025e-05
1.0001889e-05
1.0001705e-05
1.0001519e-05
1.0001363e-05
1.0001217e-05
1.0001061e-05
1.0000861e-05
1.0000658e-05
1.0000487e-05
1.0000348e-05
1.0000221e-05
1.0000076e-05
0.00034715177
0.0007082286
0.00076606584
0.00055370448
0.00012760389
1.3439733e-05
1.0104021e-05
1.0022954e-05
1.0047298e-05
1.0026815e-05
1.0029224e-05
1.002249e-05
1.0021516e-05
1.0018678e-05
1.0017291e-05
1.0015454e-05
1.0013962e-05
1.0012451e-05
1.0011072e-05
1.000978e-05
1.0008618e-05
1.0007589e-05
1.0006703e-05
1.0005951e-05
1.0005308e-05
1.0004749e-05
1.0004249e-05
1.0003808e-05
1.0003449e-05
1.0003193e-05
1.0003032e-05
1.0002915e-05
1.000278e-05
1.0002606e-05
1.0002425e-05
1.0002265e-05
1.0002123e-05
1.0001999e-05
1.0001866e-05
1.0001684e-05
1.0001494e-05
1.0001334e-05
1.0001187e-05
1.0001035e-05
1.0000839e-05
1.0000638e-05
1.0000472e-05
1.0000337e-05
1.0000212e-05
1.0000071e-05
0.00034529174
0.00069592426
0.00074009852
0.00050084848
0.00010091637
1.2169758e-05
1.0095745e-05
1.0022461e-05
1.0046104e-05
1.0026164e-05
1.0028357e-05
1.002196e-05
1.0021007e-05
1.0018284e-05
1.0016937e-05
1.0015166e-05
1.0013718e-05
1.0012254e-05
1.0010914e-05
1.0009657e-05
1.0008524e-05
1.0007518e-05
1.000665e-05
1.0005911e-05
1.0005277e-05
1.0004726e-05
1.0004231e-05
1.0003794e-05
1.0003433e-05
1.0003172e-05
1.0003006e-05
1.0002889e-05
1.000276e-05
1.0002591e-05
1.0002411e-05
1.0002247e-05
1.00021e-05
1.0001972e-05
1.0001842e-05
1.0001664e-05
1.000147e-05
1.0001306e-05
1.0001158e-05
1.0001009e-05
1.0000818e-05
1.0000618e-05
1.0000457e-05
1.0000325e-05
1.0000202e-05
1.0000067e-05
0.00034352553
0.00068368696
0.000713941
0.00044648812
7.8726013e-05
1.1364521e-05
1.0090066e-05
1.0022313e-05
1.0044875e-05
1.0025537e-05
1.002768e-05
1.0021444e-05
1.0020505e-05
1.0017896e-05
1.0016587e-05
1.0014883e-05
1.0013477e-05
1.001206e-05
1.0010758e-05
1.0009535e-05
1.0008431e-05
1.0007448e-05
1.0006598e-05
1.000587e-05
1.0005247e-05
1.0004703e-05
1.0004214e-05
1.000378e-05
1.0003419e-05
1.0003152e-05
1.0002981e-05
1.0002864e-05
1.0002739e-05
1.0002576e-05
1.0002396e-05
1.0002227e-05
1.0002077e-05
1.0001945e-05
1.0001816e-05
1.0001644e-05
1.0001449e-05
1.000128e-05
1.000113e-05
1.0000984e-05
1.0000797e-05
1.0000598e-05
1.0000442e-05
1.0000314e-05
1.0000192e-05
1.0000062e-05
0.00034185659
0.00067151681
0.00068753558
0.00039158752
6.0594259e-05
1.0866075e-05
1.0085908e-05
1.0022694e-05
1.0043603e-05
1.0024936e-05
1.0027136e-05
1.0020944e-05
1.0020012e-05
1.0017514e-05
1.0016243e-05
1.0014603e-05
1.001324e-05
1.0011868e-05
1.0010604e-05
1.0009416e-05
1.000834e-05
1.0007379e-05
1.0006547e-05
1.0005829e-05
1.0005216e-05
1.0004679e-05
1.0004197e-05
1.0003766e-05
1.0003404e-05
1.0003133e-05
1.0002956e-05
1.0002837e-05
1.0002717e-05
1.000256e-05
1.0002381e-05
1.000221e-05
1.0002054e-05
1.0001918e-05
1.000179e-05
1.0001623e-05
1.0001428e-05
1.0001255e-05
1.0001103e-05
1.0000958e-05
1.0000775e-05
1.0000579e-05
1.0000428e-05
1.0000304e-05
1.0000182e-05
1.0000057e-05
0.00034016629
0.0006586025
0.00066057363
0.0003376654
4.6350394e-05
1.0565378e-05
1.0082592e-05
1.0023149e-05
1.0042407e-05
1.0024356e-05
1.0026534e-05
1.0020457e-05
1.0019525e-05
1.0017137e-05
1.0015904e-05
1.0014328e-05
1.0013006e-05
1.0011679e-05
1.0010452e-05
1.0009298e-05
1.000825e-05
1.0007311e-05
1.0006496e-05
1.0005789e-05
1.0005186e-05
1.0004656e-05
1.000418e-05
1.0003753e-05
1.0003391e-05
1.0003115e-05
1.0002932e-05
1.0002811e-05
1.0002694e-05
1.0002543e-05
1.0002366e-05
1.0002192e-05
1.0002031e-05
1.0001891e-05
1.0001763e-05
1.0001602e-05
1.0001409e-05
1.0001232e-05
1.0001076e-05
1.0000932e-05
1.0000754e-05
1.0000559e-05
1.0000413e-05
1.0000293e-05
1.0000172e-05
1.0000052e-05
0.00033842487
0.00064474643
0.00063265144
0.00028788049
3.5512817e-05
1.0385054e-05
1.0079706e-05
1.0023623e-05
1.0041278e-05
1.0023795e-05
1.0025753e-05
1.0019977e-05
1.0019048e-05
1.0016767e-05
1.0015571e-05
1.0014056e-05
1.0012775e-05
1.0011494e-05
1.0010303e-05
1.0009183e-05
1.0008162e-05
1.0007245e-05
1.0006445e-05
1.000575e-05
1.0005155e-05
1.0004632e-05
1.0004162e-05
1.000374e-05
1.0003377e-05
1.0003097e-05
1.0002909e-05
1.0002784e-05
1.000267e-05
1.0002525e-05
1.0002351e-05
1.0002174e-05
1.0002009e-05
1.0001863e-05
1.0001735e-05
1.0001579e-05
1.0001389e-05
1.0001211e-05
1.0001052e-05
1.0000907e-05
1.0000733e-05
1.000054e-05
1.0000399e-05
1.0000283e-05
1.0000161e-05
1.0000047e-05
0.00033650274
0.00062966846
0.00060300414
0.0002422209
2.7509944e-05
1.02773e-05
1.0077064e-05
1.0024062e-05
1.0040151e-05
1.0023248e-05
1.0024903e-05
1.0019502e-05
1.0018578e-05
1.0016402e-05
1.0015242e-05
1.001379e-05
1.0012549e-05
1.001131e-05
1.0010157e-05
1.0009069e-05
1.0008075e-05
1.000718e-05
1.0006395e-05
1.0005711e-05
1.0005125e-05
1.0004609e-05
1.0004145e-05
1.0003727e-05
1.0003365e-05
1.0003082e-05
1.0002887e-05
1.0002758e-05
1.0002646e-05
1.0002506e-05
1.0002335e-05
1.0002157e-05
1.0001987e-05
1.0001836e-05
1.0001705e-05
1.0001555e-05
1.000137e-05
1.0001191e-05
1.0001028e-05
1.0000881e-05
1.0000712e-05
1.0000522e-05
1.0000386e-05
1.0000273e-05
1.0000151e-05
1.0000043e-05
0.00033433655
0.00061301196
0.00056882494
0.00020080319
2.1790688e-05
1.021339e-05
1.0074604e-05
1.0024021e-05
1.003904e-05
1.002272e-05
1.0024204e-05
1.0019036e-05
1.0018116e-05
1.0016042e-05
1.0014919e-05
1.0013526e-05
1.0012326e-05
1.0011131e-05
1.0010013e-05
1.0008958e-05
1.000799e-05
1.0007117e-05
1.0006346e-05
1.0005672e-05
1.0005094e-05
1.0004584e-05
1.0004127e-05
1.0003714e-05
1.0003353e-05
1.0003066e-05
1.0002865e-05
1.0002732e-05
1.000262e-05
1.0002485e-05
1.0002319e-05
1.0002141e-05
1.0001966e-05
1.0001808e-05
1.0001675e-05
1.000153e-05
1.000135e-05
1.0001172e-05
1.0001006e-05
1.0000856e-05
1.0000691e-05
1.0000504e-05
1.0000372e-05
1.0000263e-05
1.000014e-05
1.000004e-05
0.00033195754
0.00059519142
0.00053042645
0.00016450341
1.7827864e-05
1.0174852e-05
1.00724e-05
1.0023727e-05
1.0037943e-05
1.002221e-05
1.0023686e-05
1.0018584e-05
1.0017662e-05
1.0015688e-05
1.00146e-05
1.0013268e-05
1.0012107e-05
1.0010954e-05
1.0009872e-05
1.000885e-05
1.0007908e-05
1.0007055e-05
1.0006298e-05
1.0005635e-05
1.0005064e-05
1.0004561e-05
1.0004111e-05
1.0003702e-05
1.0003343e-05
1.0003053e-05
1.0002845e-05
1.0002706e-05
1.0002594e-05
1.0002464e-05
1.0002303e-05
1.0002124e-05
1.0001945e-05
1.0001781e-05
1.0001645e-05
1.0001502e-05
1.0001328e-05
1.0001152e-05
1.0000984e-05
1.0000831e-05
1.0000668e-05
1.0000487e-05
1.0000359e-05
1.0000253e-05
1.0000132e-05
1.0000039e-05
0.00032939929
0.00057660299
0.00048818493
0.00013393715
1.5147566e-05
1.0151212e-05
1.0070054e-05
1.0023325e-05
1.0036862e-05
1.002172e-05
1.0023156e-05
1.0018146e-05
1.0017216e-05
1.0015339e-05
1.0014288e-05
1.0013013e-05
1.0011893e-05
1.0010781e-05
1.0009735e-05
1.0008744e-05
1.0007828e-05
1.0006995e-05
1.000625e-05
1.0005597e-05
1.0005033e-05
1.0004537e-05
1.0004093e-05
1.000369e-05
1.0003332e-05
1.0003039e-05
1.0002825e-05
1.0002681e-05
1.0002567e-05
1.0002441e-05
1.0002285e-05
1.0002108e-05
1.0001925e-05
1.0001755e-05
1.0001613e-05
1.0001474e-05
1.0001305e-05
1.0001133e-05
1.0000964e-05
1.0000806e-05
1.0000646e-05
1.000047e-05
1.0000346e-05
1.0000244e-05
1.0000126e-05
1.0000039e-05
0.00032666698
0.00055741749
0.000444448
0.00010845514
1.3355809e-05
1.0136211e-05
1.0067689e-05
1.002286e-05
1.0035793e-05
1.0021245e-05
1.0022464e-05
1.0017715e-05
1.0016778e-05
1.0014995e-05
1.001398e-05
1.0012763e-05
1.0011682e-05
1.0010611e-05
1.0009601e-05
1.0008641e-05
1.0007751e-05
1.0006936e-05
1.0006204e-05
1.0005562e-05
1.0005004e-05
1.0004514e-05
1.0004076e-05
1.0003678e-05
1.0003324e-05
1.0003028e-05
1.0002807e-05
1.0002657e-05
1.000254e-05
1.0002417e-05
1.0002267e-05
1.0002092e-05
1.0001906e-05
1.0001729e-05
1.0001582e-05
1.0001443e-05
1.0001281e-05
1.0001112e-05
1.0000944e-05
1.0000782e-05
1.0000623e-05
1.0000454e-05
1.0000333e-05
1.0000235e-05
1.0000123e-05
1.0000042e-05
0.0003236549
0.00053687801
0.00040181019
8.6352572e-05
1.2171798e-05
1.0126347e-05
1.0065312e-05
1.0022347e-05
1.003474e-05
1.0020781e-05
1.0021693e-05
1.0017285e-05
1.0016348e-05
1.0014655e-05
1.0013677e-05
1.0012517e-05
1.0011476e-05
1.0010445e-05
1.000947e-05
1.0008542e-05
1.0007675e-05
1.0006879e-05
1.0006158e-05
1.0005525e-05
1.0004973e-05
1.0004489e-05
1.0004058e-05
1.0003666e-05
1.0003314e-05
1.0003017e-05
1.0002791e-05
1.0002633e-05
1.0002513e-05
1.0002392e-05
1.0002247e-05
1.0002075e-05
1.0001887e-05
1.0001704e-05
1.0001551e-05
1.0001412e-05
1.0001255e-05
1.0001091e-05
1.0000924e-05
1.0000759e-05
1.0000599e-05
1.0000437e-05
1.000032e-05
1.0000225e-05
1.0000121e-05
1.0000044e-05
0.000320583
0.00051588234
0.00035797383
6.7777959e-05
1.1417221e-05
1.0119558e-05
1.0062928e-05
1.0021798e-05
1.00337e-05
1.0020326e-05
1.0021092e-05
1.0016864e-05
1.0015926e-05
1.0014321e-05
1.001338e-05
1.0012276e-05
1.0011274e-05
1.0010284e-05
1.0009343e-05
1.0008446e-05
1.0007603e-05
1.0006824e-05
1.0006114e-05
1.0005491e-05
1.0004945e-05
1.0004466e-05
1.0004041e-05
1.0003655e-05
1.0003306e-05
1.0003008e-05
1.0002776e-05
1.0002611e-05
1.0002486e-05
1.0002366e-05
1.0002226e-05
1.0002058e-05
1.000187e-05
1.000168e-05
1.000152e-05
1.000138e-05
1.0001228e-05
1.0001068e-05
1.0000904e-05
1.0000736e-05
1.0000576e-05
1.0000421e-05
1.0000308e-05
1.0000216e-05
1.0000118e-05
1.0000046e-05
0.00031775818
0.00049668998
0.00031439248
5.2642381e-05
1.0947499e-05
1.0114588e-05
1.0060545e-05
1.0021217e-05
1.0032676e-05
1.0019885e-05
1.0020603e-05
1.0016457e-05
1.0015512e-05
1.0013992e-05
1.001309e-05
1.0012039e-05
1.0011076e-05
1.0010126e-05
1.0009221e-05
1.0008353e-05
1.0007532e-05
1.000677e-05
1.0006071e-05
1.0005455e-05
1.0004915e-05
1.0004442e-05
1.0004023e-05
1.0003643e-05
1.0003297e-05
1.0002999e-05
1.0002762e-05
1.0002589e-05
1.0002459e-05
1.0002339e-05
1.0002203e-05
1.000204e-05
1.0001852e-05
1.0001658e-05
1.0001489e-05
1.0001348e-05
1.00012e-05
1.0001044e-05
1.0000884e-05
1.0000715e-05
1.0000553e-05
1.0000405e-05
1.0000296e-05
1.0000207e-05
1.0000115e-05
1.0000047e-05
0.00031504256
0.00047678464
0.0002715335
4.0647364e-05
1.0657827e-05
1.0110671e-05
1.0058165e-05
1.002061e-05
1.0031666e-05
1.0019458e-05
1.0020028e-05
1.0016059e-05
1.0015107e-05
1.001367e-05
1.0012804e-05
1.0011807e-05
1.0010884e-05
1.0009973e-05
1.0009103e-05
1.0008264e-05
1.0007465e-05
1.0006718e-05
1.000603e-05
1.0005422e-05
1.0004886e-05
1.0004419e-05
1.0004006e-05
1.0003632e-05
1.000329e-05
1.0002992e-05
1.000275e-05
1.000257e-05
1.0002434e-05
1.0002311e-05
1.0002179e-05
1.0002022e-05
1.0001835e-05
1.0001636e-05
1.000146e-05
1.0001316e-05
1.0001172e-05
1.000102e-05
1.0000863e-05
1.0000694e-05
1.0000532e-05
1.0000389e-05
1.0000284e-05
1.0000199e-05
1.0000111e-05
1.0000048e-05
0.00031262892
0.00045631072
0.0002305951
3.1458019e-05
1.048305e-05
1.010736e-05
1.0055789e-05
1.0019981e-05
1.0030673e-05
1.0019041e-05
1.001939e-05
1.0015665e-05
1.0014712e-05
1.0013351e-05
1.0012522e-05
1.0011579e-05
1.0010696e-05
1.0009825e-05
1.0008989e-05
1.0008179e-05
1.00074e-05
1.0006667e-05
1.000599e-05
1.0005387e-05
1.0004857e-05
1.0004395e-05
1.0003988e-05
1.0003619e-05
1.0003283e-05
1.0002984e-05
1.0002739e-05
1.0002552e-05
1.0002409e-05
1.0002283e-05
1.0002153e-05
1.0002001e-05
1.0001819e-05
1.0001616e-05
1.0001432e-05
1.0001284e-05
1.0001143e-05
1.0000995e-05
1.0000842e-05
1.0000674e-05
1.0000513e-05
1.0000373e-05
1.0000273e-05
1.000019e-05
1.0000107e-05
1.0000048e-05
0.00031067007
0.00043516779
0.00019285692
2.4717824e-05
1.0377366e-05
1.0104395e-05
1.0053423e-05
1.001934e-05
1.0029696e-05
1.0018631e-05
1.0018817e-05
1.001528e-05
1.0014325e-05
1.0013039e-05
1.0012247e-05
1.0011355e-05
1.0010513e-05
1.0009682e-05
1.000888e-05
1.0008097e-05
1.0007338e-05
1.000662e-05
1.0005952e-05
1.0005355e-05
1.000483e-05
1.0004373e-05
1.0003972e-05
1.0003609e-05
1.0003277e-05
1.0002979e-05
1.000273e-05
1.0002536e-05
1.0002385e-05
1.0002255e-05
1.0002126e-05
1.000198e-05
1.0001801e-05
1.0001596e-05
1.0001405e-05
1.0001253e-05
1.0001115e-05
1.0000972e-05
1.0000821e-05
1.0000654e-05
1.0000495e-05
1.0000359e-05
1.0000262e-05
1.0000181e-05
1.0000105e-05
1.0000047e-05
0.00030925276
0.00041476703
0.00015932916
1.995247e-05
1.0311455e-05
1.0101655e-05
1.0051072e-05
1.001869e-05
1.0028737e-05
1.0018229e-05
1.0018296e-05
1.0014905e-05
1.0013947e-05
1.001273e-05
1.0011977e-05
1.0011138e-05
1.0010337e-05
1.0009545e-05
1.0008777e-05
1.0008019e-05
1.0007279e-05
1.0006572e-05
1.0005913e-05
1.0005322e-05
1.0004801e-05
1.0004349e-05
1.0003953e-05
1.0003598e-05
1.0003269e-05
1.0002973e-05
1.0002721e-05
1.0002521e-05
1.0002363e-05
1.0002227e-05
1.0002097e-05
1.0001956e-05
1.0001783e-05
1.0001578e-05
1.000138e-05
1.0001223e-05
1.0001088e-05
1.0000949e-05
1.00008e-05
1.0000635e-05
1.0000478e-05
1.0000345e-05
1.000025e-05
1.0000173e-05
1.0000101e-05
1.0000048e-05
0.00030784775
0.00038901546
0.00012960449
1.6658465e-05
1.0268987e-05
1.0099097e-05
1.0048748e-05
1.0018034e-05
1.0027797e-05
1.0017838e-05
1.0017761e-05
1.0014539e-05
1.0013577e-05
1.0012428e-05
1.0011712e-05
1.0010925e-05
1.0010166e-05
1.0009415e-05
1.0008679e-05
1.0007945e-05
1.0007224e-05
1.0006528e-05
1.0005878e-05
1.0005291e-05
1.0004774e-05
1.0004327e-05
1.0003937e-05
1.0003587e-05
1.0003263e-05
1.0002969e-05
1.0002715e-05
1.0002509e-05
1.0002343e-05
1.00022e-05
1.0002068e-05
1.000193e-05
1.0001764e-05
1.000156e-05
1.0001356e-05
1.0001194e-05
1.000106e-05
1.0000926e-05
1.0000781e-05
1.0000617e-05
1.0000462e-05
1.0000332e-05
1.000024e-05
1.0000164e-05
1.0000096e-05
1.000005e-05
0.00030664809
0.00036175246
0.00010445776
1.4452977e-05
1.0240281e-05
1.0096724e-05
1.0046462e-05
1.0017376e-05
1.0026878e-05
1.0017454e-05
1.0017223e-05
1.001418e-05
1.0013217e-05
1.001213e-05
1.0011454e-05
1.0010719e-05
1.0010004e-05
1.000929e-05
1.0008587e-05
1.0007874e-05
1.000717e-05
1.0006484e-05
1.0005842e-05
1.0005259e-05
1.0004746e-05
1.0004303e-05
1.0003919e-05
1.0003574e-05
1.0003256e-05
1.0002964e-05
1.0002708e-05
1.0002498e-05
1.0002324e-05
1.0002174e-05
1.0002037e-05
1.0001902e-05
1.0001742e-05
1.0001542e-05
1.0001334e-05
1.0001165e-05
1.0001033e-05
1.0000904e-05
1.0000763e-05
1.0000599e-05
1.0000445e-05
1.0000319e-05
1.0000228e-05
1.0000155e-05
1.0000091e-05
1.0000054e-05
0.00030525291
0.00033049491
8.4221849e-05
1.3001949e-05
1.0219659e-05
1.0094575e-05
1.0044222e-05
1.0016723e-05
1.002598e-05
1.0017074e-05
1.0016705e-05
1.0013831e-05
1.0012865e-05
1.0011839e-05
1.0011202e-05
1.001052e-05
1.0009848e-05
1.0009173e-05
1.0008501e-05
1.0007809e-05
1.0007121e-05
1.0006443e-05
1.0005809e-05
1.0005231e-05
1.0004721e-05
1.0004282e-05
1.0003902e-05
1.0003563e-05
1.000325e-05
1.000296e-05
1.0002704e-05
1.0002488e-05
1.0002308e-05
1.000215e-05
1.0002007e-05
1.0001872e-05
1.0001719e-05
1.0001524e-05
1.0001312e-05
1.0001138e-05
1.0001006e-05
1.0000882e-05
1.0000745e-05
1.0000582e-05
1.0000429e-05
1.0000306e-05
1.0000218e-05
1.0000146e-05
1.0000085e-05
1.0000057e-05
0.00030349671
0.00029694554
6.7120189e-05
1.2046664e-05
1.0203942e-05
1.0092401e-05
1.0042035e-05
1.001608e-05
1.0025101e-05
1.0016693e-05
1.0016192e-05
1.0013496e-05
1.0012525e-05
1.0011554e-05
1.0010957e-05
1.0010329e-05
1.00097e-05
1.0009064e-05
1.0008418e-05
1.0007747e-05
1.0007072e-05
1.0006402e-05
1.0005774e-05
1.00052e-05
1.0004694e-05
1.000426e-05
1.0003884e-05
1.000355e-05
1.0003241e-05
1.0002955e-05
1.0002699e-05
1.000248e-05
1.0002294e-05
1.0002128e-05
1.0001977e-05
1.000184e-05
1.0001692e-05
1.0001504e-05
1.0001292e-05
1.0001113e-05
1.0000979e-05
1.0000859e-05
1.0000726e-05
1.0000566e-05
1.0000412e-05
1.0000294e-05
1.0000207e-05
1.0000137e-05
1.0000079e-05
1.000006e-05
0.00030093822
0.00025936725
5.330389e-05
1.1435618e-05
1.0191214e-05
1.0090282e-05
1.0039908e-05
1.0015454e-05
1.0024235e-05
1.001632e-05
1.0015646e-05
1.0013174e-05
1.0012195e-05
1.0011276e-05
1.0010719e-05
1.0010146e-05
1.0009561e-05
1.0008963e-05
1.0008343e-05
1.0007691e-05
1.0007029e-05
1.0006366e-05
1.0005743e-05
1.0005173e-05
1.000467e-05
1.0004238e-05
1.0003867e-05
1.0003538e-05
1.0003235e-05
1.0002952e-05
1.0002696e-05
1.0002474e-05
1.0002282e-05
1.0002108e-05
1.0001949e-05
1.0001808e-05
1.0001663e-05
1.0001482e-05
1.0001272e-05
1.0001088e-05
1.0000953e-05
1.0000836e-05
1.0000707e-05
1.0000551e-05
1.0000397e-05
1.0000281e-05
1.0000197e-05
1.0000128e-05
1.0000075e-05
1.0000065e-05
0.00029791447
0.00021998205
4.2589579e-05
1.1048444e-05
1.0180228e-05
1.0088216e-05
1.0037849e-05
1.0014854e-05
1.0023379e-05
1.0015957e-05
1.0015172e-05
1.0012859e-05
1.0011877e-05
1.0011006e-05
1.0010491e-05
1.0009972e-05
1.0009432e-05
1.0008869e-05
1.0008272e-05
1.0007637e-05
1.0006984e-05
1.0006328e-05
1.000571e-05
1.0005143e-05
1.0004645e-05
1.0004216e-05
1.0003848e-05
1.0003524e-05
1.0003226e-05
1.0002947e-05
1.0002692e-05
1.0002468e-05
1.0002272e-05
1.0002091e-05
1.0001922e-05
1.0001774e-05
1.0001631e-05
1.0001457e-05
1.0001251e-05
1.0001064e-05
1.0000927e-05
1.0000811e-05
1.0000687e-05
1.0000536e-05
1.0000383e-05
1.0000269e-05
1.0000187e-05
1.000012e-05
1.000007e-05
1.0000068e-05
0.00029515011
0.00019141197
3.4525283e-05
1.0795356e-05
1.0170112e-05
1.0086188e-05
1.0035856e-05
1.0014297e-05
1.0022537e-05
1.0015602e-05
1.001473e-05
1.0012554e-05
1.0011572e-05
1.0010745e-05
1.0010272e-05
1.0009808e-05
1.0009315e-05
1.0008783e-05
1.000821e-05
1.000759e-05
1.0006945e-05
1.0006295e-05
1.0005682e-05
1.0005118e-05
1.0004622e-05
1.0004196e-05
1.0003831e-05
1.0003511e-05
1.0003218e-05
1.0002942e-05
1.0002688e-05
1.0002463e-05
1.0002264e-05
1.0002076e-05
1.0001898e-05
1.0001741e-05
1.0001597e-05
1.000143e-05
1.0001229e-05
1.0001042e-05
1.0000902e-05
1.0000787e-05
1.0000665e-05
1.000052e-05
1.0000369e-05
1.0000257e-05
1.0000177e-05