/*--------------------------------*- C++ -*----------------------------------*\
| =========                 |                                                 |
| \\      /  F ield         | OpenFOAM: The Open Source CFD Toolbox           |
|  \\    /   O peration     | Version:  2306                                  |
|   \\  /    A nd           | Website:  www.openfoam.com                      |
|    \\/     M anipulation  |                                                 |
\*---------------------------------------------------------------------------*/
FoamFile
{
    version     2.0;
    format      ascii;
    arch        "LSB;label=32;scalar=64";
    class       volScalarField;
    location    "0.02";
    object      T;
}
// * * * * * * * * * * * * * * * * * * * * * * * * * * * * * * * * * * * * * //

dimensions      [0 0 0 1 0 0 0];

internalField   nonuniform List<scalar> 
20000
(
298.51005
298.61072
298.63677
298.58614
298.39789
297.91662
297.62079
297.62756
297.66247
297.68585
297.72066
297.7498
297.78556
297.82022
297.85934
297.89949
297.94317
297.98883
298.03755
298.08831
298.14111
298.19482
298.2483
298.29963
298.34662
298.38662
298.41751
298.43741
298.44525
298.44176
298.42831
298.40689
298.37989
298.34943
298.31735
298.28518
298.25411
298.22495
298.1981
298.1741
298.15212
298.13198
298.11506
298.10102
298.08877
298.08064
298.07287
298.06482
298.05583
298.05657
298.51227
298.6132
298.63777
298.58265
298.38543
297.88574
297.63085
297.64204
297.67695
297.7002
297.73529
297.76463
297.8008
297.83591
297.87561
297.91642
297.96086
298.00739
298.05702
298.10873
298.16246
298.217
298.27111
298.32272
298.3695
298.40873
298.43832
298.45619
298.46174
298.45585
298.44
298.41645
298.38759
298.35565
298.32239
298.28919
298.25729
298.2275
298.20022
298.17588
298.15365
298.13332
298.11619
298.10192
298.08948
298.08122
298.07331
298.06472
298.05692
298.05636
298.5142
298.61502
298.63773
298.57685
298.36747
297.85251
297.6417
297.65706
297.69249
297.71596
297.7515
297.78123
297.81786
297.85351
297.8938
297.93531
297.98051
298.02788
298.07838
298.13101
298.18556
298.24079
298.2953
298.3469
298.39311
298.43118
298.459
298.47438
298.47734
298.46871
298.45027
298.42442
298.39366
298.3602
298.32577
298.29173
298.25921
298.22896
298.20135
298.17678
298.15436
298.13392
298.11667
298.10228
298.08975
298.08145
298.07347
298.06463
298.05707
298.05628
298.51639
298.61779
298.6391
298.57246
298.34924
297.82654
297.65667
297.67378
297.70948
297.73301
297.76891
297.79898
297.83606
297.87223
297.91313
297.95536
298.00134
298.0496
298.10101
298.15457
298.20999
298.26593
298.32084
298.37242
298.41801
298.45487
298.48078
298.49362
298.49386
298.48238
298.46126
298.43306
298.40032
298.36531
298.32969
298.29472
298.26151
298.23075
298.20279
298.17795
298.15532
298.13475
298.11736
298.10281
298.09017
298.08181
298.07372
298.06461
298.05763
298.05618
298.51917
298.6212
298.6412
298.56821
298.32812
297.80492
297.67477
297.69161
297.72772
297.7514
297.78769
297.81813
297.85569
297.89242
297.93395
297.97692
298.02372
298.07287
298.12523
298.17973
298.236
298.29261
298.34786
298.39928
298.44408
298.47954
298.50322
298.51333
298.5106
298.4961
298.47216
298.4415
298.40673
298.37012
298.33328
298.29741
298.26353
298.2323
298.204
298.17892
298.15611
298.13543
298.11792
298.10324
298.09051
298.08211
298.07393
298.06459
298.05805
298.05611
298.5213
298.62473
298.64401
298.56467
298.30483
297.78794
297.69646
297.71091
297.74734
297.77115
297.80784
297.83866
297.87669
297.914
297.95617
297.99991
298.04755
298.09764
298.15095
298.2064
298.26353
298.32078
298.3763
298.42746
298.47134
298.50521
298.52639
298.53365
298.52775
298.51008
298.48321
298.45001
298.41316
298.37493
298.33686
298.30006
298.26552
298.2338
298.20518
298.17988
298.1569
298.13611
298.11849
298.10368
298.09086
298.08242
298.07415
298.06459
298.05861
298.05603
298.52559
298.63
298.64831
298.56251
298.27932
297.77595
297.71612
297.73152
297.76834
297.79229
297.82937
297.8606
297.89911
297.93703
297.97987
298.0244
298.07292
298.12396
298.17825
298.23467
298.29264
298.3505
298.40622
298.45698
298.49978
298.53181
298.55024
298.55445
298.54516
298.52416
298.49425
298.45844
298.41948
298.37959
298.34028
298.30257
298.26736
298.23517
298.20624
298.18073
298.1576
298.13672
298.119
298.10408
298.09119
298.08272
298.07435
298.06459
298.05906
298.05598
298.52926
298.63518
298.65309
298.56109
298.2516
297.76966
297.73864
297.75353
297.79068
297.81479
297.85227
297.88392
297.92295
297.9615
298.00503
298.0504
298.09981
298.15186
298.20714
298.26455
298.32335
298.38176
298.43758
298.4878
298.52937
298.55928
298.57475
298.57567
298.5628
298.53834
298.50529
298.46681
298.42569
298.38415
298.34359
298.30495
298.26908
298.23643
298.20721
298.1815
298.15824
298.13727
298.11947
298.10446
298.0915
298.08301
298.07452
298.0646
298.05948
298.05596
298.5341
298.64126
298.65872
298.56084
298.22212
297.76876
297.76201
297.77678
297.81433
297.83864
297.87654
297.90866
297.94822
297.98744
298.03171
298.07794
298.12829
298.18136
298.23767
298.29607
298.35569
298.41461
298.47042
298.51995
298.56008
298.58755
298.59989
298.59724
298.58061
298.55253
298.51625
298.47505
298.43176
298.38855
298.34675
298.3072
298.27067
298.23757
298.20806
298.18217
298.15879
298.13775
298.11988
298.10479
298.09178
298.08329
298.07462
298.06465
298.05989
298.05596
298.53878
298.64737
298.66431
298.56097
298.19165
297.77356
297.78681
297.80138
297.83931
297.86384
297.9022
297.93481
297.97494
298.01486
298.0599
298.10704
298.15837
298.21251
298.26987
298.32926
298.38967
298.44903
298.50471
298.55339
298.59187
298.61656
298.62557
298.6191
298.59852
298.5667
298.52711
298.48315
298.43767
298.39278
298.34975
298.3093
298.27212
298.23859
298.2088
298.18275
298.15926
298.13817
298.12023
298.10507
298.09203
298.08355
298.07465
298.06473
298.06031
298.056
298.54456
298.65422
298.67036
298.56192
298.16154
297.78454
297.81285
297.82729
297.86565
297.89043
297.92924
297.96239
298.00312
298.0438
298.08965
298.13775
298.1901
298.24533
298.30377
298.36415
298.42533
298.48506
298.54047
298.58812
298.62466
298.64627
298.65172
298.64117
298.61645
298.58077
298.53781
298.49105
298.44337
298.39683
298.35258
298.31124
298.27344
298.23947
298.20943
298.18322
298.15965
298.13851
298.12052
298.1053
298.09224
298.08379
298.07464
298.06483
298.06073
298.05607
298.55052
298.66127
298.67617
298.56239
298.13269
297.80082
297.8401
297.85452
297.89331
297.91838
297.95771
297.99145
298.03282
298.0743
298.12101
298.17011
298.22351
298.27987
298.3394
298.40078
298.46268
298.52267
298.57767
298.62411
298.65836
298.67666
298.67825
298.66337
298.63435
298.59469
298.54829
298.49873
298.44886
298.40068
298.35523
298.31302
298.2746
298.24022
298.20994
298.18361
298.15997
298.13879
298.12077
298.10548
298.09242
298.08401
298.07458
298.06494
298.06118
298.05615
298.55689
298.6686
298.68191
298.56201
298.10631
297.82204
297.86865
297.88314
297.92243
297.94785
297.9877
298.02207
298.06411
298.10643
298.15402
298.20415
298.25865
298.31617
298.37681
298.43917
298.50174
298.5619
298.61631
298.66131
298.69291
298.70765
298.70504
298.68561
298.65211
298.60839
298.55852
298.50614
298.4541
298.40431
298.35768
298.31462
298.2756
298.24084
298.21036
298.18391
298.16021
298.13901
298.12096
298.10563
298.09256
298.08422
298.07446
298.06506
298.06163
298.05622
298.56408
298.67692
298.68804
298.56028
298.08439
297.84686
297.89887
297.91342
297.95315
297.97891
298.01928
298.0543
298.09702
298.14021
298.18872
298.23993
298.29555
298.35427
298.41602
298.47935
298.54253
298.60271
298.65635
298.69967
298.72821
298.73917
298.73203
298.70781
298.66969
298.62182
298.56844
298.51326
298.45908
298.40769
298.35992
298.31604
298.27644
298.24134
298.21067
298.18412
298.16037
298.13916
298.12109
298.10574
298.09269
298.08441
298.07429
298.06518
298.06211
298.05631
298.57277
298.68669
298.69485
298.55658
298.06773
297.87857
297.93055
297.94518
297.98539
298.01153
298.05244
298.08815
298.13158
298.17568
298.22516
298.27748
298.33428
298.3942
298.45708
298.52134
298.58507
298.64513
298.69781
298.7391
298.76424
298.7711
298.75911
298.72988
298.68699
298.63489
298.57801
298.52004
298.46374
298.41082
298.36195
298.31727
298.27715
298.2417
298.21082
298.18419
298.16041
298.1392
298.12113
298.10575
298.09278
298.08455
298.07406
298.06531
298.0626
298.05639
298.58169
298.69746
298.70212
298.54962
298.05713
297.91042
297.96373
297.97852
298.0192
298.04576
298.08724
298.12368
298.16785
298.2129
298.26338
298.31686
298.37485
298.436
298.50002
298.56518
298.62934
298.68913
298.74063
298.7795
298.80093
298.80331
298.78617
298.75171
298.70393
298.64757
298.58718
298.52647
298.4681
298.41368
298.36373
298.31831
298.2777
298.24187
298.21084
298.18417
298.16039
298.13919
298.12111
298.10571
298.09282
298.08462
298.07378
298.06545
298.0631
298.05649
298.59145
298.70959
298.71089
298.54008
298.05271
297.94314
297.99852
298.01346
298.05465
298.08167
298.12371
298.16091
298.20586
298.25189
298.30342
298.35809
298.41731
298.47972
298.54487
298.61089
298.67537
298.73469
298.78476
298.82077
298.8382
298.83568
298.8131
298.77322
298.72043
298.65978
298.59589
298.53248
298.47211
298.41624
298.36528
298.31917
298.27804
298.2419
298.21076
298.18406
298.16028
298.13911
298.12104
298.10564
298.09281
298.08465
298.07347
298.06559
298.06361
298.05658
298.60132
298.72283
298.7211
298.52704
298.05465
297.9785
298.03495
298.05008
298.09175
298.11925
298.16188
298.19987
298.24562
298.29267
298.34529
298.40121
298.4617
298.52539
298.59166
298.65847
298.72315
298.7818
298.83014
298.86282
298.87592
298.86811
298.8398
298.7943
298.73643
298.67147
298.60414
298.53808
298.47576
298.41851
298.36658
298.31983
298.27816
298.2418
298.21056
298.18384
298.16009
298.13895
298.12092
298.10552
298.09276
298.08463
298.07315
298.06575
298.06412
298.05669
298.61275
298.73785
298.73371
298.51142
298.06397
298.01564
298.07299
298.0883
298.13047
298.15847
298.2017
298.24053
298.28714
298.33528
298.38906
298.44626
298.50807
298.57305
298.64043
298.70796
298.77267
298.83043
298.87666
298.90557
298.91397
298.90045
298.86613
298.81484
298.75182
298.68257
298.61184
298.54321
298.47903
298.42045
298.36765
298.32025
298.27816
298.24155
298.21023
298.18353
298.15982
298.13873
298.12073
298.10534
298.09268
298.08451
298.07285
298.06593
298.06464
298.05679
298.6242
298.75349
298.74787
298.49288
298.07962
298.05423
298.1124
298.12798
298.17069
298.19927
298.24318
298.28293
298.33046
298.37976
298.43474
298.4933
298.55646
298.62275
298.69121
298.75936
298.82392
298.88054
298.92418
298.94895
298.95219
298.93257
298.89198
298.83476
298.76656
298.69304
298.61898
298.54788
298.4819
298.42208
298.36848
298.32039
298.27796
298.24115
298.20979
298.18312
298.15945
298.13843
298.12048
298.10511
298.09255
298.08424
298.07259
298.06613
298.06516
298.05691
298.63601
298.76969
298.76364
298.47306
298.10315
298.09428
298.1533
298.16921
298.21253
298.24177
298.2864
298.32714
298.37566
298.42618
298.48244
298.54239
298.60693
298.67454
298.74403
298.81268
298.87689
298.93206
298.97261
298.99285
298.9904
298.96434
298.91721
298.85395
298.78054
298.70281
298.62552
298.55203
298.48435
298.42341
298.36899
298.32038
298.27759
298.2406
298.20923
298.1826
298.15901
298.13807
298.12016
298.10483
298.09237
298.08384
298.07234
298.06633
298.06568
298.05702
298.64832
298.78655
298.78052
298.45296
298.1346
298.1359
298.19584
298.21216
298.25611
298.28607
298.33148
298.37327
298.42282
298.47461
298.53219
298.5936
298.65954
298.72846
298.79891
298.8679
298.93154
298.98491
299.02181
299.03712
299.02848
298.9956
298.94172
298.87232
298.79373
298.71187
298.63145
298.55567
298.48639
298.42443
298.36917
298.32013
298.27704
298.2399
298.20854
298.18199
298.15848
298.13763
298.1198
298.10451
298.09215
298.08332
298.0721
298.06654
298.06619
298.05714
298.66211
298.80451
298.79835
298.43474
298.17055
298.17941
298.24027
298.25702
298.30162
298.33234
298.37853
298.4214
298.47203
298.52513
298.58409
298.64696
298.71434
298.78454
298.85588
298.92505
298.98784
299.03896
299.07168
299.08158
299.06625
299.02619
298.96536
298.88977
298.80603
298.72014
298.6367
298.55875
298.48804
298.42503
298.36914
298.31967
298.2763
298.23906
298.20774
298.18127
298.15786
298.13712
298.11937
298.10414
298.09188
298.0827
298.07185
298.06675
298.06667
298.05726
298.6775
298.82383
298.81657
298.42008
298.21616
298.22494
298.28669
298.3039
298.34909
298.38059
298.42759
298.47159
298.52334
298.57781
298.63818
298.70256
298.77138
298.84283
298.91493
298.98408
299.04574
299.09406
299.12213
299.12603
299.10353
299.05598
298.98803
298.90622
298.81741
298.72761
298.64129
298.56131
298.48927
298.42523
298.36881
298.31897
298.27538
298.23807
298.20683
298.18046
298.15716
298.13655
298.11888
298.10373
298.09157
298.08196
298.07157
298.06695
298.06712
298.05736
298.69404
298.84425
298.8339
298.40994
298.2615
298.27225
298.33493
298.35268
298.39853
298.43088
298.47871
298.52388
298.5768
298.63268
298.69452
298.76044
298.83071
298.90336
298.9761
299.04499
299.10515
299.15006
299.17299
299.17028
299.14014
299.08478
299.00959
298.92157
298.82779
298.73422
298.64516
298.56335
298.48998
298.42514
298.36821
298.31806
298.27428
298.23694
298.20579
298.17955
298.15637
298.13591
298.11835
298.10328
298.0912
298.08114
298.07127
298.06713
298.06754
298.05745
298.71215
298.86662
298.8499
298.40626
298.30909
298.32159
298.38517
298.40351
298.44999
298.48321
298.53191
298.57833
298.63246
298.68981
298.75315
298.82067
298.89237
298.96616
299.03937
299.10773
299.16597
299.20681
299.22409
299.21412
299.1759
299.11247
299.02995
298.93577
298.83715
298.73996
298.64835
298.56485
298.49018
298.4247
298.36733
298.31691
298.27301
298.23568
298.20465
298.17854
298.15551
298.1352
298.11776
298.1028
298.09078
298.08023
298.07092
298.06726
298.0679
298.05747
298.732
298.89123
298.86426
298.40946
298.35991
298.3728
298.43728
298.4563
298.50344
298.53764
298.58724
298.63496
298.69038
298.74925
298.81418
298.88329
298.95643
299.03125
299.10474
299.17227
299.22805
299.26416
299.27519
299.25734
299.2106
299.13887
299.04896
298.94872
298.84542
298.74479
298.65086
298.56567
298.49002
298.42389
298.36617
298.31555
298.27156
298.23428
298.20339
298.17743
298.15456
298.13443
298.11712
298.10228
298.09029
298.07926
298.07052
298.0673
298.06824
298.05748
298.75228
298.91798
298.87529
298.41896
298.41278
298.42589
298.49133
298.51113
298.55895
298.59419
298.64476
298.69386
298.75063
298.81109
298.87763
298.94839
299.02292
299.09865
299.17218
299.23851
299.29117
299.32201
299.32604
299.29973
299.24406
299.16385
299.06658
298.96039
298.85258
298.74876
298.65268
298.56589
298.4894
298.42274
298.36472
298.31396
298.26994
298.23276
298.20202
298.17622
298.15353
298.1336
298.11644
298.10173
298.08968
298.07827
298.07009
298.0673
298.0685
298.05749
298.77429
298.9479
298.88412
298.4398
298.46801
298.48107
298.54742
298.56805
298.61659
298.65293
298.70451
298.75507
298.81328
298.87541
298.94363
299.01602
299.09189
299.16837
299.24167
299.30638
299.35517
299.38011
299.37636
299.34104
299.27607
299.18725
299.08266
298.9707
298.8586
298.75185
298.65364
298.56561
298.48833
298.42123
298.36299
298.31215
298.26816
298.23111
298.20055
298.17491
298.15243
298.13271
298.11571
298.10114
298.08889
298.0773
298.06965
298.06728
298.06863
298.05746
298.79594
298.97952
298.89029
298.46954
298.52499
298.53815
298.60548
298.62706
298.67636
298.71391
298.7666
298.81872
298.87844
298.9423
299.01222
299.08626
299.16337
299.24041
299.31315
299.37572
299.41983
299.43825
299.42594
299.38104
299.30648
299.20897
299.09717
298.97962
298.86352
298.75406
298.65386
298.56477
298.48683
298.41938
298.36099
298.31013
298.26621
298.22934
298.19896
298.17351
298.15124
298.13175
298.11495
298.10052
298.08793
298.07633
298.06917
298.06718
298.06869
298.0574
298.8175
299.01413
298.89574
298.50924
298.58394
298.59727
298.66563
298.68829
298.73844
298.7773
298.83118
298.88492
298.94623
299.01186
299.08354
299.15916
299.2374
299.31475
299.38658
299.44631
299.48499
299.4961
299.47447
299.41946
299.33505
299.22885
299.10999
298.98711
298.86732
298.75516
298.65344
298.56336
298.48489
298.41718
298.35871
298.30789
298.26411
298.22745
298.19728
298.17202
298.14999
298.13074
298.11414
298.09987
298.08684
298.07535
298.06863
298.06696
298.0687
298.05729
298.8383
299.05133
298.90107
298.55774
298.64502
298.65867
298.72817
298.752
298.80305
298.84329
298.89839
298.95383
299.01677
299.08423
299.15763
299.23479
299.31399
299.39137
299.46182
299.51792
299.55049
299.55333
299.52169
299.4561
299.36166
299.24682
299.12109
298.99322
298.87
298.75538
298.6523
298.56142
298.48252
298.41464
298.35617
298.30544
298.26186
298.22545
298.19549
298.17043
298.14866
298.12967
298.11331
298.09919
298.08565
298.07432
298.06801
298.06661
298.06862
298.05712
298.85965
299.09186
298.90913
298.61134
298.70884
298.72282
298.7934
298.81842
298.87036
298.91199
298.96836
299.02552
299.09016
299.15944
299.23457
299.31317
299.39314
299.47022
299.53875
299.5903
299.61599
299.60963
299.56728
299.49069
299.3861
299.26274
299.13043
298.99793
298.87129
298.75476
298.65047
298.55894
298.47974
298.41177
298.35336
298.30279
298.25945
298.22333
298.1936
298.16875
298.14725
298.12853
298.11244
298.09851
298.08447
298.07329
298.06732
298.06613
298.06837
298.05686
298.88019
299.13403
298.9214
298.67027
298.77525
298.78959
298.86126
298.88752
298.94038
298.98346
299.04114
299.1001
299.16647
299.23762
299.31442
299.39434
299.47484
299.55121
299.61716
299.66321
299.68119
299.66468
299.61096
299.52303
299.40826
299.27656
299.13804
299.0012
298.87151
298.75326
298.64797
298.55594
298.47655
298.40858
298.35029
298.29995
298.2569
298.22111
298.19161
298.16698
298.14578
298.12734
298.11155
298.09784
298.08344
298.07232
298.06653
298.06555
298.06792
298.05649
298.90051
299.17695
298.93953
298.73265
298.84407
298.85885
298.93169
298.95932
299.01317
299.05779
299.11686
299.17767
299.24583
299.31882
299.39725
299.47833
299.55906
299.63426
299.69675
299.73641
299.74566
299.71809
299.6524
299.55286
299.42797
299.28821
299.14391
299.00276
298.87065
298.75089
298.6448
298.55243
298.47296
298.40507
298.34696
298.29691
298.25421
298.21878
298.18953
298.16512
298.14423
298.12609
298.11063
298.09721
298.08273
298.07173
298.06588
298.06486
298.06727
298.05598
298.92101
299.21929
298.96459
298.7999
298.91549
298.93086
299.0049
299.03401
299.08888
299.13512
299.19562
299.25832
299.32829
299.40313
299.4831
299.56514
299.64575
299.71918
299.77723
299.80964
299.80901
299.76954
299.69134
299.58004
299.44515
299.29774
299.14797
299.00301
298.8687
298.74769
298.64101
298.54843
298.46899
298.40125
298.34339
298.29368
298.25139
298.21634
298.18735
298.16318
298.14261
298.12477
298.10967
298.09663
298.08235
298.07144
298.06541
298.06422
298.06642
298.05526
298.94305
299.26098
298.9987
298.87136
298.98976
299.00582
299.08102
299.11172
299.16763
299.21553
299.2775
299.34213
299.41397
299.49062
299.57202
299.65476
299.73482
299.80579
299.85826
299.88246
299.87081
299.81859
299.72744
299.60431
299.45969
299.3051
299.14994
299.00188
298.86566
298.74366
298.63658
298.54396
298.46464
298.39712
298.33957
298.29026
298.24843
298.2138
298.18507
298.16117
298.14091
298.12338
298.10868
298.09608
298.0822
298.07134
298.06521
298.06365
298.06545
298.05428
298.96689
299.30128
299.04117
298.94638
299.0668
299.08376
299.16005
299.19248
299.24944
299.29909
299.36258
299.42922
299.50293
299.58138
299.66405
299.74717
299.82616
299.89378
299.93954
299.95444
299.93066
299.86493
299.76049
299.62559
299.47162
299.31024
299.15027
298.99941
298.86161
298.73887
298.63158
298.53904
298.45994
298.39271
298.33552
298.28667
298.24533
298.21114
298.18271
298.15908
298.13914
298.12193
298.10764
298.09551
298.08219
298.07133
298.06508
298.06328
298.06447
298.05295
298.99343
299.34074
299.08958
299.02478
299.14662
299.16467
299.24198
299.2763
299.33437
299.38587
299.45098
299.5197
299.59533
299.67548
299.75919
299.84231
299.91958
299.98271
300.02076
300.02501
299.98803
299.90813
299.79016
299.64369
299.48089
299.31281
299.14889
298.99559
298.85653
298.73331
298.626
298.53367
298.45489
298.38801
298.33124
298.2829
298.2421
298.20837
298.18025
298.15691
298.1373
298.12041
298.10653
298.09487
298.08212
298.07145
298.06527
298.06311
298.06377
298.05122
299.02281
299.37823
299.1522
299.10604
299.22901
299.24848
299.3268
299.36327
299.42258
299.4761
299.54292
299.61376
299.69128
299.77299
299.85744
299.94007
300.01485
300.07222
300.10146
300.0937
300.04252
299.94789
299.81631
299.65861
299.48746
299.31332
299.14583
298.99051
298.85052
298.72705
298.61989
298.5279
298.44951
298.38304
298.32674
298.27896
298.23874
298.20548
298.17771
298.15468
298.13538
298.11882
298.10534
298.09406
298.08184
298.07148
298.06544
298.06303
298.06338
298.04923
299.0555
299.41681
299.22582
299.19027
299.31419
299.33549
299.4149
299.45377
299.51442
299.57005
299.63861
299.71156
299.79089
299.87394
299.95877
300.04029
300.1116
300.16187
300.18104
300.15991
300.09359
299.98378
299.83869
299.67028
299.49089
299.31172
299.14112
298.98418
298.84358
298.7201
298.61325
298.52172
298.44381
298.37781
298.32203
298.27486
298.23524
298.20247
298.17507
298.15238
298.13338
298.11717
298.10406
298.09304
298.08114
298.07131
298.06551
298.06316
298.06297
298.04704
299.09016
299.4579
299.30231
299.27827
299.403
299.42636
299.50682
299.54821
299.61021
299.66795
299.73823
299.81322
299.89421
299.97833
300.06308
300.14277
300.20935
300.25129
300.25889
300.22312
300.14083
300.0156
299.85727
299.67868
299.49174
299.30805
299.13485
298.97671
298.83578
298.71251
298.60613
298.51516
298.43781
298.37234
298.31712
298.2706
298.2316
298.19934
298.17234
298.15002
298.13132
298.11546
298.10268
298.09178
298.07998
298.07085
298.06552
298.0633
298.06239
298.04471
299.12939
299.50393
299.38064
299.37052
299.49593
299.52135
299.60279
299.64673
299.71009
299.76993
299.84189
299.91881
300.00128
300.08612
300.17022
300.24717
300.30758
300.33989
300.33428
300.28266
300.18371
300.04299
299.87189
299.68328
299.48998
299.30232
299.12704
298.9681
298.82715
298.7043
298.59855
298.50824
298.43152
298.36662
298.31201
298.26617
298.22782
298.19608
298.16952
298.14759
298.12918
298.1137
298.1012
298.09027
298.07856
298.07017
298.06537
298.06349
298.0616
298.04231
299.17227
299.55492
299.47364
299.46657
299.59278
299.62038
299.70282
299.74939
299.81414
299.87609
299.94967
300.02839
300.11208
300.19721
300.27997
300.35308
300.40575
300.42701
300.4066
300.33801
300.22191
300.06586
299.88254
299.68465
299.48565
299.29466
299.11783
298.95846
298.81777
298.69553
298.59052
298.50098
298.42495
298.36068
298.30672
298.26161
298.22391
298.19268
298.16659
298.14509
298.12698
298.11189
298.09962
298.08855
298.07709
298.06951
298.06517
298.06361
298.06058
298.03987
299.2205
299.61231
299.57035
299.56663
299.6937
299.7235
299.80699
299.85626
299.92244
299.98651
300.06166
300.14196
300.22659
300.31146
300.39202
300.45987
300.50332
300.51177
300.47503
300.38849
300.25497
300.08397
299.88864
299.6828
299.47878
299.28513
299.10724
298.94781
298.80764
298.6862
298.58209
298.49339
298.41812
298.35453
298.30126
298.25689
298.21985
298.18913
298.16356
298.14251
298.12472
298.11004
298.09795
298.08665
298.07576
298.06888
298.06495
298.06368
298.05935
298.03742
299.27329
299.67698
299.67315
299.67034
299.79846
299.83071
299.91538
299.96754
300.03515
300.10131
300.17792
300.25961
300.34471
300.42865
300.50596
300.56687
300.59964
300.59338
300.53891
300.43366
300.2827
300.0973
299.8907
299.67779
299.46955
299.27387
299.0954
298.93627
298.79685
298.67638
298.57326
298.48549
298.41104
298.34819
298.29565
298.25204
298.21565
298.18545
298.16043
298.13984
298.1224
298.10814
298.09619
298.08465
298.07461
298.0684
298.06487
298.06375
298.0579
298.035
299.33191
299.75243
299.78052
299.77808
299.90724
299.94254
300.02814
300.08339
300.15245
300.22062
300.29855
300.38126
300.46631
300.54846
300.62122
300.67337
300.69371
300.67088
300.59737
300.47289
300.30474
300.10518
299.88882
299.66962
299.45798
299.26092
299.08234
298.92384
298.78542
298.66607
298.56407
298.4773
298.40372
298.34166
298.28989
298.24705
298.2113
298.18162
298.15718
298.13709
298.12003
298.10619
298.09431
298.08264
298.07363
298.06811
298.06482
298.06382
298.05625
298.03266
299.39477
299.83172
299.89267
299.89105
300.0204
300.05896
300.14571
300.20386
300.27449
300.34452
300.42356
300.50685
300.59115
300.67048
300.737
300.77872
300.78457
300.74344
300.64982
300.5059
300.32103
300.10808
299.88302
299.65853
299.44428
299.24644
299.0682
298.91062
298.77341
298.65533
298.55453
298.46883
298.39619
298.33497
298.284
298.24194
298.20681
298.17766
298.15382
298.13424
298.11761
298.10419
298.09227
298.08065
298.07273
298.06795
298.06508
298.06391
298.0544
298.03047
299.46459
299.92203
300.00993
300.00946
300.13832
300.18049
300.26789
300.32905
300.40134
300.47314
300.55292
300.63621
300.71893
300.79409
300.85239
300.88185
300.87102
300.80997
300.69546
300.53214
300.33082
300.10614
299.87334
299.64456
299.42852
299.2305
299.053
298.89665
298.76084
298.64417
298.54466
298.4601
298.38845
298.32813
298.278
298.23671
298.20219
298.17355
298.15035
298.1313
298.11516
298.10212
298.09002
298.07879
298.0719
298.06782
298.06551
298.06391
298.05235
298.02844
299.54158
300.02265
300.13179
300.13385
300.26093
300.30701
300.39485
300.45932
300.53316
300.60645
300.68655
300.76908
300.84911
300.9185
300.96649
300.98167
300.95205
300.86968
300.73382
300.55152
300.33452
300.09937
299.86004
299.62797
299.4109
299.21324
299.03688
298.88201
298.74777
298.63261
298.53448
298.45112
298.38051
298.32114
298.27189
298.23138
298.19744
298.16932
298.14678
298.12825
298.11267
298.09995
298.08758
298.07717
298.07119
298.06771
298.06578
298.06362
298.05018
298.02658
299.6257
300.13481
300.25754
300.26393
300.38789
300.43802
300.5268
300.5947
300.66999
300.74443
300.82422
300.90513
300.98105
301.04254
301.07829
301.07664
301.0263
300.92154
300.76418
300.56309
300.33229
300.0878
299.84318
299.60884
299.39149
299.19473
299.01986
298.86671
298.73422
298.6207
298.52401
298.4419
298.3724
298.31404
298.2657
298.22595
298.19258
298.16498
298.14312
298.12512
298.11013
298.09764
298.0851
298.07578
298.07061
298.06757
298.06592
298.06295
298.04792
298.02493
299.71614
300.25867
300.38636
300.39908
300.51954
300.57388
300.6644
300.7352
300.81184
300.88693
300.96569
301.04364
301.11376
301.16507
301.18639
301.16553
301.09279
300.96492
300.78634
300.56732
300.32414
300.07178
299.8231
299.58743
299.37049
299.1751
299.00205
298.85084
298.72024
298.60844
298.51327
298.43246
298.36411
298.30682
298.25943
298.22042
298.1876
298.16055
298.13939
298.12191
298.10752
298.09513
298.08272
298.07458
298.0701
298.06741
298.066
298.06181
298.04563
298.02352
299.81393
300.39235
300.51999
300.53886
300.65609
300.71603
300.80712
300.88071
300.95854
301.0337
301.11031
301.18386
301.24598
301.28479
301.28903
301.24668
301.15017
300.99881
300.7991
300.56427
300.31008
300.05136
299.79988
299.56383
299.34797
299.15441
298.98348
298.83442
298.70584
298.59586
298.50226
298.4228
298.35566
298.2995
298.25308
298.2148
298.18253
298.15604
298.13561
298.11867
298.10483
298.09233
298.08049
298.07351
298.06965
298.06723
298.06603
298.06011
298.04339
298.02239
299.9214
300.53557
300.66053
300.68402
300.80125
300.86395
300.95527
301.03128
301.10975
301.18414
301.2574
301.32451
301.37613
301.40011
301.38458
301.31881
301.19757
301.02284
300.80311
300.55397
300.29054
300.02695
299.77387
299.53832
299.32413
299.13279
298.96425
298.81751
298.69106
298.58297
298.49099
298.41293
298.34705
298.29208
298.24666
298.20909
298.17736
298.15147
298.13182
298.1154
298.10202
298.08923
298.07838
298.07247
298.06919
298.06709
298.06586
298.05777
298.04122
298.02149
300.04106
300.69232
300.80839
300.83654
300.9508
301.01659
301.10813
301.18623
301.26477
301.33743
301.40566
301.46421
301.5026
301.50892
301.47102
301.38015
301.23357
301.03555
300.79817
300.5364
300.26558
299.99869
299.74518
299.51095
299.29901
299.11028
298.94437
298.80012
298.67591
298.56978
298.47949
298.40287
298.3383
298.28456
298.24017
298.20327
298.1721
298.14686
298.12802
298.11214
298.09903
298.08594
298.07632
298.07142
298.06869
298.06692
298.06547
298.05483
298.03924
298.0207
300.17149
300.85282
300.9606
300.99647
301.10644
301.17469
301.2656
301.34486
301.42263
301.49235
301.55379
301.6008
301.62341
301.6091
301.54668
301.42953
301.25759
301.03789
300.78437
300.5121
300.23573
299.96703
299.71416
299.482
299.27279
299.08699
298.92393
298.7823
298.66042
298.55631
298.46774
298.39261
298.3294
298.27694
298.23358
298.19733
298.16673
298.14219
298.12421
298.10886
298.09576
298.08262
298.0743
298.07035
298.0681
298.06666
298.06476
298.05165
298.03738
298.01998
300.31518
301.02102
301.11863
301.16171
301.26677
301.33686
301.42635
301.50587
301.58188
301.64724
301.69956
301.73247
301.73605
301.6982
301.60935
301.46519
301.26823
301.02916
300.76167
300.48112
300.20112
299.93207
299.6809
299.45151
299.24551
299.06295
298.90293
298.76405
298.64459
298.54257
298.45575
298.38216
298.32035
298.2692
298.22689
298.19123
298.16125
298.13749
298.12036
298.10551
298.09207
298.07944
298.07236
298.06924
298.06737
298.06622
298.06355
298.04852
298.03566
298.01937
300.47312
301.19576
301.28238
301.33228
301.43148
301.50246
301.58953
301.66778
301.74052
301.79966
301.84049
301.85638
301.83783
301.77406
301.65738
301.48611
301.26632
301.00966
300.73075
300.44417
300.16234
299.89428
299.64573
299.41974
299.21733
299.03826
298.88144
298.74541
298.62844
298.52854
298.44354
298.37151
298.31115
298.26134
298.22005
298.18495
298.15563
298.13272
298.11641
298.10195
298.08802
298.07639
298.07045
298.06809
298.06645
298.06553
298.06149
298.04563
298.03411
298.01883
300.64495
301.37626
301.45116
301.50553
301.59959
301.67022
301.75327
301.82827
301.89555
301.94614
301.97322
301.96937
301.92577
301.83387
301.68858
301.49129
301.25067
300.97924
300.69161
300.40138
300.11954
299.85376
299.60871
299.38669
299.18826
299.01291
298.85945
298.72638
298.61196
298.51424
298.43108
298.36067
298.30179
298.25333
298.21304
298.17844
298.14982
298.12788
298.11232
298.09806