/*--------------------------------*- C++ -*----------------------------------*\
| =========                 |                                                 |
| \\      /  F ield         | OpenFOAM: The Open Source CFD Toolbox           |
|  \\    /   O peration     | Version:  2306                                  |
|   \\  /    A nd           | Website:  www.openfoam.com                      |
|    \\/     M anipulation  |                                                 |
\*---------------------------------------------------------------------------*/
FoamFile
{
    version     2.0;
    format      ascii;
    arch        "LSB;label=32;scalar=64";
    class       volScalarField;
    location    "900";
    object      magR;
}
// * * * * * * * * * * * * * * * * * * * * * * * * * * * * * * * * * * * * * //

dimensions      [0 2 -2 0 0 0 0];

internalField   nonuniform List<scalar> 
1340
(
8.17022e-07
1.6082e-06
1.82046e-07
7.4807e-07
8.14492e-07
1.61056e-06
2.01321e-07
3.23698e-07
1.78385e-07
7.50889e-07
8.14761e-07
1.61128e-06
3.72366e-07
3.27808e-07
3.0755e-07
2.11162e-07
3.31197e-07
1.76226e-07
7.53929e-07
8.16984e-07
1.61117e-06
5.32374e-07
4.93408e-07
4.61529e-07
4.31857e-07
4.00931e-07
3.71794e-07
3.2942e-07
3.11118e-07
2.21717e-07
3.38417e-07
1.75368e-07
7.57088e-07
8.20518e-07
1.61069e-06
7.47083e-07
7.00405e-07
6.53801e-07
6.0838e-07
5.63839e-07
5.21954e-07
4.8562e-07
4.55933e-07
4.28108e-07
3.98965e-07
3.71401e-07
3.31411e-07
3.15118e-07
2.3283e-07
3.45189e-07
1.75694e-07
7.60094e-07
8.24828e-07
1.60995e-06
1.01674e-06
9.73155e-07
9.29752e-07
8.86822e-07
8.44464e-07
8.02532e-07
7.60609e-07
7.18336e-07
6.75684e-07
6.33012e-07
5.91349e-07
5.50254e-07
5.11449e-07
4.7782e-07
4.5034e-07
4.24385e-07
3.97089e-07
3.7113e-07
3.33733e-07
3.19483e-07
2.44385e-07
3.51397e-07
1.77106e-07
7.62889e-07
8.29494e-07
1.60867e-06
1.37062e-06
1.33919e-06
1.30691e-06
1.27387e-06
1.2402e-06
1.20596e-06
1.17125e-06
1.13614e-06
1.10066e-06
1.06474e-06
1.02831e-06
9.91305e-07
9.53795e-07
9.15915e-07
8.77944e-07
8.40143e-07
8.02593e-07
7.65175e-07
7.27538e-07
6.89414e-07
6.50809e-07
6.12093e-07
5.74208e-07
5.36585e-07
5.00922e-07
4.7004e-07
4.44765e-07
4.20689e-07
3.95288e-07
3.70968e-07
3.36369e-07
3.24174e-07
2.56292e-07
3.5692e-07
1.7953e-07
7.65368e-07
8.33906e-07
1.60722e-06
1.25938e-06
1.3877e-06
1.2413e-06
1.2703e-06
1.26986e-06
1.32777e-06
1.35877e-06
1.38918e-06
1.41564e-06
1.44067e-06
1.46369e-06
1.48458e-06
1.50279e-06
1.51844e-06
1.53206e-06
1.54289e-06
1.55133e-06
1.55744e-06
1.56133e-06
1.56314e-06
1.56291e-06
1.56077e-06
1.55697e-06
1.55161e-06
1.5448e-06
1.53664e-06
1.5273e-06
1.51693e-06
1.50547e-06
1.49314e-06
1.47989e-06
1.46582e-06
1.45097e-06
1.4353e-06
1.4189e-06
1.40173e-06
1.38375e-06
1.36505e-06
1.34548e-06
1.32507e-06
1.30386e-06
1.28173e-06
1.25871e-06
1.23475e-06
1.20995e-06
1.18425e-06
1.15773e-06
1.13051e-06
1.10262e-06
1.07416e-06
1.04522e-06
1.01579e-06
9.85804e-07
9.55221e-07
9.23945e-07
8.9202e-07
8.5955e-07
8.26763e-07
7.93876e-07
7.6097e-07
7.27951e-07
6.9453e-07
6.60515e-07
6.25945e-07
5.91179e-07
5.57055e-07
5.22903e-07
4.90422e-07
4.62306e-07
4.39208e-07
4.17015e-07
3.93541e-07
3.70898e-07
3.39301e-07
3.29169e-07
2.68473e-07
3.61692e-07
1.82863e-07
7.67266e-07
8.37826e-07
1.60582e-06
1.38872e-06
1.103e-06
1.01091e-06
1.10271e-06
1.12293e-06
1.1593e-06
1.18138e-06
1.2057e-06
1.22741e-06
1.248e-06
1.26678e-06
1.28366e-06
1.29858e-06
1.31151e-06
1.32267e-06
1.33165e-06
1.33876e-06
1.34417e-06
1.34774e-06
1.34965e-06
1.35005e-06
1.34898e-06
1.34659e-06
1.34302e-06
1.33832e-06
1.33261e-06
1.32607e-06
1.31864e-06
1.31045e-06
1.30159e-06
1.29203e-06
1.28188e-06
1.27108e-06
1.25971e-06
1.24775e-06
1.23515e-06
1.22195e-06
1.20812e-06
1.19358e-06
1.17833e-06
1.16233e-06
1.14557e-06
1.12794e-06
1.10945e-06
1.09016e-06
1.06997e-06
1.04901e-06
1.02732e-06
1.00495e-06
9.82004e-07
9.58546e-07
9.34548e-07
9.09965e-07
8.84739e-07
8.58749e-07
8.32013e-07
8.0459e-07
7.76672e-07
7.48438e-07
7.19956e-07
6.91171e-07
6.61857e-07
6.31872e-07
6.01276e-07
5.70407e-07
5.4e-07
5.09286e-07
4.79999e-07
4.54634e-07
4.33666e-07
4.13351e-07
3.91828e-07
3.70912e-07
3.42507e-07
3.34442e-07
2.80824e-07
3.65668e-07
1.86878e-07
7.68922e-07
8.40799e-07
1.60508e-06
1.05277e-06
9.31101e-07
8.97341e-07
9.80204e-07
9.89654e-07
1.01493e-06
1.03291e-06
1.05216e-06
1.06963e-06
1.08595e-06
1.10057e-06
1.11404e-06
1.12583e-06
1.13608e-06
1.14483e-06
1.15205e-06
1.15775e-06
1.16221e-06
1.16524e-06
1.1669e-06
1.16752e-06
1.16704e-06
1.16557e-06
1.16308e-06
1.15989e-06
1.15596e-06
1.15132e-06
1.14607e-06
1.14029e-06
1.13399e-06
1.12722e-06
1.12001e-06
1.11232e-06
1.10421e-06
1.09569e-06
1.08669e-06
1.07721e-06
1.06722e-06
1.0567e-06
1.04555e-06
1.03378e-06
1.02135e-06
1.00812e-06
9.94179e-07
9.79447e-07
9.63889e-07
9.47639e-07
9.30674e-07
9.13091e-07
8.94969e-07
8.7634e-07
8.57196e-07
8.37491e-07
8.1712e-07
7.9595e-07
7.73985e-07
7.51237e-07
7.27837e-07
7.03958e-07
6.79676e-07
6.54947e-07
6.29601e-07
6.03536e-07
5.76848e-07
5.49807e-07
5.2303e-07
4.95724e-07
4.69639e-07
4.46984e-07
4.28083e-07
4.09662e-07
3.90111e-07
3.70988e-07
3.45984e-07
3.39993e-07
2.93253e-07
3.68875e-07
1.91556e-07
7.69299e-07
8.43505e-07
1.60549e-06
8.99212e-07
8.32656e-07
8.07168e-07
8.6754e-07
8.72484e-07
8.9239e-07
9.06653e-07
9.21594e-07
9.35043e-07
9.47612e-07
9.58912e-07
9.69236e-07
9.78321e-07
9.86211e-07
9.92971e-07
9.98624e-07
1.00308e-06
1.00661e-06
1.00907e-06
1.01053e-06
1.01123e-06
1.0111e-06
1.0102e-06
1.00862e-06
1.00658e-06
1.00387e-06
1.00071e-06
9.9718e-07
9.93191e-07
9.88878e-07
9.84209e-07
9.79278e-07
9.73967e-07
9.68407e-07
9.62524e-07
9.56286e-07
9.49709e-07
9.42742e-07
9.35318e-07
9.27429e-07
9.19005e-07
9.09989e-07
9.00336e-07
8.90029e-07
8.78991e-07
8.67277e-07
8.54915e-07
8.41921e-07
8.28404e-07
8.14404e-07
7.99966e-07
7.85064e-07
7.6966e-07
7.53569e-07
7.36713e-07
7.19039e-07
7.00465e-07
6.81188e-07
6.61319e-07
6.40902e-07
6.1998e-07
5.98409e-07
5.76078e-07
5.53131e-07
5.29767e-07
5.06476e-07
4.8248e-07
4.59519e-07
4.39497e-07
4.22581e-07
4.06024e-07
3.88434e-07
3.71179e-07
3.49727e-07
3.45816e-07
3.05477e-07
3.71411e-07
1.95972e-07
7.68933e-07
8.44657e-07
1.60937e-06
7.96709e-07
7.37878e-07
7.13077e-07
7.59439e-07
7.63053e-07
7.78508e-07
7.89312e-07
8.0062e-07
8.10595e-07
8.20159e-07
8.287e-07
8.36421e-07
8.43364e-07
8.49277e-07
8.54449e-07
8.58873e-07
8.62341e-07
8.65071e-07
8.67147e-07
8.6849e-07
8.69265e-07
8.6943e-07
8.69062e-07
8.68294e-07
8.67084e-07
8.65456e-07
8.63648e-07
8.61479e-07
8.58978e-07
8.56258e-07
8.53479e-07
8.50388e-07
8.47152e-07
8.43605e-07
8.39914e-07
8.36191e-07
8.31918e-07
8.27455e-07
8.22703e-07
8.17587e-07
8.11932e-07
8.05888e-07
7.99268e-07
7.92e-07
7.84264e-07
7.75821e-07
7.66854e-07
7.57408e-07
7.47438e-07
7.37163e-07
7.26483e-07
7.15399e-07
7.0393e-07
6.91766e-07
6.78831e-07
6.65138e-07
6.50466e-07
6.35001e-07
6.18953e-07
6.02221e-07
5.84953e-07
5.67095e-07
5.48442e-07
5.29181e-07
5.09464e-07
4.89665e-07
4.68969e-07
4.49167e-07
4.31777e-07
4.16867e-07
4.02201e-07
3.86647e-07
3.71458e-07
3.53784e-07
3.52098e-07
3.17866e-07
3.73246e-07
2.04246e-07
7.64159e-07
8.49074e-07
1.61363e-06
6.81829e-07
6.31199e-07
6.08905e-07
6.4458e-07
6.46022e-07
6.57379e-07
6.64554e-07
6.71745e-07
6.79334e-07
6.85413e-07
6.9115e-07
6.97002e-07
7.0156e-07
7.05477e-07
7.09437e-07
7.1283e-07
7.1492e-07
7.17353e-07
7.19042e-07
7.20267e-07
7.21309e-07
7.21586e-07
7.21982e-07
7.22087e-07
7.21648e-07
7.21234e-07
7.20687e-07
7.19918e-07
7.19032e-07
7.17827e-07
7.16927e-07
7.15838e-07
7.14515e-07
7.12912e-07
7.11678e-07
7.10206e-07
7.08273e-07
7.06257e-07
7.04146e-07
7.01728e-07
6.98773e-07
6.95732e-07
6.91888e-07
6.87742e-07
6.83283e-07
6.77975e-07
6.72464e-07
6.66619e-07
6.60186e-07
6.53745e-07
6.46935e-07
6.39737e-07
6.32396e-07
6.24283e-07
6.15407e-07
6.0584e-07
5.95326e-07
5.8386e-07
5.71865e-07
5.59184e-07
5.45934e-07
5.32152e-07
5.17592e-07
5.02464e-07
4.86808e-07
4.7086e-07
4.53867e-07
4.37635e-07
4.23129e-07
4.10407e-07
3.979e-07
3.84709e-07
3.71976e-07
3.5886e-07
3.59181e-07
3.32438e-07
3.71744e-07
2.20323e-07
7.49683e-07
8.41231e-07
1.55937e-06
5.5991e-07
5.24212e-07
5.0765e-07
5.31764e-07
5.31859e-07
5.39247e-07
5.42945e-07
5.47303e-07
5.52115e-07
5.55387e-07
5.5907e-07
5.62828e-07
5.65411e-07
5.67819e-07
5.7075e-07
5.72923e-07
5.74203e-07
5.76343e-07
5.77416e-07
5.78778e-07
5.80007e-07
5.80285e-07
5.81311e-07
5.82226e-07
5.82378e-07
5.82985e-07
5.83325e-07
5.83729e-07
5.84275e-07
5.84458e-07
5.84841e-07
5.85426e-07
5.85624e-07
5.85816e-07
5.86505e-07
5.86673e-07
5.868e-07
5.86884e-07
5.869e-07
5.86587e-07
5.86083e-07
5.85307e-07
5.83982e-07
5.82676e-07
5.80748e-07
5.78447e-07
5.76093e-07
5.73419e-07
5.70449e-07
5.67531e-07
5.64478e-07
5.61076e-07
5.57604e-07
5.53461e-07
5.48614e-07
5.43046e-07
5.36594e-07
5.29258e-07
5.214e-07
5.12942e-07
5.03969e-07
4.94488e-07
4.84336e-07
4.73613e-07
4.62252e-07
4.50422e-07
4.37469e-07
4.25055e-07
4.13605e-07
4.03257e-07
3.93153e-07
3.82667e-07
3.72959e-07
3.65e-07
3.67527e-07
3.47988e-07
3.69118e-07
2.37893e-07
7.49027e-07
8.34318e-07
1.55714e-06
4.57477e-07
4.31205e-07
4.17695e-07
4.34682e-07
4.34253e-07
4.38106e-07
4.40386e-07
4.4358e-07
4.45208e-07
4.47668e-07
4.50269e-07
4.52016e-07
4.5366e-07
4.5545e-07
4.57503e-07
4.58551e-07
4.60066e-07
4.61537e-07
4.62301e-07
4.63857e-07
4.65101e-07
4.65644e-07
4.66949e-07
4.68122e-07
4.68771e-07
4.70211e-07
4.71112e-07
4.72131e-07
4.73546e-07
4.74703e-07
4.75859e-07
4.77478e-07
4.78691e-07
4.80065e-07
4.81817e-07
4.83128e-07
4.84547e-07
4.8603e-07
4.87346e-07
4.88432e-07
4.89546e-07
4.90259e-07
4.90864e-07
4.91365e-07
4.91319e-07
4.91338e-07
4.91301e-07
4.91067e-07
4.90852e-07
4.90673e-07
4.90602e-07
4.90286e-07
4.89799e-07
4.88941e-07
4.87328e-07
4.85067e-07
4.82051e-07
4.78248e-07
4.74058e-07
4.69357e-07
4.64226e-07
4.5871e-07
4.526e-07
4.45882e-07
4.38531e-07
4.30561e-07
4.2145e-07
4.12667e-07
4.04124e-07
3.96127e-07
3.88509e-07
3.80856e-07
3.74563e-07
3.71803e-07
3.76804e-07
3.62814e-07
3.68053e-07
2.55417e-07
7.55999e-07
8.12758e-07
1.55666e-06
3.7317e-07
3.33804e-07
3.51339e-07
3.38327e-07
3.53029e-07
3.51136e-07
3.53434e-07
3.55349e-07
3.57115e-07
3.57971e-07
3.59559e-07
3.61338e-07
3.62563e-07
3.63583e-07
3.6509e-07
3.66675e-07
3.67333e-07
3.68938e-07
3.70153e-07
3.71141e-07
3.72735e-07
3.73812e-07
3.75109e-07
3.76444e-07
3.77852e-07
3.79239e-07
3.80917e-07
3.82455e-07
3.83972e-07
3.85982e-07
3.87799e-07
3.89567e-07
3.91905e-07
3.93802e-07
3.95996e-07
3.9848e-07
4.00516e-07
4.02861e-07
4.05222e-07
4.07356e-07
4.09522e-07
4.11591e-07
4.13479e-07
4.15351e-07
4.17001e-07
4.18585e-07
4.20179e-07
4.21805e-07
4.23494e-07
4.2529e-07
4.27178e-07
4.29258e-07
4.31199e-07
4.32934e-07
4.34439e-07
4.35209e-07
4.35451e-07
4.35098e-07
4.34081e-07
4.32824e-07
4.3122e-07
4.29269e-07
4.27051e-07
4.24311e-07
4.20983e-07
4.17058e-07
4.12437e-07
4.06716e-07
4.01131e-07
3.95188e-07
3.89402e-07
3.84244e-07
3.79472e-07
3.76844e-07
3.79126e-07
3.86513e-07
3.76319e-07
3.68218e-07
2.76867e-07
7.66878e-07
7.85115e-07
1.55579e-06
3.01942e-07
2.69175e-07
2.82724e-07
2.7135e-07
2.83944e-07
2.81808e-07
2.83874e-07
2.84618e-07
2.86019e-07
2.87042e-07
2.87702e-07
2.89097e-07
2.90128e-07
2.91285e-07
2.92398e-07
2.93542e-07
2.94522e-07
2.96002e-07
2.97328e-07
2.9846e-07
2.99872e-07
3.01188e-07
3.03035e-07
3.04377e-07
3.06122e-07
3.07877e-07
3.09692e-07
3.11874e-07
3.13719e-07
3.16061e-07
3.18291e-07
3.20696e-07
3.2335e-07
3.25781e-07
3.28529e-07
3.31439e-07
3.34157e-07
3.36961e-07
3.39969e-07
3.42784e-07
3.45647e-07
3.48519e-07
3.51219e-07
3.54032e-07
3.56758e-07
3.59557e-07
3.62405e-07
3.6535e-07
3.68562e-07
3.71924e-07
3.75353e-07
3.79018e-07
3.82621e-07
3.85976e-07
3.89209e-07
3.91782e-07
3.93915e-07
3.95644e-07
3.96891e-07
3.98007e-07
3.98911e-07
3.99588e-07
4.00049e-07
4.00103e-07
3.99605e-07
3.98539e-07
3.96796e-07
3.94026e-07
3.91217e-07
3.87589e-07
3.83895e-07
3.81107e-07
3.7921e-07
3.80356e-07
3.87361e-07
3.96755e-07
3.88869e-07
3.7054e-07
3.05748e-07
7.81793e-07
7.5278e-07
1.55608e-06
2.40883e-07
2.14486e-07
2.24324e-07
2.1498e-07
2.25386e-07
2.23941e-07
2.25545e-07
2.26301e-07
2.27749e-07
2.28207e-07
2.29209e-07
2.30647e-07
2.31465e-07
2.32755e-07
2.33962e-07
2.34958e-07
2.36419e-07
2.37843e-07
2.39344e-07
2.40581e-07
2.42227e-07
2.44036e-07
2.45683e-07
2.47491e-07
2.49574e-07
2.51353e-07
2.53662e-07
2.56076e-07
2.58111e-07
2.60772e-07
2.63258e-07
2.66035e-07
2.6888e-07
2.71553e-07
2.74637e-07
2.77874e-07
2.80774e-07
2.83965e-07
2.87329e-07
2.90485e-07
2.93746e-07
2.97206e-07
3.00403e-07
3.03802e-07
3.07406e-07
3.10924e-07
3.14715e-07
3.18612e-07
3.22846e-07
3.27218e-07
3.31681e-07
3.36437e-07
3.41064e-07
3.45534e-07
3.49952e-07
3.53836e-07
3.57409e-07
3.60774e-07
3.63853e-07
3.66896e-07
3.69808e-07
3.72637e-07
3.75321e-07
3.77635e-07
3.7951e-07
3.80857e-07
3.81561e-07
3.81338e-07
3.80875e-07
3.79293e-07
3.77641e-07
3.77253e-07
3.78314e-07
3.83338e-07
3.9456e-07
4.05037e-07
3.97675e-07
3.72596e-07
3.39136e-07
8.00356e-07
7.13008e-07
1.56067e-06
2.01839e-07
1.80889e-07
1.8907e-07
1.80947e-07
1.89897e-07
1.88598e-07
1.89413e-07
1.90603e-07
1.91498e-07
1.91819e-07
1.92896e-07
1.94006e-07
1.9476e-07
1.95678e-07
1.96923e-07
1.97812e-07
1.99221e-07
2.00527e-07
2.01639e-07
2.02964e-07
2.04641e-07
2.06331e-07
2.07689e-07
2.09404e-07
2.11656e-07
2.13247e-07
2.15416e-07
2.17738e-07
2.19852e-07
2.22314e-07
2.24859e-07
2.27537e-07
2.30339e-07
2.33097e-07
2.36219e-07
2.39416e-07
2.42443e-07
2.45871e-07
2.49336e-07
2.52846e-07
2.56341e-07
2.60241e-07
2.63968e-07
2.67931e-07
2.72166e-07
2.76286e-07
2.80884e-07
2.85471e-07
2.90357e-07
2.95411e-07
3.00574e-07
3.05942e-07
3.11209e-07
3.16505e-07
3.21684e-07
3.26572e-07
3.31325e-07
3.35963e-07
3.40473e-07
3.45024e-07
3.49481e-07
3.53949e-07
3.58329e-07
3.62371e-07
3.6615e-07
3.69451e-07
3.72154e-07
3.74088e-07
3.75699e-07
3.76032e-07
3.76193e-07
3.77794e-07
3.81301e-07
3.89584e-07
4.03928e-07
4.14696e-07
4.07922e-07
3.8319e-07
3.88412e-07
8.29054e-07
6.75995e-07
1.58199e-06
1.64435e-07
1.46671e-07
1.53252e-07
1.46057e-07
1.55264e-07
1.53961e-07
1.55353e-07
1.56562e-07
1.56987e-07
1.57695e-07
1.592e-07
1.60394e-07
1.61384e-07
1.62284e-07
1.63628e-07
1.65065e-07
1.66514e-07
1.67768e-07
1.68941e-07
1.70941e-07
1.7249e-07
1.74168e-07
1.75835e-07
1.77537e-07
1.79911e-07
1.8171e-07
1.8378e-07
1.86008e-07
1.88347e-07
1.90747e-07
1.9311e-07
1.95886e-07
1.98428e-07
2.01207e-07
2.04239e-07
2.0717e-07
2.10219e-07
2.13365e-07
2.1686e-07
2.20277e-07
2.23673e-07
2.27552e-07
2.31353e-07
2.35333e-07
2.395e-07
2.43825e-07
2.48361e-07
2.52975e-07
2.5781e-07
2.62774e-07
2.67945e-07
2.73169e-07
2.78512e-07
2.83938e-07
2.89298e-07
2.94624e-07
2.99986e-07
3.05356e-07
3.10707e-07
3.16215e-07
3.21697e-07
3.27288e-07
3.32844e-07
3.38177e-07
3.43365e-07
3.48104e-07
3.52315e-07
3.55818e-07
3.5862e-07
3.60115e-07
3.62111e-07
3.66144e-07
3.72891e-07
3.85206e-07
4.02127e-07
4.10563e-07
4.00167e-07
3.7723e-07
4.20666e-07
8.46836e-07
6.13266e-07
1.61909e-06
1.73336e-07
1.61068e-07
1.65714e-07
1.60484e-07
1.6503e-07
1.64053e-07
1.65149e-07
1.65728e-07
1.65571e-07
1.66027e-07
1.67e-07
1.67799e-07
1.68304e-07
1.68643e-07
1.69543e-07
1.70493e-07
1.713e-07
1.72078e-07
1.72762e-07
1.74223e-07
1.75248e-07
1.76197e-07
1.77429e-07
1.78715e-07
1.80339e-07
1.81754e-07
1.83394e-07
1.85056e-07
1.8701e-07
1.89046e-07
1.91049e-07
1.93543e-07
1.95845e-07
1.98566e-07
2.01439e-07
2.04431e-07
2.07612e-07
2.10947e-07
2.14755e-07
2.18433e-07
2.22434e-07
2.26669e-07
2.30936e-07
2.35346e-07
2.39902e-07
2.44563e-07
2.49132e-07
2.53902e-07
2.58672e-07
2.6354e-07
2.6867e-07
2.73885e-07
2.79416e-07
2.85076e-07
2.9092e-07
2.96838e-07
3.02811e-07
3.08797e-07
3.14643e-07
3.20554e-07
3.26379e-07
3.323e-07
3.38239e-07
3.44106e-07
3.49917e-07
3.55407e-07
3.60581e-07
3.65335e-07
3.69935e-07
3.73329e-07
3.7612e-07
3.80194e-07
3.865e-07
3.97905e-07
4.13271e-07
4.2019e-07
4.15158e-07
4.14287e-07
5.10574e-07
8.95249e-07
6.33996e-07
1.77977e-06
1.31695e-07
1.33233e-07
1.31705e-07
1.34722e-07
1.36113e-07
1.36587e-07
1.37377e-07
1.37947e-07
1.38828e-07
1.39763e-07
1.40336e-07
1.41254e-07
1.42178e-07
1.43147e-07
1.44094e-07
1.45013e-07
1.46141e-07
1.47207e-07
1.48302e-07
1.49539e-07
1.50663e-07
1.51983e-07
1.53221e-07
1.54556e-07
1.56007e-07
1.57496e-07
1.59008e-07
1.60537e-07
1.62269e-07
1.63947e-07
1.6576e-07
1.67668e-07
1.69566e-07
1.71687e-07
1.7379e-07
1.76076e-07
1.78407e-07
1.80844e-07
1.83413e-07
1.85949e-07
1.88665e-07
1.91365e-07
1.94072e-07
1.9678e-07
1.99553e-07
2.02251e-07
2.04962e-07
2.07805e-07
2.10702e-07
2.13851e-07
2.1721e-07
2.20854e-07
2.24824e-07
2.28975e-07
2.33409e-07
2.37975e-07
2.42749e-07
2.47653e-07
2.52673e-07
2.58015e-07
2.63528e-07
2.69328e-07
2.75287e-07
2.81319e-07
2.87356e-07
2.93081e-07
2.98474e-07
3.03276e-07
3.05992e-07
3.07105e-07
3.11106e-07
3.1942e-07
3.32403e-07
3.52137e-07
3.70583e-07
3.68276e-07
3.46871e-07
3.54141e-07
4.99956e-07
7.63736e-07
5.75807e-07
1.79265e-06
)
;

boundaryField
{
    inlet
    {
        type            calculated;
        value           nonuniform List<scalar> 
23
(
6.78296e-06
6.74895e-06
6.71594e-06
6.68391e-06
6.65215e-06
6.61992e-06
6.58629e-06
6.55059e-06
6.51186e-06
6.4693e-06
6.42179e-06
6.36972e-06
6.30993e-06
6.21614e-06
6.13776e-06
6.04256e-06
5.92426e-06
5.78016e-06
5.60693e-06
5.40381e-06
5.1622e-06
4.97834e-06
4.62616e-06
)
;
    }
    outlet
    {
        type            calculated;
        value           nonuniform List<scalar> 
82
(
1.04845e-07
1.04656e-07
1.06939e-07
1.08184e-07
1.09708e-07
1.10084e-07
1.10835e-07
1.11321e-07
1.12171e-07
1.13079e-07
1.1355e-07
1.14418e-07
1.15297e-07
1.16215e-07
1.17106e-07
1.17952e-07
1.1904e-07
1.2005e-07
1.2108e-07
1.22281e-07
1.23332e-07
1.24602e-07
1.25775e-07
1.27045e-07
1.28443e-07
1.29868e-07
1.31311e-07
1.32749e-07
1.34411e-07
1.35987e-07
1.3769e-07
1.39485e-07
1.4123e-07
1.43209e-07
1.45124e-07
1.47215e-07
1.49321e-07
1.51504e-07
1.53807e-07
1.56025e-07
1.58427e-07
1.60782e-07
1.63124e-07
1.65458e-07
1.67869e-07
1.70203e-07
1.72561e-07
1.75096e-07
1.77699e-07
1.80591e-07
1.83698e-07
1.8708e-07
1.90766e-07
1.94574e-07
1.98631e-07
2.02794e-07
2.07192e-07
2.11799e-07
2.16639e-07
2.21975e-07
2.27617e-07
2.33653e-07
2.39889e-07
2.46186e-07
2.52465e-07
2.58354e-07
2.63749e-07
2.68217e-07
2.69987e-07
2.702e-07
2.74368e-07
2.84029e-07
2.99819e-07
3.23607e-07
3.45136e-07
3.41096e-07
3.09441e-07
3.03267e-07
4.48032e-07
7.34272e-07
4.68518e-07
1.62421e-06
)
;
    }
    walls
    {
        type            calculated;
        value           nonuniform List<scalar> 0();
    }
    frontAndBack
    {
        type            empty;
    }
    procBoundary3to2
    {
        type            processor;
        value           nonuniform List<scalar> 
88
(
8.22949e-07
1.6052e-06
1.87196e-07
7.44923e-07
7.44923e-07
1.92303e-07
3.16022e-07
3.16022e-07
3.73219e-07
3.26659e-07
3.04514e-07
3.04514e-07
5.42727e-07
5.01216e-07
4.67175e-07
4.35683e-07
4.0304e-07
4.0304e-07
7.7544e-07
7.24789e-07
6.74323e-07
6.25196e-07
5.7726e-07
5.7726e-07
1.08023e-06
1.03075e-06
9.81734e-07
9.33528e-07
8.86254e-07
8.39741e-07
7.93502e-07
7.93502e-07
1.51653e-06
1.47721e-06
1.43718e-06
1.39658e-06
1.35548e-06
1.31403e-06
1.27232e-06
1.2304e-06
1.18831e-06
1.14594e-06
1.10325e-06
1.06017e-06
1.06017e-06
1.08245e-06
1.55861e-06
1.62394e-06
1.47592e-06
1.52379e-06
1.57166e-06
1.61145e-06
1.64487e-06
1.67464e-06
1.7013e-06
1.7262e-06
1.74777e-06
1.76613e-06
1.78173e-06
1.79402e-06
1.80353e-06
1.80998e-06
1.81351e-06
1.81451e-06
1.81294e-06
1.80904e-06
1.80297e-06
1.7948e-06
1.78487e-06
1.77334e-06
1.76014e-06
1.74559e-06
1.7298e-06
1.7128e-06
1.69467e-06
1.67543e-06
1.6553e-06
1.63411e-06
1.61193e-06
1.58892e-06
1.56488e-06
1.53996e-06
1.5141e-06
1.48725e-06
1.45952e-06
1.43083e-06
1.40118e-06
1.40118e-06
)
;
    }
    procBoundary3to6
    {
        type            processor;
        value           uniform 7.69662e-08;
    }
    procBoundary3to7
    {
        type            processor;
        value           nonuniform List<scalar> 
16
(
8.18032e-09
9.44262e-07
9.65662e-07
7.50268e-07
6.57285e-07
5.79505e-07
4.90605e-07
4.07927e-07
4.07927e-07
3.30416e-07
2.6701e-07
2.12554e-07
1.79058e-07
1.46292e-07
1.58001e-07
1.35287e-07
)
;
    }
}


// ************************************************************************* //
