# p  FACE_DATA 600
# x y z  p
0.29893883 -0.05 0.060006728 11685.287
0.29682219 -0.05 0.060005155 11693.518
0.29471691 -0.05 0.060001576 11703.714
0.29262294 -0.05 0.05999591 11713.737
0.29054021 -0.05 0.059988277 11723.189
0.28846868 -0.05 0.059978645 11733.943
0.28640827 -0.05 0.059967018 11743.542
0.28435895 -0.05 0.059953476 11753.953
0.28232063 -0.05 0.05993795 11764.524
0.28029328 -0.05 0.059920485 11774.903
0.27827682 -0.05 0.059901123 11785.335
0.27627121 -0.05 0.059879855 11796.094
0.27427639 -0.05 0.05985667 11806.998
0.2722923 -0.05 0.059831621 11817.595
0.27031889 -0.05 0.059804697 11828.865
0.26835611 -0.05 0.05977592 11839.458
0.26640388 -0.05 0.059745343 11850.444
0.26446217 -0.05 0.059712935 11861.623
0.26253092 -0.05 0.059678711 11872.894
0.26061007 -0.05 0.059642689 11884.348
0.25869957 -0.05 0.059604861 11895.957
0.25679937 -0.05 0.059565286 11907.125
0.25490941 -0.05 0.05952394 11919.234
0.25302965 -0.05 0.059480841 11930.43
0.25116001 -0.05 0.059436049 11942.142
0.24930047 -0.05 0.059389522 11953.993
0.24745095 -0.05 0.059341283 11965.959
0.24561142 -0.05 0.059291325 11978.365
0.24378182 -0.05 0.05923967 11990.409
0.24196209 -0.05 0.059186367 12002.472
0.24015219 -0.05 0.059131421 12014.598
0.23835206 -0.05 0.059074821 12026.964
0.23656166 -0.05 0.059016618 12038.883
0.23478094 -0.05 0.058956769 12052.228
0.23300984 -0.05 0.05889526 12064.563
0.23124831 -0.05 0.05883224 12076.522
0.22949632 -0.05 0.058767617 12090.177
0.22775381 -0.05 0.058701363 12102.923
0.22602071 -0.05 0.058633589 12115.623
0.22429701 -0.05 0.058564274 12128.484
0.22258262 -0.05 0.058493448 12141.145
0.22087753 -0.05 0.058421069 12155.103
0.21918166 -0.05 0.058347132 12168.16
0.21749499 -0.05 0.058271731 12181.199
0.21581745 -0.05 0.058194856 12194.346
0.21414901 -0.05 0.058116493 12207.835
0.21248962 -0.05 0.05803665 12221.371
0.21083923 -0.05 0.057955337 12235.125
0.20919779 -0.05 0.057872577 12248.674
0.20756526 -0.05 0.057788393 12262.439
0.20594158 -0.05 0.057702763 12276.557
0.20432673 -0.05 0.057615706 12290.305
0.20272065 -0.05 0.057527277 12303.852
0.20112329 -0.05 0.057437457 12318.012
0.19953461 -0.05 0.05734625 12332.145
0.19795458 -0.05 0.057253621 12347.18
0.19638314 -0.05 0.057159665 12360.303
0.19482023 -0.05 0.05706438 12375.385
0.19326584 -0.05 0.056967732 12389.219
0.19171991 -0.05 0.056869749 12404.237
0.19018239 -0.05 0.056770463 12417.986
0.18865324 -0.05 0.056669846 12433.767
0.18713243 -0.05 0.056567899 12447.909
0.18561991 -0.05 0.056464666 12463.45
0.18411563 -0.05 0.056360132 12477.949
0.18261956 -0.05 0.056254318 12493.392
0.18113166 -0.05 0.056147258 12507.363
0.17965186 -0.05 0.056038987 12522.672
0.17818015 -0.05 0.05592942 12538.341
0.17671648 -0.05 0.055818588 12553.696
0.1752608 -0.05 0.05570656 12568.531
0.17381309 -0.05 0.055593325 12584.15
0.17237329 -0.05 0.055478844 12599.756
0.17094135 -0.05 0.055363199 12614.808
0.16951726 -0.05 0.055246341 12631.554
0.16810097 -0.05 0.055128259 12647.061
0.16669242 -0.05 0.05500905 12662.68
0.16529159 -0.05 0.054888659 12679.114
0.16389844 -0.05 0.054767078 12695.143
0.16251292 -0.05 0.054644372 12710.862
0.161135 -0.05 0.054520532 12727.044
0.15976465 -0.05 0.054395554 12743.064
0.15840181 -0.05 0.054269449 12759.731
0.15704647 -0.05 0.054142171 12776.833
0.15569857 -0.05 0.05401378 12792.785
0.15435807 -0.05 0.053884336 12808.965
0.15302494 -0.05 0.053753791 12825.623
0.15169915 -0.05 0.053622161 12842.265
0.15038066 -0.05 0.053489407 12860.103
0.14906942 -0.05 0.053355551 12876.601
0.1477654 -0.05 0.053220679 12893.387
0.14646858 -0.05 0.053084715 12911.178
0.1451789 -0.05 0.052947683 12927.896
0.14389634 -0.05 0.052809659 12944.848
0.14262085 -0.05 0.05267058 12962.85
0.14135242 -0.05 0.052530426 12980.779
0.14009099 -0.05 0.052389231 12998.605
0.13883652 -0.05 0.052247036 13015.874
0.137589 -0.05 0.052103837 13033.785
0.13634838 -0.05 0.051959625 13051.015
0.13511461 -0.05 0.051814476 13068.486
0.1338877 -0.05 0.051668228 13088.775
0.13266759 -0.05 0.051520967 13104.871
0.13145422 -0.05 0.051372868 13122.539
0.13024759 -0.05 0.051223701 13142.608
0.12904768 -0.05 0.051073499 13160.818
0.12785442 -0.05 0.050922382 13179.171
0.12666779 -0.05 0.050770303 13197.974
0.12548777 -0.05 0.050617245 13217.074
0.12431431 -0.05 0.050463216 13235.621
0.12314738 -0.05 0.050308326 13253.07
0.12198694 -0.05 0.050152493 13273.708
0.12083299 -0.05 0.049995623 13293.641
0.11968547 -0.05 0.049837846 13312.613
0.11854435 -0.05 0.049679176 13332.01
0.11740961 -0.05 0.049519574 13351.758
0.11628122 -0.05 0.049359037 13371.674
0.11515913 -0.05 0.049197589 13391.319
0.11404333 -0.05 0.049035234 13411.111
0.11293377 -0.05 0.048871989 13430.519
0.11183042 -0.05 0.048707847 13450.511
0.11073327 -0.05 0.048542821 13470.365
0.10964229 -0.05 0.048376866 13491.972
0.10855744 -0.05 0.048209982 13512.442
0.10747868 -0.05 0.048042235 13533.256
0.106406 -0.05 0.04787359 13554.333
0.10533935 -0.05 0.047704062 13575.252
0.10427873 -0.05 0.047533647 13596.394
0.10322407 -0.05 0.047362394 13616.178
0.10217537 -0.05 0.04719032 13637.307
0.10113259 -0.05 0.047017348 13659.607
0.10009572 -0.05 0.046843455 13682.47
0.099064719 -0.05 0.046668685 13704.069
0.098039551 -0.05 0.046493118 13724.823
0.097020189 -0.05 0.046316733 13746.799
0.096006622 -0.05 0.046139442 13770.231
0.094998822 -0.05 0.045961241 13793.231
0.09399675 -0.05 0.045782217 13815.209
0.093000378 -0.05 0.045602371 13837.912
0.092009685 -0.05 0.045421665 13860.676
0.091024643 -0.05 0.045240119 13883.668
0.090045231 -0.05 0.045057701 13907.671
0.089071419 -0.05 0.044874428 13930.608
0.088103174 -0.05 0.044690349 13953.758
0.087140475 -0.05 0.044505439 13977.45
0.086183303 -0.05 0.044319663 14001.923
0.08523163 -0.05 0.044133032 14025.896
0.084285425 -0.05 0.043945577 14049.963
0.083344663 -0.05 0.043757308 14074.295
0.082409326 -0.05 0.043568191 14100.139
0.081479394 -0.05 0.04337819 14125.869
0.080554831 -0.05 0.043187382 14150.257
0.079635605 -0.05 0.042995792 14175.767
0.078721718 -0.05 0.042803304 14202.963
0.077813136 -0.05 0.042609969 14228.252
0.076909826 -0.05 0.042415818 14255.087
0.07601178 -0.05 0.042220793 14281.569
0.075118966 -0.05 0.042024933 14308.007
0.074231361 -0.05 0.041828237 14334.288
0.073348934 -0.05 0.04163074 14360.473
0.072471679 -0.05 0.041432371 14388.702
0.071599572 -0.05 0.041233139 14415.47
0.070732583 -0.05 0.041033074 14443.697
0.069870697 -0.05 0.040832148 14471.159
0.069013884 -0.05 0.040630397 14499.243
0.068162134 -0.05 0.040427777 14527.946
0.067315419 -0.05 0.040224307 14556.502
0.06647372 -0.05 0.040019973 14586.781
0.065637027 -0.05 0.039814748 14617.235
0.06480531 -0.05 0.039608654 14647.932
0.063978543 -0.05 0.039401719 14677.855
0.063156705 -0.05 0.039193946 14708.623
0.062339788 -0.05 0.038985286 14740.071
0.061527775 -0.05 0.038775725 14772.22
0.060720649 -0.05 0.038565255 14804.76
0.059918385 -0.05 0.038353894 14837.157
0.059120963 -0.05 0.03814165 14869.925
0.058328367 -0.05 0.037928504 14902.827
0.057540575 -0.05 0.037714473 14935.061
0.056757564 -0.05 0.037499567 14967.795
0.055979327 -0.05 0.037283751 15002
0.055205861 -0.05 0.03706696 15037.903
0.054437144 -0.05 0.036849222 15072.812
0.053673142 -0.05 0.036630582 15107.914
0.052913841 -0.05 0.036411033 15142.857
0.052159229 -0.05 0.036190552 15179.104
0.051409301 -0.05 0.035969101 15216.255
0.050664044 -0.05 0.035746666 15254.127
0.049923426 -0.05 0.035523297 15291.864
0.049187444 -0.05 0.035298949 15332.422
0.048456093 -0.05 0.035073588 15372.091
0.047729344 -0.05 0.034847258 15412.14
0.047007184 -0.05 0.034619944 15452.388
0.046289611 -0.05 0.034391604 15493.892
0.045576607 -0.05 0.034162252 15534.746
0.044868158 -0.05 0.033931882 15577.183
0.044164259 -0.05 0.033700465 15619.314
0.043464894 -0.05 0.033468005 15662.36
0.042770054 -0.05 0.033234487 15706.219
0.042079734 -0.05 0.032999885 15752.156
0.041393929 -0.05 0.032764174 15798.667
0.040712625 -0.05 0.032527361 15845.528
0.040035798 -0.05 0.032289471 15892.016
0.039363443 -0.05 0.032050489 15940.166
0.038695563 -0.05 0.031810365 15989.68
0.038032168 -0.05 0.031569045 16040.603
0.037373226 -0.05 0.031326581 16090.288
0.036718733 -0.05 0.03108296 16142.201
0.036068678 -0.05 0.030838173 16193.69
0.035423063 -0.05 0.030592193 16249.348
0.034781926 -0.05 0.030344893 16305.198
0.034145213 -0.05 0.030096392 16359.249
0.033512917 -0.05 0.029846677 16415.989
0.032885063 -0.05 0.029595666 16474.119
0.032261651 -0.05 0.029343341 16534.652
0.031642677 -0.05 0.029089693 16595.041
0.031028119 -0.05 0.028834753 16655.718
0.030417982 -0.05 0.028578493 16718.102
0.029812303 -0.05 0.028320809 16782.995
0.029211079 -0.05 0.0280617 16846.977
0.028614285 -0.05 0.027801211 16911.933
0.028021925 -0.05 0.027539318 16978.388
0.027434034 -0.05 0.027275938 17048.174
0.026850619 -0.05 0.027011044 17117.648
0.026271654 -0.05 0.026744689 17188.833
0.025697179 -0.05 0.02647678 17263.571
0.025127212 -0.05 0.026207275 17338.46
0.024561729 -0.05 0.025936225 17414.127
0.024000753 -0.05 0.025663583 17492.88
0.023444336 -0.05 0.025389243 17573.753
0.022892447 -0.05 0.025113275 17654.274
0.022345135 -0.05 0.024835581 17740.804
0.02180243 -0.05 0.024556113 17824.595
0.021264293 -0.05 0.024274957 17911.081
0.0207308 -0.05 0.023991978 18000.91
0.020201992 -0.05 0.023707108 18092.193
0.019677842 -0.05 0.023420417 18183.003
0.019158403 -0.05 0.023131824 18278.358
0.018643727 -0.05 0.022841258 18373.646
0.018133826 -0.05 0.022548716 18472.125
0.017628739 -0.05 0.022254151 18571.218
0.017128471 -0.05 0.021957583 18673.949
0.016633127 -0.05 0.021658866 18783.248
0.016142724 -0.05 0.021358 18893.753
0.015657283 -0.05 0.021054987 19012.874
0.015176888 -0.05 0.020749728 19138.137
0.014701579 -0.05 0.020442196 19270.867
0.014231398 -0.05 0.020132367 19409.505
0.013766434 -0.05 0.019820157 19555.777
0.013306742 -0.05 0.019505528 19704.453
0.012852374 -0.05 0.019188457 19858.708
0.012403439 -0.05 0.018868841 20015.511
0.01195997 -0.05 0.018546687 20174.909
0.011522076 -0.05 0.018221915 20339.056
0.011089809 -0.05 0.017894514 20505.873
0.0106633 -0.05 0.017564386 20681.403
0.010242659 -0.05 0.01723145 20858.22
0.009827894 -0.05 0.016895788 21041.217
0.0094192167 -0.05 0.016557218 21234.201
0.0090167438 -0.05 0.016215673 21429.692
0.0086204858 -0.05 0.015871238 21631.362
0.0082306648 -0.05 0.015523765 21844.809
0.0078474301 -0.05 0.015173187 22062.44
0.00747084 -0.05 0.014819531 22286.581
0.0071010571 -0.05 0.014462741 22519.198
0.0067383047 -0.05 0.014102727 22763.017
0.0063827544 -0.05 0.013739427 23012.533
0.0060345067 -0.05 0.013372862 23265.742
0.0056937565 -0.05 0.013003011 23524.096
0.0053606882 -0.05 0.012629837 23789.174
0.0050354824 -0.05 0.012253323 24066.172
0.0047183926 -0.05 0.01187344 24354.928
0.0044096379 -0.05 0.011490161 24653.308
0.0041094132 -0.05 0.011103483 24960.923
0.0038179536 -0.05 0.010713443 25277.438
0.0035354728 -0.05 0.01032007 25602.631
0.0032621919 -0.05 0.0099233916 25937.078
0.0029983702 -0.05 0.0095234712 26279.934
0.0027442429 -0.05 0.0091203468 26630.016
0.0025000604 -0.05 0.0087141009 26986.925
0.0022660754 -0.05 0.0083048554 27350.619
0.0020425146 -0.05 0.0078926699 27721.132
0.0018296563 -0.05 0.0074776735 28097.531
0.0016277487 -0.05 0.0070600557 28477.533
0.0014369745 -0.05 0.006639968 28860.061
0.0012575291 -0.05 0.0062175973 29244.708
0.0010896146 -0.05 0.0057931737 29631.576
0.00093341056 -0.05 0.0053669215 30017.352
0.00078906403 -0.05 0.0049390744 30400.194
0.00065670868 -0.05 0.0045099018 30778.963
0.00053653171 -0.05 0.0040796665 31153.487
0.00042862038 -0.05 0.003648665 31519.042
0.00033294635 -0.05 0.003217232 31874.49
0.00024951873 -0.05 0.002785685 32219.739
0.00017832254 -0.05 0.0023543467 32553.131
0.00011930806 -0.05 0.0019235435 32872.332
7.2389968e-05 -0.05 0.0014936046 33175.992
3.7448892e-05 -0.05 0.0010648563 33463.513
1.4332163e-05 -0.05 0.0006376208 33734.713
2.8544133e-06 -0.05 0.00021221054 33986.604
0.99884037 -0.05 0.00016828408 26505.885
0.99652103 -0.05 0.00050440213 26499.011
0.99420154 -0.05 0.0008395204 26466.486
0.99188191 -0.05 0.0011736208 26441.114
0.98956214 -0.05 0.0015067636 26412.861
0.98724223 -0.05 0.001838948 26385.775
0.9849222 -0.05 0.0021701636 26358.392
0.98260202 -0.05 0.0025004302 26331.243
0.98028169 -0.05 0.0028297328 26304.148
0.97796124 -0.05 0.0031580577 26277.126
0.97564065 -0.05 0.0034854377 26250.16
0.97331994 -0.05 0.0038118591 26223.249
0.97099908 -0.05 0.0041373159 26196.38
0.96867809 -0.05 0.0044618578 26169.517
0.96635696 -0.05 0.0047854478 26142.736
0.96403572 -0.05 0.0051081172 26115.9
0.96171435 -0.05 0.0054299032 26089.131
0.95939284 -0.05 0.0057507069 26062.404
0.95707121 -0.05 0.0060705875 26035.656
0.95474946 -0.05 0.0063895914 26008.944
0.95242757 -0.05 0.0067076389 25982.304
0.95010556 -0.05 0.0070248024 25955.585
0.94778344 -0.05 0.0073411105 25928.952
0.94546118 -0.05 0.0076564368 25902.389
0.94313881 -0.05 0.007970866 25875.783
0.94081631 -0.05 0.0082844406 25849.242
0.93849369 -0.05 0.0085971026 25822.746
0.93617096 -0.05 0.0089088655 25796.287
0.9338481 -0.05 0.0092197817 25769.817
0.93152513 -0.05 0.0095298292 25743.438
0.92920205 -0.05 0.00983897 25717.092
0.92687884 -0.05 0.010147248 25690.785
0.92455553 -0.05 0.01045465 25664.544
0.92223209 -0.05 0.010761189 25638.314
0.91990855 -0.05 0.011066875 25612.177
0.91758488 -0.05 0.011371653 25586.138
0.91526111 -0.05 0.011675608 25560.033
0.91293723 -0.05 0.011978761 25534.049
0.91061324 -0.05 0.012281 25508.183
0.90828913 -0.05 0.012582372 25482.313
0.90596492 -0.05 0.012882964 25456.458
0.90364059 -0.05 0.013182677 25430.827
0.90131615 -0.05 0.013481494 25405.182
0.89899162 -0.05 0.013779572 25379.481
0.89666698 -0.05 0.014076842 25353.987
0.89434222 -0.05 0.014373142 25328.663
0.89201737 -0.05 0.014668681 25303.123
0.88969241 -0.05 0.014963453 25277.884
0.88736734 -0.05 0.0152573 25252.695
0.88504217 -0.05 0.015550344 25227.515
0.8827169 -0.05 0.015842646 25202.346
0.88039152 -0.05 0.016134071 25177.465
0.87806604 -0.05 0.016424635 25152.498
0.87574046 -0.05 0.016714466 25127.622
0.87341478 -0.05 0.017003468 25102.878
0.871089 -0.05 0.017291665 25078.141
0.86876312 -0.05 0.017579058 25053.555
0.86643714 -0.05 0.017865646 25028.963
0.86411107 -0.05 0.018151445 25004.525
0.86178489 -0.05 0.018436407 24980.162
0.85945862 -0.05 0.018720606 24955.773
0.85713225 -0.05 0.019004019 24931.57
0.85480578 -0.05 0.019286574 24907.485
0.85247921 -0.05 0.019568355 24883.364
0.85015256 -0.05 0.019849418 24859.303
0.84782581 -0.05 0.020129657 24835.447
0.84549896 -0.05 0.020409081 24811.569
0.84317202 -0.05 0.020687756 24787.752
0.84084499 -0.05 0.020965643 24764.058
0.83851786 -0.05 0.021242672 24740.56
0.83619063 -0.05 0.021518954 24716.907
0.83386332 -0.05 0.021794529 24693.428
0.83153592 -0.05 0.022069294 24670.026
0.82920841 -0.05 0.022343258 24646.724
0.82688083 -0.05 0.02261648 24623.368
0.82455316 -0.05 0.022888925 24600.215
0.82222538 -0.05 0.023160547 24577.104
0.81989751 -0.05 0.023431389 24554.088
0.81756956 -0.05 0.023701494 24531.039
0.81524153 -0.05 0.023970846 24508.143
0.8129134 -0.05 0.024239417 24485.248
0.81058518 -0.05 0.02450723 24462.451
0.80825687 -0.05 0.024774258 24439.718
0.80592849 -0.05 0.02504053 24417.026
0.8036 -0.05 0.025306023 24394.439
0.80127144 -0.05 0.025570774 24371.78
0.79894279 -0.05 0.025834763 24349.333
0.79661404 -0.05 0.026097924 24326.903
0.79428522 -0.05 0.026360374 24304.413
0.79195631 -0.05 0.026622048 24282.158
0.78962731 -0.05 0.026882938 24259.793
0.78729823 -0.05 0.027143126 24237.517
0.78496906 -0.05 0.027402517 24215.349
0.78263981 -0.05 0.02766117 24193.053
0.78031048 -0.05 0.027919081 24170.958
0.77798106 -0.05 0.028176144 24148.929
0.77565155 -0.05 0.028432494 24126.748
0.77332196 -0.05 0.028688107 24104.771
0.77099228 -0.05 0.028942908 24082.765
0.76866253 -0.05 0.029196968 24060.764
0.7663327 -0.05 0.029450285 24038.783
0.76400278 -0.05 0.029702803 24016.905
0.76167277 -0.05 0.029954568 23994.921
0.75934268 -0.05 0.030205573 23973.093
0.75701251 -0.05 0.030455803 23951.157
0.75468227 -0.05 0.030705313 23929.257
0.75235193 -0.05 0.030954045 23907.371
0.75002152 -0.05 0.031202018 23885.452
0.74769103 -0.05 0.031449207 23863.609
0.74536045 -0.05 0.031695625 23841.678
0.7430298 -0.05 0.031941289 23819.784
0.74069906 -0.05 0.032186181 23797.827
0.73836824 -0.05 0.032430305 23775.901
0.73603734 -0.05 0.032673645 23753.947
0.73370637 -0.05 0.032916233 23731.903
0.73137531 -0.05 0.033158092 23709.788
0.72904417 -0.05 0.033399148 23687.76
0.72671295 -0.05 0.033639377 23665.648
0.72438166 -0.05 0.03387888 23643.374
0.72205028 -0.05 0.034117645 23621.099
0.71971882 -0.05 0.034355552 23598.877
0.71738729 -0.05 0.034592685 23576.393
0.71505567 -0.05 0.034829099 23553.92
0.71272397 -0.05 0.035064674 23531.4
0.71039219 -0.05 0.035299486 23508.662
0.70806035 -0.05 0.035533544 23485.917
0.70572841 -0.05 0.035766778 23463.039
0.70339641 -0.05 0.035999269 23439.965
0.70106433 -0.05 0.03623098 23416.83
0.69873216 -0.05 0.036461892 23393.494
0.69639992 -0.05 0.036691978 23370.1
0.69406759 -0.05 0.036921269 23346.43
0.69173519 -0.05 0.03714974 23322.766
0.68940271 -0.05 0.037377398 23298.76
0.68707015 -0.05 0.037604327 23274.583
0.68473752 -0.05 0.03783047 23250.167
0.68240481 -0.05 0.038055756 23225.646
0.68007201 -0.05 0.038280206 23200.803
0.67773914 -0.05 0.038503859 23175.778
0.67540619 -0.05 0.03872673 23150.391
0.67307317 -0.05 0.038948784 23124.846
0.67074007 -0.05 0.039170028 23098.879
0.66840689 -0.05 0.039390456 23072.736
0.66607364 -0.05 0.039610024 23046.194
0.6637403 -0.05 0.039828774 23019.382
0.66140688 -0.05 0.040046679 22992.182
0.6590734 -0.05 0.040263799 22964.567
0.65673983 -0.05 0.040480084 22936.635
0.65440618 -0.05 0.040695489 22908.281
0.65207246 -0.05 0.040910082 22879.472
0.64973866 -0.05 0.041123838 22850.257
0.64740478 -0.05 0.04133674 22820.544
0.64507083 -0.05 0.041548788 22790.393
0.6427368 -0.05 0.04175995 22759.74
0.64040268 -0.05 0.041970278 22728.534
0.6380685 -0.05 0.042179753 22696.825
0.63573424 -0.05 0.042388355 22664.527
0.63339989 -0.05 0.042596094 22631.675
0.63106547 -0.05 0.042802945 22598.212
0.62873097 -0.05 0.04300894 22564.108
0.6263964 -0.05 0.043214055 22529.389
0.62406174 -0.05 0.043418269 22493.996
0.62172702 -0.05 0.043621601 22457.923
0.61939221 -0.05 0.043824069 22421.116
0.61705733 -0.05 0.044025645 22383.616
0.61472237 -0.05 0.044226271 22345.38
0.61238733 -0.05 0.044426006 22306.346
0.61005222 -0.05 0.04462488 22266.524
0.60771702 -0.05 0.044822825 22225.902
0.60538174 -0.05 0.045019806 22184.467
0.6030464 -0.05 0.045215861 22142.191
0.60071097 -0.05 0.045411024 22099.062
0.59837546 -0.05 0.045605254 22055.075
0.59603988 -0.05 0.045798556 22010.18
0.59370423 -0.05 0.045990938 21964.397
0.59136849 -0.05 0.046182352 21917.696
0.58903267 -0.05 0.046372791 21870.074
0.58669678 -0.05 0.046562266 21821.507
0.5843608 -0.05 0.046750814 21771.972
0.58202475 -0.05 0.046938396 21721.501
0.57968862 -0.05 0.047124972 21670.086
0.57735242 -0.05 0.047310579 21617.731
0.57501614 -0.05 0.047495251 21564.379
0.57267978 -0.05 0.047678924 21510.032
0.57034334 -0.05 0.04786155 21454.728
0.56800683 -0.05 0.048043188 21398.443
0.56567024 -0.05 0.048223861 21341.159
0.56333356 -0.05 0.048403536 21282.948
0.56099681 -0.05 0.048582153 21223.773
0.55865998 -0.05 0.04875972 21163.56
0.55632308 -0.05 0.048936314 21102.426
0.55398609 -0.05 0.049111879 21040.464
0.55164903 -0.05 0.049286359 20977.538
0.54931189 -0.05 0.049459794 20913.716
0.54697467 -0.05 0.049632163 20848.986
0.54463737 -0.05 0.049803468 20783.377
0.5423 -0.05 0.049973719 20716.904
0.53996254 -0.05 0.050142913 20649.593
0.53762502 -0.05 0.050311035 20581.463
0.53528742 -0.05 0.050478054 20512.539
0.53294973 -0.05 0.050643972 20442.839
0.53061196 -0.05 0.050808824 20372.395
0.52827412 -0.05 0.050972558 20301.238
0.5259362 -0.05 0.051135143 20229.383
0.5235982 -0.05 0.051296612 20156.877
0.52126012 -0.05 0.051456922 20083.756
0.51892198 -0.05 0.051616121 20010.037
0.51658374 -0.05 0.051774162 19935.797
0.51424543 -0.05 0.051931036 19861.017
0.51190704 -0.05 0.05208678 19785.794
0.50956857 -0.05 0.052241321 19710.116
0.50723003 -0.05 0.052394685 19634.06
0.50489141 -0.05 0.052546885 19557.658
0.50255271 -0.05 0.05269791 19480.972
0.50021394 -0.05 0.052847701 19404.056
0.49787509 -0.05 0.052996281 19326.964
0.49553616 -0.05 0.053143654 19249.768
0.49319715 -0.05 0.053289801 19172.494
0.49085807 -0.05 0.053434697 19095.194
0.48851891 -0.05 0.05357832 19017.86
0.48617967 -0.05 0.053720679 18940.506
0.48384036 -0.05 0.053861795 18863.116
0.48150096 -0.05 0.054001669 18785.717
0.4791615 -0.05 0.054140241 18708.333
0.47682195 -0.05 0.054277501 18631.037
0.47448234 -0.05 0.054413462 18553.924
0.47214264 -0.05 0.054548109 18477.096
0.46980287 -0.05 0.054681459 18400.596
0.46746302 -0.05 0.054813494 18324.414
0.4651231 -0.05 0.054944177 18248.366
0.4627831 -0.05 0.055073496 18172.118
0.46044304 -0.05 0.055201437 18095.044
0.45810288 -0.05 0.055328007 18016.304
0.45576266 -0.05 0.055453195 17934.797
0.45342237 -0.05 0.055576996 17849.258
0.451082 -0.05 0.05569938 17758.345
0.44874156 -0.05 0.055820362 17660.559
0.44640104 -0.05 0.055939944 17554.36
0.44406046 -0.05 0.056058044 17436.805
0.4417198 -0.05 0.056174717 17302.153
0.43937906 -0.05 0.05628996 17144.628
0.43703826 -0.05 0.056403696 16956.057
0.43469738 -0.05 0.056515954 16725.32
0.43235643 -0.05 0.056626691 16445.391
0.43001541 -0.05 0.056735938 16099.957
0.42767432 -0.05 0.056843696 15642.851
0.42533317 -0.05 0.056949929 15029.381
0.42299193 -0.05 0.057054582 14279.606
0.42065064 -0.05 0.05715767 13489.694
0.41830927 -0.05 0.057259222 12786.167
0.41596783 -0.05 0.057359191 12248.781
0.41362633 -0.05 0.057457551 11885.515
0.41128476 -0.05 0.057554292 11659.567
0.40894313 -0.05 0.057649427 11527.355
0.40660142 -0.05 0.057742965 11453.393
0.40425966 -0.05 0.057834838 11415.799
0.40191783 -0.05 0.057925023 11397.652
0.39957593 -0.05 0.058013541 11389.883
0.39723398 -0.05 0.058100378 11387.003
0.39489196 -0.05 0.058185525 11386.574
0.39254988 -0.05 0.058268918 11388.195
0.39020774 -0.05 0.058350591 11390.958
0.38786553 -0.05 0.058430541 11394.822
0.38552326 -0.05 0.058508715 11399.475
0.38318094 -0.05 0.058585094 11404.4
0.38083857 -0.05 0.058659688 11409.458
0.37849613 -0.05 0.058732482 11414.693
0.37615364 -0.05 0.058803471 11420.002
0.37381109 -0.05 0.058872605 11425.98
0.37146848 -0.05 0.058939856 11431.822
0.36912583 -0.05 0.059005237 11437.87
0.36678312 -0.05 0.059068742 11443.792
0.36444037 -0.05 0.059130353 11450.04
0.36209757 -0.05 0.059190049 11456.196
0.35975471 -0.05 0.059247824 11462.701
0.35741181 -0.05 0.059303603 11469.715
0.35506885 -0.05 0.059357402 11476.263
0.35272586 -0.05 0.059409225 11483.294
0.35038283 -0.05 0.059459045 11490.049
0.34803975 -0.05 0.059506859 11497.307
0.34569662 -0.05 0.059552581 11504.999
0.34335347 -0.05 0.059596249 11512.053
0.34101027 -0.05 0.059637862 11519.873
0.33866703 -0.05 0.059677333 11527.771
0.33632377 -0.05 0.059714702 11535.536
0.33398046 -0.05 0.059749909 11544.078
0.33163713 -0.05 0.059782951 11551.885
0.32929376 -0.05 0.059813858 11560.242
0.32695037 -0.05 0.059842535 11569.021
0.32460696 -0.05 0.059868968 11577.803
0.32226351 -0.05 0.059893141 11586.868
0.31992004 -0.05 0.059915067 11595.501
0.31757656 -0.05 0.059934727 11604.767
0.31523306 -0.05 0.059952066 11614.052
0.31288954 -0.05 0.059967055 11623.812
0.31054601 -0.05 0.059979678 11633.262
0.30820247 -0.05 0.059989926 11643.009
0.30585891 -0.05 0.059997793 11652.516
0.30351535 -0.05 0.060003209 11663.282
0.30117178 -0.05 0.060006157 11674.147
