/*--------------------------------*- C++ -*----------------------------------*\
| =========                 |                                                 |
| \\      /  F ield         | OpenFOAM: The Open Source CFD Toolbox           |
|  \\    /   O peration     | Version:  2306                                  |
|   \\  /    A nd           | Website:  www.openfoam.com                      |
|    \\/     M anipulation  |                                                 |
\*---------------------------------------------------------------------------*/
FoamFile
{
    version     2.0;
    format      ascii;
    arch        "LSB;label=32;scalar=64";
    class       volScalarField;
    location    "175";
    object      div(phi);
}
// * * * * * * * * * * * * * * * * * * * * * * * * * * * * * * * * * * * * * //

dimensions      [0 0 -1 0 0 0 0];

internalField   nonuniform List<scalar> 
1340
(
8.69163e-05
0.000181979
-4.05932e-05
7.72039e-05
-1.9597e-05
8.08193e-05
2.53278e-05
-4.1865e-05
6.74657e-05
9.28104e-05
-1.61822e-06
1.14778e-05
7.24955e-05
3.32024e-05
-2.10231e-05
7.98002e-05
-2.54923e-05
4.98492e-05
4.18233e-05
-9.49972e-07
2.53103e-05
9.60878e-05
-3.07815e-05
8.46157e-06
6.04893e-05
-1.21414e-05
-1.2422e-07
4.93559e-05
4.51284e-05
-1.27168e-05
7.8183e-05
1.68762e-05
3.08724e-05
-3.3202e-05
3.45179e-05
2.66493e-05
-9.34752e-06
4.452e-06
7.26993e-05
-5.65675e-06
5.64352e-06
6.07938e-07
4.56018e-05
-1.42694e-05
-8.44881e-06
3.31747e-05
2.91041e-05
-2.80441e-05
4.50105e-05
3.83998e-05
-3.54234e-05
3.05414e-05
-2.61571e-05
2.23111e-05
1.8065e-05
-1.44644e-05
-5.01522e-06
5.2488e-05
-1.40479e-05
-1.78499e-06
4.9872e-05
-1.9005e-05
-4.84635e-06
3.10299e-05
-1.5613e-05
-8.69521e-06
2.18665e-05
1.95328e-05
-2.88617e-05
3.02472e-05
2.20315e-05
-1.3129e-05
1.37548e-05
1.36486e-05
-2.32012e-05
1.71367e-05
1.03081e-05
-1.43197e-05
-7.6765e-06
3.66734e-05
-1.29449e-05
-3.88399e-06
2.47235e-05
6.29603e-06
4.15192e-06
-2.53851e-06
2.47748e-05
-1.27738e-05
-8.7689e-06
1.59599e-05
1.10333e-05
-2.39293e-05
2.18905e-05
1.45281e-05
-1.14216e-05
3.51208e-06
2.06675e-06
1.62411e-05
-1.65946e-05
1.23143e-05
7.35108e-06
-1.30703e-05
-6.25094e-06
2.72712e-05
-1.04343e-05
-3.77903e-06
1.7043e-05
-2.70372e-06
3.24246e-06
-3.98077e-06
-2.58428e-06
1.77824e-05
-1.13325e-05
-6.19803e-06
1.16566e-05
8.31833e-06
-1.87379e-05
1.62689e-05
9.77313e-06
-1.06605e-05
2.86381e-06
-2.72649e-06
3.35931e-06
8.23538e-06
-1.37404e-05
1.03781e-05
4.58484e-06
-1.06044e-05
-4.83309e-06
2.01327e-05
-8.63669e-06
-2.58769e-06
1.17434e-05
-2.93446e-06
1.04544e-06
3.79843e-06
-1.14696e-05
-1.03778e-06
1.47133e-05
-8.50983e-06
-5.20446e-06
9.62444e-06
5.10124e-06
-1.41506e-05
1.284e-05
7.26197e-06
-8.4914e-06
2.14471e-06
1.611e-06
-3.4917e-06
1.44854e-05
9.37013e-06
-9.88295e-06
7.89517e-06
3.75577e-06
-8.60925e-06
-3.06737e-06
1.61281e-05
-6.30676e-06
-1.97824e-06
9.83219e-06
-9.76006e-07
2.21168e-06
1.10041e-05
-5.49421e-06
-1.55352e-06
1.07636e-05
-7.36231e-06
-3.32412e-06
7.66297e-06
4.69838e-06
-1.09254e-05
1.05243e-05
6.43189e-06
-6.18467e-06
4.20392e-06
4.66802e-06
-1.07378e-06
2.85834e-05
3.91946e-06
4.33634e-06
-8.75798e-06
6.74789e-06
2.55756e-06
-6.73702e-06
-2.15832e-06
1.30101e-05
-4.80233e-06
-1.02448e-06
9.87904e-06
9.97542e-07
3.72017e-06
1.51927e-05
-9.42956e-06
2.64256e-05
-1.17586e-06
8.73844e-06
-5.77193e-06
-2.82584e-06
6.65671e-06
3.44436e-06
-8.51559e-06
9.0955e-06
6.415e-06
-3.99041e-06
5.21884e-06
5.62135e-06
-3.09434e-06
2.41075e-05
-1.52628e-05
3.7213e-06
-6.82429e-06
5.31658e-06
2.27985e-06
-5.36699e-06
-1.35259e-06
1.13491e-05
-3.51422e-06
-5.23562e-07
9.41596e-06
1.97024e-06
3.37566e-06
1.28534e-05
-1.23352e-05
1.89528e-05
-1.99573e-05
7.37996e-07
7.42861e-06
-4.87496e-06
-1.68403e-06
5.46826e-06
3.52935e-06
-7.02633e-06
7.82308e-06
5.83022e-06
-3.05428e-06
4.80673e-06
4.64273e-06
-3.20417e-06
1.85499e-05
-1.18267e-05
1.17271e-05
3.53783e-06
-5.46834e-06
4.84591e-06
1.72706e-06
-4.27245e-06
-1.1142e-06
9.47592e-06
-2.9461e-06
-5.51231e-07
8.30084e-06
1.51723e-06
2.58231e-06
9.94341e-06
-1.19291e-05
1.71821e-05
-6.5775e-06
-1.72161e-07
-3.13762e-07
6.30235e-06
-3.69925e-06
-1.48994e-06
4.74474e-06
2.63917e-06
-5.84902e-06
6.55857e-06
5.12102e-06
-2.81814e-06
3.97587e-06
3.47693e-06
-3.86879e-06
1.59382e-05
-1.18065e-05
1.77027e-05
-3.13617e-06
4.35588e-06
2.52132e-06
-4.22279e-06
3.95153e-06
1.60741e-06
-3.51291e-06
-8.56684e-07
8.15795e-06
-2.4685e-06
-7.24714e-07
6.8976e-06
1.11964e-06
1.37828e-06
7.94053e-06
-1.14541e-05
1.66546e-05
-1.12121e-05
1.52377e-05
-1.47791e-06
-4.09798e-07
5.0825e-06
-3.09868e-06
-8.66028e-07
3.83978e-06
2.52502e-06
-5.06278e-06
5.3963e-06
4.15541e-06
-2.59533e-06
2.94954e-06
2.55403e-06
-4.02212e-06
1.29786e-05
-1.21468e-05
1.486e-05
-1.24339e-05
3.32717e-06
2.05963e-06
-3.50053e-06
3.52353e-06
1.22085e-06
-2.91854e-06
-8.43652e-07
6.62182e-06
-2.2353e-06
-8.06084e-07
5.60743e-06
5.52001e-07
8.24009e-07
6.07274e-06
-9.13939e-06
1.33636e-05
-1.08375e-05
1.02065e-05
-8.63893e-06
-5.59956e-07
-2.21131e-07
4.33979e-06
-2.39014e-06
-8.68058e-07
3.2453e-06
1.75574e-06
-4.27562e-06
4.38054e-06
3.41694e-06
-2.38075e-06
2.24122e-06
1.79803e-06
-3.47384e-06
1.0404e-05
-1.00885e-05
1.09252e-05
-4.09897e-06
5.062e-06
2.82002e-06
1.65649e-06
-2.71173e-06
2.83972e-06
1.06134e-06
-2.4878e-06
-7.22701e-07
5.52934e-06
-1.90493e-06
-8.23073e-07
4.45009e-06
2.92548e-07
2.85282e-07
4.93962e-06
-8.13162e-06
1.06531e-05
-8.47659e-06
8.08102e-06
-4.48824e-06
-9.66088e-07
-8.95369e-08
3.5478e-06
-2.07088e-06
-5.38035e-07
2.55657e-06
1.57632e-06
-3.67612e-06
3.5122e-06
2.64642e-06
-2.11117e-06
1.5542e-06
1.27733e-06
-3.32807e-06
8.25967e-06
-8.25932e-06
9.72831e-06
-6.03599e-06
8.45899e-06
2.35526e-06
1.45947e-06
-2.27633e-06
2.47966e-06
7.58282e-07
-2.11537e-06
-7.12249e-07
4.3603e-06
-1.70868e-06
-7.91337e-07
3.48536e-06
-3.24297e-08
-1.43552e-08
3.71756e-06
-6.53511e-06
8.52523e-06
-7.23808e-06
9.77374e-06
-2.90913e-06
-2.76334e-07
2.42536e-08
3.02415e-06
-1.63425e-06
-5.77928e-07
2.11427e-06
1.00725e-06
-3.06796e-06
2.78638e-06
2.09711e-06
-1.86523e-06
1.10527e-06
8.01245e-07
-2.87118e-06
6.40526e-06
-6.98492e-06
8.4588e-06
-5.91607e-06
5.73213e-06
7.53252e-06
2.06222e-06
1.16851e-06
-1.79552e-06
1.98011e-06
6.27663e-07
-1.82039e-06
-6.10829e-07
3.55998e-06
-1.43666e-06
-7.21293e-07
2.69813e-06
-1.4222e-07
-2.7867e-07
2.84574e-06
-5.75841e-06
6.52017e-06
-7.03518e-06
6.45749e-06
-2.77753e-07
2.6584e-06
-5.95431e-07
6.49067e-08
2.46125e-06
-1.43608e-06
-3.77085e-07
1.63502e-06
8.78219e-07
-2.59002e-06
2.20537e-06
1.58902e-06
-1.57557e-06
7.22081e-07
4.79341e-07
-2.6552e-06
4.76666e-06
-6.08084e-06
5.74092e-06
-6.17174e-06
5.04861e-06
-1.13744e-06
1.70072e-06
1.01777e-06
-1.52102e-06
1.70506e-06
4.25123e-07
-1.54509e-06
-5.71232e-07
2.75909e-06
-1.24432e-06
-6.15824e-07
2.09e-06
-2.67133e-07
-3.72318e-07
1.93582e-06
-4.67671e-06
4.52821e-06
-6.20645e-06
5.07512e-06
-6.03361e-06
4.09328e-06
-1.54251e-07
1.09276e-07
2.08633e-06
-1.13889e-06
-4.00362e-07
1.33811e-06
5.13858e-07
-2.11722e-06
1.7409e-06
1.25159e-06
-1.31141e-06
5.01305e-07
1.94256e-07
-2.21335e-06
3.31588e-06
-5.0957e-06
3.85424e-06
-6.41494e-06
3.53425e-06
-6.68396e-06
1.49125e-06
8.07792e-07
-1.2041e-06
1.35759e-06
3.45566e-07
-1.31767e-06
-4.73024e-07
2.2228e-06
-1.01e-06
-5.05979e-07
1.5985e-06
-2.76598e-07
-4.40178e-07
1.31108e-06
-3.96673e-06
3.00567e-06
-5.06246e-06
3.29985e-06
-5.66468e-06
1.31899e-06
-6.25694e-06
-3.85677e-07
1.17665e-07
1.69185e-06
-9.95782e-07
-2.64974e-07
1.02567e-06
4.454e-07
-1.74657e-06
1.36656e-06
9.29529e-07
-1.06214e-06
2.99246e-07
2.14042e-08
-1.91601e-06
2.22284e-06
-4.05397e-06
2.52263e-06
-4.7491e-06
1.87772e-06
-2.98027e-06
1.43807e-07
1.22303e-06
7.04241e-07
-1.01491e-06
1.15968e-06
2.23783e-07
-1.10479e-06
-4.19922e-07
1.69165e-06
-8.53064e-07
-4.06073e-07
1.20489e-06
-3.14117e-07
-4.21893e-07
7.69899e-07
-3.05095e-06
1.94609e-06
-3.72312e-06
2.11002e-06
-3.9585e-06
6.65008e-07
-2.90255e-06
-8.00921e-08
1.36735e-07
1.42964e-06
-7.85824e-07
-2.70768e-07
8.35883e-07
2.23929e-07
-1.40082e-06
1.06192e-06
7.07223e-07
-8.56713e-07
1.90286e-07
-1.09501e-07
-1.49855e-06
1.44157e-06
-3.08902e-06
1.62106e-06
-3.50385e-06
1.53783e-06
-2.92918e-06
9.34246e-07
1.07652e-06
5.59478e-07
-7.99796e-07
9.23225e-07
1.8106e-07
-9.30996e-07
-3.35128e-07
1.33771e-06
-6.80879e-07
-3.16596e-07
8.95132e-07
-2.82034e-07
-3.88139e-07
4.61737e-07
-2.42169e-06
1.28799e-06
-2.85514e-06
1.53653e-06
-2.98866e-06
1.43227e-06
-1.94687e-06
-2.41017e-07
1.33265e-07
1.15631e-06
-6.81135e-07
-1.7905e-07
6.39013e-07
1.93765e-07
-1.13085e-06
8.21517e-07
5.05098e-07
-6.68173e-07
1.01608e-07
-1.56733e-07
-1.21227e-06
9.50565e-07
-2.34509e-06
1.15542e-06
-2.46768e-06
1.55955e-06
-1.99138e-06
1.00015e-06
-1.61239e-06
8.82259e-07
4.89801e-07
-6.68743e-07
7.83842e-07
1.11845e-07
-7.6953e-07
-2.82258e-07
9.98415e-07
-5.6257e-07
-2.36033e-07
6.63088e-07
-2.6371e-07
-3.18276e-07
2.34832e-07
-1.79456e-06
8.85958e-07
-2.00328e-06
1.20125e-06
-2.08001e-06
1.31266e-06
-1.23345e-06
2.00989e-07
-2.71789e-08
1.38736e-07
9.74893e-07
-5.33421e-07
-1.74905e-07
5.2309e-07
6.91439e-08
-8.87403e-07
6.33842e-07
3.76829e-07
-5.14514e-07
6.89606e-08
-1.77979e-07
-9.09372e-07
6.38887e-07
-1.73722e-06
8.79297e-07
-1.73919e-06
1.31806e-06
-1.66099e-06
7.00485e-07
-1.26399e-06
7.77798e-07
3.90528e-07
-5.22756e-07
6.25117e-07
9.35434e-08
-6.37334e-07
-2.137e-07
7.80342e-07
-4.37374e-07
-1.68095e-07
4.9274e-07
-2.11112e-07
-2.61194e-07
1.405e-07
-1.40514e-06
6.74758e-07
-1.50797e-06
1.04867e-06
-1.4469e-06
1.18555e-06
-1.07781e-06
5.51233e-07
-1.39277e-07
1.29704e-07
7.86303e-07
-4.56076e-07
-1.12044e-07
4.03131e-07
6.61339e-08
-6.99914e-07
4.90528e-07
2.67311e-07
-3.85467e-07
3.97269e-08
-1.61704e-07
-7.28477e-07
4.78107e-07
-1.32903e-06
7.81889e-07
-1.18822e-06
1.21746e-06
-1.12206e-06
7.68764e-07
-8.8083e-07
6.38288e-07
3.42908e-07
-4.32177e-07
5.27868e-07
5.73987e-08
-5.15657e-07
-1.70678e-07
5.77481e-07
-3.53151e-07
-1.15669e-07
3.71837e-07
-1.80055e-07
-2.04182e-07
7.42209e-08
-1.06309e-06
5.59363e-07
-1.06334e-06
9.85377e-07
-9.6844e-07
1.17644e-06
-7.86315e-07
1.0043e-06
9.09646e-09
1.2812e-07
6.60615e-07
-3.52503e-07
-1.03166e-07
3.32433e-07
3.35926e-09
-5.39827e-07
3.80244e-07
2.04425e-07
-2.90863e-07
3.47579e-08
-1.4706e-07
-5.60664e-07
3.5819e-07
-1.01494e-06
6.81931e-07
-8.59661e-07
1.15056e-06
-8.29754e-07
1.22984e-06
-7.89174e-07
5.61683e-07
2.74667e-07
-3.33072e-07
4.21692e-07
5.20943e-08
-4.18007e-07
-1.22961e-07
4.50557e-07
-2.68606e-07
-7.84674e-08
2.86013e-07
-1.38598e-07
-1.67948e-07
3.97692e-08
-8.65114e-07
4.40252e-07
-8.48708e-07
8.60553e-07
-7.29056e-07
1.26054e-06
-6.70569e-07
1.10301e-06
-9.5102e-07
-6.93146e-08
1.17852e-07
5.30494e-07
-2.95382e-07
-6.12118e-08
2.5863e-07
1.3074e-08
-4.18416e-07
2.93745e-07
1.51483e-07
-2.17216e-07
2.34025e-08
-1.32531e-07
-4.62943e-07
2.50794e-07
-8.15486e-07
5.46181e-07
-6.58256e-07
9.99145e-07
-6.71958e-07
1.11976e-06
-4.1042e-07
6.0706e-07
4.62801e-07
2.40745e-07
-2.70475e-07
3.53822e-07
3.41002e-08
-3.29093e-07
-9.31642e-08
3.29021e-07
-2.12391e-07
-5.54095e-08
2.21076e-07
-1.1994e-07
-1.3331e-07
-8.20832e-09
-6.77492e-07
3.19223e-07
-6.46687e-07
6.79107e-07
-5.68984e-07
1.07412e-06
-5.88753e-07
7.06705e-07
-5.14155e-07
2.79078e-08
1.12435e-07
4.43137e-07
-2.24713e-07
-5.18435e-08
2.14059e-07
-1.74476e-08
-3.1614e-07
2.19566e-07
1.17857e-07
-1.67173e-07
1.79456e-08
-1.29112e-07
-3.63877e-07
1.68967e-07
-6.28117e-07
4.08356e-07
-5.26915e-07
8.07545e-07
-5.68198e-07
9.40533e-07
-3.89652e-07
5.31853e-07
4.03596e-07
1.93231e-07
-2.04784e-07
2.83299e-07
3.34327e-08
-2.5763e-07
-6.13787e-08
2.4432e-07
-1.59336e-07
-4.4285e-08
1.62899e-07
-1.01497e-07
-1.1163e-07
-2.38403e-08
-5.34928e-07
2.44086e-07
-5.09224e-07
5.44038e-07
-4.80894e-07
9.08163e-07
-4.56246e-07
5.53584e-07
-4.14454e-07
-3.00229e-08
9.94781e-08
3.51331e-07
-1.81564e-07
-2.44318e-08
1.65036e-07
-1.22515e-08
-2.39242e-07
1.5462e-07
7.92514e-08
-1.31394e-07
1.98793e-09
-1.18528e-07
-2.93609e-07
1.39453e-07
-4.85959e-07
3.53023e-07
-4.28527e-07
7.03022e-07
-4.11054e-07
7.02387e-07
-2.6539e-07
3.70954e-07
3.27904e-07
1.6578e-07
-1.59993e-07
2.30902e-07
2.40119e-08
-1.98401e-07
-4.2267e-08
1.61433e-07
-1.27548e-07
-3.94548e-08
1.10562e-07
-9.33076e-08
-9.47375e-08
-1.93491e-08
-4.20741e-07
2.30924e-07
-3.97577e-07
4.98476e-07
-3.29245e-07
6.78174e-07
-2.75784e-07
2.47532e-07
-3.06279e-07
3.05521e-08
9.05025e-08
2.84042e-07
-1.32861e-07
-2.3713e-08
1.35448e-07
-3.14977e-08
-1.76559e-07
1.09386e-07
5.11462e-08
-1.09033e-07
-8.836e-09
-1.04063e-07
-2.41001e-07
1.24098e-07
-3.85397e-07
3.10398e-07
-2.9907e-07
5.4408e-07
-2.19554e-07
2.57532e-07
-2.36671e-07
1.16867e-07
2.71084e-07
1.21136e-07
-1.28843e-07
1.71163e-07
1.38205e-08
-1.6128e-07
-1.85193e-08
1.23761e-07
-9.91657e-08
-3.90329e-08
6.99573e-08
-8.29911e-08
-8.4557e-08
-2.63169e-08
-3.47311e-07
1.56112e-07
-3.07827e-07
3.68864e-07
-1.90654e-07
2.88114e-07
-1.81902e-07
2.06323e-07
-1.55321e-07
2.25554e-07
-1.83655e-08
8.22768e-08
2.22698e-07
-1.1935e-07
1.79141e-09
1.27174e-07
-2.04196e-08
-1.38887e-07
8.06245e-08
3.93645e-08
-7.93123e-08
-1.60753e-08
-1.05585e-07
-2.00333e-07
4.47752e-08
-3.12646e-07
1.76729e-07
-2.15549e-07
2.71795e-07
-3.57473e-08
2.55696e-07
-2.01273e-07
3.4404e-07
-1.4344e-07
2.13755e-07
5.94917e-08
-1.0917e-07
1.5501e-07
-6.41389e-09
-1.28627e-07
2.30225e-09
1.0264e-07
-7.13243e-08
-4.12067e-08
3.34371e-08
-8.00391e-08
-5.98757e-08
-5.77179e-08
-2.51146e-07
3.28849e-08
-2.26694e-07
1.91676e-07
-4.35896e-08
1.77578e-07
-3.09341e-08
3.98026e-07
-2.10833e-07
3.3043e-07
2.13188e-08
1.29958e-07
2.10794e-07
-1.25568e-07
2.6588e-08
1.43783e-07
-1.48058e-08
-1.0646e-07
4.45039e-08
2.08992e-08
-5.76877e-08
-1.21969e-08
-9.03042e-08
-1.19249e-07
-5.08704e-08
-2.1368e-07
3.8989e-08
-1.48959e-07
1.79658e-07
1.73909e-07
2.99664e-07
-2.46054e-07
3.42048e-07
-1.32299e-07
2.15457e-07
7.56302e-08
-8.81241e-08
1.57393e-07
1.99922e-08
-1.0137e-07
1.27427e-08
8.52665e-08
-4.88943e-08
-3.11465e-08
4.24261e-09
-6.21723e-08
-2.72098e-08
-8.01552e-08
-1.32236e-07
-7.75569e-08
-1.37784e-07
9.19733e-08
4.47815e-08
1.31508e-07
4.24072e-09
2.80485e-07
-1.64705e-07
2.7258e-07
4.98792e-08
9.70544e-08
1.60995e-07
-7.9309e-08
1.93924e-08
1.20563e-07
1.264e-08
-7.0893e-08
2.86229e-08
-8.05808e-09
-4.08337e-08
-4.49271e-09
-7.23935e-08
-3.14876e-08
-1.25958e-07
-7.90123e-08
-5.25517e-08
-3.62201e-08
6.24216e-08
1.51536e-07
1.42847e-07
-1.54224e-07
1.48604e-07
-5.96826e-08
1.70655e-07
9.56033e-08
-4.85406e-08
1.17952e-07
3.86473e-08
-5.51463e-08
1.57505e-08
5.36517e-08
-4.06255e-08
-1.07013e-08
-1.64548e-08
-4.47491e-08
2.56319e-08
-1.11721e-07
5.27315e-09
-1.64437e-07
-1.0832e-08
-2.93968e-08
1.44211e-07
3.45781e-08
7.42707e-08
2.24108e-08
-4.6e-08
1.53645e-07
8.85326e-08
7.07141e-08
1.21988e-07
-3.61981e-08
1.1956e-08
9.60301e-08
1.40574e-08
-3.62791e-08
1.72214e-08
-3.72669e-08
-1.12911e-08
1.17523e-08
-6.61026e-08
6.7116e-08
-2.00046e-07
5.86659e-08
-1.46862e-07
1.30628e-07
-7.74904e-08
2.66242e-07
-1.9821e-08
1.81746e-08
-2.03999e-08
1.44308e-07
1.42644e-07
9.67425e-08
-7.33163e-09
8.2179e-08
5.11033e-08
-2.13523e-08
2.47779e-08
2.70727e-08
-2.64962e-08
2.44952e-08
-4.13242e-08
-1.88845e-08
7.49657e-08
-1.49472e-07
1.26275e-07
-2.37052e-07
1.55273e-07
-2.06349e-07
2.9671e-07
2.18875e-08
1.71725e-07
-1.53541e-07
1.35131e-07
-4.47708e-08
1.00879e-07
5.9648e-08
8.92438e-08
1.27271e-09
1.65913e-08
7.12963e-08
1.95456e-08
1.49318e-08
1.96214e-08
-6.11378e-08
4.12353e-08
2.25314e-08
-7.29761e-08
1.34981e-07
-2.66695e-07
2.02419e-07
-2.88802e-07
2.75262e-07
3.27637e-08
2.90596e-07
-1.60832e-07
9.80711e-08
-2.26466e-07
4.4198e-07
1.14021e-07
9.97827e-08
2.06818e-08
5.40935e-08
4.74817e-08
1.43084e-08
5.0955e-08
1.01756e-08
-1.25816e-09
6.5704e-08
-6.98855e-08
-1.8999e-09
9.54549e-08
-1.96998e-07
2.5377e-07
-3.46735e-07
2.89111e-07
8.33833e-09
3.68268e-07
-1.18612e-07
1.59327e-07
-3.96353e-07
1.39409e-07
-8.31533e-08
5.57908e-07
8.98501e-08
4.53789e-08
5.50535e-08
1.95281e-08
2.46291e-08
4.91316e-08
2.71956e-08
6.77886e-08
2.18007e-08
-7.16972e-08
1.04055e-07
4.25764e-09
-1.06663e-07
2.05618e-07
-4.01508e-07
3.51954e-07
-3.4985e-09
4.43568e-07
-1.44462e-07
3.16843e-07
-5.74571e-07
1.44675e-07
-3.06619e-07
2.00045e-07
1.16167e-07
1.18535e-07
7.00532e-08
3.56435e-08
3.69917e-08
3.41782e-08
5.13632e-08
5.79411e-08
2.18983e-08
5.00162e-08
6.70849e-08
-9.9302e-08
1.04364e-08
7.64996e-08
-3.51448e-07
3.72049e-07
-2.90979e-08
4.95321e-07
-1.42668e-07
4.45998e-07
-6.27916e-07
3.03906e-07
-6.62607e-07
2.82687e-07
-2.46817e-07
6.31342e-07
-7.867e-08
4.45766e-08
5.46046e-08
4.62912e-08
6.8458e-08
2.28021e-08
7.48654e-08
1.46859e-07
-3.06736e-08
1.67735e-08
1.70121e-07
1.34413e-07
-6.27227e-08
3.39292e-07
2.79077e-08
5.38344e-07
5.17206e-08
5.74895e-07
-3.98372e-07
5.62441e-07
-4.37334e-07
5.98023e-07
-2.9811e-07
5.67684e-07
-3.55972e-08
1.59445e-07
6.72016e-08
6.02233e-08
7.14192e-08
3.18662e-08
7.7627e-08
1.3588e-07
-1.03892e-08
1.08086e-07
1.5569e-07
2.43002e-07
1.87955e-07
2.80881e-07
1.59675e-07
4.56389e-07
2.65475e-07
5.3373e-07
2.59748e-08
6.75018e-07
1.48711e-07
9.27599e-07
1.38099e-07
1.12118e-06
2.45944e-07
1.42325e-06
-4.38757e-09
2.31273e-08
2.09136e-08
1.50239e-08
2.43193e-08
4.17407e-08
1.0318e-08
4.84781e-08
5.02504e-08
6.96306e-08
1.34642e-07
1.02447e-07
9.51757e-08
1.67492e-07
1.54307e-07
2.1263e-07
1.20878e-07
3.19139e-07
2.47962e-07
5.17532e-07
3.90812e-07
8.43416e-07
7.09639e-07
1.00392e-06
9.78603e-07
)
;

boundaryField
{
    inlet
    {
        type            extrapolatedCalculated;
        value           nonuniform List<scalar> 
25
(
-4.38757e-09
2.31273e-08
2.09136e-08
1.50239e-08
2.43193e-08
4.17407e-08
1.0318e-08
4.84781e-08
5.02504e-08
6.96306e-08
1.34642e-07
1.02447e-07
9.51757e-08
1.67492e-07
1.54307e-07
2.1263e-07
1.20878e-07
3.19139e-07
2.47962e-07
5.17532e-07
3.90812e-07
8.43416e-07
7.09639e-07
1.00392e-06
9.78603e-07
)
;
    }
    outlet
    {
        type            extrapolatedCalculated;
        value           nonuniform List<scalar> 0();
    }
    walls
    {
        type            extrapolatedCalculated;
        value           nonuniform List<scalar> 0();
    }
    frontAndBack
    {
        type            empty;
    }
    procBoundary4to0
    {
        type            processor;
        value           nonuniform List<scalar> 
72
(
0.000101594
0.000138468
5.0677e-05
7.29832e-05
2.03035e-05
5.20071e-05
1.99613e-06
1.99345e-05
-2.24792e-07
2.25483e-05
-1.06974e-06
1.02351e-05
-4.67039e-07
1.29904e-05
-1.99779e-07
6.71258e-06
-4.94366e-07
6.70038e-06
-9.5168e-07
1.7716e-06
-4.11574e-07
4.92183e-06
4.92183e-06
3.30336e-06
-3.55641e-07
3.5254e-06
-6.55922e-07
1.90628e-06
-4.58617e-07
2.30979e-06
-3.70291e-07
1.31757e-06
-2.86471e-07
1.58515e-06
-2.38593e-07
8.99895e-07
-2.07657e-07
1.08463e-06
-1.64742e-07
6.13028e-07
-1.45231e-07
7.48095e-07
-1.05604e-07
4.24491e-07
-9.04408e-08
5.23813e-07
-5.749e-08
3.01344e-07
-4.57854e-08
3.70911e-07
-2.40492e-08
2.16683e-07
-2.18967e-08
2.56489e-07
-1.46766e-08
1.41596e-07
-1.55158e-09
1.36361e-07
2.13929e-08
9.21213e-08
4.5127e-08
1.20209e-07
5.59382e-08
1.1072e-07
5.95109e-08
1.21783e-07
6.3885e-08
1.05583e-07
-6.12159e-08
2.31367e-07
-1.41924e-07
3.5265e-08
)
;
    }
    procBoundary4to5
    {
        type            processor;
        value           nonuniform List<scalar> 
95
(
9.08873e-05
-1.47739e-05
9.22007e-05
7.5966e-05
7.5966e-05
5.78363e-05
7.07476e-05
7.07476e-05
5.74082e-05
0.00011332
0.00011332
8.28852e-05
8.28852e-05
1.27471e-05
7.52974e-05
7.52974e-05
6.95704e-05
6.95704e-05
3.45567e-05
1.53901e-05
1.53901e-05
1.08496e-05
5.8685e-06
5.8685e-06
6.81658e-06
5.49133e-06
5.49133e-06
6.62726e-06
4.25828e-06
2.90913e-05
2.90913e-05
3.22432e-05
-8.23751e-06
2.19556e-05
2.19556e-05
7.50818e-06
-5.56505e-07
1.5623e-05
1.5623e-05
1.75619e-05
-1.00721e-05
1.28018e-05
1.28018e-05
8.09072e-06
-1.21143e-06
5.73495e-06
9.39908e-09
5.72065e-06
5.72065e-06
3.12118e-06
7.27454e-06
5.43723e-06
-5.84058e-06
1.63338e-06
1.63338e-06
4.20161e-07
-2.8766e-06
-1.36154e-08
-2.88044e-06
5.19747e-07
5.19747e-07
2.26845e-07
-1.15225e-06
8.18303e-08
-1.00824e-06
4.65941e-07
-7.70106e-07
1.13142e-06
1.13142e-06
7.30084e-07
-3.54464e-07
4.27178e-07
-3.1383e-07
3.64904e-07
-1.88535e-07
1.76811e-07
-1.13716e-07
-1.13716e-07
-5.27363e-08
3.1567e-07
-4.03057e-08
3.11895e-07
1.42628e-08
2.30767e-07
1.31805e-07
1.16133e-07
4.34154e-07
-1.43237e-07
-1.43237e-07
1.24635e-07
4.86483e-07
1.80934e-07
8.22073e-07
7.41685e-07
2.14372e-06
)
;
    }
}


// ************************************************************************* //
