/*--------------------------------*- C++ -*----------------------------------*\
| =========                 |                                                 |
| \\      /  F ield         | OpenFOAM: The Open Source CFD Toolbox           |
|  \\    /   O peration     | Version:  2306                                  |
|   \\  /    A nd           | Website:  www.openfoam.com                      |
|    \\/     M anipulation  |                                                 |
\*---------------------------------------------------------------------------*/
FoamFile
{
    version     2.0;
    format      ascii;
    arch        "LSB;label=32;scalar=64";
    class       volScalarField;
    location    "175";
    object      magR;
}
// * * * * * * * * * * * * * * * * * * * * * * * * * * * * * * * * * * * * * //

dimensions      [0 2 -2 0 0 0 0];

internalField   nonuniform List<scalar> 
1340
(
0.00059131
0.000595794
0.000599238
0.000502492
0.000507019
0.000510811
0.00051328
0.000514315
0.000429874
0.000434302
0.000438207
0.000441173
0.000443105
0.000443856
0.000443085
0.000369759
0.000373973
0.000377817
0.000380974
0.000383386
0.000384938
0.000385312
0.000384416
0.000319594
0.000323544
0.000327236
0.000330427
0.000333101
0.000335124
0.00033625
0.000336379
0.000335452
0.000277397
0.000281066
0.000284539
0.00028766
0.000290432
0.000292702
0.000294285
0.000295104
0.000295074
0.000241669
0.000245045
0.000248278
0.000251277
0.000254033
0.000256416
0.000258269
0.000259534
0.000260118
0.000259932
0.000211232
0.000214317
0.000217312
0.000220147
0.000222821
0.00022522
0.000227213
0.000228736
0.000229732
0.00023009
0.000229773
0.000185162
0.000187968
0.000190732
0.000193379
0.000195938
0.000198286
0.00020032
0.000201991
0.000203246
0.000203989
0.000204186
0.000162721
0.000165277
0.000167807
0.000170271
0.000172684
0.000174947
0.000176959
0.000178694
0.000180096
0.000181092
0.000181627
0.000181686
0.000143326
0.000145648
0.000147961
0.000150238
0.000152499
0.000154644
0.0001566
0.000158338
0.00015981
0.000160956
0.000161738
0.00016212
0.000126503
0.000128606
0.000130718
0.000132813
0.000134915
0.00013693
0.000138803
0.000140504
0.000141994
0.000143223
0.00014416
0.000144762
0.000145008
0.000111856
0.000113764
0.000115683
0.000117608
0.000119552
0.000121433
0.000123205
0.000124844
0.000126315
0.000127573
0.000128596
0.000129353
0.000129807
9.90678e-05
0.000100794
0.000102539
0.000104302
0.00010609
0.000107839
0.000109501
0.000111062
0.000112487
0.000113743
0.000114807
0.000115658
0.000116254
0.000116592
8.78698e-05
8.9431e-05
9.10164e-05
9.26247e-05
9.42676e-05
9.58833e-05
9.74342e-05
9.89043e-05
0.000100268
0.000101493
0.000102566
0.000103462
0.000104156
0.000104632
7.804e-05
7.94504e-05
8.0891e-05
8.23555e-05
8.38607e-05
8.53488e-05
8.67875e-05
8.81646e-05
8.94552e-05
9.06345e-05
9.16899e-05
9.2602e-05
9.33511e-05
9.3918e-05
6.93926e-05
7.06661e-05
7.19716e-05
7.33047e-05
7.46802e-05
7.60472e-05
7.73752e-05
7.86584e-05
7.98702e-05
8.09928e-05
8.20139e-05
8.29202e-05
8.36931e-05
8.43143e-05
8.47806e-05
6.17685e-05
6.29184e-05
6.41001e-05
6.5312e-05
6.65673e-05
6.78187e-05
6.90424e-05
7.02307e-05
7.13625e-05
7.24209e-05
7.33974e-05
7.42809e-05
7.50555e-05
7.57093e-05
7.62302e-05
5.50342e-05
5.60726e-05
5.71409e-05
5.8242e-05
5.93864e-05
6.05291e-05
6.16536e-05
6.2749e-05
6.38009e-05
6.47917e-05
6.57168e-05
6.65647e-05
6.7326e-05
6.79889e-05
6.85406e-05
4.9077e-05
5.00126e-05
5.09793e-05
5.19781e-05
5.30186e-05
5.40615e-05
5.50908e-05
5.60979e-05
5.70702e-05
5.79933e-05
5.8862e-05
5.96695e-05
6.04058e-05
6.10632e-05
6.16271e-05
6.20972e-05
4.3798e-05
4.46406e-05
4.55151e-05
4.64207e-05
4.7365e-05
4.83152e-05
4.92552e-05
5.01793e-05
5.10748e-05
5.19309e-05
5.27424e-05
5.3504e-05
5.42071e-05
5.48468e-05
5.54107e-05
5.58947e-05
3.91136e-05
3.98725e-05
4.06627e-05
4.14829e-05
4.23397e-05
4.32034e-05
4.40606e-05
4.49064e-05
4.57288e-05
4.65191e-05
4.72731e-05
4.79862e-05
4.86518e-05
4.92655e-05
4.98196e-05
5.03053e-05
3.43346e-05
3.49516e-05
3.56349e-05
3.63484e-05
3.70904e-05
3.78668e-05
3.86509e-05
3.94311e-05
4.02037e-05
4.09567e-05
4.16838e-05
4.23813e-05
4.30453e-05
4.36711e-05
4.42543e-05
4.47897e-05
4.52667e-05
4.56869e-05
3.06939e-05
3.12489e-05
3.18641e-05
3.25082e-05
3.31789e-05
3.38817e-05
3.45929e-05
3.53023e-05
3.60061e-05
3.66946e-05
3.73617e-05
3.80044e-05
3.86197e-05
3.92038e-05
3.97533e-05
4.0264e-05
4.07286e-05
4.11436e-05
2.74531e-05
2.79521e-05
2.85056e-05
2.90866e-05
2.96923e-05
3.03281e-05
3.09723e-05
3.16165e-05
3.22569e-05
3.28855e-05
3.34954e-05
3.40858e-05
3.46538e-05
3.51962e-05
3.57106e-05
3.61931e-05
3.66389e-05
3.70422e-05
2.45653e-05
2.50138e-05
2.55114e-05
2.6035e-05
2.65819e-05
2.71562e-05
2.77393e-05
2.83234e-05
2.89056e-05
2.94778e-05
3.00349e-05
3.05757e-05
3.10982e-05
3.15994e-05
3.20778e-05
3.25304e-05
3.29541e-05
3.33407e-05
3.36926e-05
2.19898e-05
2.23925e-05
2.28397e-05
2.33112e-05
2.38047e-05
2.43233e-05
2.48507e-05
2.53801e-05
2.59085e-05
2.64283e-05
2.6936e-05
2.74303e-05
2.79091e-05
2.83705e-05
2.88135e-05
2.92354e-05
2.96333e-05
3.00024e-05
3.034e-05
1.96909e-05
2.00522e-05
2.04539e-05
2.08783e-05
2.13231e-05
2.17912e-05
2.22679e-05
2.27474e-05
2.32258e-05
2.3698e-05
2.416e-05
2.46107e-05
2.50485e-05
2.54718e-05
2.58801e-05
2.62711e-05
2.66423e-05
2.69899e-05
2.73115e-05
1.76372e-05
1.79613e-05
1.83219e-05
1.87033e-05
1.91043e-05
1.95265e-05
1.99571e-05
2.03905e-05
2.08241e-05
2.12524e-05
2.16722e-05
2.20822e-05
2.24815e-05
2.28688e-05
2.32439e-05
2.36044e-05
2.39487e-05
2.42735e-05
2.45766e-05
1.58015e-05
1.6092e-05
1.64153e-05
1.67582e-05
1.71193e-05
1.75e-05
1.78887e-05
1.82805e-05
1.8673e-05
1.9061e-05
1.94416e-05
1.98144e-05
2.01779e-05
2.05315e-05
2.08744e-05
2.12056e-05
2.15233e-05
2.18251e-05
2.21076e-05
1.41597e-05
1.44198e-05
1.47094e-05
1.50176e-05
1.53425e-05
1.56857e-05
1.60363e-05
1.63904e-05
1.67453e-05
1.70966e-05
1.74417e-05
1.778e-05
1.81104e-05
1.84323e-05
1.87452e-05
1.90484e-05
1.93402e-05
1.96189e-05
1.98804e-05
2.01261e-05
1.26905e-05
1.2923e-05
1.31823e-05
1.34591e-05
1.37514e-05
1.40606e-05
1.43768e-05
1.46968e-05
1.50177e-05
1.53355e-05
1.56481e-05
1.59546e-05
1.62544e-05
1.65469e-05
1.68318e-05
1.71084e-05
1.73754e-05
1.76312e-05
1.78732e-05
1.81e-05
1.13748e-05
1.15826e-05
1.18146e-05
1.20631e-05
1.2326e-05
1.26044e-05
1.28898e-05
1.31786e-05
1.34686e-05
1.3756e-05
1.40389e-05
1.43165e-05
1.45883e-05
1.48537e-05
1.51126e-05
1.53641e-05
1.56075e-05
1.58414e-05
1.60636e-05
1.62721e-05
1.01962e-05
1.03816e-05
1.05891e-05
1.08121e-05
1.10486e-05
1.12993e-05
1.15566e-05
1.18175e-05
1.20795e-05
1.23394e-05
1.25954e-05
1.28467e-05
1.30926e-05
1.33331e-05
1.35679e-05
1.37962e-05
1.40175e-05
1.42305e-05
1.44331e-05
1.4624e-05
9.13984e-06
9.30513e-06
9.49064e-06
9.6906e-06
9.90332e-06
1.01291e-05
1.03612e-05
1.05968e-05
1.08336e-05
1.10686e-05
1.13001e-05
1.15274e-05
1.17501e-05
1.19676e-05
1.21802e-05
1.23871e-05
1.25878e-05
1.2781e-05
1.29654e-05
1.31387e-05
8.1927e-06
8.33984e-06
8.50558e-06
8.68492e-06
8.87618e-06
9.07952e-06
9.28907e-06
9.50186e-06
9.716e-06
9.92848e-06
1.01379e-05
1.03436e-05
1.05449e-05
1.07417e-05
1.09339e-05
1.1121e-05
1.13025e-05
1.14774e-05
1.16447e-05
1.18014e-05
1.1948e-05
7.34311e-06
7.474e-06
7.62195e-06
7.78282e-06
7.9548e-06
8.13809e-06
8.32725e-06
8.51962e-06
8.71338e-06
8.90565e-06
9.09509e-06
9.28113e-06
9.46312e-06
9.641e-06
9.81464e-06
9.98366e-06
1.01476e-05
1.03055e-05
1.04564e-05
1.05984e-05
1.07301e-05
6.5808e-06
6.6971e-06
6.82914e-06
6.9734e-06
7.12813e-06
7.2934e-06
7.46432e-06
7.63845e-06
7.81382e-06
7.98786e-06
8.15937e-06
8.32766e-06
8.49225e-06
8.65299e-06
8.80979e-06
8.96229e-06
9.11008e-06
9.25246e-06
9.3883e-06
9.5161e-06
9.63442e-06
5.89655e-06
5.99981e-06
6.11759e-06
6.24695e-06
6.38625e-06
6.53542e-06
6.69002e-06
6.84773e-06
7.00664e-06
7.16441e-06
7.31976e-06
7.47218e-06
7.62106e-06
7.76634e-06
7.90784e-06
8.04536e-06
8.17846e-06
8.30646e-06
8.42849e-06
8.54312e-06
8.649e-06
5.28221e-06
5.37379e-06
5.47879e-06
5.59484e-06
5.72036e-06
5.85512e-06
5.99519e-06
6.1382e-06
6.28242e-06
6.4256e-06
6.56652e-06
6.7046e-06
6.83938e-06
6.97065e-06
7.09839e-06
7.22234e-06
7.3421e-06
7.45707e-06
7.56645e-06
7.66907e-06
7.76321e-06
4.73048e-06
4.81161e-06
4.9052e-06
5.00939e-06
5.12254e-06
5.24451e-06
5.37158e-06
5.50154e-06
5.63267e-06
5.76276e-06
5.89072e-06
6.01597e-06
6.13806e-06
6.25683e-06
6.37219e-06
6.48388e-06
6.59158e-06
6.69479e-06
6.7927e-06
6.8844e-06
6.96804e-06
7.04375e-06
4.23489e-06
4.30666e-06
4.39009e-06
4.48366e-06
4.58581e-06
4.69638e-06
4.81191e-06
4.93023e-06
5.04966e-06
5.16807e-06
5.28447e-06
5.39825e-06
5.509e-06
5.61653e-06
5.72076e-06
5.82144e-06
5.91834e-06
6.01091e-06
6.09847e-06
6.18018e-06
6.25475e-06
6.32128e-06
3.78961e-06
3.85305e-06
3.9274e-06
4.0115e-06
4.10391e-06
4.20434e-06
4.30961e-06
4.41757e-06
4.52655e-06
4.6346e-06
4.74069e-06
4.84424e-06
4.94483e-06
5.0423e-06
5.13654e-06
5.22738e-06
5.31455e-06
5.39755e-06
5.47579e-06
5.54856e-06
5.61466e-06
5.67322e-06
3.38949e-06
3.44548e-06
3.51173e-06
3.58743e-06
3.67118e-06
3.76262e-06
3.8588e-06
3.95755e-06
4.05727e-06
4.15608e-06
4.25296e-06
4.34739e-06
4.43893e-06
4.52741e-06
4.61274e-06
4.69474e-06
4.77317e-06
4.84761e-06
4.91755e-06
4.98226e-06
5.04072e-06
5.09222e-06
3.02987e-06
3.07923e-06
3.13829e-06
3.20653e-06
3.2826e-06
3.36609e-06
3.4542e-06
3.54479e-06
3.63628e-06
3.72686e-06
3.81556e-06
3.90187e-06
3.98532e-06
4.06578e-06
4.14316e-06
4.21728e-06
4.28792e-06
4.35475e-06
4.41724e-06
4.47474e-06
4.5264e-06
4.5716e-06
2.70663e-06
2.75007e-06
2.80273e-06
2.86437e-06
2.93365e-06
3.01014e-06
3.0911e-06
3.17446e-06
3.25864e-06
3.34194e-06
3.42337e-06
3.50242e-06
3.57867e-06
3.65198e-06
3.72228e-06
3.78939e-06
3.85309e-06
3.9131e-06
3.96893e-06
4.02005e-06
4.06568e-06
4.10528e-06
2.41604e-06
2.45423e-06
2.50121e-06
2.55702e-06
2.62034e-06
2.69063e-06
2.76527e-06
2.84222e-06
2.91994e-06
2.99674e-06
3.0717e-06
3.1443e-06
3.21415e-06
3.28111e-06
3.34509e-06
3.40595e-06
3.46349e-06
3.51745e-06
3.5674e-06
3.61286e-06
3.65317e-06
3.68769e-06
2.1548e-06
2.18831e-06
2.23025e-06
2.28094e-06
2.33902e-06
2.40383e-06
2.4729e-06
2.54418e-06
2.61615e-06
2.68719e-06
2.75639e-06
2.82327e-06
2.88744e-06
2.94873e-06
3.0071e-06
3.06242e-06
3.11454e-06
3.16316e-06
3.20794e-06
3.24842e-06
3.28405e-06
3.31418e-06
3.33857e-06
1.91992e-06
1.94927e-06
1.98677e-06
2.03298e-06
2.08643e-06
2.14642e-06
2.21058e-06
2.27683e-06
2.34371e-06
2.40962e-06
2.47372e-06
2.53553e-06
2.59463e-06
2.65089e-06
2.7043e-06
2.75475e-06
2.80207e-06
2.84601e-06
2.88624e-06
2.92235e-06
2.95386e-06
2.98034e-06
3.00126e-06
1.70875e-06
1.7344e-06
1.76799e-06
1.81029e-06
1.85967e-06
1.91542e-06
1.97525e-06
2.03702e-06
2.09939e-06
2.16076e-06
2.22033e-06
2.27763e-06
2.33222e-06
2.38403e-06
2.43305e-06
2.47921e-06
2.52231e-06
2.56211e-06
2.59831e-06
2.63057e-06
2.65844e-06
2.68161e-06
2.6996e-06
1.51889e-06
1.54127e-06
1.57143e-06
1.61033e-06
1.65613e-06
1.70815e-06
1.76415e-06
1.82193e-06
1.88029e-06
1.93759e-06
1.99315e-06
2.04648e-06
2.09709e-06
2.14491e-06
2.19005e-06
2.23239e-06
2.27169e-06
2.30773e-06
2.34027e-06
2.36901e-06
2.39362e-06
2.41383e-06
2.42926e-06
1.34822e-06
1.36769e-06
1.39485e-06
1.43081e-06
1.47345e-06
1.52222e-06
1.57479e-06
1.629e-06
1.68381e-06
1.73743e-06
1.78945e-06
1.83932e-06
1.88635e-06
1.93057e-06
1.97216e-06
2.01095e-06
2.04667e-06
2.07915e-06
2.10824e-06
2.13373e-06
2.15535e-06
2.17288e-06
2.18607e-06
1.1948e-06
1.21172e-06
1.23627e-06
1.26968e-06
1.30952e-06
1.35548e-06
1.40494e-06
1.45596e-06
1.50762e-06
1.55784e-06
1.60686e-06
1.65371e-06
1.69735e-06
1.73809e-06
1.77625e-06
1.81159e-06
1.84386e-06
1.87297e-06
1.89888e-06
1.92142e-06
1.94035e-06
1.95553e-06
1.96675e-06
1.05696e-06
1.07165e-06
1.09394e-06
1.12512e-06
1.16247e-06
1.20599e-06
1.25251e-06
1.30076e-06
1.34954e-06
1.39657e-06
1.44333e-06
1.48751e-06
1.52754e-06
1.56461e-06
1.59942e-06
1.63153e-06
1.66064e-06
1.68676e-06
1.70992e-06
1.72996e-06
1.74665e-06
1.75984e-06
1.76937e-06
9.33215e-07
9.45981e-07
9.66313e-07
9.95524e-07
1.03064e-06
1.072e-06
1.1156e-06
1.16155e-06
1.20748e-06
1.25138e-06
1.29666e-06
1.3383e-06
1.37436e-06
1.40776e-06
1.43964e-06
1.4691e-06
1.49564e-06
1.51941e-06
1.54042e-06
1.55845e-06
1.57328e-06
1.58477e-06
1.5928e-06
8.22216e-07
8.3331e-07
8.5197e-07
8.79435e-07
9.12637e-07
9.52031e-07
9.92632e-07
1.03694e-06
1.07944e-06
1.12022e-06
1.16486e-06
1.20356e-06
1.23546e-06
1.26599e-06
1.29599e-06
1.3236e-06
1.34824e-06
1.37023e-06
1.38958e-06
1.406e-06
1.41926e-06
1.4293e-06
1.43603e-06
1.43982e-06
7.22847e-07
7.32458e-07
7.49724e-07
7.75704e-07
8.07252e-07
8.44786e-07
8.82496e-07
9.25953e-07
9.62858e-07
1.00227e-06
1.04844e-06
1.08258e-06
1.10916e-06
1.13808e-06
1.16756e-06
1.19386e-06
1.21684e-06
1.2373e-06
1.25522e-06
1.27022e-06
1.28208e-06
1.29083e-06
1.29652e-06
1.29939e-06
6.35451e-07
6.43709e-07
6.59746e-07
6.84229e-07
7.1405e-07
7.49324e-07
7.84168e-07
8.26673e-07
8.5478e-07
8.96252e-07
9.46758e-07
9.74767e-07
9.94085e-07
1.0228e-06
1.05346e-06
1.07905e-06
1.10053e-06
1.11967e-06
1.13637e-06
1.15008e-06
1.16066e-06
1.16827e-06
1.17304e-06
1.1754e-06
5.65098e-07
5.7211e-07
5.86694e-07
6.08827e-07
6.35948e-07
6.67048e-07
6.9767e-07
7.35772e-07
7.53103e-07
7.96555e-07
8.49814e-07
8.72765e-07
8.88496e-07
9.20183e-07
9.54323e-07
9.81258e-07
1.00308e-06
1.02244e-06
1.0393e-06
1.053e-06
1.06347e-06
1.07082e-06
1.07533e-06
1.07744e-06
5.09531e-07
5.15398e-07
5.28082e-07
5.47144e-07
5.70533e-07
5.95856e-07
6.2125e-07
6.5085e-07
6.60875e-07
6.98362e-07
7.50418e-07
7.72101e-07
7.91078e-07
8.26785e-07
8.64397e-07
8.94168e-07
9.18182e-07
9.39263e-07
9.57559e-07
9.72414e-07
9.83699e-07
9.91535e-07
9.9631e-07
9.98317e-07
4.58831e-07
4.63739e-07
4.74599e-07
4.90834e-07
5.10594e-07
5.3062e-07
5.51374e-07
5.72524e-07
5.78186e-07
6.06037e-07
6.54136e-07
6.76317e-07
7.01192e-07
7.39421e-07
7.78816e-07
8.1112e-07
8.37517e-07
8.60358e-07
8.80018e-07
8.95934e-07
9.07913e-07
9.16157e-07
9.21133e-07
9.23327e-07
4.09249e-07
4.13371e-07
4.22631e-07
4.36382e-07
4.52828e-07
4.68367e-07
4.85259e-07
4.9911e-07
5.02046e-07
5.21929e-07
5.66048e-07
5.88028e-07
6.18794e-07
6.58917e-07
6.98971e-07
7.32867e-07
7.61089e-07
7.85238e-07
8.05793e-07
8.22431e-07
8.34918e-07
8.43461e-07
8.4846e-07
8.50369e-07
3.62125e-07
3.65599e-07
3.7341e-07
3.84914e-07
3.98213e-07
4.09952e-07
4.23257e-07
4.30822e-07
4.31897e-07
4.45004e-07
4.85312e-07
5.06333e-07
5.42568e-07
5.84472e-07
6.24567e-07
6.59241e-07
6.88765e-07
7.13903e-07
7.35053e-07
7.52084e-07
7.64843e-07
7.73608e-07
7.78901e-07
7.81334e-07
3.17706e-07
3.20625e-07
3.27055e-07
3.36419e-07
3.46663e-07
3.55235e-07
3.64984e-07
3.67415e-07
3.67165e-07
3.74542e-07
4.11221e-07
4.31126e-07
4.71959e-07
5.15408e-07
5.55322e-07
5.90305e-07
6.20745e-07
6.46706e-07
6.68354e-07
6.8558e-07
6.98172e-07
7.06209e-07
7.09992e-07
7.10238e-07
2.76578e-07
2.78974e-07
2.83925e-07
2.90991e-07
2.98111e-07
3.03937e-07
3.09951e-07
3.08761e-07
3.07381e-07
3.10079e-07
3.42964e-07
3.62118e-07
4.06498e-07
4.51322e-07
4.91165e-07
5.26284e-07
5.57343e-07
5.83939e-07
6.06087e-07
6.23906e-07
6.37518e-07
6.47292e-07
6.53928e-07
6.58145e-07
2.39156e-07
2.41049e-07
2.44393e-07
2.4881e-07
2.52559e-07
2.55538e-07
2.57337e-07
2.54332e-07
2.51411e-07
2.51136e-07
2.80305e-07
2.99456e-07
3.46168e-07
3.92205e-07
4.32228e-07
4.67613e-07
4.99314e-07
5.26283e-07
5.47845e-07
5.6388e-07
5.74349e-07
5.79195e-07
5.78657e-07
5.74118e-07
5.67948e-07
2.0542e-07
2.0689e-07
2.08609e-07
2.10148e-07
2.10312e-07
2.09852e-07
2.0679e-07
2.03458e-07
1.97195e-07
1.97593e-07
2.23921e-07
2.43556e-07
2.91558e-07
3.38725e-07
3.78835e-07
4.14374e-07
4.47411e-07
4.77019e-07
5.02274e-07
5.23156e-07
5.40221e-07
5.54644e-07
5.67913e-07
5.80058e-07
5.88846e-07
1.75575e-07
1.76503e-07
1.76182e-07
1.74375e-07
1.70813e-07
1.66568e-07
1.59389e-07
1.57061e-07
1.454e-07
1.54228e-07
1.76253e-07
1.94813e-07
2.43351e-07
2.92063e-07
3.32356e-07
3.66788e-07
3.97749e-07
4.24438e-07
4.45939e-07
4.61859e-07
4.71518e-07
4.74372e-07
4.71211e-07
4.66144e-07
4.64587e-07
1.51904e-07
1.51557e-07
1.47467e-07
1.40317e-07
1.3168e-07
1.2338e-07
1.15108e-07
1.16247e-07
1.0294e-07
1.30408e-07
1.41392e-07
1.54484e-07
2.00571e-07
2.49993e-07
2.94317e-07
3.37203e-07
3.80097e-07
4.21303e-07
4.59902e-07
4.96758e-07
5.33964e-07
5.74207e-07
6.18042e-07
6.59211e-07
6.88757e-07
1.37894e-07
1.35626e-07
1.26258e-07
1.11229e-07
9.39769e-08
7.83001e-08
6.96889e-08
7.63512e-08
7.39992e-08
1.18064e-07
1.20786e-07
1.31309e-07
1.69071e-07
2.11292e-07
2.5355e-07
3.01712e-07
3.5618e-07
4.13744e-07
4.71872e-07
5.28792e-07
5.82486e-07
6.31176e-07
6.74199e-07
7.10219e-07
7.39997e-07
1.31463e-07
1.27926e-07
1.15074e-07
9.41612e-08
6.81083e-08
4.01225e-08
2.5573e-08
4.2647e-08
6.27802e-08
9.7465e-08
8.267e-08
1.30124e-07
2.07021e-07
2.90898e-07
3.78547e-07
4.6974e-07
5.6442e-07
6.61529e-07
7.58835e-07
8.53607e-07
9.41516e-07
1.01678e-06
1.07227e-06
1.10483e-06
1.12697e-06
)
;

boundaryField
{
    inlet
    {
        type            calculated;
        value           nonuniform List<scalar> 
25
(
1.322e-07
1.28394e-07
1.15128e-07
9.34222e-08
6.57239e-08
3.48195e-08
2.1585e-08
4.83536e-08
7.90842e-08
7.42154e-08
1.54642e-07
2.9351e-07
5.01976e-07
7.5463e-07
1.04299e-06
1.36342e-06
1.71427e-06
2.09237e-06
2.49305e-06
2.90958e-06
3.33232e-06
3.74614e-06
4.13269e-06
4.47126e-06
4.75688e-06
)
;
    }
    outlet
    {
        type            calculated;
        value           nonuniform List<scalar> 0();
    }
    walls
    {
        type            calculated;
        value           nonuniform List<scalar> 0();
    }
    frontAndBack
    {
        type            empty;
    }
    procBoundary4to0
    {
        type            processor;
        value           nonuniform List<scalar> 
72
(
0.000586012
0.00049749
0.000425192
0.000365438
0.000315645
0.000273815
0.00023842
0.000208288
0.000182501
0.000160326
0.00014117
0.00012456
0.000110107
9.74909e-05
8.64493e-05
7.67606e-05
6.82384e-05
6.07283e-05
5.40984e-05
4.82337e-05
4.30379e-05
3.8429e-05
3.8429e-05
3.37425e-05
3.01631e-05
2.69773e-05
2.41389e-05
2.16076e-05
1.93487e-05
1.73314e-05
1.55283e-05
1.39159e-05
1.2473e-05
1.11813e-05
1.00241e-05
8.98704e-06
8.05724e-06
7.22328e-06
6.47499e-06
5.80333e-06
5.20025e-06
4.65859e-06
4.17197e-06
3.73473e-06
3.34175e-06
2.98849e-06
2.67089e-06
2.3853e-06
2.12848e-06
1.89751e-06
1.68979e-06
1.50298e-06
1.33496e-06
1.18387e-06
1.04807e-06
9.26136e-07
8.16697e-07
7.18638e-07
6.32225e-07
5.62403e-07
5.07165e-07
4.56809e-07
4.07548e-07
3.60705e-07
3.16475e-07
2.75405e-07
2.37898e-07
2.03932e-07
1.73604e-07
1.49097e-07
1.34193e-07
1.27378e-07
)
;
    }
    procBoundary4to5
    {
        type            processor;
        value           nonuniform List<scalar> 
95
(
0.000700641
0.000704615
0.000707033
0.000600845
0.000600845
0.000600452
0.0005137
0.0005137
0.000511134
0.000440629
0.000440629
0.000382113
0.000382113
0.000333226
0.00029404
0.00029404
0.000258842
0.000258842
0.000228648
0.000203745
0.000203745
0.000181129
0.000162033
0.000162033
0.0001448
0.00012992
0.00012992
0.000116586
0.000104839
9.42739e-05
9.42739e-05
8.50285e-05
7.6584e-05
6.89628e-05
6.89628e-05
6.24264e-05
5.62742e-05
5.071e-05
5.071e-05
4.60165e-05
4.14932e-05
3.73947e-05
3.73947e-05
3.39828e-05
3.06341e-05
2.75963e-05
2.48488e-05
2.23668e-05
2.23668e-05
2.03407e-05
1.83051e-05
1.64616e-05
1.47982e-05
1.32986e-05
1.32986e-05
1.20761e-05
1.08483e-05
9.74034e-06
8.74365e-06
7.84787e-06
7.84787e-06
7.10623e-06
6.37738e-06
5.7222e-06
5.13495e-06
4.60874e-06
4.13751e-06
3.71572e-06
3.71572e-06
3.35602e-06
3.01638e-06
2.71226e-06
2.43985e-06
2.1949e-06
1.97402e-06
1.77533e-06
1.59761e-06
1.59761e-06
1.4412e-06
1.30012e-06
1.1759e-06
1.07769e-06
9.98226e-07
9.23477e-07
8.50044e-07
7.81764e-07
7.08122e-07
6.6025e-07
6.6025e-07
5.61856e-07
5.93461e-07
4.67301e-07
7.06095e-07
7.69094e-07
1.12929e-06
)
;
    }
}


// ************************************************************************* //
