/*--------------------------------*- C++ -*----------------------------------*\
| =========                 |                                                 |
| \\      /  F ield         | OpenFOAM: The Open Source CFD Toolbox           |
|  \\    /   O peration     | Version:  2306                                  |
|   \\  /    A nd           | Website:  www.openfoam.com                      |
|    \\/     M anipulation  |                                                 |
\*---------------------------------------------------------------------------*/
FoamFile
{
    version     2.0;
    format      ascii;
    arch        "LSB;label=32;scalar=64";
    class       volScalarField;
    location    "175";
    object      p;
}
// * * * * * * * * * * * * * * * * * * * * * * * * * * * * * * * * * * * * * //

dimensions      [0 2 -2 0 0 0 0];

internalField   nonuniform List<scalar> 
1340
(
61.8569
36.3456
8.1457
59.2644
35.6296
9.54039
-17.5613
-46.8289
56.3315
34.3466
10.1131
-14.9733
-42.0583
-70.3668
-99.2393
53.2133
32.6903
10.1015
-13.2024
-38.3502
-64.6048
-91.3491
-118.655
50.0199
30.8048
9.68484
-12.0291
-35.4453
-59.861
-84.6911
-110.039
-135.528
46.8275
28.7886
8.99149
-11.2967
-33.1581
-55.9161
-79.0209
-102.593
-126.286
43.6875
26.7145
8.11511
-10.8868
-31.341
-52.5994
-74.142
-96.0985
-118.151
-140.136
40.6338
24.6315
7.12493
-10.7102
-29.8854
-49.7827
-69.9035
-90.3879
-110.942
-131.423
-151.818
37.6893
22.5796
6.07034
-10.6975
-28.7074
-47.3611
-66.1865
-85.3247
-104.505
-123.601
-142.62
34.87
20.5808
4.99176
-10.7999
-27.7399
-45.255
-62.8922
-80.7991
-98.7174
-116.538
-134.282
-151.816
32.1849
18.6547
3.91463
-10.9768
-26.933
-43.4
-59.9477
-76.7219
-93.4798
-110.124
-126.686
-143.052
29.6382
16.8131
2.86098
-11.199
-26.2461
-41.7469
-57.2899
-73.0208
-88.7085
-104.267
-119.736
-135.016
-150.057
27.2318
15.0636
1.84473
-11.4436
-25.6482
-40.2542
-54.8695
-69.6345
-84.3344
-98.8897
-113.347
-127.616
-141.663
24.9648
13.4108
0.877174
-11.6948
-25.1149
-38.8908
-52.6454
-66.5178
-80.3017
-93.9279
-107.445
-120.775
-133.893
-146.754
22.8351
11.8572
-0.0351745
-11.938
-24.6272
-37.6302
-50.5857
-63.6284
-76.5645
-89.3291
-101.974
-114.429
-126.68
-138.691
20.8398
10.4029
-0.887474
-12.1638
-24.1703
-36.4516
-48.6623
-60.9343
-73.0821
-85.046
-96.8798
-108.522
-119.963
-131.179
18.9746
9.04735
-1.67738
-12.366
-23.7328
-35.3392
-46.8551
-58.4081
-69.8217
-81.0416
-92.1206
-103.005
-113.692
-124.161
-134.354
17.2345
7.78854
-2.40309
-12.5393
-23.3056
-34.2797
-45.1454
-56.0272
-66.7558
-77.2825
-87.6591
-97.8378
-107.82
-117.593
-127.103
15.6149
6.62361
-3.06428
-12.6808
-22.8819
-33.2622
-43.5198
-53.7731
-63.8623
-73.7422
-83.4644
-92.9847
-102.309
-111.429
-120.301
14.1103
5.54957
-3.66173
-12.7883
-22.4575
-32.279
-41.9654
-51.6303
-61.1217
-70.3966
-79.5081
-88.4148
-97.1249
-105.635
-113.907
-121.891
12.7153
4.56332
-4.19722
-12.8608
-22.0276
-31.3232
-40.4726
-49.5852
-58.5163
-67.2264
-75.7667
-84.1004
-92.2372
-100.177
-107.887
-115.325
11.4246
3.66036
-4.67224
-12.8981
-21.5905
-30.39
-39.034
-47.628
-56.0339
-64.2146
-72.2211
-80.0193
-87.6201
-95.0265
-102.21
-109.136
16.6583
10.2326
2.83706
-5.08952
-12.9009
-21.1444
-29.4755
-37.6438
-45.7499
-53.6625
-61.3476
-68.8541
-76.1513
-83.2512
-90.1588
-96.8508
-103.295
-109.441
15.2599
9.13427
2.08925
-5.45136
-12.8697
-20.6884
-28.5766
-36.2957
-43.9427
-51.3917
-58.612
-65.6504
-72.4791
-79.111
-85.5523
-91.7833
-97.7766
-103.487
13.9641
8.12431
1.41314
-5.76065
-12.806
-20.222
-27.6912
-34.9867
-42.2003
-49.2135
-55.9973
-62.5968
-68.9868
-75.181
-81.1866
-86.987
-92.5579
-97.8611
12.7652
7.19765
0.80446
-6.0201
-12.7113
-19.7455
-26.8181
-33.7129
-40.5185
-47.1212
-53.4948
-59.683
-65.6623
-71.4466
-77.0447
-82.4419
-87.6182
-92.5384
-97.1508
11.6571
6.34937
0.25941
-6.23278
-12.5874
-19.2591
-25.9558
-32.472
-38.8923
-45.1084
-51.0966
-56.8986
-62.4929
-67.8942
-73.1111
-78.1319
-82.9383
-87.5004
-91.7712
10.6344
5.57473
-0.226173
-6.40157
-12.4361
-18.7638
-25.1042
-31.2621
-37.3186
-43.1705
-48.7957
-54.2354
-59.4688
-64.5112
-69.3721
-74.0407
-78.5021
-82.7289
-86.6798
9.69195
4.86912
-0.655866
-6.5294
-12.2596
-18.2602
-24.2628
-30.0816
-35.794
-41.3026
-46.5868
-51.6859
-56.5812
-61.2878
-65.8154
-70.1552
-74.2939
-78.2079
-81.8594
8.82473
4.22797
-1.03355
-6.61908
-12.0598
-17.7494
-23.4315
-28.9291
-34.3167
-39.5014
-44.4645
-49.2437
-53.8219
-58.2142
-62.4304
-66.4627
-70.3006
-73.9222
-77.2946
8.02783
3.64719
-1.36274
-6.67371
-11.8387
-17.2327
-22.6105
-27.8041
-32.8843
-37.7635
-42.4241
-46.9027
-51.1837
-55.2817
-59.2066
-62.9524
-66.5093
-69.8588
-72.9703
-75.8072
7.29678
3.12266
-1.64701
-6.6959
-11.5985
-16.7114
-21.8002
-26.7057
-31.4953
-36.0861
-40.4622
-44.6584
-48.6603
-52.4828
-56.1357
-59.6136
-62.909
-66.0045
-68.8735
-71.4825
6.62708
2.65051
-1.88952
-6.6885
-11.341
-16.1866
-21.0009
-25.6336
-30.1484
-34.467
-38.575
-42.5057
-46.2461
-49.8106
-53.2092
-56.4376
-59.4887
-62.3482
-64.9915
-67.3888
6.01479
2.22697
-2.09356
-6.65402
-11.0683
-15.6597
-20.2135
-24.5874
-28.8422
-32.9039
-36.7593
-40.4406
-43.9357
-47.2588
-50.4199
-53.4153
-56.2396
-58.8794
-61.3131
-63.5138
5.45583
1.8486
-2.26214
-6.595
-10.7824
-15.1318
-19.4382
-23.5668
-27.5757
-31.395
-35.0126
-38.4594
-41.7245
-44.8217
-47.7609
-50.5393
-53.1522
-55.5881
-57.8274
-59.846
4.94655
1.51206
-2.39828
-6.51375
-10.4851
-14.6041
-18.6756
-22.5717
-26.3482
-29.9385
-33.332
-36.5585
-39.608
-42.4938
-45.2262
-47.8021
-50.2188
-52.4651
-54.5244
-56.3744
-57.9881
4.48335
1.21412
-2.50454
-6.41265
-10.178
-14.0779
-17.9262
-21.6021
-25.1585
-28.5327
-31.7154
-34.7348
-37.5821
-40.2704
-42.8094
-45.1973
-47.4313
-49.5022
-51.3944
-53.0889
-54.5611
4.06297
0.951826
-2.58374
-6.29377
-9.86291
-13.5545
-17.1907
-20.6578
-24.006
-27.1764
-30.1605
-32.9854
-35.6433
-38.1468
-40.5055
-42.718
-44.7826
-46.6907
-48.429
-49.98
-51.3219
3.6822
0.722297
-2.63814
-6.15925
-9.5414
-13.0346
-16.4697
-19.7389
-22.8902
-25.8681
-28.6652
-31.3074
-33.7878
-36.1186
-38.3091
-40.3589
-42.2659
-44.0236
-45.6195
-47.0383
-48.2606
3.33812
0.522877
-2.67023
-6.01087
-9.21492
-12.5195
-15.7634
-18.8451
-21.8102
-24.6065
-27.2276
-29.6983
-32.0123
-34.1818
-36.2157
-38.1137
-39.875
-41.4933
-42.958
-44.2552
-45.368
3.02783
0.351036
-2.68203
-5.85061
-8.88491
-12.01
-15.0723
-17.9764
-20.7654
-23.3905
-25.8459
-28.1554
-30.3137
-32.3324
-34.2202
-35.9775
-37.6036
-39.0932
-40.4368
-41.6225
-42.635
-43.4588
2.74879
0.204398
-2.67574
-5.67999
-8.55263
-11.5069
-14.3969
-17.1326
-19.7552
-22.2187
-24.5182
-26.6765
-28.6889
-30.5666
-32.3186
-33.945
-35.4459
-36.8166
-38.0489
-39.1321
-40.053
-40.7979
2.49842
0.0807599
-2.65323
-5.50071
-8.21929
-11.0111
-13.7375
-16.3137
-18.7788
-21.0898
-23.2427
-25.259
-27.1349
-28.8811
-30.5064
-32.0113
-33.3962
-34.6573
-35.7871
-36.7765
-37.6137
-38.287
2.27445
-0.0219907
-2.6163
-5.31412
-7.88601
-10.5234
-13.0944
-15.5194
-17.8357
-20.0029
-22.0177
-23.9007
-25.6487
-27.2723
-28.7797
-30.1718
-31.4494
-32.6092
-33.645
-34.5483
-35.3093
-35.9177
2.07465
-0.105817
-2.5666
-5.12172
-7.5538
-10.0442
-12.4678
-14.7496
-16.9252
-18.9566
-20.8415
-22.5994
-24.2278
-25.7367
-27.1343
-28.4219
-29.6002
-30.6667
-31.6159
-32.4407
-33.1322
-33.6819
1.89701
-0.172525
-2.50576
-4.92465
-7.2236
-9.57419
-11.8577
-14.0038
-16.0464
-17.9499
-19.7125
-21.353
-22.8693
-24.2713
-25.5667
-26.7571
-27.8437
-28.8242
-29.694
-30.4469
-31.0753
-31.5718
1.73956
-0.223843
-2.43517
-4.72412
-6.89622
-9.11387
-11.2644
-13.282
-15.1986
-16.9814
-18.6289
-20.1593
-21.5707
-22.8728
-24.0731
-25.1735
-26.1751
-27.0764
-27.8732
-28.5605
-29.1314
-29.58
1.60056
-0.261367
-2.35626
-4.52118
-6.57249
-8.66368
-10.688
-12.5836
-14.3813
-16.0501
-17.5893
-19.0161
-20.3292
-21.538
-22.6499
-23.6666
-24.5898
-25.418
-26.148
-26.7753
-27.2941
-27.6994
-27.9904
1.47828
-0.286585
-2.27021
-4.3169
-6.25312
-8.22398
-10.1284
-11.9085
-13.5935
-15.1547
-16.5918
-17.9214
-19.1425
-20.2642
-21.2936
-22.2328
-23.0832
-23.8442
-24.5128
-25.0853
-25.5568
-25.9231
-26.184
1.3712
-0.300891
-2.17826
-4.11214
-5.93874
-7.79515
-9.58559
-11.2562
-12.8346
-14.2941
-15.6351
-16.8732
-18.008
-19.0483
-20.0009
-20.8679
-21.6512
-22.3501
-22.9624
-23.4849
-23.9134
-24.2445
-24.4786
1.27781
-0.305609
-2.08147
-3.90781
-5.62998
-7.37745
-9.05963
-10.6263
-12.1037
-13.4671
-14.7174
-15.8695
-16.9233
-17.8875
-18.7685
-19.5685
-20.2894
-20.9312
-21.4917
-21.9685
-22.3579
-22.6574
-22.8675
1.19683
-0.301894
-1.98088
-3.70462
-5.32733
-6.97121
-8.55043
-10.0185
-11.4
-12.6726
-13.8371
-14.9081
-15.886
-16.779
-17.5931
-18.3306
-18.9939
-19.5828
-20.0959
-20.5308
-20.8849
-21.1557
-21.3446
1.12698
-0.29079
-1.87733
-3.50323
-5.03116
-6.57638
-8.05772
-9.43221
-10.7228
-11.9093
-12.9928
-13.9872
-14.8938
-15.72
-16.4716
-17.151
-17.7605
-18.3007
-18.77
-19.1667
-19.4886
-19.7338
-19.9037
1.06702
-0.273438
-1.77185
-3.30439
-4.74208
-6.19326
-7.58138
-8.86689
-10.0709
-11.176
-12.1826
-13.1048
-13.9446
-14.7084
-15.4012
-16.0261
-16.5858
-17.0806
-17.5096
-17.8713
-18.1639
-18.3859
-18.539
1.01564
-0.251314
-1.66581
-3.10958
-4.46116
-5.82288
-7.12204
-8.3227
-9.44383
-10.472
-11.4047
-12.2581
-13.0356
-13.7411
-14.3787
-14.9525
-15.4656
-15.9186
-16.3104
-16.64
-16.9058
-17.107
-17.2451
0.971976
-0.225121
-1.5599
-2.91931
-4.18908
-5.4659
-6.68024
-7.80012
-8.84207
-9.79778
-10.6576
-11.4445
-12.164
-12.8149
-13.4002
-13.9259
-14.3959
-14.81
-15.1675
-15.4677
-15.7093
-15.8918
-16.0168
-16.0897
0.936058
-0.194093
-1.45251
-2.73146
-3.92338
-5.11935
-6.2535
-7.29709
-8.26419
-9.15072
-9.9408
-10.6663
-11.3322
-11.9305
-12.465
-12.9448
-13.374
-13.7517
-14.077
-14.3498
-14.5692
-14.7349
-14.8483
-14.9144
0.907492
-0.158442
-1.34309
-2.54483
-3.66183
-4.78005
-5.83711
-6.80851
-7.70471
-8.52494
-9.2477
-9.92418
-10.5442
-11.0894
-11.5725
-12.0085
-12.3993
-12.7422
-13.0368
-13.2838
-13.4827
-13.6329
-13.7358
-13.7961
0.886306
-0.129359
-1.2568
-2.39341
-3.44368
-4.48716
-5.46015
-6.34465
-7.14229
-7.87353
-8.47208
-9.13452
-9.76131
-10.2852
-10.7444
-11.1655
-11.5453
-11.8773
-12.1618
-12.4007
-12.5935
-12.7394
-12.8398
-12.899
0.870215
-0.104073
-1.18279
-2.2624
-3.25061
-4.21973
-5.10538
-5.89276
-6.5745
-7.19785
-7.63329
-8.31539
-8.98435
-9.50886
-9.96294
-10.3882
-10.7747
-11.1118
-11.4004
-11.643
-11.8394
-11.9887
-12.0925
-12.1546
0.855765
-0.0767301
-1.10625
-2.12851
-3.05477
-3.94981
-4.75027
-5.44297
-6.01551
-6.53405
-6.81783
-7.50667
-8.20878
-8.73164
-9.17676
-9.60161
-9.99207
-10.3323
-10.6233
-10.8686
-11.0681
-11.2205
-11.3275
-11.3927
0.842784
-0.0479154
-1.02813
-1.99334
-2.85822
-3.68008
-4.39801
-4.99837
-5.46917
-5.88191
-6.03127
-6.71198
-7.43388
-7.95356
-8.38785
-8.80801
-9.19894
-9.54036
-9.83227
-10.079
-10.2808
-10.4361
-10.5461
-10.6144
0.83136
-0.0179366
-0.949186
-1.85818
-2.66285
-3.41304
-4.05155
-4.56211
-4.93858
-5.24316
-5.27695
-5.93492
-6.661
-7.17419
-7.59626
-8.00803
-8.39576
-8.73618
-9.02767
-9.27483
-9.47812
-9.63594
-9.74904
-9.8213
0.821456
0.0126403
-0.870771
-1.72486
-2.47113
-3.1518
-3.71451
-4.13829
-4.42751
-4.62073
-4.55681
-5.1778
-5.89132
-6.39326
-6.80172
-7.20192
-7.58278
-7.91983
-8.20957
-8.45639
-8.66073
-8.82064
-8.93608
-9.0106
0.812969
0.0425369
-0.795231
-1.59675
-2.28668
-2.90035
-3.39055
-3.73043
-3.93821
-4.01669
-3.87183
-4.44201
-5.12629
-5.61092
-6.00361
-6.38906
-6.75955
-7.09046
-7.37676
-7.62234
-7.82805
-7.99201
-8.11454
-8.19915
0.805565
0.0701542
-0.725672
-1.47815
-2.11445
-2.66377
-3.08322
-3.34018
-3.47041
-3.43207
-3.22142
-3.72798
-4.36715
-4.82712
-5.2005
-5.5679
-5.9247
-6.24717
-6.52822
-6.77012
-6.97268
-7.13295
-7.24953
-7.32444
-7.36708
0.798935
0.0955219
-0.662168
-1.37029
-1.95734
-2.44718
-2.79851
-2.97486
-3.03187
-2.87456
-2.60524
-3.03514
-3.61521
-4.04202
-4.3911
-4.73543
-5.07363
-5.38529
-5.66407
-5.91149
-6.12741
-6.30994
-6.45943
-6.57815
-6.66765
0.793506
0.11985
-0.60284
-1.27127
-1.81539
-2.25479
-2.54656
-2.65481
-2.64735
-2.36049
-2.02398
-2.36582
-2.87235
-3.25506
-3.57556
-3.89355
-4.20389
-4.4874
-4.73791
-4.95587
-5.13869
-5.27974
-5.37269
-5.41777
-5.43436
0.789952
0.136207
-0.560851
-1.19685
-1.70385
-2.09779
-2.33311
-2.38278
-2.30651
-1.86993
-1.46774
-1.728
-2.14522
-2.46262
-2.74412
-3.04282
-3.3529
-3.65645
-3.94657
-4.22301
-4.48676
-4.73969
-4.9827
-5.20895
-5.39203
0.7861
0.124084
-0.574025
-1.19532
-1.66995
-2.00682
-2.15737
-2.10961
-1.89828
-1.29524
-0.894956
-1.11522
-1.45486
-1.68886
-1.87244
-2.05085
-2.22673
-2.39243
-2.5428
-2.67283
-2.77064
-2.81749
-2.79956
-2.72528
-2.65617
0.77705
0.0840213
-0.639093
-1.26616
-1.71852
-1.99418
-2.0404
-1.85304
-1.43687
-0.672158
-0.285595
-0.460432
-0.769524
-1.06122
-1.35628
-1.66497
-1.98992
-2.33261
-2.69773
-3.09384
-3.53284
-4.02079
-4.53512
-5.01779
-5.36542
)
;

boundaryField
{
    inlet
    {
        type            freestreamPressure;
        freestreamValue uniform 0;
        value           nonuniform List<scalar> 
25
(
0.773267
0.0836122
-0.635981
-1.26
-1.71015
-1.98448
-2.03046
-1.84402
-1.42987
-0.668886
-0.122995
-0.198395
-0.331836
-0.458038
-0.585979
-0.720128
-0.861658
-1.01126
-1.17102
-1.34467
-1.53744
-1.75197
-1.97838
-2.1912
-2.34508
)
;
    }
    outlet
    {
        type            freestreamPressure;
        freestreamValue nonuniform List<scalar> 0();
        value           nonuniform List<scalar> 0();
    }
    walls
    {
        type            zeroGradient;
    }
    frontAndBack
    {
        type            empty;
    }
    procBoundary4to0
    {
        type            processor;
        value           nonuniform List<scalar> 
72
(
83.8048
79.5896
75.2337
70.8599
66.5477
62.3487
58.2958
54.4112
50.7062
47.1861
43.8524
40.7034
37.7357
34.9444
32.3234
29.8657
27.5648
25.4139
23.4053
21.5323
19.788
18.1654
18.1654
22.6376
20.9662
19.4102
17.9626
16.6173
15.368
14.2089
13.1344
12.1394
11.2187
10.3676
9.58157
8.85634
8.18782
7.57217
7.00576
6.48514
6.00703
5.56843
5.16645
4.79836
4.46163
4.15388
3.87281
3.61636
3.38253
3.16952
2.97555
2.79903
2.6385
2.4926
2.35993
2.23923
2.12943
2.03005
1.94053
1.87219
1.81695
1.76274
1.70976
1.65853
1.60968
1.56437
1.52337
1.48572
1.45139
1.42921
1.43398
1.45379
)
;
    }
    procBoundary4to5
    {
        type            processor;
        value           nonuniform List<scalar> 
95
(
63.8599
36.1832
5.55291
-21.2513
-21.2513
-52.9897
-77.4414
-77.4414
-108.687
-128.706
-128.706
-146.104
-146.104
-160.921
-149.903
-149.903
-162.018
-162.018
-171.948
-161.405
-161.405
-169.055
-159.156
-159.156
-164.783
-155.427
-155.427
-159.257
-150.378
-142.095
-142.095
-144.188
-136.283
-128.864
-128.864
-129.511
-122.423
-115.743
-115.743
-115.215
-108.85
-102.836
-102.836
-101.392
-95.6933
-90.3029
-85.2021
-80.3752
-80.3752
-78.3217
-73.7886
-69.5013
-65.4466
-61.6125
-61.6125
-59.335
-55.784
-52.4311
-49.2657
-46.278
-46.278
-44.0838
-41.3587
-38.79
-36.3686
-34.0859
-31.9339
-29.9044
-29.9044
-28.1731
-26.3458
-24.6219
-22.9948
-21.4577
-20.0045
-18.6292
-17.3259
-17.3259
-16.1192
-14.9412
-13.8211
-12.9246
-12.1834
-11.4248
-10.6499
-9.86152
-9.05261
-8.25343
-8.25343
-7.389
-6.73201
-5.44286
-5.52337
-2.62515
-5.57756
)
;
    }
}


// ************************************************************************* //
