/*--------------------------------*- C++ -*----------------------------------*\
| =========                 |                                                 |
| \\      /  F ield         | OpenFOAM: The Open Source CFD Toolbox           |
|  \\    /   O peration     | Version:  2306                                  |
|   \\  /    A nd           | Website:  www.openfoam.com                      |
|    \\/     M anipulation  |                                                 |
\*---------------------------------------------------------------------------*/
FoamFile
{
    version     2.0;
    format      ascii;
    arch        "LSB;label=32;scalar=64";
    class       volScalarField;
    location    "175";
    object      turbulenceProperties:I;
}
// * * * * * * * * * * * * * * * * * * * * * * * * * * * * * * * * * * * * * //

dimensions      [0 0 0 0 0 0 0];

internalField   nonuniform List<scalar> 
1340
(
0.000781378
0.000750732
0.000720355
0.000716978
0.000691731
0.000666485
0.000642391
0.000618326
0.000659704
0.000638849
0.000617825
0.000597706
0.000577471
0.000557752
0.000538723
0.000608499
0.00059121
0.000573654
0.000556806
0.000539756
0.000523081
0.000506925
0.000491096
0.000562589
0.000548217
0.000533527
0.0005194
0.000505038
0.00049093
0.000477228
0.000463739
0.000450572
0.000521267
0.000509297
0.000496972
0.000485114
0.00047301
0.000461071
0.000449449
0.000437976
0.000426732
0.00048395
0.000473959
0.000463604
0.000453651
0.000443446
0.00043335
0.000423505
0.000413763
0.000404181
0.000394721
0.000450131
0.000441775
0.000433076
0.000424719
0.000416117
0.000407587
0.000399262
0.000390992
0.00038285
0.000374771
0.000366703
0.000419377
0.000412383
0.00040508
0.00039806
0.000390822
0.000383623
0.000376591
0.000369592
0.000362689
0.000355826
0.000348945
0.000391319
0.000385476
0.000379339
0.000373459
0.000367372
0.000361315
0.000355386
0.000349479
0.000343643
0.000337832
0.000331973
0.000326083
0.00036565
0.000360773
0.000355626
0.000350708
0.000345608
0.000340517
0.000335538
0.000330568
0.000325652
0.000320748
0.000315797
0.000310795
0.000342106
0.000338041
0.000333735
0.000329634
0.000325372
0.000321109
0.000316945
0.000312782
0.000308659
0.000304543
0.000300379
0.000296149
0.000291842
0.000320449
0.000317078
0.000313482
0.000310081
0.000306533
0.000302981
0.000299515
0.000296047
0.00029261
0.000289172
0.000285686
0.000282143
0.000278508
0.000300486
0.000297699
0.000294712
0.000291906
0.000288968
0.000286028
0.000283161
0.000280291
0.000277446
0.000274598
0.000271703
0.000268756
0.000265712
0.00026258
0.000282042
0.000279751
0.000277286
0.000274984
0.000272571
0.000270155
0.000267805
0.000265448
0.000263113
0.000260772
0.00025839
0.000255954
0.000253437
0.000250828
0.000264965
0.000263097
0.00026108
0.000259208
0.000257246
0.000255279
0.000253372
0.00025146
0.000249564
0.000247663
0.000245723
0.000243734
0.000241673
0.00023952
0.000249127
0.000247618
0.00024598
0.00024448
0.000242902
0.000241324
0.000239795
0.000238267
0.000236749
0.000235228
0.000233669
0.000232069
0.000230402
0.000228648
0.000226819
0.000234409
0.000233207
0.000231893
0.00023071
0.000229464
0.000228216
0.000227017
0.000225816
0.000224625
0.00022343
0.000222202
0.000220937
0.000219612
0.000218213
0.000216736
0.000220709
0.00021977
0.000218733
0.000217822
0.000216861
0.000215896
0.00021498
0.000214059
0.00021315
0.000212235
0.000211293
0.000210315
0.000209286
0.000208192
0.000207024
0.00020794
0.000207223
0.000206425
0.000205745
0.000205025
0.000204306
0.00020363
0.00020295
0.000202281
0.000201609
0.00020091
0.000200183
0.00019941
0.000198581
0.000197682
0.000196724
0.000196019
0.00019549
0.000194897
0.000194416
0.000193902
0.000193392
0.000192921
0.000192449
0.000191987
0.000191522
0.000191033
0.00019052
0.000189966
0.000189364
0.000188701
0.00018798
0.000184877
0.000184509
0.00018409
0.000183777
0.00018344
0.000183108
0.000182812
0.000182518
0.000182231
0.000181943
0.000181634
0.000181304
0.000180939
0.00018053
0.000180072
0.000179558
0.00017459
0.000174449
0.000174217
0.000173946
0.000173776
0.000173589
0.000173408
0.000173262
0.000173118
0.000172981
0.000172844
0.000172688
0.000172514
0.00017231
0.000172069
0.000171785
0.000171447
0.000171069
0.00016472
0.000164677
0.000164561
0.000164417
0.000164367
0.000164306
0.000164254
0.000164235
0.000164219
0.00016421
0.0001642
0.000164175
0.000164133
0.000164066
0.000163966
0.000163829
0.000163649
0.000163427
0.000155472
0.000155512
0.000155493
0.000155456
0.000155507
0.000155554
0.000155611
0.000155699
0.000155791
0.00015589
0.000155987
0.000156072
0.000156142
0.00015619
0.00015621
0.000156199
0.00015615
0.000156062
0.000146799
0.000146907
0.00014697
0.000147022
0.000147159
0.000147296
0.000147443
0.000147621
0.000147804
0.000147994
0.000148182
0.000148358
0.000148523
0.000148667
0.000148788
0.000148881
0.000148945
0.000148969
0.000148968
0.000138657
0.000138821
0.000138952
0.000139078
0.000139286
0.000139498
0.000139722
0.000139976
0.000140235
0.000140499
0.000140762
0.000141016
0.000141258
0.000141483
0.000141687
0.000141869
0.000142024
0.000142148
0.000142243
0.000131007
0.000131216
0.000131403
0.000131591
0.000131857
0.000132132
0.00013242
0.000132737
0.000133057
0.000133383
0.000133709
0.000134026
0.000134332
0.000134623
0.000134897
0.000135151
0.000135381
0.000135585
0.000135763
0.000123811
0.000124057
0.00012429
0.000124528
0.000124843
0.000125168
0.000125509
0.000125876
0.000126249
0.000126627
0.000127004
0.000127371
0.00012773
0.000128075
0.000128405
0.000128717
0.000129009
0.000129278
0.000129524
0.000117038
0.000117314
0.000117582
0.000117862
0.000118215
0.000118583
0.000118966
0.000119375
0.00011979
0.000120209
0.000120627
0.000121036
0.000121437
0.000121825
0.0001222
0.000122559
0.000122901
0.000123222
0.00012352
0.000110659
0.000110956
0.000111254
0.000111567
0.000111951
0.000112353
0.00011277
0.000113213
0.000113661
0.000114113
0.000114563
0.000115005
0.000115439
0.000115862
0.000116272
0.000116668
0.000117048
0.000117411
0.000117749
0.000118074
0.000104647
0.00010496
0.000105279
0.000105619
0.000106027
0.000106455
0.000106899
0.000107369
0.000107843
0.000108321
0.000108797
0.000109265
0.000109724
0.000110173
0.00011061
0.000111034
0.000111443
0.000111837
0.00011221
0.000112565
9.89759e-05
9.92998e-05
9.96348e-05
9.99951e-05
0.000100421
0.00010087
0.000101336
0.000101825
0.000102321
0.000102818
0.000103313
0.0001038
0.000104278
0.000104747
0.000105204
0.000105648
0.000106079
0.000106495
0.000106892
0.000107271
9.36231e-05
9.39535e-05
9.43001e-05
9.46757e-05
9.51154e-05
9.55791e-05
9.60616e-05
9.65665e-05
9.70768e-05
9.75891e-05
9.80987e-05
9.85993e-05
9.90912e-05
9.95731e-05
0.000100044
0.000100502
0.000100948
0.000101379
0.000101792
0.000102187
8.85678e-05
8.89009e-05
8.92554e-05
8.96416e-05
9.00909e-05
9.05658e-05
9.10601e-05
9.15762e-05
9.20979e-05
9.26207e-05
9.31398e-05
9.36497e-05
9.41508e-05
9.46412e-05
9.51206e-05
9.5588e-05
9.60427e-05
9.64826e-05
9.69059e-05
9.73081e-05
8.37907e-05
8.41234e-05
8.44822e-05
8.48756e-05
8.53308e-05
8.58133e-05
8.63163e-05
8.68401e-05
8.73695e-05
8.7899e-05
8.84244e-05
8.89403e-05
8.94467e-05
8.99417e-05
9.04255e-05
9.0897e-05
9.13559e-05
9.18e-05
9.22282e-05
9.26328e-05
9.30201e-05
7.92737e-05
7.96036e-05
7.99636e-05
8.03616e-05
8.08196e-05
8.13072e-05
8.18157e-05
8.23445e-05
8.2879e-05
8.34127e-05
8.39413e-05
8.44601e-05
8.49681e-05
8.54648e-05
8.59495e-05
8.64217e-05
8.68806e-05
8.73246e-05
8.77518e-05
8.81579e-05
8.85409e-05
7.50004e-05
7.53255e-05
7.56844e-05
7.60841e-05
7.65431e-05
7.70332e-05
7.75451e-05
7.80772e-05
7.86142e-05
7.91496e-05
7.96793e-05
8.01983e-05
8.07059e-05
8.12013e-05
8.16842e-05
8.2154e-05
8.26099e-05
8.30507e-05
8.34737e-05
8.38753e-05
8.42526e-05
7.09553e-05
7.1274e-05
7.16299e-05
7.20293e-05
7.24876e-05
7.29785e-05
7.34921e-05
7.40253e-05
7.45632e-05
7.50991e-05
7.5628e-05
7.61457e-05
7.66508e-05
7.71431e-05
7.76217e-05
7.80866e-05
7.85369e-05
7.89711e-05
7.93871e-05
7.9781e-05
8.01495e-05
6.71243e-05
6.74353e-05
6.77864e-05
6.8184e-05
6.86403e-05
6.91307e-05
6.9645e-05
7.01781e-05
7.07159e-05
7.12509e-05
7.17779e-05
7.22925e-05
7.27938e-05
7.32809e-05
7.37538e-05
7.4212e-05
7.46546e-05
7.50803e-05
7.54868e-05
7.5871e-05
7.62268e-05
6.34941e-05
6.37962e-05
6.41415e-05
6.45361e-05
6.49892e-05
6.54786e-05
6.59926e-05
6.65252e-05
6.70622e-05
6.75952e-05
6.81192e-05
6.86298e-05
6.91261e-05
6.96074e-05
7.00732e-05
7.05231e-05
7.09567e-05
7.13724e-05
7.17679e-05
7.21406e-05
7.24832e-05
7.27989e-05
6.00525e-05
6.03447e-05
6.06834e-05
6.10741e-05
6.15236e-05
6.20113e-05
6.25248e-05
6.30564e-05
6.3592e-05
6.41225e-05
6.46431e-05
6.51492e-05
6.56399e-05
6.61143e-05
6.65721e-05
6.7013e-05
6.74366e-05
6.78412e-05
6.82245e-05
6.85839e-05
6.89145e-05
6.92135e-05
5.67879e-05
5.70698e-05
5.74011e-05
5.77872e-05
5.8233e-05
5.87191e-05
5.92318e-05
5.97624e-05
6.02963e-05
6.08244e-05
6.13413e-05
6.18427e-05
6.23272e-05
6.27942e-05
6.32435e-05
6.36748e-05
6.40877e-05
6.44802e-05
6.48505e-05
6.51962e-05
6.55122e-05
6.57954e-05
5.36898e-05
5.39609e-05
5.42841e-05
5.46656e-05
5.51079e-05
5.55923e-05
5.61046e-05
5.66342e-05
5.71667e-05
5.76925e-05
5.82056e-05
5.87021e-05
5.91805e-05
5.964e-05
6.00804e-05
6.05017e-05
6.09032e-05
6.12834e-05
6.16405e-05
6.19718e-05
6.22726e-05
6.25402e-05
5.07481e-05
5.1008e-05
5.1323e-05
5.16999e-05
5.21388e-05
5.2622e-05
5.31344e-05
5.36635e-05
5.41951e-05
5.47186e-05
5.52283e-05
5.57201e-05
5.61923e-05
5.66443e-05
5.70759e-05
5.74871e-05
5.78772e-05
5.82451e-05
5.85888e-05
5.89053e-05
5.91908e-05
5.94428e-05
4.79534e-05
4.82018e-05
4.85086e-05
4.88811e-05
4.93172e-05
4.98003e-05
5.03131e-05
5.08425e-05
5.13735e-05
5.18955e-05
5.24022e-05
5.28895e-05
5.33557e-05
5.38003e-05
5.42234e-05
5.46247e-05
5.50035e-05
5.5359e-05
5.56891e-05
5.59912e-05
5.62617e-05
5.64981e-05
4.52969e-05
4.55339e-05
4.58325e-05
4.6201e-05
4.66354e-05
4.7119e-05
4.76332e-05
4.81634e-05
4.86948e-05
4.92158e-05
4.972e-05
5.02032e-05
5.06639e-05
5.11016e-05
5.15163e-05
5.19079e-05
5.22758e-05
5.26193e-05
5.29362e-05
5.32243e-05
5.34802e-05
5.37005e-05
4.27704e-05
4.29959e-05
4.32866e-05
4.36519e-05
4.40857e-05
4.45705e-05
4.50872e-05
4.56194e-05
4.61518e-05
4.66724e-05
4.71747e-05
4.76546e-05
4.81104e-05
4.85416e-05
4.89484e-05
4.93308e-05
4.96887e-05
5.00206e-05
5.03252e-05
5.05999e-05
5.08419e-05
5.10472e-05
5.12148e-05
4.03661e-05
4.05802e-05
4.08632e-05
4.12266e-05
4.16607e-05
4.2148e-05
4.26683e-05
4.32034e-05
4.37378e-05
4.42589e-05
4.47601e-05
4.52375e-05
4.56889e-05
4.61141e-05
4.65138e-05
4.6888e-05
4.72364e-05
4.75578e-05
4.78507e-05
4.81129e-05
4.83414e-05
4.8534e-05
4.8687e-05
3.80768e-05
3.82794e-05
3.85556e-05
3.89183e-05
3.93538e-05
3.98448e-05
4.037e-05
4.09088e-05
4.14463e-05
4.19688e-05
4.24698e-05
4.29455e-05
4.33933e-05
4.38133e-05
4.42067e-05
4.45736e-05
4.49133e-05
4.52249e-05
4.55067e-05
4.57568e-05
4.59725e-05
4.6152e-05
4.6292e-05
3.58955e-05
3.6087e-05
3.63571e-05
3.67204e-05
3.71584e-05
3.76548e-05
3.8186e-05
3.87294e-05
3.92711e-05
3.97957e-05
4.02976e-05
4.07728e-05
4.12178e-05
4.16332e-05
4.20209e-05
4.23811e-05
4.27124e-05
4.30137e-05
4.32841e-05
4.35217e-05
4.37247e-05
4.38913e-05
4.40189e-05
3.38159e-05
3.39963e-05
3.42613e-05
3.46269e-05
3.50687e-05
3.55721e-05
3.61102e-05
3.66591e-05
3.72062e-05
3.77332e-05
3.82374e-05
3.87136e-05
3.91563e-05
3.95673e-05
3.99492e-05
4.03016e-05
4.06229e-05
4.09126e-05
4.11701e-05
4.13946e-05
4.15842e-05
4.17379e-05
4.18537e-05
3.18319e-05
3.20016e-05
3.22627e-05
3.26319e-05
3.30788e-05
3.35913e-05
3.41368e-05
3.46924e-05
3.52461e-05
3.57753e-05
3.62843e-05
3.67633e-05
3.72023e-05
3.76064e-05
3.79803e-05
3.83227e-05
3.8632e-05
3.89084e-05
3.91524e-05
3.93635e-05
3.95401e-05
3.96814e-05
3.97858e-05
2.9938e-05
3.00979e-05
3.03561e-05
3.07305e-05
3.11834e-05
3.17071e-05
3.22592e-05
3.28236e-05
3.33843e-05
3.39148e-05
3.44348e-05
3.49175e-05
3.53468e-05
3.57385e-05
3.61018e-05
3.64331e-05
3.673e-05
3.69939e-05
3.72261e-05
3.74257e-05
3.75911e-05
3.77215e-05
3.78156e-05
2.81301e-05
2.8281e-05
2.85375e-05
2.89181e-05
2.93781e-05
2.99146e-05
3.04704e-05
3.10474e-05
3.16127e-05
3.2142e-05
3.26811e-05
3.31665e-05
3.35777e-05
3.3953e-05
3.43073e-05
3.4631e-05
3.49192e-05
3.51747e-05
3.53988e-05
3.55899e-05
3.57461e-05
3.58667e-05
3.59506e-05
2.64038e-05
2.65464e-05
2.68028e-05
2.71908e-05
2.76602e-05
2.82104e-05
2.87655e-05
2.93624e-05
2.99212e-05
3.04466e-05
3.1015e-05
3.14954e-05
3.18815e-05
3.22465e-05
3.26019e-05
3.2925e-05
3.32098e-05
3.34615e-05
3.36811e-05
3.3866e-05
3.40143e-05
3.4126e-05
3.42004e-05
3.42419e-05
2.47568e-05
2.48912e-05
2.51497e-05
2.55472e-05
2.60282e-05
2.65919e-05
2.71445e-05
2.77723e-05
2.82883e-05
2.88319e-05
2.94606e-05
2.99096e-05
3.02495e-05
3.06183e-05
3.09911e-05
3.13188e-05
3.16011e-05
3.185e-05
3.2066e-05
3.22453e-05
3.2386e-05
3.2489e-05
3.25554e-05
3.25884e-05
2.32122e-05
2.33376e-05
2.35986e-05
2.40034e-05
2.44928e-05
2.50611e-05
2.56078e-05
2.6265e-05
2.668e-05
2.72946e-05
2.80288e-05
2.84166e-05
2.86749e-05
2.90661e-05
2.94804e-05
2.98195e-05
3.00996e-05
3.03465e-05
3.056e-05
3.07337e-05
3.08665e-05
3.09611e-05
3.10199e-05
3.10484e-05
2.18899e-05
2.2004e-05
2.22589e-05
2.26501e-05
2.31253e-05
2.36593e-05
2.41718e-05
2.48004e-05
2.5068e-05
2.57622e-05
2.65892e-05
2.69238e-05
2.71445e-05
2.76059e-05
2.80965e-05
2.84746e-05
2.87751e-05
2.90388e-05
2.9266e-05
2.94488e-05
2.9587e-05
2.96831e-05
2.97414e-05
2.97681e-05
2.07862e-05
2.0887e-05
2.11219e-05
2.14786e-05
2.19128e-05
2.23734e-05
2.28254e-05
2.33453e-05
2.35068e-05
2.41523e-05
2.50205e-05
2.5358e-05
2.56467e-05
2.62009e-05
2.67738e-05
2.72154e-05
2.75641e-05
2.7866e-05
2.81249e-05
2.83327e-05
2.84889e-05
2.85962e-05
2.86607e-05
2.86869e-05
1.97254e-05
1.98148e-05
2.0028e-05
2.03499e-05
2.07388e-05
2.1125e-05
2.15187e-05
2.19143e-05
2.20095e-05
2.25266e-05
2.33918e-05
2.37647e-05
2.41768e-05
2.48093e-05
2.54457e-05
2.59529e-05
2.63577e-05
2.67021e-05
2.69945e-05
2.72281e-05
2.74018e-05
2.752e-05
2.75904e-05
2.76206e-05
1.86297e-05
1.871e-05
1.89039e-05
1.91943e-05
1.95392e-05
1.98585e-05
2.02017e-05
2.04784e-05
2.05297e-05
2.09295e-05
2.17881e-05
2.2188e-05
2.27405e-05
2.34491e-05
2.4136e-05
2.46996e-05
2.5157e-05
2.55407e-05
2.58621e-05
2.61186e-05
2.63085e-05
2.64369e-05
2.65109e-05
2.65381e-05
1.7525e-05
1.7598e-05
1.77731e-05
1.80331e-05
1.83314e-05
1.85896e-05
1.88805e-05
1.90419e-05
1.90601e-05
1.93472e-05
2.01993e-05
2.06146e-05
2.13199e-05
2.21116e-05
2.2843e-05
2.34546e-05
2.39609e-05
2.43824e-05
2.47306e-05
2.50065e-05
2.52104e-05
2.53487e-05
2.54311e-05
2.54681e-05
1.64158e-05
1.64823e-05
1.66374e-05
1.68648e-05
1.71117e-05
1.73147e-05
1.7545e-05
1.75991e-05
1.75904e-05
1.7768e-05
1.86148e-05
1.90443e-05
1.99077e-05
2.07886e-05
2.15651e-05
2.22209e-05
2.27742e-05
2.32343e-05
2.361e-05
2.39038e-05
2.41152e-05
2.4248e-05
2.43088e-05
2.43104e-05
1.53172e-05
1.53767e-05
1.55055e-05
1.56905e-05
1.58756e-05
1.6025e-05
1.61793e-05
1.61457e-05
1.61091e-05
1.6182e-05
1.70174e-05
1.74725e-05
1.84959e-05
1.94751e-05
2.03043e-05
2.10056e-05
2.1605e-05
2.21038e-05
2.25097e-05
2.28301e-05
2.30709e-05
2.32416e-05
2.33564e-05
2.34288e-05
1.42442e-05
1.42956e-05
1.43893e-05
1.4514e-05
1.46191e-05
1.4702e-05
1.47518e-05
1.46643e-05
1.45808e-05
1.4575e-05
1.53983e-05
1.59043e-05
1.70857e-05
1.8174e-05
1.90678e-05
1.98221e-05
2.04723e-05
2.10081e-05
2.14254e-05
2.17291e-05
2.19235e-05
2.20108e-05
2.1997e-05
2.19082e-05
2.17889e-05
1.32023e-05
1.32461e-05
1.32976e-05
1.33434e-05
1.33464e-05
1.33301e-05
1.32318e-05
1.31245e-05
1.29227e-05
1.2937e-05
1.3773e-05
1.43552e-05
1.56946e-05
1.69059e-05
1.78693e-05
1.86792e-05
1.94001e-05
2.00227e-05
2.05377e-05
2.09529e-05
2.12855e-05
2.15624e-05
2.18145e-05
2.20434e-05
2.22076e-05
1.22066e-05
1.22367e-05
1.22236e-05
1.2159e-05
1.2033e-05
1.18818e-05
1.16229e-05
1.15379e-05
1.1103e-05
1.14353e-05
1.22265e-05
1.28476e-05
1.435e-05
1.57122e-05
1.6753e-05
1.75913e-05
1.83107e-05
1.89076e-05
1.93738e-05
1.97107e-05
1.99109e-05
1.99676e-05
1.98991e-05
1.97912e-05
1.9758e-05
1.1355e-05
1.13409e-05
1.11859e-05
1.09106e-05
1.0569e-05
1.02304e-05
9.88163e-06
9.93072e-06
9.34655e-06
1.0519e-05
1.09553e-05
1.14471e-05
1.30367e-05
1.45482e-05
1.57789e-05
1.68826e-05
1.79171e-05
1.88561e-05
1.9694e-05
2.04614e-05
2.12078e-05
2.19869e-05
2.28055e-05
2.3548e-05
2.40662e-05
1.08198e-05
1.07299e-05
1.03523e-05
9.71645e-06
8.9312e-06
8.15245e-06
7.69139e-06
8.05106e-06
7.92796e-06
1.00117e-05
1.01283e-05
1.05582e-05
1.19757e-05
1.33844e-05
1.46592e-05
1.59882e-05
1.73684e-05
1.8716e-05
1.99842e-05
2.11521e-05
2.21979e-05
2.31064e-05
2.38818e-05
2.4512e-05
2.50193e-05
1.05655e-05
1.04222e-05
9.88468e-06
8.94151e-06
7.6047e-06
5.83702e-06
4.66015e-06
6.0184e-06
7.30255e-06
9.09944e-06
8.383e-06
1.05219e-05
1.32679e-05
1.57229e-05
1.79307e-05
1.99681e-05
2.18812e-05
2.36809e-05
2.53536e-05
2.68796e-05
2.82171e-05
2.93084e-05
3.00808e-05
3.05178e-05
3.08101e-05
)
;

boundaryField
{
    inlet
    {
        type            calculated;
        value           nonuniform List<scalar> 
25
(
1.05471e-05
1.03942e-05
9.84273e-06
8.86664e-06
7.437e-06
5.41292e-06
4.26374e-06
6.38273e-06
8.1608e-06
7.91448e-06
1.14723e-05
1.58065e-05
2.06666e-05
2.53341e-05
2.9778e-05
3.40401e-05
3.81621e-05
4.21527e-05
4.60024e-05
4.96855e-05
5.31585e-05
5.63459e-05
5.91626e-05
6.15204e-05
6.34425e-05
)
;
    }
    outlet
    {
        type            calculated;
        value           nonuniform List<scalar> 0();
    }
    walls
    {
        type            calculated;
        value           nonuniform List<scalar> 0();
    }
    frontAndBack
    {
        type            empty;
    }
    procBoundary4to0
    {
        type            processor;
        value           nonuniform List<scalar> 
72
(
0.000810277
0.000740518
0.000678947
0.000624302
0.000575621
0.000532056
0.000492895
0.000457552
0.000425542
0.000396446
0.00036991
0.000345634
0.000323363
0.000302879
0.000283995
0.000266545
0.000250387
0.000235399
0.000221472
0.000208508
0.000196421
0.000185138
0.000185138
0.000174681
0.000164724
0.000155404
0.000146671
0.00013848
0.00013079
0.000123564
0.000116769
0.000110373
0.000104349
9.86707e-05
9.33151e-05
8.82602e-05
8.34863e-05
7.89752e-05
7.47098e-05
7.06743e-05
6.68542e-05
6.32358e-05
5.98069e-05
5.65557e-05
5.34714e-05
5.05437e-05
4.77632e-05
4.5121e-05
4.26086e-05
4.02184e-05
3.7943e-05
3.57755e-05
3.37092e-05
3.17381e-05
2.98572e-05
2.80622e-05
2.63485e-05
2.47131e-05
2.31772e-05
2.18582e-05
2.07558e-05
1.96973e-05
1.86039e-05
1.75013e-05
1.63925e-05
1.52914e-05
1.42117e-05
1.31579e-05
1.21401e-05
1.12508e-05
1.06742e-05
1.04004e-05
)
;
    }
    procBoundary4to5
    {
        type            processor;
        value           nonuniform List<scalar> 
95
(
0.000853663
0.000816241
0.000779475
0.000691479
0.000691479
0.000662858
0.000594958
0.000594958
0.000572531
0.000520134
0.000520134
0.000475653
0.000475653
0.000437594
0.000415634
0.000415634
0.00038525
0.00038525
0.000358573
0.000342007
0.000342007
0.000320051
0.000305685
0.000305685
0.00028737
0.000274753
0.000274753
0.000259284
0.000248084
0.000237257
0.000237257
0.000224846
0.000215148
0.000205768
0.000205768
0.000195649
0.000187175
0.000178977
0.000178977
0.000170601
0.000163144
0.000155927
0.000155927
0.000148895
0.000142292
0.000135899
0.000129731
0.000123791
0.000123791
0.000118349
0.000112889
0.000107618
0.000102551
9.76856e-05
9.76856e-05
9.33617e-05
8.88913e-05
8.45963e-05
8.04843e-05
7.65524e-05
7.65524e-05
7.30624e-05
6.94695e-05
6.60356e-05
6.2765e-05
5.9652e-05
5.66923e-05
5.38809e-05
5.38809e-05
5.13357e-05
4.87987e-05
4.63913e-05
4.4107e-05
4.19315e-05
3.98538e-05
3.78745e-05
3.60007e-05
3.60007e-05
3.42567e-05
3.25961e-05
3.10537e-05
2.97702e-05
2.86844e-05
2.76215e-05
2.65316e-05
2.54736e-05
2.42726e-05
2.34645e-05
2.34645e-05
2.1671e-05
2.22931e-05
1.98155e-05
2.4365e-05
2.55039e-05
3.08347e-05
)
;
    }
}


// ************************************************************************* //
