/*--------------------------------*- C++ -*----------------------------------*\
| =========                 |                                                 |
| \\      /  F ield         | OpenFOAM: The Open Source CFD Toolbox           |
|  \\    /   O peration     | Version:  2306                                  |
|   \\  /    A nd           | Website:  www.openfoam.com                      |
|    \\/     M anipulation  |                                                 |
\*---------------------------------------------------------------------------*/
FoamFile
{
    version     2.0;
    format      ascii;
    arch        "LSB;label=32;scalar=64";
    class       volVectorField;
    location    "725";
    object      momentError;
}
// * * * * * * * * * * * * * * * * * * * * * * * * * * * * * * * * * * * * * //

dimensions      [0 1 -2 0 0 0 0];

internalField   nonuniform List<vector> 
1340
(
(8.64599e-05 -0.000145797 2.99401e-14)
(9.99792e-05 -8.40935e-05 -7.52064e-14)
(5.7177e-05 -2.35761e-05 9.57956e-14)
(1.60948e-05 2.59289e-05 -6.00384e-14)
(-3.435e-05 4.88287e-05 -1.46125e-13)
(-5.30862e-05 4.86843e-05 -1.64675e-13)
(-6.15848e-05 4.27339e-05 1.3209e-14)
(-6.131e-05 3.45952e-05 1.33035e-13)
(-5.69712e-05 2.68421e-05 3.99406e-14)
(-5.10806e-05 2.05728e-05 -5.03068e-14)
(-4.47517e-05 1.54291e-05 -3.54748e-14)
(-3.83962e-05 1.18121e-05 -2.18179e-14)
(-3.24582e-05 8.64019e-06 3.90397e-14)
(-2.64056e-05 6.85505e-06 1.72959e-14)
(-2.10663e-05 5.18301e-06 2.50512e-14)
(-1.6044e-05 5.47357e-06 -3.38373e-14)
(-1.53074e-05 6.28126e-06 -2.46547e-14)
(-1.87765e-05 6.39523e-06 1.81837e-14)
(-2.3284e-05 6.03821e-06 1.24069e-14)
(-2.89454e-05 4.70443e-06 6.92983e-15)
(-3.41654e-05 4.60657e-06 -1.46239e-15)
(-3.3467e-05 1.94484e-06 -2.84486e-16)
(-2.4449e-05 5.75277e-06 2.3073e-16)
(-2.40954e-05 1.85479e-06 -4.51482e-16)
(-3.27448e-05 1.34303e-06 -1.86793e-15)
(-3.68926e-05 3.25636e-07 -1.2599e-15)
(-5.59263e-05 -1.2547e-06 -3.84256e-15)
(-8.48695e-05 -3.7439e-06 -2.91026e-15)
(-4.29986e-05 -6.25194e-05 1.11416e-13)
(1.02334e-05 -7.79131e-05 5.95854e-14)
(3.47902e-05 -3.49507e-05 -8.25876e-14)
(2.42179e-05 7.34937e-06 -1.06488e-14)
(1.16433e-06 4.02086e-05 1.01897e-13)
(-2.77786e-05 5.20791e-05 -5.21e-15)
(-4.48058e-05 5.12073e-05 1.22903e-14)
(-5.36867e-05 4.4688e-05 -2.47922e-14)
(-5.55421e-05 3.6271e-05 -3.25879e-14)
(-5.30194e-05 2.82096e-05 1.41525e-14)
(-4.86246e-05 2.13634e-05 1.7087e-14)
(-4.31978e-05 1.60146e-05 -5.80435e-14)
(-3.76103e-05 1.18563e-05 2.69296e-14)
(-3.19164e-05 8.82467e-06 1.7845e-14)
(-2.64748e-05 6.31501e-06 1.46788e-14)
(-2.12981e-05 4.82709e-06 3.1909e-14)
(-1.72966e-05 3.87141e-06 4.17814e-14)
(-1.66146e-05 5.10765e-06 1.76491e-14)
(-1.97426e-05 5.24027e-06 -1.51651e-14)
(-2.39222e-05 5.2216e-06 8.1611e-16)
(-2.91024e-05 4.57764e-06 -5.68175e-15)
(-3.47525e-05 3.6808e-06 -2.08568e-15)
(-3.36245e-05 1.97041e-06 3.93289e-16)
(-2.84161e-05 -7.86702e-07 -3.86649e-17)
(-4.22998e-05 3.9972e-06 2.8312e-16)
(-4.74359e-05 -1.65516e-08 6.14212e-16)
(-5.38416e-05 -1.23987e-06 1.8499e-15)
(-5.6874e-05 -5.2639e-06 2.35652e-15)
(-6.23083e-05 -9.49929e-06 7.67076e-16)
(-5.28362e-05 -2.91633e-05 1.35491e-14)
(-2.1492e-05 -3.33699e-05 -1.17648e-13)
(-2.65148e-06 -7.47908e-06 -7.91931e-14)
(-2.42785e-06 1.75602e-05 -8.81237e-14)
(-1.56996e-05 3.65156e-05 9.75412e-14)
(-3.25222e-05 4.43699e-05 1.4533e-14)
(-4.49292e-05 4.43967e-05 -1.36542e-14)
(-5.17744e-05 3.98851e-05 -8.08995e-14)
(-5.33823e-05 3.34587e-05 -5.80884e-14)
(-5.13299e-05 2.66523e-05 3.78566e-14)
(-4.74718e-05 2.06168e-05 -2.1374e-14)
(-4.26005e-05 1.56839e-05 -4.39722e-14)
(-3.73276e-05 1.18929e-05 -4.00347e-15)
(-3.19032e-05 8.88557e-06 -4.02392e-14)
(-2.65869e-05 6.93617e-06 -4.3e-14)
(-2.15355e-05 5.89415e-06 -8.43247e-14)
(-1.75816e-05 6.55622e-06 -6.39427e-14)
(-1.67652e-05 8.44315e-06 -1.79983e-14)
(-1.94736e-05 8.85249e-06 3.95026e-15)
(-2.34461e-05 8.13635e-06 -1.14737e-15)
(-2.82028e-05 6.73179e-06 -1.05282e-14)
(-3.35777e-05 5.15236e-06 4.47363e-15)
(-3.27697e-05 1.75549e-06 5.81706e-16)
(-2.73916e-05 4.72271e-06 -1.81311e-16)
(-3.2983e-05 2.07783e-06 -9.50518e-18)
(-3.98707e-05 7.11752e-07 -5.34353e-16)
(-4.44199e-05 3.22126e-06 -9.83434e-16)
(-5.09591e-05 3.57417e-06 -1.46503e-15)
(-5.13043e-05 1.00298e-05 1.86594e-15)
(-7.44346e-05 8.24539e-06 7.34766e-14)
(-5.50546e-05 -9.3314e-06 -1.8417e-13)
(-3.25789e-05 -1.10821e-05 1.69127e-13)
(-2.18707e-05 5.95157e-06 2.01469e-15)
(-1.98977e-05 2.13145e-05 -1.20416e-13)
(-2.72316e-05 3.40899e-05 -7.02475e-14)
(-3.68272e-05 4.03521e-05 -1.98382e-14)
(-4.5129e-05 4.13111e-05 5.95859e-14)
(-4.98514e-05 3.8377e-05 1.29281e-13)
(-5.088e-05 3.31466e-05 2.11142e-14)
(-4.90227e-05 2.71723e-05 -4.73378e-14)
(-4.56536e-05 2.15264e-05 2.21982e-14)
(-4.13442e-05 1.66725e-05 5.00095e-14)
(-3.64966e-05 1.29339e-05 -3.67787e-15)
(-3.14304e-05 9.84413e-06 -7.78279e-15)
(-2.64059e-05 7.86927e-06 -2.14374e-14)
(-2.16946e-05 6.71276e-06 5.28066e-14)
(-1.80597e-05 7.19317e-06 3.09351e-14)
(-1.72608e-05 8.80003e-06 -1.07666e-14)
(-1.95758e-05 9.27437e-06 -1.69118e-14)
(-2.33273e-05 8.61603e-06 -6.96403e-15)
(-2.79911e-05 7.29253e-06 1.26251e-14)
(-3.31577e-05 5.84e-06 -8.91347e-16)
(-3.24493e-05 2.4927e-06 -5.1345e-16)
(-2.7867e-05 2.80685e-06 2.01635e-16)
(-3.25152e-05 6.26818e-06 -3.98951e-17)
(-4.18855e-05 -3.22697e-06 -3.67654e-17)
(-5.9944e-05 -5.12677e-05 2.74448e-16)
(-0.000122715 -0.000233865 5.12061e-16)
(1.65768e-05 0.000283738 -3.22943e-15)
(-6.68217e-05 2.05889e-05 -6.87529e-14)
(-5.44608e-05 5.36263e-06 -7.24483e-14)
(-3.95544e-05 4.34087e-06 1.50439e-13)
(-3.22809e-05 1.42875e-05 1.26935e-13)
(-3.08569e-05 2.35585e-05 3.5648e-14)
(-3.51765e-05 3.17226e-05 -5.19378e-14)
(-4.11497e-05 3.62928e-05 5.91809e-14)
(-4.63853e-05 3.73275e-05 4.54278e-14)
(-4.93102e-05 3.52032e-05 -3.9818e-15)
(-4.94459e-05 3.09915e-05 -9.37209e-14)
(-4.74356e-05 2.57967e-05 3.96392e-15)
(-4.42933e-05 2.08608e-05 3.73007e-15)
(-4.03072e-05 1.64886e-05 2.06825e-16)
(-3.58217e-05 1.30019e-05 1.51383e-14)
(-3.10297e-05 1.01322e-05 -5.43059e-15)
(-2.62722e-05 8.43486e-06 1.2301e-14)
(-2.18175e-05 7.59164e-06 -2.67241e-14)
(-1.83657e-05 8.57255e-06 -1.53649e-14)
(-1.74363e-05 1.03348e-05 1.55016e-14)
(-1.93636e-05 1.1181e-05 2.09527e-14)
(-2.28856e-05 1.0441e-05 1.25521e-15)
(-2.75146e-05 8.83787e-06 -1.23689e-15)
(-3.25937e-05 6.57041e-06 -3.25985e-15)
(-3.22007e-05 2.66739e-06 6.54242e-16)
(-2.79533e-05 4.20373e-06 -1.04563e-16)
(-3.22581e-05 5.33811e-06 -5.30346e-16)
(-3.98957e-05 8.83861e-06 -2.80145e-17)
(-4.20492e-05 7.70919e-05 7.69933e-17)
(-2.44523e-05 0.000307985 -7.07578e-17)
(-0.00012131 -0.000466111 -9.28836e-16)
(-6.24165e-05 4.50616e-05 4.68176e-15)
(-5.9779e-05 2.66856e-05 -7.81819e-14)
(-5.2631e-05 1.52865e-05 -2.9426e-14)
(-4.33345e-05 1.41543e-05 -3.50566e-14)
(-3.86811e-05 1.9076e-05 2.74176e-14)
(-3.78297e-05 2.46065e-05 1.35735e-13)
(-4.07018e-05 2.97208e-05 -3.03588e-14)
(-4.46928e-05 3.299e-05 -5.88493e-14)
(-4.78847e-05 3.38147e-05 2.50175e-15)
(-4.92989e-05 3.21512e-05 -5.12985e-14)
(-4.85365e-05 2.87102e-05 1.7003e-14)
(-4.61976e-05 2.42792e-05 2.54111e-14)
(-4.31015e-05 2.00023e-05 3.93181e-14)
(-3.93627e-05 1.61607e-05 1.5049e-14)
(-3.51426e-05 1.29498e-05 -1.7703e-14)
(-3.06126e-05 1.03497e-05 2.27255e-14)
(-2.61634e-05 8.70703e-06 2.51825e-14)
(-2.19929e-05 8.08367e-06 1.82592e-14)
(-1.88267e-05 8.98428e-06 3.81562e-15)
(-1.77898e-05 1.06507e-05 -1.44096e-14)
(-1.93726e-05 1.14839e-05 1.18015e-14)
(-2.25676e-05 1.09829e-05 3.28032e-15)
(-2.70853e-05 9.31522e-06 -1.13707e-14)
(-3.20106e-05 7.06916e-06 1.2234e-15)
(-3.19431e-05 3.03701e-06 -1.18419e-16)
(-2.81369e-05 3.98406e-06 2.05563e-16)
(-3.18137e-05 5.03765e-06 6.67044e-16)
(-3.80444e-05 -1.20763e-07 -1.60466e-16)
(-3.71729e-05 -1.85131e-05 -2.50637e-16)
(-2.38559e-05 -8.52085e-05 5.63579e-16)
(-0.000142808 0.000204962 1.39428e-15)
(-5.26606e-05 4.25747e-05 7.38141e-15)
(-5.27013e-05 2.93944e-05 1.10947e-14)
(-4.90091e-05 2.03478e-05 8.06389e-14)
(-4.45688e-05 1.97823e-05 -1.01462e-13)
(-4.20329e-05 2.20427e-05 -3.28009e-14)
(-4.21563e-05 2.50276e-05 -3.11479e-14)
(-4.44693e-05 2.81115e-05 1.17307e-13)
(-4.73518e-05 3.03115e-05 -4.64458e-14)
(-4.93296e-05 3.06932e-05 -4.56718e-15)
(-4.9559e-05 2.92041e-05 1.8539e-14)
(-4.80525e-05 2.61325e-05 1.77851e-14)
(-4.53459e-05 2.23727e-05 1.20879e-14)
(-4.22127e-05 1.87345e-05 -7.68253e-14)
(-3.8583e-05 1.54685e-05 -2.81417e-14)
(-3.45571e-05 1.25926e-05 3.58169e-14)
(-3.02564e-05 1.0324e-05 1.4287e-15)
(-2.60846e-05 8.78306e-06 3.63859e-14)
(-2.22073e-05 8.39904e-06 -1.03901e-14)
(-1.92375e-05 9.2701e-06 1.50657e-15)
(-1.81262e-05 1.09645e-05 2.42352e-14)
(-1.93251e-05 1.1964e-05 -2.03627e-14)
(-2.22527e-05 1.17858e-05 -6.98974e-15)
(-2.65428e-05 1.03403e-05 6.58206e-15)
(-3.13796e-05 7.83275e-06 2.19788e-15)
(-3.15685e-05 3.70893e-06 -1.16908e-18)
(-2.82491e-05 4.27468e-06 -2.57082e-16)
(-3.1698e-05 5.00007e-06 6.3751e-16)
(-3.89824e-05 1.31456e-06 7.50596e-17)
(-4.54222e-05 2.02847e-06 -1.08031e-15)
(-5.6794e-05 3.69751e-06 5.43647e-17)
(-8.56606e-05 6.98094e-06 -3.16235e-15)
(-4.65024e-05 4.31644e-05 3.14461e-15)
(-4.68369e-05 3.02668e-05 1.01651e-13)
(-4.51668e-05 2.35123e-05 1.36655e-13)
(-4.36685e-05 2.33456e-05 -5.29995e-14)
(-4.34124e-05 2.36203e-05 -7.25299e-14)
(-4.44584e-05 2.50047e-05 -5.54111e-14)
(-4.68541e-05 2.68217e-05 -1.02164e-13)
(-4.92614e-05 2.80758e-05 -5.52865e-15)
(-5.04668e-05 2.79814e-05 -4.305e-14)
(-4.99435e-05 2.63719e-05 5.78122e-14)
(-4.78181e-05 2.35812e-05 1.93966e-14)
(-4.4805e-05 2.03341e-05 -3.07511e-14)
(-4.15888e-05 1.73287e-05 -3.26307e-15)
(-3.79938e-05 1.45576e-05 -2.54404e-14)
(-3.40696e-05 1.20697e-05 2.7909e-15)
(-2.99633e-05 1.0033e-05 -1.77679e-14)
(-2.602e-05 8.72452e-06 -3.33798e-14)
(-2.24549e-05 8.42562e-06 1.47957e-14)
(-1.96701e-05 9.30675e-06 -2.76254e-14)
(-1.85245e-05 1.08802e-05 -1.00664e-14)
(-1.93793e-05 1.2056e-05 6.28565e-15)
(-2.20107e-05 1.21151e-05 3.97113e-15)
(-2.60119e-05 1.10257e-05 1.56319e-15)
(-3.06879e-05 8.45756e-06 -1.03504e-15)
(-3.11315e-05 4.44417e-06 -4.35121e-16)
(-2.83137e-05 4.31296e-06 -7.72708e-17)
(-3.14732e-05 5.06149e-06 -1.03017e-15)
(-3.86135e-05 1.94943e-06 5.5326e-16)
(-4.54273e-05 1.48996e-06 3.06313e-15)
(-5.52921e-05 -9.01898e-07 5.11834e-17)
(-7.09974e-05 -9.35085e-06 2.49736e-15)
(-3.62013e-05 5.24475e-05 9.71643e-14)
(-4.09707e-05 4.01355e-05 6.43188e-14)
(-4.25805e-05 3.10238e-05 -1.65789e-13)
(-4.24458e-05 2.7213e-05 -1.14058e-13)
(-4.19301e-05 2.53243e-05 -3.87774e-14)
(-4.31596e-05 2.3993e-05 7.08571e-14)
(-4.55103e-05 2.4528e-05 7.32028e-14)
(-4.81067e-05 2.55832e-05 2.72944e-14)
(-5.04328e-05 2.61791e-05 2.50397e-14)
(-5.12141e-05 2.55828e-05 -2.67404e-14)
(-5.02449e-05 2.3703e-05 -8.73371e-14)
(-4.77338e-05 2.10464e-05 1.34147e-14)
(-4.45372e-05 1.82546e-05 2.7094e-14)
(-4.12066e-05 1.57747e-05 1.84377e-14)
(-3.75949e-05 1.34415e-05 5.10857e-14)
(-3.3714e-05 1.13484e-05 -2.84805e-14)
(-2.97583e-05 9.52696e-06 -2.12612e-14)
(-2.60369e-05 8.4597e-06 -1.5318e-14)
(-2.27187e-05 8.25431e-06 -3.15586e-15)
(-2.01253e-05 9.11801e-06 2.4638e-14)
(-1.89088e-05 1.0603e-05 1.64548e-14)
(-1.9512e-05 1.18988e-05 1.90872e-14)
(-2.17977e-05 1.22918e-05 6.46993e-15)
(-2.55418e-05 1.15332e-05 2.82239e-17)
(-2.99401e-05 9.21059e-06 2.21307e-15)
(-3.06549e-05 5.05771e-06 -3.08454e-16)
(-2.82769e-05 4.53677e-06 3.02084e-16)
(-3.12513e-05 4.92404e-06 -3.7977e-16)
(-3.82489e-05 1.85568e-06 3.17791e-17)
(-4.56078e-05 1.0688e-06 -1.7593e-15)
(-5.62338e-05 7.09437e-07 4.23967e-16)
(-7.24664e-05 -1.67005e-06 4.629e-15)
(-3.52879e-05 3.75997e-05 1.02133e-13)
(-3.8769e-05 3.10816e-05 1.87091e-14)
(-3.97827e-05 2.8492e-05 -2.79246e-15)
(-4.12611e-05 2.64364e-05 -9.34344e-14)
(-4.24863e-05 2.4043e-05 -3.88165e-14)
(-4.54432e-05 2.36181e-05 5.64921e-14)
(-4.86763e-05 2.44084e-05 6.4165e-14)
(-5.09054e-05 2.44719e-05 1.04452e-13)
(-5.15534e-05 2.33573e-05 9.98121e-14)
(-5.03314e-05 2.12733e-05 -2.10586e-14)
(-4.76825e-05 1.86719e-05 -8.11413e-15)
(-4.44123e-05 1.62664e-05 1.57312e-14)
(-4.10375e-05 1.41841e-05 3.48482e-15)
(-3.73644e-05 1.22407e-05 1.13503e-14)
(-3.35003e-05 1.04122e-05 3.09245e-14)
(-2.96269e-05 8.89832e-06 8.27554e-17)
(-2.61117e-05 7.97609e-06 -1.26204e-14)
(-2.30146e-05 7.90087e-06 -5.76307e-15)
(-2.05957e-05 8.6893e-06 2.63303e-15)
(-1.93452e-05 1.01225e-05 1.12641e-15)
(-1.97285e-05 1.14511e-05 -3.9703e-15)
(-2.16865e-05 1.21539e-05 -8.91557e-15)
(-2.51189e-05 1.169e-05 5.54199e-16)
(-2.91681e-05 9.68601e-06 -1.41929e-15)
(-3.00662e-05 5.54818e-06 4.54763e-16)
(-2.81827e-05 4.69914e-06 6.53996e-17)
(-3.10291e-05 4.90212e-06 2.16445e-16)
(-3.78743e-05 2.06639e-06 1.74701e-15)
(-4.54792e-05 9.46638e-07 2.52477e-15)
(-5.61152e-05 6.45231e-08 -1.92712e-15)
(-7.10059e-05 -3.86534e-06 -6.47331e-15)
(-3.4806e-05 3.04613e-05 9.94011e-15)
(-3.66203e-05 2.734e-05 7.45265e-14)
(-3.96778e-05 2.62552e-05 -9.30755e-14)
(-4.23548e-05 2.45308e-05 1.36615e-15)
(-4.50138e-05 2.33523e-05 2.55345e-14)
(-4.8399e-05 2.33421e-05 -1.08716e-13)
(-5.08143e-05 2.29227e-05 -1.63281e-13)
(-5.14065e-05 2.13412e-05 2.25664e-14)
(-5.01991e-05 1.89997e-05 2.43315e-14)
(-4.7586e-05 1.65319e-05 -1.70255e-14)
(-4.43786e-05 1.44006e-05 -1.64715e-14)
(-4.10023e-05 1.26212e-05 -3.75642e-14)
(-3.72733e-05 1.09487e-05 3.35299e-14)
(-3.34096e-05 9.34217e-06 2.93742e-14)
(-2.96256e-05 8.04245e-06 9.06525e-15)
(-2.62626e-05 7.32723e-06 3.06016e-14)
(-2.33638e-05 7.32777e-06 2.85563e-14)
(-2.10688e-05 8.07465e-06 1.1427e-15)
(-1.9816e-05 9.38965e-06 -4.24724e-14)
(-1.99881e-05 1.0749e-05 -9.03082e-15)
(-2.16744e-05 1.16507e-05 -2.44319e-15)
(-2.47373e-05 1.15285e-05 -7.61507e-15)
(-2.84477e-05 9.7918e-06 -4.13476e-17)
(-2.94432e-05 5.96497e-06 -9.25404e-17)
(-2.80555e-05 4.7401e-06 2.19277e-16)
(-3.07865e-05 4.91612e-06 -2.34813e-16)
(-3.74655e-05 2.19278e-06 -1.81242e-16)
(-4.52252e-05 5.9888e-07 2.33854e-17)
(-5.58711e-05 -8.94658e-07 -4.45258e-15)
(-6.97191e-05 -4.80109e-06 2.72857e-15)
(-3.4314e-05 2.70963e-05 -7.00858e-14)
(-3.58377e-05 2.39068e-05 7.50872e-14)
(-4.09139e-05 2.45166e-05 5.83728e-14)
(-4.46136e-05 2.38418e-05 7.79333e-14)
(-4.78467e-05 2.28743e-05 7.72711e-14)
(-5.02548e-05 2.15631e-05 -5.42473e-14)
(-5.08832e-05 1.952e-05 -5.91121e-14)
(-4.98087e-05 1.69784e-05 4.22782e-14)
(-4.74014e-05 1.46186e-05 1.36121e-14)
(-4.43723e-05 1.26599e-05 2.77791e-15)
(-4.10405e-05 1.11269e-05 -5.28825e-15)
(-3.73e-05 9.58346e-06 -8.11509e-14)
(-3.34134e-05 8.18723e-06 -3.57934e-14)
(-2.97176e-05 7.04509e-06 -1.46657e-14)
(-2.64946e-05 6.51185e-06 -3.10047e-14)
(-2.37453e-05 6.55808e-06 -1.60432e-14)
(-2.15689e-05 7.27019e-06 3.66982e-15)
(-2.03112e-05 8.48417e-06 2.51783e-14)
(-2.0329e-05 9.83484e-06 1.37403e-15)
(-2.17425e-05 1.08848e-05 1.15437e-14)
(-2.44398e-05 1.10233e-05 8.95647e-15)
(-2.77379e-05 9.59896e-06 1.08866e-15)
(-2.87716e-05 6.14382e-06 -1.28707e-15)
(-2.78526e-05 4.77246e-06 -2.04666e-16)
(-3.05458e-05 4.91831e-06 -2.23924e-16)
(-3.7019e-05 2.43464e-06 3.64181e-16)
(-4.48716e-05 4.40164e-07 -2.99279e-16)
(-5.5519e-05 -1.77852e-06 1.83674e-15)
(-6.84248e-05 -6.36808e-06 2.59484e-15)
(-3.44379e-05 2.36469e-05 9.77222e-14)
(-3.65642e-05 2.18202e-05 6.41965e-15)
(-4.41805e-05 2.43904e-05 -5.2181e-14)
(-4.70034e-05 2.24921e-05 4.48757e-14)
(-4.92648e-05 2.02995e-05 9.5572e-14)
(-5.00493e-05 1.78002e-05 1.66068e-14)
(-4.92026e-05 1.52037e-05 -6.74009e-14)
(-4.71134e-05 1.29119e-05 3.3744e-14)
(-4.43266e-05 1.11432e-05 1.38587e-14)
(-4.10977e-05 9.65335e-06 1.93069e-15)
(-3.73675e-05 8.21671e-06 1.99988e-15)
(-3.35229e-05 6.89849e-06 -5.01719e-14)
(-2.99057e-05 5.96549e-06 6.39127e-15)
(-2.68105e-05 5.51305e-06 3.20087e-15)
(-2.4174e-05 5.63038e-06 2.24463e-16)
(-2.20961e-05 6.24752e-06 -3.34443e-16)
(-2.08227e-05 7.393e-06 9.5362e-15)
(-2.07181e-05 8.65396e-06 1.79725e-14)
(-2.18723e-05 9.81548e-06 -8.92393e-15)
(-2.42165e-05 1.00979e-05 -6.21523e-15)
(-2.70947e-05 9.03902e-06 1.65612e-15)
(-2.81489e-05 5.98396e-06 1.03162e-15)
(-2.76444e-05 4.67862e-06 -3.46412e-16)
(-3.03147e-05 4.84819e-06 -1.55501e-16)
(-3.65315e-05 2.59299e-06 -1.80209e-15)
(-4.44124e-05 1.75046e-07 2.26611e-15)
(-5.50512e-05 -2.64464e-06 1.93872e-15)
(-6.71219e-05 -7.79062e-06 -8.87206e-15)
(-3.55657e-05 2.18612e-05 -2.06117e-14)
(-3.94367e-05 2.13215e-05 3.45131e-14)
(-4.69625e-05 2.26695e-05 -2.64683e-14)
(-4.80158e-05 1.90251e-05 -3.31974e-14)
(-4.89632e-05 1.61251e-05 1.41588e-14)
(-4.8393e-05 1.35593e-05 3.36164e-14)
(-4.66818e-05 1.13897e-05 -4.7946e-14)
(-4.41633e-05 9.75377e-06 1.00895e-14)
(-4.11018e-05 8.25923e-06 2.9253e-14)
(-3.74272e-05 6.83354e-06 2.80915e-14)
(-3.36694e-05 5.56303e-06 2.8182e-14)
(-3.01661e-05 4.7566e-06 1.28358e-14)
(-2.71737e-05 4.39484e-06 5.79823e-15)
(-2.46355e-05 4.53392e-06 9.13028e-15)
(-2.26222e-05 5.09633e-06 1.09398e-14)
(-2.13575e-05 6.12565e-06 -1.34851e-14)
(-2.1138e-05 7.31799e-06 -1.64102e-14)
(-2.20742e-05 8.50208e-06 -7.62923e-16)
(-2.4053e-05 8.93567e-06 -2.97495e-15)
(-2.65181e-05 8.15512e-06 -1.56542e-15)
(-2.75167e-05 5.60922e-06 -4.87712e-16)
(-2.74234e-05 4.43108e-06 2.58038e-16)
(-3.00766e-05 4.71204e-06 1.64905e-15)
(-3.59931e-05 2.66661e-06 -1.76963e-15)
(-4.3838e-05 3.12466e-08 -4.73551e-15)
(-5.44641e-05 -3.44559e-06 6.02243e-15)
(-6.58518e-05 -9.14817e-06 2.13976e-15)
(-3.68741e-05 1.99772e-05 -3.65763e-14)
(-4.41831e-05 2.07904e-05 -5.92268e-14)
(-4.73635e-05 1.82674e-05 -2.1536e-14)
(-4.76916e-05 1.46093e-05 -2.56363e-14)
(-4.7602e-05 1.20671e-05 -1.09424e-15)
(-4.61694e-05 1.00681e-05 4.38309e-15)
(-4.39302e-05 8.40776e-06 -4.33723e-14)
(-4.09832e-05 6.91424e-06 7.73075e-15)
(-3.74631e-05 5.40453e-06 -2.55348e-14)
(-3.3831e-05 4.23185e-06 -1.64598e-14)
(-3.04772e-05 3.45717e-06 3.05059e-14)
(-2.75834e-05 3.18887e-06 -1.76401e-14)
(-2.51271e-05 3.28447e-06 -3.17493e-14)
(-2.31614e-05 3.82172e-06 2.42535e-15)
(-2.18954e-05 4.68699e-06 1.6904e-14)
(-2.15875e-05 5.81481e-06 2.45109e-15)
(-2.23175e-05 6.92145e-06 -3.65685e-15)
(-2.39598e-05 7.49549e-06 1.08231e-15)
(-2.60347e-05 6.9192e-06 2.94347e-16)
(-2.69915e-05 4.94342e-06 -6.6146e-16)
(-2.72334e-05 4.01219e-06 4.49092e-16)
(-2.98531e-05 4.33803e-06 -1.26737e-15)
(-3.54503e-05 2.59311e-06 -1.32199e-16)
(-4.31626e-05 -2.02185e-07 -2.16855e-16)
(-5.37604e-05 -4.29051e-06 2.06666e-15)
(-6.45502e-05 -1.04043e-05 8.07172e-15)
(-3.62944e-05 1.94106e-05 -2.1852e-14)
(-3.92942e-05 1.74937e-05 -5.97838e-14)
(-4.67718e-05 1.77035e-05 -9.68115e-15)
(-4.64867e-05 1.32553e-05 4.24499e-15)
(-4.66471e-05 1.07127e-05 -2.73764e-14)
(-4.55739e-05 8.8169e-06 5.82453e-14)
(-4.35568e-05 7.12e-06 5.85406e-14)
(-4.0768e-05 5.53778e-06 -1.39516e-15)
(-3.74057e-05 4.00464e-06 2.07569e-14)
(-3.39798e-05 2.86796e-06 -1.46692e-14)
(-3.07844e-05 2.14586e-06 1.59345e-14)
(-2.8004e-05 1.88462e-06 3.72975e-14)
(-2.56153e-05 1.95568e-06 1.55835e-15)
(-2.36953e-05 2.40596e-06 -2.66307e-14)
(-2.24238e-05 3.15555e-06 -8.15147e-15)
(-2.2052e-05 4.18488e-06 7.64598e-15)
(-2.25913e-05 5.25143e-06 3.80738e-15)
(-2.39323e-05 5.86909e-06 6.89441e-15)
(-2.56225e-05 5.54333e-06 -2.89433e-15)
(-2.6531e-05 4.04131e-06 4.78891e-17)
(-2.70421e-05 3.43755e-06 -1.94211e-16)
(-2.96318e-05 3.74256e-06 1.13696e-16)
(-3.48673e-05 2.38318e-06 2.43605e-16)
(-4.23634e-05 -5.05698e-07 -1.76911e-15)
(-5.29328e-05 -4.9862e-06 -1.35641e-14)
(-6.32391e-05 -1.1539e-05 -1.42078e-14)
(-3.69674e-05 1.59979e-05 -4.6034e-14)
(-4.28422e-05 1.51516e-05 9.54304e-15)
(-4.6033e-05 1.26769e-05 4.26142e-14)
(-4.57337e-05 9.42777e-06 2.8693e-14)
(-4.50253e-05 7.6405e-06 -2.17627e-14)
(-4.31019e-05 5.90859e-06 1.93877e-14)
(-4.04887e-05 4.1617e-06 -1.61457e-14)
(-3.73019e-05 2.66947e-06 6.79293e-16)
(-3.41111e-05 1.5213e-06 1.84827e-14)
(-3.10889e-05 8.56285e-07 -1.61891e-14)
(-2.84285e-05 5.43956e-07 1.64405e-14)
(-2.61085e-05 6.07838e-07 1.33424e-14)
(-2.42261e-05 9.28746e-07 1.02307e-14)
(-2.29574e-05 1.57203e-06 -8.59347e-15)
(-2.25354e-05 2.42899e-06 -6.72722e-15)
(-2.29041e-05 3.48717e-06 -2.51483e-15)
(-2.39645e-05 4.08933e-06 -4.99826e-15)
(-2.53309e-05 4.00493e-06 5.99266e-16)
(-2.61865e-05 2.93175e-06 1.96782e-15)
(-2.69128e-05 2.64311e-06 -2.08788e-16)
(-2.94281e-05 2.92314e-06 1.18718e-15)
(-3.43135e-05 1.86194e-06 -7.04357e-16)
(-4.15063e-05 -9.30267e-07 1.52935e-15)
(-5.20074e-05 -5.77131e-06 9.62887e-15)
(-6.18383e-05 -1.26811e-05 7.20972e-15)
(-3.62355e-05 1.51275e-05 -7.79654e-14)
(-3.8217e-05 1.25102e-05 -4.3579e-14)
(-4.51554e-05 1.18392e-05 1.25075e-14)
(-4.44755e-05 8.4316e-06 -1.09355e-14)
(-4.43881e-05 6.52966e-06 -3.42819e-14)
(-4.2541e-05 4.68476e-06 -5.21842e-14)
(-4.00765e-05 2.87893e-06 2.35337e-14)
(-3.7135e-05 1.36406e-06 -2.29738e-14)
(-3.41773e-05 2.56569e-07 -1.05775e-14)
(-3.13518e-05 -4.3123e-07 -2.23705e-14)
(-2.8818e-05 -7.73641e-07 -4.10714e-14)
(-2.65715e-05 -7.99499e-07 -1.27657e-14)
(-2.47236e-05 -5.72736e-07 1.32924e-14)
(-2.34611e-05 -6.62437e-08 1.14181e-14)
(-2.30047e-05 7.19847e-07 6.84934e-16)
(-2.32443e-05 1.68321e-06 4.40464e-15)
(-2.40358e-05 2.33551e-06 -2.5427e-15)
(-2.51266e-05 2.38323e-06 -6.59345e-17)
(-2.59052e-05 1.74024e-06 7.90563e-16)
(-2.67954e-05 1.62966e-06 -5.64654e-16)
(-2.92127e-05 1.95463e-06 2.56311e-16)
(-3.37475e-05 1.08487e-06 1.23971e-15)
(-4.05684e-05 -1.48479e-06 -1.11473e-15)
(-5.08775e-05 -6.53875e-06 -1.63809e-15)
(-6.03926e-05 -1.36798e-05 7.72265e-15)
(-3.61146e-05 1.12638e-05 -8.89568e-14)
(-4.12908e-05 1.01604e-05 -1.20441e-14)
(-4.42675e-05 8.23369e-06 6.61012e-15)
(-4.30304e-05 5.52912e-06 4.73017e-14)
(-4.18438e-05 3.57999e-06 1.07966e-14)
(-3.94847e-05 1.72378e-06 -1.75584e-14)
(-3.68348e-05 1.80541e-07 3.19506e-14)
(-3.41375e-05 -8.97507e-07 9.19118e-16)
(-3.15336e-05 -1.64922e-06 2.48673e-14)
(-2.91469e-05 -2.01905e-06 1.12479e-14)
(-2.69929e-05 -2.16368e-06 2.94387e-15)
(-2.51891e-05 -2.03111e-06 2.15214e-15)
(-2.39658e-05 -1.69731e-06 -6.94543e-15)
(-2.34842e-05 -9.30315e-07 -3.21047e-15)
(-2.35979e-05 -8.30044e-08 1.16744e-15)
(-2.4169e-05 6.11403e-07 1.3199e-15)
(-2.50115e-05 7.51187e-07 7.60277e-16)
(-2.57421e-05 4.43737e-07 -7.29512e-16)
(-2.67165e-05 4.81644e-07 4.34163e-17)
(-2.90435e-05 7.71904e-07 -2.52949e-15)
(-3.32311e-05 8.60714e-08 1.77992e-15)
(-3.96661e-05 -2.34216e-06 6.53229e-15)
(-4.95778e-05 -7.33983e-06 -2.5732e-15)
(-5.88971e-05 -1.48566e-05 -8.08243e-15)
(-3.4337e-05 9.96059e-06 2.50406e-14)
(-3.8658e-05 9.24868e-06 -2.6772e-15)
(-4.26899e-05 7.8673e-06 2.65376e-14)
(-4.19595e-05 5.00518e-06 -2.16545e-14)
(-4.08848e-05 2.73993e-06 1.36284e-14)
(-3.88287e-05 7.6016e-07 -1.45132e-14)
(-3.64196e-05 -7.88408e-07 1.04243e-14)
(-3.39917e-05 -1.93219e-06 1.15767e-14)
(-3.16098e-05 -2.72798e-06 -4.08598e-15)
(-2.93885e-05 -3.21741e-06 1.69033e-14)
(-2.73307e-05 -3.44627e-06 -9.9263e-15)
(-2.55841e-05 -3.46227e-06 -1.06631e-14)
(-2.44052e-05 -3.17871e-06 9.05076e-15)
(-2.39469e-05 -2.51993e-06 -3.94524e-15)
(-2.39446e-05 -1.69819e-06 -8.01678e-15)
(-2.43266e-05 -1.0411e-06 4.13728e-16)
(-2.49486e-05 -7.91671e-07 4.71074e-16)
(-2.56212e-05 -9.03918e-07 -8.83006e-16)
(-2.66287e-05 -7.52029e-07 9.72829e-16)
(-2.88468e-05 -5.36257e-07 -7.82951e-16)
(-3.26963e-05 -1.07952e-06 -5.88038e-16)
(-3.87015e-05 -3.37453e-06 3.34569e-17)
(-4.80859e-05 -8.2124e-06 2.52488e-15)
(-5.72993e-05 -1.5956e-05 4.35029e-16)
(-3.34997e-05 9.43702e-06 1.76214e-14)
(-3.4291e-05 7.63009e-06 -5.96955e-15)
(-4.1964e-05 8.08717e-06 5.20579e-15)
(-4.0503e-05 4.5655e-06 6.02653e-15)
(-3.96814e-05 2.14687e-06 -1.20488e-14)
(-3.79349e-05 4.64304e-08 1.32331e-14)
(-3.58196e-05 -1.55018e-06 -5.32161e-15)
(-3.36823e-05 -2.80209e-06 6.24151e-15)
(-3.15448e-05 -3.66064e-06 -2.0431e-14)
(-2.95113e-05 -4.27057e-06 -4.1581e-15)
(-2.75762e-05 -4.60578e-06 1.63892e-14)
(-2.59335e-05 -4.75918e-06 -8.85759e-15)
(-2.4843e-05 -4.49147e-06 -9.26691e-15)
(-2.43936e-05 -3.92088e-06 4.51086e-15)
(-2.43056e-05 -3.14652e-06 5.42036e-15)
(-2.45084e-05 -2.52994e-06 2.96004e-15)
(-2.49608e-05 -2.24291e-06 -1.93755e-15)
(-2.55655e-05 -2.222e-06 3.06906e-16)
(-2.65827e-05 -2.05301e-06 -4.6444e-18)
(-2.86764e-05 -1.89817e-06 2.61301e-15)
(-3.22131e-05 -2.42081e-06 -2.93066e-15)
(-3.77651e-05 -4.55436e-06 -5.29493e-15)
(-4.65807e-05 -9.30092e-06 1.26503e-15)
(-5.55998e-05 -1.70797e-05 3.89904e-15)
(-3.26532e-05 7.25757e-06 -5.35641e-15)
(-3.69608e-05 6.52635e-06 1.10043e-14)
(-4.03218e-05 4.84172e-06 6.58947e-15)
(-3.81653e-05 1.63477e-06 -2.65217e-14)
(-3.69606e-05 -3.59797e-07 -2.28004e-14)
(-3.50881e-05 -2.16632e-06 -1.42407e-14)
(-3.32228e-05 -3.47754e-06 7.71991e-15)
(-3.13562e-05 -4.47573e-06 2.19051e-14)
(-2.9507e-05 -5.16614e-06 -1.47458e-14)
(-2.7722e-05 -5.65842e-06 -2.40148e-15)
(-2.61948e-05 -5.83282e-06 8.55886e-15)
(-2.52283e-05 -5.6429e-06 -1.64311e-15)
(-2.48004e-05 -5.09131e-06 -3.97135e-16)
(-2.46426e-05 -4.41281e-06 1.02482e-15)
(-2.4689e-05 -3.83785e-06 4.4715e-15)
(-2.49822e-05 -3.57616e-06 -9.28817e-16)
(-2.55136e-05 -3.48435e-06 -1.29663e-15)
(-2.65037e-05 -3.36326e-06 -6.07479e-16)
(-2.84575e-05 -3.28107e-06 2.95209e-16)
(-3.16829e-05 -3.85059e-06 1.68639e-15)
(-3.67521e-05 -5.85456e-06 2.66509e-15)
(-4.49366e-05 -1.05034e-05 3.21827e-15)
(-5.37016e-05 -1.82532e-05 -2.95629e-15)
(-3.25073e-05 6.84629e-06 -4.89228e-14)
(-3.25761e-05 5.27176e-06 -2.74707e-14)
(-3.90595e-05 4.7226e-06 2.30633e-15)
(-3.66926e-05 1.5101e-06 -2.43888e-15)
(-3.5699e-05 -6.84646e-07 -2.05945e-15)
(-3.41076e-05 -2.57667e-06 1.24846e-14)
(-3.2609e-05 -4.07375e-06 -6.07653e-16)
(-3.09986e-05 -5.13818e-06 -4.07948e-15)
(-2.9371e-05 -5.93436e-06 -3.41419e-15)
(-2.77718e-05 -6.49067e-06 2.59251e-15)
(-2.6434e-05 -6.66502e-06 5.31802e-15)
(-2.55893e-05 -6.50206e-06 4.45194e-15)
(-2.5202e-05 -6.01628e-06 4.0443e-15)
(-2.49596e-05 -5.42158e-06 1.85911e-15)
(-2.48744e-05 -4.94776e-06 2.08362e-15)
(-2.50362e-05 -4.73581e-06 4.18607e-16)
(-2.54959e-05 -4.6591e-06 6.2754e-17)
(-2.64396e-05 -4.60732e-06 1.51168e-16)
(-2.82612e-05 -4.65117e-06 1.1574e-15)
(-3.11864e-05 -5.29584e-06 1.6467e-15)
(-3.57849e-05 -7.27158e-06 -5.45021e-15)
(-4.33105e-05 -1.17869e-05 -6.10153e-15)
(-5.16879e-05 -1.962e-05 4.5643e-15)
(-3.14937e-05 4.89767e-06 -1.14964e-15)
(-3.43868e-05 3.8443e-06 7.5517e-15)
(-3.64958e-05 1.97187e-06 1.89295e-14)
(-3.38743e-05 -9.42967e-07 -6.15883e-15)
(-3.29328e-05 -2.97003e-06 1.12584e-14)
(-3.16964e-05 -4.55972e-06 9.19945e-15)
(-3.0508e-05 -5.72533e-06 3.00083e-15)
(-2.91e-05 -6.57657e-06 2.19093e-15)
(-2.77366e-05 -7.08736e-06 -8.58815e-15)
(-2.65993e-05 -7.2756e-06 -5.36975e-15)
(-2.58797e-05 -7.09614e-06 2.93997e-15)
(-2.55277e-05 -6.7069e-06 1.29125e-15)
(-2.52233e-05 -6.22405e-06 -7.01164e-15)
(-2.50041e-05 -5.88186e-06 -6.36989e-15)
(-2.50524e-05 -5.75107e-06 1.99167e-15)
(-2.54378e-05 -5.73947e-06 -5.44436e-16)
(-2.63128e-05 -5.79314e-06 5.67966e-16)
(-2.79827e-05 -5.98324e-06 -3.30746e-15)
(-3.0609e-05 -6.7495e-06 1.19256e-15)
(-3.47236e-05 -8.73678e-06 7.32017e-15)
(-4.15225e-05 -1.31763e-05 -1.84262e-15)
(-4.94632e-05 -2.10303e-05 -1.93463e-15)
(-3.00441e-05 4.58365e-06 -3.76454e-15)
(-3.1771e-05 3.52201e-06 -1.31349e-14)
(-3.4781e-05 2.01288e-06 -3.14332e-14)
(-3.22184e-05 -1.26494e-06 9.35476e-15)
(-3.15339e-05 -3.32822e-06 -1.00168e-14)
(-3.07535e-05 -5.01687e-06 6.19411e-15)
(-2.98313e-05 -6.20513e-06 -1.53593e-14)
(-2.88087e-05 -7.05999e-06 -7.6654e-15)
(-2.76742e-05 -7.48238e-06 2.24672e-14)
(-2.67431e-05 -7.59055e-06 -1.27649e-14)
(-2.61511e-05 -7.42932e-06 -5.46831e-15)
(-2.58017e-05 -7.12374e-06 -2.14893e-15)
(-2.54272e-05 -6.80803e-06 -2.08583e-15)
(-2.51056e-05 -6.61462e-06 5.63687e-15)
(-2.50568e-05 -6.60438e-06 2.07253e-15)
(-2.53763e-05 -6.68179e-06 1.10413e-15)
(-2.61803e-05 -6.87607e-06 -1.25133e-16)
(-2.77011e-05 -7.22814e-06 2.38564e-15)
(-3.0045e-05 -8.15552e-06 -2.25812e-15)
(-3.3698e-05 -1.01783e-05 -6.73031e-15)
(-3.97698e-05 -1.45938e-05 9.94212e-16)
(-4.71702e-05 -2.2404e-05 4.68858e-15)
(-2.97139e-05 4.23347e-06 4.88589e-15)
(-2.80209e-05 2.88819e-06 1.70075e-14)
(-3.33234e-05 1.59882e-06 9.47927e-15)
(-3.04877e-05 -1.54851e-06 -6.35246e-15)
(-3.00616e-05 -3.75795e-06 -3.23248e-15)
(-2.95619e-05 -5.37045e-06 -1.42265e-14)
(-2.91599e-05 -6.64046e-06 1.93692e-14)
(-2.84334e-05 -7.30046e-06 3.88027e-15)
(-2.76537e-05 -7.6509e-06 -1.07217e-16)
(-2.68574e-05 -7.65198e-06 1.62631e-14)
(-2.63326e-05 -7.54139e-06 2.06281e-15)
(-2.59764e-05 -7.37434e-06 -1.30641e-15)
(-2.55217e-05 -7.23394e-06 -9.60722e-16)
(-2.5121e-05 -7.21588e-06 1.37383e-15)
(-2.49922e-05 -7.33573e-06 3.34068e-17)
(-2.52401e-05 -7.54038e-06 -5.76556e-16)
(-2.59538e-05 -7.88146e-06 -4.82807e-16)
(-2.73147e-05 -8.41706e-06 -7.22176e-18)
(-2.93741e-05 -9.51912e-06 -1.66007e-15)
(-3.25491e-05 -1.16219e-05 -5.97841e-15)
(-3.78678e-05 -1.60232e-05 -5.35531e-15)
(-4.46689e-05 -2.37936e-05 -7.04146e-15)
(-2.72969e-05 2.2795e-06 -6.84261e-15)
(-2.81138e-05 5.95341e-07 1.5711e-15)
(-3.04057e-05 -1.64677e-06 2.10454e-14)
(-2.80449e-05 -4.24175e-06 -8.36196e-15)
(-2.83972e-05 -5.7537e-06 -7.52951e-16)
(-2.82794e-05 -6.78937e-06 8.66776e-15)
(-2.81665e-05 -7.33672e-06 -1.70574e-15)
(-2.75487e-05 -7.52083e-06 -4.53594e-15)
(-2.69624e-05 -7.49688e-06 2.17004e-15)
(-2.64408e-05 -7.4539e-06 -7.98669e-16)
(-2.6055e-05 -7.46758e-06 -5.80587e-15)
(-2.55374e-05 -7.51492e-06 2.83941e-15)
(-2.50746e-05 -7.6735e-06 -3.3228e-16)
(-2.48947e-05 -7.92941e-06 -6.63178e-16)
(-2.50776e-05 -8.27621e-06 -1.35983e-16)
(-2.57056e-05 -8.77425e-06 -1.76076e-16)
(-2.69056e-05 -9.49437e-06 -1.08842e-15)
(-2.87e-05 -1.07744e-05 2.76608e-15)
(-3.14246e-05 -1.29751e-05 1.0958e-14)
(-3.60183e-05 -1.73539e-05 8.81728e-15)
(-4.21095e-05 -2.50875e-05 5.98557e-15)
(-2.65117e-05 1.37245e-06 2.11749e-14)
(-2.56246e-05 -2.55677e-07 -1.00558e-15)
(-2.83577e-05 -2.25771e-06 -1.74745e-14)
(-2.64691e-05 -4.43731e-06 1.16324e-14)
(-2.71795e-05 -5.81649e-06 1.87872e-14)
(-2.76293e-05 -6.47623e-06 -8.30512e-15)
(-2.77562e-05 -7.00622e-06 3.49504e-15)
(-2.75164e-05 -7.03467e-06 -8.36779e-16)
(-2.69554e-05 -7.15986e-06 -1.86025e-14)
(-2.64408e-05 -7.28558e-06 4.53439e-15)
(-2.59975e-05 -7.48862e-06 5.09533e-15)
(-2.54298e-05 -7.73616e-06 -8.00836e-16)
(-2.4925e-05 -8.04931e-06 3.207e-16)
(-2.47e-05 -8.45667e-06 -9.76146e-16)