/*--------------------------------*- C++ -*----------------------------------*\
| =========                 |                                                 |
| \\      /  F ield         | OpenFOAM: The Open Source CFD Toolbox           |
|  \\    /   O peration     | Version:  2306                                  |
|   \\  /    A nd           | Website:  www.openfoam.com                      |
|    \\/     M anipulation  |                                                 |
\*---------------------------------------------------------------------------*/
FoamFile
{
    version     2.0;
    format      ascii;
    arch        "LSB;label=32;scalar=64";
    class       volScalarField;
    location    "225";
    object      magR;
}
// * * * * * * * * * * * * * * * * * * * * * * * * * * * * * * * * * * * * * //

dimensions      [0 2 -2 0 0 0 0];

internalField   nonuniform List<scalar> 
10720
(
0.0234606
0.0273734
0.0323743
0.039167
0.0472157
0.0574617
0.0705636
0.0867946
0.107404
0.133698
0.167658
0.212506
0.27266
0.355421
0.473162
0.645602
0.910527
1.32071
2.03404
3.16399
5.64316
9.54166
21.9669
43.5902
48.9308
46.9883
46.1275
46.883
47.8605
48.0757
47.3918
45.937
43.6323
40.5086
36.4971
31.685
25.184
18.848
7.18857
0.0199657
0.0171305
0.0139525
0.0112265
0.00865285
0.00633341
0.00446197
0.00334181
0.00351083
0.00475811
0.00707848
0.0106585
0.0159279
0.0235644
0.0344307
0.0498421
0.0720027
0.105042
0.1566
0.240515
0.384371
0.638761
1.1244
2.05855
4.09769
8.37713
18.7347
38.5603
54.5836
61.4485
63.3937
63.7107
63.3421
62.4444
61.0631
59.2739
56.6561
53.6047
43.8986
0.00360184
0.00358166
0.00354037
0.00343801
0.00327973
0.00309775
0.00288305
0.00264162
0.00240268
0.00216831
0.00194506
0.0017886
0.00176475
0.00193576
0.00250699
0.0039364
0.00749384
0.0157168
0.0376662
0.0927325
0.270511
0.754225
2.27479
7.33523
14.4561
21.8179
28.7589
33.7582
34.9075
32.1782
27.4936
22.682
18.7624
15.7579
13.4533
11.6288
10.3569
9.08986
10.4569
0.00356931
0.00352108
0.00342242
0.00327613
0.00307588
0.00281161
0.00250182
0.00220169
0.00192312
0.00164651
0.00138364
0.00115614
0.000963876
0.000800748
0.000662493
0.000546027
0.000447248
0.000363683
0.000290469
0.000223625
0.000157561
9.30545e-05
3.22216e-05
5.22348e-06
1.40225e-05
0.00192874
0.0104658
0.0842019
0.282924
0.55309
0.826429
1.06694
1.26914
1.44676
1.61274
1.7836
1.96442
2.36848
3.29807
0.00241758
0.00239833
0.0023441
0.00226122
0.00217454
0.00207926
0.0019829
0.00189623
0.00182167
0.00176377
0.00171905
0.0016931
0.00168606
0.00170009
0.00170574
0.00165789
0.001428
0.00107333
3.00415e-05
0.0011679
0.0158003
0.00752007
0.00239907
0.0316373
0.221813
0.740162
1.88331
4.2723
8.51676
14.2169
19.4989
22.2413
21.9029
19.7438
17.1543
14.7024
12.7788
10.606
11.9297
0.00243654
0.00243363
0.00242722
0.00238409
0.00230738
0.00217836
0.00200069
0.00179821
0.00161008
0.00141615
0.00120763
0.00100583
0.000825212
0.000669642
0.000541206
0.000437529
0.000356748
0.000295488
0.000250941
0.00021895
0.000196922
0.00018264
0.000174815
0.000170538
0.000170352
0.000169207
0.00017994
0.00010645
0.000763848
0.00504692
0.0142833
0.0301107
0.0679158
0.142013
0.251295
0.384997
0.530193
0.634395
1.08346
0.00204001
0.00204421
0.00203391
0.00201693
0.00198197
0.00192993
0.00186507
0.00178411
0.00169159
0.00158925
0.00147933
0.00136337
0.0012425
0.00111882
0.000993548
0.000862217
0.000729727
0.000610967
0.000485741
0.000343074
3.16044e-05
0.000896425
0.00236978
0.00909187
0.0276048
0.052142
0.0743578
0.00177535
0.0309182
0.371749
1.73597
4.89333
9.39438
13.2887
15.0828
14.9719
14.1299
12.4103
13.3568
0.00201817
0.00198509
0.00193314
0.00187055
0.00179201
0.00168907
0.00156891
0.00144116
0.00130798
0.00116338
0.00101407
0.000874158
0.000750519
0.00064393
0.000553864
0.000478359
0.000416239
0.000365641
0.000325029
0.000291968
0.000265102
0.000242535
0.000222306
0.000201028
0.00017916
0.00016098
0.000147233
0.000137381
0.000125286
0.00011013
8.18226e-05
5.18159e-05
0.000416258
0.000705431
0.00266378
0.014264
0.0468793
0.118632
0.430954
0.00153083
0.0015281
0.00151612
0.00149481
0.00146186
0.0014172
0.00136321
0.00130073
0.00123179
0.0011606
0.00108945
0.0010212
0.000958883
0.00090442
0.000859069
0.000821103
0.000781417
0.000732104
0.0006725
0.000587506
0.000417672
8.66539e-05
2.01944e-05
4.84472e-06
0
0
0
0.000725575
0.0235746
0.0859083
0.00803397
0.0647409
0.318474
2.096
5.64909
9.44278
11.9461
12.5257
13.997
0.00152687
0.00151607
0.00149457
0.00146014
0.00141157
0.00134275
0.00126044
0.0011721
0.00107785
0.000974402
0.000866829
0.000761585
0.000662731
0.00057198
0.000490567
0.000419018
0.000357508
0.000305765
0.000263189
0.000228482
0.000200468
0.000177632
0.000158349
0.000139958
0.000121264
0.000103997
9.02882e-05
8.08144e-05
7.66806e-05
7.07878e-05
8.68558e-05
2.00313e-05
0.000135683
0.000663086
0.00018224
0.000607624
0.00165677
0.0039294
0.0839261
0.00125465
0.00125999
0.00125947
0.00125495
0.00124262
0.00122263
0.00119586
0.00116126
0.00111954
0.00107183
0.00101854
0.000960924
0.000900356
0.000837906
0.000774686
0.000709253
0.000637975
0.000564745
0.00049566
0.000436525
0.000387265
0.000335386
0.000228267
6.26607e-05
1.30284e-05
7.08422e-06
4.04551e-06
5.05686e-07
0
0
0.00146445
0.0398784
0.0515351
0.130188
0.18708
1.98146
5.87501
9.80553
13.243
0.00124328
0.00122758
0.00120477
0.00117463
0.00113591
0.00108501
0.00102647
0.000963636
0.000895275
0.000819738
0.000740655
0.000661949
0.000586629
0.000516441
0.000452615
0.000395951
0.000346697
0.000304712
0.000269507
0.000240177
0.000215697
0.000194766
0.000175942
0.00015721
0.000137751
0.00011922
0.000103054
8.95237e-05
7.81738e-05
6.87342e-05
6.06247e-05
5.3224e-05
4.23275e-05
2.99745e-05
1.6864e-05
7.70268e-05
0.000283023
0.000898277
0.0096841
0.00101499
0.00101944
0.00102015
0.00101756
0.00100945
0.000995418
0.000975789
0.000949991
0.000918248
0.000881436
0.000840187
0.000795532
0.000748847
0.000701456
0.000654475
0.000609452
0.000568638
0.00053067
0.000492001
0.000451426
0.000412811
0.000376527
0.000347102
0.00029558
0.000212247
0.000126746
6.15199e-05
6.37973e-06
4.91102e-06
1.36715e-06
0
0
0.0074235
0.0375219
0.0238199
0.152339
0.860136
4.78446
10.4385
0.00100665
0.000995367
0.000978969
0.00095637
0.000927023
0.000889379
0.000847102
0.000800998
0.000750215
0.000694561
0.000636076
0.000576955
0.000518989
0.000463411
0.000411268
0.000363387
0.000320232
0.000282085
0.000248946
0.000220426
0.000195974
0.000174776
0.000155781
0.000137527
0.000119247
0.000101924
8.66949e-05
7.38788e-05
6.32105e-05
5.45511e-05
4.80781e-05
4.38863e-05
4.15071e-05
3.81983e-05
2.74515e-05
8.09663e-06
1.44743e-06
0
0.00208282
0.000841233
0.000846969
0.000850377
0.000851745
0.000849418
0.000843053
0.000832898
0.000818213
0.000798994
0.00077565
0.00074815
0.000717027
0.000682892
0.000646307
0.000607923
0.000568528
0.000527661
0.00048423
0.000440227
0.000398503
0.000361523
0.000330991
0.000309099
0.000292223
0.000268966
0.000229059
0.000181277
0.00012943
8.25478e-05
2.19366e-05
4.38258e-06
4.23575e-07
0
0
0.00339851
0.0067816
0.115608
0.996301
6.06666
0.000832607
0.000822218
0.000808299
0.000789801
0.000766608
0.000737876
0.000706496
0.000671893
0.000633581
0.000592037
0.000548183
0.000503384
0.000458747
0.000415106
0.000373315
0.000334187
0.000298215
0.000265836
0.000237206
0.000212161
0.000190298
0.000171002
0.000153433
0.000136486
0.000119585
0.000103455
8.89827e-05
7.64183e-05
6.54978e-05
5.59785e-05
4.77939e-05
4.07825e-05
3.47776e-05
2.96088e-05
2.58748e-05
2.15897e-05
1.57009e-05
1.86996e-06
0
0.000701747
0.000707269
0.000711301
0.000713814
0.000713724
0.00071067
0.00070471
0.000695192
0.000682032
0.000665354
0.000645104
0.000621568
0.000595162
0.000566309
0.000535639
0.000503646
0.000471052
0.000439118
0.00040797
0.000377569
0.000348379
0.000321602
0.000297969
0.000276768
0.000255184
0.000230379
0.000202574
0.000176206
0.000151178
0.000115454
8.08555e-05
8.59998e-06
2.05787e-06
0
0
0.00067779
0.0327918
0.143467
2.30905
0.000694168
0.000685398
0.00067407
0.000659007
0.000640638
0.000618473
0.000594576
0.000568104
0.000538847
0.0005074
0.000474201
0.000440028
0.000405541
0.000371257
0.000337769
0.000305691
0.000275507
0.000247613
0.000222262
0.000199493
0.00017913
0.000160786
0.000143873
0.000127651
0.000111714
9.6526e-05
8.28198e-05
7.08732e-05
6.05321e-05
5.16197e-05
4.40964e-05
3.80119e-05
3.33728e-05
3.01401e-05
2.82779e-05
2.85598e-05
3.07173e-05
3.31908e-05
1.37225e-06
0.000591597
0.000597008
0.000601533
0.000605033
0.000606658
0.000606241
0.000603716
0.000598522
0.000590579
0.000579877
0.000566243
0.00054981
0.000530774
0.000509347
0.000485867
0.000460675
0.000434292
0.000406684
0.000378016
0.000349502
0.000322626
0.000298505
0.0002773
0.000257304
0.000235743
0.000211682
0.00018702
0.000165518
0.000149056
0.000135496
0.000123473
9.61305e-05
3.91149e-05
3.61027e-06
0
0
5.70998e-05
0.0102713
0.587007
0.000584653
0.00057701
0.000567489
0.000554964
0.000540155
0.00052286
0.000504238
0.000483629
0.000461064
0.000436973
0.000411572
0.000385329
0.000358584
0.000331611
0.000304849
0.000278748
0.000253676
0.00023004
0.000208092
0.000187962
0.000169609
0.000152799
0.000137131
0.000122111
0.00010743
9.34277e-05
8.06785e-05
6.94301e-05
5.95712e-05
5.09402e-05
4.34759e-05
3.71456e-05
3.18608e-05
2.77069e-05
2.46677e-05
2.40458e-05
2.36846e-05
4.01994e-05
1.87264e-05
0.000502283
0.000507357
0.000511913
0.000515754
0.000518218
0.000519236
0.00051863
0.000516019
0.000511235
0.000504244
0.00049483
0.000483027
0.000468907
0.000452561
0.000434226
0.000414178
0.000392716
0.000370325
0.000347506
0.000324703
0.000302633
0.000281868
0.000262636
0.000243962
0.000223764
0.000201018
0.000177331
0.000155885
0.000138693
0.000125957
0.000116122
0.000111597
9.85953e-05
6.2516e-05
3.76894e-06
0
0
0.00433888
0.155785
0.000496062
0.000489443
0.000481454
0.000470969
0.000458889
0.00044523
0.000430464
0.000414184
0.000396602
0.000377963
0.000358337
0.000338021
0.000317193
0.000295979
0.00027462
0.000253434
0.000232694
0.000212714
0.000193763
0.000175998
0.000159444
0.000143998
0.000129419
0.000115394
0.000101744
8.87236e-05
7.67774e-05
6.61443e-05
5.67769e-05
4.85691e-05
4.14882e-05
3.55439e-05
3.07333e-05
2.7124e-05
2.46527e-05
2.43446e-05
2.42082e-05
3.44836e-05
4.30774e-05
0.000429334
0.000434065
0.000438512
0.000442463
0.000445433
0.000447366
0.000448114
0.000447318
0.000444853
0.000440653
0.000434514
0.000426402
0.000416314
0.000404272
0.000390392
0.000374833
0.000357829
0.000339731
0.000320662
0.000301033
0.000281698
0.000263309
0.000246033
0.000229149
0.000211101
0.000190937
0.00016968
0.000149778
0.000132953
0.000119422
0.000108155
0.000100563
9.68256e-05
9.50359e-05
6.08572e-05
3.16384e-06
0
0.000900692
0.0544245
0.000423767
0.000417967
0.0004112
0.000402368
0.00039241
0.000381454
0.000369588
0.000356581
0.00034274
0.000328157
0.000312866
0.000297041
0.000280751
0.000264004
0.000246965
0.000229822
0.000212741
0.000195976
0.000179735
0.000164204
0.000149466
0.00013549
0.000122128
0.000109199
9.6641e-05
8.46452e-05
7.35624e-05
6.36067e-05
5.47689e-05
4.69741e-05
4.01898e-05
3.44219e-05
2.96421e-05
2.59171e-05
2.32704e-05
2.25793e-05
2.28109e-05
2.93375e-05
4.69937e-05
0.000369033
0.00037339
0.000377618
0.000381504
0.000384673
0.000387095
0.000388654
0.000389025
0.000388098
0.000385793
0.000381918
0.000376433
0.00036927
0.000360397
0.000349879
0.00033781
0.000324325
0.000309722
0.000294221
0.000278111
0.000261912
0.000246104
0.0002308
0.000215541
0.000199286
0.000181339
0.000162423
0.000144426
0.000128828
0.000115765
0.000104595
9.51095e-05
8.83143e-05
8.58044e-05
9.10539e-05
4.88202e-05
1.19158e-07
0.000268721
0.0178176
0.00036408
0.000358985
0.0003532
0.000345732
0.000337458
0.000328544
0.000318898
0.000308402
0.000297392
0.000285891
0.000273878
0.000261454
0.000248642
0.000235407
0.000221796
0.000207928
0.000193906
0.000179904
0.000166085
0.000152602
0.000139558
0.000126971
0.000114782
0.000102916
9.1374e-05
8.03242e-05
7.00419e-05
6.07229e-05
5.23908e-05
4.50029e-05
3.85449e-05
3.30391e-05
2.84852e-05
2.49501e-05
2.24592e-05
2.17191e-05
2.20125e-05
2.69745e-05
4.30578e-05
0.00031878
0.000322757
0.000326719
0.000330452
0.00033366
0.000336352
0.000338395
0.000339523
0.000339651
0.000338693
0.000336475
0.000332934
0.000328017
0.000321655
0.000313856
0.000304658
0.000294134
0.000282512
0.000269939
0.000256585
0.000242837
0.000229177
0.000215704
0.000202099
0.000187615
0.000171731
0.000154971
0.000138812
0.000124546
0.000112387
0.000101919
9.27594e-05
8.49762e-05
7.91604e-05
7.74631e-05
9.62031e-05
4.63093e-07
2.3067e-05
0.00429642
0.000314353
0.00030988
0.000304882
0.000298539
0.000291621
0.00028427
0.000276335
0.000267812
0.00025897
0.000249808
0.000240294
0.000230485
0.000220364
0.000209855
0.000198982
0.000187778
0.000176287
0.000164635
0.000152938
0.000141314
0.000129854
0.000118613
0.000107587
9.67817e-05
8.62407e-05
7.61104e-05
6.66206e-05
5.79443e-05
5.01263e-05
4.3151e-05
3.70152e-05
3.17464e-05
2.73442e-05
2.38742e-05
2.13739e-05
2.05088e-05
2.06766e-05
2.49656e-05
3.869e-05
0.000276558
0.000280164
0.000283845
0.00028736
0.000290501
0.000293296
0.00029559
0.000297183
0.000298008
0.000297969
0.000296929
0.000294817
0.000291566
0.000287094
0.000281374
0.000274425
0.000266289
0.000257085
0.000246984
0.000236094
0.000224621
0.000212981
0.000201264
0.000189243
0.000176414
0.000162397
0.000147569
0.000133084
0.000120052
0.00010878
9.90023e-05
9.05193e-05
8.30655e-05
7.74531e-05
6.9645e-05
8.64439e-05
4.74667e-05
2.25291e-07
0.000148734
0.000272592
0.000268656
0.00026432
0.000258896
0.000253075
0.000246943
0.000240361
0.000233382
0.000226223
0.000218863
0.000211279
0.000203472
0.000195428
0.000187061
0.000178347
0.000169296
0.000159905
0.000150236
0.00014037
0.000130395
0.0001204
0.000110444
0.000100548
9.07498e-05
8.11455e-05
7.18852e-05
6.3153e-05
5.50988e-05
4.77833e-05
4.12136e-05
3.53988e-05
3.03747e-05
2.61521e-05
2.28002e-05
2.03553e-05
1.94203e-05
1.9474e-05
2.30933e-05
3.48771e-05
0.00024083
0.000244099
0.00024749
0.000250763
0.000253784
0.000256566
0.000258974
0.000260843
0.000262117
0.00026271
0.000262504
0.000261421
0.000259401
0.00025637
0.000252291
0.000247144
0.000240943
0.000233742
0.000225704
0.000216864
0.000207336
0.000197462
0.000187341
0.000176826
0.000165553
0.000153249
0.000140192
0.000127276
0.000115432
0.000105015
9.58806e-05
8.79478e-05
8.09814e-05
7.57761e-05
6.92372e-05
6.915e-05
8.58916e-05
4.45386e-07
8.02148e-06
0.000237288
0.000233801
0.000230027
0.000225364
0.000220439
0.000215273
0.000209764
0.000204006
0.000198159
0.000192206
0.000186101
0.000179863
0.000173438
0.000166741
0.000159746
0.000152416
0.00014474
0.000136736
0.000128449
0.000119937
0.000111267
0.000102498
9.36686e-05
8.48507e-05
7.61532e-05
6.7723e-05
5.97161e-05
5.22678e-05
4.54475e-05
3.92795e-05
3.37833e-05
2.90004e-05
2.49468e-05
2.1692e-05
1.92755e-05
1.82516e-05
1.8201e-05
2.12313e-05
3.14324e-05
0.000210412
0.000213376
0.000216475
0.000219509
0.000222368
0.000225067
0.000227493
0.000229504
0.000231044
0.000232049
0.000232412
0.000232074
0.000230971
0.000229034
0.000226215
0.000222477
0.000217814
0.000212248
0.000205903
0.000198798
0.000190978
0.000182683
0.000174025
0.000164914
0.000155087
0.000144344
0.000132896
0.000121435
0.000110731
0.000101154
9.26575e-05
8.51991e-05
7.87074e-05
7.34222e-05
6.94505e-05
6.13031e-05
8.98624e-05
3.17356e-06
2.98104e-09
0.000207257
0.000204164
0.000200853
0.000196829
0.000192637
0.000188247
0.000183603
0.000178819
0.000174009
0.00016915
0.000164206
0.000159181
0.000154013
0.000148635
0.000142996
0.000137058
0.00013078
0.000124167
0.000117226
0.000109995
0.000102517
9.48378e-05
8.70053e-05
7.91063e-05
7.12654e-05
6.3615e-05
5.62988e-05
4.94355e-05
4.30978e-05
3.73237e-05
3.2142e-05
2.75983e-05
2.3716e-05
2.05657e-05
1.81882e-05
1.70878e-05
1.69423e-05
1.94507e-05
2.82442e-05
0.00018438
0.000187059
0.00018988
0.000192682
0.000195351
0.000197935
0.00020031
0.000202367
0.000204057
0.000205327
0.00020608
0.000206273
0.000205839
0.00020471
0.000202853
0.000200214
0.000196781
0.000192545
0.000187592
0.000181936
0.000175579
0.000168663
0.000161322
0.000153501
0.000145002
0.000135679
0.000125692
0.000115574
0.00010596
9.72097e-05
8.93546e-05
8.23666e-05
7.63072e-05
7.10298e-05
6.79382e-05
6.01241e-05
7.53123e-05
3.6591e-05
8.71091e-07
0.000181565
0.000178818
0.000175902
0.000172412
0.000168826
0.000165066
0.000161126
0.000157121
0.000153134
0.000149135
0.000145105
0.000141028
0.000136853
0.000132505
0.000127944
0.000123119
0.000117982
0.000112519
0.000106719
0.000100593
9.41714e-05
8.74915e-05
8.05915e-05
7.35498e-05
6.64984e-05
5.95832e-05
5.29238e-05
4.66231e-05
4.07548e-05
3.53662e-05
3.04936e-05
2.61854e-05
2.24717e-05
1.94222e-05
1.70796e-05
1.59052e-05
1.56716e-05
1.77459e-05
2.5289e-05
0.000161993
0.000164406
0.000166977
0.000169542
0.000172028
0.000174465
0.000176756
0.000178791
0.000180547
0.000181968
0.000182975
0.000183523
0.000183571
0.000183042
0.000181916
0.000180134
0.00017767
0.000174511
0.000170694
0.00016624
0.000161125
0.000155414
0.000149249
0.0001426
0.00013531
0.000127269
0.000118601
0.000109717
0.000101133
9.31886e-05
8.59676e-05
7.94686e-05
7.37874e-05
6.87777e-05
6.54124e-05
6.04547e-05
6.24824e-05
6.22561e-05
1.0874e-05
0.000159478
0.000157032
0.000154456
0.000151421
0.000148328
0.000145092
0.000141728
0.000138354
0.000135022
0.000131712
0.0001284
0.000125067
0.000121673
0.00011814
0.000114432
0.000110501
0.000106292
0.000101777
9.69362e-05
9.17661e-05
8.62718e-05
8.04774e-05
7.44181e-05
6.8177e-05
6.18775e-05
5.56513e-05
4.96084e-05
4.38419e-05
3.84248e-05
3.34102e-05
2.88393e-05
2.4762e-05
2.12153e-05
1.82665e-05
1.59607e-05
1.47202e-05
1.44057e-05
1.61162e-05
2.25579e-05
0.000142655
0.000144828
0.000147163
0.000149509
0.000151806
0.000154091
0.000156265
0.000158244
0.000160003
0.000161496
0.000162656
0.00016345
0.000163837
0.000163759
0.000163177
0.000162055
0.00016035
0.000158046
0.000155144
0.000151681
0.000147616
0.000142952
0.000137822
0.000132219
0.000126017
0.000119129
0.000111648
0.000103891
9.62747e-05
8.91065e-05
8.25035e-05
7.65001e-05
7.11702e-05
6.65299e-05
6.27874e-05
5.97918e-05
5.61228e-05
6.39664e-05
3.43041e-05
0.000140406
0.000138223
0.000135943
0.000133296
0.000130607
0.000127811
0.000124924
0.000122059
0.000119256
0.000116495
0.000113752
0.000111011
0.000108231
0.000105347
0.000102321
9.9105e-05
9.56478e-05
9.19148e-05
8.78746e-05
8.35138e-05
7.88304e-05
7.38305e-05
6.85362e-05
6.30251e-05
5.74157e-05
5.18274e-05
4.6362e-05
4.11026e-05
3.61188e-05
3.14657e-05
2.71889e-05
2.33376e-05
1.99549e-05
1.7105e-05
1.4836e-05
1.35355e-05
1.31472e-05
1.45654e-05
2.00556e-05
0.000125885
0.000127844
0.00012996
0.0001321
0.000134215
0.000136341
0.000138384
0.000140279
0.000142003
0.000143513
0.000144757
0.000145707
0.000146324
0.000146565
0.000146387
0.000145763
0.000144649
0.00014302
0.000140866
0.000138223
0.000135033
0.00013127
0.000127045
0.000122367
0.000117136
0.000111275
0.000104857
9.81227e-05
9.14067e-05
8.4981e-05
7.89777e-05
7.34624e-05
6.84835e-05
6.41784e-05
6.03484e-05
5.7962e-05
5.35839e-05
5.72468e-05
4.88699e-05
0.000123873
0.000121922
0.0001199
0.000117585
0.000115235
0.000112803
0.000110315
0.00010787
0.000105496
0.000103176
0.000100885
9.86139e-05
9.63208e-05
9.39543e-05
9.1471e-05
8.88285e-05
8.59787e-05
8.28872e-05
7.9518e-05
7.58465e-05
7.1858e-05
6.75557e-05
6.2952e-05
5.81066e-05
5.3125e-05
4.81254e-05
4.31998e-05
3.84189e-05
3.38477e-05
2.95418e-05
2.55489e-05
2.19176e-05
1.86955e-05
1.59424e-05
1.37111e-05
1.23583e-05
1.19036e-05
1.30885e-05
1.77666e-05
0.000111291
0.000113056
0.000114975
0.000116921
0.000118865
0.000120831
0.000122738
0.000124533
0.000126193
0.000127684
0.000128958
0.000129996
0.000130765
0.000131226
0.000131351
0.000131097
0.000130441
0.000129348
0.000127795
0.000125812
0.000123343
0.000120347
0.000116906
0.000113038
0.000108666
0.000103719
9.82474e-05
9.24366e-05
8.65523e-05
8.08288e-05
7.54044e-05
7.03623e-05
6.5745e-05
6.1719e-05
5.80282e-05
5.55708e-05
5.20571e-05
5.11858e-05
5.12919e-05
0.000109493
0.000107743
0.000105947
0.000103915
0.000101853
9.97313e-05
9.75764e-05
9.54758e-05
9.34514e-05
9.1486e-05
8.95642e-05
8.76688e-05
8.57631e-05
8.38068e-05
8.17545e-05
7.95751e-05
7.72198e-05
7.46523e-05
7.18377e-05
6.87475e-05
6.5361e-05
6.1667e-05
5.76713e-05
5.34237e-05
4.902e-05
4.45642e-05
4.01372e-05
3.58036e-05
3.1622e-05
2.76471e-05
2.39272e-05
2.05101e-05
1.74442e-05
1.47863e-05
1.2593e-05
1.11948e-05
1.06829e-05
1.16879e-05
1.56839e-05
9.8551e-05
0.000100142
0.000101879
0.000103647
0.000105429
0.00010724
0.000109013
0.000110695
0.000112276
0.00011372
0.000114992
0.000116072
0.000116935
0.000117546
0.000117883
0.000117906
0.000117594
0.000116916
0.000115841
0.000114388
0.000112513
0.000110167
0.000107398
0.000104233
0.000100614
9.64712e-05
9.18373e-05
8.68554e-05
8.17333e-05
7.66696e-05
7.17984e-05
6.72112e-05
6.29561e-05
5.91813e-05
5.57115e-05
5.30699e-05
5.0303e-05
4.72611e-05
4.83669e-05
9.69443e-05
9.53755e-05
9.37761e-05
9.19864e-05
9.01703e-05
8.83121e-05
8.64352e-05
8.46219e-05
8.28853e-05
8.12102e-05
7.95826e-05
7.7987e-05
7.63952e-05
7.47645e-05
7.30648e-05
7.12551e-05
6.92986e-05
6.71617e-05
6.48067e-05
6.22038e-05
5.93295e-05
5.61654e-05
5.27077e-05
4.89964e-05
4.51136e-05
4.11537e-05
3.71845e-05
3.32666e-05
2.9452e-05
2.57924e-05
2.23346e-05
1.91243e-05
1.62103e-05
1.36455e-05
1.14906e-05
1.0053e-05
9.49081e-06
1.03638e-05
1.37996e-05
8.74001e-05
8.88326e-05
9.04026e-05
9.20112e-05
9.36371e-05
9.53009e-05
9.69391e-05
9.85092e-05
9.99981e-05
0.00010138
0.000102621
0.000103709
0.000104619
0.000105326
0.00010581
0.000106037
0.000105984
0.000105624
0.000104927
0.0001039
0.000102509
0.000100707
9.85091e-05
9.59508e-05
9.29816e-05
8.95402e-05
8.56439e-05
8.14012e-05
7.69715e-05
7.2522e-05
6.81752e-05
6.40256e-05
6.01245e-05
5.65953e-05
5.33425e-05
5.06152e-05
4.81536e-05
4.45715e-05
4.44948e-05
8.59604e-05
8.45574e-05
8.31292e-05
8.15489e-05
7.99448e-05
7.83111e-05
7.66702e-05
7.50945e-05
7.35951e-05
7.21576e-05
7.07713e-05
6.94208e-05
6.80804e-05
6.67115e-05
6.5291e-05
6.378e-05
6.21488e-05
6.03642e-05
5.83905e-05
5.61977e-05
5.37594e-05
5.10523e-05
4.80658e-05
4.48291e-05
4.14126e-05
3.78988e-05
3.43523e-05
3.08195e-05
2.73485e-05
2.39873e-05
2.07797e-05
1.77686e-05
1.50023e-05
1.25293e-05
1.04126e-05
8.94058e-06
8.33545e-06
9.11448e-06
1.2098e-05
7.76145e-05
7.89039e-05
8.03223e-05
8.17844e-05
8.32656e-05
8.47903e-05
8.62988e-05
8.77549e-05
8.91496e-05
9.04572e-05
9.16517e-05
9.27222e-05
9.36485e-05
9.44111e-05
9.49892e-05
9.53602e-05
9.54972e-05
9.53815e-05
9.49807e-05
9.42905e-05
9.32936e-05
9.19376e-05
9.02175e-05
8.81733e-05
8.57664e-05
8.29348e-05
7.96845e-05
7.60957e-05
7.22912e-05
6.84059e-05
6.45519e-05
6.08188e-05
5.72596e-05
5.39784e-05
5.09215e-05
4.82139e-05
4.57945e-05
4.22831e-05
4.10194e-05
7.63241e-05
7.50682e-05
7.37909e-05
7.23927e-05
7.09723e-05
6.95301e-05
6.80911e-05
6.67164e-05
6.54139e-05
6.41729e-05
6.29828e-05
6.18297e-05
6.06899e-05
5.9536e-05
5.83414e-05
5.70735e-05
5.57066e-05
5.42106e-05
5.25527e-05
5.07009e-05
4.86298e-05
4.63139e-05
4.37383e-05
4.09219e-05
3.79245e-05
3.48143e-05
3.16512e-05
2.84727e-05
2.53219e-05
2.22408e-05
1.92708e-05
1.64514e-05
1.38285e-05
1.14458e-05
9.36677e-06
7.86406e-06
7.22185e-06
7.94389e-06
1.05721e-05
6.90062e-05
7.01685e-05
7.14495e-05
7.2775e-05
7.41238e-05
7.55168e-05
7.69022e-05
7.8246e-05
7.95453e-05
8.0773e-05
8.19102e-05
8.29459e-05
8.38663e-05
8.46517e-05
8.52878e-05
8.57574e-05
8.60315e-05
8.60963e-05
8.59233e-05
8.54985e-05
8.48156e-05
8.38265e-05
8.25066e-05
8.08991e-05
7.89697e-05
7.66608e-05
7.39696e-05
7.09552e-05
6.77108e-05
6.43418e-05
6.09457e-05
5.76058e-05
5.43755e-05
5.13369e-05
4.84663e-05
4.58307e-05
4.33858e-05
4.00425e-05
3.80229e-05
6.78516e-05
6.67255e-05
6.55808e-05
6.43421e-05
6.30816e-05
6.18048e-05
6.05387e-05
5.93329e-05
5.81963e-05
5.7118e-05
5.60903e-05
5.50995e-05
5.41244e-05
5.31429e-05
5.21304e-05
5.10634e-05
4.99115e-05
4.86502e-05
4.72519e-05
4.56863e-05
4.39259e-05
4.1944e-05
3.97224e-05
3.72738e-05
3.46468e-05
3.19019e-05
2.90856e-05
2.62328e-05
2.33787e-05
2.05604e-05
1.78162e-05
1.5181e-05
1.26967e-05
1.04033e-05
8.36242e-06
6.83113e-06
6.15608e-06
6.85289e-06
9.20956e-06
6.14189e-05
6.24661e-05
6.36235e-05
6.48236e-05
6.60497e-05
6.73207e-05
6.85883e-05
6.98262e-05
7.10294e-05
7.2176e-05
7.32481e-05
7.42386e-05
7.51356e-05
7.59228e-05
7.65899e-05
7.71193e-05
7.74896e-05
7.76857e-05
7.76843e-05
7.74675e-05
7.70327e-05
7.63379e-05
7.53513e-05
7.41073e-05
7.2581e-05
7.0718e-05
6.85095e-05
6.59966e-05
6.32485e-05
6.03477e-05
5.73743e-05
5.44025e-05
5.14847e-05
4.86873e-05
4.59945e-05
4.34546e-05
4.10041e-05
3.77929e-05
3.53438e-05
6.03857e-05
5.93761e-05
5.83491e-05
5.72492e-05
5.61287e-05
5.49949e-05
5.38773e-05
5.2817e-05
5.18202e-05
5.08779e-05
4.99838e-05
4.91267e-05
4.82878e-05
4.74472e-05
4.6583e-05
4.56779e-05
4.47008e-05
4.3635e-05
4.24512e-05
4.11232e-05
3.96254e-05
3.793e-05
3.6015e-05
3.38889e-05
3.15895e-05
2.9169e-05
2.66662e-05
2.41096e-05
2.15286e-05
1.89562e-05
1.6425e-05
1.39663e-05
1.16171e-05
9.41257e-06
7.40996e-06
5.85016e-06
5.14369e-06
5.84459e-06
8.00182e-06
5.47195e-05
5.56619e-05
5.6708e-05
5.7793e-05
5.89067e-05
6.00649e-05
6.1222e-05
6.23594e-05
6.34684e-05
6.45339e-05
6.55378e-05
6.64759e-05
6.73366e-05
6.81102e-05
6.87853e-05
6.93475e-05
6.97823e-05
7.00699e-05
7.01982e-05
7.01417e-05
6.99025e-05
6.94417e-05
6.87273e-05
6.77831e-05
6.65933e-05
6.51084e-05
6.33123e-05
6.1234e-05
5.89225e-05
5.64405e-05
5.38541e-05
5.1226e-05
4.86002e-05
4.60388e-05
4.35229e-05
4.10899e-05
3.86661e-05
3.55647e-05
3.28779e-05
5.37931e-05
5.28886e-05
5.19673e-05
5.09886e-05
4.9991e-05
4.89835e-05
4.79934e-05
4.70573e-05
4.61793e-05
4.53515e-05
4.45695e-05
4.38229e-05
4.30956e-05
4.23705e-05
4.16306e-05
4.0856e-05
4.00244e-05
3.91182e-05
3.81131e-05
3.69843e-05
3.57063e-05
3.42536e-05
3.26027e-05
3.07566e-05
2.87461e-05
2.6614e-05
2.43927e-05
2.21056e-05
1.97766e-05
1.74336e-05
1.5104e-05
1.28149e-05
1.05986e-05
8.48353e-06
6.52028e-06
4.92999e-06
4.18901e-06
4.92179e-06
6.93864e-06
4.87927e-05
4.9642e-05
5.05855e-05
5.1567e-05
5.2577e-05
5.36298e-05
5.46856e-05
5.57266e-05
5.67462e-05
5.7731e-05
5.86661e-05
5.95471e-05
6.03664e-05
6.11145e-05
6.17826e-05
6.23592e-05
6.28323e-05
6.31829e-05
6.34021e-05
6.34673e-05
6.33777e-05
6.31016e-05
6.2606e-05
6.19102e-05
6.09987e-05
5.98284e-05
5.8382e-05
5.66772e-05
5.47474e-05
5.26381e-05
5.04013e-05
4.80897e-05
4.57409e-05
4.3402e-05
4.10648e-05
3.87419e-05
3.63723e-05
3.33826e-05
3.05761e-05
4.79618e-05
4.71522e-05
4.63258e-05
4.54526e-05
4.45638e-05
4.36675e-05
4.27882e-05
4.19593e-05
4.11828e-05
4.0453e-05
3.97655e-05
3.91112e-05
3.8477e-05
3.78468e-05
3.72088e-05
3.65422e-05
3.58321e-05
3.50579e-05
3.42006e-05
3.32376e-05
3.21456e-05
3.08987e-05
2.94742e-05
2.78712e-05
2.6113e-05
2.42374e-05
2.22688e-05
2.02263e-05
1.81288e-05
1.59988e-05
1.386e-05
1.1734e-05
9.64834e-06
7.62466e-06
5.70391e-06
4.08014e-06
3.29602e-06
4.09012e-06
6.01218e-06
4.35414e-05
4.4307e-05
4.51574e-05
4.60449e-05
4.69604e-05
4.79157e-05
4.88777e-05
4.98283e-05
5.07638e-05
5.16707e-05
5.25378e-05
5.33605e-05
5.41332e-05
5.48471e-05
5.54973e-05
5.60718e-05
5.65629e-05
5.69554e-05
5.72372e-05
5.73912e-05
5.74146e-05
5.72815e-05
5.69611e-05
5.64653e-05
5.57822e-05
5.48741e-05
5.37222e-05
5.23352e-05
5.07355e-05
4.89549e-05
4.70324e-05
4.50091e-05
4.29175e-05
4.07937e-05
3.86297e-05
3.6427e-05
3.41313e-05
3.12674e-05
2.84249e-05
4.27966e-05
4.20716e-05
4.13309e-05
4.05503e-05
3.97582e-05
3.89596e-05
3.81776e-05
3.74413e-05
3.67527e-05
3.61061e-05
3.54986e-05
3.49233e-05
3.43673e-05
3.38169e-05
3.3262e-05
3.26858e-05
3.20758e-05
3.14113e-05
3.06775e-05
2.98533e-05
2.89176e-05
2.78456e-05
2.66152e-05
2.5223e-05
2.36873e-05
2.20374e-05
2.02951e-05
1.84735e-05
1.6588e-05
1.46561e-05
1.26973e-05
1.07289e-05
8.7728e-06
6.84467e-06
4.97263e-06
3.31293e-06
2.46796e-06
3.35739e-06
5.21629e-06
3.88828e-05
3.95722e-05
4.03389e-05
4.11403e-05
4.19693e-05
4.28362e-05
4.37105e-05
4.45773e-05
4.54336e-05
4.62664e-05
4.70666e-05
4.78309e-05
4.85541e-05
4.92297e-05
4.98533e-05
5.0417e-05
5.09116e-05
5.13258e-05
5.16474e-05
5.18657e-05
5.1973e-05
5.19492e-05
5.1767e-05
5.14314e-05
5.09327e-05
5.02395e-05
4.9333e-05
4.82143e-05
4.68977e-05
4.54041e-05
4.3761e-05
4.20002e-05
4.01453e-05
3.82251e-05
3.62306e-05
3.41569e-05
3.19494e-05
2.92209e-05
2.64112e-05
3.8215e-05
3.75655e-05
3.69019e-05
3.62042e-05
3.54971e-05
3.47851e-05
3.40888e-05
3.34333e-05
3.28208e-05
3.22462e-05
3.17081e-05
3.11984e-05
3.0708e-05
3.02262e-05
2.97411e-05
2.92417e-05
2.8712e-05
2.81409e-05
2.75101e-05
2.68024e-05
2.59985e-05
2.50758e-05
2.40117e-05
2.28012e-05
2.14598e-05
2.00102e-05
1.84698e-05
1.6848e-05
1.51563e-05
1.34085e-05
1.16198e-05
9.80429e-06
7.97799e-06
6.15128e-06
4.33841e-06
2.64553e-06
1.70596e-06
2.73594e-06
4.54522e-06
3.47444e-05
3.53652e-05
3.60557e-05
3.67791e-05
3.7529e-05
3.83145e-05
3.91082e-05
3.98973e-05
4.06793e-05
4.14418e-05
4.2178e-05
4.28848e-05
4.3558e-05
4.41928e-05
4.47852e-05
4.5329e-05
4.58161e-05
4.62388e-05
4.65848e-05
4.68457e-05
4.70134e-05
4.70715e-05
4.6995e-05
4.67854e-05
4.64347e-05
4.59166e-05
4.52121e-05
4.43187e-05
4.3243e-05
4.19975e-05
4.06007e-05
3.90751e-05
3.74384e-05
3.5709e-05
3.38797e-05
3.19371e-05
2.9835e-05
2.72544e-05
2.45244e-05
3.41458e-05
3.35643e-05
3.29695e-05
3.23457e-05
3.17145e-05
3.10792e-05
3.04584e-05
2.98743e-05
2.93284e-05
2.88163e-05
2.83372e-05
2.78851e-05
2.74511e-05
2.7026e-05
2.66005e-05
2.61642e-05
2.57045e-05
2.52115e-05
2.46663e-05
2.40571e-05
2.3365e-05
2.25689e-05
2.16479e-05
2.05957e-05
1.94234e-05
1.81507e-05
1.67901e-05
1.53485e-05
1.38341e-05
1.22576e-05
1.06302e-05
8.96271e-06
7.26735e-06
5.55004e-06
3.81289e-06
2.10507e-06
1.01252e-06
2.24298e-06
3.99401e-06
3.10639e-05
3.16226e-05
3.2244e-05
3.28969e-05
3.35746e-05
3.42856e-05
3.50055e-05
3.57229e-05
3.64353e-05
3.71324e-05
3.78077e-05
3.84589e-05
3.90825e-05
3.96748e-05
4.02326e-05
4.07512e-05
4.12241e-05
4.16445e-05
4.20029e-05
4.22886e-05
4.24969e-05
4.2614e-05
4.26179e-05
4.25056e-05
4.22719e-05
4.1894e-05
4.13548e-05
4.06484e-05
3.97762e-05
3.8744e-05