/*--------------------------------*- C++ -*----------------------------------*\
| =========                 |                                                 |
| \\      /  F ield         | OpenFOAM: The Open Source CFD Toolbox           |
|  \\    /   O peration     | Version:  2306                                  |
|   \\  /    A nd           | Website:  www.openfoam.com                      |
|    \\/     M anipulation  |                                                 |
\*---------------------------------------------------------------------------*/
FoamFile
{
    version     2.0;
    format      ascii;
    arch        "LSB;label=32;scalar=64";
    class       volVectorField;
    location    "225";
    object      momentError;
}
// * * * * * * * * * * * * * * * * * * * * * * * * * * * * * * * * * * * * * //

dimensions      [0 1 -2 0 0 0 0];

internalField   nonuniform List<vector> 
10720
(
(0.110992 -0.432143 -6.9575e-15)
(0.0773506 -0.423997 2.39837e-14)
(0.00621408 -0.354766 -4.70373e-14)
(-0.0234751 -0.336581 1.78058e-14)
(-0.0442834 -0.302186 1.09806e-13)
(-0.0583623 -0.266595 -1.74493e-13)
(-0.0696067 -0.232547 8.98055e-14)
(-0.0729402 -0.194859 -1.10861e-13)
(-0.0713366 -0.161533 -2.54105e-13)
(-0.066275 -0.129126 3.43486e-13)
(-0.0587744 -0.107944 1.23969e-13)
(-0.0345261 -0.0639894 -2.28495e-13)
(-0.0161899 -0.0367123 -3.3416e-13)
(-0.000153271 -0.0135867 -5.7141e-14)
(0.0187149 0.00772426 -1.39651e-13)
(0.0387942 0.0271218 -3.10215e-13)
(0.0624628 0.0438608 -1.46713e-13)
(0.090658 0.0579193 8.32592e-13)
(0.124239 0.0695627 4.23525e-13)
(0.163376 0.0767548 -5.95697e-13)
(0.193424 0.0783605 1.05628e-13)
(0.208404 0.0664113 1.5347e-13)
(0.158221 0.0445904 -6.74068e-14)
(0.104783 0.0325632 -1.52559e-13)
(0.0669595 0.0164063 3.60914e-14)
(0.0390544 0.000634366 -2.33631e-15)
(0.0316354 -0.00531373 4.1561e-14)
(0.0308927 -0.00628726 -1.64802e-14)
(0.0323872 -0.0053334 4.404e-14)
(0.0364618 -0.00438074 1.54929e-13)
(0.0385583 -0.00366475 3.05135e-14)
(0.0334873 -0.00285497 -1.29023e-13)
(0.0302098 -0.00281321 -7.38358e-15)
(0.0282238 -0.00318861 -2.16515e-13)
(0.0263007 -0.00358883 -2.83922e-13)
(0.0262442 -0.00492404 1.16138e-13)
(0.0242364 -0.015945 -1.1401e-14)
(-0.0397473 -0.0800366 4.89176e-16)
(-1.21376 0.13054 -5.76825e-14)
(0.125874 -0.404014 -1.08088e-14)
(0.134248 -0.326536 2.66812e-14)
(0.132031 -0.24339 1.69248e-15)
(0.112206 -0.177295 3.62295e-14)
(0.0923898 -0.125577 -3.28618e-14)
(0.0702301 -0.0703579 -9.44443e-14)
(0.0293043 -0.0187011 -1.0577e-13)
(0.00175904 0.00465224 2.96671e-14)
(0.00929095 -0.00847274 -7.60278e-14)
(0.0312 -0.0275217 9.58946e-14)
(0.0349923 -0.0230199 -5.99472e-14)
(0.0294345 -0.0162471 -1.46026e-13)
(0.0273323 -0.0139429 -1.64535e-13)
(0.0264344 -0.0120359 1.31921e-14)
(0.0238499 -0.00968629 1.32897e-13)
(0.0209122 -0.00792314 3.98838e-14)
(0.0186769 -0.00667222 -5.02424e-14)
(0.0167883 -0.00566462 -3.54301e-14)
(0.0150596 -0.00479721 -2.179e-14)
(0.0135009 -0.00407995 3.89842e-14)
(0.0121599 -0.0034557 1.72674e-14)
(0.0109714 -0.00293087 2.50067e-14)
(0.00993838 -0.00244831 -3.37705e-14)
(0.00898387 -0.00204462 -2.45987e-14)
(0.00801911 -0.00160607 1.81358e-14)
(0.00702355 -0.00143091 1.23559e-14)
(0.00624848 -0.00120686 6.89813e-15)
(0.00576789 -0.00036979 -1.45409e-15)
(0.00531399 0.000250437 -2.82674e-16)
(0.00494548 0.000338381 2.33734e-16)
(0.00432727 0.000308629 -4.54797e-16)
(0.00387711 0.000329612 -1.8809e-15)
(0.00349465 0.000355245 -1.26732e-15)
(0.00313282 0.000362901 -3.83768e-15)
(0.00277356 0.000353991 -2.88819e-15)
(0.00248426 0.000319035 1.25996e-15)
(0.00306321 0.000353656 -2.18271e-15)
(0.00123558 0.000302271 -1.11111e-14)
(-0.00230036 0.00200796 -2.15863e-14)
(-0.0310795 -0.306783 -1.3183e-14)
(-0.0644447 -0.304559 5.83462e-15)
(-0.0884584 -0.255965 7.72803e-15)
(-0.120505 -0.246401 -3.34551e-14)
(-0.140486 -0.227335 2.09489e-14)
(-0.152982 -0.205427 8.0062e-14)
(-0.165901 -0.181906 1.03653e-13)
(-0.171202 -0.157522 1.00395e-13)
(-0.170036 -0.133902 -3.99933e-15)
(-0.167364 -0.113165 1.9035e-13)
(-0.157753 -0.0894084 -2.08558e-13)
(-0.156964 -0.10049 -1.19314e-13)
(-0.153447 -0.100012 4.48076e-13)
(-0.151542 -0.0917329 1.28168e-13)
(-0.137234 -0.0902206 -1.19055e-13)
(-0.124979 -0.088133 -1.77689e-14)
(-0.110077 -0.0888588 3.4181e-13)
(-0.0907997 -0.09012 -1.53799e-13)
(-0.0626812 -0.091503 -4.91413e-13)
(-0.0218579 -0.0895516 1.88385e-13)
(0.0647339 -0.0830031 2.35354e-13)
(0.14308 -0.0522019 4.65528e-14)
(0.266694 -0.00137396 -1.29572e-13)
(0.254142 0.0172955 1.92464e-13)
(0.187964 0.00571709 -4.18904e-14)
(0.171674 0.00633474 -7.06257e-14)
(0.149927 0.00506612 -3.0216e-14)
(0.120687 0.000392163 5.57218e-15)
(0.0851892 -0.00271127 -1.51662e-14)
(0.0573713 -0.00483443 -1.63007e-14)
(0.0435046 -0.00626889 -2.04079e-14)
(0.0404533 -0.00708103 3.59746e-14)
(0.0405991 -0.00735227 -1.88795e-13)
(0.0407826 -0.00713557 -2.24038e-13)
(0.0415747 -0.00691349 1.63141e-13)
(0.0477503 -0.00733285 -3.9427e-14)
(0.0462359 -0.00973259 3.34629e-14)
(0.0688664 -0.0210561 -1.41678e-14)
(1.05435 -0.128126 -4.50726e-14)
(-0.0090245 -0.288974 -4.61491e-15)
(0.018545 -0.242515 1.24429e-13)
(0.0397218 -0.1896 -8.06e-15)
(0.0480793 -0.147445 -1.29311e-13)
(0.0515665 -0.107903 -2.56575e-14)
(0.0485353 -0.0675437 1.27519e-13)
(0.0316993 -0.0316927 1.10309e-13)
(0.019025 -0.015863 5.99813e-14)
(0.0226055 -0.0200777 -8.17351e-14)
(0.0334552 -0.0245991 -1.1074e-14)
(0.0375823 -0.0182555 1.01838e-13)
(0.0355154 -0.0133462 -5.22394e-15)
(0.0335198 -0.0109715 1.23175e-14)
(0.0318879 -0.00824978 -2.47375e-14)
(0.0291965 -0.00570552 -3.25601e-14)
(0.026071 -0.00421607 1.41291e-14)
(0.0234395 -0.00326148 1.70803e-14)
(0.0211837 -0.00254779 -5.79807e-14)
(0.0191503 -0.00197362 2.69026e-14)
(0.0173198 -0.00155067 1.7826e-14)
(0.0157249 -0.00118139 1.46675e-14)
(0.0143072 -0.000878022 3.18698e-14)
(0.0130409 -0.000592338 4.17067e-14)
(0.0118422 -0.000277624 1.76162e-14)
(0.0106638 0.000113253 -1.51329e-14)
(0.00950576 0.000458786 8.17538e-16)
(0.00841918 0.000643476 -5.65369e-15)
(0.00751847 0.000705336 -2.07377e-15)
(0.00678667 0.000609486 3.90239e-16)
(0.00606678 0.000479567 -3.92436e-17)
(0.00562993 0.000389737 2.89936e-16)
(0.00513528 0.000418928 6.23556e-16)
(0.0046376 0.000449775 1.85676e-15)
(0.0041617 0.000455502 2.3589e-15)
(0.0037009 0.000445858 7.61651e-16)
(0.00383526 0.000435152 -1.55193e-15)
(0.00360653 0.000406979 -6.04292e-17)
(0.00297898 0.000418826 3.79902e-15)
(-0.000422749 0.000368109 9.23038e-15)
(0.0235497 -0.247345 -5.10689e-15)
(0.00601788 -0.244358 -7.62435e-16)
(-0.016004 -0.207401 -5.74707e-15)
(-0.0349163 -0.207668 1.54338e-14)
(-0.0471645 -0.19803 3.89673e-15)
(-0.0577215 -0.182866 -3.35473e-14)
(-0.067865 -0.168432 -1.07305e-13)
(-0.0736533 -0.152231 -9.51712e-14)
(-0.0760155 -0.134466 -1.11149e-13)
(-0.0763162 -0.117577 1.10263e-14)
(-0.07381 -0.101503 2.63608e-13)
(-0.0692366 -0.0843919 7.05628e-14)
(-0.0644314 -0.0672718 -9.92361e-14)
(-0.0574336 -0.0542888 -2.40816e-13)
(-0.0586463 -0.0406338 1.10181e-13)
(-0.0641168 -0.0293353 1.45806e-13)
(-0.0694902 -0.0237073 -9.41989e-14)
(-0.0780401 -0.0223772 -1.89102e-13)
(-0.0934004 -0.0273484 3.16999e-13)
(-0.117547 -0.0375525 -9.49219e-14)
(-0.164967 -0.0496468 -1.19972e-13)
(-0.186618 -0.0774831 1.79073e-13)
(-0.209559 -0.0669894 7.3023e-14)
(-0.100283 -0.0277004 -3.25243e-15)
(0.032864 0.0150885 -3.30277e-14)
(0.0624009 0.0217953 3.69879e-15)
(0.0581895 0.0144763 -3.06255e-14)
(0.0891214 0.00492256 2.11198e-14)
(0.107289 0.000582034 -3.31492e-14)
(0.115987 -0.0014037 -7.23827e-14)
(0.11014 -0.00348221 6.98358e-14)
(0.0840259 -0.00614183 3.07528e-14)
(0.0642199 -0.00844563 -1.22085e-13)
(0.0503495 -0.00931953 7.79176e-14)
(0.0466803 -0.00888406 1.73442e-14)
(0.0514191 -0.0086 -3.65593e-14)
(0.0537253 -0.00970115 -1.01132e-13)
(0.0594555 -0.0102784 2.82355e-14)
(0.156694 -0.0173882 6.64067e-15)
(0.0366941 -0.23484 2.92979e-14)
(0.0450746 -0.199505 -2.77644e-14)
(0.0503482 -0.156038 -9.85386e-14)
(0.0521108 -0.124896 4.48991e-14)
(0.0494534 -0.0946212 2.04375e-14)
(0.0430964 -0.0641331 -6.46587e-14)
(0.032149 -0.0361771 1.37398e-14)
(0.0266494 -0.0261535 -1.17586e-13)
(0.0312925 -0.0280157 -7.94995e-14)
(0.0372602 -0.0275983 -8.79744e-14)
(0.0392677 -0.0233937 9.76047e-14)
(0.0374635 -0.019671 1.45956e-14)
(0.0349387 -0.0167389 -1.37128e-14)
(0.0325188 -0.013697 -8.08994e-14)
(0.0296452 -0.0110156 -5.80542e-14)
(0.026479 -0.00907735 3.78346e-14)
(0.0236517 -0.00760103 -2.13684e-14)
(0.0212407 -0.00637444 -4.39299e-14)
(0.0191127 -0.00535342 -3.9994e-15)
(0.0172195 -0.00451812 -4.01874e-14)
(0.015578 -0.00379448 -4.29464e-14)
(0.0141315 -0.00316479 -8.4206e-14)
(0.0128263 -0.00258103 -6.38347e-14)
(0.0115776 -0.00201331 -1.79594e-14)
(0.0103583 -0.00144651 3.93905e-15)
(0.00917631 -0.000993769 -1.13924e-15)
(0.00808064 -0.000720541 -1.04934e-14)
(0.00714214 -0.000496524 4.45372e-15)
(0.00635133 -0.000254327 5.78004e-16)
(0.00565876 -2.06441e-05 -1.80354e-16)
(0.00508382 0.000256645 -1.32209e-17)
(0.00459375 0.000355383 -5.39858e-16)
(0.00415501 0.000404985 -9.89768e-16)
(0.00373721 0.000423576 -1.47003e-15)
(0.00334501 0.000414401 1.88551e-15)
(0.00315479 0.000334757 4.53039e-17)
(0.00310867 0.00036144 1.45375e-14)
(0.00234942 0.000335809 8.77855e-15)
(0.000279911 0.000291971 -1.03786e-13)
(-0.00546793 -0.195645 7.94281e-15)
(-0.0222358 -0.193013 -2.3586e-15)
(-0.0368911 -0.165834 1.04713e-16)
(-0.0547839 -0.166325 -7.1447e-15)
(-0.0664702 -0.157441 1.88504e-15)
(-0.0767763 -0.144873 3.56713e-14)
(-0.0870003 -0.133056 5.83131e-14)
(-0.0931638 -0.11917 5.45224e-14)
(-0.0962706 -0.104007 -1.33141e-13)
(-0.0974243 -0.0894379 -1.11458e-13)
(-0.095656 -0.0750952 1.4128e-13)
(-0.0917711 -0.0616651 2.56238e-13)
(-0.0856235 -0.0512279 1.35608e-13)
(-0.0783206 -0.0438929 -4.71667e-13)
(-0.0732095 -0.0364144 -1.62065e-13)
(-0.0596805 -0.0376157 3.85577e-13)
(-0.0504455 -0.0362884 8.39958e-14)
(-0.0414995 -0.0364746 -1.24286e-13)
(-0.034398 -0.0381807 -2.28477e-13)
(-0.0319771 -0.041794 1.98047e-13)
(-0.0435353 -0.0551626 4.36552e-14)
(-0.0692877 -0.0532825 -2.22727e-13)
(-0.107999 -0.0510028 1.65688e-13)
(-0.142106 -0.0376792 -1.13968e-13)
(-0.137217 -0.0193622 -3.72997e-14)
(-0.0841214 -0.00447065 3.56964e-14)
(0.01099 -0.0157877 -4.55901e-14)
(-0.0714368 -0.00530797 1.00786e-14)
(-0.0468743 -0.000162381 1.37125e-14)
(0.0114639 -0.00510581 2.10676e-14)
(0.00315532 0.00172747 -9.29607e-15)
(0.0612374 -0.00464592 2.55357e-14)
(0.0881117 -0.00697895 2.08009e-13)
(0.0750405 -0.00981543 5.5037e-14)
(0.061239 -0.00934023 -7.72654e-14)
(0.0545511 -0.00911285 -1.16916e-13)
(0.0526682 -0.0098243 1.71063e-14)
(0.0541022 -0.00906762 -2.89307e-14)
(0.0875854 -0.0187689 4.7572e-14)
(0.00890292 -0.186176 1.88463e-14)
(0.0211218 -0.162159 -3.69191e-14)
(0.0309954 -0.130335 -4.07982e-15)
(0.0370998 -0.107741 -3.3682e-14)
(0.0390771 -0.0840569 -2.06308e-14)
(0.036704 -0.0598589 7.34698e-14)
(0.0305611 -0.0384318 -1.84208e-13)
(0.0289531 -0.0321087 1.69044e-13)
(0.0353462 -0.0333324 1.99517e-15)
(0.0388149 -0.0303504 -1.20367e-13)
(0.0400037 -0.0255031 -7.03622e-14)
(0.0388528 -0.0209225 -1.98486e-14)
(0.0365584 -0.0169875 5.9464e-14)
(0.0340195 -0.0134547 1.2927e-13)
(0.0312045 -0.0104132 2.11269e-14)
(0.028133 -0.00803928 -4.73087e-14)
(0.0252688 -0.00625733 2.21784e-14)
(0.0227408 -0.00487519 4.99595e-14)
(0.0204929 -0.00379734 -3.67476e-15)
(0.0184722 -0.0029633 -7.77548e-15)
(0.0167005 -0.00229531 -2.14133e-14)
(0.0151216 -0.00174633 5.27345e-14)
(0.0136729 -0.00126829 3.08866e-14)
(0.0122789 -0.000823996 -1.07545e-14)
(0.0109384 -0.000384154 -1.68741e-14)
(0.00967741 -2.2249e-05 -6.95056e-15)
(0.00851454 0.000208021 1.25862e-14)
(0.0074936 0.000384896 -8.88003e-16)
(0.0066054 0.000512088 -5.10607e-16)
(0.00582201 0.000580738 2.0011e-16)
(0.00513555 0.000552607 -4.20497e-17)
(0.00459842 0.000495912 -3.71696e-17)
(0.00414079 0.000479223 2.79084e-16)
(0.0036705 0.000317044 5.15564e-16)
(0.00258522 -0.00188121 -3.25762e-15)
(0.00248776 -0.00143502 7.62278e-15)
(0.00253988 0.000139321 -1.29438e-14)
(0.00230032 0.000997851 -3.00635e-14)
(0.000393239 0.000228132 -1.97875e-16)
(0.00321534 -0.162854 -4.04572e-15)
(-0.00848087 -0.160597 4.80783e-15)
(-0.0195224 -0.139945 2.10237e-17)
(-0.032778 -0.142689 -4.11683e-15)
(-0.0413523 -0.13705 -2.86397e-14)
(-0.0492206 -0.128349 3.45172e-14)
(-0.0574457 -0.121126 1.25224e-14)
(-0.0623851 -0.111525 -6.99229e-14)
(-0.0654482 -0.100672 -5.81256e-14)
(-0.0669444 -0.0900475 -1.2118e-13)
(-0.0660513 -0.0792234 1.7463e-14)
(-0.0635276 -0.0689373 -1.32216e-13)
(-0.0595216 -0.0597791 8.03619e-15)
(-0.0550402 -0.0515455 3.53944e-13)
(-0.0498851 -0.0446547 -2.33932e-13)
(-0.0465292 -0.0359436 -1.67559e-13)
(-0.0448803 -0.0282123 1.01487e-13)
(-0.0428749 -0.0235534 -1.31847e-13)
(-0.0405295 -0.0211814 8.49169e-14)
(-0.0385407 -0.0207772 -1.4411e-13)
(-0.0382276 -0.0218519 -1.61653e-13)
(-0.0423783 -0.0232119 1.83164e-13)
(-0.0533094 -0.0195463 -4.05258e-14)
(-0.0741914 -0.0118263 8.96546e-14)
(-0.0875929 -0.000477046 5.67317e-14)
(-0.102095 0.00991094 6.24549e-15)
(-0.137886 0.017818 1.08772e-13)
(-0.0527878 0.00338263 -2.1143e-14)
(-0.0564086 0.00763826 2.25412e-14)
(-0.065428 0.00239302 -5.53461e-14)
(-0.0729819 -0.00166811 -1.55775e-13)
(-0.0516818 0.00485443 9.97549e-16)
(-0.0472728 0.00515645 1.40471e-13)
(0.0483849 -0.00960934 -3.29741e-14)
(0.049083 -0.00488647 -1.05843e-13)
(0.0543519 -0.00803114 1.18946e-13)
(0.0500135 -0.00947177 -4.03304e-14)
(0.0536468 -0.00963922 -1.70829e-14)
(0.0778739 -0.0198999 -9.01062e-16)
(0.0131636 -0.154933 2.0307e-14)
(0.0209898 -0.136387 1.43927e-14)
(0.0273291 -0.110797 -3.19972e-14)
(0.0319031 -0.0932396 7.88976e-14)
(0.0338267 -0.0744458 1.86869e-13)
(0.0324578 -0.0551911 -6.83431e-14)
(0.0301427 -0.0412122 -7.25402e-14)
(0.0313111 -0.0366686 1.49913e-13)
(0.0364329 -0.0354934 1.27152e-13)
(0.0390777 -0.0317638 3.55055e-14)
(0.0398185 -0.0271505 -5.18449e-14)
(0.0388775 -0.0226959 5.91159e-14)
(0.0367408 -0.0187371 4.54676e-14)
(0.0341911 -0.0152693 -3.93516e-15)
(0.03144 -0.0122991 -9.36955e-14)
(0.028456 -0.00987888 3.93712e-15)
(0.0256173 -0.008014 3.72099e-15)
(0.0230394 -0.00654559 2.08003e-16)
(0.0207399 -0.00536672 1.51268e-14)
(0.0186629 -0.00441314 -5.43412e-15)
(0.0168313 -0.00362531 1.22867e-14)
(0.0151965 -0.00295208 -2.66915e-14)
(0.0136923 -0.00234951 -1.534e-14)
(0.0122433 -0.00178758 1.54729e-14)
(0.0108665 -0.00126183 2.09088e-14)
(0.00959281 -0.000829914 1.2508e-15)
(0.00842415 -0.000529641 -1.2316e-15)
(0.00739433 -0.000309652 -3.24888e-15)
(0.00649932 -0.00014203 6.51523e-16)
(0.00571019 -1.24573e-05 -1.03447e-16)
(0.00499371 6.8743e-05 -5.24104e-16)
(0.00442528 0.000196816 -2.89553e-17)
(0.00394956 0.000249395 6.80773e-17)
(0.0034978 0.00055495 -7.35387e-17)
(0.00332811 0.00375131 -9.30498e-16)
(0.00286751 0.0029687 -6.91177e-16)
(0.0025624 0.000627962 1.03556e-14)
(0.00222164 -0.00042711 -1.08918e-14)
(0.000532337 0.000462124 5.54967e-15)
(-0.00126681 -0.135697 1.93606e-15)
(-0.0115657 -0.133707 5.15034e-16)
(-0.0205128 -0.117608 3.17153e-15)
(-0.0322868 -0.120235 -2.44786e-15)
(-0.0400612 -0.11574 -1.09069e-15)
(-0.0472685 -0.10847 1.62305e-14)
(-0.0550619 -0.102461 7.58549e-15)
(-0.0599916 -0.0942998 4.03867e-14)
(-0.0633479 -0.0849699 6.7795e-14)
(-0.0654772 -0.0757111 -3.19865e-14)
(-0.0654189 -0.0661195 -7.79878e-15)
(-0.0639121 -0.0567438 7.49354e-14)
(-0.061201 -0.0481615 -1.45299e-13)
(-0.0574073 -0.0405979 -2.89013e-13)
(-0.0531122 -0.0340484 1.75024e-13)
(-0.0490241 -0.0279102 2.68134e-13)
(-0.0428471 -0.0272448 -3.55539e-13)
(-0.0388482 -0.0271881 6.06002e-14)
(-0.0355002 -0.0284837 1.11913e-13)
(-0.0335272 -0.0306293 -1.12804e-13)
(-0.0340175 -0.0328286 8.54798e-14)
(-0.0368099 -0.0322978 -8.7161e-14)
(-0.0408573 -0.0259385 -1.69365e-13)
(-0.0422349 -0.0139495 -5.02812e-14)
(-0.0406882 -0.00376697 -1.16167e-13)
(-0.0328028 0.00158045 5.62525e-14)
(-0.0274002 0.0034539 -1.6199e-14)
(-0.0250276 0.00239187 -1.08986e-14)
(-0.0285124 0.00201123 2.13607e-14)
(-0.0567233 0.00527165 4.24062e-14)
(-0.0183524 -0.00169131 3.29522e-14)
(-0.0493832 -0.00168831 -4.53321e-14)
(-0.0336677 0.00155834 -1.1704e-13)
(-0.0254016 0.00297105 -1.48289e-13)
(-0.0291383 0.000284837 3.31983e-14)
(0.0115757 -0.00187443 7.41813e-14)
(0.0367554 -0.00687808 8.5807e-14)
(0.0530589 -0.00978737 3.95027e-14)
(0.0770963 -0.0212331 2.92281e-14)
(0.0077566 -0.129357 8.60861e-15)
(0.0151791 -0.115247 -2.0725e-14)
(0.0214458 -0.0950266 1.05042e-14)
(0.0261782 -0.0811887 -5.94355e-15)
(0.0285306 -0.0661237 4.77823e-15)
(0.0284092 -0.0504675 -7.83153e-14)
(0.02851 -0.041352 -2.94632e-14)
(0.0316379 -0.0385255 -3.48387e-14)
(0.0359525 -0.0363501 2.74712e-14)
(0.0381206 -0.0323756 1.3569e-13)
(0.0387419 -0.0278894 -3.03308e-14)
(0.0380619 -0.0235178 -5.88621e-14)
(0.0362675 -0.0194828 2.55912e-15)
(0.0339673 -0.0159159 -5.13046e-14)
(0.0314337 -0.0128431 1.69679e-14)
(0.0286658 -0.0102558 2.54041e-14)
(0.0259637 -0.00818371 3.93135e-14)
(0.0234469 -0.00652436 1.5033e-14)
(0.0211637 -0.00518575 -1.76931e-14)
(0.0190814 -0.00410606 2.26943e-14)
(0.0172177 -0.00323014 2.51523e-14)
(0.0155343 -0.00250166 1.82375e-14)
(0.0139702 -0.00187629 3.80569e-15)
(0.0124591 -0.00132151 -1.43869e-14)
(0.011028 -0.000822577 1.17813e-14)
(0.00972162 -0.000412647 3.27556e-15)
(0.00852797 -0.000124174 -1.13447e-14)
(0.00747199 8.46335e-05 1.21991e-15)
(0.00655361 0.000243882 -1.17106e-16)
(0.00574546 0.0003637 2.04041e-16)
(0.00501911 0.000452793 6.60251e-16)
(0.00442267 0.000465396 -1.58888e-16)
(0.00395791 0.000475391 -2.44525e-16)
(0.00355651 0.000385521 5.66316e-16)
(0.00350118 -0.000703889 1.40181e-15)
(0.0030898 -0.00051794 -1.19677e-14)
(0.00245999 0.000394292 3.48728e-15)
(0.00188502 0.000552549 4.43492e-14)
(0.000371575 0.000754984 3.11804e-14)
(-0.000464515 -0.115257 3.09519e-15)
(-0.00865735 -0.113869 5.86049e-16)
(-0.0158411 -0.101417 -1.14698e-15)
(-0.02551 -0.104354 4.13314e-15)
(-0.0316661 -0.101041 -8.61208e-15)
(-0.0378583 -0.0957441 -1.03902e-15)
(-0.0445547 -0.0916706 2.35277e-14)
(-0.0488288 -0.0852987 -1.11138e-14)
(-0.0518292 -0.0780003 -3.95004e-14)
(-0.0538294 -0.0708038 2.65184e-14)
(-0.0539714 -0.063176 -6.07191e-14)
(-0.0529556 -0.0556753 -1.50674e-13)
(-0.0509256 -0.0487459 1.06433e-13)
(-0.0478798 -0.0424453 3.76727e-13)
(-0.0444399 -0.0368716 -1.39545e-14)
(-0.040526 -0.0323889 -4.00985e-13)
(-0.0370355 -0.0278696 3.32195e-13)
(-0.0353051 -0.0247224 2.33191e-13)
(-0.0342135 -0.02322 1.24582e-13)
(-0.0339811 -0.0229615 5.87449e-14)
(-0.0354913 -0.0236006 -2.88861e-14)
(-0.0390456 -0.0234456 1.62022e-13)
(-0.042747 -0.0196558 1.12089e-13)
(-0.0427634 -0.0115778 -1.02154e-14)
(-0.0376765 -0.00332452 2.14194e-13)
(-0.0306579 0.00180287 -6.5657e-14)
(-0.0229579 0.00334587 -7.64528e-15)
(-0.0176546 0.00254411 5.67671e-15)
(-0.0147099 0.00172606 -2.01345e-14)
(-0.0116631 0.00126651 -2.07958e-14)
(-0.0118798 0.000217619 -1.5276e-14)
(-0.0127079 -0.000688008 4.77807e-14)
(-0.011532 -0.00397146 -2.26989e-14)
(-0.0648641 0.00828673 -1.27773e-13)
(-0.0335023 0.00122201 -2.07924e-14)
(-0.0565471 0.00980538 -1.03359e-13)
(-0.00153931 -0.00334466 -5.87171e-14)
(0.0335516 -0.0066527 6.55668e-15)
(0.0711684 -0.0203466 -2.62421e-14)
(0.00681363 -0.109932 -9.67266e-15)
(0.0128284 -0.0987149 1.21986e-14)
(0.0180774 -0.0822879 -2.61254e-14)
(0.0222534 -0.0711108 -3.94955e-15)
(0.0245317 -0.0587284 7.35122e-15)
(0.025002 -0.0457042 1.12037e-14)
(0.026469 -0.039439 8.053e-14)
(0.0306114 -0.0385209 -1.01499e-13)
(0.0344041 -0.0359473 -3.28373e-14)
(0.0364737 -0.0320857 -3.10843e-14)
(0.0371524 -0.0279248 1.17263e-13)
(0.0366861 -0.023841 -4.63859e-14)
(0.0352146 -0.019985 -4.63728e-15)
(0.0332216 -0.0165433 1.85067e-14)
(0.0309423 -0.0135567 1.77863e-14)
(0.0284 -0.0109887 1.21053e-14)
(0.0258724 -0.00888481 -7.67604e-14)
(0.0234558 -0.00717871 -2.81289e-14)
(0.0212172 -0.0057933 3.57879e-14)
(0.019151 -0.00466444 1.43696e-15)
(0.0172815 -0.00374306 3.63495e-14)
(0.0155709 -0.00297137 -1.03706e-14)
(0.0139724 -0.0023046 1.5029e-15)
(0.012428 -0.00171196 2.42047e-14)
(0.0109763 -0.00118865 -2.03294e-14)
(0.00966228 -0.000759904 -6.97824e-15)
(0.00846616 -0.000446548 6.56648e-15)
(0.00740453 -0.000218603 2.19164e-15)
(0.00648054 -4.7181e-05 -1.35376e-18)
(0.00567062 8.55759e-05 -2.5558e-16)
(0.00494588 0.000166032 6.34216e-16)
(0.00433521 0.000233699 7.36161e-17)
(0.00388413 0.000274934 -1.07261e-15)
(0.00347216 0.000297979 5.26999e-17)
(0.00307864 0.000335135 -3.17453e-15)
(0.00276259 0.000395935 7.27481e-15)
(0.00241581 0.000299654 -1.54673e-15)
(0.00204991 0.000191038 -2.46859e-15)
(0.00103491 -3.61069e-05 -4.23888e-14)
(-0.00119269 -0.0985674 1.40456e-15)
(-0.00827423 -0.0979306 1.52074e-15)
(-0.0142714 -0.0879914 -9.41461e-16)
(-0.0226798 -0.0906131 -1.92923e-15)
(-0.0287836 -0.0880577 -3.77466e-15)
(-0.0334155 -0.0835587 1.64237e-14)
(-0.0391703 -0.0803145 1.38022e-14)
(-0.0433095 -0.0751534 -5.17976e-14)
(-0.0463648 -0.0690596 2.17028e-14)
(-0.0486131 -0.062935 1.11088e-13)
(-0.0491325 -0.0562784 4.62659e-14)
(-0.0486414 -0.0496445 2.13484e-14)
(-0.0472758 -0.0434021 -1.877e-13)
(-0.0449875 -0.0375682 -4.29407e-13)
(-0.0421907 -0.0323496 -3.03721e-13)
(-0.0390232 -0.0277956 1.19935e-13)
(-0.035801 -0.0237496 -7.37584e-14)
(-0.0331605 -0.0225653 -3.76878e-13)
(-0.031804 -0.0226004 -1.94654e-13)
(-0.03134 -0.0232842 1.60816e-13)
(-0.0324622 -0.023969 1.60993e-13)
(-0.0354247 -0.023404 -9.35594e-14)
(-0.0392697 -0.0197663 -3.82667e-14)
(-0.0407705 -0.0126408 2.24252e-15)
(-0.0375398 -0.00510814 -6.09519e-14)
(-0.0311577 -0.000119056 6.32603e-14)
(-0.02441 0.0018889 7.21386e-15)
(-0.01923 0.00164987 4.31835e-15)
(-0.0159282 0.00104674 -4.4131e-15)
(-0.0133743 0.00094418 5.21648e-14)
(-0.0100698 0.000322506 3.49557e-14)
(-0.00926671 -0.000441437 -3.50964e-15)
(-0.0146329 0.00117608 1.13236e-13)
(-0.0132568 0.000156344 7.81995e-14)
(-0.015383 -0.00167898 -4.05751e-14)
(-0.0134632 -0.000459559 7.12374e-14)
(-0.0329402 0.00344316 5.88042e-14)
(-0.00689772 -0.00193681 -3.55592e-14)
(0.0487576 -0.0163575 -2.83099e-14)
(0.00510413 -0.0940976 7.39723e-15)
(0.0104127 -0.0850749 -1.20488e-14)
(0.0151034 -0.0716921 3.24602e-15)
(0.0189804 -0.0625138 6.11608e-14)
(0.0212894 -0.0521575 3.17438e-15)
(0.0225306 -0.0427562 1.01612e-13)
(0.0250947 -0.0388261 1.36658e-13)
(0.0294089 -0.0371703 -5.28538e-14)
(0.0323674 -0.0346907 -7.25289e-14)
(0.0343009 -0.0311645 -5.53756e-14)
(0.0351442 -0.0274211 -1.02084e-13)
(0.0349328 -0.0236917 -5.49289e-15)
(0.0337828 -0.0200843 -4.30121e-14)
(0.0321277 -0.0168123 5.7822e-14)
(0.0301434 -0.0139232 1.93903e-14)
(0.0278684 -0.0113814 -3.07387e-14)
(0.0255608 -0.00924408 -3.28965e-15)
(0.0232946 -0.00747126 -2.54199e-14)
(0.0211497 -0.00600688 2.79505e-15)
(0.019138 -0.00479656 -1.77457e-14)
(0.0172931 -0.00380001 -3.33495e-14)
(0.0155832 -0.00296597 1.47799e-14)
(0.0139705 -0.00225296 -2.75952e-14)
(0.0124069 -0.00163183 -1.00567e-14)
(0.010946 -0.0010963 6.27354e-15)
(0.00962789 -0.000661048 3.96326e-15)
(0.00842981 -0.000336985 1.55939e-15)
(0.00736319 -0.000102198 -1.03253e-15)
(0.00643227 7.2485e-05 -4.33838e-16)
(0.00561749 0.000205147 -7.71462e-17)
(0.00489092 0.000295274 -1.02497e-15)
(0.00425847 0.000344167 5.50624e-16)
(0.00381662 0.000381089 3.05191e-15)
(0.00341709 0.000386267 5.01372e-17)
(0.00303022 0.000368289 2.51032e-15)
(0.00269801 0.000321757 -3.43663e-15)
(0.00244317 0.000292405 -6.50093e-15)
(0.0020502 0.000165217 3.79646e-15)
(0.00149423 -0.000349338 -2.27664e-14)
(-0.00124764 -0.085004 2.42096e-15)
(-0.00716484 -0.087593 4.03668e-15)
(-0.0123773 -0.0771685 -1.74195e-16)
(-0.0195037 -0.0793147 -3.98377e-17)
(-0.025493 -0.0787197 -2.56394e-15)
(-0.0296704 -0.0736902 -6.68368e-15)
(-0.0349733 -0.0712025 -4.90197e-15)
(-0.037375 -0.0670767 -5.22439e-14)
(-0.0397957 -0.062153 -9.94678e-16)
(-0.0420733 -0.0573637 1.92183e-14)
(-0.0428671 -0.0518776 -2.32516e-14)
(-0.0427084 -0.0463313 1.41068e-13)
(-0.0417606 -0.0410654 1.48887e-13)
(-0.0399626 -0.0360693 2.69661e-14)
(-0.0376786 -0.031555 2.76627e-13)
(-0.0350553 -0.0275944 -5.75646e-14)
(-0.0321947 -0.0244124 -7.18557e-16)
(-0.030085 -0.0218243 2.14377e-13)
(-0.0294712 -0.0208768 9.99332e-14)
(-0.029534 -0.0205491 -2.94875e-14)
(-0.0307337 -0.0203546 -1.21881e-13)
(-0.0330968 -0.0194806 -1.14878e-14)
(-0.0359708 -0.0165516 -9.36332e-14)
(-0.0372661 -0.0110533 -8.094e-14)
(-0.0350485 -0.00496332 4.88287e-14)
(-0.0300818 -0.000621568 -3.10616e-14)
(-0.0245498 0.00133377 -5.64544e-14)
(-0.0201659 0.00135294 6.4436e-15)
(-0.0173633 0.000877238 -3.11549e-15)
(-0.0150804 0.000698206 -3.85865e-15)
(-0.0126405 0.000287659 8.2074e-14)
(-0.0102927 -0.000388767 -2.93714e-14)
(-0.00793119 -0.00114304 -3.92138e-14)
(-0.00861235 -0.00083815 2.27335e-13)
(-0.00681378 -0.00078994 3.71826e-14)
(-0.0011532 -0.00531968 -8.33409e-14)
(-0.0305035 0.00330181 -1.59348e-14)
(-0.0427079 0.00746197 2.6449e-14)
(0.0114451 -0.0115857 -4.89724e-15)
(0.00415877 -0.0811898 -1.31573e-14)
(0.00874211 -0.0738028 -3.10562e-14)
(0.012858 -0.0627488 5.073e-14)
(0.0163734 -0.0551012 9.72499e-14)
(0.018588 -0.0463897 6.43371e-14)
(0.0204212 -0.0398712 -1.65817e-13)
(0.0231053 -0.0373153 -1.13925e-13)
(0.0276159 -0.036005 -3.87682e-14)
(0.0305101 -0.0329836 7.07134e-14)
(0.0319897 -0.0297708 7.31207e-14)
(0.0329027 -0.0264731 2.72256e-14)
(0.0329348 -0.0231546 2.49052e-14)
(0.0320996 -0.0198761 -2.67134e-14)
(0.0307781 -0.0168494 -8.73145e-14)
(0.0290873 -0.0141224 1.33924e-14)
(0.0270875 -0.0116775 2.70718e-14)
(0.0250153 -0.00957887 1.8428e-14)
(0.0229156 -0.00780059 5.10534e-14)
(0.0208904 -0.00631149 -2.84582e-14)
(0.0189576 -0.00506738 -2.12471e-14)
(0.0171569 -0.00403459 -1.52954e-14)
(0.0154644 -0.00316757 -3.15707e-15)
(0.0138541 -0.0024276 2.46095e-14)
(0.0122899 -0.00178662 1.64331e-14)
(0.0108344 -0.00124113 1.90625e-14)
(0.0095254 -0.000799923 6.45968e-15)
(0.00833629 -0.000466489 2.74019e-17)
(0.00727465 -0.000223428 2.20867e-15)
(0.00634521 -4.53086e-05 -3.07954e-16)
(0.00553255 9.02218e-05 3.01086e-16)
(0.00480992 0.000181944 -3.78912e-16)
(0.00417211 0.000233862 3.35257e-17)
(0.00373384 0.000283963 -1.76083e-15)
(0.00334875 0.000299919 4.31602e-16)
(0.00297478 0.000301648 4.63814e-15)
(0.00265817 0.000279799 -1.10327e-15)
(0.00241897 0.00026998 8.95878e-16)
(0.00200798 0.00015902 -8.17825e-15)
(0.00119584 -1.38977e-05 7.98648e-15)
(-0.00137742 -0.0737286 -2.95117e-15)
(-0.00653335 -0.0759886 1.77389e-16)
(-0.0109128 -0.0699706 -1.66948e-15)
(-0.0171627 -0.0694004 -1.52265e-15)
(-0.021417 -0.0673149 8.95147e-15)
(-0.0270451 -0.0668439 -2.94403e-15)
(-0.0316764 -0.0637104 2.91891e-14)
(-0.034238 -0.0596196 2.04039e-14)
(-0.0366254 -0.0555178 5.16596e-15)
(-0.0373427 -0.0516505 -1.69802e-15)
(-0.0381654 -0.0470585 7.13273e-15)
(-0.03837 -0.0422767 -3.1399e-14)
(-0.0378379 -0.0376599 -1.36922e-13)
(-0.0365037 -0.033196 3.63791e-14)
(-0.0347304 -0.0291033 1.87899e-14)
(-0.0325781 -0.025461 5.24738e-14)
(-0.0302469 -0.0223016 -4.62409e-16)
(-0.0280264 -0.0198443 -9.39875e-14)
(-0.0275072 -0.019005 -1.3894e-13)
(-0.0276168 -0.0188736 -1.19595e-13)
(-0.0286447 -0.0186719 -6.96816e-14)
(-0.0305628 -0.0177471 -5.63943e-14)
(-0.0327968 -0.0151154 1.91655e-14)
(-0.0338086 -0.0104464 6.71807e-14)
(-0.0320541 -0.00518047 -3.61537e-14)
(-0.0280027 -0.00120611 -1.37477e-14)
(-0.0233421 0.000772689 4.44362e-14)
(-0.0195356 0.00103369 2.10257e-15)
(-0.017104 0.000727625 2.45268e-14)
(-0.0153528 0.000584355 -3.05508e-14)
(-0.0136796 0.000256564 -1.01157e-13)
(-0.0121931 -0.000264354 -5.51002e-14)
(-0.0111809 -0.000623825 3.48962e-14)
(-0.0104037 -0.000684466 -1.51689e-14)
(-0.00889843 -0.000480294 2.0502e-14)
(-0.00641462 1.12884e-05 3.06876e-14)
(-0.00738788 -0.00188099 5.44879e-15)
(-0.0252042 -0.00428944 -1.69127e-14)
(-0.0140263 -0.00360954 4.31126e-14)
(0.00332888 -0.0704164 -2.40716e-14)
(0.00736116 -0.0643045 1.50788e-14)
(0.0110258 -0.0551284 4.42794e-14)
(0.0141686 -0.0487074 1.44171e-14)
(0.0162752 -0.041323 1.02313e-13)
(0.0184809 -0.0368562 1.87442e-14)
(0.0219641 -0.0353187 -2.95171e-15)
(0.0248367 -0.0339401 -9.3432e-14)
(0.0282096 -0.0316353 -3.87526e-14)
(0.0298378 -0.028267 5.65564e-14)
(0.0306661 -0.0252597 6.41737e-14)
(0.0308378 -0.0223285 1.04485e-13)
(0.0302586 -0.0193967 9.97813e-14)
(0.0292418 -0.0166491 -2.10407e-14)
(0.0278479 -0.0141239 -8.11948e-15)
(0.0261172 -0.0118061 1.5744e-14)
(0.0242851 -0.0097752 3.48085e-15)
(0.0223745 -0.00801459 1.13203e-14)
(0.0204887 -0.00651276 3.09014e-14)
(0.0186569 -0.0052392 7.04866e-17)
(0.0169233 -0.00416949 -1.2617e-14)
(0.0152698 -0.00326495 -5.76391e-15)
(0.0136816 -0.00249288 2.63971e-15)
(0.0121319 -0.00182835 1.13032e-15)
(0.0106956 -0.00126905 -3.96227e-15)
(0.00940389 -0.00081822 -8.90173e-15)
(0.00822962 -0.000473345 5.546e-16)
(0.00717773 -0.000219408 -1.41634e-15)
(0.00625333 -3.46019e-05 4.53803e-16)
(0.00544413 0.000105508 6.5312e-17)
(0.00472559 0.000201611 2.1524e-16)
(0.00409156 0.000261978 1.74379e-15)
(0.00364674 0.000305633 2.52454e-15)
(0.00327352 0.000321442 -1.92815e-15)
(0.00291317 0.000316311 -6.48945e-15)
(0.00260759 0.000282522 -4.81141e-16)
(0.00238858 0.000260664 -2.29589e-14)
(0.00198338 0.000127155 6.35291e-16)
(0.00136519 -0.000140935 1.69226e-14)
(-0.00136387 -0.0642346 -6.00776e-15)
(-0.00585874 -0.0662684 -2.48895e-15)
(-0.00966926 -0.0611181 6.72939e-16)
(-0.0150555 -0.060922 -1.43811e-15)
(-0.0188059 -0.059269 5.46931e-15)
(-0.0223771 -0.0566862 6.86155e-15)
(-0.0263847 -0.0552382 -3.54867e-15)
(-0.0320596 -0.0548427 -2.50967e-14)
(-0.0331971 -0.0502228 -5.03288e-14)
(-0.0352497 -0.0468073 2.85641e-14)
(-0.0343447 -0.0429492 2.53802e-14)
(-0.034422 -0.0388968 1.48748e-14)
(-0.034088 -0.0349241 6.21134e-14)
(-0.0330565 -0.031034 4.19951e-15)
(-0.0316344 -0.0274354 3.33327e-14)
(-0.0298701 -0.0241757 -5.09532e-14)
(-0.0279136 -0.021337 -5.49069e-14)
(-0.0259576 -0.0189692 6.42402e-14)
(-0.0254089 -0.0176752 1.26874e-13)
(-0.0257072 -0.0171983 6.41947e-14)
(-0.0266877 -0.0167088 4.55518e-14)
(-0.0283143 -0.0156647 3.3419e-14)
(-0.0300909 -0.013374 6.30917e-14)
(-0.0308892 -0.00954935 -3.60182e-14)
(-0.0294594 -0.00513558 -5.67663e-14)