/*--------------------------------*- C++ -*----------------------------------*\
| =========                 |                                                 |
| \\      /  F ield         | OpenFOAM: The Open Source CFD Toolbox           |
|  \\    /   O peration     | Version:  2306                                  |
|   \\  /    A nd           | Website:  www.openfoam.com                      |
|    \\/     M anipulation  |                                                 |
\*---------------------------------------------------------------------------*/
FoamFile
{
    version     2.0;
    format      ascii;
    arch        "LSB;label=32;scalar=64";
    class       volScalarField;
    location    "225";
    object      p;
}
// * * * * * * * * * * * * * * * * * * * * * * * * * * * * * * * * * * * * * //

dimensions      [0 2 -2 0 0 0 0];

internalField   nonuniform List<scalar> 
10720
(
-61.2053
-132.429
-216.201
-298.788
-375.134
-452.915
-521.95
-579.939
-630.335
-669.795
-699.875
-722.049
-737.441
-746.796
-750.288
-747.273
-738.656
-723.383
-702.869
-677.136
-649.477
-622.839
-599.893
-572.757
-532.511
-481.558
-429.408
-383.966
-344.81
-307.984
-271.58
-235.491
-199.762
-164.036
-127.904
-90.3334
-51.7978
-7.09864
26.5064
10.072
75.0299
144.239
208.83
264.004
305.765
330.332
338.504
336.015
323.009
301.937
278.375
254.813
232.023
210.647
190.544
171.766
153.879
136.617
119.484
102.429
85.1437
67.7191
50.5679
35.5601
23.7366
14.0352
6.16828
0.320396
-3.54383
-5.67344
-6.21533
-5.252
-2.78915
1.18244
7.01875
15.2981
29.2724
53.0525
43.8517
-10.2575
-70.8841
-135.284
-201.472
-269.226
-334.996
-396.705
-453.668
-504.128
-547.868
-584.894
-615.121
-638.543
-654.985
-664.134
-666.741
-662.688
-653.011
-638.228
-620.919
-603.383
-586.786
-564.201
-527.489
-478.637
-427.749
-382.856
-343.896
-307.157
-270.789
-234.741
-199.086
-163.455
-127.431
-89.9602
-51.506
-6.79655
26.1974
92.537
138.939
185.211
229.828
269.131
300.502
320.8
329.399
327.888
317.127
299.908
279.69
258.41
237.015
216.211
196.242
177.235
159.009
141.364
123.972
106.732
89.4388
72.1743
55.3639
40.4819
28.4558
18.6013
10.5036
4.12687
-0.427999
-3.17478
-4.20736
-3.62916
-1.47239
2.26225
7.92151
16.0679
29.9635
52.8082
57.5764
8.96225
-45.7819
-106.227
-168.909
-233.168
-297.435
-359.056
-416.447
-468.608
-514.288
-552.939
-584.249
-608.397
-625.624
-636.339
-640.581
-638.405
-630.444
-617.396
-601.076
-583.465
-565.755
-543.662
-510.471
-466.522
-419.847
-377.48
-339.938
-304.23
-268.713
-233.319
-198.093
-162.722
-126.868
-89.5316
-51.1844
-6.55069
26.3111
101.441
144.044
186.405
226.5
261.122
288.648
306.975
315.813
315.902
307.905
293.914
276.273
256.758
236.535
216.418
196.838
177.992
159.845
142.253
124.972
107.869
90.8032
73.837
57.3533
42.5161
30.2294
20.121
11.8355
5.35938
0.780264
-1.9664
-3.03776
-2.5515
-0.52119
3.08447
8.63004
16.6879
30.4485
52.4068
80.036
39.2778
-7.2855
-58.4953
-112.267
-168.532
-225.626
-281.791
-335.703
-386.207
-432.18
-472.895
-507.882
-536.988
-560.091
-577.316
-588.211
-592.731
-591.175
-584.14
-572.877
-558.9
-543.066
-522.637
-492.781
-453.429
-410.732
-370.795
-334.66
-300.056
-265.522
-230.95
-196.397
-161.565
-126.107
-89.0458
-50.8835
-6.45392
26.4986
116.541
151.592
186.741
220.64
250.299
274.45
291.286
300.333
301.835
296.263
285.215
270.431
253.37
235.128
216.494
197.953
179.775
162.044
144.705
127.61
110.661
93.7802
77.0407
60.8016
46.0228
33.5548
23.2295
14.7231
7.99202
3.09825
-0.015256
-1.45202
-1.28771
0.483503
3.89701
9.30661
17.2654
30.8521
51.9571
86.098
49.8094
8.1567
-37.9845
-86.5667
-138.002
-190.916
-243.699
-295.343
-344.689
-390.592
-432.243
-468.961
-500.248
-525.8
-545.315
-558.532
-565.455
-566.313
-561.709
-552.636
-540.355
-525.529
-506.218
-478.688
-442.581
-402.736
-364.571
-329.477
-295.739
-262.036
-228.214
-194.313
-160.047
-125.076
-88.4364
-50.5878
-6.49711
26.5367
118.681
149.798
181.087
211.261
237.681
259.471
275.243
284.421
287.035
283.511
275
262.816
248.099
231.808
214.696
197.267
179.858
162.646
145.663
128.853
112.157
95.546
79.1049
63.1649
48.519
35.9406
25.4213
16.7035
9.74859
4.62479
1.30474
-0.296576
-0.260818
1.40222
4.72117
10.0437
17.9099
31.2863
51.4981
89.8219
57.6919
20.6193
-20.4164
-63.635
-109.737
-157.44
-205.468
-253.08
-299.219
-342.918
-383.408
-419.952
-451.952
-478.979
-500.656
-516.861
-527.396
-532.261
-531.804
-526.682
-517.77
-505.486
-488.429
-463.761
-431.055
-394.228
-358.091
-324.254
-291.466
-258.578
-225.458
-192.171
-158.452
-123.967
-87.7756
-50.3204
-6.71043
26.3903
118.673
146.124
173.927
200.938
224.717
244.619
259.518
268.739
272.19
270.292
263.889
253.994
241.501
227.208
211.788
195.722
179.361
162.932
146.536
130.188
113.879
97.6234
81.5223
65.8913
51.4058
38.7693
28.0937
19.1988
12.0511
6.71514
3.17611
1.3511
1.16344
2.61038
5.7345
10.8883
18.5989
31.7051
50.9993
89.6946
60.6965
27.1494
-10.0175
-49.0838
-90.9832
-134.579
-178.752
-223.007
-266.409
-308.116
-347.445
-383.646
-416.069
-444.197
-467.576
-485.8
-498.597
-505.812
-507.712
-504.825
-497.843
-487.095
-471.629
-449.325
-419.689
-385.745
-351.64
-319.091
-287.269
-255.205
-222.775
-190.059
-156.842
-122.842
-87.1345
-50.1439
-7.13015
26.033
115.76
140.482
165.649
190.201
211.9
230.288
244.441
253.621
257.692
257.067
252.389
244.453
233.961
221.556
207.816
193.166
177.944
162.408
146.704
130.905
115.054
99.2049
83.48
68.1805
53.8925
41.2551
30.4646
21.4159
14.0864
8.5399
4.77634
2.73118
2.33968
3.60788
6.58286
11.6106
19.1951
32.0263
50.4257
87.9745
61.6516
31.136
-2.64186
-38.0502
-76.1468
-115.886
-156.291
-197.041
-237.337
-276.453
-313.819
-348.743
-380.589
-408.798
-432.859
-452.305
-466.897
-476.426
-480.949
-480.753
-476.26
-467.639
-454.2
-434.394
-407.767
-376.669
-344.658
-313.504
-282.747
-251.599
-219.943
-187.867
-155.191
-121.678
-86.4746
-50.0364
-7.73646
25.4142
111.671
134.098
157.056
179.563
199.531
216.664
230.147
239.213
243.74
244.099
240.812
234.522
225.786
215.12
203.003
189.792
175.797
161.274
146.393
131.269
115.983
100.626
85.3378
70.4087
56.3637
43.786
32.9293
23.7608
16.2759
10.5407
6.57112
4.31851
3.72622
4.80412
7.60548
12.4714
19.885
32.3734
49.8501
85.0467
60.9429
32.967
2.02393
-30.3109
-65.1598
-101.577
-138.681
-176.295
-213.721
-250.355
-285.736
-319.24
-350.271
-378.279
-402.727
-423.119
-439.085
-450.335
-456.757
-458.507
-455.873
-448.954
-437.258
-419.66
-395.749
-367.319
-337.372
-307.653
-278.001
-247.801
-216.955
-185.56
-153.467
-120.471
-85.781
-49.9374
-8.43464
24.5212
106.777
127.312
148.435
169.228
187.736
203.804
216.676
225.581
230.426
231.543
229.372
224.449
217.229
208.123
197.521
185.713
172.965
159.514
145.535
131.166
116.52
101.715
86.907
72.3804
58.6146
46.1466
35.2671
26.0083
18.3884
12.4785
8.30914
5.8488
5.0528
5.93892
8.56732
13.2722
20.5109
32.6383
49.2146
81.4719
59.273
33.4897
5.00649
-24.661
-56.6611
-90.114
-124.226
-158.919
-193.581
-227.717
-260.958
-292.754
-322.584
-349.921
-374.224
-394.984
-411.792
-424.338
-432.407
-435.994
-435.225
-430.094
-420.225
-404.799
-383.473
-357.615
-329.739
-301.513
-273.016
-243.804
-213.804
-183.124
-151.648
-119.207
-85.0584
-49.8209
-9.17248
23.4101
101.52
120.441
139.998
159.321
176.575
191.713
204.022
212.734
217.787
219.484
218.205
214.409
208.479
200.749
191.533
181.058
169.544
157.195
144.178
130.636
116.703
102.516
88.2414
74.1596
60.7171
48.4139
37.5629
28.2519
20.526
14.4637
10.1105
7.45328
6.45906
7.15203
9.59967
14.1272
21.1649
32.8839
48.5487
77.5162
56.9616
33.0779
6.72878
-20.6202
-50.1298
-80.9731
-112.428
-144.476
-176.588
-208.36
-239.508
-269.55
-298.033
-324.481
-348.379
-369.219
-386.567
-400.055
-409.394
-414.437
-415.209
-411.647
-403.45
-390.023
-371.08
-347.652
-321.809
-295.105
-267.803
-239.614
-210.495
-180.564
-149.739
-117.885
-84.3145
-49.6852
-9.96202
22.1455
96.1111
113.645
131.846
149.896
166.057
180.369
192.15
200.649
205.828
207.964
207.394
204.524
199.686
193.153
185.183
175.95
165.624
154.373
142.345
129.678
116.513
102.996
89.3013
75.7016
62.6221
50.5325
39.7574
30.4304
22.6254
16.431
11.9074
9.05994
7.8699
8.36884
10.6323
14.9747
21.797
33.081
47.8472
73.382
54.2689
32.0549
7.58256
-17.731
-45.0399
-73.5619
-102.631
-132.277
-162.032
-191.567
-220.669
-248.923
-275.948
-301.314
-324.545
-345.157
-362.701
-376.786
-387.093
-393.353
-395.499
-393.406
-386.812
-375.276
-358.559
-337.432
-313.585
-288.43
-262.363
-235.233
-207.03
-177.883
-147.742
-116.51
-83.5573
-49.5497
-10.8178
20.7493
90.7074
107.03
124.044
140.968
156.169
169.735
181.017
189.292
194.529
196.994
196.988
194.877
190.956
185.458
178.595
170.497
161.292
151.113
140.079
128.316
115.961
103.16
90.0871
77.0088
64.3331
52.5057
41.8557
32.5529
24.7003
18.3985
13.7227
10.6969
9.3174
9.62268
11.6966
15.8412
22.427
33.2423
47.115
69.1985
51.3572
30.6228
7.81305
-15.7002
-41.0551
-67.5082
-94.4359
-121.91
-149.512
-176.965
-204.12
-230.62
-256.149
-280.334
-302.742
-322.918
-340.424
-354.838
-365.836
-373.056
-376.348
-375.551
-370.426
-360.632
-345.97
-327.004
-305.095
-281.501
-256.699
-230.66
-203.407
-175.079
-145.658
-115.081
-82.786
-49.4344
-11.7395
19.228
85.3978
100.657
116.615
132.536
146.881
159.768
170.578
178.621
183.868
186.573
187.014
185.522
182.37
177.76
171.87
164.797
156.635
147.48
137.426
126.577
115.055
103.004
90.5887
78.0681
65.8344
54.3142
43.836
34.5977
26.7291
20.3452
15.5357
12.3434
10.7805
10.8931
12.7737
16.7108
23.0427
33.3635
46.3547
65.0511
48.343
28.9315
7.60706
-14.3005
-37.9088
-62.5091
-87.5101
-113.017
-138.65
-164.173
-189.487
-214.293
-238.324
-261.268
-282.739
-302.309
-319.566
-334.078
-345.516
-353.474
-357.725
-358.073
-354.291
-346.106
-333.342
-316.4
-296.363
-274.328
-250.816
-225.895
-199.624
-172.15
-143.484
-113.597
-81.9976
-49.3451
-12.725
17.5959
80.245
94.5545
109.57
124.588
138.162
150.423
160.786
168.593
173.811
176.69
177.482
176.497
173.986
170.134
165.093
158.937
151.731
143.543
134.437
124.492
113.815
102.535
90.8068
78.876
67.12
55.9493
45.6887
36.5558
28.705
22.2665
17.3446
14.0001
12.2623
12.1845
13.8683
17.5869
23.6465
33.4485
45.5703
60.9954
45.3066
27.0852
7.09778
-13.3698
-35.4097
-58.3397
-81.6041
-105.325
-129.155
-152.896
-176.489
-199.679
-222.25
-243.935
-264.395
-283.246
-300.095
-314.524
-326.195
-334.69
-339.712
-341.044
-338.466
-331.745
-320.719
-305.661
-287.42
-266.929
-244.722
-220.943
-195.682
-169.095
-141.218
-112.058
-81.1908
-49.277
-13.7716
15.8644
75.2855
88.7411
102.904
117.105
129.976
141.659
151.598
159.167
164.328
167.323
168.391
167.818
165.843
162.637
158.335
152.993
146.654
139.364
131.16
122.097
112.262
101.764
90.7444
79.4296
68.1827
57.4004
47.4003
38.4133
30.6147
24.1501
19.1382
15.6573
13.754
13.4892
14.9733
18.464
24.2343
33.4975
44.7656
57.068
42.3035
25.16
6.38349
-12.7853
-33.4058
-54.8244
-76.5159
-98.6122
-120.794
-142.896
-164.885
-186.545
-207.704
-228.139
-247.553
-265.601
-281.924
-296.12
-307.844
-316.698
-322.325
-324.489
-322.975
-317.577
-308.138
-294.826
-278.294
-259.323
-238.428
-215.808
-191.582
-165.913
-138.861
-110.463
-80.3653
-49.2275
-14.8727
14.0396
70.5399
83.223
96.6103
110.064
122.291
133.436
142.974
150.303
155.385
158.455
159.736
159.498
157.971
155.313
151.649
147.024
141.468
135.002
127.646
119.432
110.423
100.708
90.4073
79.7293
69.0198
58.6605
48.9607
40.159
32.4476
25.9866
20.9087
17.309
15.2511
14.8042
16.0866
19.34
24.8049
33.5131
43.9446
53.2937
39.3702
23.2087
5.53643
-12.4542
-31.7843
-51.8313
-72.0915
-92.7068
-113.383
-133.975
-154.472
-174.694
-194.503
-213.715
-232.073
-249.271
-264.981
-278.827
-290.461
-299.516
-305.596
-308.446
-307.858
-303.641
-295.638
-283.937
-269.021
-251.532
-231.946
-210.497
-187.328
-162.605
-136.411
-108.811
-79.5209
-49.1941
-16.0199
12.1281
66.0185
77.999
90.6757
103.443
115.076
125.717
134.872
141.964
146.95
150.061
151.505
151.538
150.384
148.193
145.08
141.085
136.226
130.513
123.946
116.538
108.328
99.3855
89.8075
79.7797
69.6294
59.7234
50.3605
41.7818
34.1921
27.7651
22.6463
18.9467
16.7467
16.1236
17.2033
20.2113
25.3562
33.4972
43.1112
49.6862
36.5324
21.2733
4.60909
-12.3039
-30.4589
-49.2524
-68.208
-87.4692
-106.764
-125.965
-145.081
-163.957
-182.486
-200.516
-217.826
-234.149
-249.186
-262.59
-274.021
-283.139
-289.536
-292.938
-293.141
-289.968
-283.258
-273.031
-259.635
-243.58
-225.292
-205.021
-182.925
-159.174
-133.869
-107.102
-78.656
-49.1764
-17.2045
10.1412
61.7252
73.0616
85.0838
97.2174
108.299
118.467
127.258
134.114
138.993
142.118
143.685
143.938
143.095
141.299
138.661
135.216
130.979
125.946
120.106
113.454
106.01
97.8201
88.9593
79.5883
70.0136
60.5861
51.5922
43.2716
35.8377
29.4751
24.3415
20.5624
18.2338
17.442
18.3189
21.0747
25.8866
33.4526
42.2706
46.2524
33.8078
19.3784
3.64381
-12.2836
-29.3593
-47.0055
-64.7647
-82.7868
-100.813
-118.733
-136.569
-154.189
-171.508
-188.406
-204.691
-220.131
-234.458
-247.354
-258.494
-267.561
-274.155
-277.986
-278.853
-276.589
-271.033
-262.149
-250.172
-235.494
-218.484
-199.389
-178.379
-155.623
-131.237
-105.336
-77.7695
-49.1721
-18.4178
8.09103
57.6591
68.4018
79.8184
91.3648
101.93
111.653
120.097
126.722
131.485
134.602
136.26
136.69
136.105
134.646
132.416
129.453
125.764
121.343
116.167
110.219
103.5
96.0359
87.8786
79.1644
70.1766
61.2475
52.6503
44.62
37.3742
31.1063
25.9845
22.1471
19.7049
18.7532
19.4285
21.9264
26.3943
33.3817
41.4269
42.9956
31.2071
17.5449
2.66826
-12.3504
-28.434
-45.0238
-61.6858
-78.5684
-95.4274
-112.165
-128.816
-145.264
-161.445
-177.264
-192.557
-207.122
-220.721
-233.064
-243.845
-252.766
-259.454
-263.602
-265.013
-263.532
-258.997
-251.33
-240.669
-227.304
-211.541
-193.615
-173.697
-151.955
-128.515
-103.513
-76.8597
-49.1786
-19.651
5.99043
53.8161
64.0095
74.8637
85.8629
95.9443
105.247
113.359
119.757
124.398
127.491
129.215
129.787
129.417
128.243
126.365
123.821
120.616
116.742
112.169
106.87
100.831
94.06
86.5864
78.522
70.1251
61.7084
53.5309
45.8196
38.7924
32.6487
27.5653
23.6917
21.152
20.0507
20.5268
22.7629
26.8781
33.2872
40.5849
39.9152
28.736
15.7866
1.70572
-12.4738
-27.6404
-43.2565
-58.9069
-74.7393
-90.5222
-106.169
-121.722
-137.08
-152.194
-166.99
-181.331
-195.039
-207.903
-219.662
-230.035
-238.735
-245.427
-249.793
-251.639
-250.823
-247.184
-240.609
-231.161
-219.039
-204.486
-187.715
-168.891
-148.177
-125.707
-101.632
-75.9242
-49.1914
-20.8948
3.85374
50.1913
59.8733
70.2028
80.6901
90.3171
99.222
107.017
113.194
117.708
120.764
122.532
123.218
123.028
122.096
120.521
118.34
115.562
112.175
108.146
103.441
98.0355
91.9196
85.1042
77.6758
69.8678
61.9725
54.2325
46.8647
40.0842
34.093
29.0742
25.1871
22.567
21.3272
21.6082
23.5802
27.3366
33.1721
39.749
37.0089
26.3975
14.1117
0.771714
-12.629
-26.9461
-41.6605
-56.3765
-71.2371
-86.0264
-100.665
-115.2
-129.544
-143.661
-157.493
-170.921
-183.798
-195.933
-207.093
-217.021
-225.443
-232.064
-236.56
-238.743
-238.483
-235.622
-230.022
-221.684
-210.73
-197.343
-181.706
-163.971
-144.295
-122.815
-99.6956
-74.9612
-49.206
-22.1388
1.69575
46.7768
55.9815
65.8196
75.8264
85.0252
93.5538
101.045
107.006
111.392
114.401
116.196
116.972
116.931
116.205
114.891
113.028
110.624
107.669
104.129
99.9652
95.1434
89.6419
83.4537
76.6423
69.4161
62.0455
54.7557
47.7517
41.2426
35.4302
30.5019
26.624
23.9413
22.5755
22.6668
24.3746
27.7685
33.0389
38.9239
34.2728
24.1915
12.5266
-0.121616
-12.7994
-26.3253
-40.2033
-54.0527
-68.0148
-81.8828
-95.5874
-109.178
-122.578
-135.763
-148.688
-161.251
-173.326
-184.747
-195.304
-204.762
-212.864
-219.35
-223.902
-226.335
-226.531
-224.338
-219.601
-212.272
-202.409
-190.138
-175.606
-158.95
-140.317
-119.843
-97.7034
-73.968
-49.2168
-23.374
-0.469458
43.564
52.3233
61.6998
71.2535
80.0485
88.2197
95.4196
101.171
105.427
108.382
110.189
111.038
111.121
110.571
109.482
107.894
105.819
103.246
100.143
96.4689
92.1832
87.2535
81.6583
75.4405
68.7833
61.9349
55.1031
48.4784
42.262
36.6529
31.8394
27.9931
25.2664
23.7879
23.6967
25.142
28.1729
32.8902
38.1136
31.7016
22.117
11.0339
-0.966532
-12.9692
-25.7583
-38.8573
-51.9019
-65.0291
-78.0443
-90.8825
-103.597
-116.118
-128.431
-140.503
-152.248
-163.556
-174.283
-184.239
-193.215
-200.967
-207.267
-211.81
-214.418
-214.978
-213.353
-209.376
-202.959
-194.107
-182.895
-169.436
-153.843
-136.253
-116.798
-95.6567
-72.9425
-49.2176
-24.5895
-2.62649
40.5452
48.8858
57.8284
66.955
75.3677
83.1983
90.119
95.6659
99.7932
102.689
104.498
105.402
105.589
105.188
104.293
102.945
101.158
98.9237
96.2111
92.9777
89.1807
84.7797
79.7412
74.0894
67.9839
61.6503
55.2785
49.0446
43.1386
37.7539
33.0783
29.2857
26.5335
24.9566
24.6916
25.8785
28.5485
32.7285
37.3222
29.2888
20.1716
9.63516
-1.75763
-13.1282
-25.2289
-37.6008
-49.8955
-62.2468
-74.469
-86.5022
-98.4014
-110.106
-121.606
-132.879
-143.85
-154.428
-164.483
-173.85
-182.337
-189.721
-195.795
-200.278
-202.992
-203.838
-202.689
-199.373
-193.775
-185.856
-175.644
-163.216
-148.667
-132.113
-113.683
-93.5572
-71.8812
-49.202
-25.7749
-4.76046
37.7115
45.6585
54.1913
62.9135
70.9636
78.4699
85.1232
90.4727
94.4722
97.304
99.1067
100.053
100.327
100.053
99.3252
98.1868
96.6524
94.7162
92.3501
89.5128
86.1594
82.244
77.7242
72.6084
67.0332
61.2028
55.2887
49.4518
43.8698
38.7283
34.2112
30.4931
27.7343
26.0739
25.6453
26.58
28.8946
32.5559
36.5531
27.0285
18.3517
8.32996
-2.49161
-13.2694
-24.7252
-36.4171
-48.0119
-59.6398
-71.1233
-82.4083
-93.5488
-104.491
-115.234
-125.757
-136.001
-145.884
-155.297
-164.089
-172.089
-179.094
-184.912
-189.291
-192.056
-193.118
-192.361
-189.617
-184.749
-177.683
-168.409
-156.971
-143.438
-127.909
-110.506
-91.4058
-70.7827
-49.1621
-26.9195
-6.85627
35.0545
42.6299
50.7753
59.1137
66.8198
74.0172
80.4134
85.5721
89.4456
92.2109
94
94.9779
95.3241
95.16
94.5765
93.6199
92.307
90.6338
88.5754
86.0925
83.1398
79.668
75.6283
71.0159
65.9471
60.6043
55.1412
49.7031
44.4547
39.5714
35.2317
31.6077
28.8607
27.1321
26.5516
27.2427
29.2099
32.3743
35.8094
24.9144
16.6528
7.11725
-3.1663
-13.3868
-24.2372
-35.2921
-46.2323
-57.1846
-67.9789
-78.5668
-89.0011
-99.2344
-109.268
-119.091
-128.65
-137.877
-146.675
-154.912
-162.433
-169.052
-174.594
-178.834
-181.603
-182.818
-182.383
-180.13
-175.908
-169.617
-161.218
-150.722
-138.174
-123.654
-107.274
-89.2065
-69.6433
-49.091
-28.0144
-8.89875
32.5651
39.7895
47.5678
55.5425
62.9208
69.8238
75.9731
80.9468
84.6967
87.394
89.1643
90.1652
90.571
90.5007
90.0428
89.2449
88.1263
86.6849
84.899
82.732
80.1397
77.0715
73.4739
69.3319
64.7424
59.8679
54.8448
49.8036
44.8941
40.2808
36.1341
32.6224
29.9049
28.1239
27.4043
27.8625
29.4936
32.185
35.0934
22.9396
15.0709
5.99429
-3.78065
-13.477
-23.7578
-34.2144
-44.5423
-54.862
-65.0131
-74.9503
-84.7267
-94.2981
-103.671
-112.838
-121.754
-130.362
-138.575
-146.278
-153.33
-159.565
-164.817
-168.893
-171.625
-172.943
-172.764
-170.927
-167.274
-161.686
-154.097
-144.493
-132.894
-119.362
-103.995
-86.9604
-68.4615
-48.9824
-29.0486
-10.8742
30.2347
37.1269
44.5574
52.1858
59.252
65.8742
71.7863
76.5812
80.21
82.8384
84.586
85.6029
86.0586
86.0685
85.7195
85.0602
84.1118
82.8745
81.3297
79.4438
77.1746
74.4721
71.2796
67.5738
63.4351
59.007
54.4099
49.759
45.19
40.8549
36.9146
33.5308
30.8597
29.0423
28.1977
28.4356
29.7446
31.9894
34.4069
21.0972
13.6008
4.95876
-4.33521
-13.5374
-23.282
-33.1757
-42.9284
-52.6559
-62.2055
-71.5343
-80.6966
-89.6511
-98.4067
-106.96
-115.274
-123.298
-130.957
-138.148
-144.746
-150.6
-155.556
-159.447
-162.112
-163.49
-163.511
-162.025
-158.868
-153.912
-147.071
-138.306
-127.616
-115.045
-100.679
-84.6715
-67.2346
-48.8268
-30.0135
-12.7693
28.0555
34.6324
41.7325
49.0311
55.7996
62.1533
67.8381
72.46
75.9708
78.5301
80.2517
81.2789
81.7759
81.8552
81.6006
81.0623
80.2631
79.2056
77.8739
76.2378
74.2579
71.8849
69.0615
65.7582
62.0408
58.0353
53.8471
49.577
45.3464
41.294
37.57
34.3283
31.7191
29.8807
28.9262
28.9584
29.9619
31.788
33.7511
19.381
12.2373
4.00765
-4.83118
-13.5664
-22.8047
-32.1685
-41.3805
-50.5522
-59.5381
-68.2987
-76.8867
-85.265
-93.4442
-101.424
-109.173
-116.649
-123.783
-130.487
-136.648
-142.129
-146.788
-150.479
-153.052
-154.454
-154.627
-153.433
-150.709
-146.319
-140.163
-132.183
-122.361
-110.72
-97.3334
-82.3437
-65.9609
-48.6191
-30.8993
-14.5716
26.0192
32.2965
39.0825
46.0671
52.5514
58.6481
64.1146
68.5695
71.9654
74.4558
76.1491
77.182
77.7128
77.8519
77.6801
77.2475
76.5792
75.6799
74.5363
73.1217
71.3996
69.3228
66.8346
63.9009
60.5747
56.9666
53.1678
49.2658
45.3679
41.5995
38.099
35.0105
32.4775
30.6332
29.5845
29.4274
30.1442
31.5811
33.1263
17.7842
10.9756
3.13719
-5.26986
-13.5635
-22.3238
-31.1878
-39.891
-48.5406
-56.9981
-65.2264
-73.2773
-81.1173
-88.7576
-96.2016
-103.422
-110.382
-117.023
-123.263
-129.005
-134.123
-138.487
-141.971
-144.433
-145.829
-146.113
-145.16
-142.81
-138.925
-133.394
-126.146
-117.145
-106.4
-93.9695
-79.9806
-64.6395
-48.3521
-31.6986
-16.2706
24.1181
30.1107
36.5974
43.2825
49.4951
55.3459
60.6025
64.8969
68.181
70.6032
72.2663
73.3008
73.8598
74.0501
73.9504
73.6107
73.0574
72.2971
71.3196
70.1012
68.6086
66.7972
64.6119
62.0158
59.0513
55.8143
52.3836
48.8344
45.2606
41.7742
38.5011
35.5751
33.1307
31.295
30.1683
29.8393
30.2902
31.3684
32.532
16.3007
9.81042
2.34394
-5.6534
-13.5291
-21.837
-30.2292
-38.4534
-46.6121
-54.5732
-62.3029
-69.851
-77.1873
-84.3238
-91.2666
-97.9919
-104.468
-110.644
-116.447
-121.788
-126.557
-130.631
-133.902
-136.239
-137.606
-137.969
-137.212
-135.184
-131.746
-126.783
-120.214
-111.989
-102.101
-90.5967
-77.5873
-63.27
-48.0203
-32.404
-17.8566
22.3447
28.0666
34.2679
40.6665
46.6198
52.235
57.29
61.4295
64.605
66.96
68.5919
69.6251
70.2072
70.4413
70.4046
70.1467
69.694
69.0561
68.2252
67.1802
65.8913
64.3172
62.4049
60.1159
57.4836
54.5912
51.5062
48.2925
45.0315
41.822
38.7777
36.0206
33.6756
31.862
30.6735
30.1912
30.3987
31.1493
31.9672
14.924
8.73673
1.62407
-5.98401
-13.4635
-21.3431
-29.2893
-37.0613
-44.7579
-52.2525
-59.5147
-66.5921
-73.4572
-80.1233
-86.597
-92.859
-98.8817
-104.621
-110.01
-114.971
-119.404
-123.197
-126.254
-128.458
-129.778
-130.19
-129.591
-127.839
-124.797
-120.348
-114.405
-106.908
-97.8376
-87.2253
-75.169
-61.8516
-47.619
-33.009
-19.3204
20.692
26.1559
32.0849
38.2099
43.9148
49.3043
54.1658
58.1556
61.2263
63.5153
65.1151
66.144
66.7446
67.017
67.0352
66.8489
66.4851
65.9545
65.2527
64.361
63.2528
61.8901
60.2228
58.2122
55.8837
53.3093
50.5469
47.6499
44.6882
41.7482
38.9309
36.3467
34.1099
32.3309
31.0968
30.4805
30.4682
30.9228
31.4302
13.6482
7.74956
0.973784
-6.26419
-13.3676
-20.8417
-28.3657
-35.7112
-42.9716
-50.0278
-56.8509
-63.487
-69.9109
-76.1368
-82.1725
-88.0013
-93.5996
-98.9283
-103.928
-108.529
-112.641
-116.162
-119.007
-121.073
-122.333
-122.772
-122.299
-120.782
-118.088
-114.104
-108.736
-101.919
-93.6225
-83.8657
-72.7312
-60.3862
-47.1438
-33.5081
-20.6557
19.1531
24.3709
30.0399
35.9033
41.3705
46.5437
51.2189
55.0647
58.0336
60.2577
61.8249
62.8476
63.463
63.7682
63.8345
63.7112
63.4253
62.9893
62.401
61.6446
60.6963
59.5216
58.0735
56.3141
54.2625
51.9803
49.5168
46.9166
44.239
41.5587
38.9644
36.5548
34.433
32.6998
31.4355
30.7051
30.4973
30.6874
30.9186
12.4677
6.84396
0.389197
-6.49659
-13.2431
-20.3323
-27.457
-34.3991
-41.2488
-47.892
-54.3025
-60.5249
-66.5358
-72.3498
-77.9756
-83.3993
-88.6003
-93.5442
-98.1783
-102.439
-106.245
-109.506
-112.145
-114.069
-115.259
-115.708
-115.334
-114.016
-111.629
-108.062
-103.222
-97.0368
-89.4696
-80.5282
-70.28
-58.8747
-46.5929
-33.898
-21.8566
17.7213
22.7043
28.1248
33.7378
38.9774
43.943
48.4392
52.1463
55.0166
57.1771
58.7117
59.7261
60.3534
60.6868
60.7952
60.7269
60.5098
60.1569
59.6681
59.0311
58.2241
57.2161
55.9638
54.4302
52.6296
50.6145
48.4264
46.1025
43.6925
41.2602
38.8829
36.6473
34.6454
32.9679
31.6882
30.8632
30.4848
30.4414
30.4294
11.3766
6.01525
-0.133527
-6.68398
-13.0912
-19.8152
-26.5613
-33.1222
-39.5844
-45.8386
-51.8614
-57.6954
-63.3192
-68.7479
-73.9907
-79.0357
-83.865
-88.4487
-92.7394
-96.6798
-100.197
-103.21
-105.648
-107.432
-108.546
-108.989
-108.692
-107.543
-105.426
-102.233
-97.8739
-92.2745
-85.3913
-77.2226
-67.8219
-57.3195
-45.9648
-34.1753
-22.9192
16.3905
21.1493
26.3321
31.7055
36.7269
41.4932
45.8173
49.3903
52.1654
54.264
55.7657
56.7706
57.4068
57.7641
57.9093
57.8894
57.7328
57.4529
57.0517
56.5195
55.837
54.9765
53.8986
52.5677
50.9935
49.2212
47.2858
45.2173
43.0576
40.8603
38.6918
36.6276
34.7486
33.1354
31.8538
30.9537
30.4292
30.1828
29.9594
10.3697
5.2588
-0.598198
-6.82922
-12.9138
-19.2912
-25.6785
-31.8788
-37.9747
-43.8625
-49.5203
-54.9899
-60.2509
-65.3188
-70.2034
-74.8945
-79.3768
-83.6235
-87.5925
-91.2325
-94.4777
-97.254
-99.4989
-101.145
-102.18
-102.608
-102.369
-101.363
-99.4816
-96.6244
-92.7029
-87.6435
-81.3986
-73.9585
-65.363
-55.7241
-45.2588
-34.339
-23.8411
15.1548
19.6992
24.6547
29.7985
34.6107
39.1856
43.3441
46.7881
49.4708
51.5089
52.9776
53.9719
54.6146
54.9924
55.1694
55.192
55.0883
54.8726
54.5482
54.1079
53.5352
52.8052
51.8819
50.732
49.3615
47.8091
46.104
44.2706
42.3431
40.3666
38.3974
36.5003
34.7455
33.2035
31.9327
30.9759
30.3296
29.9095
29.5048
9.44195
4.57016
-1.00844
-6.93493
-12.7128
-18.7607
-24.8078
-30.6668
-36.4163
-41.9588
-47.2736
-52.4007
-57.3217
-62.0519
-66.6016
-70.962
-75.1201
-79.0521
-82.7203
-86.0784
-89.0678
-91.6209
-93.6822
-95.194
-96.1476
-96.5528
-96.3586
-95.4732
-93.7982
-91.2409
-87.7166
-83.1535
-77.5017
-70.7446
-62.9105
-54.0925
-44.4766
-34.3885
-24.6212
14.008
18.3478
23.0853
28.0092
32.6208
37.012
41.0109
44.3306
46.9239
48.903
50.3387
51.3211
51.9683
52.3634
52.5681
52.628
52.5707
52.4112
52.1541
51.7942
51.3181
50.703
49.9165
48.9278
47.7401
46.3859
44.8897
43.271
41.5579
39.7874
38.0068
36.2709
34.6399
33.1745
31.9257
30.9298
30.1849
29.6193
29.0618
8.58838
3.94483
-1.36784
-7.00394
-12.4901
-18.2246
-23.949
-29.4847
-34.9074
-40.124
-45.1158
-49.9212
-54.5233
-58.9376
-63.1742
-67.2256
-71.0811
-74.7193
-78.1067
-81.2013
-83.9505
-86.2937
-88.1812
-89.5641
-90.4373
-90.8144
-90.6523
-89.8693
-88.3755
-86.0858
-82.9211
-78.8126
-73.7092
-67.5894
-60.4709
-52.4289
-43.6203
-34.3256
-25.2602
12.9451
17.0889
21.618
26.3308
30.7501
34.9646
38.81
42.0095
44.5164
46.4378
47.8409
48.8105
49.46
49.8696
50.0982
50.1904
50.1738
50.0635
49.8654
49.5759
49.1842
48.6701
48.0047
47.1591
46.1345
44.9582
43.6506
42.2272
40.7105
39.1309
37.5274
35.9457
34.4367
33.0517
31.8347
30.8159
29.9946
29.31
28.6264
7.80425
3.37887
-1.67997
-7.0391
-12.2474
-17.6842
-23.102
-28.3317
-33.4452
-38.3544
-43.042
-47.5452
-51.8484
-55.9668
-59.9107
-63.6739
-67.2471
-70.6115
-73.7367
-76.5857
-79.1102
-81.2567
-82.9807
-84.2409
-85.0354
-85.3811
-85.2423
-84.5458
-83.2111
-81.1604
-78.3206
-74.6268
-70.0285
-64.5003
-58.0508
-50.7388
-42.6935
-34.1526
-25.7598
11.9607
15.9172
20.2464
24.757
28.9914
33.0362
36.7338
39.8172
42.2404
44.1054
45.4759
46.432
47.082
47.5035
47.7526
47.873
47.8918
47.8245
47.6777
47.4498
47.1318
46.7064
46.1476
45.4286
44.5491
43.532
42.3939
41.1471
39.8095
38.4054
36.9668
35.5315
34.1413
32.8393
31.6624
30.6356
29.7581
28.9795
28.1947
7.0851
2.86821
-1.94812
-7.04304
-11.9869
-17.1405
-22.2673
-27.2071
-32.0281
-36.6472
-41.0486
-45.2679
-49.2906
-53.132
-56.8023
-60.2964
-63.6064
-66.7157
-69.5971
-72.2169
-74.5323
-76.4951
-78.0658
-79.21
-79.9289
-80.2418
-80.1192
-79.4963
-78.3013
-76.4636
-73.917
-70.6005
-66.4655
-61.484
-55.6568
-49.0277
-41.7006
-33.8735
-26.1232
11.0501
14.8271
18.965
23.2813
27.3383
31.2197
34.7748
37.7463
40.0883
41.8983
43.2364
44.1781
44.8272
45.2581
45.5248
45.6694
45.7189
45.689
45.5871
45.4126
45.1587
44.811
44.3456
43.7386
42.9877
42.1122
41.1258
40.0379
38.8626
37.6192
36.3332
35.0354
33.76
32.5422
31.4124
30.3904
29.4757
28.6259
27.7627
6.42659
2.40909
-2.17556
-7.01839
-11.7103
-16.5946
-21.4451
-26.1101
-30.6547
-35
-39.1318
-43.0841
-46.8439
-50.4259
-53.8407
-57.0838
-60.1485
-63.0203
-65.6749
-68.0819
-70.2028
-71.9943
-73.4223
-74.4578
-75.1048
-75.3846
-75.273
-74.7129
-73.6407
-71.9933
-69.7106
-66.7366
-63.0251
-58.5463
-53.295
-47.3018
-40.6473
-33.4932
-26.3551
10.2083
13.8136
17.7678
21.8979
25.7844
29.5087
32.9265
35.7897
38.053
39.8092
41.115
42.0416
42.6884
43.1265
43.4078
43.5733
43.6494
43.6519
43.5888
43.4607
43.2627
42.9824
42.5989
42.0902
41.4532
40.7034
39.8521
38.9066
37.8775
36.7801
35.6346
34.4653
33.2997
32.1659
31.0886
30.0829
29.1478
28.2476
27.327
5.82475
1.9978
-2.36533
-6.9677
-11.4194
-16.0477
-20.6359
-25.0405
-29.3235
-33.4104
-37.2882
-40.9897
-44.5028
-47.8422
-51.0182
-54.0272
-56.8638
-59.5149
-61.9586
-64.1681
-66.1084
-67.7414
-69.0367
-69.971
-70.5504
-70.7974
-70.6933
-70.1873
-69.2232
-67.7456
-65.7003
-63.0365
-59.7104
-55.6922
-50.9714
-45.5671
-39.5396
-33.0178
-26.4609
9.43094
12.8718
16.6499
20.6012
24.324
27.897
31.1824
33.9408
36.1277
37.8314
39.1051
40.0158
40.6589
41.1023
41.3957
41.5789
41.6778
41.7081
41.6785
41.5907
41.4411
41.2193
40.9073
40.4849
39.948
39.3092
38.5778
37.7592
36.8614
35.896
34.8788
33.8287
32.7673
31.7166
30.6957
29.716
28.7752
27.8435
26.8842
5.27564
1.63098
-2.52051
-6.89331
-11.1164
-15.501
-19.84
-23.9977
-28.0333
-31.8764
-35.515
-38.9807
-42.2628
-45.375
-48.328
-51.1188
-53.743
-56.189
-58.4374
-60.4637
-62.237
-63.7232
-64.8959
-65.7367
-66.253
-66.4688
-66.3691
-65.91
-65.0418
-63.7157
-61.8836
-59.4999
-56.5237
-52.9256
-48.6912
-43.8299
-38.3844
-32.4541
-26.4471
8.71385
11.9971
15.6064
19.3859
22.9512
26.3786
29.5362
32.1935
34.306
35.9581
37.2
38.0943
38.7323
39.1792
39.4824
39.6805
39.7988
39.853
39.8521
39.799
39.6909
39.5197
39.27
38.923
38.4739
37.9329
37.3075
36.6015
35.8209
34.9743
34.0736
33.1335
32.1702
31.2005
30.2389
29.2929
28.3594
27.4126
26.4314
4.77561
1.30531
-2.64394
-6.79758
-10.803
-14.9555
-19.0579
-22.9817
-26.7833
-30.3961
-33.8095
-37.0536
-40.1189
-43.0188
-45.7638
-48.3512
-50.7781
-53.0337
-55.1009
-56.9579
-58.5771
-59.9278
-60.9874
-61.7419
-62.2001
-62.3865
-62.2897
-61.8714
-61.0883
-59.8974
-58.2569
-56.1255
-53.466
-50.2497
-46.4595
-42.0966
-37.1887
-31.8097
-26.3209
8.05298
11.1852
14.6326
18.2471
21.6611
24.9483
27.9825
30.5417
32.582
34.1836