/*--------------------------------*- C++ -*----------------------------------*\
| =========                 |                                                 |
| \\      /  F ield         | OpenFOAM: The Open Source CFD Toolbox           |
|  \\    /   O peration     | Version:  2306                                  |
|   \\  /    A nd           | Website:  www.openfoam.com                      |
|    \\/     M anipulation  |                                                 |
\*---------------------------------------------------------------------------*/
FoamFile
{
    version     2.0;
    format      ascii;
    arch        "LSB;label=32;scalar=64";
    class       volSymmTensorField;
    location    "225";
    object      turbulenceProperties:devReff;
}
// * * * * * * * * * * * * * * * * * * * * * * * * * * * * * * * * * * * * * //

dimensions      [0 2 -2 0 0 0 0];

internalField   nonuniform List<symmTensor> 
10720
(
(0.00163297 0.00424118 -9.62855e-22 -0.00176908 -2.23133e-20 0.000136115)
(0.00238153 0.00486097 -1.57216e-23 -0.00247915 1.39907e-19 9.76191e-05)
(0.00359951 0.00543937 -2.77468e-20 -0.00379607 -4.33367e-19 0.000196561)
(0.00522847 0.00619087 1.18842e-19 -0.00547364 8.75469e-19 0.000245167)
(0.00739994 0.00684727 -2.25124e-19 -0.00766773 -8.30972e-19 0.000267792)
(0.0103692 0.00723487 -1.71864e-19 -0.0107594 -4.49196e-19 0.000390213)
(0.0142525 0.00734791 3.25183e-19 -0.0147373 1.24825e-18 0.000484795)
(0.0191275 0.00683489 -8.29004e-19 -0.0197084 -2.25396e-18 0.000580919)
(0.025163 0.00533263 -2.0588e-19 -0.0259075 6.02302e-19 0.000744524)
(0.03247 0.00259572 6.122e-19 -0.033368 1.25583e-18 0.000898048)
(0.0412233 -0.00189651 1.57542e-18 -0.042312 5.75977e-19 0.00108875)
(0.051813 -0.00871567 -3.54288e-18 -0.0531279 -3.2897e-18 0.00131488)
(0.0647743 -0.0187779 6.709e-19 -0.0663639 8.66298e-19 0.00158958)
(0.0810162 -0.0336666 2.67948e-18 -0.0829667 1.26979e-18 0.00195055)
(0.10206 -0.0560214 -4.06683e-18 -0.10452 -6.35153e-18 0.00246045)
(0.130146 -0.0901759 -4.3553e-18 -0.133314 -2.57545e-18 0.00316735)
(0.169266 -0.144606 1.91387e-17 -0.17356 1.7721e-17 0.00429436)
(0.223663 -0.231939 1.78543e-17 -0.229533 3.36684e-17 0.00587019)
(0.30921 -0.387097 -3.52131e-17 -0.31779 -5.44957e-17 0.00858016)
(0.425839 -0.641721 -1.44499e-18 -0.438023 1.45301e-17 0.0121842)
(0.660006 -1.20426 -2.70845e-17 -0.679288 5.14032e-17 0.0192823)
(0.946224 -2.12159 -1.11915e-17 -0.972547 4.13887e-17 0.0263228)
(1.73735 -5.05969 -1.42657e-16 -1.78906 -6.2094e-16 0.051713)
(2.43111 -10.3392 3.27234e-16 -2.51585 5.47857e-16 0.0847371)
(1.55447 -11.8292 4.10592e-17 -1.59804 -7.06238e-16 0.0435757)
(0.54338 -11.4475 3.71109e-16 -0.533421 5.73945e-16 -0.00995868)
(-0.142101 -11.249 -8.04801e-17 0.171065 -7.81089e-17 -0.0289642)
(-0.671066 -11.4139 2.74413e-16 0.695327 2.28983e-16 -0.0242608)
(-1.15015 -11.6151 7.34612e-16 1.16619 1.20223e-15 -0.016034)
(-1.59172 -11.6161 4.11421e-16 1.59984 1.98928e-15 -0.00812316)
(-1.98196 -11.3874 -1.42116e-15 1.98023 -1.92421e-15 0.00173733)
(-2.3002 -10.966 -4.8257e-16 2.28973 -7.23593e-16 0.0104621)
(-2.5222 -10.3401 -1.81718e-17 2.50715 -4.38414e-15 0.015053)
(-2.63558 -9.52385 -2.59939e-15 2.61998 -7.28003e-15 0.015602)
(-2.6216 -8.5088 1.0067e-15 2.60718 9.21652e-16 0.0144217)
(-2.46947 -7.3245 1.23643e-15 2.45828 1.15109e-15 0.0111932)
(-2.11116 -5.77051 -1.23902e-16 2.09791 -5.29824e-16 0.0132479)
(-1.63607 -4.29602 -1.5792e-15 1.63649 -2.29419e-17 -0.000415027)
(-0.794737 -1.56217 -3.67951e-16 0.797662 -3.43174e-15 -0.0029251)
(0.000966505 0.00369881 2.43598e-21 -0.00101824 5.53895e-20 5.17378e-05)
(0.000549758 0.00318501 -3.59637e-21 -0.00063947 -9.14114e-23 8.9712e-05)
(0.000180808 0.00260135 -1.98478e-20 -0.00022772 -1.36541e-19 4.6912e-05)
(-6.45724e-05 0.00208201 5.33786e-21 3.05311e-05 9.31369e-20 3.40413e-05)
(-0.000176199 0.00159112 3.82764e-21 0.000157953 -1.79165e-20 1.82454e-05)
(-0.000169397 0.00116301 -3.41778e-20 0.000169916 1.11533e-19 -5.19088e-07)
(-8.09847e-05 0.000832426 -2.01975e-19 0.000105274 1.62538e-19 -2.42898e-05)
(5.72857e-05 0.000635243 1.39663e-19 -1.96736e-05 -5.52393e-20 -3.76121e-05)
(0.000234059 0.000621215 2.2687e-19 -0.000207919 -1.14825e-19 -2.61401e-05)
(0.000474664 0.000743256 -1.53727e-19 -0.000471444 3.86352e-20 -3.21993e-06)
(0.000816707 0.00102906 -3.88966e-20 -0.000827308 1.82852e-19 1.06016e-05)
(0.00131222 0.0015707 2.49467e-19 -0.00133021 1.03284e-19 1.79957e-05)
(0.00203228 0.00253317 4.59551e-19 -0.00206256 -7.16348e-20 3.02754e-05)
(0.00306665 0.00414944 -8.65082e-21 -0.00311811 -2.58473e-19 5.14596e-05)
(0.00448758 0.00666329 -7.96003e-20 -0.00456271 -1.73605e-19 7.51297e-05)
(0.00631759 0.0103647 2.79112e-20 -0.00642655 -5.84335e-20 0.00010896)
(0.00866246 0.0156737 -1.98068e-19 -0.00880855 6.70039e-19 0.000146088)
(0.0117706 0.0234813 7.43216e-19 -0.0119692 2.75496e-19 0.000198619)
(0.0161901 0.0355373 3.28493e-19 -0.0164591 -1.21816e-18 0.000268984)
(0.0227478 0.0551368 -1.32368e-18 -0.0231392 -3.45652e-19 0.000391452)
(0.0330318 0.088854 -4.45062e-18 -0.0336242 -2.02698e-18 0.0005924)
(0.0492084 0.148927 -3.35923e-18 -0.0501903 -8.96291e-19 0.000981855)
(0.0759374 0.264549 6.24374e-18 -0.0777202 -5.8209e-19 0.0017828)
(0.116624 0.489176 -7.49853e-18 -0.12027 1.212e-18 0.00364632)
(0.18388 0.982803 4.08391e-18 -0.191751 -7.21652e-18 0.00787136)
(0.278823 2.0239 -1.26795e-16 -0.295246 2.66094e-18 0.0164236)
(0.411592 4.54948 -7.85895e-17 -0.450205 1.22859e-17 0.0386133)
(0.422249 9.39294 6.60939e-17 -0.502734 8.03435e-19 0.0804852)
(0.0080968 13.3116 8.70995e-18 -0.112325 -1.2272e-19 0.104228)
(-0.629434 14.9748 6.29037e-17 0.531085 3.76862e-19 0.0983494)
(-1.26898 15.4118 -4.37571e-16 1.18673 -4.87154e-18 0.0822459)
(-1.85476 15.431 1.57447e-16 1.78742 2.09672e-17 0.0673408)
(-2.37927 15.2683 -1.89048e-15 2.32347 -1.53354e-16 0.0557996)
(-2.83531 14.9676 -3.46115e-15 2.7884 -2.37377e-16 0.046908)
(-3.22087 14.5446 1.05919e-15 3.18054 1.08321e-16 0.0403333)
(-3.54003 14.0205 1.02518e-15 3.50476 1.64634e-16 0.0352675)
(-3.77753 13.296 1.45125e-15 3.74544 2.67182e-16 0.03209)
(-3.92108 12.4765 -2.90666e-16 3.89108 -3.64851e-17 0.0300044)
(-3.64119 10.0696 -4.55596e-15 3.63466 -7.83867e-16 0.00653594)
(0.000579232 -0.000459774 1.24401e-22 -0.000519976 3.99437e-21 -5.92566e-05)
(0.000492526 -0.000546622 2.89897e-20 -0.000425537 7.02775e-20 -6.69883e-05)
(0.000371476 -0.000622251 -2.68625e-20 -0.000291295 -4.73787e-20 -8.01809e-05)
(0.000250671 -0.000651564 -1.8159e-20 -0.000158883 -5.1633e-20 -9.17876e-05)
(0.000133364 -0.000644604 1.22171e-19 -3.29111e-05 2.37056e-19 -0.000100453)
(2.33935e-05 -0.000610087 4.75857e-20 8.57889e-05 7.38266e-20 -0.000109182)
(-6.00394e-05 -0.000551105 2.25618e-19 0.00017681 2.07291e-19 -0.000116771)
(-0.000116414 -0.000478798 -1.16552e-19 0.000238118 -2.24456e-20 -0.000121704)
(-0.000149125 -0.000404628 1.6475e-19 0.000274281 1.14179e-19 -0.000125155)
(-0.000157893 -0.000335891 -5.86291e-21 0.000285017 2.43235e-22 -0.000127124)
(-0.000150068 -0.000278185 -2.2285e-19 0.00027687 -1.90384e-19 -0.000126802)
(-0.000132665 -0.000239641 2.86879e-19 0.000258778 3.57099e-19 -0.000126113)
(-0.000110915 -0.000225497 1.76207e-19 0.000240537 8.85249e-20 -0.000129622)
(-8.64132e-05 -0.00024456 -3.67408e-20 0.000230757 1.98748e-20 -0.000144343)
(-4.92771e-05 -0.000341378 -2.25029e-19 0.000240827 3.71178e-20 -0.00019155)
(5.90325e-05 -0.000650217 4.7268e-19 0.000258769 5.40807e-19 -0.000317802)
(0.000442133 -0.00152492 8.44371e-19 0.00014912 -9.25462e-19 -0.000591254)
(0.00147042 -0.00350507 -4.38812e-18 -0.000473312 -5.68112e-18 -0.000997105)
(0.00409484 -0.00850595 5.05413e-19 -0.00244523 7.36069e-18 -0.0016496)
(0.0102605 -0.0208261 7.317e-18 -0.00768751 -2.06003e-18 -0.00257302)
(0.0284727 -0.0607281 1.51663e-17 -0.0241222 6.0341e-18 -0.00435049)
(0.072102 -0.170975 -2.33736e-17 -0.0658776 -2.21526e-17 -0.00622436)
(0.186714 -0.52449 7.25033e-17 -0.178918 1.80067e-16 -0.00779515)
(0.485049 -1.72322 1.68666e-19 -0.481582 -1.48806e-16 -0.00346703)
(0.725542 -3.44837 -2.67832e-16 -0.74737 1.63152e-16 0.021828)
(0.768981 -5.26129 -9.77852e-17 -0.821052 -6.38857e-16 0.0520706)
(0.591184 -6.98541 7.83912e-19 -0.661066 7.3721e-17 0.0698811)
(0.205367 -8.22894 -2.90906e-16 -0.279238 -4.33293e-16 0.0738714)
(-0.283671 -8.50917 -4.91433e-16 0.218899 -2.77844e-15 0.0647721)
(-0.69276 -7.81864 -1.68117e-16 0.65189 -3.48773e-15 0.0408702)
(-0.91932 -6.64247 5.19927e-16 0.910485 4.83421e-15 0.00883531)
(-0.988991 -5.44093 -9.4856e-16 1.00662 -4.65893e-17 -0.0176251)
(-0.976758 -4.46686 -7.18543e-15 1.00649 1.3364e-15 -0.0297304)
(-0.924326 -3.72625 8.7376e-15 0.954307 1.57584e-14 -0.0299812)
(-0.85833 -3.16324 -1.48243e-15 0.88273 -8.40886e-16 -0.0244)
(-0.777485 -2.72431 3.41995e-15 0.798141 -4.99174e-15 -0.0206565)
(-0.727286 -2.41682 -1.50598e-15 0.740564 1.52312e-15 -0.0132774)
(-0.56274 -2.13945 3.2739e-15 0.595128 4.15928e-16 -0.0323877)
(-0.842004 -2.4197 5.84718e-15 0.744414 8.28619e-15 0.0975897)
(0.000645327 -0.000344273 9.36676e-21 -0.000595224 2.30938e-20 -5.01033e-05)
(0.000683964 -0.000223904 -1.27037e-20 -0.000637151 -9.60608e-20 -4.68124e-05)
(0.000691116 -7.57618e-05 -1.86636e-20 -0.000654223 -1.10796e-19 -3.6893e-05)
(0.000653562 8.71872e-05 -7.14309e-21 -0.000627119 1.65323e-19 -2.64424e-05)
(0.000564287 0.000235682 2.01917e-21 -0.000550311 4.31925e-20 -1.39765e-05)
(0.00042843 0.000349096 3.79943e-20 -0.000424887 -1.45932e-19 -3.54277e-06)
(0.000270557 0.000405939 6.99032e-20 -0.000274024 -2.24799e-19 3.46634e-06)
(0.000130749 0.000406841 -3.18237e-19 -0.00013985 8.59261e-21 9.10075e-06)
(2.24503e-05 0.000373958 4.83721e-20 -3.29199e-05 2.15933e-19 1.04697e-05)
(-6.6687e-05 0.000316072 9.65212e-22 6.05504e-05 -1.2872e-19 6.13664e-06)
(-0.000121926 0.000243351 -8.2967e-20 0.000123435 -7.87275e-20 -1.50875e-06)
(-0.000141795 0.000176477 -5.99814e-20 0.000150179 -8.46579e-20 -8.38383e-06)
(-0.000139965 0.000124261 -1.11592e-20 0.000152815 1.86507e-20 -1.28502e-05)
(-0.000127533 8.65374e-05 3.74686e-20 0.000142841 1.0073e-19 -1.53072e-05)
(-0.000110987 6.08413e-05 6.4691e-20 0.000127479 2.49099e-20 -1.64921e-05)
(-9.41283e-05 4.39892e-05 -9.21581e-20 0.000110917 -4.61329e-21 -1.67884e-05)
(-7.86227e-05 3.33997e-05 8.27897e-20 9.50634e-05 8.46216e-21 -1.64407e-05)
(-6.53363e-05 2.69025e-05 -9.89192e-21 8.10097e-05 -2.87954e-20 -1.56734e-05)
(-5.42863e-05 2.27753e-05 -3.38654e-20 6.89618e-05 5.36953e-20 -1.46755e-05)
(-4.5245e-05 2.00139e-05 -2.58139e-20 5.88917e-05 2.80134e-20 -1.36467e-05)
(-3.7964e-05 1.79867e-05 -6.20813e-20 5.07087e-05 6.96247e-20 -1.27448e-05)
(-3.26463e-05 1.65263e-05 -8.73903e-20 4.49043e-05 4.52356e-20 -1.2258e-05)
(-2.91708e-05 1.55793e-05 -1.25848e-19 4.1681e-05 1.08647e-20 -1.25102e-05)
(-2.68554e-05 1.55604e-05 5.615e-20 4.0512e-05 5.2887e-21 -1.36566e-05)
(-2.45945e-05 1.73332e-05 -4.00174e-21 3.96908e-05 5.45467e-21 -1.50963e-05)
(-0.00023676 0.000215641 5.30325e-19 0.000407278 1.3782e-19 -0.000170518)
(-0.00120636 0.00137131 2.71816e-18 0.00218465 -1.93591e-19 -0.000978288)
(-0.00871479 0.0120921 1.0891e-18 0.0163414 -4.49803e-19 -0.00762664)
(-0.0263008 0.0461851 -7.56393e-19 0.050111 1.02221e-19 -0.0238101)
(-0.0450142 0.103125 4.97761e-17 0.0851408 2.03735e-18 -0.0401267)
(-0.0580339 0.1712 4.03391e-16 0.105407 9.68672e-18 -0.047373)
(-0.0660416 0.235822 2.39879e-16 0.111324 1.31436e-17 -0.0452821)
(-0.0730951 0.289986 1.7646e-15 0.112117 1.21068e-16 -0.0390219)
(-0.0820825 0.335557 2.54751e-15 0.114851 1.69643e-16 -0.0327687)
(-0.0942664 0.376009 -5.71113e-16 0.122253 -9.75064e-17 -0.0279861)
(-0.108581 0.416237 -4.91386e-16 0.133752 -8.6424e-17 -0.0251711)
(-0.12894 0.456933 -1.22602e-15 0.151739 -5.17065e-16 -0.0227986)
(-0.14751 0.55345 -2.52778e-15 0.174383 -2.40853e-18 -0.0268732)
(-0.207976 0.778272 -2.04289e-15 0.197592 1.36483e-15 0.0103838)
(0.000333776 -0.000312197 1.73109e-21 -0.000360071 2.40373e-21 2.62953e-05)
(0.000258572 -0.000371669 -2.73034e-20 -0.000290344 -6.62117e-20 3.17722e-05)
(0.000161194 -0.000412982 -6.00589e-21 -0.00019821 -3.05994e-21 3.70159e-05)
(5.2541e-05 -0.000425859 2.28008e-20 -9.72895e-05 4.91648e-20 4.47485e-05)
(-5.3851e-05 -0.00041267 -7.204e-20 3.09984e-06 -1.46415e-19 5.07512e-05)
(-0.000154129 -0.000372168 -8.19916e-20 9.73859e-05 -1.34341e-19 5.67429e-05)
(-0.00023824 -0.000308329 -1.66265e-19 0.000174868 -2.4568e-19 6.33727e-05)
(-0.000299276 -0.000230711 -1.33679e-20 0.000230549 -1.99834e-21 6.87265e-05)
(-0.000337049 -0.000145508 -7.3054e-20 0.000263729 -1.73801e-19 7.33204e-05)
(-0.000352268 -6.13041e-05 3.05507e-19 0.000274896 3.47557e-19 7.73715e-05)
(-0.000348003 1.62957e-05 -5.00264e-20 0.000268011 6.80443e-20 7.9992e-05)
(-0.000330708 8.35596e-05 3.41517e-20 0.000249772 2.09666e-20 8.09356e-05)
(-0.000306639 0.000138882 -2.33285e-19 0.000226888 -2.9691e-19 7.97513e-05)
(-0.0002806 0.000184363 1.5023e-19 0.000203425 -1.39602e-20 7.71751e-05)
(-0.0002533 0.000218311 4.35684e-20 0.000180813 1.35341e-19 7.24871e-05)
(-0.000223184 0.000237322 5.33854e-20 0.000158181 2.55917e-20 6.50026e-05)
(-0.000181242 0.000230031 -2.43944e-19 0.00012866 -1.42074e-19 5.25811e-05)
(-0.00014063 0.000206811 1.92952e-19 0.000101228 1.43909e-19 3.94028e-05)
(-9.72586e-05 0.000161477 4.8363e-20 7.19463e-05 5.68644e-22 2.53124e-05)
(-0.000119362 0.00021685 -2.7734e-19 9.19917e-05 -4.15929e-20 2.73703e-05)
(-0.00183477 0.00355616 5.35034e-18 0.00148832 -2.10768e-18 0.00034644)
(-0.000843054 0.00169889 9.13385e-20 0.000729986 1.5803e-18 0.000113068)
(-0.000339732 0.000488524 1.33824e-18 0.000353973 -1.98372e-18 -1.42415e-05)
(0.00204012 -0.00755506 -3.97084e-18 -0.0016293 -4.24637e-18 -0.000410817)
(0.012067 -0.0530469 4.65726e-18 -0.0102108 1.61712e-17 -0.00185615)
(0.0298666 -0.178497 -2.73105e-17 -0.0258854 7.29259e-18 -0.00398122)
(0.0497526 -0.457116 1.41552e-17 -0.0438991 1.06821e-18 -0.00585353)
(0.0599145 -1.04065 -1.34613e-17 -0.0528068 7.29576e-17 -0.00710768)
(0.0243701 -2.07721 -4.25066e-16 -0.0175414 2.36387e-16 -0.00682868)
(-0.11302 -3.46552 2.07856e-16 0.116508 3.41865e-16 -0.00348827)
(-0.370439 -4.74124 1.53291e-15 0.365894 -5.72521e-16 0.00454543)
(-0.669878 -5.38357 -2.71844e-15 0.65613 2.1289e-15 0.013748)
(-0.885272 -5.2691 5.14052e-16 0.869613 9.19071e-15 0.0156588)
(-0.966862 -4.71793 -4.96421e-17 0.958035 -6.28715e-15 0.00882685)
(-0.951861 -4.07408 3.03277e-15 0.950036 -2.29354e-15 0.00182494)
(-0.868412 -3.4785 -1.4273e-14 0.871222 5.32121e-16 -0.00281029)
(-0.789877 -3.01484 4.93368e-15 0.788909 -1.62781e-15 0.000968639)
(-0.528665 -2.53035 5.12674e-15 0.543276 -1.53686e-15 -0.0146109)
(-0.831699 -2.79044 -1.01741e-14 0.814557 3.06778e-15 0.0171424)
(0.000395271 -0.000236215 -3.55355e-21 -0.000419268 -6.76498e-21 2.3997e-05)
(0.00043547 -0.000153805 -1.34308e-20 -0.000454757 -1.88675e-20 1.92865e-05)
(0.000459807 -5.27952e-05 5.58219e-20 -0.000474662 1.19955e-19 1.48542e-05)
(0.000454433 5.47793e-05 1.14185e-20 -0.000463821 -1.38041e-20 9.38831e-06)
(0.000415269 0.000160762 7.8801e-21 -0.000420694 -8.88866e-20 5.42516e-06)
(0.00034161 0.000248201 -2.4758e-20 -0.000343563 6.40459e-20 1.95311e-06)
(0.000243672 0.000302987 2.41433e-20 -0.000243356 1.44356e-19 -3.16294e-07)
(0.000140631 0.000319786 1.56697e-19 -0.000141379 1.67558e-19 7.48386e-07)
(4.77783e-05 0.000309103 5.34931e-20 -4.92258e-05 -1.33256e-19 1.44743e-06)
(-2.85904e-05 0.000273666 1.17964e-19 2.75352e-05 7.01059e-20 1.05521e-06)
(-7.86746e-05 0.000221125 -8.35083e-20 7.73331e-05 2.14929e-20 1.34154e-06)
(-0.000102685 0.000166733 -1.1978e-20 0.00010016 7.04682e-20 2.52473e-06)
(-0.000108689 0.000119165 5.45059e-21 0.000104601 -6.34141e-20 4.08787e-06)
(-0.000104036 8.08357e-05 1.13452e-19 9.8253e-05 -7.97482e-20 5.7831e-06)
(-9.39868e-05 5.19169e-05 8.47721e-21 8.6787e-05 -1.24853e-20 7.19979e-06)
(-8.19725e-05 3.09366e-05 -1.26466e-20 7.35846e-05 5.2246e-20 8.38786e-06)
(-7.01615e-05 1.63303e-05 8.12652e-20 6.09186e-05 -9.5719e-20 9.24296e-06)
(-5.96765e-05 6.25369e-06 1.31791e-20 4.98131e-05 1.15615e-20 9.8634e-06)
(-5.10036e-05 -8.07312e-07 9.3644e-20 4.0793e-05 -6.59079e-21 1.02106e-05)
(-4.3884e-05 -6.1201e-06 1.00093e-19 3.34217e-05 2.23116e-20 1.04622e-05)
(-3.80301e-05 -1.04307e-05 2.5602e-19 2.7429e-05 -3.38495e-20 1.06011e-05)
(-3.28871e-05 -1.44685e-05 3.31176e-19 2.20986e-05 -5.01049e-20 1.07885e-05)
(-2.7722e-05 -1.86817e-05 1.96879e-19 1.66382e-05 1.69361e-20 1.10837e-05)
(-2.10547e-05 -2.26207e-05 4.53224e-20 9.18842e-06 -9.24945e-21 1.18663e-05)
(-1.29255e-05 -2.48024e-05 -4.86326e-20 -2.7891e-07 2.34201e-20 1.32044e-05)
(-4.77922e-06 -2.4077e-05 1.81565e-19 -9.47813e-06 -2.94146e-20 1.42573e-05)
(2.19598e-06 -2.25337e-05 -4.88674e-20 -1.80565e-05 -4.71411e-21 1.58606e-05)
(5.48519e-06 -1.38046e-05 -3.13721e-20 -1.76585e-05 6.448e-22 1.21733e-05)
(5.69367e-05 -7.40422e-05 2.79455e-20 -0.000145379 -8.7054e-22 8.84427e-05)
(0.000483666 -0.000275082 -1.44837e-18 -0.00111837 -5.4412e-20 0.000634703)
(0.00145505 0.000436275 -8.68641e-18 -0.0032309 -7.44887e-20 0.00177585)
(0.00231672 0.00472796 -5.50111e-17 -0.00522298 -3.18972e-18 0.00290626)
(0.0018546 0.0155347 -1.34678e-16 -0.00506802 -4.43665e-18 0.00321342)
(-0.000701238 0.0344415 -3.34808e-16 -0.0018885 -2.29405e-17 0.00258974)
(-0.00555199 0.0610754 -8.56722e-16 0.00401023 -7.65557e-17 0.00154176)
(-0.0113589 0.0932497 2.16011e-16 0.0108607 -1.76359e-17 0.000498224)
(-0.0190982 0.12791 -1.17495e-15 0.0190528 2.1265e-16 4.54133e-05)
(-0.00959209 0.154409 2.9509e-15 0.0104224 5.33916e-16 -0.000830336)
(-0.0374165 0.261887 4.64128e-15 0.029381 9.52004e-16 0.00803549)
(0.00030617 -0.000257727 9.50699e-21 -0.000296811 1.62469e-20 -9.35905e-06)
(0.000259257 -0.000305586 -1.3235e-20 -0.000248918 -2.38533e-20 -1.03397e-05)
(0.000195953 -0.000346924 -6.0199e-21 -0.000182734 -3.34992e-21 -1.32193e-05)
(0.00012514 -0.00037375 7.15299e-20 -0.000109319 1.04653e-19 -1.58209e-05)
(5.1954e-05 -0.000382217 4.54874e-20 -3.31371e-05 8.23904e-20 -1.88169e-05)
(-2.10627e-05 -0.000372584 5.7711e-20 4.33694e-05 1.10713e-19 -2.23066e-05)
(-8.64116e-05 -0.000346789 8.81047e-20 0.000112253 1.019e-19 -2.58414e-05)
(-0.000139262 -0.000307854 -5.05316e-20 0.00016864 -7.84568e-20 -2.93776e-05)
(-0.000178141 -0.000260394 -1.80785e-19 0.000211325 -1.79081e-19 -3.31837e-05)
(-0.000201745 -0.000209798 2.3472e-19 0.00023835 1.32184e-19 -3.66059e-05)
(-0.000211344 -0.00015997 1.97423e-19 0.000251171 1.67183e-19 -3.98272e-05)
(-0.000209105 -0.000114073 2.55525e-19 0.00025156 1.2239e-19 -4.24542e-05)
(-0.00019759 -7.42179e-05 -4.20563e-19 0.000241778 -1.34669e-19 -4.41881e-05)
(-0.000179773 -4.1251e-05 -3.57819e-19 0.000224551 -2.40335e-19 -4.47783e-05)
(-0.000157701 -1.51022e-05 4.73528e-19 0.000202158 1.48896e-19 -4.44565e-05)
(-0.000133109 7.36017e-06 9.56942e-20 0.00017529 5.89143e-20 -4.2181e-05)
(-0.000107636 2.64535e-05 -7.10071e-20 0.000145837 7.33852e-21 -3.82009e-05)
(-8.41154e-05 4.24371e-05 -2.28356e-19 0.000117002 -1.49639e-19 -3.28862e-05)
(-6.23953e-05 5.47741e-05 5.23384e-20 8.77434e-05 -2.00764e-20 -2.53482e-05)
(-4.60371e-05 6.26263e-05 2.15778e-19 6.33768e-05 6.65729e-20 -1.73397e-05)
(-3.75386e-05 7.02063e-05 -2.68632e-19 4.85932e-05 -7.72507e-20 -1.10546e-05)
(-6.57954e-05 0.000154445 2.39076e-19 7.95557e-05 3.40227e-20 -1.37602e-05)
(-0.000145638 0.000442595 -1.73965e-19 0.000169906 -3.76999e-20 -2.4268e-05)
(-0.000476846 0.00220509 -1.71238e-18 0.000570611 8.42877e-19 -9.37644e-05)
(-0.000615732 0.00677756 3.72898e-18 0.000899257 -1.19375e-18 -0.000283525)
(0.000483255 0.0127702 -7.23464e-18 8.50356e-05 9.63178e-18 -0.000568291)
(0.00322756 0.0179289 1.50658e-19 -0.0023104 -3.32672e-19 -0.00091716)
(0.000224748 0.000388289 4.16914e-19 -0.000188239 -1.48371e-19 -3.65095e-05)
(0.00351031 -0.00677902 5.21452e-18 -0.00309791 1.30775e-17 -0.000412401)
(0.00937599 -0.0902883 2.39186e-17 -0.00824779 -1.10599e-16 -0.00112819)
(0.00133212 -0.423463 -6.24589e-17 0.000731734 -3.69949e-16 -0.00206385)
(-0.0682354 -1.19146 1.9797e-15 0.07083 5.25025e-16 -0.00259453)
(-0.244605 -2.27803 2.87517e-15 0.245603 6.49829e-16 -0.000998636)
(-0.489256 -3.20397 -1.61405e-15 0.486228 -2.19017e-15 0.00302826)
(-0.692182 -3.61323 -7.19773e-15 0.686383 1.40709e-15 0.0057986)
(-0.774865 -3.56845 4.73218e-15 0.77215 4.83244e-15 0.00271485)
(-0.787037 -3.35545 -1.00546e-14 0.782348 -1.31365e-16 0.00468921)
(-0.567975 -2.97188 -1.29319e-14 0.577619 1.86871e-15 -0.00964378)
(-0.799993 -3.16087 9.20991e-15 0.772391 -3.49082e-15 0.0276022)
(0.000342047 -0.000198017 -1.46045e-20 -0.000335762 -2.97027e-20 -6.2858e-06)
(0.000364479 -0.000134876 -5.04284e-21 -0.00035903 2.03717e-20 -5.44893e-06)
(0.000373018 -5.68438e-05 4.83326e-20 -0.000370359 9.1988e-20 -2.65886e-06)
(0.000363585 2.54899e-05 -2.07597e-20 -0.00036229 -1.08243e-21 -1.29443e-06)
(0.000332025 0.000105796 1.80052e-20 -0.00033214 1.14086e-19 1.14752e-07)
(0.000278132 0.000174559 5.53411e-20 -0.000278408 -1.60394e-20 2.76268e-07)
(0.000208463 0.000222912 5.9678e-20 -0.00020821 -1.57084e-21 -2.52863e-07)
(0.000133729 0.000246288 -1.47406e-19 -0.000133768 -8.90499e-20 3.84289e-08)
(6.1767e-05 0.000246658 -8.03614e-20 -6.25698e-05 6.97186e-21 8.02788e-07)
(-7.20959e-07 0.000226261 1.33718e-19 -4.17033e-07 6.00167e-20 1.13799e-06)
(-4.61657e-05 0.00019188 6.22694e-20 4.51815e-05 -5.13139e-21 9.84203e-07)
(-7.37351e-05 0.000153348 7.38338e-20 7.32323e-05 -4.55527e-20 5.02793e-07)
(-8.69747e-05 0.000117178 -1.1422e-19 8.72389e-05 -7.44711e-20 -2.6422e-07)
(-9.02727e-05 8.6262e-05 -1.41385e-19 9.14049e-05 2.67454e-20 -1.13211e-06)
(-8.73213e-05 6.16528e-05 1.29693e-20 8.93547e-05 3.72828e-20 -2.03337e-06)
(-8.10677e-05 4.2925e-05 4.36964e-20 8.39067e-05 -1.30017e-20 -2.83903e-06)
(-7.35686e-05 2.92401e-05 -1.07457e-19 7.71381e-05 -8.40746e-21 -3.56949e-06)
(-6.60949e-05 1.94116e-05 -4.08227e-21 7.02663e-05 -1.70725e-20 -4.17145e-06)
(-5.93406e-05 1.22736e-05 -4.12363e-20 6.40048e-05 -8.03306e-21 -4.66415e-06)
(-5.34369e-05 6.77433e-06 8.67148e-20 5.84367e-05 -4.98552e-20 -4.99984e-06)
(-4.83328e-05 2.2367e-06 -9.44692e-20 5.35947e-05 -3.26662e-20 -5.26189e-06)
(-4.37518e-05 -1.91599e-06 -1.96335e-19 4.92072e-05 -2.30314e-20 -5.45538e-06)
(-3.92264e-05 -6.02577e-06 8.94235e-21 4.4856e-05 -2.96806e-20 -5.62961e-06)
(-3.40433e-05 -9.84748e-06 5.03612e-20 3.97864e-05 -2.85688e-20 -5.74318e-06)
(-2.84108e-05 -1.22486e-05 1.52539e-19 3.44317e-05 -1.06486e-20 -6.02085e-06)
(-2.34544e-05 -1.29963e-05 -1.4294e-19 3.00803e-05 -8.20167e-21 -6.62593e-06)
(-1.95445e-05 -1.28597e-05 -2.45778e-20 2.6855e-05 7.61264e-21 -7.31055e-06)
(-1.65227e-05 -1.23486e-05 1.47953e-20 2.44822e-05 1.28147e-21 -7.95946e-06)
(-1.3679e-05 -1.14231e-05 -6.83285e-21 2.18797e-05 -2.72572e-22 -8.20066e-06)
(-1.08843e-05 -1.02069e-05 -9.96495e-21 1.87417e-05 4.71126e-22 -7.8574e-06)
(-7.42264e-06 -8.1348e-06 -1.5939e-20 1.37605e-05 -8.52495e-22 -6.33784e-06)
(-4.20278e-06 -5.74064e-06 4.60979e-20 8.60443e-06 1.33187e-21 -4.40164e-06)
(-3.04387e-05 -5.74361e-05 2.02599e-18 7.7737e-05 1.31908e-19 -4.72983e-05)
(-2.13342e-07 -4.46892e-05 1.89188e-17 0.000110286 1.75998e-18 -0.000110073)
(0.000237383 0.000607247 7.88039e-17 -0.000136596 1.03929e-17 -0.000100787)
(0.000886681 0.00335997 -1.7439e-16 -0.000944928 -2.66406e-17 5.82463e-05)
(0.00157965 0.0112745 7.44577e-16 -0.00205843 1.10162e-16 0.000478781)
(0.00676243 0.0280735 -4.87767e-16 -0.00725461 -1.69199e-16 0.000492178)
(-0.00280593 0.104894 -3.29525e-16 -0.00199558 -1.41662e-15 0.00480151)
(0.000222652 -0.000195771 -1.35331e-20 -0.000225649 -2.01285e-20 2.99738e-06)
(0.000184226 -0.000231271 2.65475e-21 -0.000188563 4.21772e-21 4.33776e-06)
(0.000134585 -0.00026091 1.61109e-20 -0.000139395 1.75013e-20 4.81035e-06)
(7.82003e-05 -0.00027888 -9.89292e-20 -8.43358e-05 -1.40465e-19 6.13544e-06)
(1.91876e-05 -0.000283059 -7.24227e-20 -2.67049e-05 -8.46802e-20 7.51729e-06)
(-4.01441e-05 -0.000272868 1.69205e-19 3.13485e-05 2.02435e-19 8.79556e-06)
(-9.45085e-05 -0.000249025 -1.79627e-19 8.3981e-05 -2.2294e-19 1.05275e-05)
(-0.000140007 -0.000213717 -8.11887e-20 0.000127631 -5.40257e-20 1.23757e-05)
(-0.000174401 -0.000169932 -1.93046e-19 0.000160184 -1.4443e-19 1.42169e-05)
(-0.000196355 -0.000121874 -3.59711e-20 0.000180044 -6.54455e-20 1.63112e-05)
(-0.00020598 -7.29793e-05 2.41622e-20 0.000187578 -8.71445e-21 1.84015e-05)
(-0.000204439 -2.64158e-05 -1.32193e-19 0.000183952 -1.7528e-19 2.04873e-05)
(-0.00019374 1.52661e-05 4.30343e-19 0.000171268 2.94683e-19 2.24724e-05)
(-0.000176268 5.05446e-05 -1.4167e-19 0.000152118 -2.47585e-20 2.41493e-05)
(-0.000154329 7.92242e-05 -3.47138e-19 0.000128802 -1.51764e-19 2.55271e-05)
(-0.000130364 0.000100275 2.30188e-19 0.000104442 4.55708e-21 2.59224e-05)
(-0.000105991 0.000113 -1.67243e-19 8.11698e-05 -9.64561e-20 2.48215e-05)
(-8.17892e-05 0.000118161 2.26418e-21 5.90458e-05 1.22419e-19 2.27433e-05)
(-5.89006e-05 0.000116796 -3.98809e-20 3.89874e-05 -3.13273e-20 1.99132e-05)
(-3.80642e-05 0.00010809 -2.77449e-19 2.18482e-05 -1.91776e-19 1.6216e-05)
(-2.01722e-05 8.72191e-05 1.82508e-19 9.17661e-06 1.77351e-19 1.09956e-05)
(-9.56418e-06 6.43099e-05 3.40264e-21 3.36257e-06 -1.04265e-19 6.2016e-06)
(-6.26588e-06 6.91281e-05 3.84057e-20 1.58385e-06 1.17565e-20 4.68203e-06)
(-1.98853e-06 7.87367e-05 1.11477e-19 -1.79754e-06 -5.03157e-21 3.78607e-06)
(4.22328e-06 8.56457e-05 -3.75853e-20 -7.24759e-06 -1.2009e-20 3.02431e-06)
(9.7972e-06 8.78113e-05 1.2655e-19 -1.19448e-05 2.02629e-20 2.14759e-06)
(1.29934e-05 8.7857e-05 -6.94869e-21 -1.42725e-05 1.60683e-22 1.27916e-06)
(2.33323e-05 0.000139529 -2.23899e-20 -2.43444e-05 -1.3924e-20 1.01209e-06)
(0.00108361 0.00572818 1.18918e-20 -0.00109617 1.48586e-18 1.25684e-05)
(0.0046728 0.0205047 -5.92094e-17 -0.00463934 4.8934e-18 -3.34594e-05)
(0.000595512 0.00191685 -2.33624e-18 -0.000586148 3.92513e-19 -9.36416e-06)
(0.00940495 0.012778 2.37568e-17 -0.00921071 -1.39917e-16 -0.000194243)
(0.0185697 -0.0755237 5.15649e-16 -0.0178481 -6.35724e-16 -0.000721581)
(-0.0183163 -0.510857 -2.78306e-15 0.0200955 1.47076e-16 -0.00177917)
(-0.163064 -1.36795 4.62099e-15 0.16486 1.74792e-15 -0.00179531)
(-0.376124 -2.27193 -9.59752e-16 0.376956 4.20686e-16 -0.000831612)
(-0.563659 -2.85872 -1.69369e-15 0.559883 3.93175e-15 0.00377633)
(-0.514192 -3.01025 6.76139e-16 0.524343 2.50409e-16 -0.0101507)
(-0.757813 -3.33207 -1.71263e-14 0.721054 4.30485e-15 0.0367584)
(0.000253064 -0.000152548 8.64058e-21 -0.000256204 3.5026e-21 3.14014e-06)
(0.000274079 -0.00010623 -3.12565e-20 -0.000275839 -4.48504e-20 1.75967e-06)
(0.000285557 -4.93504e-05 3.95737e-21 -0.000287168 2.03179e-20 1.61103e-06)
(0.000283239 1.20448e-05 1.70888e-20 -0.000284059 -5.69588e-20 8.20391e-07)
(0.000264197 7.33099e-05 -1.38719e-19 -0.000264769 -1.99103e-19 5.72511e-07)
(0.000227742 0.000127663 -1.42089e-19 -0.000227742 7.31468e-20 3.95128e-10)
(0.000178007 0.000168645 1.98822e-19 -0.000177682 1.0297e-19 -3.25808e-07)
(0.00012239 0.000192312 -6.44006e-20 -0.000122274 -1.86524e-19 -1.16451e-07)
(6.64942e-05 0.000198745 -8.76904e-20 -6.66716e-05 2.48987e-20 1.77492e-07)
(1.57785e-05 0.000188813 -5.9773e-20 -1.6115e-05 -1.03816e-19 3.36475e-07)
(-2.37903e-05 0.0001669 2.08942e-20 2.34878e-05 3.16544e-20 3.02436e-07)
(-5.05708e-05 0.000139249 -3.93406e-20 5.02914e-05 -5.12867e-20 2.79464e-07)
(-6.59146e-05 0.000110841 -8.12739e-20 6.55821e-05 1.09095e-19 3.32586e-07)
(-7.23728e-05 8.46579e-05 8.62429e-20 7.19019e-05 5.03391e-20 4.70875e-07)
(-7.25545e-05 6.2319e-05 7.31806e-20 7.18755e-05 -3.36283e-20 6.79009e-07)
(-6.88891e-05 4.42344e-05 -1.50376e-20 6.7928e-05 -3.00565e-20 9.6111e-07)
(-6.32248e-05 3.01852e-05 4.36881e-20 6.19535e-05 9.68549e-21 1.27127e-06)
(-5.69046e-05 1.95027e-05 -6.47674e-20 5.53152e-05 1.65436e-20 1.58931e-06)
(-5.07452e-05 1.14036e-05 4.58549e-20 4.88599e-05 -1.22767e-21 1.88531e-06)
(-4.50883e-05 5.08931e-06 -6.0329e-20 4.29274e-05 -2.80843e-20 2.16086e-06)
(-3.99997e-05 -6.23432e-08 5.82354e-20 3.7613e-05 4.82229e-21 2.38673e-06)
(-3.52974e-05 -4.55709e-06 7.80106e-20 3.27199e-05 1.69935e-20 2.57752e-06)
(-3.06083e-05 -8.68345e-06 -5.47594e-21 2.78801e-05 7.14843e-21 2.72823e-06)
(-2.53343e-05 -1.22851e-05 -1.46212e-19 2.24058e-05 1.11894e-22 2.92849e-06)
(-1.94862e-05 -1.45722e-05 -5.43822e-20 1.63253e-05 -2.31394e-20 3.16084e-06)
(-1.38993e-05 -1.52912e-05 -1.60274e-20 1.05505e-05 2.46083e-20 3.34883e-06)
(-9.01482e-06 -1.5036e-05 5.9307e-20 5.36048e-06 7.25116e-22 3.65434e-06)
(-4.79954e-06 -1.42085e-05 2.13484e-21 7.21098e-07 -4.83303e-22 4.07844e-06)
(-1.22127e-06 -1.31468e-05 -3.35617e-21 -3.34727e-06 2.84233e-22 4.56854e-06)
(1.64975e-06 -1.13018e-05 3.75574e-20 -6.37218e-06 1.7958e-22 4.72243e-06)
(4.38941e-06 -1.18336e-05 3.33232e-20 -1.00596e-05 1.07812e-21 5.67017e-06)
(3.23088e-06 -5.83595e-06 -8.98444e-20 -6.12887e-06 -4.97597e-21 2.898e-06)
(1.19854e-05 -1.74008e-05 -7.70039e-19 -2.00362e-05 -5.97183e-20 8.05074e-06)
(8.73625e-05 -0.000109745 -1.07267e-18 -0.000129841 -1.31219e-19 4.24783e-05)
(2.48057e-05 -2.70445e-05 2.09209e-19 -3.28147e-05 2.06157e-21 8.00904e-06)
(0.000110746 -9.00357e-05 -1.76624e-18 -0.000128537 7.05501e-19 1.77916e-05)
(0.000368888 -0.000131435 -1.80245e-17 -0.000398499 -1.50479e-17 2.96112e-05)
(0.000949148 0.000217987 5.66378e-17 -0.000927126 4.03124e-18 -2.20227e-05)
(0.00385721 0.0198704 -2.9186e-16 -0.00524157 5.28089e-17 0.00138435)
(0.000184108 -0.000160715 1.18706e-20 -0.000183004 1.37712e-20 -1.10393e-06)
(0.000155897 -0.000189425 -2.98413e-20 -0.000154899 -3.5823e-20 -9.98765e-07)
(0.000118693 -0.000214656 -2.4048e-21 -0.000117099 -4.99037e-21 -1.59423e-06)
(7.61973e-05 -0.000232122 -1.24191e-20 -7.43162e-05 -6.50201e-21 -1.88115e-06)
(3.11824e-05 -0.000239733 9.85802e-20 -2.89259e-05 1.13383e-19 -2.25649e-06)
(-1.52727e-05 -0.000237112 7.55801e-20 1.82345e-05 6.23623e-20 -2.96175e-06)
(-5.91402e-05 -0.000224344 9.79065e-22 6.27411e-05 3.04534e-20 -3.6009e-06)
(-9.74806e-05 -0.000202511 1.87524e-19 0.000101851 1.81629e-19 -4.3703e-06)
(-0.000128575 -0.000173474 -2.34058e-20 0.00013394 -3.11929e-21 -5.36427e-06)