/*--------------------------------*- C++ -*----------------------------------*\
| =========                 |                                                 |
| \\      /  F ield         | OpenFOAM: The Open Source CFD Toolbox           |
|  \\    /   O peration     | Version:  2306                                  |
|   \\  /    A nd           | Website:  www.openfoam.com                      |
|    \\/     M anipulation  |                                                 |
\*---------------------------------------------------------------------------*/
FoamFile
{
    version     2.0;
    format      ascii;
    arch        "LSB;label=32;scalar=64";
    class       volSymmTensorField;
    location    "225";
    object      turbulenceProperties:R;
}
// * * * * * * * * * * * * * * * * * * * * * * * * * * * * * * * * * * * * * //

dimensions      [0 2 -2 0 0 0 0];

internalField   nonuniform List<symmTensor> 
10720
(
(0.0144515 0.0030539 -6.93312e-22 0.0120019 -1.60669e-20 0.0133737)
(0.0172306 0.00362838 -1.17351e-23 0.0136025 1.04431e-19 0.0155258)
(0.021011 0.00421458 -2.1499e-20 0.0152806 -3.35785e-19 0.0183743)
(0.0261667 0.00497353 9.54736e-20 0.017569 7.03322e-19 0.0221633)
(0.032519 0.00568983 -1.8707e-19 0.0199983 -6.90508e-19 0.0265924)
(0.0408271 0.00619912 -1.4726e-19 0.0227233 -3.84889e-19 0.0322767)
(0.0515764 0.00646953 2.8631e-19 0.0260521 1.09904e-18 0.0394546)
(0.064999 0.00615766 -7.46863e-19 0.0300111 -2.03063e-18 0.0482901)
(0.0819531 0.00489803 -1.89101e-19 0.0350447 5.53215e-19 0.0595247)
(0.103277 0.0024227 5.71394e-19 0.0418272 1.17212e-18 0.0738092)
(0.130243 -0.0017939 1.49018e-18 0.0512268 5.44816e-19 0.0922795)
(0.165002 -0.00833715 -3.38901e-18 0.064619 -3.14683e-18 0.116697)
(0.210493 -0.0181319 6.4782e-19 0.0838662 8.36496e-19 0.149482)
(0.271581 -0.0327666 2.60785e-18 0.111982 1.23584e-18 0.194629)
(0.356487 -0.0548871 -3.98448e-18 0.154089 -6.22293e-18 0.258904)
(0.478127 -0.0888345 -4.29051e-18 0.218586 -2.53714e-18 0.353036)
(0.660962 -0.143088 1.89379e-17 0.321734 1.75351e-17 0.497722)
(0.937824 -0.230284 1.77269e-17 0.487861 3.34282e-17 0.721585)
(1.41015 -0.38535 -3.50541e-17 0.785981 -5.42498e-17 1.11088)
(2.13935 -0.639936 -1.44097e-18 1.27789 1.44896e-17 1.72684)
(3.71728 -1.2025 -2.70449e-17 2.37995 5.1328e-17 3.0775)
(6.11643 -2.11992 -1.11826e-17 4.19917 4.13562e-17 5.19725)
(13.6414 -5.05817 -1.42614e-16 10.1161 -6.20753e-16 11.9563)
(26.0537 -10.3378 3.27191e-16 21.1074 5.47785e-16 23.7076)
(28.0713 -11.8279 4.10549e-17 24.9191 -7.06163e-16 26.5606)
(26.0076 -11.4463 3.71071e-16 24.9309 5.73885e-16 25.4543)
(24.8557 -11.2478 -8.04718e-17 25.1688 -7.81008e-17 24.9688)
(24.7362 -11.4128 2.74386e-16 26.1025 2.2896e-16 25.383)
(24.7869 -11.614 7.34541e-16 27.103 1.20211e-15 25.9209)
(24.462 -11.615 4.11382e-16 27.6532 1.98909e-15 26.0454)
(23.7012 -11.3863 -1.42103e-15 27.663 -1.92402e-15 25.6847)
(22.5946 -10.965 -4.82523e-16 27.1841 -7.23524e-16 24.905)
(21.1236 -10.3391 -1.817e-17 26.1525 -4.38371e-15 23.6606)
(19.3174 -9.52287 -2.59913e-15 24.5725 -7.27929e-15 21.9684)
(17.1575 -8.50789 1.00659e-15 22.3857 9.21553e-16 19.7932)
(14.7018 -7.32367 1.23629e-15 19.629 1.15095e-15 17.1822)
(11.537 -5.76978 -1.23886e-16 15.7455 -5.29757e-16 13.6611)
(8.57843 -4.2954 -1.57898e-15 11.8505 -2.29386e-17 10.2139)
(3.10109 -1.56189 -3.67884e-16 4.6932 -3.43111e-15 3.89276)
(0.0119913 0.00256099 1.68663e-21 0.0106171 3.83506e-20 0.0113579)
(0.010098 0.00211399 -2.38703e-21 0.00930865 -6.06727e-23 0.00979263)
(0.00805677 0.00163849 -1.25014e-20 0.00779945 -8.60019e-20 0.00797243)
(0.00636463 0.0012334 3.16219e-21 0.00642097 5.51749e-20 0.00642304)
(0.00484699 0.000874614 2.104e-21 0.00503067 -9.84843e-21 0.00495388)
(0.00353977 0.000583513 -1.7148e-20 0.00371001 5.59595e-20 0.0036245)
(0.00252107 0.000375308 -9.10624e-20 0.00260505 7.32818e-20 0.00254664)
(0.00194105 0.000259983 5.71591e-20 0.00190955 -2.26075e-20 0.00190221)
(0.00211729 0.000277834 1.01466e-19 0.00191962 -5.13549e-20 0.00200092)
(0.00296807 0.000385975 -7.98307e-20 0.00247676 2.00633e-20 0.00271991)
(0.00453067 0.000625663 -2.36489e-20 0.00353112 1.11173e-19 0.00404057)
(0.00695888 0.00109868 1.74498e-19 0.00511054 7.22452e-20 0.00605359)
(0.0105455 0.0019783 3.58891e-19 0.0073476 -5.59439e-20 0.00898202)
(0.0157196 0.0035068 -7.31104e-21 0.0104927 -2.18442e-19 0.0131714)
(0.0229931 0.00593542 -7.09051e-20 0.0149314 -1.54641e-19 0.0190627)
(0.0331044 0.00955595 2.57333e-20 0.0213547 -5.38738e-20 0.0273802)
(0.0473787 0.0147905 -1.86907e-19 0.0308922 6.32281e-19 0.0393422)
(0.068329 0.0225293 7.13086e-19 0.0455516 2.64327e-19 0.0572262)
(0.100653 0.0345219 3.19107e-19 0.0689366 -1.18335e-18 0.0851867)
(0.152675 0.0540614 -1.29786e-18 0.107683 -3.38911e-19 0.130755)
(0.240926 0.0877218 -4.39391e-18 0.175119 -2.00116e-18 0.2089)
(0.394985 0.14774 -3.33246e-18 0.296379 -8.89146e-19 0.347143)
(0.68493 0.263308 6.21447e-18 0.531993 -5.7936e-19 0.611123)
(1.23191 0.487885 -7.47874e-18 0.995638 1.2088e-18 1.11923)
(2.40429 0.981468 4.07836e-18 2.02917 -7.20671e-18 2.22853)
(4.81846 2.02253 -1.26709e-16 4.24478 2.65914e-18 4.55624)
(10.5644 4.54808 -7.85654e-17 9.70283 1.22822e-17 10.1915)
(21.3192 9.39152 6.60839e-17 20.3944 8.03314e-19 20.9775)
(29.5886 13.3102 8.70902e-18 29.4682 -1.22707e-19 29.6847)
(32.6714 14.9734 6.28977e-17 33.8318 3.76826e-19 33.3991)
(33.0861 15.4104 -4.37531e-16 35.5415 -4.87109e-18 34.4372)
(32.6721 15.4296 1.57433e-16 36.3139 2.09653e-17 34.594)
(31.9479 15.2669 -1.8903e-15 36.6502 -1.5334e-16 34.3827)
(31.0053 14.9662 -3.46083e-15 36.6285 -2.37355e-16 33.8873)
(29.8712 14.5432 1.05909e-15 36.2721 1.08311e-16 33.1322)
(28.5825 14.0192 1.02509e-15 35.6266 1.64619e-16 32.1575)
(26.9264 13.2947 1.45111e-15 34.4486 2.67157e-16 30.7356)
(25.1292 12.4753 -2.90637e-16 32.9406 -3.64815e-17 29.0799)
(20.1491 10.0685 -4.55547e-15 27.4241 -7.83783e-16 23.7964)
(0.00226539 -0.000155022 4.19442e-23 0.00189478 1.34678e-21 0.00205012)
(0.00222249 -0.000181764 9.63972e-21 0.00191721 2.33688e-20 0.00203643)
(0.00215714 -0.000204268 -8.81821e-21 0.00193957 -1.55531e-20 0.00200888)
(0.00205794 -0.000211567 -5.89633e-21 0.00192495 -1.67656e-20 0.00194674)
(0.00192851 -0.00020664 3.91641e-20 0.00187521 7.59927e-20 0.00185356)
(0.00178874 -0.000193229 1.50715e-20 0.0018085 2.33826e-20 0.00174675)
(0.0016392 -0.000172961 7.0809e-20 0.00171354 6.50571e-20 0.0016214)
(0.00148314 -0.00014905 -3.62827e-20 0.0015935 -6.9873e-21 0.00148149)
(0.00133583 -0.000125513 5.11045e-20 0.00146717 3.54175e-20 0.00134326)
(0.00119826 -0.000104503 -1.82408e-21 0.00133606 7.56754e-23 0.00120783)
(0.00107217 -8.69211e-05 -6.96311e-20 0.00120557 -5.94869e-20 0.00107944)
(0.000985876 -7.78531e-05 9.31994e-20 0.00111305 1.16012e-19 0.000988005)
(0.000973708 -8.3259e-05 6.50598e-20 0.00110347 3.26856e-20 0.000966801)
(0.00107126 -0.000112989 -1.69746e-20 0.0012178 9.18234e-21 0.0010445)
(0.00140231 -0.000211178 -1.39204e-19 0.00158177 2.29613e-20 0.00131429)
(0.00227263 -0.000509949 3.70711e-19 0.00242928 4.24142e-19 0.00197709)
(0.00455797 -0.00136069 7.53435e-19 0.00429651 -8.25792e-19 0.00363587)
(0.00999147 -0.00330071 -4.13228e-18 0.00816107 -5.3499e-18 0.00766781)
(0.0244531 -0.00824091 4.89664e-19 0.0181168 7.13133e-18 0.0188876)
(0.0604052 -0.0204753 7.19374e-18 0.0427595 -2.02533e-18 0.0477878)
(0.174909 -0.0602616 1.50498e-17 0.122718 5.98774e-18 0.142338)
(0.480623 -0.170366 -2.32903e-17 0.343135 -2.20737e-17 0.402575)
(1.41923 -0.52373 7.23983e-17 1.05413 1.79806e-16 1.22501)
(4.45997 -1.72235 1.68582e-19 3.49383 -1.48732e-16 3.9717)
(8.55952 -3.44748 -2.67763e-16 7.08699 1.6311e-16 7.85599)
(12.5927 -5.26044 -9.77695e-17 11.0029 -6.38754e-16 11.8759)
(16.1765 -6.98464 7.83826e-19 14.9244 7.37128e-17 15.6553)
(18.5 -8.22827 -2.90882e-16 18.0154 -4.33258e-16 18.3685)
(18.6338 -8.50859 -4.91399e-16 19.1363 -2.77826e-15 18.9822)
(16.7456 -7.81815 -1.68107e-16 18.0902 -3.48752e-15 17.4792)
(13.9803 -6.64208 5.19896e-16 15.81 4.83392e-15 14.9084)
(11.3031 -5.44061 -9.48504e-16 13.2986 -4.65865e-17 12.2744)
(9.19118 -4.46659 -7.185e-15 11.1743 1.33632e-15 10.1381)
(7.6154 -3.72603 8.73707e-15 9.49391 1.57575e-14 8.50969)
(6.43248 -3.16304 -1.48234e-15 8.17343 -8.40833e-16 7.26635)
(5.52459 -2.72413 3.41973e-15 7.10011 -4.99142e-15 6.28137)
(4.88545 -2.41666 -1.50587e-15 6.3532 1.52301e-15 5.59941)
(4.36344 -2.13929 3.27366e-15 5.52123 4.15898e-16 4.89376)
(4.82565 -2.41953 5.84678e-15 6.41196 8.28562e-15 5.76518)
(0.00227117 -0.000117334 3.19234e-21 0.00184837 7.87075e-21 0.00203416)
(0.00225975 -7.74027e-05 -4.39162e-21 0.00180305 -3.32078e-20 0.00200713)
(0.00220818 -2.65016e-05 -6.52855e-21 0.00173758 -3.87566e-20 0.00195353)
(0.00211436 3.0977e-05 -2.53789e-21 0.00165934 5.87381e-20 0.00187276)
(0.0019705 8.50405e-05 7.28573e-22 0.00156832 1.5585e-20 0.00176184)
(0.00177184 0.000127886 1.39187e-20 0.00145924 -5.34603e-20 0.00161359)
(0.00153733 0.000150837 2.59743e-20 0.00133498 -8.35298e-20 0.00143808)
(0.00131346 0.000152948 -1.19638e-19 0.00121173 3.23031e-21 0.00126773)
(0.00111279 0.000139636 1.80621e-20 0.00109212 8.06295e-20 0.00110832)
(0.00092115 0.000116229 3.54938e-22 0.000967939 -4.73343e-20 0.000947929)
(0.000750941 8.75768e-05 -2.98581e-20 0.000839241 -2.83323e-20 0.000794276)
(0.000614629 6.17872e-05 -2.10004e-20 0.000716853 -2.964e-20 0.000661338)
(0.000506545 4.20833e-05 -3.77926e-21 0.0006057 6.31638e-21 0.000549595)
(0.00041881 2.81702e-05 1.2197e-20 0.000506824 3.27903e-20 0.000455343)
(0.000346563 1.88608e-05 2.00542e-20 0.000420488 7.72207e-21 0.000375857)
(0.000286658 1.28286e-05 -2.68761e-20 0.000346455 -1.34538e-21 0.000309213)
(0.000236267 8.97405e-06 2.22445e-20 0.000282934 2.27367e-21 0.000252975)
(0.00019371 6.45987e-06 -2.37526e-21 0.00022885 -6.91441e-21 0.000205635)
(0.000156319 4.62187e-06 -6.87243e-21 0.00018133 1.08966e-20 0.000164357)
(0.000121871 3.11234e-06 -4.01429e-21 0.000138065 4.35634e-21 0.000126785)
(8.72082e-05 1.74187e-06 -6.01211e-21 9.57955e-05 6.74263e-21 8.96505e-05)
(5.23923e-05 6.6508e-07 -3.51691e-21 5.55132e-05 1.82045e-21 5.32128e-05)
(1.84461e-05 8.34418e-08 -6.74036e-22 1.88256e-05 5.81904e-23 1.85353e-05)
(3.01189e-06 2.24705e-09 8.10852e-24 3.02162e-06 7.63732e-25 3.0138e-06)
(8.07092e-06 1.75592e-08 -4.05391e-24 8.13604e-06 5.52579e-24 8.08054e-06)
(0.000856555 0.000194984 4.79522e-19 0.0014389 1.24618e-19 0.000916451)
(0.00455937 0.00134657 2.6691e-18 0.00788918 -1.90097e-19 0.00478332)
(0.0374928 0.0120632 1.0865e-18 0.0624892 -4.48729e-19 0.0385784)
(0.12866 0.0461525 -7.55859e-19 0.205018 1.02149e-19 0.131149)
(0.257092 0.103089 4.97588e-17 0.387202 2.03664e-18 0.261978)
(0.392045 0.171161 4.03299e-16 0.555449 9.68451e-18 0.402704)
(0.513734 0.235779 2.39836e-16 0.691067 1.31412e-17 0.53449)
(0.615673 0.28994 1.76431e-15 0.800855 1.21048e-16 0.649741)
(0.702573 0.335506 2.54712e-15 0.899477 1.69617e-16 0.751879)
(0.780129 0.375954 -5.71029e-16 0.996616 -9.74921e-17 0.846399)
(0.858307 0.416177 -4.91316e-16 1.10061 -8.64117e-17 0.941705)
(0.935864 0.456869 -1.22584e-15 1.2165 -5.16993e-16 1.04199)
(1.13631 0.553376 -2.52744e-15 1.45816 -2.40821e-18 1.25693)
(1.57939 0.778172 -2.04263e-15 1.98491 1.36465e-15 1.79773)
(0.00151657 -0.000120219 6.66598e-22 0.00124939 9.25614e-22 0.00139817)
(0.00147672 -0.000143362 -1.05316e-20 0.00126499 -2.55395e-20 0.00138924)
(0.00140813 -0.000159576 -2.32067e-21 0.00126926 -1.18236e-21 0.00136015)
(0.00131862 -0.00016486 8.82674e-21 0.00126062 1.90329e-20 0.00131561)
(0.00122764 -0.00016012 -2.79521e-20 0.00124974 -5.68105e-20 0.00126823)
(0.0011339 -0.000144772 -3.18943e-20 0.00123174 -5.22579e-20 0.00121593)
(0.00104563 -0.000120285 -6.4863e-20 0.0012068 -9.58443e-20 0.0011633)
(0.000971705 -9.03069e-05 -5.23259e-21 0.00117909 -7.82206e-22 0.00111575)
(0.000913626 -5.71798e-05 -2.87077e-20 0.00114971 -6.82979e-20 0.00107489)
(0.000873805 -2.42001e-05 1.20601e-19 0.00112138 1.372e-19 0.00104341)
(0.00084908 6.46723e-06 -1.98539e-20 0.00109356 2.70046e-20 0.00101894)
(0.00084017 3.33774e-05 1.36417e-20 0.00107204 8.375e-21 0.0010046)
(0.000844798 5.58703e-05 -9.38472e-20 0.00105943 -1.19443e-19 0.00100024)
(0.000861791 7.50827e-05 6.11818e-20 0.00105891 -5.68534e-21 0.0010075)
(0.000875944 8.90245e-05 1.77666e-20 0.00105297 5.51904e-20 0.0010088)
(0.000864092 9.3468e-05 2.10256e-20 0.00101429 1.00792e-20 0.000977593)
(0.000761388 7.56547e-05 -8.02304e-20 0.000863311 -4.67266e-20 0.000838289)
(0.000586684 4.62182e-05 4.31209e-20 0.000640735 3.21608e-20 0.000626918)
(1.73204e-05 3.9961e-08 1.19685e-23 1.73622e-05 1.40724e-25 1.73507e-05)
(0.000637048 6.31698e-05 -8.0791e-20 0.000698617 -1.21163e-20 0.000679792)
(0.00681429 0.00342455 5.15232e-18 0.0100144 -2.02967e-18 0.00891477)
(0.00329198 0.0016116 8.66452e-20 0.00478419 1.4991e-18 0.00419897)
(0.000971605 0.000473966 1.29836e-18 0.00164464 -1.92461e-18 0.0012874)
(0.0191682 -0.0074738 -3.92812e-18 0.0155382 -4.20069e-18 0.0167436)
(0.132247 -0.052874 4.64207e-18 0.110042 1.61185e-17 0.118369)
(0.430957 -0.17825 -2.72727e-17 0.375282 7.2825e-18 0.397156)
(1.07035 -0.456811 1.41457e-17 0.976764 1.06749e-18 1.01478)
(2.37518 -1.0403 -1.34567e-17 2.2625 7.29331e-17 2.30818)
(4.63984 -2.07683 -4.24989e-16 4.59794 2.36345e-16 4.60865)
(7.59153 -3.46514 2.07833e-16 7.82103 3.41828e-16 7.70105)
(10.1966 -4.74087 1.53279e-15 10.9329 -5.72477e-16 10.5715)
(11.3834 -5.38323 -2.71827e-15 12.7093 2.12877e-15 12.067)
(10.9846 -5.26881 5.14024e-16 12.7394 9.19021e-15 11.8855)
(9.73289 -4.71769 -4.96396e-17 11.6577 -6.28683e-15 10.7085)
(8.34459 -4.07387 3.03262e-15 10.2464 -2.29342e-15 9.29823)
(7.09925 -3.47833 -1.42723e-14 8.83879 5.32094e-16 7.9648)
(6.13533 -3.0147 4.93344e-15 7.71404 -1.62773e-15 6.92613)
(5.21904 -2.53023 5.12649e-15 6.29093 -1.53678e-15 5.73307)
(5.63342 -2.7903 -1.01736e-14 7.27959 3.06763e-15 6.48222)
(0.00155094 -9.08438e-05 -1.36663e-21 0.00123769 -2.60168e-21 0.00140816)
(0.00156444 -5.90409e-05 -5.15566e-21 0.00122271 -7.24263e-21 0.00140468)
(0.00156986 -2.02376e-05 2.13979e-20 0.00121165 4.59816e-20 0.0013993)
(0.00154268 2.09536e-05 4.36767e-21 0.00119144 -5.28019e-21 0.00137245)
(0.00148338 6.138e-05 3.00867e-21 0.00116421 -3.39374e-20 0.0013269)
(0.00138094 9.4576e-05 -9.43393e-21 0.00111986 2.44044e-20 0.00125151)
(0.00124145 0.000115245 9.18325e-21 0.00105621 5.49078e-20 0.00114865)
(0.00108594 0.000121462 5.9517e-20 0.000978825 6.36422e-20 0.00103281)
(0.000942654 0.000117464 2.03283e-20 0.00090579 -5.06394e-20 0.000925047)
(0.000802251 0.000104157 4.48972e-20 0.000823612 2.66824e-20 0.000813534)
(0.000663391 8.43281e-05 -3.18467e-20 0.000722886 8.19652e-21 0.000693906)
(0.000538258 6.37376e-05 -4.57888e-21 0.000615801 2.69382e-20 0.000578477)
(0.000432128 4.56866e-05 2.08969e-21 0.0005139 -2.43122e-20 0.000475365)
(0.000344455 3.10919e-05 4.36371e-20 0.000422262 -3.06736e-20 0.000386695)
(0.000274446 2.00413e-05 3.27243e-21 0.00034423 -4.81966e-21 0.000313507)
(0.000219435 1.19898e-05 -4.90135e-21 0.000279723 2.02486e-20 0.000254455)
(0.000177517 6.35731e-06 3.16363e-20 0.000228546 -3.72631e-20 0.000208429)
(0.000146318 2.4469e-06 5.15662e-21 0.000189158 4.52372e-21 0.000173527)
(0.000124023 -3.17774e-07 3.68602e-20 0.000160156 -2.59427e-21 0.000148119)
(0.000108343 -2.42631e-06 3.96816e-20 0.000138991 8.84542e-21 0.000129888)
(9.78842e-05 -4.17276e-06 1.0242e-19 0.000124071 -1.35413e-20 0.000117339)
(9.15949e-05 -5.85393e-06 1.33993e-19 0.000113842 -2.02723e-20 0.000109266)
(8.90154e-05 -7.67718e-06 8.09066e-20 0.000107245 6.95982e-21 0.000104962)
(8.91676e-05 -9.44585e-06 1.89255e-20 0.000101796 -3.86234e-21 0.000102915)
(9.23572e-05 -1.05734e-05 -2.07324e-20 9.77485e-05 9.98414e-21 0.000103497)
(9.52607e-05 -1.00384e-05 7.56994e-20 9.33016e-05 -1.22638e-20 0.000103198)
(0.000104357 -9.46134e-06 -2.05182e-20 9.58537e-05 -1.97933e-21 0.000110095)
(6.24525e-05 -2.73435e-06 -6.21405e-21 5.78683e-05 1.27719e-22 6.37773e-05)
(0.000478685 -6.62269e-05 2.49958e-20 0.000297724 -7.78654e-22 0.000506866)
(0.00327545 -0.000271662 -1.43037e-18 0.00169332 -5.37357e-20 0.0034246)
(0.00936706 0.000434839 -8.65783e-18 0.00469653 -7.42435e-20 0.0096868)
(0.0188574 0.00472172 -5.49385e-17 0.0113276 -3.18551e-18 0.0194461)
(0.038782 0.0155238 -1.34584e-16 0.0318642 -4.43355e-18 0.0401398)
(0.076298 0.0344262 -3.34659e-16 0.0751113 -2.29303e-17 0.0795875)
(0.130641 0.0610558 -8.56448e-16 0.140201 -7.65312e-17 0.137733)
(0.197285 0.0932262 2.15957e-16 0.219499 -1.76314e-17 0.209139)
(0.268232 0.127883 -1.1747e-15 0.306375 2.12605e-16 0.287372)
(0.334207 0.15438 2.95035e-15 0.354218 5.33817e-16 0.342967)
(0.549792 0.261846 4.64054e-15 0.616579 9.51853e-16 0.595237)
(0.00128722 -9.74853e-05 3.59603e-21 0.00105914 6.14539e-21 0.00116787)
(0.00127186 -0.00011556 -5.00492e-21 0.00107969 -9.02031e-21 0.00116991)
(0.00124201 -0.000131184 -2.27633e-21 0.00109882 -1.26672e-21 0.00116292)
(0.00120549 -0.000141333 2.7049e-20 0.00111683 3.95744e-20 0.00115219)
(0.00115775 -0.000144549 1.72027e-20 0.00112557 3.11589e-20 0.00113098)
(0.00110026 -0.000140944 2.18314e-20 0.00112463 4.18814e-20 0.00109979)
(0.00103829 -0.000131252 3.33457e-20 0.00111348 3.85669e-20 0.00106121)
(0.00097177 -0.000116596 -1.91382e-20 0.00108838 -2.97146e-20 0.00101339)
(0.00090386 -9.87218e-05 -6.85403e-20 0.00105152 -6.78943e-20 0.000958817)
(0.000836059 -7.96496e-05 8.91112e-20 0.00100314 5.01835e-20 0.000898754)
(0.000769164 -6.08426e-05 7.50877e-20 0.000945076 6.35862e-20 0.000834398)
(0.000703263 -4.34892e-05 9.74158e-20 0.000878886 4.66597e-20 0.000766797)
(0.000638034 -2.83814e-05 -1.60826e-19 0.000806051 -5.14985e-20 0.000696696)
(0.000573578 -1.58354e-05 -1.37359e-19 0.000728789 -9.22596e-20 0.000625399)
(0.000509824 -5.82681e-06 1.82699e-19 0.000648667 5.74479e-20 0.000553517)
(0.000443609 2.85587e-06 3.7131e-20 0.000563273 2.28597e-20 0.00047889)
(0.000377932 1.01481e-05 -2.72398e-20 0.00047517 2.81521e-21 0.000404569)
(0.000320205 1.55944e-05 -8.39143e-20 0.00039411 -5.4988e-20 0.00033903)
(0.000260448 1.66694e-05 1.59281e-20 0.00030614 -6.10984e-21 0.000271723)
(0.000189728 1.08613e-05 3.74226e-20 0.000208703 1.15458e-20 0.000194705)
(1.8196e-05 9.45236e-08 -3.61678e-22 1.8312e-05 -1.04008e-22 1.82317e-05)
(0.000487961 6.22477e-05 9.63572e-20 0.000546543 1.37125e-20 0.000508933)
(0.00122875 0.000331084 -1.30135e-19 0.00146479 -2.82014e-20 0.00131954)
(0.00449584 0.00208864 -1.62194e-18 0.00548798 7.98363e-19 0.00485869)
(0.0143575 0.00667294 3.67142e-18 0.0158491 -1.17532e-18 0.0146846)
(0.0287425 0.0126874 -7.18774e-18 0.0283468 9.56935e-18 0.0276978)
(0.0435233 0.0178736 1.50194e-19 0.0380025 -3.31645e-19 0.0393914)
(0.00117932 0.000367091 3.94154e-19 0.000788877 -1.40271e-19 0.000932323)
(0.0202587 -0.00675678 5.19741e-18 0.0136721 1.30346e-17 0.0163488)
(0.210832 -0.0902144 2.3899e-17 0.193223 -1.10508e-16 0.200337)
(0.942102 -0.423335 -6.24401e-17 0.941502 -3.69838e-16 0.938707)
(2.58361 -1.19129 1.97942e-15 2.72265 5.24949e-16 2.64924)
(4.84649 -2.27784 2.87492e-15 5.33666 6.49773e-16 5.09007)
(6.71228 -3.20377 -1.61395e-15 7.6877 -2.19003e-15 7.20454)
(7.48165 -3.61304 -7.19735e-15 8.86014 1.40702e-15 8.17959)
(7.33884 -3.56828 4.73195e-15 8.88578 4.83222e-15 8.11638)
(6.87041 -3.3553 -1.00541e-14 8.43973 -1.31359e-16 7.6621)
(6.15757 -2.97175 -1.29313e-14 7.30311 1.86863e-15 6.71587)
(6.43851 -3.16075 9.20954e-15 8.01083 -3.49068e-15 7.26607)
(0.00128826 -7.49058e-05 -5.5246e-21 0.00103186 -1.1236e-20 0.00115649)
(0.00127778 -5.10339e-05 -1.90809e-21 0.00100402 7.70819e-21 0.00113781)
(0.00125122 -2.15152e-05 1.82937e-20 0.000969851 3.48171e-20 0.00110902)
(0.00121174 9.65005e-06 -7.85928e-21 0.000936933 -4.09791e-22 0.0010736)
(0.00115474 4.00683e-05 6.81912e-21 0.000903197 4.32079e-20 0.00102903)
(0.00107523 6.6125e-05 2.09638e-20 0.000864411 -6.07591e-21 0.00096998)
(0.000979862 8.44528e-05 2.26097e-20 0.000822 -5.95133e-22 0.000900787)
(0.000878194 9.33183e-05 -5.58521e-20 0.000776839 -3.37409e-20 0.000827538)
(0.000774449 9.34377e-05 -3.04421e-20 0.000727348 2.64105e-21 0.000751354)
(0.000667749 8.56875e-05 5.06405e-20 0.000667864 2.2729e-20 0.000668453)
(0.000564816 7.2641e-05 2.35736e-20 0.000599398 -1.94261e-21 0.000582666)
(0.000474049 5.80315e-05 2.79409e-20 0.000529666 -1.72385e-20 0.000502143)
(0.000398057 4.43281e-05 -4.32093e-20 0.000463961 -2.81723e-20 0.000430859)
(0.000335617 3.26214e-05 -5.3467e-20 0.000404322 1.01142e-20 0.000369327)
(0.000285028 2.33072e-05 4.90292e-21 0.000351819 1.40944e-20 0.000317271)
(0.000244049 1.62217e-05 1.65132e-20 0.000306394 -4.91345e-21 0.000273612)
(0.000211225 1.10459e-05 -4.05937e-20 0.000268157 -3.17605e-21 0.000237669)
(0.000185007 7.33005e-06 -1.54152e-21 0.000236499 -6.4468e-21 0.00020839)
(0.000164252 4.63227e-06 -1.55633e-20 0.000210805 -3.03182e-21 0.000184888)
(0.000147509 2.55544e-06 3.2711e-20 0.00018971 -1.88066e-20 0.000165781)
(0.00013402 8.43284e-07 -3.56169e-20 0.000172449 -1.23158e-20 0.000150259)
(0.000122801 -7.21953e-07 -7.39798e-20 0.000157828 -8.67832e-21 0.000137231)
(0.000112904 -2.26896e-06 3.36718e-21 0.000144564 -1.1176e-20 0.000125554)
(0.000102648 -3.70565e-06 1.89511e-20 0.00013043 -1.07506e-20 0.000113297)
(9.22221e-05 -4.60602e-06 5.73613e-20 0.000115854 -4.00434e-21 0.000100642)
(8.36521e-05 -4.88848e-06 -5.3766e-20 0.000103789 -3.08502e-21 8.99821e-05)
(7.72463e-05 -4.83332e-06 -9.23757e-21 9.46856e-05 2.86121e-21 8.18445e-05)
(7.26934e-05 -4.67075e-06 5.5962e-21 8.82032e-05 4.84708e-22 7.59324e-05)
(6.68865e-05 -4.27981e-06 -2.56001e-21 8.02089e-05 -1.02122e-22 6.8939e-05)
(5.92403e-05 -3.81797e-06 -3.72748e-21 7.03222e-05 1.76229e-22 6.03725e-05)
(4.4554e-05 -2.75831e-06 -5.40453e-21 5.17367e-05 -2.8906e-22 4.49219e-05)
(2.85984e-05 -1.68364e-06 1.35198e-20 3.23545e-05 3.90615e-22 2.85401e-05)
(0.000200889 -5.50215e-05 1.94082e-18 0.000304517 1.26363e-19 0.000184739)
(0.000395554 -4.4268e-05 1.87405e-17 0.000505012 1.74339e-18 0.00028673)
(0.00168326 0.000605263 7.85465e-17 0.00131051 1.03589e-17 0.0013462)
(0.00861565 0.00335512 -1.74138e-16 0.00678668 -2.66021e-17 0.00778841)
(0.0269876 0.0112659 7.44011e-16 0.0233523 1.10078e-16 0.0258876)
(0.0710512 0.0280607 -4.87544e-16 0.0570405 -1.69121e-16 0.0647838)
(0.230784 0.104868 -3.29441e-16 0.231595 -1.41626e-15 0.23839)
(0.000963444 -7.42404e-05 -5.13204e-21 0.000793439 -7.63316e-21 0.000880147)
(0.000947305 -8.7707e-05 1.00679e-21 0.000805928 1.59953e-21 0.000879084)
(0.000921604 -9.89496e-05 6.11004e-21 0.000817698 6.63731e-21 0.000872387)
(0.000887984 -0.000105774 -3.75219e-20 0.000826338 -5.32757e-20 0.000860652)
(0.000846688 -0.000107375 -2.74728e-20 0.00082928 -3.21225e-20 0.000842261)
(0.000798534 -0.00010353 6.41987e-20 0.000825659 7.68068e-20 0.000817102)
(0.0007469 -9.45088e-05 -6.81711e-20 0.000814639 -8.46092e-20 0.000786762)
(0.000693737 -8.11378e-05 -3.08234e-20 0.000795346 -2.05109e-20 0.000751589)
(0.000641065 -6.4545e-05 -7.33247e-20 0.000768151 -5.48589e-20 0.000712708)
(0.000591806 -4.63197e-05 -1.36713e-20 0.000734862 -2.48735e-20 0.000672633)
(0.000547241 -2.77592e-05 9.19059e-21 0.000696939 -3.31472e-21 0.000632589)
(0.000508565 -1.00584e-05 -5.03354e-20 0.000656453 -6.67415e-20 0.000594211)
(0.000476762 5.82093e-06 1.64088e-19 0.000615938 1.12362e-19 0.000559203)
(0.000452041 1.93066e-05 -5.41138e-20 0.000577475 -9.45702e-21 0.000528594)
(0.000434246 3.03335e-05 -1.32913e-19 0.000542652 -5.81078e-20 0.00050311)
(0.000421481 3.85003e-05 8.83805e-20 0.000511634 1.74969e-21 0.000481487)
(0.000407854 4.35776e-05 -6.44959e-20 0.000480031 -3.71976e-20 0.000458301)
(0.000388762 4.57019e-05 8.75733e-22 0.000443234 4.73489e-20 0.000429193)
(0.000363322 4.52762e-05 -1.54599e-20 0.000401268 -1.21441e-20 0.000393874)
(0.00032329 4.02196e-05 -1.03237e-19 0.000345583 -7.13584e-20 0.000343487)
(0.000234951 2.337e-05 4.89022e-20 0.000242815 4.75204e-20 0.000243302)
(4.98593e-05 1.09088e-06 5.77184e-23 5.00786e-05 -1.76864e-21 5.01268e-05)
(1.16542e-05 5.53597e-08 3.07564e-23 1.16604e-05 9.41496e-24 1.16629e-05)
(2.79703e-06 2.81936e-09 3.99171e-24 2.79704e-06 -1.80168e-25 2.79724e-06)
(0 0 0 0 0 0)
(0 0 0 0 0 0)
(0 0 0 0 0 0)
(0.0004254 5.21625e-05 -8.37039e-21 0.000407576 -5.20544e-21 0.000417055)
(0.0138446 0.00564377 1.17165e-20 0.0116969 1.46396e-18 0.0127893)
(0.0512119 0.0204299 -5.89935e-17 0.0419338 4.87556e-18 0.0465229)
(0.00493552 0.00186309 -2.27072e-18 0.003787 3.81504e-19 0.00434761)
(0.0444767 0.0127595 2.37224e-17 0.025888 -1.39714e-16 0.0348914)
(0.191154 -0.0754952 5.15454e-16 0.15475 -6.35484e-16 0.17187)
(1.11757 -0.510779 -2.78264e-15 1.15597 1.47054e-16 1.1341)
(2.89835 -1.36784 4.6206e-15 3.22625 1.74777e-15 3.0596)
(4.7412 -2.2718 -9.59696e-16 5.49424 4.20661e-16 5.11647)
(5.91028 -2.85858 -1.69361e-15 7.03377 3.93157e-15 6.47769)
(6.27388 -3.01013 6.76111e-16 7.31237 2.50399e-16 6.7779)
(6.82765 -3.33194 -1.71256e-14 8.30646 4.30469e-15 7.62219)
(0.000972698 -5.78491e-05 3.27668e-21 0.000779574 1.32826e-21 0.000877922)
(0.000974453 -4.02793e-05 -1.18515e-20 0.000765941 -1.70059e-20 0.000871198)
(0.000966471 -1.87135e-05 1.50062e-21 0.000749295 7.7045e-21 0.000858799)
(0.000945813 4.5669e-06 6.47934e-21 0.000730717 -2.15964e-20 0.000838732)
(0.00091071 2.77987e-05 -5.26015e-20 0.000710129 -7.54985e-20 0.000810745)
(0.000857361 4.84033e-05 -5.38728e-20 0.000684664 2.77335e-20 0.000771013)
(0.000791229 6.39275e-05 7.53668e-20 0.000656399 3.90325e-20 0.000723629)
(0.000719409 7.28847e-05 -2.44073e-20 0.000626683 -7.0691e-20 0.00067298)
(0.000644106 7.53146e-05 -3.32304e-20 0.000593642 9.43542e-21 0.000618975)
(0.000565487 7.15497e-05 -2.26506e-20 0.000553401 -3.93406e-20 0.000559636)
(0.000488724 6.32464e-05 7.91781e-21 0.00050664 1.19953e-20 0.000497854)
(0.000418143 5.27682e-05 -1.49081e-20 0.000456365 -1.9435e-20 0.000437413)
(0.000355565 4.20051e-05 -3.08001e-20 0.000405397 4.13434e-20 0.00038067)
(0.000301006 3.20846e-05 3.26853e-20 0.000355684 1.90781e-20 0.000328613)
(0.000254186 2.36209e-05 2.77377e-20 0.000308929 -1.27462e-20 0.000281944)
(0.000214488 1.67684e-05 -5.70047e-21 0.000266353 -1.13939e-20 0.000240967)
(0.000181312 1.14446e-05 1.65641e-20 0.000228773 3.6722e-21 0.000205765)
(0.000153993 7.39575e-06 -2.45609e-20 0.000196549 6.27364e-21 0.000176175)
(0.000131877 4.32543e-06 1.7393e-20 0.000169658 -4.65661e-22 0.00015184)
(0.00011409 1.93089e-06 -2.28889e-20 0.000147484 -1.06552e-20 0.000132017)
(9.9932e-05 -2.36598e-08 2.21009e-20 0.000129387 1.8301e-21 0.000116018)
(8.86006e-05 -1.72999e-06 2.96149e-20 0.000114422 6.4512e-21 0.000102979)
(7.93055e-05 -3.29763e-06 -2.07954e-21 0.000101517 2.71469e-21 9.19654e-05)
(7.0746e-05 -4.66721e-06 -5.55471e-20 8.88829e-05 4.25094e-23 8.14833e-05)
(6.22323e-05 -5.5389e-06 -2.06707e-20 7.58443e-05 -8.79529e-21 7.08404e-05)
(5.44418e-05 -5.81471e-06 -6.09465e-21 6.37392e-05 9.35768e-21 6.10006e-05)
(4.84278e-05 -5.72538e-06 2.25828e-20 5.39016e-05 2.76108e-22 5.32519e-05)
(4.46049e-05 -5.39901e-06 8.11203e-22 4.67027e-05 -1.83647e-22 4.79784e-05)
(4.35881e-05 -5.06785e-06 -1.29374e-21 4.27686e-05 1.09566e-22 4.582e-05)
(4.1295e-05 -4.09813e-06 1.36186e-20 3.83862e-05 6.51171e-23 4.24092e-05)
(5.18792e-05 -5.51734e-06 1.55367e-20 4.51424e-05 5.02666e-22 5.24763e-05)
(1.17322e-05 -3.1109e-07 -4.78922e-21 1.12333e-05 -2.65248e-22 1.17145e-05)
(8.56264e-05 -1.25549e-05 -5.55593e-19 6.25224e-05 -4.30875e-20 8.27875e-05)
(0.000445982 -0.000105507 -1.03125e-18 0.000237166 -1.26152e-19 0.000402831)
(0.000122816 -2.3444e-05 1.81356e-19 7.28663e-05 1.7871e-21 0.000108255)
(0.000437291 -8.72441e-05 -1.71148e-18 0.000205427 6.83627e-19 0.000347219)
(0.00126369 -0.000130192 -1.7854e-17 0.000503561 -1.49056e-17 0.000927623)
(0.00307336 0.000216758 5.63184e-17 0.00120767 4.0085e-18 0.00210766)
(0.0493548 0.019856 -2.91648e-16 0.0402626 5.27705e-17 0.0468837)
(0.000790204 -6.09099e-05 4.49887e-21 0.000651071 5.21918e-21 0.00072001)
(0.000782574 -7.17888e-05 -1.13093e-20 0.000664787 -1.35763e-20 0.000723113)
(0.000768179 -8.13543e-05 -9.11414e-22 0.000678815 -1.89134e-21 0.000722591)
(0.000749481 -8.79767e-05 -4.70698e-21 0.000692435 -2.46433e-21 0.000719888)
(0.000725338 -9.0863e-05 3.73636e-20 0.000702556 4.29741e-20 0.000712664)
(0.000696254 -8.98734e-05 2.86474e-20 0.000708954 2.36374e-20 0.00070092)
(0.000664254 -8.50391e-05 3.71122e-22 0.000710454 1.15436e-20 0.000685307)
(0.000629849 -7.67696e-05 7.10881e-20 0.000705413 6.88533e-20 0.000665146)
(0.000594099 -6.57703e-05 -8.87396e-21 0.000693628 -1.18263e-21 0.000640813)
(0.000558251 -5.3101e-05 -2.45513e-20 0.000675076 -1.15272e-20 0.000613024)
(0.000522678 -3.97076e-05 4.82319e-20 0.000649899 1.79971e-20 0.000581979)
(0.000487908 -2.64955e-05 -6.49326e-20 0.000619003 -2.51612e-20 0.000548408)
(0.000454314 -1.42833e-05 -1.14637e-19 0.000583556 -8.95895e-20 0.000513121)
(0.000421951 -3.56839e-06 -4.7897e-20 0.000544747 1.23491e-20 0.000476728)
(0.000390825 5.35499e-06 2.06754e-19 0.000503808 9.33509e-20 0.000439903)
(0.000359664 1.22679e-05 -1.49487e-19 0.000460322 -6.81222e-20 0.000401851)
(0.000326093 1.75963e-05 -3.59586e-20 0.000412151 3.12054e-20 0.000360817)
(0.000291826 2.13162e-05 6.72699e-20 0.000362086 4.38483e-20 0.000318997)
(0.000259726 2.3632e-05 -4.24971e-20 0.000314326 -3.29849e-22 0.000279828)
(0.000232488 2.4956e-05 -1.40729e-20 0.000272939 3.52658e-20 0.0002465)
(0.000210176 2.54252e-05 1.98934e-20 0.000237835 -1.2825e-20 0.000218956)
(0.000186278 2.32781e-05 -1.38383e-19 0.000201248 1.34912e-20 0.000190262)
(0.000130373 1.22817e-05 7.21979e-22 0.000133265 -1.19902e-20 0.000130566)
(3.62555e-05 9.5919e-07 -3.8755e-21 3.61201e-05 3.91544e-22 3.61304e-05)
(7.53152e-06 3.99638e-08 4.39415e-23 7.51318e-06 1.2885e-23 7.52089e-06)
(4.09413e-06 1.15366e-08 -4.10492e-24 4.08624e-06 -1.7373e-23 4.08982e-06)
(2.33717e-06 3.72491e-09 -2.84281e-25 2.33426e-06 -2.69015e-26 2.3356e-06)
(2.9198e-07 5.61354e-11 9.69443e-27 2.91937e-07 2.51992e-28 2.91957e-07)
(0 0 0 0 0 0)
(0 0 0 0 0 0)
(0.00089752 0.00024268 -7.30929e-20 0.000742944 1.50941e-19 0.000818125)
(0.0246373 0.0092496 -3.13057e-17 0.018635 1.01924e-17 0.0215619)