/*--------------------------------*- C++ -*----------------------------------*\
| =========                 |                                                 |
| \\      /  F ield         | OpenFOAM: The Open Source CFD Toolbox           |
|  \\    /   O peration     | Version:  2306                                  |
|   \\  /    A nd           | Website:  www.openfoam.com                      |
|    \\/     M anipulation  |                                                 |
\*---------------------------------------------------------------------------*/
FoamFile
{
    version     2.0;
    format      ascii;
    arch        "LSB;label=32;scalar=64";
    class       volScalarField;
    location    "225";
    object      turbulenceProperties:I;
}
// * * * * * * * * * * * * * * * * * * * * * * * * * * * * * * * * * * * * * //

dimensions      [0 0 0 0 0 0 0];

internalField   nonuniform List<scalar> 
10720
(
0.00417381
0.00414847
0.00416828
0.00429635
0.00445933
0.0046883
0.00500087
0.00538608
0.00586302
0.00645044
0.00716782
0.00805736
0.00917923
0.0106166
0.0125115
0.0150629
0.0186529
0.0237713
0.0318774
0.0442429
0.0687269
0.110628
0.223209
0.413233
0.500372
0.462298
0.405438
0.364341
0.337755
0.320847
0.309887
0.30229
0.297925
0.295868
0.295918
0.298142
0.306227
0.318443
0.51597
0.00422577
0.0043835
0.00456545
0.00498924
0.00569494
0.00706155
0.010226
0.0170326
0.0133947
0.00871175
0.00731002
0.00705796
0.0073116
0.0078701
0.00865734
0.00966768
0.010941
0.0125714
0.0147039
0.0175412
0.0214186
0.0267395
0.0344396
0.0454012
0.0627884
0.0885392
0.131167
0.186991
0.221613
0.234726
0.238651
0.240302
0.241526
0.242574
0.243559
0.244671
0.246113
0.249538
0.256035
0.00181989
0.00166646
0.0015286
0.00139852
0.00127772
0.00116936
0.00107008
0.000978564
0.000897397
0.000824677
0.000759756
0.000711452
0.000691776
0.000710477
0.000793665
0.000976251
0.00132201
0.00189031
0.00291693
0.0046102
0.00803986
0.0139763
0.0259198
0.0509762
0.078941
0.106636
0.134138
0.15815
0.172717
0.175283
0.169291
0.160154
0.151906
0.146034
0.143189
0.143537
0.152507
0.165184
0.32162
0.001986
0.00219391
0.00247364
0.00287306
0.00347078
0.00440899
0.00584821
0.00715897
0.00636398
0.00445102
0.00312693
0.00233669
0.00183396
0.00148741
0.0012335
0.00103892
0.000883454
0.000755437
0.000644449
0.000542355
0.000438215
0.000325046
0.000185046
7.2303e-05
0.000115514
0.001302
0.00296876
0.00832359
0.0151441
0.0211039
0.0258021
0.0294128
0.032274
0.0347601
0.03713
0.03962
0.0424872
0.0476842
0.0612768
0.00158008
0.00145585
0.00133414
0.00121968
0.00112123
0.00103392
0.00095833
0.000895762
0.000844762
0.000804797
0.000773847
0.000752105
0.000738732
0.000733464
0.00072935
0.000715752
0.000662467
0.000573026
9.55434e-05
0.000590103
0.00208393
0.00141879
0.000792591
0.00289178
0.00782174
0.014768
0.0245459
0.0388507
0.0583054
0.0811028
0.103227
0.120036
0.12914
0.132438
0.133762
0.135501
0.142736
0.150537
0.251043
0.00172403
0.00189514
0.00213146
0.00244676
0.00287143
0.00342767
0.00405931
0.00446288
0.00423865
0.00348891
0.00271468
0.00211746
0.00168226
0.00136107
0.00112034
0.000936242
0.000794829
0.000686029
0.000603444
0.0005406
0.000493482
0.000458765
0.000434389
0.00041658
0.000406083
0.000396707
0.000402579
0.00030616
0.000800538
0.00203365
0.00340762
0.00492026
0.00736296
0.0106798
0.0143158
0.017922
0.0214354
0.0239847
0.0337864
0.00149122
0.00138754
0.00128768
0.00119686
0.00111366
0.00103627
0.000965777
0.000900781
0.000841131
0.00078612
0.000735147
0.000687396
0.000642013
0.000598476
0.00055605
0.00051263
0.0004687
0.00042804
0.000382563
0.00032336
9.88156e-05
0.000526727
0.000849165
0.00163164
0.00285176
0.00396972
0.00482426
0.000761643
0.00324048
0.0115583
0.0260178
0.0462953
0.069218
0.0899801
0.105546
0.116599
0.128657
0.140268
0.211556
0.00160116
0.0017294
0.00189251
0.00210722
0.00237452
0.00268624
0.00299174
0.00316755
0.00307788
0.00272621
0.00228597
0.00188971
0.00157194
0.00132456
0.00113241
0.000981434
0.000861969
0.000766505
0.000689772
0.000626848
0.000574797
0.000530628
0.00049164
0.000453864
0.000417697
0.000387775
0.000364682
0.000347577
0.000328524
0.000305724
0.000262331
0.000208342
0.000578594
0.000760779
0.00146228
0.00340867
0.00627555
0.0101841
0.0207489
0.00131532
0.00123
0.00114607
0.00106673
0.000993533
0.000924479
0.000860678
0.000802168
0.000748489
0.000700132
0.000656922
0.000618847
0.00058612
0.00055876
0.000536724
0.00051921
0.000502949
0.000484971
0.000464427
0.000434999
0.000368731
0.00016926
8.23117e-05
4.06641e-05
0
0
0
0.00053026
0.00298507
0.00578444
0.00179691
0.00519903
0.0118852
0.0320381
0.0566632
0.0807742
0.103054
0.122913
0.179663
0.00140653
0.00151007
0.00163848
0.00179642
0.00197731
0.00216799
0.00233678
0.00242841
0.00238602
0.00220199
0.0019418
0.00167426
0.00143375
0.00122898
0.00105831
0.000916817
0.000799684
0.000702828
0.000622948
0.000556862
0.000502161
0.000456399
0.000417186
0.000380874
0.000345627
0.000313406
0.000287078
0.000267923
0.000258232
0.000246279
0.000271181
0.0001303
0.00033625
0.000730875
0.000388563
0.000706537
0.00118164
0.00185041
0.00904189
0.00119726
0.00112962
0.00106184
0.000997857
0.000938452
0.000881987
0.000829484
0.00078068
0.000735162
0.000692897
0.000653482
0.000616672
0.000582327
0.000550206
0.000520124
0.000491055
0.000461157
0.000431158
0.000402792
0.000378153
0.000357348
0.000334568
0.000278703
0.000147961
6.85794e-05
5.16287e-05
3.99403e-05
1.44609e-05
0
0
0.000817767
0.00427839
0.00494719
0.00801431
0.00991106
0.0341514
0.064921
0.0963969
0.148898
0.00126728
0.00134476
0.00143856
0.00155082
0.00167285
0.00179438
0.00189705
0.00195142
0.00192847
0.00182227
0.0016606
0.00147925
0.00130297
0.00114355
0.00100475
0.000886239
0.000786099
0.000702018
0.000631646
0.000572591
0.0005227
0.00047977
0.000441612
0.00040545
0.000369968
0.000336894
0.000307771
0.000282819
0.000261374
0.000243103
0.000227099
0.000212195
0.000189223
0.000159642
0.000120401
0.000256134
0.000490024
0.000886209
0.00305533
0.00107755
0.00102263
0.000966703
0.000912994
0.00086273
0.000814191
0.000768375
0.000725334
0.000684653
0.000646464
0.000610627
0.000577025
0.000545739
0.000516811
0.000490233
0.000466238
0.000445422
0.000427034
0.000409394
0.000391619
0.000374981
0.000359449
0.000347265
0.00032371
0.000278563
0.00021968
0.000156675
5.17082e-05
4.65067e-05
2.51713e-05
0
0
0.00194473
0.00447565
0.00364222
0.00943747
0.0236276
0.0615418
0.115522
0.00113367
0.00119439
0.00126625
0.00134914
0.00143495
0.00151685
0.00158438
0.00161939
0.00160564
0.00154014
0.00143557
0.0013107
0.0011812
0.00105698
0.000943135
0.000841515
0.000752179
0.000674499
0.000607428
0.0005496
0.000499664
0.000456113
0.000417261
0.000380937
0.000345824
0.000312903
0.000283484
0.000257929
0.000235875
0.000217276
0.000202823
0.000193186
0.000187759
0.000180477
0.000153841
8.42706e-05
3.61066e-05
0
0.0014144
0.000977527
0.00093352
0.00088803
0.000843944
0.000802501
0.000762135
0.000723868
0.000687745
0.000653409
0.000620991
0.000590277
0.000561154
0.000533599
0.000507524
0.000482861
0.000459619
0.000437292
0.000415073
0.00039342
0.000373258
0.000355545
0.000341129
0.000331414
0.000324988
0.000315785
0.000296562
0.000269474
0.000233087
0.000190773
0.000100935
4.6344e-05
1.48284e-05
0
0
0.00141462
0.00205275
0.00872295
0.0268837
0.0795461
0.00102169
0.00106868
0.00112346
0.00118516
0.00124695
0.00130433
0.00135114
0.00137502
0.0013663
0.00132376
0.00125342
0.00116567
0.0010702
0.000974237
0.000882557
0.000797789
0.000721019
0.000652645
0.00059242
0.000539646
0.00049338
0.000452485
0.000415594
0.000381026
0.000347775
0.000316548
0.000288318
0.000263263
0.000240879
0.000220727
0.000202718
0.000186614
0.000172167
0.000159107
0.000149369
0.000137486
0.000118868
4.17829e-05
0
0.000887844
0.000852156
0.000814764
0.000778089
0.000743435
0.000709333
0.000676707
0.000645659
0.000615872
0.000587459
0.000560292
0.000534263
0.000509389
0.000485639
0.000463041
0.000441579
0.000421328
0.00040262
0.000385305
0.00036915
0.000354162
0.000340797
0.000329448
0.000319899
0.000310697
0.000299855
0.000286575
0.000272952
0.000258529
0.000231475
0.000198863
6.67789e-05
3.36687e-05
0
0
0.00066317
0.00476346
0.0101846
0.0461451
0.000923198
0.000960226
0.00100284
0.0010497
0.00109543
0.00113716
0.00117087
0.00118785
0.00118214
0.00115331
0.00110451
0.00104164
0.00097069
0.000896596
0.000823139
0.000752798
0.000687062
0.000626757
0.000572165
0.000523154
0.00047927
0.000439782
0.000403707
0.00036986
0.000337488
0.000307006
0.000279243
0.000254466
0.000232356
0.000212614
0.000195258
0.000180604
0.000169014
0.00016082
0.000156397
0.000158261
0.000166162
0.00017577
3.72654e-05
0.000809595
0.000780626
0.000749924
0.000719542
0.000690686
0.000662099
0.000634591
0.000608285
0.00058292
0.000558603
0.000535205
0.000512637
0.00049091
0.000469987
0.000449868
0.000430554
0.000412108
0.000394311
0.000377022
0.000360612
0.000345649
0.000332628
0.000321665
0.000311884
0.000301629
0.000289948
0.000277398
0.000266188
0.000257998
0.000251575
0.000246031
0.000223034
0.000146712
4.60323e-05
0
0
0.00020722
0.00276909
0.02268
0.000837923
0.000867261
0.00090069
0.000936757
0.000971294
0.00100257
0.00102754
0.00103995
0.00103615
0.00101596
0.000981155
0.000935293
0.000882048
0.000824693
0.000766063
0.000708217
0.000652582
0.000600217
0.000551667
0.000507141
0.000466534
0.000429431
0.000395169
0.000362943
0.000332182
0.000303198
0.000276648
0.000252765
0.000231273
0.000211853
0.000194407
0.000178963
0.000165486
0.000154469
0.000146301
0.00014541
0.000146094
0.000193206
0.000137273
0.000740415
0.000716749
0.000691399
0.000666101
0.000641965
0.000617888
0.000594552
0.000572145
0.000550393
0.000529413
0.000509085
0.000489323
0.000470132
0.000451479
0.000433382
0.000415877
0.000398985
0.000382804
0.000367434
0.000352952
0.00033959
0.000327549
0.00031692
0.000307137
0.000296854
0.000285048
0.000272149
0.000259987
0.000250266
0.000243752
0.000239604
0.000240887
0.000232832
0.000191411
4.87123e-05
0
0
0.00182126
0.0116276
0.000763294
0.000786769
0.00081334
0.000841496
0.00086804
0.000892044
0.000910942
0.000920227
0.000917665
0.000903158
0.000877741
0.00084368
0.000803316
0.000758784
0.000712043
0.000664681
0.000617911
0.000572728
0.000529827
0.000489592
0.000452128
0.000417293
0.0003847
0.00035384
0.00032437
0.000296539
0.000270862
0.000247583
0.000226537
0.0002075
0.00019044
0.000175497
0.000162887
0.000153127
0.000146495
0.000146513
0.000147842
0.000179156
0.000207346
0.000679267
0.000659871
0.000638884
0.00061778
0.000597593
0.000577321
0.000557588
0.000538556
0.000519994
0.000502013
0.000484506
0.000467383
0.000450647
0.000434268
0.000418255
0.000402637
0.000387457
0.000372803
0.000358621
0.000345004
0.000332306
0.000320801
0.00031054
0.000301062
0.000291294
0.000280301
0.000268248
0.000256494
0.000246396
0.000238499
0.000232239
0.000229579
0.000231427
0.000236106
0.00019564
4.63425e-05
0
0.000832494
0.00687462
0.000697849
0.000716738
0.000738061
0.000760307
0.00078102
0.000799745
0.000814312
0.000821395
0.000819635
0.000808948
0.000790021
0.000764344
0.00073343
0.000698634
0.000661348
0.000622698
0.000583603
0.00054494
0.000507357
0.000471352
0.00043719
0.0004049
0.000374279
0.000345051
0.000317096
0.000290623
0.000266054
0.000243621
0.000223226
0.000204689
0.00018796
0.000173138
0.000160323
0.00014997
0.000142562
0.000141298
0.000143632
0.000165383
0.000215877
0.000624923
0.000608959
0.000591524
0.000573874
0.000556944
0.00053984
0.000523132
0.000506959
0.000491113
0.000475691
0.000460602
0.000445766
0.000431167
0.000416772
0.000402592
0.00038866
0.000375006
0.00036174
0.000348906
0.000336578
0.000324969
0.000314282
0.000304523
0.00029535
0.000285978
0.000275675
0.00026452
0.000253559
0.000243929
0.000235968
0.000229343
0.000224092
0.000221765
0.000225019
0.000239298
0.000182037
9.40279e-06
0.000459377
0.00392655
0.000640106
0.000655405
0.000672645
0.000690416
0.000706791
0.000721588
0.000732975
0.000738458
0.000737214
0.000729198
0.000714854
0.000695203
0.000671268
0.000643944
0.000614119
0.000582593
0.000550041
0.000517151
0.000484484
0.000452515
0.000421577
0.000391815
0.000363195
0.000335638
0.000309161
0.000283989
0.000260468
0.000238827
0.000219031
0.000200959
0.000184591
0.000170054
0.000157517
0.000147435
0.00014029
0.000138774
0.000141221
0.000158645
0.000206145
0.000576456
0.000563264
0.000548744
0.000533954
0.000519741
0.000505315
0.000491166
0.000477431
0.000463925
0.000450735
0.000437775
0.000424964
0.000412301
0.000399743
0.000387289
0.000374964
0.000362797
0.000350896
0.000339299
0.000328042
0.000317301
0.000307307
0.000298066
0.000289303
0.000280406
0.000270787
0.000260481
0.000250313
0.000241269
0.000233682
0.000227366
0.000222107
0.000218202
0.000216726
0.000221323
0.000255091
1.85357e-05
0.000136673
0.0019199
0.000588899
0.000601367
0.000615387
0.000629711
0.000642805
0.000654604
0.000663584
0.000667904
0.000666994
0.000660856
0.00064981
0.000634583
0.000615875
0.000594255
0.000570341
0.000544633
0.000517586
0.000489725
0.000461502
0.000433325
0.000405518
0.000378304
0.000351762
0.000325967
0.000301041
0.000277219
0.000254815
0.000234044
0.000214921
0.000197374
0.000181398
0.00016712
0.000154681
0.000144509
0.000137091
0.00013504
0.00013699
0.000152659
0.000194969
0.00053304
0.000522098
0.000509985
0.000497562
0.000485614
0.000473444
0.000461456
0.000449794
0.000438294
0.000427025
0.000415919
0.000404893
0.000393938
0.000383009
0.000372093
0.000361224
0.000350429
0.00033978
0.000329359
0.000319199
0.000309389
0.000300156
0.0002915
0.000283202
0.000274802
0.000265837
0.000256308
0.000246862
0.000238346
0.000231123
0.0002251
0.000220236
0.000216401
0.000214903
0.000210327
0.00024226
0.000187486
1.34906e-05
0.000364296
0.000543259
0.000553469
0.000564936
0.000576557
0.00058712
0.000596592
0.00060374
0.000607167
0.00060648
0.000601696
0.000593075
0.000581116
0.000566342
0.000549127
0.000529859
0.000508873
0.000486443
0.000462919
0.000438639
0.000413938
0.000389125
0.000364434
0.000339999
0.000315962
0.000292566
0.00027009
0.000248808
0.00022892
0.00021048
0.000193464
0.000177888
0.000163888
0.00015162
0.000141506
0.000134014
0.00013159
0.000133061
0.000146848
0.000184703
0.000493981
0.000484893
0.000474767
0.000464318
0.000454278
0.000444004
0.000433856
0.000423968
0.000414191
0.000404587
0.000395094
0.000385624
0.000376174
0.000366702
0.000357196
0.000347669
0.000338147
0.000328678
0.000319367
0.000310221
0.000301291
0.000292783
0.000284721
0.000276936
0.000269063
0.000260741
0.000251956
0.000243214
0.000235219
0.000228345
0.000222567
0.000217943
0.00021436
0.000213103
0.000210079
0.000217171
0.000251528
1.89517e-05
8.47451e-05
0.000502404
0.000510777
0.000520205
0.000529683
0.000538268
0.000545911
0.000551626
0.000554357
0.000553806
0.00055002
0.00054318
0.0005337
0.000521928
0.000508111
0.000492524
0.000475337
0.000456728
0.000436909
0.000416108
0.000394574
0.000372557
0.000350286
0.000327922
0.000305678
0.000283844
0.000262725
0.000242578
0.000223601
0.000205876
0.000189418
0.000174261
0.000160547
0.000148427
0.000138305
0.000130636
0.000127746
0.000128745
0.000140819
0.000174966
0.000458704
0.000451152
0.00044267
0.000433883
0.000425442
0.000416772
0.00040819
0.000399819
0.000391515
0.000383342
0.000375242
0.000367139
0.000359022
0.00035085
0.000342604
0.000334289
0.000325925
0.00031755
0.000309265
0.000301079
0.000293017
0.000285238
0.000277791
0.000270549
0.000263225
0.000255532
0.000247455
0.000239387
0.000231913
0.000225397
0.000219868
0.000215395
0.000212043
0.00021033
0.000210773
0.000204792
0.000257127
5.05467e-05
1.6265e-06
0.00046567
0.000472554
0.000480318
0.000488085
0.000495098
0.000501283
0.000505868
0.000508047
0.000507583
0.000504528
0.000499036
0.000491426
0.000481946
0.000470784
0.0004581
0.000443995
0.00042854
0.000411865
0.000394094
0.000375402
0.000355976
0.000336
0.000315646
0.00029516
0.000274876
0.000255099
0.00023609
0.000218039
0.000201047
0.000185163
0.000170437
0.000157016
0.000145053
0.000134942
0.000127118
0.000123777
0.000124313
0.000134791
0.00016551
0.000426734
0.000420451
0.000413341
0.000405956
0.000398857
0.000391552
0.000384302
0.000377225
0.000370191
0.000363259
0.000356371
0.000349464
0.000342516
0.000335486
0.000328364
0.000321141
0.000313837
0.000306473
0.000299139
0.000291852
0.00028462
0.000277547
0.000270716
0.000264035
0.00025727
0.000250195
0.000242794
0.000235375
0.000228421
0.000222275
0.000217015
0.000212694
0.00020952
0.000207451
0.000208871
0.000203034
0.000235623
0.00017127
2.76891e-05
0.000432497
0.000438166
0.000444572
0.000450952
0.000456705
0.000461715
0.000465398
0.000467126
0.000466709
0.000464196
0.000459733
0.000453552
0.000445857
0.000436763
0.000426384
0.00041476
0.000401902
0.000387872
0.00037272
0.000356542
0.000339474
0.000321666
0.00030326
0.000284484
0.000265695
0.000247248
0.000229379
0.000212266
0.000196026
0.000180731
0.000166451
0.000153328
0.000141522
0.000131404
0.000123396
0.000119579
0.000119652
0.000128747
0.000156299
0.000397661
0.000392426
0.000386477
0.000380265
0.00037431
0.000368161
0.000362055
0.000356083
0.000350142
0.000344277
0.000338439
0.000332562
0.000326641
0.000320619
0.000314498
0.000308259
0.000301912
0.000295479
0.00028902
0.000282571
0.000276122
0.000269736
0.000263519
0.000257406
0.000251205
0.00024473
0.000237973
0.000231176
0.000224737
0.000218968
0.000213987
0.000209851
0.000206786
0.000204724
0.000205377
0.000203794
0.000214787
0.000222659
9.74336e-05
0.000402424
0.000407091
0.000412381
0.000417637
0.000422353
0.000426416
0.000429369
0.00043073
0.000430331
0.000428233
0.000424553
0.000419474
0.00041317
0.000405701
0.000397154
0.000387536
0.000376815
0.000364996
0.000352089
0.000338131
0.000323187
0.000307361
0.000290774
0.000273658
0.00025636
0.000239219
0.000222473
0.000206295
0.000190814
0.000176119
0.000162291
0.000149471
0.000137822
0.000127694
0.000119491
0.000115192
0.000114801
0.000122686
0.000147335
0.000371132
0.000366776
0.000361802
0.000356586
0.000351599
0.00034644
0.000341304
0.000336285
0.000331282
0.000326337
0.000321407
0.000316435
0.00031141
0.000306289
0.000301048
0.00029569
0.000290205
0.000284614
0.000278952
0.000273275
0.000267566
0.000261846
0.000256227
0.000250677
0.000245031
0.000239141
0.000232999
0.000226797
0.000220862
0.000215477
0.000210778
0.000206846
0.000203857
0.00020195
0.000201647
0.000202892
0.000203613
0.000225301
0.000172228
0.000375065
0.0003789
0.00038327
0.000387606
0.000391459
0.000394753
0.000397115
0.000398164
0.000397766
0.00039598
0.000392903
0.00038869
0.00038347
0.000377294
0.000370213
0.000362211
0.000353243
0.000343277
0.000332277
0.000320242
0.0003072
0.000293201
0.000278322
0.000262778
0.000246906
0.000231031
0.000215387
0.000200142
0.000185425
0.000171338
0.000157972
0.000145458
0.000133966
0.000123816
0.0001154
0.000110605
0.000109748
0.00011662
0.000138669
0.000346853
0.000343239
0.000339085
0.000334716
0.000330551
0.000326236
0.000321932
0.000317729
0.000313534
0.000309384
0.000305243
0.000301056
0.000296811
0.000292474
0.000288014
0.000283435
0.000278724
0.000273893
0.000268966
0.000264008
0.000258988
0.000253904
0.000248866
0.000243865
0.000238764
0.000233438
0.00022788
0.000222246
0.000216802
0.000211802
0.000207389
0.000203667
0.00020076
0.00019896
0.000198126
0.000200001
0.000198942
0.000212928
0.000204536
0.000350093
0.000353235
0.000356842
0.000360419
0.000363556
0.000366212
0.000368091
0.000368883
0.000368475
0.000366927
0.000364314
0.000360776
0.000356412
0.000351267
0.000345359
0.000338666
0.00033113
0.000322706
0.000313332
0.000302968
0.000291597
0.000279245
0.000265955
0.000251896
0.000237374
0.000222719
0.000208154
0.000193831
0.000179878
0.000166401
0.000153498
0.000141294
0.000129955
0.000119772
0.000111125
0.000105821
0.000104497
0.000110532
0.000130289
0.00032457
0.000321579
0.000318126
0.000314473
0.000311014
0.000307418
0.000303828
0.000300327
0.000296827
0.000293364
0.000289902
0.000286395
0.000282834
0.00027918
0.000275415
0.000271523
0.000267506
0.000263363
0.000259108
0.0002548
0.000250413
0.000245931
0.000241451
0.000236979
0.000232408
0.000227624
0.000222623
0.000217528
0.000212561
0.000207942
0.000203819
0.000200307
0.000197505
0.000195733
0.000194718
0.000196078
0.000196059
0.000201125
0.000208656
0.000327234
0.000329791
0.000332762
0.000335706
0.000338251
0.000340381
0.000341859
0.000342432
0.000342005
0.000340633
0.000338393
0.000335389
0.000331703
0.000327376
0.000322406
0.000316779
0.000310423
0.000303278
0.000295273
0.000286345
0.000276452
0.000265574
0.000253727
0.000241047
0.000227816
0.000214335
0.000200812
0.00018739
0.00017419
0.000161322
0.000148883
0.00013699
0.0001258
0.000115571
0.000106673
0.000100841
9.90558e-05
0.00010443
0.000122212
0.000304067
0.000301605
0.000298743
0.000295704
0.000292847
0.000289866
0.000286891
0.00028399
0.000281092
0.000278221
0.00027535
0.000272435
0.000269469
0.000266414
0.000263256
0.000259973
0.00025657
0.000253042
0.000249391
0.000245674
0.000241869
0.000237956
0.000234005
0.00023004
0.000225977
0.00022171
0.000217234
0.000212652
0.000208145
0.000203903
0.000200069
0.000196765
0.000194081
0.000192298
0.000191235
0.000191864
0.000192705
0.000193012
0.000201883
0.000306247
0.000308317
0.000310754
0.000313165
0.000315215
0.00031691
0.000318051
0.000318439
0.00031799
0.000316756
0.000314802
0.000312218
0.000309079
0.000305403
0.000301204
0.000296436
0.000291045
0.000284966
0.000278114
0.000270415
0.000261808
0.000252246
0.000241711
0.000230309
0.000218284
0.000205918
0.000193391
0.000180843
0.000168385
0.000156122
0.000144147
0.000132565
0.00012152
0.000111232
0.000102059
9.56743e-05
9.34195e-05
9.8314e-05
0.000114456
0.000285159
0.000283143
0.000280784
0.000278273
0.000275925
0.000273474
0.000271025
0.000268644
0.000266259
0.000263901
0.000261539
0.000259138
0.000256686
0.000254155
0.000251528
0.000248786
0.000245927
0.000242947
0.000239844
0.000236662
0.00023339
0.000230007
0.000226552
0.000223069
0.000219485
0.000215706
0.000211725
0.000207628
0.00020356
0.000199688
0.000196143
0.000193046
0.000190485
0.000188688
0.000187572
0.000187623
0.000188532
0.000187176
0.000192982
0.000286927
0.000288595
0.00029058
0.000292545
0.00029418
0.00029551
0.00029637
0.000296597
0.000296122
0.000294992
0.000293269
0.000291025
0.000288322
0.000285171
0.000281587
0.00027752
0.000272925
0.000267732
0.000261852
0.000255206
0.000247718
0.000239318
0.000229964
0.000219728
0.000208821
0.000197495
0.000185926
0.000174223
0.00016249
0.000150825
0.000139312
0.000128039
0.000117136
0.00010678
9.73033e-05
9.03289e-05
8.75956e-05
9.21741e-05
0.000107008
0.000267683
0.000266045
0.000264113
0.000262057
0.000260144
0.000258147
0.000256151
0.000254214
0.000252276
0.000250358
0.000248437
0.00024648
0.000244477
0.000242403
0.000240237
0.000237971
0.000235591
0.0002331
0.000230489
0.000227787
0.000225003
0.000222103
0.000219109
0.000216074
0.000212944
0.000209626
0.000206112
0.00020247
0.000198821
0.000195304
0.000192043
0.000189153
0.000186715
0.000184916
0.000183718
0.000183368
0.000183855
0.000182046
0.000184694
0.000269103
0.000270433
0.000272036
0.000273626
0.000274913
0.000275934
0.000276559
0.000276651
0.00027615
0.000275102
0.000273559
0.000271584
0.000269226
0.000266508
0.000263424
0.000259934
0.000255994
0.000251536
0.000246476
0.000240722
0.000234195
0.000226814
0.000218518
0.000209345
0.000199476
0.000189126
0.00017846
0.000167566
0.000156537
0.000145456
0.000134399
0.000123436
0.000112671
0.000102235
9.24238e-05
8.48082e-05
8.15745e-05
8.60271e-05
9.98921e-05
0.000251496
0.000250181
0.000248615
0.000246943
0.000245406
0.000243796
0.00024219
0.000240635
0.000239082
0.000237544
0.000236005
0.000234431
0.000232817
0.000231138
0.000229377
0.000227528
0.00022557
0.00022351
0.000221338
0.000219068
0.000216721
0.000214266
0.000211699
0.000209085
0.000206375
0.000203486
0.000200404
0.000197188
0.000193936
0.000190762
0.000187778
0.00018509
0.000182776
0.00018098
0.000179689
0.00017903
0.000178963
0.00017691
0.000177267
0.000252626
0.000253668
0.000254946
0.000256221
0.000257217
0.000257977
0.000258406
0.000258381
0.000257854
0.000256868
0.000255472
0.000253715
0.000251641
0.000249269
0.000246591
0.000243582
0.00024018
0.00023633
0.000231955
0.000226963
0.000221267
0.000214775
0.000207413
0.000199197
0.000190275
0.00018084
0.000171021
0.0001609
0.00015055
0.000140041
0.000129436
0.000118782
0.000108152
9.76285e-05
8.74504e-05
7.9123e-05
7.53485e-05
7.98771e-05
9.31094e-05
0.000236475
0.000235435
0.000234183
0.00023284
0.000231623
0.000230347
0.000229073
0.000227849
0.000226626
0.000225417
0.000224205
0.000222963
0.000221686
0.00022035
0.000218943
0.000217454
0.000215869
0.000214187
0.000212404
0.000210522
0.000208567
0.000206512
0.00020434
0.000202111
0.000199791
0.000197298
0.000194618
0.000191798
0.000188918
0.000186072
0.000183356
0.000180865
0.000178674
0.000176892
0.000175502
0.00017458
0.000173998
0.000171638
0.000170401
0.00023736
0.000238161
0.000239164
0.000240171
0.000240922
0.000241462
0.000241726
0.000241603
0.000241054
0.000240116
0.000238836
0.000237257
0.000235415
0.000233327
0.000230982
0.000228363
0.000225405
0.000222067
0.000218267
0.000213919
0.000208938
0.000203226
0.000196692
0.000189339
0.000181281
0.000172685
0.000163659
0.000154269
0.000144569
0.000134618
0.000124457
0.000114112
0.00010362
9.30064e-05
8.24277e-05
7.32911e-05
6.89019e-05
7.37431e-05
8.66815e-05
0.000222514
0.000221707
0.000220724
0.00021966
0.000218719
0.00021773
0.000216741
0.000215801
0.00021486
0.000213935
0.000213005
0.000212049
0.000211061
0.000210023
0.000208921
0.000207745
0.000206486
0.000205136
0.000203698
0.000202163
0.00020056
0.000198862
0.00019705
0.000195172
0.000193206
0.000191079
0.000188768
0.000186315
0.000183782
0.000181244
0.000178786
0.000176489
0.000174413
0.000172656
0.000171178
0.000170019
0.000168991
0.00016629
0.000163888
0.000223189
0.000223789
0.00022456
0.000225339
0.000225884
0.000226243
0.000226365
0.000226159
0.000225589
0.00022469
0.000223504
0.000222069
0.000220417
0.000218561
0.000216496
0.000214195
0.00021161
0.000208696
0.000205382
0.000201583
0.000197213
0.000192176
0.000186373
0.000179789
0.000172514
0.000164688
0.0001564
0.000147698
0.000138623
0.000129214
0.000119493
0.000109462
9.91202e-05
8.84225e-05
7.74153e-05
6.73392e-05
6.22011e-05
6.76486e-05
8.06227e-05
0.000209515
0.000208907
0.000208152
0.00020733
0.000206622
0.000205877
0.000205135
0.000204438
0.00020374
0.000203056
0.00020237
0.000201659
0.000200922
0.000200141
0.000199304
0.000198402
0.000197427
0.000196367
0.000195229
0.000194002
0.000192711
0.000191332
0.000189842
0.000188285
0.000186641
0.000184843
0.000182871
0.000180755
0.000178542
0.000176294
0.00017408
0.000171969
0.000170012
0.000168276
0.000166728
0.000165348
0.000163939
0.000160917
0.00015763
0.000210012
0.000210444
0.00021102
0.000211603
0.000211976
0.000212184
0.000212187
0.000211912
0.000211323
0.000210457
0.00020935
0.000208034
0.000206539
0.000204872
0.000203039
0.000201002
0.000198732
0.000196174
0.000193267
0.000189934
0.00018609
0.000181636
0.000176475
0.000170575
0.000164005
0.000156885
0.000149282
0.000141229
0.00013275
0.000123866
0.000114583
0.000104874
9.46985e-05
8.39355e-05
7.24874e-05
6.1309e-05
5.51904e-05
6.1647e-05
7.49643e-05
0.000197394
0.000196956
0.000196394
0.000195779
0.000195272
0.000194735
0.000194205
0.000193714
0.000193226
0.000192749
0.000192272
0.000191773
0.000191251
0.00019069
0.000190081
0.000189413
0.000188683
0.00018788
0.000187003
0.000186047
0.000185029
0.000183932
0.000182731
0.000181462
0.000180108
0.000178609
0.000176944
0.000175133
0.000173215
0.000171237
0.000169252
0.000167319
0.000165476
0.000163771
0.000162161
0.000160592
0.000158856
0.000155567
0.000151609
0.000197741
0.000198031
0.000198445
0.00019886
0.00019909
0.000199172
0.000199077
0.000198743
0.00019814
0.0001973
0.000196258
0.000195044
0.00019368
0.000192174
0.000190528
0.000188715
0.000186707
0.000184447
0.000181886
0.000178949
0.000175556
0.000171608
0.000167009
0.000161718
0.000155786
0.000149307
0.000142337
0.000134891
0.00012698
0.000118607
0.000109761
0.000100388
9.04051e-05
7.96181e-05
6.7749e-05
5.52835e-05
4.77683e-05
5.58324e-05
6.97533e-05
0.000186076
0.000185782
0.000185386
0.000184946
0.00018461
0.000184252
0.000183901
0.000183588
0.000183279
0.00018298
0.000182681
0.000182363
0.000182024
0.000181652
0.000181238
0.000180775
0.000180256
0.000179673
0.000179022
0.000178304
0.000177527
0.000176679
0.000175735
0.000174721
0.000173624
0.000172392
0.000171003
0.000169469
0.000167819
0.000166088
0.000164318
0.000162554
0.000160821
0.000159152
0.000157493
0.00015577
0.000153753
0.000150243
0.000145806
0.000186297
0.000186468
0.000186745
0.000187021
0.00018713
0.000187108
0.000186932
0.000186549
0.000185936
0.00018512
0.000184136
0.000183003
0.000181749
0.000180382
0.000178894
0.000177272
0.000175475
0.000173473
0.000171204
0.000168605
0.000165598
0.000162092
0.000157985
0.000153232
0.000147873
0.000141979
0.000135594
0.000128718
0.000121348
0.000113473
0.000105064
9.60471e-05
8.62987e-05
7.55537e-05
6.33367e-05
4.94321e-05
3.97221e-05
5.0382e-05
6.50477e-05
0.000175495
0.000175323
0.000175066
0.000174777
0.000174585
0.000174379
0.000174182
0.00017402
0.000173863
0.000173715
0.000173567
0.000173404
0.000173222
0.000173012
0.000172765
0.000172476
0.000172137
0.000171745
0.000171292
0.000170779
0.000170213
0.000169582
0.000168863
0.000168074
0.000167205
0.00016621
0.000165065
0.000163779
0.000162372
0.000160867
0.000159295
0.000157687
0.000156063
0.000154432
0.000152739
0.000150887
0.000148649
0.000144976
0.000140206
0.00017561
0.000175682
0.000175845
0.000176003
0.000176013
0.000175904
0.000175662
0.000175242
0.000174622
0.000173828
0.000172891
0.000171833
0.000170673
0.000169419
0.000168067
0.000166603
0.000164993
0.000163209
0.000161186
0.000158876
0.000156204
0.00015308
0.000149406
0.000145133
0.000140286
0.000134926
0.000129079
0.000122736
0.000115882
0.000108496
0.00010053
9.18935e-05
8.24331e-05
7.18275e-05
5.94214e-05
4.41169e-05
3.06055e-05
4.56e-05
6.09191e-05
0.000165592
0.000165521
0.000165383
0.000165221
0.000165152
0.000165075
0.000165008
0.000164975
0.000164947
0.000164927
0.000164909
0.000164875
0.000164827