/*--------------------------------*- C++ -*----------------------------------*\
| =========                 |                                                 |
| \\      /  F ield         | OpenFOAM: The Open Source CFD Toolbox           |
|  \\    /   O peration     | Version:  2306                                  |
|   \\  /    A nd           | Website:  www.openfoam.com                      |
|    \\/     M anipulation  |                                                 |
\*---------------------------------------------------------------------------*/
FoamFile
{
    version     2.0;
    format      ascii;
    arch        "LSB;label=32;scalar=64";
    class       volScalarField;
    location    "225";
    object      turbulenceProperties:L;
}
// * * * * * * * * * * * * * * * * * * * * * * * * * * * * * * * * * * * * * //

dimensions      [0 1 0 0 0 0 0];

internalField   nonuniform List<scalar> 
10720
(
0.0017907
0.00171466
0.00164798
0.00158409
0.00154595
0.0015255
0.00152697
0.00155494
0.00161145
0.00169937
0.00182422
0.0019921
0.00220934
0.0024904
0.0028574
0.00334188
0.00400341
0.00490592
0.00626376
0.0081618
0.0116434
0.0166578
0.0287361
0.0463917
0.0545604
0.056389
0.05746
0.0589958
0.0604153
0.0612903
0.0617025
0.0619006
0.0620433
0.0621992
0.062435
0.0627907
0.0636724
0.0648156
0.0827227
0.00188462
0.00198318
0.00214306
0.00233592
0.00260715
0.0029949
0.00352137
0.00403943
0.0039668
0.00347526
0.00296773
0.00259775
0.00237524
0.00228561
0.00231342
0.00244691
0.0026826
0.00302884
0.00350909
0.00416278
0.00506532
0.00630778
0.00810791
0.0106665
0.014704
0.0206554
0.030487
0.0433461
0.0512916
0.0542934
0.055181
0.0555198
0.0557291
0.0558731
0.0559814
0.0560839
0.0562081
0.0564345
0.0565395
0.0038688
0.0038794
0.0039018
0.00395941
0.00405387
0.00417138
0.00432405
0.00451746
0.00473672
0.00498575
0.00526359
0.00548757
0.00553223
0.00535473
0.00501065
0.00479288
0.00498627
0.00555428
0.00655136
0.00777103
0.0100574
0.0130352
0.0185046
0.0298202
0.0411969
0.0538377
0.0686292
0.0848442
0.100673
0.115048
0.128682
0.14239
0.155096
0.165861
0.174578
0.1813
0.185518
0.186713
0.182688
0.00388671
0.00391379
0.00397042
0.0040591
0.00419041
0.00438445
0.00464973
0.00495826
0.00530411
0.00572995
0.00624752
0.00683135
0.007479
0.00820439
0.00902201
0.00994608
0.0110114
0.0122605
0.0138336
0.0160414
0.019872
0.0282374
0.0606182
0.23528
0.112707
0.0106278
0.0214512
0.0579855
0.107265
0.156112
0.194602
0.215823
0.222288
0.22098
0.216971
0.212366
0.207371
0.198273
0.175138
0.00473557
0.00475481
0.00480979
0.00489742
0.00499445
0.005108
0.0052311
0.00534989
0.00545901
0.00554879
0.00562172
0.00566629
0.00568015
0.00566044
0.00565165
0.00572291
0.00614322
0.00716027
0.0917373
0.00680105
0.0085354
0.00903111
0.0271802
0.0209468
0.0262857
0.0339604
0.0440906
0.0582705
0.0766354
0.0975478
0.118722
0.138501
0.157458
0.176757
0.196217
0.214992
0.232058
0.247659
0.245305
0.0047169
0.0047194
0.00472539
0.00476759
0.00484588
0.00498697
0.00520338
0.00548824
0.00580012
0.00618486
0.00669803
0.00733988
0.00810427
0.00899756
0.0100097
0.0111341
0.0123322
0.0135526
0.0147093
0.0157512
0.0166148
0.0172608
0.0176567
0.017892
0.0179236
0.0179553
0.0174177
0.0228761
0.0157589
0.0448156
0.101489
0.175307
0.221614
0.241498
0.252097
0.258815
0.261707
0.273202
0.245951
0.005152
0.00514667
0.00515965
0.00518132
0.00522683
0.00529684
0.00538821
0.00550919
0.00565798
0.00583748
0.00605073
0.00630314
0.00660311
0.00695924
0.007386
0.00792999
0.0086158
0.00940351
0.0105369
0.0128532
0.0724795
0.00779267
0.00584065
0.0080085
0.0155675
0.0271833
0.0479795
0.0175774
0.0699704
0.0810049
0.102094
0.126545
0.151066
0.174155
0.196909
0.220877
0.245286
0.270405
0.278542
0.00517982
0.00522285
0.00529263
0.00538048
0.0054972
0.00566228
0.00587512
0.00613002
0.0064345
0.00682261
0.00730753
0.00787055
0.00849404
0.00917002
0.00988742
0.010639
0.0114051
0.0121685
0.012906
0.0136168
0.0142897
0.0149392
0.0156036
0.016408
0.0173796
0.0183338
0.0191685
0.019846
0.0207738
0.0221542
0.0256569
0.0322706
0.046043
0.157555
0.239191
0.234506
0.245716
0.257583
0.242342
0.00594793
0.00595326
0.00597673
0.00601921
0.00608667
0.00618187
0.00630314
0.00645281
0.00663101
0.00683145
0.00705111
0.00728309
0.00751628
0.00773963
0.00794183
0.00812408
0.00832919
0.00860616
0.00898034
0.00959473
0.011396
0.0322379
0.0966926
0.29075
0
0
0
0.00863558
0.0176556
0.0377516
0.0157853
0.109701
0.190466
0.184484
0.201355
0.222735
0.247586
0.277545
0.295167
0.00595566
0.00597681
0.00601964
0.00609018
0.0061941
0.00635082
0.00655485
0.00679735
0.00708828
0.00745505
0.00790411
0.00843258
0.00903966
0.00973041
0.0105069
0.0113686
0.0123079
0.0133087
0.0143449
0.015396
0.0164366
0.0174613
0.0184939
0.0196715
0.0211333
0.0228198
0.0244905
0.0258819
0.026581
0.0276133
0.0253094
0.0590789
0.0235548
0.0398646
0.0281708
0.0518765
0.104237
0.113924
0.192261
0.00656992
0.00655599
0.00655734
0.00656914
0.00660166
0.00665541
0.0067295
0.00682904
0.00695515
0.0071083
0.00729193
0.0075074
0.00775588
0.00803982
0.0083616
0.00873902
0.00921464
0.00979432
0.0104557
0.0111464
0.011842
0.0127063
0.015464
0.0363698
0.116513
0.18355
0.278913
1.33931
0
0
0.00848323
0.0330205
0.0416489
0.108073
0.326858
0.251483
0.25602
0.280479
0.301876
0.00659988
0.00664193
0.00670455
0.00679001
0.0069048
0.00706489
0.00726353
0.00749657
0.00777749
0.00812792
0.00855084
0.0090449
0.00960802
0.0102401
0.0109383
0.0116949
0.012498
0.0133313
0.0141753
0.0150159
0.0158451
0.0166748
0.0175441
0.0185599
0.0198274
0.0213126
0.0229231
0.024594
0.0263179
0.0280661
0.0298797
0.0318952
0.0356954
0.0424276
0.0578878
0.036892
0.0596049
0.0622626
0.0997576
0.0073045
0.00728854
0.00728601
0.00729529
0.00732453
0.00737599
0.00744981
0.0075503
0.0076797
0.00783844
0.00802858
0.00825087
0.00850421
0.00878686
0.00909686
0.00942702
0.00975966
0.010103
0.0104929
0.0109545
0.0114589
0.0120037
0.0125146
0.0135274
0.0159662
0.0212881
0.0334993
0.171021
0.204334
0.533136
0
0
0.0250231
0.0471339
0.0392995
0.198783
0.315566
0.292716
0.305695
0.0073347
0.00737612
0.00743765
0.00752501
0.00764324
0.00780331
0.00799563
0.00822248
0.0084962
0.00883002
0.00922703
0.00968825
0.010215
0.0108102
0.011475
0.0122077
0.0130042
0.0138557
0.0147491
0.0156743
0.0166234
0.0176027
0.0186451
0.0198439
0.0213107
0.0230508
0.0249935
0.0270748
0.0292704
0.0315076
0.0335608
0.0351265
0.0361266
0.0376071
0.0445697
0.099149
0.353169
0
0.0514682
0.00802349
0.00799628
0.00798025
0.00797384
0.00798475
0.00801484
0.00806355
0.00813558
0.00823285
0.00835582
0.008508
0.0086907
0.00890526
0.00915386
0.00943844
0.00976001
0.010131
0.0105756
0.0110917
0.0116579
0.0122398
0.0127919
0.0132425
0.0136358
0.0142317
0.0154058
0.017271
0.0204192
0.0260015
0.0620967
0.1997
1.13757
0
0
0.0249846
0.0278979
0.171515
0.338065
0.313879
0.00806493
0.00811569
0.00818527
0.00828056
0.00840494
0.00856701
0.00875518
0.00897776
0.00924519
0.00956406
0.00993925
0.0103721
0.010865
0.0114219
0.0120442
0.0127298
0.0134757
0.0142728
0.0151096
0.0159766
0.0168694
0.0177958
0.0187871
0.0199193
0.0212804
0.0228793
0.0246698
0.0266207
0.0287544
0.0311032
0.0336609
0.0364387
0.0394597
0.0427573
0.0457571
0.0499635
0.059229
0.286021
0
0.00878479
0.00875043
0.0087256
0.00871023
0.00871077
0.00872946
0.00876629
0.00882609
0.00891083
0.00902182
0.00916233
0.00933419
0.00953902
0.00977901
0.0100551
0.0103696
0.0107224
0.0111055
0.0115217
0.0119766
0.0124683
0.0129769
0.0134813
0.0139899
0.0145781
0.0153596
0.0164007
0.0176079
0.0190083
0.021626
0.0259036
0.117276
0.334416
0
0
0.0204458
0.0874458
0.277588
0.331356
0.0088326
0.00888889
0.00896326
0.0090651
0.00919419
0.0093575
0.00954367
0.00976346
0.010025
0.010331
0.0106865
0.0110937
0.0115558
0.0120776
0.0126621
0.0133099
0.0140201
0.0147887
0.0156093
0.016476
0.0173873
0.0183524
0.0194012
0.0205971
0.0220173
0.0236862
0.0255713
0.0276426
0.0299108
0.0323903
0.0350447
0.0377454
0.0402837
0.0423888
0.0437666
0.0435626
0.0420848
0.0402997
0.413836
0.00956773
0.00952426
0.00948838
0.00946089
0.0094482
0.00945144
0.00947118
0.00951218
0.00957593
0.00966388
0.00977953
0.0099246
0.010101
0.0103113
0.0105575
0.0108423
0.0111668
0.0115396
0.0119692
0.0124479
0.012956
0.0134694
0.0139748
0.0145072
0.0151561
0.0159968
0.0170255
0.0181121
0.0191138
0.0200826
0.0210806
0.0237174
0.0393601
0.215835
0
0
0.0308799
0.0628901
0.35397
0.00962436
0.00968785
0.00976876
0.00987836
0.0100129
0.0101772
0.0103634
0.0105818
0.0108377
0.0111324
0.0114708
0.011855
0.0122891
0.0127791
0.0133283
0.0139383
0.0146109
0.0153432
0.016132
0.0169739
0.0178687
0.0188259
0.0198723
0.0210591
0.0224519
0.0240757
0.0259083
0.0279283
0.0301509
0.0326053
0.0352936
0.0381828
0.0412279
0.0442113
0.0468525
0.0474691
0.0477758
0.0372762
0.059565
0.0103836
0.0103315
0.0102855
0.0102471
0.0102227
0.0102126
0.0102186
0.0102444
0.0102922
0.0103633
0.0104614
0.0105885
0.0107467
0.0109391
0.0111676
0.0114347
0.011743
0.0120928
0.0124836
0.0129145
0.0133771
0.0138612
0.0143597
0.0148992
0.0155567
0.0164127
0.0174744
0.0186391
0.0197654
0.0207554
0.0216443
0.0221727
0.0235459
0.0294747
0.206164
0
0
0.061498
0.31032
0.0104485
0.0105188
0.0106057
0.0107231
0.0108634
0.0110288
0.0112163
0.0114346
0.0116853
0.0119699
0.0122934
0.0126574
0.0130663
0.0135265
0.0140427
0.0146178
0.0152554
0.0159558
0.0167179
0.0175413
0.0184294
0.0193927
0.0204558
0.0216633
0.0230708
0.0247057
0.0265583
0.0286135
0.0308839
0.0333917
0.0361292
0.0390336
0.0419775
0.044684
0.0468677
0.0471753
0.0472608
0.0398216
0.0353855
0.0112311
0.0111698
0.011113
0.0110632
0.0110263
0.0110024
0.0109932
0.011003
0.0110334
0.0110859
0.0111639
0.0112696
0.0114053
0.0115739
0.0117779
0.0120198
0.0123021
0.0126255
0.0129955
0.0134125
0.0138652
0.0143412
0.0148362
0.0153732
0.0160169
0.0168413
0.0178647
0.019014
0.0201804
0.0212941
0.0223776
0.0232294
0.0237406
0.0240716
0.029823
0.233985
0
0.0345099
0.202809
0.0113047
0.0113828
0.011476
0.0116012
0.0117476
0.0119151
0.0121048
0.0123236
0.01257
0.0128462
0.0131564
0.0135023
0.0138885
0.0143222
0.014808
0.0153504
0.0159548
0.0166232
0.017358
0.0181603
0.0190347
0.0199923
0.0210576
0.0222694
0.0236721
0.0252939
0.0271324
0.0291787
0.0314449
0.0339538
0.036708
0.0396645
0.042743
0.0457119
0.048241
0.0489767
0.0487176
0.0429822
0.0339592
0.012114
0.0120431
0.0119755
0.0119144
0.0118652
0.011828
0.0118042
0.0117986
0.0118126
0.0118479
0.0119078
0.0119943
0.01211
0.0122582
0.0124411
0.0126614
0.0129219
0.013223
0.0135669
0.0139543
0.0143794
0.014834
0.015318
0.0158509
0.0164848
0.0172814
0.01826
0.0193642
0.0205026
0.0216277
0.0227516
0.0238574
0.024769
0.0251823
0.0246968
0.0336396
2.70951
0.0217494
0.11517
0.0121962
0.0122824
0.0123825
0.0125155
0.012668
0.0128387
0.0130314
0.0132513
0.0134943
0.0137631
0.0140617
0.0143919
0.014758
0.0151672
0.0156257
0.0161384
0.0167117
0.0173498
0.0180572
0.0188381
0.0196988
0.0206521
0.021721
0.022939
0.0243448
0.0259653
0.027806
0.0298635
0.0321506
0.0346894
0.037483
0.040486
0.0436024
0.0465891
0.049105
0.0499344
0.0496029
0.0447996
0.0354854
0.0130339
0.0129534
0.0128746
0.0128016
0.0127399
0.0126888
0.0126505
0.0126294
0.012627
0.0126449
0.0126865
0.0127537
0.012849
0.0129754
0.0131356
0.0133325
0.0135689
0.0138452
0.0141639
0.0145278
0.0149334
0.0153721
0.0158449
0.0163696
0.0169897
0.0177581
0.0186938
0.0197521
0.0208527
0.0219517
0.0230511
0.0241601
0.0252393
0.0261508
0.0264856
0.0243816
0.96843
0.0540716
0.0572297
0.0131254
0.0132198
0.0133276
0.0134684
0.0136273
0.0138023
0.0139991
0.0142201
0.0144608
0.0147236
0.0150122
0.0153283
0.0156764
0.0160641
0.0164971
0.0169822
0.0175269
0.0181365
0.0188173
0.019576
0.0204215
0.0213673
0.0224355
0.0236548
0.0250588
0.0266744
0.028511
0.0305711
0.0328688
0.035426
0.0382497
0.041302
0.0445027
0.0476271
0.0503361
0.0513864
0.0511794
0.0465713
0.0374185
0.0139935
0.0139032
0.0138127
0.013728
0.0136535
0.0135883
0.0135355
0.0134991
0.0134804
0.0134813
0.0135049
0.0135531
0.0136285
0.0137342
0.0138731
0.0140477
0.0142607
0.0145137
0.0148075
0.0151452
0.0155272
0.0159458
0.0164034
0.0169164
0.0175207
0.0182613
0.0191568
0.0201725
0.0212393
0.0223129
0.0233889
0.0244604
0.0255315
0.0264422
0.0278461
0.0254446
0.0339736
1.64291
0.020577
0.014095
0.0141978
0.0143137
0.0144628
0.0146283
0.0148088
0.0150102
0.0152329
0.015472
0.01573
0.0160099
0.0163141
0.0166465
0.0170147
0.0174254
0.0178851
0.0184028
0.0189857
0.0196417
0.0203791
0.0212081
0.0221435
0.0232075
0.0244283
0.0258336
0.0274471
0.0292833
0.0313506
0.033665
0.036249
0.0391131
0.0422242
0.0455056
0.0487359
0.05158
0.0528071
0.0527347
0.0484257
0.039405
0.0149956
0.0148949
0.0147925
0.0146956
0.0146078
0.0145284
0.0144607
0.0144088
0.0143737
0.0143575
0.0143631
0.0143929
0.0144488
0.0145339
0.0146509
0.0148027
0.014992
0.0152212
0.0154899
0.0158024
0.0161614
0.0165606
0.017002
0.0175002
0.0180863
0.0187984
0.0196543
0.0206275
0.0216601
0.0227091
0.0237664
0.0248157
0.0258599
0.0267384
0.0279442
0.0280015
0.0257091
0.973681
0.118936
0.0151072
0.0152194
0.0153437
0.0155015
0.0156737
0.0158607
0.0160676
0.0162928
0.0165314
0.0167854
0.0170585
0.0173518
0.0176703
0.0180216
0.0184119
0.0188495
0.0193429
0.0199009
0.0205329
0.0212489
0.0220614
0.0229857
0.0240447
0.0252632
0.0266669
0.028278
0.0301142
0.0321884
0.0345192
0.0371307
0.0400373
0.043213
0.0465918
0.0499652
0.0530048
0.0544715
0.0545472
0.0505051
0.0415073
0.0160429
0.0159311
0.0158167
0.015707
0.0156057
0.0155118
0.0154288
0.0153611
0.0153098
0.0152766
0.0152647
0.0152758
0.0153122
0.0153768
0.0154723
0.0156018
0.0157679
0.0159733
0.0162176
0.0165048
0.0168394
0.0172174
0.0176405
0.0181213
0.0186866
0.0193696
0.0201866
0.0211178
0.0221151
0.0231383
0.024176
0.0252123
0.0262315
0.0271598
0.0279333
0.0296615
0.0254331
0.221582
14.3738
0.0161646
0.0162866
0.0164202
0.0165871
0.0167667
0.0169611
0.0171742
0.0174024
0.0176412
0.0178928
0.0181602
0.0184446
0.0187515
0.0190877
0.0194604
0.0198775
0.020349
0.0208838
0.0214932
0.0221885
0.0229835
0.0238959
0.0249484
0.0261644
0.0275662
0.0291767
0.0310146
0.0330976
0.0354478
0.0380911
0.0410468
0.0442971
0.0477855
0.0513151
0.0545661
0.0562958
0.056537
0.0527661
0.0437875
0.0171381
0.0170149
0.016888
0.0167647
0.0166498
0.0165408
0.0164424
0.0163586
0.0162907
0.0162403
0.0162106
0.016203
0.0162201
0.0162648
0.016339
0.0164464
0.0165892
0.0167707
0.0169906
0.0172527
0.0175623
0.0179187
0.0183219
0.0187829
0.0193255
0.0199785
0.020757
0.0216466
0.0226074
0.023603
0.0246187
0.0256418
0.0266412
0.0276101
0.0282522
0.0299568
0.0272124
0.0390641
0.598569
0.0172704
0.0174026
0.0175462
0.0177228
0.01791
0.0181129
0.018333
0.0185652
0.0188053
0.0190557
0.0193185
0.0195958
0.0198924
0.0202161
0.0205733
0.0209726
0.0214243
0.0219382
0.0225264
0.0232023
0.0239803
0.0248789
0.0259221
0.0271347
0.0285371
0.0301477
0.0319882
0.0340813
0.0364525
0.0391311
0.0421416
0.0454765
0.0490906
0.0528041
0.056309
0.058351
0.0587843
0.0552423
0.0462753
0.018284
0.0181493
0.018009
0.0178722
0.0177426
0.0176182
0.0175037
0.0174038
0.0173189
0.0172512
0.0172037
0.017178
0.0171757
0.0172005
0.0172537
0.0173388
0.0174586
0.0176159
0.0178118
0.0180488
0.0183331
0.0186669
0.0190485
0.0194876
0.0200056
0.020628
0.0213685
0.0222169
0.0231405
0.0241068
0.025099
0.026105
0.0270922
0.0280586
0.0287848
0.0299035
0.0295013
0.029649
0.0899351
0.0184276
0.0185706
0.0187247
0.0189114
0.0191075
0.0193194
0.0195474
0.0197842
0.0200268
0.0202769
0.0205367
0.0208086
0.0210968
0.02141
0.021754
0.0221376
0.0225716
0.0230669
0.0236358
0.0242925
0.0250541
0.0259404
0.0269759
0.0281836
0.0295834
0.0311945
0.0330399
0.0351456
0.0375413
0.0402603
0.0433334
0.0467652
0.0505233
0.0544489
0.0582493
0.0606542
0.0613127
0.0579679
0.0489967
0.0194839
0.0193371
0.0191831
0.019032
0.0188874
0.0187468
0.018616
0.0184992
0.0183972
0.018312
0.0182466
0.0182022
0.0181808
0.018185
0.0182175
0.0182804
0.0183774
0.0185108
0.0186831
0.0188952
0.0191536
0.0194635
0.0198225
0.0202382
0.0207302
0.0213211
0.0220239
0.0228313
0.0237172
0.0246528
0.0256204
0.0266067
0.0275855
0.0285301
0.0293718
0.0300955
0.0310362
0.0294268
0.0405937
0.0196393
0.0197938
0.0199591
0.0201561
0.0203626
0.0205842
0.0208206
0.0210635
0.0213096
0.0215606
0.021819
0.0220867
0.0223685
0.0226726
0.0230054
0.0233757
0.0237945
0.0242728
0.0248246
0.0254645
0.02621
0.027083
0.0281096
0.0293128
0.0307114
0.0323248
0.034177
0.0362979
0.0387212
0.0414856
0.0446293
0.0481712
0.0520943
0.0562671
0.0604168
0.0632527
0.06418
0.0609759
0.0519634
0.0207411
0.0205815
0.0204133
0.0202472
0.020087
0.0199298
0.0197822
0.0196481
0.0195285
0.0194255
0.0193418
0.0192787
0.019238
0.0192222
0.0192339
0.019275
0.0193491
0.019459
0.0196072
0.0197937
0.0200262
0.0203112
0.0206462
0.0210371
0.0215018
0.0220607
0.0227258
0.0234928
0.0243406
0.0252441
0.026186
0.0271513
0.0281211
0.0290491
0.0299556
0.0305759
0.031758
0.0309278
0.0332114
0.0209089
0.0210755
0.0212524
0.0214606
0.0216783
0.0219107
0.0221564
0.0224061
0.0226567
0.02291
0.0231686
0.0234339
0.0237112
0.0240079
0.0243316
0.0246909
0.0250968
0.0255605
0.0260964
0.0267206
0.0274521
0.0283128
0.0293298
0.0305282
0.0319275
0.033545
0.0354058
0.0375442
0.0399992
0.0428151
0.0460394
0.0497072
0.0538205
0.0582826
0.0628463
0.0661967
0.0674493
0.064324
0.0552094
0.0220592
0.0218863
0.0217028
0.0215214
0.0213447
0.0211703
0.0210052
0.0208533
0.0207157
0.0205944
0.0204924
0.0204105
0.0203503
0.0203146
0.0203049
0.0203246
0.0203756
0.0204615
0.0205855
0.0207471
0.0209537
0.0212129
0.0215228
0.021888
0.022324
0.0228501
0.0234778
0.0242046
0.0250138
0.0258844
0.0267993
0.0277429
0.0287006
0.0296225
0.0305481
0.0312247
0.0322352
0.0325758
0.0325045
0.0222395
0.0224194
0.0226086
0.0228285
0.0230584
0.0233024
0.0235583
0.023816
0.0240725
0.0243297
0.0245893
0.0248537
0.0251283
0.0254199
0.025737
0.026087
0.0264819
0.0269334
0.027456
0.0280663
0.0287842
0.0296338
0.0306432
0.0318381
0.0332374
0.0348596
0.0367317
0.0388912
0.0413829
0.0442579
0.047574
0.0513845
0.0557173
0.0605183
0.0655769
0.0695517
0.0711985
0.0680689
0.0587609
0.0234416
0.0232546
0.0230556
0.022858
0.022664
0.0224719
0.0222884
0.0221184
0.0219621
0.0218222
0.0217012
0.0216001
0.0215201
0.0214642
0.0214335
0.0214314
0.0214598
0.021522
0.0216216
0.0217585
0.0219391
0.0221714
0.0224554
0.0227937
0.0232001
0.023693
0.0242834
0.0249701
0.0257407
0.0265772
0.027464
0.0283858
0.0293294
0.0302508
0.0311774
0.0319479
0.0328062
0.0338547
0.0334948
0.0236351
0.0238287
0.024031
0.0242636
0.0245067
0.0247631
0.0250305
0.0252973
0.0255609
0.0258231
0.0260858
0.0263513
0.0266244
0.0269132
0.0272244
0.027568
0.0279544
0.0283957
0.028907
0.0295056
0.0302119
0.0310512
0.0320536
0.0332454
0.0346466
0.0362752
0.0381623
0.040347
0.0428803
0.0458215
0.049241
0.0532136
0.057799
0.0629972
0.0686506
0.0733954
0.0755378
0.0722866
0.0626444
0.0248921
0.0246906
0.0244752
0.0242603
0.0240488
0.0238379
0.0236357
0.0234466
0.0232714
0.0231122
0.0229721
0.0228513
0.0227517
0.0226752
0.0226233
0.0225991
0.0226047
0.0226432
0.0227183
0.0228302
0.0229846
0.0231893
0.0234466
0.0237572
0.0241335
0.0245929
0.0251461
0.0257931
0.026525
0.0273266
0.0281843
0.0290834
0.0300121
0.030934
0.0318629
0.032711
0.0335366
0.034852
0.0349049
0.0250997
0.0253071
0.0255235
0.0257696
0.0260268
0.0262969
0.0265768
0.0268541
0.0271262
0.0273951
0.0276621
0.0279298
0.0282034
0.0284913
0.0287996
0.0291387
0.0295186
0.0299518
0.0304538
0.0310423
0.0317384
0.0325691
0.0335657
0.0347563
0.0361616
0.0378009
0.0397042
0.0419182
0.0444988
0.0475143
0.0510501
0.0552064
0.0600809
0.0657435
0.0721169
0.0778275
0.080603
0.0770816
0.0669051
0.0264147
0.026198
0.0259656
0.0257325
0.0255026
0.0252723
0.0250504
0.0248417
0.0246467
0.0244679
0.0243079
0.0241672
0.0240474
0.0239501
0.0238771
0.0238306
0.0238135
0.023828
0.0238782
0.0239654
0.0240931
0.0242702
0.0245005
0.0247828
0.0251282
0.0255535
0.0260695
0.0266772
0.0273702
0.0281368
0.0289645
0.0298403
0.0307538
0.0316748
0.0326118
0.0335149
0.0343906
0.0357846
0.0363403
0.0266371
0.026859
0.0270905
0.0273507
0.027623
0.027908
0.0282014
0.0284904
0.0287726
0.0290494
0.0293226
0.0295947
0.0298713
0.0301594
0.0304666
0.0308032
0.0311788
0.0316061
0.0321007
0.0326817
0.0333704
0.0341946
0.035187
0.0363777
0.037788
0.0394399
0.0413637
0.0436115
0.0462452
0.0493446
0.053011
0.0573738
0.0625789
0.0687849
0.0760363
0.0829836
0.0865948
0.0825658
0.0715705
0.0280139
0.0277809
0.0275307
0.0272788
0.0270295
0.0267791
0.0265368
0.0263079
0.0260922
0.0258932
0.0257128
0.0255518
0.0254112
0.0252931
0.0251986
0.0251295
0.0250894
0.02508
0.0251052
0.0251675
0.0252686
0.0254173
0.0256198
0.0258731
0.0261872
0.0265787
0.0270578
0.0276266
0.0282808
0.0290118
0.0298092
0.0306612
0.0315588
0.0324795
0.0334276
0.0343751
0.0353317
0.036775
0.0377404
0.0282513
0.0284887
0.0287362
0.0290114
0.0292998
0.0296009
0.0299087
0.0302111
0.0305047
0.0307912
0.031072
0.0313501
0.0316312
0.031922
0.0322305
0.0325655
0.0329391
0.0333634
0.0338534
0.0344286
0.0351117
0.0359317
0.0369228
0.0381163
0.039535
0.0412008
0.0431494
0.0454352
0.0481287
0.0513215
0.0551326
0.0597262
0.0653087
0.0721491
0.080473
0.0890368
0.0937915
0.0888955
0.0766825
0.0296938
0.0294438
0.0291748
0.0289035
0.028634
0.0283624
0.0280991
0.0278489
0.0276121
0.0273919
0.0271907
0.0270087
0.026847
0.0267075
0.0265909
0.0264995
0.0264361
0.0264028
0.026403
0.0264399
0.0265144
0.0266348
0.0268086
0.0270327
0.0273155
0.0276729
0.0281155
0.0286457
0.0292614
0.0299565
0.0307229
0.031551
0.0324328
0.0333515
0.0343141
0.0353026
0.0363427
0.037855
0.0391442
0.0299468
0.0302003
0.0304649
0.0307561
0.0310616
0.0313801
0.0317038
0.0320204
0.0323269
0.0326249
0.0329153
0.0332012
0.0334883
0.0337837
0.0340956
0.0344318
0.034806
0.0352286
0.0357164
0.0362885
0.036968
0.0377852
0.0387768
0.0399746
0.041404
0.0430877
0.0450644
0.0473936
0.0501541
0.0534489
0.0574199
0.0622695
0.0682757
0.0758511
0.0854886
0.0962127
0.102607
0.0962586
0.0822662
0.0314591
0.0311916
0.0309026
0.0306111
0.0303204
0.0300266
0.0297416
0.0294691
0.0292105
0.0289684
0.0287457
0.0285422
0.0283592
0.0281977
0.028059
0.027945
0.0278578
0.0278006
0.0277752
0.0277864
0.0278339
0.0279261
0.0280709
0.0282657
0.0285171
0.0288405
0.0292467
0.0297389
0.0303166
0.0309761
0.0317112
0.0325145
0.0333813
0.0342974
0.0352749
0.0363043
0.0374251
0.0390231
0.0405861
0.0317288
0.031999
0.0322814
0.0325896
0.0329131
0.0332499
0.0335911
0.0339235
0.0342444
0.0345555
0.0348573
0.035153
0.0354483
0.0357504
0.0360667
0.0364069
0.0367832
0.0372069
0.0376942
0.0382652
0.0389439
0.0397612
0.0407555
0.0419608
0.0434034
0.0451085
0.0471177
0.0494952
0.0523285
0.0557341
0.0598783
0.0650067
0.0714812
0.0798964
0.0911345
0.104808
0.1137
0.104895
0.0883443
0.033315
0.0330288
0.0327193
0.0324064
0.0320937
0.0317771
0.0314689
0.0311736
0.0308923
0.0306277
0.0303826
0.0301571
0.0299517
0.0297679
0.0296065
0.0294693
0.0293582
0.0292766
0.029226
0.0292109
0.0292316
0.0292955
0.0294112
0.029576
0.0297962
0.0300862
0.0304566
0.0309113
0.0314514
0.0320754
0.0327794
0.033558
0.0344089
0.0353239
0.0363153
0.0373883
0.038587
0.0402781
0.0420863
0.0336023
0.0338896
0.0341905
0.0345173
0.0348597
0.0352156
0.0355756
0.0359252
0.0362623
0.0365879
0.0369028
0.0372102
0.0375156
0.0378266
0.0381495
0.0384959
0.0388755
0.0393024
0.039792
0.0403643
0.0410441
0.0418641
0.0428638
0.0440793
0.0455391
0.0472684
0.0493134
0.0517434
0.0546549
0.0581795
0.0625076
0.0679346
0.0749185
0.0842763
0.0974382
0.115207
0.12818
0.115066
0.0949073
0.0352668
0.0349607
0.03463
0.0342946
0.0339587
0.0336185
0.0332861
0.032967
0.0326619
0.032374
0.0321058
0.0318573
0.0316292
0.0314227
0.0312381
0.0310776
0.0309424
0.0308357
0.0307597
0.0307184
0.0307121
0.0307478
0.0308342
0.0309692
0.0311583
0.0314151
0.0317501
0.0321681
0.0326713
0.0332601
0.0339331
0.0346875
0.0355227
0.0364357
0.0374425
0.038558
0.0398337
0.0416181
0.04365
0.0355723
0.0358775
0.0361975
0.0365442
0.0369064
0.0372827
0.0376625
0.038031
0.0383856
0.0387277
0.0390577
0.0393781
0.0396953
0.040017
0.0403494
0.0407035
0.0410888
0.0415211
0.0420148
0.0425908
0.0432744
0.0440995
0.0451074
0.0463355
0.047814
0.0495715
0.0516556
0.0541425
0.0571369
0.0607862
0.0653069
0.0710455
0.078568
0.0889486
0.104357
0.127853
0.148131
0.127003
0.101891
0.0373197
0.0369932
0.0366399
0.0362813
0.0359212
0.0355559
0.0351986
0.0348547
0.0345247
0.0342126
0.0339205
0.0336485
0.0333969
0.033167
0.0329589
0.0327742
0.0326146
0.0324828
0.0323815
0.0323133
0.0322799
0.0322873
0.0323441
0.0324495
0.032608
0.0328321
0.0331324
0.0335146
0.0339818
0.0345362
0.0351786
0.0359085
0.0367287
0.03764
0.0386623
0.0398187
0.0411714
0.0430508
0.0452833
0.0376443
0.0379684
0.0383082
0.0386755
0.0390587
0.0394564
0.0398573
0.0402461
0.0406198
0.0409801
0.0413264
0.0416625
0.0419939
0.0423272
0.042671
0.0430339
0.043429
0.0438675
0.0443675
0.0449495
0.0456392
0.0464713
0.0474898
0.0487341
0.0502342
0.052022
0.0541479
0.0566942
0.0597746
0.0635511
0.0682676
0.0743201
0.0823887
0.0938279
0.111725
0.143073
0.178168
0.14069
0.109154
0.0394797
0.0391316
0.0387551
0.0383721
0.0379869
0.0375955
0.0372121
0.0368423
0.0364865
0.0361493
0.0358324
0.0355359
0.0352603
0.0350062
0.0347739
0.0345647
0.0343805
0.034223
0.0340957
0.0340006
0.0339399
0.033919
0.0339466
0.0340226
0.0341508
0.0343429
0.0346095
0.0349566
0.0353887
0.0359096
0.0365222
0.0372284
0.0380334
0.0389436
0.0399812
0.0411792
0.0426054
0.0445768
0.046993
0.0398243
0.0401678
0.0405285
0.0409172
0.0413224
0.0417425
0.0421657
0.0425759
0.0429703
0.0433504
0.0437153
0.0440682
0.0444152
0.0447631
0.0451197
0.0454944
0.0458994
0.0463459
0.0468553
0.0474449
0.0481424
0.0489842
0.0500154
0.0512772
0.0528019
0.0546217
0.0567918
0.059399
0.0625659
0.0664678
0.0713744
0.077731
0.086323
0.0987795
0.119176
0.160392
0.231266
0.155383
0.116442
0.0417531
0.0413826
0.0409819
0.0405732
0.0401617
0.0397431
0.0393323
0.0389354
0.038553
0.0381894
0.0378468
0.0375251
0.0372245
0.0369456
0.0366887
0.0364545
0.0362448
0.0360614
0.0359072
0.0357857
0.0356979
0.0356489
0.0356473
0.0356943
0.0357929
0.035954
0.0361876
0.0365007
0.0368988
0.037387
0.0379704
0.0386534
0.0394442
0.040353
0.0414065
0.0426447
0.0441452
0.0462053
0.0487825
0.0421185
0.0424818
0.0428643
0.0432757
0.0437034
0.044147
0.0445938
0.0450265
0.0454428
0.045844
0.046229
0.0466008
0.0469654
0.0473295
0.0477004
0.0480891
0.0485049
0.0489632
0.0494824
0.0500816
0.0507894
0.0516421
0.0526872
0.0539683
0.0555187
0.0573729
0.059588
0.0622555
0.0655053
0.0695265
0.0746092
0.0812399
0.090291
0.10361
0.126103
0.1769
0.37239
0.168828
0.123399
0.0441463
0.0437525
0.0433265
0.0428911
0.0424521
0.042005
0.0415658
0.0411405
0.0407301
0.0403389
0.0399698
0.0396219
0.0392955
0.0389911
0.0387086
0.038449
0.0382135
0.0380041
0.0378234
0.0376753
0.0375598
0.0374826
0.037452
0.0374707
0.0375401
0.0376706
0.0378725
0.038153
0.0385184
0.0389752
0.0395305
0.0401912
0.0409683
0.0418761
0.0429452
0.0442224
0.0457939
0.047943
0.0506621
0.0445334
0.0449173
0.0453224
0.0457571
0.0462083
0.0466762
0.0471471
0.0476038
0.0480434
0.0484671
0.0488741
0.0492661
0.0496494
0.0500314
0.0504187
0.0508218
0.0512514
0.0517231
0.0522521
0.0528625
0.0535809
0.0544466
0.0555087
0.0568113
0.0583888
0.0602765
0.0625345
0.0652592
0.0685857
0.0727134
0.0779469
0.0848002
0.0942008
0.108107
0.131775
0.186477
0.535105
0.17738
0.129602
0.0466664
0.0462484
0.0457961
0.0453328
0.044865
0.0443883
0.0439193
0.0434646
0.0430246
0.0426049
0.0422081
0.0418329
0.0414797
0.041149
0.0408405
0.0405547
0.0402928
0.040057
0.0398491
0.0396737
0.0395313
0.0394259
0.0393668
0.0393574
0.0393985
0.0394997
0.0396712
0.0399205
0.0402545
0.0406813
0.0412097
0.0418492
0.0426133
0.0435207
0.0446048
0.0459207
0.047559
0.0497925
0.0526384
0.047076
0.0474815
0.0479097
0.0483685
0.0488439
0.0493366
0.0498326
0.0503143
0.050778
0.0512255
0.0516553
0.0520692
0.0524735
0.0528745
0.0532792
0.0536984
0.0541434
0.054628
0.0551685
0.0557926
0.0565239
0.0574036
0.0584818
0.0598057
0.0614101
0.0633306
0.065629
0.0684046
0.0717968
0.0760094
0.0813573
0.0883614
0.0979573
0.112069
0.135613
0.185345
0.284203
0.178848
0.134676
0.0493207
0.0488778
0.0483981
0.0479057
0.0474077
0.0468999
0.0463997
0.0459137
0.0454432
0.0449941
0.0445682
0.0441646
0.0437839
0.0434261
0.0430906
0.042778
0.0424894
0.0422266
0.0419916
0.0417883
0.041619
0.0414858
0.0413986
0.0413618
0.0413755
0.0414486
0.0415908
0.04181
0.0421143
0.0425127
0.0430158
0.0436352
0.0443873
0.0452944
0.0463942
0.0477459
0.0494491
0.0517615
0.0547184
0.0497541
0.0501816
0.0506335
0.051117
0.0516171
0.0521352
0.0526572
0.0531641
0.053653
0.0541252
0.0545791
0.0550159
0.0554418
0.0558632
0.056287
0.0567234
0.0571842
0.0576824
0.0582384
0.0588748
0.0596189
0.0605128
0.0616081
0.0629525
0.064582
0.0665321
0.0688658
0.0716835
0.0751253
0.0793973
0.0848114
0.0918772
0.101484
0.115369
0.137499
0.177323
0.222278
0.174878
0.138427
0.0521174
0.0516486
0.0511402
0.0506175
0.050088
0.0495476
0.0490146
0.0484959
0.047994
0.0475135
0.0470573
0.0466242
0.0462149
0.0458291
0.0454658
0.0451258
0.04481
0.0445198
0.0442574
0.0440266
0.04383
0.0436692
0.0435547
0.043491
0.0434781
0.0435242
0.0436387
0.0438296
0.0441058
0.0444776
0.0449568
0.0455574
0.0462984
0.0472058
0.0483209
0.0497071
0.0514716
0.0538575
0.0569113
0.0525749
0.0530256
0.0535017
0.0540102
0.0545354
0.0550795
0.0556276
0.0561605
0.0566748
0.0571725
0.057651
0.0581118
0.0585608
0.0590031
0.0594462
0.0599008
0.0603785
0.060892
0.0614626
0.0621104
0.0628685
0.0637761
0.0648873
0.0662517
0.0679035
0.0698793
0.072241
0.0750882
0.07856
0.0828582
0.0882813
0.0953076
0.104731
0.117983
0.137808
0.167866
0.192577
0.168713
0.140913
0.055065
0.0545691
0.0540309
0.0534769
0.0529142
0.0523396
0.0517722
0.0512197
0.050684
0.0501708
0.0496828
0.0492194
0.0487803
0.0483654
0.0479734
0.0476052
0.0472615
0.0469436
0.0466536
0.0463952
0.0461709
0.0459832
0.0458422
0.0457525
0.0457143
0.0457347
0.0458228
0.0459872
0.0462372
0.046584
0.0470411
0.0476245
0.0483555
0.0492635
0.0503931
0.0518124
0.0536339
0.0560877
0.0592255
0.0555473
0.0560217
0.0565228
0.0570563
0.0576068
0.0581769
0.0587512
0.0593099
0.0598502
0.0603739
0.0608777
0.0613627
0.0618348
0.0622991
0.0627626
0.0632355
0.06373