/*--------------------------------*- C++ -*----------------------------------*\
| =========                 |                                                 |
| \\      /  F ield         | OpenFOAM: The Open Source CFD Toolbox           |
|  \\    /   O peration     | Version:  2306                                  |
|   \\  /    A nd           | Website:  www.openfoam.com                      |
|    \\/     M anipulation  |                                                 |
\*---------------------------------------------------------------------------*/
FoamFile
{
    version     2.0;
    format      ascii;
    arch        "LSB;label=32;scalar=64";
    class       volVectorField;
    location    "975";
    object      momentError;
}
// * * * * * * * * * * * * * * * * * * * * * * * * * * * * * * * * * * * * * //

dimensions      [0 1 -2 0 0 0 0];

internalField   nonuniform List<vector> 
1340
(
(1.72183e-08 -4.65209e-07 -7.3966e-16)
(-1.27501e-07 -8.86531e-07 -1.09297e-16)
(-7.68379e-08 -8.47396e-07 -7.61663e-16)
(-2.42799e-07 -7.22446e-07 3.80753e-15)
(-2.18863e-07 -7.81611e-07 -5.7467e-17)
(-1.00171e-07 -7.9745e-07 1.22431e-15)
(-2.64093e-07 -7.53194e-07 -8.4028e-16)
(-3.11224e-07 -7.27781e-07 3.98101e-15)
(-2.4907e-07 -7.94011e-07 3.27867e-16)
(-1.02321e-07 -7.92642e-07 -1.89476e-15)
(-2.6722e-07 -9.0083e-07 -1.92692e-15)
(-2.67305e-07 -8.28049e-07 -1.60866e-15)
(-2.98406e-07 -7.73429e-07 -1.14749e-15)
(-3.21982e-07 -7.46431e-07 -1.40693e-15)
(-2.43629e-07 -7.68122e-07 -3.27557e-16)
(-1.05446e-07 -7.79407e-07 -1.06214e-15)
(-3.63977e-07 -1.08435e-06 -6.14251e-16)
(-3.3592e-07 -9.63994e-07 4.86048e-17)
(-3.15653e-07 -9.04382e-07 -4.69366e-15)
(-3.09281e-07 -8.51913e-07 -2.57504e-15)
(-3.08321e-07 -8.03805e-07 1.25471e-15)
(-2.96913e-07 -7.55165e-07 -1.57593e-15)
(-2.37473e-07 -7.6095e-07 -8.4982e-16)
(-1.01964e-07 -7.64514e-07 2.66119e-15)
(-6.46072e-07 -1.59214e-06 -3.26927e-15)
(-5.50573e-07 -1.44149e-06 -4.2386e-15)
(-4.54912e-07 -1.2671e-06 -2.67329e-15)
(-4.02366e-07 -1.07223e-06 -6.48432e-18)
(-4.05345e-07 -9.63296e-07 -1.54762e-16)
(-3.59677e-07 -9.21833e-07 1.87984e-15)
(-3.30858e-07 -8.59865e-07 8.19418e-16)
(-2.97399e-07 -8.13287e-07 -2.128e-16)
(-2.82373e-07 -7.68531e-07 7.7583e-16)
(-2.22318e-07 -7.51278e-07 5.70436e-17)
(-9.58264e-08 -7.49241e-07 -6.44684e-16)
(-1.14167e-06 -1.90594e-06 -8.15338e-16)
(-9.92843e-07 -1.70908e-06 1.23717e-15)
(-8.45138e-07 -1.59231e-06 3.37315e-16)
(-7.25667e-07 -1.49151e-06 -3.97555e-16)
(-6.1388e-07 -1.37671e-06 -1.53641e-15)
(-5.22525e-07 -1.22001e-06 -2.70425e-15)
(-4.54737e-07 -1.07831e-06 -5.42593e-16)
(-4.53641e-07 -9.60406e-07 1.41883e-16)
(-3.79242e-07 -8.99522e-07 1.9472e-15)
(-3.34337e-07 -8.63163e-07 4.49698e-16)
(-2.98212e-07 -8.20434e-07 -1.01403e-15)
(-2.65035e-07 -7.74842e-07 1.32279e-15)
(-2.05727e-07 -7.42814e-07 5.05534e-16)
(-8.81627e-08 -7.32613e-07 8.89295e-16)
(-2.54856e-06 -2.14231e-06 -1.04901e-15)
(-2.15684e-06 -2.05989e-06 2.93805e-16)
(-1.81579e-06 -1.98846e-06 1.17436e-16)
(-1.48027e-06 -1.86582e-06 -1.09921e-16)
(-1.22733e-06 -1.72577e-06 -4.53034e-16)
(-1.05448e-06 -1.58509e-06 2.17495e-15)
(-9.19869e-07 -1.4771e-06 2.67521e-16)
(-8.11406e-07 -1.40869e-06 9.03904e-16)
(-6.90572e-07 -1.29783e-06 -1.6144e-16)
(-5.94822e-07 -1.16403e-06 1.1992e-15)
(-5.23238e-07 -1.03303e-06 5.01632e-16)
(-4.67928e-07 -9.43653e-07 -1.66788e-16)
(-4.07564e-07 -8.84082e-07 -1.35728e-15)
(-3.51262e-07 -8.49336e-07 -3.62276e-16)
(-2.99686e-07 -8.15128e-07 5.21649e-16)
(-2.53206e-07 -7.74107e-07 -8.03844e-16)
(-1.90028e-07 -7.30041e-07 1.34946e-16)
(-8.11235e-08 -7.14924e-07 2.69294e-16)
(-5.25415e-06 -1.14425e-06 -9.97546e-16)
(-4.73144e-06 -1.28446e-06 -1.9675e-16)
(-4.1194e-06 -1.44132e-06 1.45617e-16)
(-3.63276e-06 -1.58852e-06 1.44014e-15)
(-3.06629e-06 -1.6514e-06 -1.28854e-16)
(-2.6233e-06 -1.68321e-06 -8.38429e-16)
(-2.21215e-06 -1.74134e-06 1.59342e-15)
(-1.86275e-06 -1.67463e-06 5.30172e-16)
(-1.55782e-06 -1.63312e-06 1.0627e-16)
(-1.3167e-06 -1.54896e-06 3.03773e-16)
(-1.12005e-06 -1.43226e-06 -4.85128e-16)
(-1.0007e-06 -1.36294e-06 -6.72392e-17)
(-8.72329e-07 -1.29216e-06 -1.90684e-15)
(-7.531e-07 -1.20433e-06 -2.87808e-16)
(-6.514e-07 -1.09702e-06 2.2156e-16)
(-5.70687e-07 -9.92287e-07 -4.57895e-16)
(-5.03035e-07 -9.05463e-07 6.36167e-17)
(-4.32831e-07 -8.50368e-07 -4.45166e-16)
(-3.67814e-07 -8.28854e-07 -1.88451e-16)
(-3.05096e-07 -8.00094e-07 2.82905e-17)
(-2.4585e-07 -7.6377e-07 -1.03145e-15)
(-1.77348e-07 -7.14188e-07 -1.56648e-16)
(-7.53585e-08 -6.94645e-07 -1.50211e-15)
(-8.04782e-06 1.66028e-06 1.20356e-16)
(-7.6501e-06 1.21049e-06 -2.11501e-16)
(-7.22263e-06 8.06717e-07 5.66091e-17)
(-6.77412e-06 4.48508e-07 -1.62213e-16)
(-6.29554e-06 1.55674e-07 -6.50181e-16)
(-5.83476e-06 -1.33581e-07 2.20243e-16)
(-5.33561e-06 -3.31017e-07 1.53074e-16)
(-4.86269e-06 -5.27226e-07 -1.10359e-15)
(-4.37615e-06 -6.9868e-07 -2.67556e-16)
(-3.93184e-06 -8.91219e-07 -3.24899e-16)
(-3.46138e-06 -1.07219e-06 -4.48915e-16)
(-3.01462e-06 -1.17381e-06 -4.23372e-17)
(-2.63426e-06 -1.30001e-06 1.17022e-15)
(-2.23903e-06 -1.34635e-06 6.60825e-16)
(-1.89427e-06 -1.40978e-06 -2.06308e-16)
(-1.61726e-06 -1.39129e-06 2.76158e-16)
(-1.35344e-06 -1.33995e-06 2.98693e-17)
(-1.18389e-06 -1.27866e-06 -8.30246e-17)
(-1.04703e-06 -1.23001e-06 -3.35758e-17)
(-9.22833e-07 -1.18081e-06 1.08005e-15)
(-7.98989e-07 -1.11037e-06 1.17889e-15)
(-6.95665e-07 -1.02046e-06 4.41822e-17)
(-6.08799e-07 -9.2861e-07 4.83603e-16)
(-5.30507e-07 -8.62245e-07 -7.66137e-17)
(-4.56301e-07 -8.14665e-07 9.60644e-16)
(-3.83518e-07 -7.94565e-07 6.34023e-16)
(-3.12554e-07 -7.74408e-07 1.15781e-16)
(-2.41561e-07 -7.45447e-07 2.16752e-16)
(-1.67951e-07 -6.91773e-07 1.02911e-15)
(-7.08439e-08 -6.72218e-07 4.72831e-16)
(-7.31553e-06 5.29543e-06 -1.7479e-17)
(-7.40593e-06 5.27972e-06 -1.89144e-18)
(-7.47829e-06 5.13364e-06 -2.14879e-18)
(-7.54861e-06 4.97433e-06 1.58788e-17)
(-7.59035e-06 4.76847e-06 2.53778e-17)
(-7.61576e-06 4.54987e-06 1.17419e-16)
(-7.61379e-06 4.24752e-06 2.50265e-17)
(-7.58065e-06 3.93179e-06 4.8141e-17)
(-7.51207e-06 3.56831e-06 5.10531e-18)
(-7.39582e-06 3.20653e-06 -2.01789e-16)
(-7.24439e-06 2.82319e-06 -7.92344e-17)
(-7.04118e-06 2.41945e-06 -2.45047e-16)
(-6.7996e-06 2.00909e-06 -2.00355e-16)
(-6.51102e-06 1.62904e-06 -3.52479e-16)
(-6.19842e-06 1.26137e-06 1.5283e-16)
(-5.85569e-06 9.55922e-07 -3.58786e-16)
(-5.49703e-06 6.47025e-07 -4.20526e-17)
(-5.13774e-06 3.99193e-07 4.86931e-16)
(-4.74133e-06 1.7159e-07 -1.47098e-16)
(-4.39591e-06 -3.71608e-08 6.30323e-16)
(-3.99893e-06 -2.52642e-07 -9.12697e-17)
(-3.67107e-06 -4.30152e-07 -2.34198e-17)
(-3.26521e-06 -6.15893e-07 1.39105e-16)
(-2.9356e-06 -7.79938e-07 8.2474e-17)
(-2.57192e-06 -8.97694e-07 -4.60881e-16)
(-2.2377e-06 -1.01807e-06 -7.79455e-16)
(-1.93156e-06 -1.08498e-06 1.73665e-16)
(-1.64177e-06 -1.14374e-06 -5.1528e-16)
(-1.40755e-06 -1.14718e-06 -1.48755e-16)
(-1.22713e-06 -1.11398e-06 3.54864e-17)
(-1.08662e-06 -1.09328e-06 3.79409e-17)
(-9.51997e-07 -1.05505e-06 8.91e-16)
(-8.28619e-07 -1.00501e-06 -3.64313e-16)
(-7.2357e-07 -9.42741e-07 5.19825e-16)
(-6.34369e-07 -8.70701e-07 -6.75746e-16)
(-5.50719e-07 -8.06759e-07 2.24061e-16)
(-4.72937e-07 -7.65944e-07 -6.80915e-16)
(-3.96373e-07 -7.57854e-07 1.04838e-15)
(-3.17904e-07 -7.42007e-07 9.38475e-16)
(-2.3883e-07 -7.1852e-07 -1.81501e-17)
(-1.61002e-07 -6.66383e-07 -1.36182e-16)
(-6.74356e-08 -6.47062e-07 8.3901e-17)
(2.91126e-05 -1.35697e-05 -1.75113e-17)
(8.4154e-06 -9.14452e-06 1.36806e-17)
(2.54235e-05 -3.90707e-06 -3.83339e-17)
(1.66253e-05 -4.49573e-06 -5.96987e-18)
(2.09014e-05 1.60924e-06 2.98045e-17)
(1.75874e-05 1.64574e-06 -1.79606e-17)
(1.44322e-05 1.59602e-06 -4.17206e-17)
(1.88924e-05 1.37287e-06 1.16902e-17)
(2.39809e-05 6.90278e-07 1.53999e-17)
(2.98364e-05 -2.66348e-07 -4.60343e-17)
(3.27576e-05 -1.74508e-06 -3.3848e-17)
(3.18341e-05 -2.97581e-06 -6.71947e-18)
(2.61607e-05 -4.03359e-06 -1.59015e-17)
(1.67527e-05 -4.80559e-06 4.95165e-17)
(5.03469e-06 -5.34955e-06 5.15882e-17)
(-6.69552e-06 -5.5783e-06 -8.08653e-17)
(-1.60009e-05 -5.21915e-06 -1.41932e-16)
(-2.14725e-05 -4.20542e-06 -2.56433e-17)
(-3.10182e-05 -3.80163e-06 3.23784e-17)
(-9.89076e-05 -1.73475e-05 -2.36325e-17)
(-0.000230595 -5.38139e-05 2.10198e-17)
(0.000547502 7.09629e-05 -4.92337e-17)
(-3.54864e-05 6.00782e-05 1.21363e-16)
(-0.000230092 -1.89079e-05 -9.95998e-17)
(-1.3184e-05 8.0831e-06 -1.44286e-16)
(2.42626e-06 6.74619e-06 -1.32731e-17)
(-1.02968e-05 3.26232e-06 -1.71533e-18)
(-8.07095e-06 3.9105e-06 -8.0881e-17)
(-6.77822e-06 4.54047e-06 -8.39526e-18)
(-6.50902e-06 4.94444e-06 -3.13491e-17)
(-6.48761e-06 5.12434e-06 1.78901e-17)
(-6.50689e-06 5.09176e-06 1.37521e-16)
(-6.60075e-06 5.0658e-06 1.38781e-17)
(-6.58004e-06 5.04293e-06 6.30525e-17)
(-6.6154e-06 5.09076e-06 -3.02518e-17)
(-6.5565e-06 5.17464e-06 1.26864e-17)
(-6.59554e-06 5.08164e-06 2.63369e-17)
(-6.50261e-06 5.00042e-06 1.4575e-17)
(-6.49157e-06 5.03378e-06 -1.31355e-18)
(-6.42159e-06 4.87706e-06 2.00036e-21)
(-6.40736e-06 4.73463e-06 4.24933e-17)
(-6.33436e-06 4.53319e-06 2.75485e-17)
(-6.31404e-06 4.31701e-06 6.34618e-17)
(-6.24067e-06 4.04731e-06 2.43363e-17)
(-6.1957e-06 3.77672e-06 6.31874e-17)
(-6.09915e-06 3.48207e-06 -9.21217e-17)
(-6.01292e-06 3.1871e-06 -3.25708e-16)
(-5.88241e-06 2.86872e-06 2.58547e-16)
(-5.75071e-06 2.5503e-06 -3.07467e-17)
(-5.56912e-06 2.20594e-06 1.10971e-16)
(-5.37583e-06 1.88239e-06 1.04509e-16)
(-5.15263e-06 1.56431e-06 5.71884e-17)
(-4.91008e-06 1.26993e-06 1.22998e-16)
(-4.66967e-06 9.97455e-07 3.44953e-17)
(-4.39414e-06 7.43751e-07 -1.65817e-16)
(-4.14904e-06 5.25349e-07 -9.43848e-17)
(-3.86937e-06 3.11291e-07 2.33104e-16)
(-3.61438e-06 1.22891e-07 2.15769e-17)
(-3.32271e-06 -8.39378e-08 2.08542e-16)
(-3.06439e-06 -2.61033e-07 -5.03733e-17)
(-2.76485e-06 -4.2705e-07 -2.16203e-16)
(-2.48481e-06 -5.68175e-07 -6.2364e-16)
(-2.2066e-06 -6.87853e-07 -5.69417e-16)
(-1.9379e-06 -8.17451e-07 4.37382e-16)
(-1.69013e-06 -8.86961e-07 -3.18382e-16)
(-1.44361e-06 -9.28852e-07 1.54524e-16)
(-1.26512e-06 -9.33602e-07 -2.87175e-16)
(-1.11558e-06 -9.33832e-07 -2.06866e-16)
(-9.79274e-07 -9.24243e-07 -5.60377e-16)
(-8.56103e-07 -9.01094e-07 -5.06362e-16)
(-7.4355e-07 -8.56518e-07 -9.13006e-16)
(-6.4768e-07 -7.96731e-07 4.07658e-16)
(-5.61716e-07 -7.52667e-07 -2.69263e-16)
(-4.806e-07 -7.21132e-07 7.43556e-16)
(-4.01989e-07 -7.11558e-07 2.62321e-16)
(-3.19947e-07 -7.02662e-07 -5.6114e-17)
(-2.36781e-07 -6.86508e-07 1.63642e-16)
(-1.55545e-07 -6.35231e-07 -2.78203e-16)
(-6.53838e-08 -6.19862e-07 -1.26746e-16)
(8.19234e-06 -6.08306e-06 1.54709e-17)
(3.7642e-06 -2.1137e-06 -1.68926e-17)
(2.1021e-06 1.59172e-06 -3.54635e-17)
(1.16283e-06 2.75494e-06 3.16295e-18)
(9.13782e-07 5.10017e-06 1.7777e-17)
(1.52607e-06 5.56146e-06 -6.07637e-18)
(2.13114e-06 5.55676e-06 -4.20717e-18)
(2.37883e-06 5.32735e-06 -8.26932e-18)
(9.10782e-06 5.83545e-06 -3.43187e-18)
(1.78055e-05 5.95589e-06 -1.66269e-17)
(2.16692e-05 4.62806e-06 -2.33102e-17)
(3.09664e-05 4.99887e-06 1.39822e-17)
(3.27611e-05 3.94886e-06 -8.29161e-18)
(3.10541e-05 3.48076e-06 -4.66522e-18)
(2.3472e-05 2.61981e-06 1.1708e-17)
(1.1692e-05 1.55719e-06 -4.29145e-17)
(-2.47559e-06 3.36398e-07 2.0843e-17)
(-1.62962e-05 -8.63795e-07 3.46109e-17)
(-2.87836e-05 -2.7291e-06 -4.0552e-17)
(-3.913e-05 -6.8617e-06 -4.16972e-17)
(5.89384e-05 1.57853e-05 -4.42394e-17)
(0.000128898 6.01511e-05 6.10775e-18)
(-5.9439e-05 -4.77544e-06 3.6139e-17)
(-0.000156133 -2.32008e-05 -5.42706e-17)
(-2.56366e-05 -4.7573e-06 1.90337e-17)
(4.23464e-06 3.46099e-06 -1.87372e-17)
(-9.35993e-06 3.10145e-06 2.28596e-18)
(-8.7479e-06 3.58519e-06 -3.89781e-17)
(-7.85626e-06 4.17733e-06 1.4002e-17)
(-7.30264e-06 4.63096e-06 -1.95519e-17)
(-6.67932e-06 4.90736e-06 5.31482e-17)
(-6.26067e-06 5.00403e-06 2.50437e-17)
(-6.04967e-06 4.97332e-06 -1.93734e-17)
(-5.88289e-06 4.9427e-06 -2.47822e-17)
(-5.75361e-06 4.93731e-06 -2.88767e-17)
(-5.60192e-06 4.94336e-06 1.78026e-17)
(-5.49356e-06 4.96759e-06 1.95999e-17)
(-5.32898e-06 4.95144e-06 7.70021e-19)
(-5.24113e-06 4.81197e-06 -1.74206e-17)
(-5.13001e-06 4.69343e-06 1.97771e-18)
(-5.0559e-06 4.51388e-06 -2.24249e-17)
(-4.96679e-06 4.33017e-06 -1.62045e-17)
(-4.90762e-06 4.09899e-06 -1.03033e-17)
(-4.83101e-06 3.87624e-06 -6.21851e-18)
(-4.77368e-06 3.61949e-06 -2.56687e-17)
(-4.69807e-06 3.36784e-06 -1.32878e-17)
(-4.63416e-06 3.08879e-06 1.08756e-16)
(-4.55115e-06 2.81767e-06 1.79285e-16)
(-4.47012e-06 2.52788e-06 1.10006e-16)
(-4.36834e-06 2.25476e-06 5.36179e-17)
(-4.25716e-06 1.96863e-06 -3.65399e-18)
(-4.12724e-06 1.6976e-06 4.34559e-17)
(-3.98476e-06 1.43013e-06 -6.80821e-18)
(-3.83166e-06 1.18031e-06 1.1227e-17)
(-3.66861e-06 9.46259e-07 8.73593e-17)
(-3.49805e-06 7.32115e-07 2.7708e-16)
(-3.32393e-06 5.42171e-07 -4.87216e-16)
(-3.13883e-06 3.44749e-07 7.24702e-17)
(-2.95702e-06 1.6848e-07 -1.72199e-16)
(-2.74437e-06 -5.91877e-09 5.16968e-16)
(-2.5417e-06 -1.54454e-07 -4.47828e-19)
(-2.31913e-06 -3.04599e-07 4.14197e-16)
(-2.11355e-06 -4.46035e-07 6.97257e-16)
(-1.89148e-06 -5.55378e-07 -3.77793e-16)
(-1.66586e-06 -6.51917e-07 3.91955e-16)
(-1.45416e-06 -7.13295e-07 -2.33566e-16)
(-1.28415e-06 -7.47389e-07 -3.25896e-16)
(-1.13841e-06 -7.73294e-07 -1.76884e-16)
(-1.0052e-06 -7.82189e-07 1.11419e-16)
(-8.73927e-07 -7.7959e-07 8.70927e-16)
(-7.59435e-07 -7.60604e-07 9.3301e-16)
(-6.54824e-07 -7.28086e-07 -4.54331e-17)
(-5.58194e-07 -6.90095e-07 -3.11342e-16)
(-4.76608e-07 -6.66003e-07 -5.77933e-17)
(-3.99547e-07 -6.68661e-07 -1.41473e-15)
(-3.1781e-07 -6.61516e-07 1.53363e-17)
(-2.33789e-07 -6.49258e-07 -5.91431e-16)
(-1.51255e-07 -6.0271e-07 -1.24624e-16)
(-6.38656e-08 -5.90252e-07 1.81079e-16)
(-9.19657e-06 5.12127e-06 -8.97752e-18)
(-1.29801e-05 7.16623e-06 -8.12153e-18)
(-1.12067e-05 7.53677e-06 7.41555e-18)
(-1.01656e-05 7.99842e-06 -8.07547e-19)
(-9.31705e-06 9.6242e-06 -1.5842e-17)
(-7.65531e-06 1.04606e-05 1.07036e-17)
(-7.30143e-06 1.04689e-05 6.22121e-18)
(-8.80565e-06 1.02457e-05 -1.51458e-17)
(-1.09879e-05 1.15948e-05 5.96312e-18)
(2.92987e-05 1.13667e-06 -9.28715e-18)
(-1.7464e-05 5.62671e-06 9.16694e-18)
(2.4268e-05 1.18547e-05 -9.33218e-18)
(1.47511e-05 8.42444e-06 -2.78508e-17)
(2.98745e-05 1.11035e-05 3.8946e-18)
(2.98664e-05 1.09174e-05 1.1095e-17)
(2.65733e-05 1.07601e-05 -1.17608e-18)
(1.74654e-05 9.78162e-06 2.2333e-17)
(4.71169e-06 8.24088e-06 -5.00818e-17)
(-8.8345e-06 6.25294e-06 -2.77264e-17)
(-2.02816e-05 5.11251e-06 1.99444e-18)
(-2.68775e-05 9.06894e-06 -1.53269e-18)
(-8.43743e-05 -3.79437e-06 2.21687e-17)
(-7.57458e-06 -3.5169e-06 -7.51322e-17)
(1.01034e-05 3.04767e-06 1.34951e-16)
(-1.30792e-05 -2.08628e-07 1.85152e-17)
(3.91536e-06 4.47989e-06 1.35535e-17)
(1.35805e-06 6.31416e-06 2.36729e-17)
(-3.29473e-06 6.42002e-06 4.78782e-17)
(-4.82921e-06 6.6597e-06 1.16049e-17)
(-5.62375e-06 6.68245e-06 2.33201e-17)
(-5.51899e-06 6.54299e-06 -1.57461e-17)
(-5.11255e-06 6.28164e-06 -5.03662e-17)
(-4.71807e-06 5.95531e-06 2.22762e-18)
(-4.46183e-06 5.66169e-06 1.27153e-17)
(-4.26947e-06 5.42511e-06 3.99002e-17)
(-4.14182e-06 5.2551e-06 -2.15388e-17)
(-3.99786e-06 5.09566e-06 2.14149e-18)
(-3.89953e-06 4.95123e-06 -2.09719e-17)
(-3.78017e-06 4.77767e-06 1.08621e-17)
(-3.69543e-06 4.58466e-06 -2.59178e-19)
(-3.60872e-06 4.35926e-06 -9.49184e-18)
(-3.552e-06 4.13132e-06 -6.4854e-18)
(-3.49261e-06 3.88216e-06 3.95733e-19)
(-3.45561e-06 3.63843e-06 -8.84223e-18)
(-3.41592e-06 3.38182e-06 -5.07739e-18)
(-3.39163e-06 3.13723e-06 5.07519e-17)
(-3.36281e-06 2.88265e-06 2.68486e-17)
(-3.34012e-06 2.63808e-06 -6.16878e-17)
(-3.31033e-06 2.388e-06 3.28601e-17)
(-3.27801e-06 2.14337e-06 1.40189e-17)
(-3.23599e-06 1.8991e-06 6.48506e-17)
(-3.18281e-06 1.66734e-06 -1.51639e-16)
(-3.12023e-06 1.43874e-06 9.97206e-18)
(-3.04282e-06 1.21918e-06 1.50198e-17)
(-2.9563e-06 1.01418e-06 7.30376e-17)
(-2.85724e-06 8.21277e-07 -8.39717e-17)
(-2.75221e-06 6.4081e-07 1.70395e-16)
(-2.6405e-06 4.71059e-07 6.88797e-17)
(-2.51165e-06 3.09878e-07 -1.00128e-16)
(-2.38155e-06 1.61664e-07 1.41105e-16)
(-2.23159e-06 1.03563e-08 3.42871e-17)
(-2.09089e-06 -1.25122e-07 5.54297e-16)
(-1.92311e-06 -2.50052e-07 -1.1721e-18)
(-1.75837e-06 -3.64664e-07 -3.2496e-16)
(-1.58137e-06 -4.54553e-07 5.01646e-16)
(-1.40763e-06 -5.33484e-07 3.67911e-18)
(-1.26273e-06 -5.7622e-07 -2.66857e-16)
(-1.13026e-06 -6.12317e-07 1.79632e-16)
(-1.0044e-06 -6.39077e-07 -5.4868e-17)
(-8.80308e-07 -6.60009e-07 3.90342e-16)
(-7.58541e-07 -6.60763e-07 2.13984e-17)
(-6.42586e-07 -6.36612e-07 -3.20058e-17)
(-5.46319e-07 -6.2642e-07 2.90362e-16)
(-4.6246e-07 -6.20822e-07 -1.81359e-18)
(-3.87658e-07 -6.21051e-07 -6.68018e-17)
(-3.10514e-07 -6.18125e-07 -1.09651e-16)
(-2.2781e-07 -6.11108e-07 -3.59853e-16)
(-1.46389e-07 -5.66307e-07 2.32559e-16)
(-6.20107e-08 -5.59509e-07 -3.41117e-16)
(-2.34023e-05 1.52132e-05 8.71043e-18)
(-2.38036e-05 1.56485e-05 4.41153e-18)
(-1.77997e-05 1.31962e-05 -1.27148e-17)
(-1.63331e-05 1.3053e-05 -1.3006e-17)
(-1.51899e-05 1.39477e-05 1.70482e-17)
(-1.37789e-05 1.43834e-05 -1.03029e-17)
(-1.36946e-05 1.41996e-05 6.75792e-18)
(-3.08494e-05 1.34242e-05 2.27005e-17)
(-0.000244449 1.21238e-05 -5.35331e-18)
(0.000175883 1.43053e-05 4.01524e-18)
(-1.10077e-05 -4.03316e-06 -2.04336e-18)
(7.76716e-05 2.7921e-05 3.06872e-18)
(-4.31117e-05 5.19174e-06 1.72367e-17)
(3.5184e-05 1.6207e-05 -6.90662e-18)
(1.85877e-05 1.36423e-05 -4.6723e-17)
(2.56587e-05 1.45121e-05 -1.85653e-17)
(2.335e-05 1.42848e-05 -1.98422e-17)
(1.78988e-05 1.36509e-05 1.89736e-18)
(8.3103e-06 1.24491e-05 1.64513e-17)
(-5.06732e-06 1.07929e-05 -7.02444e-18)
(-2.03716e-05 8.23172e-06 2.54439e-17)
(-1.20939e-05 8.01684e-06 -4.1444e-17)
(8.50708e-07 1.48766e-05 7.03397e-17)
(-3.46327e-05 4.36476e-06 -6.20319e-17)
(-4.46621e-05 -6.10878e-07 -6.61782e-17)
(-9.91169e-06 4.02643e-06 -2.12781e-17)
(1.57578e-06 6.47544e-06 -7.68614e-18)
(1.0396e-06 6.98723e-06 -6.10721e-18)
(1.38122e-07 7.29783e-06 3.54613e-18)
(-1.28229e-06 7.31954e-06 -1.50715e-17)
(-2.35106e-06 7.08783e-06 -3.93144e-18)
(-2.76954e-06 6.71233e-06 3.74135e-17)
(-2.78228e-06 6.27075e-06 2.17179e-17)
(-2.64101e-06 5.84554e-06 5.66032e-18)
(-2.50993e-06 5.47315e-06 -7.0431e-17)
(-2.432e-06 5.17726e-06 2.32038e-18)
(-2.39329e-06 4.93769e-06 -1.25427e-19)
(-2.36465e-06 4.72668e-06 2.11126e-18)
(-2.33932e-06 4.50465e-06 1.07958e-17)
(-2.31551e-06 4.27414e-06 2.22344e-18)
(-2.29678e-06 4.02471e-06 -7.26847e-18)
(-2.28507e-06 3.78211e-06 -6.6452e-18)
(-2.28192e-06 3.53078e-06 -1.5804e-17)
(-2.2854e-06 3.29454e-06 -3.74423e-18)
(-2.29704e-06 3.05105e-06 -2.92483e-18)
(-2.31267e-06 2.81859e-06 -1.62859e-17)
(-2.33317e-06 2.5831e-06 8.55925e-18)
(-2.35345e-06 2.36064e-06 -1.95195e-17)
(-2.37389e-06 2.13719e-06 -1.19923e-16)
(-2.38862e-06 1.93184e-06 8.39484e-17)
(-2.39748e-06 1.72812e-06 3.13534e-17)
(-2.39617e-06 1.53305e-06 -1.21247e-18)
(-2.38497e-06 1.34347e-06 1.51417e-17)
(-2.36154e-06 1.1646e-06 2.37728e-17)
(-2.32652e-06 9.90181e-07 -3.1296e-16)
(-2.28052e-06 8.25145e-07 -7.29798e-19)
(-2.22425e-06 6.69863e-07 5.12711e-17)
(-2.15862e-06 5.20315e-07 -2.57884e-17)
(-2.08421e-06 3.78927e-07 1.442e-16)
(-2.00049e-06 2.42813e-07 -6.93645e-16)
(-1.91181e-06 1.15023e-07 2.00748e-16)
(-1.80541e-06 -1.03655e-08 1.20474e-16)
(-1.69797e-06 -1.23849e-07 -8.051e-16)
(-1.57407e-06 -2.23457e-07 3.44081e-16)
(-1.44375e-06 -3.11139e-07 -3.097e-16)
(-1.31099e-06 -3.87396e-07 8.08278e-17)
(-1.18963e-06 -4.36179e-07 -1.95266e-16)
(-1.08058e-06 -4.74717e-07 2.04201e-16)
(-9.7058e-07 -5.09937e-07 1.47457e-16)
(-8.54016e-07 -5.35219e-07 -2.18764e-16)
(-7.35687e-07 -5.45994e-07 -3.43028e-16)
(-6.26383e-07 -5.55457e-07 -2.10689e-17)
(-5.33263e-07 -5.56235e-07 -4.79765e-16)
(-4.46638e-07 -5.60659e-07 -8.80592e-17)
(-3.72747e-07 -5.78811e-07 1.05398e-15)
(-2.97551e-07 -5.76367e-07 -2.66497e-16)
(-2.17795e-07 -5.70413e-07 8.22853e-16)
(-1.38987e-07 -5.31065e-07 -6.15642e-16)
(-5.82496e-08 -5.27745e-07 2.54883e-16)
(-3.01411e-05 2.41175e-05 -7.32053e-18)
(-2.70037e-05 2.24916e-05 1.28217e-18)
(-1.83181e-05 1.70632e-05 -1.95515e-18)
(-1.65378e-05 1.57361e-05 -5.7961e-18)
(-1.52683e-05 1.56122e-05 -1.81558e-17)
(-1.40869e-05 1.55706e-05 8.15819e-18)
(-1.28651e-05 1.52004e-05 2.43822e-18)
(-1.13984e-05 1.43257e-05 -1.87068e-17)
(1.51455e-05 1.41219e-05 3.65412e-18)
(-1.20865e-05 2.05645e-05 1.28885e-18)
(-1.33721e-05 1.2163e-05 2.86388e-18)
(-3.26012e-05 9.74116e-06 -1.32756e-18)
(8.32382e-07 8.40545e-06 -9.71547e-18)
(-1.32454e-05 8.66537e-06 -4.17635e-18)
(1.17194e-05 1.2404e-05 8.25369e-18)
(7.4028e-06 1.08609e-05 1.51338e-17)
(1.48355e-05 1.25175e-05 3.81651e-18)
(1.46036e-05 1.26234e-05 1.18448e-17)
(1.27381e-05 1.26291e-05 -2.2665e-17)
(7.58719e-06 1.19047e-05 6.80701e-18)
(1.83819e-06 1.10628e-05 1.30013e-17)
(1.47657e-06 1.21314e-05 2.7392e-17)
(-5.66783e-06 1.11867e-05 -2.71621e-17)
(-2.40432e-05 5.29967e-06 -6.04758e-17)
(-3.19029e-05 2.06786e-06 4.27814e-17)
(-1.73984e-05 3.05618e-06 2.02239e-17)
(-4.70971e-06 4.82847e-06 1.94497e-18)
(-1.07463e-06 5.54023e-06 -2.8697e-18)
(1.20205e-06 6.09203e-06 4.90237e-18)
(1.61343e-06 6.43429e-06 1.61391e-17)
(9.39276e-07 6.46613e-06 -3.42456e-19)
(1.17962e-07 6.26185e-06 -2.45283e-17)
(-5.12138e-07 5.87982e-06 -3.44382e-17)
(-8.53681e-07 5.43979e-06 -2.31371e-17)
(-9.97865e-07 5.0187e-06 5.31941e-17)
(-1.02691e-06 4.67815e-06 1.6864e-17)
(-1.04238e-06 4.4019e-06 -8.39774e-18)
(-1.07372e-06 4.17185e-06 -1.29455e-18)
(-1.11411e-06 3.94376e-06 1.1195e-18)
(-1.15695e-06 3.71683e-06 -5.73253e-18)
(-1.19547e-06 3.478e-06 -6.02654e-18)
(-1.23561e-06 3.24247e-06 3.91837e-18)
(-1.27646e-06 3.00418e-06 1.87036e-18)
(-1.32258e-06 2.77773e-06 1.90838e-18)
(-1.37041e-06 2.55441e-06 -9.19824e-18)
(-1.42009e-06 2.35105e-06 -6.20167e-18)
(-1.46895e-06 2.14959e-06 5.53032e-17)
(-1.51571e-06 1.96722e-06 -8.49161e-18)
(-1.55985e-06 1.78885e-06 7.27723e-18)
(-1.59901e-06 1.62326e-06 -7.25693e-17)
(-1.63311e-06 1.46141e-06 -4.06184e-18)
(-1.65867e-06 1.31368e-06 -2.32856e-17)
(-1.67776e-06 1.16659e-06 7.35946e-17)
(-1.68753e-06 1.02476e-06 3.7651e-18)
(-1.68953e-06 8.88548e-07 -2.01336e-16)
(-1.68185e-06 7.56141e-07 9.98118e-17)
(-1.66577e-06 6.27306e-07 -1.07631e-17)
(-1.64176e-06 5.03211e-07 -1.4093e-16)
(-1.6085e-06 3.84522e-07 1.39824e-16)
(-1.568e-06 2.69566e-07 1.96043e-16)
(-1.51764e-06 1.59364e-07 2.22766e-16)
(-1.4591e-06 5.34073e-08 -6.48492e-17)
(-1.38958e-06 -4.3543e-08 2.0168e-16)
(-1.30979e-06 -1.29329e-07 -3.05792e-16)
(-1.22193e-06 -2.06023e-07 3.08933e-17)
(-1.126e-06 -2.78169e-07 -1.28284e-16)
(-1.03911e-06 -3.22599e-07 4.28135e-16)
(-9.52412e-07 -3.58378e-07 1.15585e-17)
(-8.69326e-07 -3.87849e-07 1.74915e-18)
(-7.78671e-07 -4.20991e-07 -3.62045e-16)
(-6.81284e-07 -4.45428e-07 1.26629e-16)
(-5.9276e-07 -4.55779e-07 8.95253e-17)
(-5.01846e-07 -4.80315e-07 5.12753e-16)
(-4.30524e-07 -5.00837e-07 1.15847e-16)
(-3.50382e-07 -5.22901e-07 -1.08904e-15)
(-2.75364e-07 -5.28351e-07 -2.84451e-16)
(-2.00328e-07 -5.28732e-07 -1.41964e-16)
(-1.26011e-07 -4.92465e-07 1.93983e-16)
(-5.17897e-08 -4.97324e-07 3.55135e-16)
(-2.45854e-05 2.37828e-05 -4.31917e-18)
(-1.95378e-05 2.22583e-05 -3.26214e-18)
(-1.08366e-05 1.65407e-05 9.26438e-18)
(-9.58956e-06 1.4845e-05 2.7699e-18)
(-8.552e-06 1.39636e-05 -5.17844e-18)
(-7.74163e-06 1.34535e-05 -1.67398e-17)
(-7.14985e-06 1.30956e-05 -7.59538e-18)
(-7.07328e-06 1.25033e-05 1.33025e-17)
(-8.74057e-06 1.16987e-05 -8.53161e-18)
(-2.25628e-06 1.00797e-05 -1.11049e-17)
(-9.27225e-06 9.03576e-06 4.24126e-18)
(-0.000105054 8.47579e-06 8.99526e-20)
(7.40743e-05 8.00603e-06 8.42732e-18)
(-1.5478e-05 2.7746e-07 -4.33743e-18)
(3.61167e-05 1.51408e-05 -1.51768e-18)
(-2.74248e-05 3.5893e-06 1.99294e-17)
(1.5301e-05 1.00175e-05 3.4895e-17)
(2.34379e-06 8.2664e-06 -1.08187e-17)
(6.00919e-06 9.14972e-06 3.7796e-18)
(4.46362e-06 9.12144e-06 1.15128e-17)
(2.74457e-06 9.10342e-06 2.065e-18)
(-8.3056e-07 8.70316e-06 3.76956e-18)
(-3.8607e-06 7.60281e-06 5.94188e-18)
(-6.76146e-06 5.95648e-06 5.68116e-17)
(-1.00183e-05 4.38631e-06 2.01904e-17)
(-8.74659e-06 4.0547e-06 -4.37265e-19)
(-5.10928e-06 4.16011e-06 9.06411e-18)
(-2.90385e-06 4.13275e-06 1.20125e-18)
(-1.03388e-06 4.15565e-06 1.41976e-17)
(4.50113e-07 4.29962e-06 -1.93278e-18)
(1.11573e-06 4.42778e-06 -2.46188e-17)
(1.18959e-06 4.42289e-06 -2.72985e-17)
(9.79514e-07 4.25005e-06 1.81659e-17)
(7.88039e-07 4.0244e-06 8.53154e-18)
(2.40335e-07 3.71732e-06 -2.91679e-18)
(3.57902e-08 3.43915e-06 -3.0121e-18)
(-1.6048e-07 3.18802e-06 8.39917e-18)
(-2.73142e-07 2.99965e-06 8.8402e-18)
(-3.6136e-07 2.84236e-06 -8.44868e-18)
(-4.38067e-07 2.69766e-06 8.77145e-18)
(-5.11408e-07 2.53787e-06 1.29287e-17)
(-5.7976e-07 2.37208e-06 6.61341e-18)
(-6.42423e-07 2.20482e-06 -4.98334e-18)
(-6.99868e-07 2.05364e-06 -1.87433e-18)
(-7.52923e-07 1.90949e-06 -6.03616e-18)
(-8.01981e-07 1.77563e-06 1.63815e-17)
(-8.48411e-07 1.64239e-06 3.21878e-17)
(-8.90162e-07 1.51498e-06 -1.61325e-17)
(-9.30276e-07 1.38919e-06 1.66006e-17)
(-9.65368e-07 1.27554e-06 2.05188e-17)
(-9.99178e-07 1.16062e-06 2.91259e-17)
(-1.02764e-06 1.04732e-06 3.75307e-17)
(-1.05475e-06 9.34458e-07 -1.41501e-18)
(-1.07525e-06 8.26484e-07 2.11173e-17)
(-1.09274e-06 7.19836e-07 8.46176e-17)
(-1.10343e-06 6.17405e-07 -2.88201e-17)
(-1.10887e-06 5.16472e-07 -9.7392e-18)
(-1.10781e-06 4.17283e-07 1.52068e-16)
(-1.1003e-06 3.21364e-07 5.02324e-19)
(-1.08755e-06 2.28264e-07 1.22913e-16)
(-1.0664e-06 1.38981e-07 -3.3804e-16)
(-1.04017e-06 5.28809e-08 -1.05917e-16)
(-1.00368e-06 -2.55429e-08 -2.16655e-17)
(-9.61865e-07 -9.54168e-08 -2.08682e-16)
(-9.11322e-07 -1.58436e-07 9.67859e-17)
(-8.56226e-07 -2.17689e-07 6.35232e-17)
(-8.06106e-07 -2.6007e-07 -5.86202e-18)
(-7.49702e-07 -2.89511e-07 -1.60231e-16)
(-7.03274e-07 -3.22862e-07 -8.82206e-17)
(-6.41848e-07 -3.44465e-07 8.91906e-17)
(-5.78937e-07 -3.66476e-07 -5.30522e-17)
(-5.12272e-07 -3.92199e-07 -4.10586e-17)
(-4.50581e-07 -4.16899e-07 5.36244e-16)
(-3.81747e-07 -4.41643e-07 7.81872e-17)
(-3.14668e-07 -4.71683e-07 3.72235e-16)
(-2.4694e-07 -4.83268e-07 4.27185e-16)
(-1.8078e-07 -4.91501e-07 6.33054e-17)
(-1.15933e-07 -4.59934e-07 2.74044e-16)
(-4.91186e-08 -4.68822e-07 8.45759e-17)
(-8.04748e-06 2.16387e-05 -2.50626e-19)
(-2.87249e-06 1.99298e-05 -1.18084e-18)
(9.41969e-07 1.55149e-05 -1.29209e-18)
(1.07894e-06 1.33188e-05 -1.61018e-18)
(1.31748e-06 1.16681e-05 7.39525e-18)
(1.43426e-06 1.04548e-05 1.5058e-17)
(1.36577e-06 9.74529e-06 1.04077e-17)
(1.13451e-06 9.1894e-06 -4.59874e-18)
(1.02542e-06 8.60003e-06 5.16875e-18)
(1.37877e-06 7.97821e-06 1.59294e-17)
(4.98759e-07 6.9008e-06 -5.89828e-18)
(8.37917e-06 6.18583e-06 2.18752e-18)
(-1.65249e-06 7.8653e-06 6.86808e-18)
(-2.45632e-06 5.34505e-06 5.05418e-18)
(-5.65988e-06 3.69893e-06 6.25792e-19)
(-5.58244e-06 4.21207e-06 2.23278e-18)
(-2.30813e-06 4.19872e-06 -8.97074e-18)
(-2.28259e-06 4.15155e-06 9.39125e-18)
(-1.64439e-06 4.42884e-06 9.47046e-18)
(-2.3832e-06 4.66947e-06 -9.54496e-18)
(-2.6742e-06 4.95411e-06 -9.62217e-19)
(-2.6818e-06 5.15203e-06 3.41991e-18)
(-2.27671e-06 5.30221e-06 -9.63829e-18)
(-2.20522e-06 5.06865e-06 -3.93225e-17)
(-2.93046e-06 4.48551e-06 -3.34739e-17)
(-2.92921e-06 4.02497e-06 1.88591e-17)
(-1.78773e-06 3.75127e-06 -1.3862e-19)
(-8.92508e-07 3.47537e-06 3.4101e-18)
(-2.08948e-07 3.20982e-06 -2.71289e-17)
(3.59542e-07 3.03403e-06 -3.44525e-17)
(4.97282e-07 2.9002e-06 -1.58422e-18)
(2.71385e-07 2.62053e-06 4.50896e-17)
(3.77242e-07 1.99358e-06 -1.78491e-17)
(3.76367e-06 2.8657e-06 -1.29396e-17)
(2.02803e-07 2.76724e-06 -2.48603e-18)
(1.47875e-06 2.79613e-06 6.13594e-18)
(7.75298e-07 2.53207e-06 -7.88414e-18)
(5.83832e-07 2.38222e-06 -4.54654e-19)
(3.75205e-07 2.25525e-06 5.0193e-18)
(2.04933e-07 2.17528e-06 -2.2659e-19)
(6.772e-08 2.0974e-06 6.24801e-18)
(-4.34602e-08 2.01602e-06 -3.3982e-19)
(-1.4071e-07 1.92117e-06 3.30747e-18)
(-2.26749e-07 1.81749e-06 -4.77157e-19)
(-3.0469e-07 1.70346e-06 6.10642e-18)
(-3.75351e-07 1.58944e-06 -2.25816e-19)
(-4.40877e-07 1.47227e-06 -1.81359e-17)
(-4.99834e-07 1.36167e-06 -1.18374e-17)
(-5.55511e-07 1.24616e-06 -4.06734e-18)
(-6.06115e-07 1.13084e-06 2.26832e-17)
(-6.56038e-07 1.01188e-06 5.44994e-17)
(-7.00495e-07 9.03782e-07 -2.83241e-18)
(-7.43408e-07 7.94948e-07 -3.15022e-17)
(-7.79922e-07 6.95041e-07 2.11614e-17)
(-8.1436e-07 5.95821e-07 4.56234e-17)
(-8.4189e-07 5.00862e-07 -5.9167e-17)
(-8.66668e-07 4.05317e-07 9.77827e-17)
(-8.84447e-07 3.14434e-07 5.16388e-17)
(-8.97453e-07 2.24953e-07 1.26359e-17)
(-9.04105e-07 1.39539e-07 1.82647e-16)
(-9.03694e-07 5.75938e-08 7.42557e-17)
(-8.97253e-07 -1.92887e-08 -1.63555e-16)
(-8.80519e-07 -8.83618e-08 1.63333e-16)
(-8.5895e-07 -1.48876e-07 1.1108e-16)
(-8.27019e-07 -2.02404e-07 -1.69011e-16)
(-7.92402e-07 -2.54022e-07 2.13728e-17)
(-7.45688e-07 -2.84686e-07 -6.06062e-17)
(-7.13501e-07 -3.18847e-07 -1.39927e-16)
(-6.78487e-07 -3.34561e-07 -6.27121e-17)
(-6.31774e-07 -3.54409e-07 3.12417e-17)
(-5.86271e-07 -3.72873e-07 8.91004e-17)
(-5.26669e-07 -3.86149e-07 -9.96235e-17)
(-4.692e-07 -4.11323e-07 -4.09935e-16)
(-4.01778e-07 -4.33511e-07 -1.06299e-16)
(-3.35794e-07 -4.59818e-07 1.96594e-16)
(-2.62287e-07 -4.71498e-07 -2.16238e-16)
(-1.93269e-07 -4.77511e-07 -3.47902e-16)
(-1.26718e-07 -4.40454e-07 -2.05655e-16)
(-5.79e-08 -4.40158e-07 -3.34943e-16)
(7.26139e-06 1.16119e-05 1.08097e-18)
(9.4449e-06 1.10704e-05 5.43615e-18)
(7.73368e-06 9.67505e-06 -6.39444e-19)
(6.98405e-06 8.25002e-06 -2.31904e-18)
(6.48842e-06 6.97075e-06 -4.47256e-18)
(6.02063e-06 5.81021e-06 -5.83455e-18)
(5.51498e-06 5.04758e-06 -5.50399e-18)
(4.9503e-06 4.57629e-06 -4.19311e-18)
(4.36137e-06 4.28136e-06 -2.30858e-18)
(3.98577e-06 3.97332e-06 8.95915e-19)
(3.24154e-06 3.58351e-06 1.00328e-17)
(1.22428e-06 3.1735e-06 5.95321e-19)
(4.05678e-06 2.52869e-06 -5.61024e-19)
(1.68262e-06 2.01993e-06 -8.50928e-18)
(1.78159e-06 2.09772e-06 4.50353e-19)
(1.95211e-07 1.73068e-06 -1.84382e-18)
(6.26568e-07 1.72041e-06 -1.32338e-17)
(-4.5836e-07 1.59909e-06 -3.80942e-18)
(-9.92392e-07 1.62097e-06 -6.20759e-19)
(-2.5153e-06 1.636e-06 6.34983e-18)
(-4.14047e-06 1.77663e-06 5.09662e-18)
(-5.46361e-06 2.01763e-06 -5.21099e-18)
(-6.05766e-06 2.31971e-06 -9.7097e-18)