/*--------------------------------*- C++ -*----------------------------------*\
| =========                 |                                                 |
| \\      /  F ield         | OpenFOAM: The Open Source CFD Toolbox           |
|  \\    /   O peration     | Version:  2306                                  |
|   \\  /    A nd           | Website:  www.openfoam.com                      |
|    \\/     M anipulation  |                                                 |
\*---------------------------------------------------------------------------*/
FoamFile
{
    version     2.0;
    format      ascii;
    arch        "LSB;label=32;scalar=64";
    class       volScalarField;
    location    "975";
    object      nuTilda;
}
// * * * * * * * * * * * * * * * * * * * * * * * * * * * * * * * * * * * * * //

dimensions      [0 2 -1 0 0 0 0];

internalField   nonuniform List<scalar> 
1340
(
4.00638e-05
4.00652e-05
4.00644e-05
4.00292e-05
4.00664e-05
4.00652e-05
4.00255e-05
4.0029e-05
4.00676e-05
4.00662e-05
4.00087e-05
4.00129e-05
4.00252e-05
4.00288e-05
4.00689e-05
4.00673e-05
4.00182e-05
4.00101e-05
4.00086e-05
4.00128e-05
4.0025e-05
4.00286e-05
4.00703e-05
4.00686e-05
4.0042e-05
4.00349e-05
4.00271e-05
4.0019e-05
4.00106e-05
4.00086e-05
4.00126e-05
4.00248e-05
4.00283e-05
4.00717e-05
4.00701e-05
4.00594e-05
4.00541e-05
4.00492e-05
4.00431e-05
4.0036e-05
4.0028e-05
4.00198e-05
4.00111e-05
4.00086e-05
4.00125e-05
4.00246e-05
4.0028e-05
4.00732e-05
4.00718e-05
4.00826e-05
4.00787e-05
4.00736e-05
4.00673e-05
4.00608e-05
4.00554e-05
4.00504e-05
4.00443e-05
4.00371e-05
4.0029e-05
4.00206e-05
4.00117e-05
4.00086e-05
4.00123e-05
4.00244e-05
4.00276e-05
4.00747e-05
4.00736e-05
4.00945e-05
4.00931e-05
4.00914e-05
4.00894e-05
4.00871e-05
4.00842e-05
4.00803e-05
4.00752e-05
4.00689e-05
4.00623e-05
4.00567e-05
4.00517e-05
4.00456e-05
4.00383e-05
4.003e-05
4.00216e-05
4.00123e-05
4.00086e-05
4.00121e-05
4.00242e-05
4.00271e-05
4.00762e-05
4.00756e-05
4.00992e-05
4.00992e-05
4.00991e-05
4.0099e-05
4.00986e-05
4.00981e-05
4.00973e-05
4.00962e-05
4.00948e-05
4.00931e-05
4.00911e-05
4.00888e-05
4.00859e-05
4.00821e-05
4.0077e-05
4.00706e-05
4.00639e-05
4.00582e-05
4.00531e-05
4.0047e-05
4.00396e-05
4.00312e-05
4.00225e-05
4.0013e-05
4.00087e-05
4.00119e-05
4.00239e-05
4.00266e-05
4.00778e-05
4.00779e-05
4.01021e-05
4.01035e-05
4.01032e-05
4.01027e-05
4.01023e-05
4.01018e-05
4.01014e-05
4.01012e-05
4.01011e-05
4.0101e-05
4.0101e-05
4.01009e-05
4.01009e-05
4.01008e-05
4.01008e-05
4.01007e-05
4.01004e-05
4.00998e-05
4.00991e-05
4.0098e-05
4.00966e-05
4.00949e-05
4.00929e-05
4.00906e-05
4.00877e-05
4.00839e-05
4.00789e-05
4.00725e-05
4.00656e-05
4.00597e-05
4.00546e-05
4.00484e-05
4.00409e-05
4.00324e-05
4.00236e-05
4.00138e-05
4.00089e-05
4.00116e-05
4.00237e-05
4.0026e-05
4.00794e-05
4.00803e-05
4.42341e-06
1.16845e-06
0
0
0.0001555
0.000456873
0.0161114
0.0551936
0.112664
0.176087
0.23551
0.285618
0.324075
0.350415
0.365813
0.372618
0.373749
0.362752
0.330896
0.272111
0.189034
0.0999989
0.0322418
0.00112903
0.000353314
0
0
0
5.02729e-06
1.96665e-05
4.02326e-05
4.33299e-05
4.07112e-05
3.96967e-05
3.99348e-05
4.01371e-05
4.01376e-05
4.01121e-05
4.01081e-05
4.01074e-05
4.01048e-05
4.01034e-05
4.01034e-05
4.01033e-05
4.01031e-05
4.01029e-05
4.01028e-05
4.01027e-05
4.01027e-05
4.01026e-05
4.01026e-05
4.01025e-05
4.01024e-05
4.01022e-05
4.01017e-05
4.01009e-05
4.00998e-05
4.00985e-05
4.00968e-05
4.00948e-05
4.00924e-05
4.00896e-05
4.00858e-05
4.00808e-05
4.00744e-05
4.00674e-05
4.00614e-05
4.00562e-05
4.00499e-05
4.00424e-05
4.00337e-05
4.00247e-05
4.00147e-05
4.00091e-05
4.00114e-05
4.00234e-05
4.00254e-05
4.00809e-05
4.00829e-05
4.039e-05
8.52724e-06
2.23049e-06
0
0
4.79473e-06
0.00209064
0.00821531
0.0366841
0.0875628
0.150378
0.213179
0.26828
0.31193
0.342839
0.361581
0.370722
0.372994
0.364361
0.336089
0.281259
0.201172
0.112023
0.0397287
0.00354688
0.000991464
0
0
0
3.16873e-06
1.18371e-05
3.8061e-05
4.43834e-05
4.16006e-05
3.98386e-05
3.98588e-05
4.00982e-05
4.01202e-05
4.00945e-05
4.00998e-05
4.01097e-05
4.01095e-05
4.01061e-05
4.01047e-05
4.01047e-05
4.01048e-05
4.01047e-05
4.01046e-05
4.01045e-05
4.01045e-05
4.01044e-05
4.01044e-05
4.01043e-05
4.0104e-05
4.01036e-05
4.01028e-05
4.01018e-05
4.01004e-05
4.00987e-05
4.00967e-05
4.00944e-05
4.00916e-05
4.00879e-05
4.00829e-05
4.00764e-05
4.00693e-05
4.00632e-05
4.00578e-05
4.00516e-05
4.00439e-05
4.00351e-05
4.0026e-05
4.00156e-05
4.00094e-05
4.00111e-05
4.00231e-05
4.00248e-05
4.00824e-05
4.00856e-05
4.33678e-05
4.05089e-05
1.38353e-05
3.60115e-06
0
0
0
0.00062523
0.0022944
0.0212162
0.0633327
0.122987
0.187862
0.247788
0.297032
0.333187
0.356237
0.368288
0.371875
0.365531
0.340763
0.289975
0.213228
0.123974
0.0476112
0.00672886
0.00181246
0
0
0
8.34034e-07
2.02658e-06
3.22708e-05
4.36611e-05
4.21602e-05
4.00176e-05
3.98652e-05
4.01833e-05
4.02139e-05
4.01224e-05
4.00873e-05
4.00985e-05
4.01094e-05
4.01099e-05
4.01074e-05
4.01064e-05
4.01064e-05
4.01065e-05
4.01065e-05
4.01064e-05
4.01064e-05
4.01063e-05
4.01062e-05
4.0106e-05
4.01056e-05
4.01049e-05
4.01039e-05
4.01025e-05
4.01008e-05
4.00988e-05
4.00965e-05
4.00937e-05
4.009e-05
4.00851e-05
4.00786e-05
4.00714e-05
4.0065e-05
4.00596e-05
4.00533e-05
4.00456e-05
4.00366e-05
4.00273e-05
4.00167e-05
4.00097e-05
4.00109e-05
4.00228e-05
4.00242e-05
4.00839e-05
4.00886e-05
4.03585e-05
4.30389e-05
4.04839e-05
2.03424e-05
5.28612e-06
0
0
0
2.55774e-05
0.00262521
0.0102355
0.0421249
0.0955617
0.160485
0.224649
0.279759
0.321736
0.34965
0.364946
0.36995
0.365759
0.344418
0.29774
0.224252
0.135207
0.0555171
0.0102193
0.00269911
0
0
0
7.00105e-08
7.29525e-06
2.93279e-05
4.31383e-05
4.28055e-05
3.9882e-05
3.92595e-05
3.98407e-05
4.02103e-05
4.0209e-05
4.01251e-05
4.00953e-05
4.01019e-05
4.01096e-05
4.01103e-05
4.01089e-05
4.01084e-05
4.01084e-05
4.01085e-05
4.01084e-05
4.01084e-05
4.01083e-05
4.01081e-05
4.01077e-05
4.0107e-05
4.0106e-05
4.01047e-05
4.0103e-05
4.0101e-05
4.00987e-05
4.00959e-05
4.00923e-05
4.00874e-05
4.00809e-05
4.00735e-05
4.0067e-05
4.00615e-05
4.00551e-05
4.00474e-05
4.00382e-05
4.00287e-05
4.00178e-05
4.00102e-05
4.00106e-05
4.00224e-05
4.00235e-05
4.00852e-05
4.00916e-05
3.99243e-05
4.03204e-05
4.2444e-05
4.06845e-05
2.88585e-05
7.39117e-06
1.11632e-07
0
0
0
0.000949592
0.00357134
0.024465
0.0682905
0.129657
0.196604
0.258183
0.307621
0.34215
0.362036
0.369473
0.36709
0.348896
0.306452
0.236537
0.148141
0.0650913
0.0135439
0.00395238
0.000132212
0
0
0
5.77111e-06
2.25376e-05
4.14434e-05
4.58524e-05
4.26591e-05
3.99633e-05
3.94813e-05
3.98859e-05
4.01588e-05
4.01774e-05
4.0126e-05
4.01039e-05
4.01065e-05
4.01112e-05
4.01116e-05
4.01108e-05
4.01105e-05
4.01105e-05
4.01105e-05
4.01104e-05
4.01103e-05
4.01099e-05
4.01093e-05
4.01083e-05
4.0107e-05
4.01054e-05
4.01033e-05
4.0101e-05
4.00982e-05
4.00946e-05
4.00898e-05
4.00834e-05
4.00759e-05
4.00692e-05
4.00635e-05
4.00571e-05
4.00493e-05
4.004e-05
4.00302e-05
4.00191e-05
4.00107e-05
4.00104e-05
4.00221e-05
4.00228e-05
4.00866e-05
4.00949e-05
4.01266e-05
4.00034e-05
4.02544e-05
4.12598e-05
4.10316e-05
3.694e-05
1.58335e-05
4.16225e-06
3.47787e-08
0
0
3.32182e-05
0.00247486
0.00948575
0.0352542
0.0805663
0.140514
0.205011
0.264249
0.311542
0.343842
0.361343
0.364861
0.354172
0.322602
0.265225
0.186309
0.102711
0.0405653
0.00590297
0.00197118
5.3135e-05
0
0
6.78515e-07
5.15257e-06
1.76021e-05
3.68952e-05
4.39886e-05
4.27336e-05
4.04066e-05
3.9652e-05
3.98697e-05
4.01207e-05
4.01632e-05
4.01259e-05
4.01072e-05
4.01095e-05
4.01136e-05
4.0114e-05
4.01133e-05
4.01131e-05
4.01131e-05
4.0113e-05
4.01127e-05
4.01121e-05
4.01112e-05
4.01099e-05
4.01083e-05
4.01063e-05
4.01039e-05
4.01011e-05
4.00976e-05
4.00929e-05
4.00865e-05
4.00788e-05
4.00719e-05
4.0066e-05
4.00595e-05
4.00516e-05
4.00421e-05
4.0032e-05
4.00206e-05
4.00115e-05
4.00102e-05
4.00217e-05
4.00222e-05
4.00878e-05
4.00984e-05
4.01311e-05
4.01268e-05
4.00267e-05
4.012e-05
4.05896e-05
4.20614e-05
4.00175e-05
3.32671e-05
5.61771e-06
1.56145e-06
0
0
0
7.65015e-05
0.00231278
0.00855884
0.0315886
0.0738206
0.131388
0.195284
0.255494
0.304479
0.33842
0.356341
0.358316
0.34249
0.302912
0.238038
0.158253
0.08232
0.0297266
0.00260758
0.000953937
0
0
0
4.63473e-07
5.37668e-06
2.00803e-05
3.833e-05
4.41682e-05
4.23236e-05
4.01398e-05
3.96731e-05
3.99701e-05
4.01629e-05
4.01592e-05
4.01199e-05
4.01104e-05
4.01151e-05
4.01176e-05
4.01172e-05
4.01166e-05
4.01164e-05
4.01161e-05
4.01156e-05
4.01147e-05
4.01135e-05
4.01119e-05
4.01099e-05
4.01074e-05
4.01046e-05
4.01011e-05
4.00965e-05
4.00901e-05
4.00823e-05
4.00751e-05
4.0069e-05
4.00623e-05
4.00543e-05
4.00446e-05
4.00342e-05
4.00224e-05
4.00125e-05
4.00099e-05
4.00213e-05
4.00215e-05
4.0089e-05
4.01021e-05
4.01104e-05
4.01206e-05
4.01111e-05
4.00722e-05
4.00523e-05
4.03969e-05
4.12768e-05
4.21274e-05
3.85922e-05
2.51269e-05
6.51119e-06
8.75422e-08
0
0
0
7.29055e-05
0.00202489
0.0074184
0.0294681
0.0707336
0.127817
0.191954
0.252952
0.302743
0.336809
0.352896
0.350751
0.326841
0.277282
0.206167
0.127506
0.0595733
0.0166621
0.00468988
0.000137386
0
0
0
5.57386e-07
6.96753e-06
2.71483e-05
4.19082e-05
4.37681e-05
4.11326e-05
3.97073e-05
3.97749e-05
4.00918e-05
4.01744e-05
4.0138e-05
4.01147e-05
4.01155e-05
4.01194e-05
4.01202e-05
4.01201e-05
4.01199e-05
4.01193e-05
4.01185e-05
4.01173e-05
4.01157e-05
4.01136e-05
4.01112e-05
4.01084e-05
4.01049e-05
4.01003e-05
4.0094e-05
4.00861e-05
4.00786e-05
4.00722e-05
4.00653e-05
4.00572e-05
4.00473e-05
4.00366e-05
4.00244e-05
4.00136e-05
4.00098e-05
4.00208e-05
4.00209e-05
4.009e-05
4.01058e-05
4.01069e-05
4.01118e-05
4.01101e-05
4.00927e-05
4.00414e-05
4.01837e-05
4.06423e-05
4.20258e-05
4.13516e-05
3.61543e-05
1.3364e-05
3.52536e-06
0
0
0
0
6.67272e-05
0.00201254
0.00739914
0.0295912
0.0712372
0.128961
0.193894
0.255425
0.304719
0.336661
0.347865
0.338471
0.304602
0.245811
0.17058
0.0946897
0.0376017
0.00637428
0.00190997
0
0
0
0
4.12902e-06
1.54826e-05
3.66765e-05
4.43829e-05
4.25838e-05
4.01969e-05
3.96902e-05
3.99918e-05
4.01693e-05
4.0161e-05
4.01293e-05
4.01229e-05
4.01242e-05
4.01237e-05
4.0123e-05
4.01228e-05
4.01224e-05
4.01213e-05
4.01197e-05
4.01176e-05
4.01151e-05
4.01123e-05
4.01088e-05
4.01043e-05
4.00981e-05
4.00901e-05
4.00824e-05
4.00756e-05
4.00685e-05
4.00603e-05
4.00502e-05
4.00391e-05
4.00266e-05
4.0015e-05
4.00098e-05
4.00202e-05
4.00202e-05
4.00908e-05
4.01096e-05
4.01042e-05
4.01054e-05
4.01073e-05
4.01112e-05
4.00945e-05
4.0071e-05
4.00315e-05
4.03489e-05
4.11096e-05
4.22394e-05
4.0012e-05
2.84511e-05
7.3503e-06
9.7993e-08
0
0
0
0
7.02796e-05
0.00225514
0.00838086
0.0320434
0.0754858
0.135
0.200997
0.26216
0.308919
0.335919
0.340343
0.321259
0.276311
0.208667
0.13152
0.0628864
0.0193336
0.00528044
0.000113831
0
0
0
8.32491e-07
1.75412e-06
2.81627e-05
4.23376e-05
4.35789e-05
4.08694e-05
3.97114e-05
3.98654e-05
4.01139e-05
4.0148e-05
4.01229e-05
4.01221e-05
4.01297e-05
4.01305e-05
4.01278e-05
4.01261e-05
4.01251e-05
4.01238e-05
4.01218e-05
4.01193e-05
4.01164e-05
4.01129e-05
4.01085e-05
4.01024e-05
4.00944e-05
4.00864e-05
4.00793e-05
4.0072e-05
4.00636e-05
4.00534e-05
4.00419e-05
4.0029e-05
4.00166e-05
4.00099e-05
4.00196e-05
4.00195e-05
4.00914e-05
4.01133e-05
4.01041e-05
4.01045e-05
4.0105e-05
4.01066e-05
4.01084e-05
4.01052e-05
4.00799e-05
4.00343e-05
4.011e-05
4.05109e-05
4.17906e-05
4.16635e-05
3.69217e-05
1.41303e-05
3.74026e-06
1.20811e-08
0
0
0
0
8.40724e-05
0.00259091
0.00965746
0.0367569
0.0836163
0.145891
0.212743
0.271993
0.314088
0.333371
0.328505
0.29751
0.240522
0.166104
0.0913832
0.0348674
0.00498728
0.00149009
1.99944e-05
0
0
5.17555e-08
4.88499e-06
1.87753e-05
3.9036e-05
4.41454e-05
4.17896e-05
3.99697e-05
3.98885e-05
4.01745e-05
4.02104e-05
4.01378e-05
4.01109e-05
4.01219e-05
4.01317e-05
4.01324e-05
4.01301e-05
4.01281e-05
4.01262e-05
4.01237e-05
4.01208e-05
4.01173e-05
4.0113e-05
4.0107e-05
4.00991e-05
4.00909e-05
4.00834e-05
4.00757e-05
4.00672e-05
4.00568e-05
4.0045e-05
4.00316e-05
4.00185e-05
4.00101e-05
4.0019e-05
4.00187e-05
4.00916e-05
4.01169e-05
4.01047e-05
4.0105e-05
4.01054e-05
4.01057e-05
4.01068e-05
4.01081e-05
4.01101e-05
4.00937e-05
4.00644e-05
4.00085e-05
4.02554e-05
4.0916e-05
4.23519e-05
3.93931e-05
3.10292e-05
1.64765e-06
5.71635e-07
0
0
0
0
0
0.0001024
0.00338615
0.0127907
0.0445744
0.0963797
0.1618
0.228553
0.283695
0.318286
0.3272
0.3101
0.265299
0.197227
0.120659
0.0545037
0.0143751
0.000829478
0.000269855
0
0
0
2.40759e-06
8.53577e-06
3.33097e-05
4.36406e-05
4.22826e-05
3.97334e-05
3.93978e-05
3.99771e-05
4.02605e-05
4.02229e-05
4.01465e-05
4.01257e-05
4.01306e-05
4.01341e-05
4.01332e-05
4.01309e-05
4.01283e-05
4.01253e-05
4.01218e-05
4.01175e-05
4.01117e-05
4.01039e-05
4.00955e-05
4.00877e-05
4.00796e-05
4.0071e-05
4.00603e-05
4.00482e-05
4.00344e-05
4.00206e-05
4.00106e-05
4.00184e-05
4.00179e-05
4.00918e-05
4.01204e-05
4.01058e-05
4.01061e-05
4.01064e-05
4.01068e-05
4.01071e-05
4.01075e-05
4.01093e-05
4.01106e-05
4.01084e-05
4.00813e-05
4.00368e-05
4.00493e-05
4.0527e-05
4.15374e-05
4.21544e-05
3.67183e-05
2.19415e-05
5.71468e-06
1.27464e-07
0
0
0
0
0
0.000572802
0.00184628
0.0186371
0.0564441
0.114158
0.182313
0.246887
0.294776
0.317932
0.313731
0.280883
0.221307
0.145964
0.0740443
0.0255701
0.00321753
0.0007441
0
0
0
2.67372e-07
7.03231e-06
2.80233e-05
4.45038e-05
4.58704e-05
4.15789e-05
3.94445e-05
3.95206e-05
4.00073e-05
4.01858e-05
4.01728e-05
4.01437e-05
4.01366e-05
4.01369e-05
4.0136e-05
4.01336e-05
4.01305e-05
4.0127e-05
4.01227e-05
4.01171e-05
4.01093e-05
4.0101e-05
4.00928e-05
4.00843e-05
4.00753e-05
4.00645e-05
4.00522e-05
4.00378e-05
4.00234e-05
4.00116e-05
4.00176e-05
4.00169e-05
4.00908e-05
4.0124e-05
4.01067e-05
4.0107e-05
4.01073e-05
4.01077e-05
4.01081e-05
4.01084e-05
4.01088e-05
4.01098e-05
4.01116e-05
4.01135e-05
4.01009e-05
4.00644e-05
4.00085e-05
4.0238e-05
4.09284e-05
4.23531e-05
4.08625e-05
3.40882e-05
1.63817e-05
4.33504e-06
1.26178e-07
0
0
0
0
2.0787e-05
0.00152804
0.00563515
0.0284689
0.0743033
0.139091
0.210454
0.272567
0.312599
0.322598
0.301578
0.249435
0.173969
0.0943813
0.0310226
0.0092794
0.00105612
0.000450635
0.000151428
3.0143e-05
0
1.14059e-06
1.0034e-06
3.17203e-05
4.4017e-05
4.38626e-05
4.11156e-05
3.99894e-05
3.99671e-05
4.01092e-05
4.01532e-05
4.01484e-05
4.01419e-05
4.01395e-05
4.01374e-05
4.01345e-05
4.01309e-05
4.01267e-05
4.01212e-05
4.01136e-05
4.01052e-05
4.00968e-05
4.00879e-05
4.00787e-05
4.00678e-05
4.00551e-05
4.00405e-05
4.00252e-05
4.00123e-05
4.00175e-05
4.00163e-05
4.00919e-05
4.01266e-05
4.01077e-05
4.01081e-05
4.01085e-05
4.01089e-05
4.01094e-05
4.01099e-05
4.01103e-05
4.01109e-05
4.01114e-05
4.01133e-05
4.01152e-05
4.01166e-05
4.00895e-05
4.00516e-05
4.00216e-05
4.04445e-05
4.13912e-05
4.23482e-05
4.04464e-05
3.37341e-05
1.53175e-05
3.79968e-06
0
0
0
0
0
6.71698e-05
0.00173117
0.00593915
0.027641
0.0690093
0.125971
0.188265
0.242908
0.278905
0.288035
0.267673
0.219475
0.153547
0.0889299
0.0431272
0.017491
0.00558739
0.00105753
0.000239808
0
3.34616e-08
5.39748e-06
2.04353e-05
3.52557e-05
4.04777e-05
4.08075e-05
4.03234e-05
4.01368e-05
4.01339e-05
4.01497e-05
4.01519e-05
4.01495e-05
4.01468e-05
4.01438e-05
4.01402e-05
4.0136e-05
4.01306e-05
4.01234e-05
4.01151e-05
4.01064e-05
4.00967e-05
4.00868e-05
4.00754e-05
4.00625e-05
4.00468e-05
4.00309e-05
4.00148e-05
4.00174e-05
4.0015e-05
4.00869e-05
4.01332e-05
)
;

boundaryField
{
    inlet
    {
        type            freestream;
        freestreamValue uniform 4e-05;
        value           nonuniform List<scalar> 
27
(
4.00638e-05
4.00644e-05
4.00652e-05
4.00662e-05
4.00673e-05
4.00686e-05
4.00701e-05
4.00718e-05
4.00736e-05
4.00756e-05
4.00779e-05
4.00803e-05
4.00829e-05
4.00856e-05
4.00886e-05
4.00916e-05
4.00949e-05
4.00984e-05
4.01021e-05
4.01058e-05
4.01096e-05
4.01133e-05
4.01169e-05
4.01204e-05
4.0124e-05
4.01266e-05
4.01332e-05
)
;
    }
    outlet
    {
        type            freestream;
        freestreamValue uniform 4e-05;
        value           nonuniform List<scalar> 
78
(
4.01077e-05
4.01081e-05
4.01085e-05
4.01089e-05
4.01094e-05
4.01099e-05
4.01103e-05
4.01109e-05
4.01114e-05
4.01133e-05
4.01152e-05
4.01166e-05
4.00895e-05
4.00516e-05
4.00216e-05
4.04445e-05
4.13912e-05
4.23482e-05
4.04464e-05
3.37341e-05
1.53175e-05
3.79968e-06
0
0
0
0
0
6.71698e-05
0.00173117
0.00593915
0.027641
0.0690093
0.125971
0.188265
0.242908
0.278905
0.288035
0.267673
0.219475
0.153547
0.0889299
0.0431272
0.017491
0.00558739
0.00105753
0.000239808
0
3.34616e-08
5.39748e-06
2.04353e-05
3.52557e-05
4.04777e-05
4.08075e-05
4.03234e-05
4.01368e-05
4.01339e-05
4.01497e-05
4.01519e-05
4.01495e-05
4.01468e-05
4.01438e-05
4.01402e-05
4.0136e-05
4.01306e-05
4.01234e-05
4.01151e-05
4.01064e-05
4.00967e-05
4.00868e-05
4.00754e-05
4.00625e-05
4.00468e-05
4.00309e-05
4.00148e-05
4.00174e-05
4.0015e-05
4.00869e-05
4.01332e-05
)
;
    }
    walls
    {
        type            fixedValue;
        value           nonuniform List<scalar> 0();
    }
    frontAndBack
    {
        type            empty;
    }
    procBoundary7to3
    {
        type            processor;
        value           nonuniform List<scalar> 
16
(
3.94354e-05
4.33034e-05
4.04928e-05
3.99078e-05
4.01143e-05
4.01426e-05
4.01173e-05
4.01084e-05
4.01054e-05
4.01054e-05
4.01039e-05
4.01037e-05
4.01044e-05
4.01055e-05
4.01064e-05
4.01073e-05
)
;
    }
    procBoundary7to6
    {
        type            processor;
        value           nonuniform List<scalar> 
91
(
4.00634e-05
4.00641e-05
4.00641e-05
4.00293e-05
4.00293e-05
4.00257e-05
4.00257e-05
4.00088e-05
4.0013e-05
4.0013e-05
4.00175e-05
4.00097e-05
4.00097e-05
4.00409e-05
4.00339e-05
4.00262e-05
4.00262e-05
4.00581e-05
4.00528e-05
4.0048e-05
4.0048e-05
4.0081e-05
4.00771e-05
4.0072e-05
4.00658e-05
4.00658e-05
4.00929e-05
4.00915e-05
4.00898e-05
4.00878e-05
4.00855e-05
4.00855e-05
4.00976e-05
4.00976e-05
4.00975e-05
4.00974e-05
4.0097e-05
4.00964e-05
4.00956e-05
4.00956e-05
4.01038e-05
4.01027e-05
4.01016e-05
4.01008e-05
4.01003e-05
4.00999e-05
4.00996e-05
4.00995e-05
4.00994e-05
4.00993e-05
4.00993e-05
4.00993e-05
4.00993e-05
3.75359e-08
0
0
0.00119367
0.00467791
0.0287902
0.0763102
0.137212
0.199168
0.254605
0.299951
0.333766
0.35618
0.368979
0.374736
0.374525
0.360827
0.3252
0.26251
0.176661
0.0877932
0.0258265
0.00675881
3.02704e-05
0
0
0
6.46531e-06
2.57805e-05
4.17847e-05
4.28085e-05
4.04506e-05
3.98131e-05
4.004e-05
4.01506e-05
4.01245e-05
4.01028e-05
4.01028e-05
)
;
    }
}


// ************************************************************************* //
