/*--------------------------------*- C++ -*----------------------------------*\
| =========                 |                                                 |
| \\      /  F ield         | OpenFOAM: The Open Source CFD Toolbox           |
|  \\    /   O peration     | Version:  2306                                  |
|   \\  /    A nd           | Website:  www.openfoam.com                      |
|    \\/     M anipulation  |                                                 |
\*---------------------------------------------------------------------------*/
FoamFile
{
    version     2.0;
    format      ascii;
    arch        "LSB;label=32;scalar=64";
    class       volScalarField;
    location    "525";
    object      turbulenceProperties:epsilon;
}
// * * * * * * * * * * * * * * * * * * * * * * * * * * * * * * * * * * * * * //

dimensions      [0 2 -3 0 0 0 0];

internalField   nonuniform List<scalar> 
1340
(
334.417
232.451
147.191
25.8481
26.5006
21.7485
17.6572
22.3832
31.9651
23.9928
16.951
20.4203
32.3914
26.5967
19.7606
21.4019
16.897
21.0065
19.7601
21.7934
1.65648
7.51513
13.9856
19.8552
0.033304
0.415853
4.90075
14.1015
0.00377388
0.0288609
0.465011
6.38504
0.000187275
0.0103397
0.0257398
1.52138
0
1.09176e-08
0.00060555
0.189954
0
0
0.00048207
0.027527
2.66456e-09
0
0.000104257
0.00838716
1.11122e-06
6.85909e-13
3.11705e-05
0.00278849
4.76555e-06
3.54701e-12
5.76921e-07
0.000700807
4.21749e-06
1.09848e-06
5.06866e-11
4.41098e-05
2.75701e-06
3.79246e-06
4.54612e-12
3.68384e-07
2.11833e-06
4.56132e-06
3.51757e-11
5.20979e-18
2.00527e-06
3.35419e-06
4.71603e-07
8.07009e-11
2.0315e-06
2.28217e-06
2.01227e-06
2.20598e-08
2.00281e-06
1.78701e-06
2.30393e-06
5.01999e-07
1.89218e-06
1.60546e-06
1.87752e-06
1.25148e-06
1.74221e-06
1.51413e-06
1.48845e-06
1.45885e-06
1.58846e-06
1.41838e-06
1.25585e-06
1.31562e-06
1.44397e-06
1.30295e-06
1.11219e-06
1.11362e-06
1.30973e-06
1.1796e-06
1.00076e-06
9.44087e-07
1.18337e-06
1.059e-06
8.98433e-07
8.10065e-07
1.0639e-06
9.45949e-07
8.01044e-07
6.99816e-07
9.51334e-07
8.41203e-07
7.09789e-07
6.05781e-07
8.45776e-07
7.44456e-07
6.25619e-07
5.24141e-07
7.47767e-07
6.55645e-07
5.49043e-07
4.53146e-07
6.57513e-07
5.7459e-07
4.79685e-07
3.91346e-07
5.7487e-07
5.01129e-07
4.17432e-07
3.37538e-07
4.99871e-07
4.34853e-07
3.61732e-07
2.90763e-07
4.86459e-07
4.32297e-07
3.75589e-07
3.12162e-07
2.50035e-07
4.18012e-07
3.71839e-07
3.22907e-07
2.68377e-07
2.14614e-07
3.57172e-07
3.18188e-07
2.76338e-07
2.29871e-07
1.83853e-07
3.03534e-07
2.70888e-07
2.35433e-07
1.96169e-07
1.57159e-07
2.56612e-07
2.29491e-07
1.99729e-07
1.66818e-07
1.34036e-07
2.15855e-07
1.9351e-07
1.68748e-07
1.41389e-07
1.14049e-07
1.80707e-07
1.62437e-07
1.42001e-07
1.19445e-07
9.68084e-08
1.50607e-07
1.35778e-07
1.19047e-07
1.00586e-07
8.19701e-08
1.24996e-07
1.13042e-07
9.94478e-08
8.44495e-08
6.9232e-08
1.03336e-07
9.37608e-08
8.27938e-08
7.06921e-08
5.83275e-08
8.51246e-08
7.7503e-08
6.87096e-08
5.90123e-08
4.90134e-08
6.98931e-08
6.38617e-08
5.68548e-08
4.91297e-08
4.10849e-08
6.12332e-08
5.72198e-08
5.2468e-08
4.69161e-08
4.07963e-08
3.43545e-08
4.98563e-08
4.67228e-08
4.29968e-08
3.86186e-08
3.3795e-08
2.86576e-08
4.0503e-08
3.80632e-08
3.51535e-08
3.17164e-08
2.79324e-08
2.38501e-08
3.28421e-08
3.09478e-08
2.86828e-08
2.59944e-08
2.30377e-08
1.98052e-08
2.65883e-08
2.512e-08
2.33619e-08
2.12667e-08
1.89637e-08
1.64126e-08
2.14982e-08
2.03621e-08
1.90001e-08
1.73709e-08
1.55826e-08
1.35747e-08
1.73653e-08
1.64872e-08
1.5434e-08
1.417e-08
1.27842e-08
1.12075e-08
1.40173e-08
1.33387e-08
1.2525e-08
1.15458e-08
1.04738e-08
9.23846e-09
1.13099e-08
1.07853e-08
1.01571e-08
9.39931e-09
8.57077e-09
7.60458e-09
9.45357e-09
9.12347e-09
8.71796e-09
8.23272e-09
7.64659e-09
7.00652e-09
6.25202e-09
7.6165e-09
7.35995e-09
7.04598e-09
6.67112e-09
6.21776e-09
5.72321e-09
5.13472e-09
6.13871e-09
5.93895e-09
5.69546e-09
5.40542e-09
5.05452e-09
4.67214e-09
4.21354e-09
4.95077e-09
4.79474e-09
4.60545e-09
4.38063e-09
4.1086e-09
3.81259e-09
3.45545e-09
3.9961e-09
3.87382e-09
3.72621e-09
3.55151e-09
3.34033e-09
3.11067e-09
2.83254e-09
3.22833e-09
3.13229e-09
3.01695e-09
2.8809e-09
2.7166e-09
2.53803e-09
2.32145e-09
2.60937e-09
2.53399e-09
2.44387e-09
2.3379e-09
2.21004e-09
2.071e-09
1.90245e-09
2.15752e-09
2.10849e-09
2.04954e-09
1.97934e-09
1.897e-09
1.79768e-09
1.68949e-09
1.5587e-09
1.74114e-09
1.70253e-09
1.65645e-09
1.60185e-09
1.538e-09
1.46107e-09
1.37709e-09
1.27609e-09
1.40484e-09
1.37414e-09
1.33786e-09
1.29519e-09
1.24556e-09
1.18596e-09
1.12082e-09
1.04307e-09
1.13492e-09
1.11008e-09
1.08108e-09
1.04736e-09
1.00844e-09
9.61985e-10
9.11287e-10
8.51531e-10
9.17856e-10
8.97344e-10
8.73715e-10
8.46597e-10
8.15613e-10
7.78911e-10
7.38998e-10
6.92679e-10
7.49909e-10
7.33042e-10
7.13726e-10
6.91711e-10
6.66715e-10
6.37115e-10
6.05022e-10
5.68112e-10
6.28134e-10
6.13951e-10
5.97875e-10
5.79687e-10
5.59055e-10
5.34534e-10
5.07977e-10
4.79123e-10
5.42714e-10
5.32002e-10
5.18977e-10
5.04633e-10
4.88872e-10
4.71234e-10
4.50548e-10
4.27852e-10
4.04276e-10
4.6313e-10
4.53374e-10
4.41513e-10
4.28518e-10
4.14404e-10
3.98784e-10
3.80838e-10
3.61641e-10
3.43554e-10
3.86499e-10
3.77328e-10
3.66514e-10
3.54812e-10
3.42279e-10
3.28563e-10
3.12819e-10
2.95224e-10
2.7731e-10
3.29721e-10
3.22014e-10
3.12795e-10
3.02631e-10
2.91606e-10
2.7962e-10
2.66352e-10
2.53078e-10
2.43125e-10
2.57726e-10
2.5013e-10
2.41675e-10
2.32771e-10
2.2344e-10
2.13284e-10
2.01375e-10
1.86905e-10
1.7131e-10
2.36578e-10
2.30537e-10
2.23334e-10
2.15309e-10
2.06713e-10
1.97806e-10
1.89085e-10
1.827e-10
1.82287e-10
1.54789e-10
1.49186e-10
1.43187e-10
1.36866e-10
1.30145e-10
1.22498e-10
1.12612e-10
9.97735e-11
8.53079e-11
2.03878e-10
1.99943e-10
1.94926e-10
1.88854e-10
1.82409e-10
1.76534e-10
1.73869e-10
1.78633e-10
1.91025e-10
1.23618e-10
1.23235e-10
1.2147e-10
1.18332e-10
1.14048e-10
1.08356e-10
1.00809e-10
9.6587e-11
8.90907e-11
3.68954e-10
3.52241e-10
3.52565e-10
3.52699e-10
3.51867e-10
3.5085e-10
3.51935e-10
3.65408e-10
3.99316e-10
4.17232e-10
4.24562e-10
4.19502e-10
4.24492e-10
4.30662e-10
4.35956e-10
4.40736e-10
4.47542e-10
4.7057e-10
5.10622e-10
5.08365e-10
1.2158e-09
8.67706e-10
8.92599e-10
9.14097e-10
9.26893e-10
9.41772e-10
9.61936e-10
1.00238e-09
1.03843e-09
7.59404e-10
59.8372
10.1211
1.69104
12.1382
19.8993
21.749
18.54
11.4702
4.19287
0.676403
0.0458967
0.00528446
0.00188954
0.000527758
1.96776e-05
6.88924e-08
0
1.42542e-12
1.32894e-09
2.38966e-07
8.35185e-07
1.06428e-06
9.76274e-07
8.22199e-07
6.91404e-07
5.9044e-07
5.08992e-07
4.40313e-07
3.81008e-07
3.29643e-07
2.85167e-07
2.46656e-07
2.13333e-07
1.84411e-07
1.59278e-07
1.37445e-07
1.18445e-07
1.01913e-07
8.75375e-08
7.50428e-08
6.419e-08
5.47781e-08
4.66394e-08
3.9604e-08
3.3545e-08
2.83403e-08
2.38803e-08
2.00708e-08
1.68268e-08
1.40734e-08
1.17439e-08
9.77856e-09
8.12611e-09
6.74056e-09
5.58207e-09
4.61603e-09
3.81241e-09
3.14544e-09
2.59299e-09
2.13629e-09
1.75932e-09
1.44816e-09
1.19102e-09
9.77772e-10
8.01665e-10
6.54456e-10
5.37799e-10
4.55614e-10
3.83488e-10
3.29963e-10
2.60489e-10
2.38747e-10
1.5432e-10
1.8954e-10
6.72613e-11
2.10679e-10
7.13041e-11
4.16373e-10
4.38843e-10
6.68172e-10
25.3272
18.7487
3.86903
1.09087
6.21446
10.9725
12.0372
9.34204
4.62102
1.05872
0.062068
0.00108913
0.000252443
0.000132594
1.1437e-05
1.39235e-07
0
9.49856e-14
9.2593e-11
6.48208e-08
3.1294e-07
4.50078e-07
4.42037e-07
3.90601e-07
3.42145e-07
3.03351e-07
2.70901e-07
2.42193e-07
2.16169e-07
1.92589e-07
1.71311e-07
1.5217e-07
1.35006e-07
1.19588e-07
1.05741e-07
9.33291e-08
8.21917e-08
7.22177e-08
6.32957e-08
5.53265e-08
4.82197e-08
4.18973e-08
3.6295e-08
3.13343e-08
2.69635e-08
2.31265e-08
1.97681e-08
1.68412e-08
1.43011e-08
1.21055e-08
1.02161e-08
8.59617e-09
7.21335e-09
6.03753e-09
5.04143e-09
4.20065e-09
3.49338e-09
2.9003e-09
2.40438e-09
1.99087e-09
1.64687e-09
1.36092e-09
1.12321e-09
9.25013e-10
7.60556e-10
6.22556e-10
5.12167e-10
4.34022e-10
3.64307e-10
3.15e-10
2.46916e-10
2.29041e-10
1.45016e-10
1.83103e-10
6.17774e-11
2.0294e-10
6.6352e-11
3.95911e-10
4.13774e-10
10.5452
12.4273
7.09186
1.27716
0.683377
4.01633
7.22775
7.81991
5.60811
2.30618
0.354807
0.00849073
9.46705e-05
1.83702e-05
8.65677e-06
0
0
1.66697e-16
1.56829e-13
1.06515e-08
9.57235e-08
1.67351e-07
1.77808e-07
1.64935e-07
1.51025e-07
1.40139e-07
1.3115e-07
1.22843e-07
1.14673e-07
1.06576e-07
9.85999e-08
9.08177e-08
8.33036e-08
7.60765e-08
6.91701e-08
6.26225e-08
5.64438e-08
5.06608e-08
4.52737e-08
4.02876e-08
3.56964e-08
3.14952e-08
2.76758e-08
2.42139e-08
2.10996e-08
1.83127e-08
1.583e-08
1.36311e-08
1.16934e-08
9.99477e-09
8.51358e-09
7.22762e-09
6.11704e-09
5.16197e-09
4.3443e-09
3.64718e-09
3.05509e-09
2.55407e-09
2.13145e-09
1.7761e-09
1.47815e-09
1.2286e-09
1.01973e-09
8.44354e-10
6.97818e-10
5.7413e-10
4.74098e-10
4.03243e-10
3.38481e-10
2.94956e-10
2.30451e-10
2.16251e-10
1.35769e-10
1.73953e-10
5.88752e-11
1.93009e-10
6.56089e-11
3.79222e-10
4.87444
7.10069
6.49699
3.2755
0.479236
0.458713
2.65817
4.83861
5.24442
3.63611
1.36094
0.177902
0.00356476
7.55119e-06
3.61701e-06
0
0
0
2.82382e-12
2.46229e-09
4.68972e-08
1.05096e-07
1.19781e-07
1.11021e-07
9.96525e-08
9.11263e-08
8.4774e-08
7.93857e-08
7.43816e-08
6.95929e-08
6.49621e-08
6.04726e-08
5.61244e-08
5.19004e-08
4.78014e-08
4.38398e-08
4.00266e-08
3.63823e-08
3.2916e-08
2.96422e-08
2.65695e-08
2.37065e-08
2.10568e-08
1.86167e-08
1.63879e-08
1.43636e-08
1.25354e-08
1.08953e-08
9.43165e-09
8.13332e-09
6.98829e-09
5.983e-09
5.10572e-09
4.34342e-09
3.68427e-09
3.11693e-09
2.63052e-09
2.2152e-09
1.86181e-09
1.56209e-09
1.30873e-09
1.09484e-09
9.14503e-10
7.61944e-10
6.33441e-10
5.24258e-10
4.34904e-10
3.72001e-10
3.12794e-10
2.7495e-10
2.14272e-10
2.0349e-10
1.26915e-10
1.65039e-10
5.63168e-11
1.84169e-10
6.45077e-11
2.1081
3.7982
4.61316
3.78952
1.81205
0.244847
0.295069
1.72418
3.21743
3.54549
2.4453
0.891989
0.115729
0.00238202
4.54623e-05
0
0
0
1.37987e-17
1.23478e-14
1.2225e-08
6.35894e-08
8.29961e-08
7.89036e-08
7.12399e-08
6.47925e-08
5.99336e-08
5.59618e-08
5.23291e-08
4.88697e-08
4.55655e-08
4.2418e-08
3.9421e-08
3.65583e-08
3.38161e-08
3.11866e-08
2.86672e-08
2.62597e-08
2.39623e-08
2.17786e-08
1.97122e-08
1.77664e-08
1.59438e-08
1.42447e-08
1.26717e-08
1.1223e-08
9.89661e-09
8.69046e-09
7.59904e-09
6.61774e-09
5.74098e-09
4.96143e-09
4.27255e-09
3.66674e-09
3.13691e-09
2.67574e-09
2.27614e-09
1.93142e-09
1.63521e-09
1.38162e-09
1.1653e-09
9.81143e-10
8.24639e-10
6.91255e-10
5.77974e-10
4.81115e-10
4.00831e-10
3.44664e-10
2.90227e-10
2.57138e-10
1.99808e-10
1.9195e-10
1.18759e-10
1.57146e-10
5.3581e-11
1.77204e-10
0.696288
1.75323
2.76866
3.10408
2.45016
1.16843
0.164116
0.173441
1.11952
2.18763
2.48629
1.75034
0.660057
0.093794
0.00259182
3.74018e-05
1.34361e-10
0
0
5.17042e-17
3.06697e-14
1.29536e-08
4.5542e-08
4.76552e-08
4.18726e-08
3.84646e-08
3.62249e-08
3.43858e-08
3.27339e-08
3.11163e-08
2.94812e-08
2.78456e-08
2.62277e-08
2.46335e-08
2.30633e-08
2.15199e-08
2.00098e-08
1.85392e-08
1.71107e-08
1.57297e-08
1.44018e-08
1.31301e-08
1.19194e-08
1.07725e-08
9.69308e-09
8.68248e-09
7.74238e-09
6.87388e-09
6.07559e-09
5.34686e-09
4.68612e-09
4.09023e-09
3.5563e-09
3.08047e-09
2.65906e-09
2.28774e-09
1.96224e-09
1.6783e-09
1.43172e-09
1.21848e-09
1.03482e-09
8.77034e-10
7.41825e-10
6.25698e-10
5.26228e-10
4.4064e-10
3.68689e-10
3.18615e-10
2.68607e-10
2.39845e-10
1.85817e-10
1.80658e-10
1.10775e-10
1.49488e-10
0.125914
0.585472
1.33288
1.99955
2.18804
1.7284
0.855279
0.139256
0.088359
0.717435
1.50751
1.79405
1.31909
0.533515
0.0883193
0.00355676
2.24061e-06
3.08167e-07
0
0
3.0689e-21
2.08859e-11
9.97061e-09
3.1767e-08
2.90095e-08
2.38134e-08
2.19787e-08
2.10915e-08
2.02196e-08
1.93882e-08
1.85986e-08
1.78077e-08
1.70075e-08
1.62022e-08
1.53884e-08
1.45632e-08
1.37295e-08
1.28923e-08
1.20551e-08
1.12237e-08
1.04037e-08
9.59962e-09
8.81744e-09
8.06128e-09
7.33547e-09
6.64372e-09
5.98898e-09
5.37388e-09
4.79949e-09
4.26706e-09
3.77713e-09
3.32898e-09
2.92195e-09
2.55441e-09
2.22477e-09
1.93076e-09
1.67003e-09
1.44003e-09
1.23814e-09
1.06173e-09
9.08272e-10
7.75199e-10
6.60148e-10
5.60544e-10
4.74432e-10
3.99851e-10
3.36152e-10
2.92118e-10
2.46622e-10
2.22112e-10
1.71599e-10
1.69076e-10
0.00583846
0.0981097
0.432004
0.967594
1.45005
1.60389
1.30374
0.689218
0.140349
0.0355365
0.4446
1.0382
1.31522
1.02731
0.45392
0.0893403
0.00482732
9.10961e-06
5.01715e-07
0
0
0
1.15035e-11
5.1237e-09
2.1882e-08
1.97457e-08
1.52553e-08
1.39878e-08
1.36087e-08
1.30892e-08
1.25209e-08
1.20043e-08
1.15154e-08
1.10316e-08
1.0547e-08
1.00582e-08
9.56267e-09
9.06093e-09
8.55289e-09
8.04071e-09
7.52698e-09
7.01453e-09
6.50742e-09
6.00873e-09
5.52197e-09
5.05066e-09
4.59748e-09
4.16529e-09
3.75578e-09
3.37085e-09
3.01176e-09
2.67891e-09
2.37278e-09
2.09285e-09
1.83876e-09
1.6095e-09
1.40388e-09
1.22051e-09
1.05784e-09
9.14209e-10
7.88013e-10
6.77533e-10
5.81134e-10
4.96996e-10
4.23524e-10
3.59474e-10
3.03803e-10
2.65672e-10
2.24695e-10
4.04161e-06
0.00331375
0.0619452
0.28971
0.677926
1.05248
1.20645
1.02828
0.59115
0.153398
0.00950328
0.261554
0.708959
0.973236
0.817503
0.398722
0.092172
0.00652781
3.5045e-05
6.40134e-07
0
0
0
3.17153e-12
1.31244e-09
1.35267e-08
1.37845e-08
1.0074e-08
8.98884e-09
8.8971e-09
8.68275e-09
8.33583e-09
8.00065e-09
7.69177e-09
7.38806e-09
7.08091e-09
6.76883e-09
6.45217e-09
6.13014e-09
5.80324e-09
5.47253e-09
5.13944e-09
4.80609e-09
4.47446e-09
4.1468e-09
3.82541e-09
3.5124e-09
3.21012e-09
2.91997e-09
2.64378e-09
2.38294e-09
2.13813e-09
1.91031e-09
1.69951e-09
1.50594e-09
1.32934e-09
1.16919e-09
1.02486e-09
8.95469e-10
7.80038e-10
6.77593e-10
5.87031e-10
5.07269e-10
4.3709e-10
3.75155e-10
3.20828e-10
1.85815e-06
1.13845e-06
0.00124867
0.0323099
0.177058
0.456547
0.757583
0.918145
0.832089
0.524866
0.170927
0.00362271
0.142187
0.476323
0.722445
0.659227
0.356008
0.0956484
0.00870257
9.70501e-05
7.01738e-07
0
0
0
2.38339e-13
7.64291e-11
7.25666e-09
1.01028e-08
7.22394e-09
5.96285e-09
5.81409e-09
5.73757e-09
5.55069e-09
5.34794e-09
5.16045e-09
4.97613e-09
4.78703e-09
4.59247e-09
4.39226e-09
4.1865e-09
3.97564e-09
3.76053e-09
3.54252e-09
3.32299e-09
3.10339e-09
2.88532e-09
2.67037e-09
2.46031e-09
2.25626e-09
2.0597e-09
1.87189e-09
1.69358e-09
1.52574e-09
1.36871e-09
1.2229e-09
1.08845e-09
9.6522e-10
8.53003e-10
7.51368e-10
6.59773e-10
5.77669e-10
5.04368e-10
0
2.62126e-07
6.61367e-07
0.000301026
0.0137548
0.0973766
0.292101
0.534572
0.698167
0.680525
0.472967
0.188472
0.0115633
0.0679903
0.311545
0.534268
0.534477
0.319509
0.0988227
0.0112956
0.000218922
8.73992e-07
0
0
0
1.13773e-16
1.46787e-15
2.30694e-09
6.35443e-09
5.15834e-09
4.11336e-09
3.90039e-09
3.85271e-09
3.74674e-09
3.62059e-09
3.50227e-09
3.38638e-09
3.26714e-09
3.14348e-09
3.01522e-09
2.8822e-09
2.74468e-09
2.60339e-09
2.45923e-09
2.31312e-09
2.16619e-09
2.0196e-09
1.87463e-09
1.73219e-09
1.5934e-09
1.45932e-09
1.33066e-09
1.20824e-09
1.09251e-09
9.83945e-10
8.82803e-10
7.89185e-10
0
0
3.97324e-13
7.7858e-06
3.12412e-05
0.00456075
0.0470661
0.174509
0.3649
0.52415
0.555732
0.426518
0.202902
0.0278805
0.0256875
0.195512
0.390788
0.432713
0.286348
0.101041
0.0141885
0.00043513
1.58739e-06
1.0082e-11
0
0
2.51849e-22
2.50979e-12
9.78849e-10
3.89114e-09
3.61933e-09
2.87214e-09
2.66928e-09
2.6354e-09
2.57317e-09
2.49178e-09
2.41398e-09
2.33809e-09
2.25972e-09
2.17794e-09
2.09264e-09
2.0038e-09
1.91163e-09
1.8166e-09
1.71928e-09
1.62031e-09
1.5205e-09
1.42076e-09
1.32175e-09
1.22429e-09
1.79678e-12
1.90548e-23
0
0
4.20083e-06
8.54073e-07
0.00106816
0.0192996
0.0952962
0.237352
0.384048
0.448377
0.380973
0.211926
0.0480371
0.00568665
0.115356
0.280648
0.347962
0.255105
0.101882
0.0172791
0.000723893
2.78455e-07
2.46752e-08
0
0
0
8.79573e-13
3.33264e-10
2.41926e-09
2.57419e-09
2.02837e-09
1.84587e-09
1.82344e-09
1.78811e-09
1.7337e-09
1.68057e-09
)
;

boundaryField
{
    inlet
    {
        type            calculated;
        value           nonuniform List<scalar> 
11
(
2.3806e-08
2.13889e-08
2.24278e-08
2.34137e-08
2.43053e-08
2.51116e-08
2.58792e-08
2.66631e-08
2.76063e-08
2.55017e-08
2.83056e-08
)
;
    }
    outlet
    {
        type            calculated;
        value           nonuniform List<scalar> 0();
    }
    walls
    {
        type            calculated;
        value           uniform 0;
    }
    frontAndBack
    {
        type            empty;
    }
    procBoundary6to2
    {
        type            processor;
        value           nonuniform List<scalar> 
13
(
38.8436
11.8718
4.68146
1.90067
0.601821
0.109239
0.00570922
5.29629e-06
3.85613e-06
0
0
1.24726e-12
6.07734e-10
)
;
    }
    procBoundary6to3
    {
        type            processor;
        value           uniform 1.02713e-09;
    }
    procBoundary6to5
    {
        type            processor;
        value           nonuniform List<scalar> 
86
(
416.616
34.2666
44.1669
37.171
9.07601
0.0462321
0.0123067
0.00116693
0
0
4.6403e-09
2.11543e-06
4.59439e-06
3.43174e-06
2.74999e-06
2.69482e-06
2.71679e-06
2.61085e-06
2.42314e-06
2.22966e-06
2.05651e-06
1.89982e-06
1.75083e-06
1.60519e-06
1.46289e-06
1.32524e-06
1.19348e-06
1.06863e-06
9.51304e-07
8.41818e-07
7.40505e-07
6.47532e-07
5.62886e-07
5.62886e-07
5.38393e-07
4.61508e-07
3.93351e-07
3.33407e-07
2.81096e-07
2.35789e-07
1.96832e-07
1.63568e-07
1.35352e-07
1.11565e-07
9.163e-08
7.50138e-08
7.50138e-08
6.45212e-08
5.24114e-08
4.2485e-08
3.43774e-08
2.77765e-08
2.2417e-08
1.8076e-08
1.45672e-08
1.17356e-08
1.17356e-08
9.71651e-09
7.82177e-09
6.29952e-09
5.07723e-09
4.09594e-09
3.30727e-09
2.67169e-09
2.67169e-09
2.19741e-09
1.77286e-09
1.43038e-09
1.15585e-09
9.35345e-10
7.64085e-10
6.39713e-10
6.39713e-10
5.52144e-10
4.71851e-10
3.94979e-10
3.37075e-10
2.65017e-10
2.4337e-10
1.59285e-10
2.11961e-10
1.19827e-10
1.19827e-10
3.14638e-10
4.20716e-10
7.01646e-10
)
;
    }
    procBoundary6to7
    {
        type            processor;
        value           nonuniform List<scalar> 
91
(
6.71412e-10
6.71412e-10
3.87686e-10
3.87686e-10
3.64615e-10
3.64615e-10
6.34845e-11
5.06886e-11
6.34845e-11
1.70845e-10
1.02682e-10
5.06886e-11
1.41702e-10
2.04284e-10
1.57406e-10
1.02682e-10
1.57398e-10
2.72685e-10
2.40096e-10
2.04284e-10
2.03467e-10
4.39191e-10
3.81389e-10
3.2981e-10
2.72685e-10
2.84316e-10
7.03083e-10
6.24339e-10
5.52669e-10
4.87786e-10
4.39191e-10
4.29305e-10
1.1292e-09
1.03708e-09
9.48588e-10
8.64133e-10
7.84179e-10
7.08996e-10
7.03083e-10
6.38781e-10
1.62965e-09
1.57714e-09
1.52192e-09
1.46399e-09
1.40338e-09
1.34031e-09
1.27512e-09
1.20825e-09
1.14019e-09
1.07156e-09
1.00285e-09
1.1292e-09
9.34647e-10
3.32746e-14
6.72957e-17
0
0
4.36908e-07
6.34932e-07
0.000134346
0.00628637
0.0460425
0.144238
0.270945
0.353831
0.334217
0.214185
0.068383
0.000757842
0.0619781
0.196283
0.276623
0.225117
0.101183
0.0203315
0.00116422
2.12042e-06
9.78637e-08
0
0
0
2.48606e-13
8.95489e-11
1.50631e-09
1.86491e-09
1.44341e-09
1.27101e-09
1.2583e-09
1.24597e-09
1.62965e-09
1.21258e-09
)
;
    }
}


// ************************************************************************* //
