/*--------------------------------*- C++ -*----------------------------------*\
| =========                 |                                                 |
| \\      /  F ield         | OpenFOAM: The Open Source CFD Toolbox           |
|  \\    /   O peration     | Version:  2306                                  |
|   \\  /    A nd           | Website:  www.openfoam.com                      |
|    \\/     M anipulation  |                                                 |
\*---------------------------------------------------------------------------*/
FoamFile
{
    version     2.0;
    format      ascii;
    arch        "LSB;label=32;scalar=64";
    class       volScalarField;
    location    "525";
    object      turbulenceProperties:nuEff;
}
// * * * * * * * * * * * * * * * * * * * * * * * * * * * * * * * * * * * * * //

dimensions      [0 2 -1 0 0 0 0];

internalField   nonuniform List<scalar> 
1340
(
0.0869237
0.0784905
0.0690332
0.0538399
0.153847
0.148558
0.139902
0.147222
0.206331
0.20759
0.201637
0.212144
0.215358
0.231954
0.239205
0.255731
0.175048
0.217179
0.248065
0.278402
0.0932447
0.160393
0.223991
0.278363
0.0214838
0.0782838
0.16619
0.252345
0.000858981
0.017104
0.090366
0.200112
0.000198544
0.00464764
0.0306391
0.132919
1e-05
1.00304e-05
0.000480488
0.0724505
1e-05
1e-05
0.000815835
0.0333302
1.00097e-05
1e-05
0.000293048
0.0131295
1.23058e-05
1e-05
8.3316e-05
0.00435449
1.99094e-05
1e-05
1.13701e-05
0.00112182
1.92694e-05
1.26908e-05
1.00004e-05
8.16381e-05
1.64233e-05
1.94574e-05
1e-05
1.07164e-05
1.52619e-05
2.21014e-05
1.00003e-05
1e-05
1.53067e-05
1.94579e-05
1.16019e-05
1.00005e-05
1.57417e-05
1.69224e-05
1.68335e-05
1.00885e-05
1.6076e-05
1.58737e-05
1.84908e-05
1.17002e-05
1.61946e-05
1.57315e-05
1.75758e-05
1.46051e-05
1.61855e-05
1.58914e-05
1.66161e-05
1.61542e-05
1.61461e-05
1.60441e-05
1.61713e-05
1.64174e-05
1.61195e-05
1.61138e-05
1.60618e-05
1.62859e-05
1.61095e-05
1.61273e-05
1.6074e-05
1.61651e-05
1.61082e-05
1.61215e-05
1.61005e-05
1.61177e-05
1.61092e-05
1.61151e-05
1.61132e-05
1.61109e-05
1.61098e-05
1.61121e-05
1.61153e-05
1.61143e-05
1.61098e-05
1.61112e-05
1.61139e-05
1.61167e-05
1.61095e-05
1.61111e-05
1.61125e-05
1.61168e-05
1.61093e-05
1.61109e-05
1.61117e-05
1.6116e-05
1.61092e-05
1.61108e-05
1.61114e-05
1.61152e-05
1.61091e-05
1.61106e-05
1.61111e-05
1.61146e-05
1.61083e-05
1.6109e-05
1.61104e-05
1.6111e-05
1.61142e-05
1.61084e-05
1.61091e-05
1.61104e-05
1.61108e-05
1.61138e-05
1.61085e-05
1.61091e-05
1.61103e-05
1.61107e-05
1.61135e-05
1.61086e-05
1.61092e-05
1.61103e-05
1.61107e-05
1.61133e-05
1.61087e-05
1.61093e-05
1.61104e-05
1.61107e-05
1.61131e-05
1.61089e-05
1.61094e-05
1.61104e-05
1.61107e-05
1.6113e-05
1.61091e-05
1.61096e-05
1.61105e-05
1.61108e-05
1.6113e-05
1.61093e-05
1.61098e-05
1.61107e-05
1.61109e-05
1.61129e-05
1.61095e-05
1.611e-05
1.61108e-05
1.61111e-05
1.61129e-05
1.61097e-05
1.61101e-05
1.6111e-05
1.61112e-05
1.6113e-05
1.61099e-05
1.61103e-05
1.61111e-05
1.61114e-05
1.61131e-05
1.611e-05
1.61105e-05
1.61113e-05
1.61116e-05
1.61132e-05
1.61097e-05
1.61102e-05
1.61107e-05
1.61114e-05
1.61117e-05
1.61133e-05
1.61098e-05
1.61103e-05
1.61108e-05
1.61116e-05
1.61119e-05
1.61134e-05
1.61099e-05
1.61104e-05
1.61109e-05
1.61117e-05
1.6112e-05
1.61135e-05
1.61099e-05
1.61105e-05
1.6111e-05
1.61117e-05
1.61121e-05
1.61135e-05
1.61099e-05
1.61105e-05
1.6111e-05
1.61118e-05
1.61122e-05
1.61136e-05
1.61098e-05
1.61104e-05
1.6111e-05
1.61117e-05
1.61122e-05
1.61135e-05
1.61097e-05
1.61103e-05
1.61108e-05
1.61116e-05
1.61122e-05
1.61135e-05
1.61094e-05
1.611e-05
1.61107e-05
1.61114e-05
1.6112e-05
1.61133e-05
1.61091e-05
1.61097e-05
1.61104e-05
1.61112e-05
1.61118e-05
1.61131e-05
1.6108e-05
1.61086e-05
1.61093e-05
1.611e-05
1.61108e-05
1.61115e-05
1.61127e-05
1.61074e-05
1.61081e-05
1.61088e-05
1.61095e-05
1.61103e-05
1.61111e-05
1.61123e-05
1.61068e-05
1.61074e-05
1.61081e-05
1.61089e-05
1.61097e-05
1.61105e-05
1.61118e-05
1.61059e-05
1.61066e-05
1.61073e-05
1.61081e-05
1.6109e-05
1.61098e-05
1.61111e-05
1.6105e-05
1.61057e-05
1.61065e-05
1.61072e-05
1.61082e-05
1.6109e-05
1.61103e-05
1.61039e-05
1.61047e-05
1.61054e-05
1.61062e-05
1.61072e-05
1.61081e-05
1.61093e-05
1.61026e-05
1.61034e-05
1.61042e-05
1.6105e-05
1.6106e-05
1.6107e-05
1.61083e-05
1.61001e-05
1.61009e-05
1.61017e-05
1.61026e-05
1.61035e-05
1.61045e-05
1.61056e-05
1.61069e-05
1.60979e-05
1.60987e-05
1.60996e-05
1.61005e-05
1.61015e-05
1.61026e-05
1.61038e-05
1.61052e-05
1.60953e-05
1.60962e-05
1.6097e-05
1.6098e-05
1.6099e-05
1.61002e-05
1.61015e-05
1.6103e-05
1.60927e-05
1.60935e-05
1.60943e-05
1.60953e-05
1.60963e-05
1.60974e-05
1.60987e-05
1.61003e-05
1.609e-05
1.60908e-05
1.60916e-05
1.60924e-05
1.60934e-05
1.60945e-05
1.60957e-05
1.60972e-05
1.60874e-05
1.60881e-05
1.60889e-05
1.60897e-05
1.60906e-05
1.60917e-05
1.60928e-05
1.60942e-05
1.60849e-05
1.60857e-05
1.60864e-05
1.60873e-05
1.60882e-05
1.60893e-05
1.60904e-05
1.60917e-05
1.60817e-05
1.60823e-05
1.60831e-05
1.60839e-05
1.60847e-05
1.60857e-05
1.60867e-05
1.60879e-05
1.60892e-05
1.6079e-05
1.60796e-05
1.60803e-05
1.6081e-05
1.60818e-05
1.60827e-05
1.60837e-05
1.60848e-05
1.60862e-05
1.60763e-05
1.60768e-05
1.60774e-05
1.6078e-05
1.60787e-05
1.60794e-05
1.60803e-05
1.60814e-05
1.60826e-05
1.60735e-05
1.6074e-05
1.60745e-05
1.6075e-05
1.60756e-05
1.60762e-05
1.6077e-05
1.60779e-05
1.6079e-05
1.60712e-05
1.60714e-05
1.60717e-05
1.6072e-05
1.60724e-05
1.60728e-05
1.60734e-05
1.60741e-05
1.6075e-05
1.60714e-05
1.60713e-05
1.60712e-05
1.60711e-05
1.60711e-05
1.60711e-05
1.60713e-05
1.60715e-05
1.6072e-05
1.60742e-05
1.6074e-05
1.60739e-05
1.60737e-05
1.60735e-05
1.60732e-05
1.6073e-05
1.60728e-05
1.60727e-05
1.60775e-05
1.60774e-05
1.60772e-05
1.60769e-05
1.60766e-05
1.60763e-05
1.60759e-05
1.60755e-05
1.60749e-05
1.60817e-05
1.60818e-05
1.60818e-05
1.60819e-05
1.6082e-05
1.6082e-05
1.6082e-05
1.6082e-05
1.60819e-05
1.60849e-05
1.60849e-05
1.60849e-05
1.60847e-05
1.60846e-05
1.60843e-05
1.60841e-05
1.60838e-05
1.60837e-05
1.60836e-05
1.60905e-05
1.60914e-05
1.60924e-05
1.60935e-05
1.60945e-05
1.60956e-05
1.60968e-05
1.60979e-05
1.60994e-05
1.61007e-05
1.61e-05
1.61002e-05
1.61003e-05
1.61004e-05
1.61004e-05
1.61004e-05
1.61004e-05
1.61007e-05
1.61012e-05
1.61016e-05
0.172971
0.215413
0.255594
0.30009
0.326424
0.329406
0.307332
0.258835
0.186633
0.105693
0.0439048
0.0155231
0.0048333
0.00112854
4.70882e-05
1.01956e-05
1e-05
1e-05
1.00095e-05
1.11354e-05
1.41828e-05
1.60988e-05
1.64867e-05
1.63433e-05
1.61908e-05
1.61259e-05
1.61136e-05
1.6117e-05
1.61201e-05
1.61204e-05
1.61194e-05
1.61183e-05
1.61174e-05
1.61168e-05
1.61162e-05
1.61157e-05
1.61153e-05
1.61149e-05
1.61146e-05
1.61144e-05
1.61142e-05
1.61141e-05
1.6114e-05
1.61139e-05
1.61139e-05
1.61139e-05
1.61139e-05
1.61139e-05
1.61139e-05
1.61139e-05
1.61138e-05
1.61138e-05
1.61137e-05
1.61135e-05
1.61132e-05
1.61128e-05
1.61123e-05
1.61117e-05
1.61109e-05
1.611e-05
1.61089e-05
1.61076e-05
1.6106e-05
1.61038e-05
1.61011e-05
1.6098e-05
1.60949e-05
1.60924e-05
1.60899e-05
1.60868e-05
1.60832e-05
1.60795e-05
1.60755e-05
1.60721e-05
1.60726e-05
1.60748e-05
1.60818e-05
1.60835e-05
1.61016e-05
1.61018e-05
0.214008
0.258747
0.288645
0.317026
0.345771
0.357743
0.345386
0.305894
0.23945
0.152998
0.0689436
0.0208673
0.00566506
0.00141192
9.93961e-05
1.11215e-05
1e-05
1e-05
1.00023e-05
1.08404e-05
1.38973e-05
1.60284e-05
1.65124e-05
1.63755e-05
1.6207e-05
1.61309e-05
1.61147e-05
1.61176e-05
1.6121e-05
1.61214e-05
1.61203e-05
1.6119e-05
1.6118e-05
1.61173e-05
1.61167e-05
1.61162e-05
1.61158e-05
1.61154e-05
1.61151e-05
1.61149e-05
1.61147e-05
1.61145e-05
1.61144e-05
1.61143e-05
1.61143e-05
1.61143e-05
1.61143e-05
1.61143e-05
1.61143e-05
1.61142e-05
1.61142e-05
1.61142e-05
1.61141e-05
1.61139e-05
1.61137e-05
1.61133e-05
1.61128e-05
1.61122e-05
1.61114e-05
1.61105e-05
1.61094e-05
1.61082e-05
1.61065e-05
1.61043e-05
1.61016e-05
1.60985e-05
1.60954e-05
1.60928e-05
1.60903e-05
1.60873e-05
1.60836e-05
1.60799e-05
1.60757e-05
1.60723e-05
1.60725e-05
1.60747e-05
1.60817e-05
1.60834e-05
1.61021e-05
0.217833
0.269181
0.303811
0.326784
0.347911
0.366383
0.368537
0.346286
0.296144
0.219069
0.124837
0.0439063
0.00722147
0.000820624
0.000189819
1e-05
1e-05
1e-05
1e-05
1.04224e-05
1.3293e-05
1.58763e-05
1.65538e-05
1.64246e-05
1.62313e-05
1.61381e-05
1.61151e-05
1.61168e-05
1.61209e-05
1.61219e-05
1.61209e-05
1.61196e-05
1.61186e-05
1.61178e-05
1.61173e-05
1.61168e-05
1.61163e-05
1.61159e-05
1.61156e-05
1.61154e-05
1.61152e-05
1.6115e-05
1.61149e-05
1.61148e-05
1.61148e-05
1.61148e-05
1.61148e-05
1.61148e-05
1.61147e-05
1.61147e-05
1.61147e-05
1.61147e-05
1.61146e-05
1.61145e-05
1.61142e-05
1.61138e-05
1.61134e-05
1.61127e-05
1.6112e-05
1.61111e-05
1.611e-05
1.61087e-05
1.61071e-05
1.61049e-05
1.61022e-05
1.60991e-05
1.60959e-05
1.60933e-05
1.60908e-05
1.60877e-05
1.6084e-05
1.60802e-05
1.6076e-05
1.60724e-05
1.60725e-05
1.60747e-05
1.60816e-05
1.60834e-05
0.202681
0.258545
0.300422
0.328245
0.34653
0.362713
0.374808
0.37136
0.344262
0.289382
0.207406
0.110574
0.0326128
0.000729476
0.000164204
1e-05
1e-05
1e-05
1.00003e-05
1.01522e-05
1.23396e-05
1.53646e-05
1.65366e-05
1.65157e-05
1.62801e-05
1.61501e-05
1.61152e-05
1.61155e-05
1.61204e-05
1.61223e-05
1.61217e-05
1.61204e-05
1.61193e-05
1.61185e-05
1.61179e-05
1.61174e-05
1.6117e-05
1.61166e-05
1.61163e-05
1.6116e-05
1.61158e-05
1.61156e-05
1.61155e-05
1.61154e-05
1.61154e-05
1.61153e-05
1.61153e-05
1.61153e-05
1.61153e-05
1.61153e-05
1.61153e-05
1.61153e-05
1.61152e-05
1.61151e-05
1.61148e-05
1.61144e-05
1.6114e-05
1.61133e-05
1.61126e-05
1.61117e-05
1.61106e-05
1.61093e-05
1.61077e-05
1.61055e-05
1.61028e-05
1.60996e-05
1.60965e-05
1.60938e-05
1.60913e-05
1.60881e-05
1.60844e-05
1.60805e-05
1.60764e-05
1.60725e-05
1.60724e-05
1.60747e-05
1.60814e-05
0.172731
0.232724
0.281673
0.317727
0.341534
0.356932
0.369876
0.378306
0.372108
0.343199
0.286805
0.203238
0.106161
0.028155
0.00723801
1e-05
1e-05
1e-05
1e-05
1e-05
1.09969e-05
1.4786e-05
1.65167e-05
1.65926e-05
1.63589e-05
1.61837e-05
1.61173e-05
1.6112e-05
1.61192e-05
1.61225e-05
1.61224e-05
1.61213e-05
1.61201e-05
1.61193e-05
1.61187e-05
1.61182e-05
1.61177e-05
1.61173e-05
1.61169e-05
1.61167e-05
1.61164e-05
1.61163e-05
1.61161e-05
1.6116e-05
1.6116e-05
1.6116e-05
1.6116e-05
1.61159e-05
1.61159e-05
1.61159e-05
1.61159e-05
1.61159e-05
1.61158e-05
1.61157e-05
1.61154e-05
1.61151e-05
1.61146e-05
1.6114e-05
1.61132e-05
1.61123e-05
1.61112e-05
1.611e-05
1.61084e-05
1.61062e-05
1.61035e-05
1.61002e-05
1.6097e-05
1.60943e-05
1.60918e-05
1.60886e-05
1.60849e-05
1.60809e-05
1.60767e-05
1.60727e-05
1.60724e-05
1.60746e-05
0.130229
0.1937
0.249329
0.294164
0.327082
0.348806
0.362594
0.373403
0.379793
0.372527
0.343479
0.287302
0.204077
0.106396
0.0297746
0.00773434
1.00331e-05
1e-05
1e-05
1e-05
1e-05
1.1928e-05
1.64554e-05
1.7003e-05
1.64544e-05
1.62172e-05
1.61362e-05
1.61116e-05
1.61155e-05
1.61225e-05
1.61237e-05
1.61223e-05
1.6121e-05
1.61201e-05
1.61195e-05
1.61189e-05
1.61185e-05
1.6118e-05
1.61177e-05
1.61174e-05
1.61171e-05
1.61169e-05
1.61168e-05
1.61167e-05
1.61166e-05
1.61166e-05
1.61166e-05
1.61166e-05
1.61166e-05
1.61165e-05
1.61165e-05
1.61165e-05
1.61165e-05
1.61163e-05
1.61161e-05
1.61157e-05
1.61153e-05
1.61146e-05
1.61139e-05
1.6113e-05
1.61119e-05
1.61106e-05
1.6109e-05
1.61069e-05
1.61041e-05
1.61009e-05
1.60976e-05
1.60949e-05
1.60923e-05
1.60891e-05
1.60854e-05
1.60813e-05
1.60771e-05
1.60729e-05
0.0789015
0.142599
0.203892
0.257089
0.299957
0.331577
0.352547
0.365603
0.374971
0.380299
0.373012
0.344889
0.290116
0.207999
0.111271
0.0348915
0.000428872
0.00012249
1e-05
1e-05
1e-05
1.00092e-05
1.24391e-05
1.75935e-05
1.72635e-05
1.62948e-05
1.6098e-05
1.61148e-05
1.61168e-05
1.61174e-05
1.61224e-05
1.61239e-05
1.61224e-05
1.6121e-05
1.61203e-05
1.61198e-05
1.61193e-05
1.61189e-05
1.61185e-05
1.61181e-05
1.61179e-05
1.61177e-05
1.61175e-05
1.61174e-05
1.61173e-05
1.61173e-05
1.61173e-05
1.61173e-05
1.61173e-05
1.61172e-05
1.61172e-05
1.61172e-05
1.61172e-05
1.6117e-05
1.61168e-05
1.61164e-05
1.6116e-05
1.61154e-05
1.61146e-05
1.61137e-05
1.61126e-05
1.61114e-05
1.61097e-05
1.61076e-05
1.61049e-05
1.61016e-05
1.60982e-05
1.60955e-05
1.60929e-05
1.60897e-05
1.60859e-05
1.60817e-05
0.0300094
0.082872
0.145802
0.206055
0.258489
0.301002
0.33267
0.353879
0.366869
0.37529
0.380195
0.373585
0.34712
0.294503
0.214336
0.119934
0.040268
0.00135741
0.000414874
1e-05
1e-05
1e-05
1.00077e-05
1.19322e-05
1.80009e-05
1.75889e-05
1.62159e-05
1.60018e-05
1.61121e-05
1.61392e-05
1.6125e-05
1.61212e-05
1.61227e-05
1.61225e-05
1.61214e-05
1.61207e-05
1.61202e-05
1.61197e-05
1.61193e-05
1.61189e-05
1.61187e-05
1.61184e-05
1.61183e-05
1.61181e-05
1.61181e-05
1.6118e-05
1.6118e-05
1.6118e-05
1.6118e-05
1.61179e-05
1.61179e-05
1.61179e-05
1.61179e-05
1.61177e-05
1.61175e-05
1.61172e-05
1.61167e-05
1.61161e-05
1.61153e-05
1.61144e-05
1.61134e-05
1.61121e-05
1.61105e-05
1.61084e-05
1.61056e-05
1.61023e-05
1.60989e-05
1.60961e-05
1.60935e-05
0.00323446
0.0283204
0.0794166
0.141514
0.201856
0.254869
0.298277
0.331042
0.353288
0.366765
0.374619
0.379513
0.374054
0.349791
0.299901
0.222853
0.129806
0.0472452
0.00387035
0.00109363
1e-05
1e-05
1e-05
1.00034e-05
1.08088e-05
1.75697e-05
1.80853e-05
1.62474e-05
1.58606e-05
1.60531e-05
1.61479e-05
1.61371e-05
1.61232e-05
1.61219e-05
1.61224e-05
1.61218e-05
1.61211e-05
1.61206e-05
1.61202e-05
1.61198e-05
1.61195e-05
1.61192e-05
1.6119e-05
1.61189e-05
1.61188e-05
1.61188e-05
1.61187e-05
1.61187e-05
1.61187e-05
1.61187e-05
1.61187e-05
1.61186e-05
1.61186e-05
1.61185e-05
1.61183e-05
1.6118e-05
1.61175e-05
1.61169e-05
1.61161e-05
1.61152e-05
1.61141e-05
1.61129e-05
1.61113e-05
1.61092e-05
1.61064e-05
1.61031e-05
0.000433128
0.00169189
0.0228322
0.0700215
0.131002
0.192197
0.246858
0.292197
0.32695
0.350952
0.365512
0.373525
0.378496
0.37436
0.352607
0.306013
0.232451
0.140708
0.0557654
0.0077745
0.00212168
1e-05
1e-05
1e-05
1.00005e-05
1.00895e-05
1.6194e-05
1.90253e-05
1.67992e-05
1.58998e-05
1.59913e-05
1.6131e-05
1.61422e-05
1.6126e-05
1.61219e-05
1.61224e-05
1.61222e-05
1.61216e-05
1.61211e-05
1.61207e-05
1.61204e-05
1.61201e-05
1.61199e-05
1.61197e-05
1.61196e-05
1.61196e-05
1.61195e-05
1.61195e-05
1.61195e-05
1.61195e-05
1.61194e-05
1.61194e-05
1.61194e-05
1.61193e-05
1.61191e-05
1.61188e-05
1.61183e-05
1.61177e-05
1.6117e-05
1.6116e-05
1.6115e-05
1.61137e-05
1e-05
7.99647e-05
0.000352113
0.0164803
0.0571466
0.11559
0.177713
0.234745
0.282881
0.320442
0.346961
0.363392
0.372525
0.377536
0.374654
0.355508
0.312493
0.242425
0.152325
0.0655164
0.0128834
0.00346285
1e-05
1e-05
1e-05
1e-05
1e-05
1.3005e-05
1.8456e-05
1.72164e-05
1.60484e-05
1.59758e-05
1.61132e-05
1.61427e-05
1.61286e-05
1.61229e-05
1.6123e-05
1.61228e-05
1.61222e-05
1.61217e-05
1.61213e-05
1.6121e-05
1.61208e-05
1.61206e-05
1.61205e-05
1.61204e-05
1.61203e-05
1.61203e-05
1.61203e-05
1.61203e-05
1.61203e-05
1.61202e-05
1.61202e-05
1.61201e-05
1.61199e-05
1.61196e-05
1.61192e-05
1e-05
1e-05
1.00004e-05
0.00246398
0.00979073
0.0427956
0.0968031
0.159074
0.218729
0.270325
0.311462
0.341287
0.360396
0.371127
0.376374
0.374787
0.358335
0.318977
0.252523
0.164407
0.0761995
0.0194134
0.00511713
1.00966e-05
1e-05
1e-05
1e-05
1.00079e-05
1.19067e-05
1.75919e-05
1.73998e-05
1.61604e-05
1.5966e-05
1.60956e-05
1.61401e-05
1.61287e-05
1.61224e-05
1.61233e-05
1.61236e-05
1.6123e-05
1.61224e-05
1.6122e-05
1.61217e-05
1.61215e-05
1.61214e-05
1.61213e-05
1.61212e-05
1.61212e-05
1.61212e-05
1.61212e-05
1.00149e-05
1e-05
1e-05
1e-05
0.0012034
0.00468783
0.0288
0.0763199
0.137221
0.199178
0.254614
0.299961
0.333775
0.356189
0.368989
0.374745
0.374534
0.360836
0.325209
0.26252
0.176676
0.0878093
0.0253997
0.000520242
0.000171504
1e-05
1e-05
1e-05
1.00041e-05
1.09843e-05
1.68828e-05
1.76412e-05
1.62915e-05
1.59603e-05
1.60866e-05
1.6148e-05
1.61345e-05
1.6123e-05
)
;

boundaryField
{
    inlet
    {
        type            calculated;
        value           nonuniform List<scalar> 
11
(
1.61e-05
1.61002e-05
1.61003e-05
1.61004e-05
1.61004e-05
1.61004e-05
1.61004e-05
1.61007e-05
1.61012e-05
1.61016e-05
1.61018e-05
)
;
    }
    outlet
    {
        type            calculated;
        value           nonuniform List<scalar> 0();
    }
    walls
    {
        type            calculated;
        value           nonuniform List<scalar> 4(0.0017742 0.00157477 0.00135097 0.000597938);
    }
    frontAndBack
    {
        type            empty;
    }
    procBoundary6to2
    {
        type            processor;
        value           nonuniform List<scalar> 
13
(
0.126629
0.149902
0.151253
0.135175
0.104396
0.0648507
0.02578
0.00296127
0.000817032
1e-05
1e-05
1.00113e-05
1.34362e-05
)
;
    }
    procBoundary6to3
    {
        type            processor;
        value           uniform 1.57688e-05;
    }
    procBoundary6to5
    {
        type            processor;
        value           nonuniform List<scalar> 
86
(
0.0928043
0.159348
0.203453
0.193231
0.124119
0.0380576
0.00165179
0.000407498
1e-05
1e-05
1.00154e-05
1.39072e-05
1.84782e-05
1.66452e-05
1.56276e-05
1.58118e-05
1.61884e-05
1.63108e-05
1.62442e-05
1.61523e-05
1.61041e-05
1.60944e-05
1.61003e-05
1.61068e-05
1.61098e-05
1.61102e-05
1.61096e-05
1.6109e-05
1.61086e-05
1.61084e-05
1.61083e-05
1.61083e-05
1.61083e-05
1.61083e-05
1.61076e-05
1.61077e-05
1.61078e-05
1.6108e-05
1.61082e-05
1.61084e-05
1.61086e-05
1.61088e-05
1.6109e-05
1.61092e-05
1.61094e-05
1.61096e-05
1.61096e-05
1.61093e-05
1.61094e-05
1.61095e-05
1.61095e-05
1.61094e-05
1.61093e-05
1.61091e-05
1.61089e-05
1.61085e-05
1.61085e-05
1.61075e-05
1.61068e-05
1.61061e-05
1.61053e-05
1.61044e-05
1.61032e-05
1.61019e-05
1.61019e-05
1.60993e-05
1.60971e-05
1.60946e-05
1.6092e-05
1.60893e-05
1.60867e-05
1.60842e-05
1.60842e-05
1.6081e-05
1.60784e-05
1.60758e-05
1.60732e-05
1.6071e-05
1.60715e-05
1.60743e-05
1.60776e-05
1.60816e-05
1.60816e-05
1.60846e-05
1.60898e-05
1.60997e-05
)
;
    }
    procBoundary6to7
    {
        type            processor;
        value           nonuniform List<scalar> 
91
(
1.6102e-05
1.6102e-05
1.61027e-05
1.61027e-05
1.60833e-05
1.60833e-05
1.60813e-05
1.60723e-05
1.60813e-05
1.60746e-05
1.60774e-05
1.60723e-05
1.60731e-05
1.60902e-05
1.60864e-05
1.60774e-05
1.60822e-05
1.60996e-05
1.60967e-05
1.60902e-05
1.60941e-05
1.61121e-05
1.611e-05
1.61073e-05
1.60996e-05
1.61039e-05
1.61186e-05
1.61178e-05
1.61169e-05
1.61158e-05
1.61121e-05
1.61146e-05
1.61211e-05
1.61211e-05
1.61211e-05
1.6121e-05
1.61208e-05
1.61205e-05
1.61186e-05
1.61201e-05
1.61227e-05
1.61234e-05
1.61233e-05
1.6123e-05
1.61228e-05
1.61225e-05
1.61223e-05
1.61222e-05
1.61221e-05
1.61221e-05
1.61221e-05
1.61211e-05
1.61221e-05
1.00011e-05
1e-05
1e-05
1e-05
0.000151972
0.00046512
0.0161212
0.0552034
0.112673
0.176097
0.23552
0.285628
0.324085
0.350425
0.365823
0.372627
0.373759
0.362761
0.330905
0.272117
0.18901
0.0998171
0.0333353
0.0020924
0.00058387
1e-05
1e-05
1e-05
1.00017e-05
1.04082e-05
1.62227e-05
1.80221e-05
1.64551e-05
1.59048e-05
1.6032e-05
1.61413e-05
1.61227e-05
1.61418e-05
)
;
    }
}


// ************************************************************************* //
