/*--------------------------------*- C++ -*----------------------------------*\
| =========                 |                                                 |
| \\      /  F ield         | OpenFOAM: The Open Source CFD Toolbox           |
|  \\    /   O peration     | Version:  2306                                  |
|   \\  /    A nd           | Website:  www.openfoam.com                      |
|    \\/     M anipulation  |                                                 |
\*---------------------------------------------------------------------------*/
FoamFile
{
    version     2.0;
    format      ascii;
    arch        "LSB;label=32;scalar=64";
    class       volScalarField;
    location    "75";
    object      nuTilda;
}
// * * * * * * * * * * * * * * * * * * * * * * * * * * * * * * * * * * * * * //

dimensions      [0 2 -1 0 0 0 0];

internalField   nonuniform List<scalar> 
1340
(
4.00881e-05
4.00498e-05
4.00672e-05
4.00685e-05
4.00894e-05
4.00493e-05
4.00848e-05
4.00817e-05
4.0067e-05
4.00706e-05
4.00908e-05
4.00487e-05
4.00633e-05
4.00681e-05
4.00774e-05
4.00856e-05
4.00815e-05
4.0067e-05
4.00729e-05
4.00922e-05
4.00477e-05
4.00594e-05
4.00639e-05
4.00649e-05
4.00635e-05
4.00629e-05
4.00639e-05
4.00692e-05
4.00788e-05
4.00865e-05
4.00814e-05
4.00671e-05
4.00755e-05
4.00936e-05
4.00465e-05
4.00413e-05
4.00444e-05
4.0048e-05
4.00517e-05
4.00556e-05
4.00603e-05
4.00646e-05
4.00655e-05
4.0064e-05
4.00634e-05
4.00648e-05
4.00705e-05
4.00803e-05
4.00876e-05
4.00814e-05
4.00673e-05
4.00782e-05
4.0095e-05
4.00449e-05
4.00339e-05
4.00342e-05
4.00348e-05
4.00355e-05
4.00365e-05
4.00378e-05
4.00397e-05
4.00422e-05
4.00454e-05
4.0049e-05
4.00527e-05
4.00566e-05
4.00613e-05
4.00656e-05
4.00662e-05
4.00646e-05
4.00641e-05
4.00658e-05
4.0072e-05
4.00821e-05
4.00887e-05
4.00814e-05
4.00678e-05
4.00811e-05
4.00962e-05
4.0043e-05
4.00569e-05
4.00546e-05
4.00524e-05
4.005e-05
4.00474e-05
4.00449e-05
4.00429e-05
4.00411e-05
4.00393e-05
4.00376e-05
4.00364e-05
4.00358e-05
4.00357e-05
4.00359e-05
4.00362e-05
4.00367e-05
4.00375e-05
4.00388e-05
4.00407e-05
4.00433e-05
4.00466e-05
4.00502e-05
4.00539e-05
4.00579e-05
4.00625e-05
4.00666e-05
4.0067e-05
4.00653e-05
4.00649e-05
4.0067e-05
4.00737e-05
4.00841e-05
4.009e-05
4.00815e-05
4.00684e-05
4.00842e-05
4.00971e-05
4.00407e-05
0.0183835
0.000483918
0.000120094
9.72148e-06
3.99108e-05
5.46086e-05
4.9376e-05
4.04062e-05
3.76556e-05
3.91417e-05
4.03826e-05
4.0357e-05
4.00655e-05
4.00691e-05
4.01005e-05
4.01017e-05
4.01009e-05
4.01069e-05
4.0112e-05
4.01153e-05
4.01169e-05
4.0117e-05
4.01162e-05
4.01148e-05
4.01132e-05
4.01113e-05
4.0109e-05
4.01064e-05
4.01035e-05
4.01005e-05
4.00973e-05
4.00939e-05
4.00903e-05
4.00866e-05
4.00831e-05
4.00799e-05
4.0077e-05
4.00744e-05
4.00717e-05
4.00691e-05
4.00667e-05
4.00644e-05
4.00622e-05
4.00599e-05
4.00576e-05
4.00553e-05
4.00528e-05
4.005e-05
4.00475e-05
4.00454e-05
4.00434e-05
4.00414e-05
4.00397e-05
4.00386e-05
4.00379e-05
4.00377e-05
4.00376e-05
4.00378e-05
4.00381e-05
4.00388e-05
4.004e-05
4.0042e-05
4.00447e-05
4.00481e-05
4.00517e-05
4.00554e-05
4.00593e-05
4.00639e-05
4.00679e-05
4.00681e-05
4.00663e-05
4.0066e-05
4.00684e-05
4.00758e-05
4.00863e-05
4.00913e-05
4.00817e-05
4.00692e-05
4.00874e-05
4.00979e-05
4.0038e-05
0.0403325
0.0111615
0.00280413
0
9.64457e-06
3.95529e-05
5.18333e-05
4.65622e-05
3.96631e-05
3.87816e-05
3.9817e-05
4.03257e-05
4.01936e-05
4.00649e-05
4.00877e-05
4.00956e-05
4.00892e-05
4.00937e-05
4.01011e-05
4.0108e-05
4.01134e-05
4.01162e-05
4.01173e-05
4.01173e-05
4.01165e-05
4.01151e-05
4.01133e-05
4.01111e-05
4.01085e-05
4.01056e-05
4.01024e-05
4.0099e-05
4.00952e-05
4.00914e-05
4.00878e-05
4.00846e-05
4.00816e-05
4.00788e-05
4.00759e-05
4.00731e-05
4.00704e-05
4.00681e-05
4.00657e-05
4.00632e-05
4.00608e-05
4.00584e-05
4.00557e-05
4.00528e-05
4.00502e-05
4.0048e-05
4.00458e-05
4.00437e-05
4.0042e-05
4.00408e-05
4.00402e-05
4.00398e-05
4.00395e-05
4.00395e-05
4.00397e-05
4.00403e-05
4.00415e-05
4.00436e-05
4.00463e-05
4.00497e-05
4.00533e-05
4.0057e-05
4.0061e-05
4.00655e-05
4.00693e-05
4.00692e-05
4.00673e-05
4.00672e-05
4.00701e-05
4.00781e-05
4.00887e-05
4.00928e-05
4.00819e-05
4.00703e-05
4.00908e-05
4.00982e-05
4.00349e-05
0.0545019
0.0242078
0.00385751
0.000958697
0
8.68553e-06
3.54809e-05
4.67145e-05
4.48756e-05
3.91971e-05
3.95767e-05
4.01701e-05
4.03171e-05
4.00939e-05
4.01067e-05
4.01058e-05
4.00952e-05
4.00944e-05
4.01004e-05
4.01071e-05
4.01135e-05
4.01175e-05
4.01197e-05
4.01206e-05
4.01205e-05
4.01197e-05
4.01183e-05
4.01164e-05
4.0114e-05
4.01113e-05
4.01081e-05
4.01046e-05
4.01007e-05
4.00968e-05
4.00932e-05
4.00899e-05
4.00869e-05
4.00838e-05
4.00807e-05
4.00775e-05
4.00746e-05
4.00723e-05
4.00697e-05
4.0067e-05
4.00645e-05
4.00619e-05
4.0059e-05
4.0056e-05
4.00533e-05
4.00509e-05
4.00485e-05
4.00464e-05
4.00446e-05
4.00434e-05
4.00427e-05
4.00422e-05
4.00417e-05
4.00415e-05
4.00415e-05
4.0042e-05
4.00433e-05
4.00454e-05
4.00483e-05
4.00517e-05
4.00553e-05
4.0059e-05
4.00629e-05
4.00673e-05
4.00708e-05
4.00706e-05
4.00686e-05
4.00687e-05
4.00722e-05
4.00808e-05
4.00915e-05
4.00943e-05
4.00823e-05
4.00716e-05
4.00942e-05
4.00982e-05
4.00315e-05
0.0575396
0.0317713
0.00984734
0.00245613
0
7.17467e-06
3.0515e-05
4.59375e-05
4.56646e-05
3.94015e-05
3.97076e-05
4.03374e-05
4.03196e-05
4.01573e-05
4.01534e-05
4.01351e-05
4.01183e-05
4.01104e-05
4.01128e-05
4.01163e-05
4.01206e-05
4.01237e-05
4.01261e-05
4.01274e-05
4.01278e-05
4.01272e-05
4.0126e-05
4.01242e-05
4.01219e-05
4.01192e-05
4.01159e-05
4.01121e-05
4.0108e-05
4.01039e-05
4.01002e-05
4.00968e-05
4.00935e-05
4.00901e-05
4.00865e-05
4.0083e-05
4.00799e-05
4.00774e-05
4.00747e-05
4.00718e-05
4.00689e-05
4.0066e-05
4.00629e-05
4.00598e-05
4.0057e-05
4.00543e-05
4.00518e-05
4.00494e-05
4.00475e-05
4.00464e-05
4.00456e-05
4.00448e-05
4.00441e-05
4.00437e-05
4.00436e-05
4.0044e-05
4.00453e-05
4.00476e-05
4.00504e-05
4.00538e-05
4.00575e-05
4.00612e-05
4.00651e-05
4.00693e-05
4.00725e-05
4.00721e-05
4.00701e-05
4.00704e-05
4.00746e-05
4.00839e-05
4.00945e-05
4.0096e-05
4.00826e-05
4.0073e-05
4.00978e-05
4.00978e-05
4.00277e-05
0.0510974
0.0309374
0.0112796
0.000686663
0.000170888
5.81245e-06
2.46816e-05
4.7942e-05
4.50008e-05
3.91366e-05
3.97729e-05
4.05338e-05
4.03115e-05
4.02139e-05
4.01899e-05
4.01649e-05
4.01413e-05
4.0129e-05
4.01267e-05
4.01263e-05
4.01284e-05
4.01311e-05
4.01339e-05
4.01359e-05
4.01367e-05
4.01365e-05
4.01354e-05
4.01338e-05
4.01316e-05
4.01288e-05
4.01254e-05
4.01214e-05
4.01172e-05
4.0113e-05
4.0109e-05
4.01054e-05
4.01017e-05
4.00978e-05
4.00936e-05
4.00897e-05
4.00865e-05
4.0084e-05
4.00809e-05
4.00775e-05
4.00743e-05
4.00711e-05
4.00677e-05
4.00644e-05
4.00613e-05
4.00583e-05
4.00555e-05
4.00529e-05
4.0051e-05
4.00499e-05
4.00489e-05
4.00478e-05
4.00468e-05
4.00463e-05
4.0046e-05
4.00464e-05
4.00478e-05
4.00501e-05
4.0053e-05
4.00564e-05
4.006e-05
4.00637e-05
4.00675e-05
4.00715e-05
4.00745e-05
4.00739e-05
4.00719e-05
4.00726e-05
4.00775e-05
4.00875e-05
4.00978e-05
4.00977e-05
4.00832e-05
4.00748e-05
4.01014e-05
4.00969e-05
4.00246e-05
0.0338681
0.019417
0.00632824
0.000112995
2.84689e-05
7.72591e-06
3.23908e-05
4.80768e-05
4.59916e-05
3.85947e-05
3.96286e-05
4.04942e-05
4.0255e-05
4.01684e-05
4.01615e-05
4.0153e-05
4.01394e-05
4.01357e-05
4.0138e-05
4.01417e-05
4.01466e-05
4.0151e-05
4.01541e-05
4.01553e-05
4.01545e-05
4.01523e-05
4.01495e-05
4.01465e-05
4.01431e-05
4.01394e-05
4.01353e-05
4.01308e-05
4.01263e-05
4.01221e-05
4.01182e-05
4.01143e-05
4.011e-05
4.01053e-05
4.01007e-05
4.00969e-05
4.00939e-05
4.0091e-05
4.00872e-05
4.00832e-05
4.00797e-05
4.00762e-05
4.00726e-05
4.00691e-05
4.00658e-05
4.00626e-05
4.00596e-05
4.0057e-05
4.00552e-05
4.0054e-05
4.00529e-05
4.00515e-05
4.00504e-05
4.00497e-05
4.00495e-05
4.005e-05
4.00515e-05
4.00539e-05
4.00568e-05
4.00602e-05
4.00638e-05
4.00675e-05
4.00711e-05
4.00748e-05
4.00774e-05
4.00765e-05
4.00746e-05
4.00758e-05
4.00816e-05
4.00923e-05
4.01019e-05
4.00999e-05
4.0084e-05
4.00771e-05
4.01052e-05
4.00956e-05
4.00222e-05
0.0134793
0.00577167
0.000585885
0.000148367
0
8.07221e-06
3.33999e-05
5.06581e-05
4.47937e-05
3.8748e-05
4.00142e-05
4.0543e-05
4.02837e-05
4.01855e-05
4.01757e-05
4.01665e-05
4.01646e-05
4.01755e-05
4.01904e-05
4.02062e-05
4.02206e-05
4.0231e-05
4.02358e-05
4.02352e-05
4.02302e-05
4.02224e-05
4.02132e-05
4.02033e-05
4.01933e-05
4.01834e-05
4.01739e-05
4.01649e-05
4.01568e-05
4.01496e-05
4.01431e-05
4.01367e-05
4.01301e-05
4.01237e-05
4.01183e-05
4.01142e-05
4.01105e-05
4.01059e-05
4.01004e-05
4.00954e-05
4.00911e-05
4.00868e-05
4.00824e-05
4.00783e-05
4.00743e-05
4.00705e-05
4.00671e-05
4.00643e-05
4.00625e-05
4.0061e-05
4.00593e-05
4.00575e-05
4.00562e-05
4.00553e-05
4.00549e-05
4.00554e-05
4.00571e-05
4.00595e-05
4.00624e-05
4.00657e-05
4.00692e-05
4.00726e-05
4.00759e-05
4.00791e-05
4.00812e-05
4.00801e-05
4.00783e-05
4.00803e-05
4.00872e-05
4.00984e-05
4.0107e-05
4.01025e-05
4.00851e-05
4.00802e-05
4.01092e-05
4.00938e-05
4.00205e-05
0.00223901
0.00010671
2.92454e-05
0
5.20108e-06
2.14561e-05
4.67369e-05
5.06285e-05
4.21098e-05
4.02036e-05
4.11224e-05
4.10297e-05
4.06648e-05
4.04978e-05
4.04064e-05
4.0339e-05
4.03023e-05
4.02931e-05
4.0301e-05
4.03175e-05
4.03353e-05
4.03496e-05
4.03585e-05
4.03606e-05
4.0356e-05
4.03462e-05
4.03329e-05
4.03168e-05
4.02989e-05
4.02801e-05
4.02612e-05
4.02431e-05
4.02263e-05
4.02108e-05
4.01966e-05
4.01832e-05
4.01709e-05
4.01606e-05
4.01526e-05
4.01458e-05
4.01387e-05
4.01305e-05
4.01225e-05
4.01158e-05
4.01098e-05
4.01038e-05
4.0098e-05
4.00925e-05
4.00873e-05
4.00824e-05
4.00783e-05
4.00751e-05
4.00727e-05
4.00704e-05
4.00678e-05
4.00654e-05
4.00636e-05
4.00623e-05
4.00618e-05
4.00623e-05
4.00639e-05
4.00662e-05
4.0069e-05
4.00721e-05
4.00754e-05
4.00785e-05
4.00814e-05
4.0084e-05
4.00855e-05
4.00842e-05
4.00828e-05
4.00856e-05
4.00937e-05
4.01052e-05
4.01123e-05
4.0105e-05
4.00865e-05
4.0084e-05
4.01131e-05
4.00915e-05
4.00196e-05
9.87914e-06
8.73099e-06
3.72286e-07
0
4.11539e-06
1.67311e-05
4.5575e-05
5.26508e-05
4.69151e-05
4.25253e-05
4.26482e-05
4.26691e-05
4.21056e-05
4.16322e-05
4.13013e-05
4.10278e-05
4.08109e-05
4.06573e-05
4.05559e-05
4.04894e-05
4.04525e-05
4.04363e-05
4.04321e-05
4.0433e-05
4.04345e-05
4.04353e-05
4.04336e-05
4.0428e-05
4.04179e-05
4.04039e-05
4.03864e-05
4.03662e-05
4.03443e-05
4.03217e-05
4.02988e-05
4.02764e-05
4.02551e-05
4.0236e-05
4.02198e-05
4.02059e-05
4.01927e-05
4.01792e-05
4.0166e-05
4.01546e-05
4.0145e-05
4.01361e-05
4.01275e-05
4.01194e-05
4.01119e-05
4.01049e-05
4.00986e-05
4.00934e-05
4.00892e-05
4.00857e-05
4.00822e-05
4.00785e-05
4.00753e-05
4.00728e-05
4.00711e-05
4.00703e-05
4.00707e-05
4.00721e-05
4.00742e-05
4.00767e-05
4.00795e-05
4.00825e-05
4.00851e-05
4.00875e-05
4.00894e-05
4.00904e-05
4.00889e-05
4.0088e-05
4.00919e-05
4.01011e-05
4.01127e-05
4.01178e-05
4.01074e-05
4.00879e-05
4.00885e-05
4.01168e-05
4.00888e-05
4.00195e-05
6.51068e-08
5.55032e-08
9.1541e-08
7.06844e-06
2.89183e-05
4.59494e-05
4.98945e-05
4.78229e-05
4.49526e-05
4.44392e-05
4.45095e-05
4.41193e-05
4.35767e-05
4.30892e-05
4.26311e-05
4.21951e-05
4.18008e-05
4.14585e-05
4.11705e-05
4.0943e-05
4.07736e-05
4.06431e-05
4.05484e-05
4.04851e-05
4.04466e-05
4.04243e-05
4.04134e-05
4.04101e-05
4.04101e-05
4.04096e-05
4.04065e-05
4.04006e-05
4.03911e-05
4.0378e-05
4.03619e-05
4.03437e-05
4.03244e-05
4.03048e-05
4.02855e-05
4.0266e-05
4.0246e-05
4.02264e-05
4.02085e-05
4.01933e-05
4.01798e-05
4.01673e-05
4.01556e-05
4.01449e-05
4.0135e-05
4.01261e-05
4.01182e-05
4.01117e-05
4.01062e-05
4.01011e-05
4.00959e-05
4.0091e-05
4.00869e-05
4.00837e-05
4.00814e-05
4.00804e-05
4.00806e-05
4.00817e-05
4.00833e-05
4.00855e-05
4.0088e-05
4.00904e-05
4.00926e-05
4.00943e-05
4.00955e-05
4.00957e-05
4.00942e-05
4.0094e-05
4.00992e-05
4.01094e-05
4.01206e-05
4.01232e-05
4.01097e-05
4.00896e-05
4.00939e-05
4.01202e-05
4.00858e-05
4.00202e-05
2.07558e-05
7.58609e-06
2.90067e-05
3.88484e-05
4.50768e-05
4.65677e-05
4.55973e-05
4.46683e-05
4.45277e-05
4.47088e-05
4.46691e-05
4.44594e-05
4.41967e-05
4.38985e-05
4.35608e-05
4.31974e-05
4.28247e-05
4.24547e-05
4.2098e-05
4.17663e-05
4.14656e-05
4.11985e-05
4.0969e-05
4.07791e-05
4.06278e-05
4.05156e-05
4.04416e-05
4.03909e-05
4.036e-05
4.03442e-05
4.03387e-05
4.03379e-05
4.034e-05
4.03432e-05
4.03453e-05
4.03448e-05
4.03409e-05
4.03328e-05
4.03202e-05
4.03037e-05
4.02848e-05
4.02654e-05
4.02469e-05
4.02297e-05
4.02135e-05
4.01982e-05
4.0184e-05
4.0171e-05
4.01591e-05
4.01485e-05
4.01393e-05
4.01314e-05
4.01244e-05
4.01175e-05
4.01109e-05
4.01048e-05
4.00999e-05
4.0096e-05
4.00932e-05
4.00919e-05
4.00918e-05
4.00925e-05
4.00937e-05
4.00955e-05
4.00975e-05
4.00993e-05
4.01008e-05
4.01018e-05
4.01021e-05
4.01015e-05
4.01001e-05
4.01011e-05
4.01076e-05
4.01187e-05
4.0129e-05
4.01286e-05
4.01116e-05
4.00917e-05
4.01001e-05
4.01232e-05
4.00825e-05
4.00216e-05
4.16529e-05
4.01171e-05
4.26542e-05
4.34563e-05
4.35391e-05
4.329e-05
4.3234e-05
4.34225e-05
4.36967e-05
4.38834e-05
4.3966e-05
4.39808e-05
4.39385e-05
4.3838e-05
4.36838e-05
4.34847e-05
4.32497e-05
4.29873e-05
4.27062e-05
4.24159e-05
4.21243e-05
4.1839e-05
4.15678e-05
4.13169e-05
4.10907e-05
4.0894e-05
4.07279e-05
4.05905e-05
4.04807e-05
4.03964e-05
4.03353e-05
4.02962e-05
4.02761e-05
4.02687e-05
4.02713e-05
4.02792e-05
4.02873e-05
4.02926e-05
4.02936e-05
4.02901e-05
4.02832e-05
4.02739e-05
4.02625e-05
4.02495e-05
4.02352e-05
4.02205e-05
4.02061e-05
4.01925e-05
4.018e-05
4.01687e-05
4.01588e-05
4.01499e-05
4.01415e-05
4.01334e-05
4.01257e-05
4.01189e-05
4.01133e-05
4.01089e-05
4.01059e-05
4.01043e-05
4.01038e-05
4.01041e-05
4.0105e-05
4.01062e-05
4.01076e-05
4.01088e-05
4.01096e-05
4.01098e-05
4.0109e-05
4.01076e-05
4.01066e-05
4.01089e-05
4.0117e-05
4.01288e-05
4.01377e-05
4.01336e-05
4.01132e-05
4.00939e-05
4.0107e-05
4.01256e-05
4.00787e-05
4.00236e-05
4.18159e-05
4.1971e-05
4.17945e-05
4.17734e-05
4.17865e-05
4.19118e-05
4.21434e-05
4.24179e-05
4.26811e-05
4.29102e-05
4.30996e-05
4.32416e-05
4.33292e-05
4.33615e-05
4.33424e-05
4.32779e-05
4.31742e-05
4.30364e-05
4.28692e-05
4.26773e-05
4.24656e-05
4.22397e-05
4.20061e-05
4.17711e-05
4.1541e-05
4.13219e-05
4.11181e-05
4.09325e-05
4.07676e-05
4.06245e-05
4.05043e-05
4.0408e-05
4.03352e-05
4.0284e-05
4.02513e-05
4.02337e-05
4.02275e-05
4.02274e-05
4.02301e-05
4.02346e-05
4.02394e-05
4.02427e-05
4.02435e-05
4.02408e-05
4.02348e-05
4.02264e-05
4.02163e-05
4.02053e-05
4.01943e-05
4.01838e-05
4.0174e-05
4.01647e-05
4.01556e-05
4.01469e-05
4.01389e-05
4.0132e-05
4.01264e-05
4.0122e-05
4.01191e-05
4.01176e-05
4.01169e-05
4.0117e-05
4.01175e-05
4.01182e-05
4.0119e-05
4.01195e-05
4.01195e-05
4.01187e-05
4.01168e-05
4.01148e-05
4.01146e-05
4.01188e-05
4.01283e-05
4.01402e-05
4.01467e-05
4.01382e-05
4.01146e-05
4.00973e-05
4.01147e-05
4.01269e-05
4.00748e-05
4.00271e-05
4.14241e-05
4.15783e-05
4.12661e-05
4.11949e-05
4.11836e-05
4.12461e-05
4.13724e-05
4.15503e-05
4.17657e-05
4.2002e-05
4.22387e-05
4.24552e-05
4.26354e-05
4.27705e-05
4.28583e-05
4.29012e-05
4.29031e-05
4.2868e-05
4.27989e-05
4.26982e-05
4.25689e-05
4.24146e-05
4.22402e-05
4.2051e-05
4.18526e-05
4.16507e-05
4.14502e-05
4.12556e-05
4.10708e-05
4.08996e-05
4.07452e-05
4.06107e-05
4.04976e-05
4.04057e-05
4.03334e-05
4.0278e-05
4.02369e-05
4.02076e-05
4.01888e-05
4.01789e-05
4.01768e-05
4.01814e-05
4.01877e-05
4.01942e-05
4.01993e-05
4.02021e-05
4.02025e-05
4.02003e-05
4.01961e-05
4.01902e-05
4.0183e-05
4.01749e-05
4.01663e-05
4.01577e-05
4.01499e-05
4.0143e-05
4.01374e-05
4.01332e-05
4.01304e-05
4.01288e-05
4.0128e-05
4.01277e-05
4.01278e-05
4.01281e-05
4.01284e-05
4.01283e-05
4.01277e-05
4.01259e-05
4.01227e-05
4.01198e-05
4.01206e-05
4.01266e-05
4.01377e-05
4.01499e-05
4.01541e-05
4.01414e-05
4.01148e-05
4.00992e-05
4.01222e-05
4.01281e-05
4.00704e-05
4.00289e-05
4.17608e-05
4.19124e-05
4.15055e-05
4.1318e-05
4.11668e-05
4.10639e-05
4.10148e-05
4.10235e-05
4.10892e-05
4.12041e-05
4.13546e-05
4.15238e-05
4.16957e-05
4.18578e-05
4.2002e-05
4.21234e-05
4.22184e-05
4.22838e-05
4.23167e-05
4.23156e-05
4.22811e-05
4.22164e-05
4.21263e-05
4.2016e-05
4.18904e-05
4.17535e-05
4.16089e-05
4.14595e-05
4.13087e-05
4.11599e-05
4.10168e-05
4.08826e-05
4.07593e-05
4.06483e-05
4.05495e-05
4.04629e-05
4.03886e-05
4.03266e-05
4.02767e-05
4.0238e-05
4.02095e-05
4.01896e-05
4.01761e-05
4.01677e-05
4.01629e-05
4.01608e-05
4.01616e-05
4.01636e-05
4.01656e-05
4.01661e-05
4.01651e-05
4.01623e-05
4.01585e-05
4.01544e-05
4.01506e-05
4.01474e-05
4.01451e-05
4.01437e-05
4.01433e-05
4.01433e-05
4.01436e-05
4.0144e-05
4.01445e-05
4.01448e-05
4.01448e-05
4.0144e-05
4.0142e-05
4.01385e-05
4.01344e-05
4.01326e-05
4.01369e-05
4.01467e-05
4.01592e-05
4.01686e-05
4.01655e-05
4.01444e-05
4.01158e-05
4.01087e-05
4.01355e-05
4.0126e-05
4.0066e-05
4.00381e-05
)
;

boundaryField
{
    inlet
    {
        type            freestream;
        freestreamValue uniform 4e-05;
        value           uniform 4e-05;
    }
    outlet
    {
        type            freestream;
        freestreamValue uniform 4e-05;
        value           nonuniform List<scalar> 
82
(
4.17608e-05
4.15055e-05
4.19124e-05
4.1318e-05
4.11668e-05
4.10639e-05
4.10148e-05
4.10235e-05
4.10892e-05
4.12041e-05
4.13546e-05
4.15238e-05
4.16957e-05
4.18578e-05
4.2002e-05
4.21234e-05
4.22184e-05
4.22838e-05
4.23167e-05
4.23156e-05
4.22811e-05
4.22164e-05
4.21263e-05
4.2016e-05
4.18904e-05
4.17535e-05
4.16089e-05
4.14595e-05
4.13087e-05
4.11599e-05
4.10168e-05
4.08826e-05
4.07593e-05
4.06483e-05
4.05495e-05
4.04629e-05
4.03886e-05
4.03266e-05
4.02767e-05
4.0238e-05
4.02095e-05
4.01896e-05
4.01761e-05
4.01677e-05
4.01629e-05
4.01608e-05
4.01616e-05
4.01636e-05
4.01656e-05
4.01661e-05
4.01651e-05
4.01623e-05
4.01585e-05
4.01544e-05
4.01506e-05
4.01474e-05
4.01451e-05
4.01437e-05
4.01433e-05
4.01433e-05
4.01436e-05
4.0144e-05
4.01445e-05
4.01448e-05
4.01448e-05
4.0144e-05
4.0142e-05
4.01385e-05
4.01344e-05
4.01326e-05
4.01369e-05
4.01467e-05
4.01592e-05
4.01686e-05
4.01655e-05
4.01444e-05
4.01158e-05
4.01087e-05
4.01355e-05
4.0126e-05
4.0066e-05
4.00381e-05
)
;
    }
    walls
    {
        type            fixedValue;
        value           nonuniform List<scalar> 0();
    }
    frontAndBack
    {
        type            empty;
    }
    procBoundary3to2
    {
        type            processor;
        value           nonuniform List<scalar> 
88
(
4.00871e-05
4.00501e-05
4.00676e-05
4.00668e-05
4.00668e-05
4.00841e-05
4.0082e-05
4.0082e-05
4.00628e-05
4.00672e-05
4.00762e-05
4.00762e-05
4.00587e-05
4.00633e-05
4.00645e-05
4.00633e-05
4.00625e-05
4.00625e-05
4.00406e-05
4.00437e-05
4.00473e-05
4.0051e-05
4.00548e-05
4.00548e-05
4.00321e-05
4.00327e-05
4.00336e-05
4.00346e-05
4.00357e-05
4.00371e-05
4.00389e-05
4.00389e-05
4.00537e-05
4.00514e-05
4.00492e-05
4.0047e-05
4.00446e-05
4.00423e-05
4.00403e-05
4.00386e-05
4.0037e-05
4.00354e-05
4.00342e-05
4.00338e-05
4.00338e-05
7.13638e-05
9.19662e-06
3.91289e-05
5.239e-05
4.79595e-05
4.01481e-05
3.76362e-05
3.9011e-05
4.03156e-05
4.04141e-05
4.01423e-05
4.00766e-05
4.01074e-05
4.01246e-05
4.01206e-05
4.01212e-05
4.0123e-05
4.01228e-05
4.01215e-05
4.01195e-05
4.0117e-05
4.01146e-05
4.01121e-05
4.01098e-05
4.01073e-05
4.01046e-05
4.01016e-05
4.00985e-05
4.00953e-05
4.00921e-05
4.00887e-05
4.00852e-05
4.00817e-05
4.00783e-05
4.00752e-05
4.00725e-05
4.007e-05
4.00676e-05
4.00652e-05
4.00629e-05
4.00606e-05
4.00586e-05
4.00586e-05
)
;
    }
    procBoundary3to6
    {
        type            processor;
        value           uniform 0.00027784;
    }
    procBoundary3to7
    {
        type            processor;
        value           nonuniform List<scalar> 
16
(
0.046343
0.0725677
0.080343
0.0762372
0.0644908
0.0436421
0.0197385
0.00477115
0.00477115
0.000436395
1.60238e-06
2.04825e-06
3.83896e-05
4.20363e-05
4.17524e-05
4.21261e-05
)
;
    }
}


// ************************************************************************* //
