/*--------------------------------*- C++ -*----------------------------------*\
| =========                 |                                                 |
| \\      /  F ield         | OpenFOAM: The Open Source CFD Toolbox           |
|  \\    /   O peration     | Version:  2306                                  |
|   \\  /    A nd           | Website:  www.openfoam.com                      |
|    \\/     M anipulation  |                                                 |
\*---------------------------------------------------------------------------*/
FoamFile
{
    version     2.0;
    format      ascii;
    arch        "LSB;label=32;scalar=64";
    class       volScalarField;
    location    "75";
    object      turbulenceProperties:L;
}
// * * * * * * * * * * * * * * * * * * * * * * * * * * * * * * * * * * * * * //

dimensions      [0 1 0 0 0 0 0];

internalField   nonuniform List<scalar> 
1340
(
0.333193
0.212478
0.537853
0.302279
0.334902
0.213003
0.418924
0.393047
0.528905
0.302797
0.33576
0.21356
0.357309
0.373015
0.38342
0.411048
0.38884
0.519133
0.303191
0.336021
0.214122
0.304814
0.313149
0.320906
0.329657
0.340278
0.352451
0.367457
0.377611
0.403374
0.385045
0.509225
0.303583
0.335993
0.214669
0.263437
0.269698
0.276615
0.283912
0.29226
0.301347
0.309292
0.316656
0.325265
0.335795
0.347639
0.361911
0.37187
0.395887
0.381589
0.499842
0.304095
0.33594
0.215182
0.231934
0.234775
0.23785
0.241233
0.244985
0.249219
0.25413
0.259887
0.26617
0.273089
0.280265
0.288625
0.297707
0.305294
0.31234
0.320984
0.331372
0.342716
0.356343
0.366168
0.388702
0.378496
0.49105
0.304807
0.336018
0.215654
0.215779
0.215385
0.215205
0.215199
0.215427
0.21593
0.21679
0.217902
0.219279
0.22084
0.22271
0.2251
0.227853
0.230609
0.233712
0.237145
0.240994
0.245226
0.250215
0.256117
0.262456
0.269355
0.276564
0.284966
0.293869
0.301186
0.307973
0.316651
0.326885
0.337901
0.35096
0.36072
0.381901
0.375792
0.482746
0.30574
0.336353
0.216044
0.592767
0.087076
0.0521341
0.527242
0.109394
0.101488
0.112133
0.137561
0.159565
0.166446
0.170674
0.178916
0.188848
0.197243
0.20524
0.213795
0.22312
0.233414
0.244772
0.257338
0.271117
0.286008
0.301409
0.316132
0.328267
0.335487
0.336255
0.330884
0.321023
0.308706
0.295576
0.282825
0.270943
0.260271
0.250837
0.242759
0.23589
0.230033
0.224952
0.220914
0.217498
0.214732
0.21312
0.211755
0.210542
0.210063
0.209668
0.20972
0.21016
0.211016
0.212156
0.21362
0.215392
0.21739
0.219879
0.222996
0.226005
0.229217
0.232791
0.236788
0.241222
0.24638
0.252177
0.258586
0.265532
0.272811
0.281276
0.290188
0.29726
0.30385
0.312596
0.32266
0.333377
0.345927
0.355644
0.375542
0.373417
0.474836
0.306988
0.33702
0.216329
1.47698
0.583654
0.22627
0
0.475316
0.0938104
0.0917515
0.101702
0.118245
0.127964
0.13429
0.141553
0.150538
0.160219
0.170092
0.180877
0.193512
0.208649
0.226947
0.249005
0.275706
0.30718
0.34108
0.368572
0.376341
0.36286
0.339879
0.316866
0.29701
0.2807
0.267146
0.255741
0.245989
0.237658
0.230558
0.224653
0.219748
0.215555
0.211695
0.208308
0.205882
0.204073
0.202671
0.202132
0.201636
0.201348
0.201375
0.201772
0.202525
0.203639
0.205027
0.206706
0.208761
0.211177
0.214042
0.217162
0.220448
0.22394
0.227808
0.232071
0.236806
0.242165
0.248088
0.254615
0.261699
0.269127
0.277728
0.286728
0.293636
0.300065
0.308831
0.318744
0.329201
0.341222
0.350818
0.369518
0.371359
0.467412
0.308566
0.3382
0.216479
0.682652
0.668723
0.645001
0.148939
0
0.541606
0.0961847
0.0866969
0.092612
0.107
0.112891
0.119098
0.12579
0.133374
0.14054
0.147836
0.155422
0.163339
0.17153
0.179838
0.188091
0.195942
0.202918
0.208546
0.212461
0.214577
0.215029
0.214202
0.212496
0.210349
0.207997
0.205574
0.203145
0.200825
0.198667
0.196797
0.195275
0.193976
0.192564
0.191037
0.190151
0.190041
0.190127
0.190104
0.190287
0.190731
0.191535
0.192549
0.193832
0.195397
0.197199
0.199237
0.201673
0.204551
0.207785
0.211172
0.214762
0.218618
0.222842
0.227453
0.23254
0.238157
0.244286
0.250994
0.258259
0.26585
0.274644
0.283784
0.290548
0.296832
0.305613
0.315385
0.325536
0.336993
0.346396
0.364053
0.369756
0.460875
0.31069
0.339847
0.216475
0.52364
0.460611
0.387631
0.575795
0
0.646805
0.0973585
0.078522
0.0847913
0.0979282
0.102074
0.106858
0.112608
0.118417
0.123967
0.129485
0.134819
0.139953
0.144836
0.149419
0.153634
0.157414
0.160702
0.163463
0.165673
0.167324
0.168468
0.169196
0.169594
0.169763
0.169809
0.169808
0.169784
0.16976
0.16978
0.169901
0.170211
0.170669
0.171011
0.171142
0.171738
0.173006
0.174282
0.17525
0.176343
0.177719
0.179318
0.181018
0.18293
0.185063
0.187399
0.189933
0.192858
0.196215
0.199828
0.203576
0.207555
0.211833
0.216454
0.221467
0.226943
0.23287
0.239278
0.246238
0.253726
0.261546
0.270631
0.28001
0.286778
0.293032
0.301882
0.31161
0.321569
0.332485
0.341658
0.358462
0.368143
0.455282
0.313428
0.342618
0.216211
0.434536
0.374452
0.29211
0.130356
0.0913989
0.910061
0.120933
0.0722581
0.0816566
0.0935436
0.0956983
0.0988593
0.103798
0.108312
0.112767
0.117112
0.121222
0.125115
0.128775
0.132168
0.135245
0.137989
0.140395
0.142481
0.144255
0.145739
0.146965
0.147943
0.148724
0.149377
0.149968
0.150536
0.151121
0.151763
0.152439
0.153141
0.153962
0.154919
0.155874
0.1568
0.158193
0.160047
0.161801
0.163424
0.165237
0.167298
0.169462
0.171705
0.174137
0.176738
0.179524
0.182505
0.185862
0.189597
0.193522
0.197623
0.201989
0.206659
0.211649
0.217039
0.222886
0.229133
0.235865
0.243136
0.250923
0.259039
0.268533
0.27826
0.285152
0.291461
0.300403
0.310161
0.319913
0.330273
0.339159
0.355424
0.368675
0.451671
0.317337
0.344504
0.215996
0.357168
0.293887
0.209362
0.0459162
0.152715
0.747727
0.104494
0.0810345
0.0855471
0.0978962
0.096376
0.0962134
0.0983119
0.100221
0.102144
0.104112
0.106104
0.108157
0.110235
0.112282
0.114282
0.116233
0.118135
0.119974
0.121747
0.123468
0.125119
0.126667
0.128141
0.129577
0.130971
0.132325
0.133704
0.135115
0.136523
0.137881
0.139234
0.140661
0.142149
0.143756
0.145717
0.14782
0.149861
0.151991
0.154348
0.156902
0.15955
0.162313
0.165265
0.168347
0.171597
0.175062
0.178847
0.182919
0.187162
0.191651
0.196406
0.20145
0.206813
0.212576
0.218769
0.225336
0.232402
0.239972
0.248006
0.256384
0.266257
0.276231
0.283148
0.289522
0.298606
0.308536
0.318225
0.328072
0.336785
0.35255
0.370193
0.445756
0.32316
0.347579
0.218966
0.323396
0.229211
0.0909531
0.0644592
0
0.662502
0.0886103
0.0627165
0.068713
0.0787703
0.0781525
0.078856
0.080903
0.0825536
0.0839794
0.0852455
0.0865225
0.0877905
0.0890674
0.0903511
0.0916558
0.0930658
0.0945354
0.0960465
0.0976307
0.0992946
0.101045
0.102853
0.1047
0.106619
0.108575
0.110563
0.112635
0.114774
0.116888
0.118983
0.121081
0.123252
0.125517
0.127877
0.130391
0.132939
0.135537
0.138277
0.141189
0.144243
0.147418
0.150754
0.154241
0.157865
0.16164
0.165633
0.169865
0.174305
0.178942
0.18386
0.189009
0.194425
0.200156
0.20626
0.212734
0.219583
0.226921
0.234732
0.242966
0.251617
0.261843
0.272066
0.278993
0.28542
0.294751
0.304877
0.314425
0.323607
0.332151
0.347718
0.370615
0.439315
0.328556
0.350166
0.218382
0.164097
0.0391654
0.0690768
0
1.08004
0.150946
0.0640169
0.0580095
0.0627256
0.0633943
0.0612971
0.061226
0.0620595
0.0630387
0.0642401
0.0656337
0.06721
0.0688317
0.0705587
0.0722889
0.0740484
0.0758414
0.077664
0.0794906
0.0813711
0.0832591
0.0852112
0.087229
0.0892845
0.0914226
0.0936199
0.0958793
0.0982409
0.100681
0.103128
0.105635
0.108186
0.11082
0.11351
0.116266
0.119123
0.122098
0.125181
0.128376
0.131719
0.135211
0.138852
0.142661
0.146609
0.150718
0.154975
0.159408
0.164035
0.16884
0.173893
0.179216
0.18473
0.190514
0.196587
0.202989
0.209714
0.216813
0.22438
0.232408
0.24084
0.24978
0.260357
0.270778
0.277718
0.284177
0.293586
0.303632
0.312647
0.320873
0.329021
0.344639
0.372123
0.435563
0.333453
0.356011
0.217622
0.16552
0.203739
17.7535
0
0.760185
0.106445
0.0374555
0.0401276
0.0505607
0.0656141
0.0784106
0.0833969
0.0788225
0.0728414
0.0685048
0.0657918
0.0643118
0.0636364
0.0635553
0.063948
0.0646731
0.0656889
0.0669336
0.0683747
0.0699737
0.0717055
0.0735467
0.0754921
0.0775569
0.0796945
0.0819348
0.0842735
0.0866888
0.0892189
0.0918525
0.0945261
0.0972977
0.100117
0.102976
0.105896
0.108895
0.112045
0.115344
0.118716
0.122186
0.125786
0.129556
0.133487
0.137568
0.141812
0.146232
0.150791
0.155498
0.160401
0.165527
0.170942
0.176607
0.18246
0.188599
0.195001
0.201686
0.208682
0.216055
0.223876
0.23215
0.240834
0.250114
0.261027
0.271582
0.278647
0.28522
0.294577
0.304359
0.312604
0.319791
0.327587
0.343786
0.37564
0.434089
0.338399
0.362703
0.217023
0.519634
0.250829
1.4426
0.266719
0.0375702
0.0254203
0.0258063
0.0284267
0.0321609
0.0356832
0.0398219
0.0456077
0.0537117
0.0656678
0.0856925
0.128771
0.180115
0.120696
0.0974301
0.0865799
0.0806207
0.0772331
0.0753466
0.0744453
0.0742622
0.0745818
0.0753269
0.0763845
0.0777224
0.0792951
0.0810761
0.0830416
0.0851686
0.0874646
0.0898931
0.0924206
0.095048
0.0977533
0.10054
0.103453
0.106526
0.109765
0.113116
0.116525
0.120037
0.123709
0.127546
0.131546
0.135707
0.140045
0.144549
0.149188
0.153986
0.159031
0.164359
0.169985
0.175854
0.181946
0.188331
0.194968
0.20188
0.209118
0.216749
0.224811
0.233335
0.242308
0.251939
0.263085
0.273656
0.281012
0.287864
0.29704
0.306327
0.313575
0.319695
0.327369
0.344739
0.38091
0.43321
0.343184
0.369563
0.216545
0.0589353
0.287341
0.0370408
0.0273357
0.024768
0.0248383
0.0259673
0.0273367
0.0286271
0.0300413
0.0318779
0.034196
0.0370445
0.0405748
0.0449894
0.050622
0.0579922
0.0680108
0.0824459
0.104885
0.1404
0.158411
0.133541
0.114614
0.103716
0.0972469
0.0933096
0.0910164
0.0898249
0.0894376
0.0896499
0.0903461
0.091413
0.0928094
0.0944474
0.096303
0.0983604
0.100627
0.103105
0.105811
0.108726
0.111789
0.114954
0.118225
0.121644
0.125241
0.129004
0.132937
0.137046
0.141325
0.145764
0.150353
0.155157
0.160265
0.165692
0.17141
0.177384
0.183618
0.19015
0.196937
0.204022
0.211462
0.219296
0.227561
0.236312
0.245546
0.255439
0.266594
0.276965
0.284786
0.292101
0.300833
0.309283
0.315321
0.320488
0.328469
0.347842
0.388486
0.432666
0.347587
0.377158
0.216015
0.0309008
0.0362389
0.0290672
0.028377
0.0284003
0.0286925
0.0290478
0.0294378
0.0299421
0.0306698
0.0316437
0.032873
0.0343854
0.0362323
0.0384661
0.0411574
0.0444084
0.0483335
0.0531172
0.0589848
0.0662717
0.0754031
0.0868697
0.100973
0.116405
0.127867
0.130211
0.125729
0.119853
0.114925
0.111342
0.108949
0.107513
0.106837
0.106788
0.107271
0.108232
0.109634
0.111416
0.113531
0.115892
0.11845
0.121194
0.12414
0.127301
0.130671
0.134239
0.137997
0.141943
0.146062
0.150353
0.154847
0.159626
0.164751
0.170207
0.175954
0.181977
0.188304
0.194924
0.201826
0.209055
0.216669
0.224676
0.233117
0.242051
0.25146
0.261429
0.272286
0.282251
0.290748
0.298614
0.306482
0.313664
0.318185
0.322343
0.330909
0.352812
0.39721
0.429937
0.350549
0.384917
0.214932
0.0377493
0.043461
0.0356417
0.0347606
0.0343332
0.0339825
0.0337526
0.0336658
0.0337478
0.0340153
0.0344721
0.0351289
0.036006
0.0371226
0.0385035
0.0401741
0.0421752
0.0445509
0.0473678
0.0507018
0.0546339
0.0593032
0.0648196
0.0713794
0.0791319
0.0881549
0.0983932
0.109164
0.119047
0.126007
0.129113
0.129107
0.127568
0.125742
0.124251
0.123335
0.123049
0.123347
0.124158
0.125388
0.126973
0.128906
0.131171
0.133767
0.136671
0.139862
0.143314
0.147008
0.150926
0.15505
0.159397
0.164026
0.168999
0.17434
0.180001
0.18596
0.192215
0.198784
0.205645
0.212804
0.220312
0.228201
0.236459
0.245115
0.254216
0.263708
0.273508
0.283709
0.29294
0.302322
0.31076
0.316985
0.322233
0.324916
0.328515
0.339013
0.365817
0.416469
0.435079
0.356069
0.405414
0.213603
0.0479504
0.0580339
0.0443896
0.0424834
0.0412463
0.0402616
0.0395209
0.0389797
0.0386225
0.0384481
0.0384506
0.0386406
0.0390273
0.0396223
0.0404354
0.0414713
0.0427538
0.0442977
0.0461348
0.0482989
0.0508138
0.0537548
0.0571427
0.0610489
0.0655236
0.0706171
0.0763549
0.0827065
0.0895873
0.0967006
0.103712
0.110067
0.115307
0.119292
0.122086
0.124043
0.125488
0.126722
0.12793
0.129244
0.130767
0.13255
0.134644
0.137049
0.139767
0.142795
0.146103
0.149691
0.153526
0.157637
0.162045
0.16681
0.171966
0.177491
0.183352
0.189539
0.196056
0.202898
0.210032
0.217494
0.225319
0.233514
0.242032
0.250877
0.260032
0.26935
0.278559
0.287651
0.295973
0.30618
0.314904
0.319301
0.322775
0.324105
0.327443
0.339315
0.368943
0.418968
0.420744
0.355586
0.42999
0.206315
0.0899277
0.139964
0.0734138
0.0650628
0.0598794
0.0562966
0.0536942
0.0517559
0.0502949
0.049209
0.0484236
0.0479144
0.0476556
0.0476418
0.0478608
0.0483091
0.0489956
0.0499203
0.0511033
0.0525552
0.0542941
0.0563604
0.0587517
0.0615203
0.0646908
0.0683057
0.0723918
0.076998
0.0821517
0.0878464
0.0941139
0.100841
0.107948
0.115261
0.122549
0.129564
0.136011
0.141774
0.146743
0.151047
0.154817
0.158258
0.161546
0.16482
0.168193
0.171711
0.175427
0.179354
0.183549
0.18806
0.192953
0.198279
0.204035
0.210185
0.21671
0.223604
0.230855
0.238426
0.246316
0.254565
0.263168
0.272054
0.281113
0.290269
0.299431
0.308365
0.316802
0.324617
0.33112
0.34322
0.353156
0.352566
0.351271
0.34924
0.353423
0.373816
0.426158
0.51109
0.477018
0.412481
0.649195
0.20971
)
;

boundaryField
{
    inlet
    {
        type            calculated;
        value           nonuniform List<scalar> 
23
(
0.116813
0.117516
0.118206
0.11888
0.11954
0.120191
0.120838
0.121488
0.122151
0.122839
0.12357
0.124342
0.125244
0.126415
0.127488
0.128817
0.130496
0.132597
0.13521
0.138414
0.142474
0.145826
0.153479
)
;
    }
    outlet
    {
        type            calculated;
        value           nonuniform List<scalar> 
82
(
0.0882871
0.0724806
0.135053
0.0643997
0.0593573
0.0558599
0.0533137
0.0514136
0.0499791
0.048911
0.0481372
0.047634
0.0473765
0.0473596
0.0475713
0.0480083
0.0486792
0.0495843
0.0507434
0.0521671
0.0538732
0.0559017
0.0582507
0.0609726
0.0640928
0.0676559
0.0716927
0.0762597
0.0813977
0.0871221
0.093501
0.100472
0.108028
0.116083
0.124494
0.133081
0.141527
0.149657
0.157163
0.164024
0.170194
0.175812
0.181045
0.186053
0.191004
0.195955
0.201027
0.206201
0.211605
0.217275
0.223328
0.229851
0.236839
0.244263
0.252092
0.260325
0.268952
0.277892
0.287152
0.296753
0.306663
0.316743
0.326785
0.336649
0.346258
0.355278
0.363209
0.370039
0.375352
0.389378
0.400219
0.395115
0.389438
0.382894
0.384874
0.407946
0.473946
0.578884
0.500905
0.424215
0.897748
0.221569
)
;
    }
    walls
    {
        type            calculated;
        value           nonuniform List<scalar> 0();
    }
    frontAndBack
    {
        type            empty;
    }
    procBoundary3to2
    {
        type            processor;
        value           nonuniform List<scalar> 
88
(
0.330858
0.211956
0.546105
0.301776
0.301776
0.426454
0.397652
0.397652
0.362032
0.378335
0.389226
0.389226
0.308012
0.316867
0.32503
0.334009
0.344942
0.344942
0.266644
0.272862
0.279752
0.287212
0.295723
0.295723
0.235674
0.238557
0.241639
0.245006
0.24873
0.253011
0.257913
0.257913
0.215795
0.216436
0.217133
0.217886
0.218652
0.21955
0.220694
0.22205
0.223543
0.225171
0.227156
0.229478
0.229478
0.0557684
0.73116
0.116809
0.100734
0.122057
0.160959
0.18017
0.168102
0.156903
0.154177
0.154791
0.155335
0.156195
0.158015
0.160786
0.164327
0.168622
0.173642
0.1793
0.185526
0.192262
0.199408
0.206827
0.214307
0.221608
0.228459
0.234578
0.239586
0.243066
0.244738
0.244783
0.243351
0.240815
0.237532
0.233981
0.23047
0.22723
0.224372
0.221847
0.219587
0.218233
0.217037
0.217037
)
;
    }
    procBoundary3to6
    {
        type            processor;
        value           uniform 0.0762978;
    }
    procBoundary3to7
    {
        type            processor;
        value           nonuniform List<scalar> 
16
(
1.45455
1.05047
0.703602
0.563793
0.476022
0.399252
0.38647
0.227217
0.227217
0.0451888
2.83801
2.28188
0.0426641
0.0501964
0.0710547
0.207643
)
;
    }
}


// ************************************************************************* //
