/*--------------------------------*- C++ -*----------------------------------*\
| =========                 |                                                 |
| \\      /  F ield         | OpenFOAM: The Open Source CFD Toolbox           |
|  \\    /   O peration     | Version:  2306                                  |
|   \\  /    A nd           | Website:  www.openfoam.com                      |
|    \\/     M anipulation  |                                                 |
\*---------------------------------------------------------------------------*/
FoamFile
{
    version     2.0;
    format      ascii;
    arch        "LSB;label=32;scalar=64";
    class       volSymmTensorField;
    location    "75";
    object      turbulenceProperties:devReff;
}
// * * * * * * * * * * * * * * * * * * * * * * * * * * * * * * * * * * * * * //

dimensions      [0 2 -2 0 0 0 0];

internalField   nonuniform List<symmTensor> 
1340
(
(1.50158e-08 4.1246e-08 -1.0927e-19 -6.52663e-08 -1.434e-20 5.02505e-08)
(-1.68152e-07 9.52911e-09 5.48772e-20 2.42017e-07 6.77657e-21 -7.38645e-08)
(-3.24473e-08 -1.57147e-08 -2.14707e-19 1.87359e-08 -2.74544e-20 1.37114e-08)
(-9.34283e-08 1.46453e-09 -3.35462e-20 1.21322e-07 -4.00294e-21 -2.78935e-08)
(1.01635e-08 4.24334e-08 1.61856e-20 -6.07356e-08 1.86703e-21 5.05721e-08)
(-1.64823e-07 8.6911e-09 -2.21701e-19 2.4024e-07 -2.69282e-20 -7.54167e-08)
(-5.64832e-08 -2.25334e-08 -0 5.45701e-08 -1.09979e-22 1.91313e-09)
(-5.92349e-08 -2.78843e-08 -7.26755e-20 6.42369e-08 -8.89323e-21 -5.00199e-09)
(-3.46617e-08 -1.52226e-08 2.04411e-19 2.12839e-08 2.62137e-20 1.33777e-08)
(-9.28551e-08 4.58215e-10 1.02957e-19 1.20893e-07 1.27378e-20 -2.80377e-08)
(5.66959e-09 4.34395e-08 2.76013e-23 -5.67115e-08 1.40784e-22 5.10419e-08)
(-1.61243e-07 7.28891e-09 1.83167e-19 2.3832e-07 2.21506e-20 -7.7077e-08)
(-8.16299e-08 -5.32113e-09 -9.2947e-20 8.29507e-08 -1.14329e-20 -1.32084e-09)
(-7.46395e-08 -1.0056e-08 2.01563e-21 7.53672e-08 4.63332e-22 -7.27707e-10)
(-6.86706e-08 -1.74443e-08 1.27182e-20 7.01892e-08 1.56146e-21 -1.51861e-09)
(-5.78157e-08 -2.50475e-08 -0 5.61982e-08 -2.32914e-23 1.61757e-09)
(-5.99086e-08 -2.99145e-08 -2.78401e-22 6.49504e-08 -5.21283e-23 -5.04182e-09)
(-3.69266e-08 -1.47967e-08 1.26574e-21 2.38679e-08 2.29387e-22 1.30587e-08)
(-9.24904e-08 -2.00692e-10 6.80801e-22 1.20567e-07 1.2891e-22 -2.80768e-08)
(1.61799e-09 4.42578e-08 4.01303e-24 -5.31918e-08 2.40533e-24 5.15738e-08)
(-1.57709e-07 5.1588e-09 7.28294e-22 2.36375e-07 1.35614e-22 -7.86664e-08)
(-1.12971e-07 7.51305e-09 6.6149e-21 1.13228e-07 1.02197e-21 -2.57067e-10)
(-1.07109e-07 6.20577e-10 2.80025e-20 1.07663e-07 3.44597e-21 -5.54234e-10)
(-1.01639e-07 -4.44949e-09 2.84395e-20 1.02666e-07 3.00539e-21 -1.02711e-09)
(-9.60915e-08 -5.16269e-09 -9.89233e-20 9.74034e-08 -1.21012e-20 -1.31186e-09)
(-9.00312e-08 -6.80744e-09 2.57968e-20 9.13182e-08 3.38123e-21 -1.28705e-09)
(-8.35831e-08 -9.42074e-09 -3.92925e-20 8.48726e-08 -4.95106e-21 -1.28954e-09)
(-7.6367e-08 -1.37948e-08 2.2915e-22 7.71335e-08 3.24284e-22 -7.66485e-10)
(-6.99951e-08 -2.08915e-08 9.3563e-20 7.15789e-08 1.16873e-20 -1.58385e-09)
(-5.91529e-08 -2.76739e-08 -0 5.77538e-08 -1.66418e-22 1.39912e-09)
(-6.0562e-08 -3.17884e-08 5.41087e-21 6.55623e-08 4.29015e-22 -5.00031e-09)
(-3.91846e-08 -1.44182e-08 -1.86675e-19 2.64812e-08 -2.39277e-20 1.27034e-08)
(-9.22324e-08 -6.0234e-10 -9.38716e-20 1.2025e-07 -1.16445e-20 -2.8018e-08)
(-1.77362e-09 4.48983e-08 -6.11494e-21 -5.02663e-08 -6.6051e-22 5.20399e-08)
(-1.54255e-07 2.27421e-09 2.4079e-20 2.34438e-07 2.94422e-21 -8.01826e-08)
(-1.49973e-07 2.48273e-08 5.47791e-20 1.49493e-07 5.86355e-21 4.79432e-10)
(-1.43909e-07 1.86953e-08 -5.0594e-20 1.43279e-07 -6.22778e-21 6.29481e-10)
(-1.37358e-07 1.30857e-08 -1.31754e-20 1.36693e-07 -1.65719e-21 6.65329e-10)
(-1.30638e-07 8.15931e-09 -8.17922e-20 1.30175e-07 -9.69155e-21 4.62868e-10)
(-1.23422e-07 4.20115e-09 -1.88736e-20 1.23035e-07 -1.9077e-21 3.86812e-10)
(-1.16058e-07 1.33198e-09 1.32472e-20 1.15869e-07 1.67287e-21 1.88781e-10)
(-1.09914e-07 -5.39808e-09 6.74654e-21 1.09991e-07 7.65275e-22 -7.75172e-11)
(-1.0423e-07 -1.015e-08 1.23874e-22 1.04827e-07 5.84641e-23 -5.96962e-10)
(-9.85031e-08 -1.03794e-08 1.66017e-20 9.94687e-08 1.86367e-21 -9.65642e-10)
(-9.21325e-08 -1.16338e-08 -4.53221e-20 9.31758e-08 -5.36685e-21 -1.04328e-09)
(-8.54505e-08 -1.38184e-08 8.60255e-20 8.65856e-08 1.0605e-20 -1.13516e-09)
(-7.80413e-08 -1.77877e-08 -5.57681e-20 7.87516e-08 -7.33831e-21 -7.10204e-10)
(-7.12768e-08 -2.4504e-08 -8.84255e-20 7.28272e-08 -1.08816e-20 -1.55032e-09)
(-6.04745e-08 -3.04524e-08 -0 5.92238e-08 1.68177e-22 1.25073e-09)
(-6.11751e-08 -3.36296e-08 -5.15698e-21 6.60245e-08 -4.01232e-22 -4.84942e-09)
(-4.13255e-08 -1.41111e-08 1.77296e-19 2.90504e-08 2.2697e-20 1.2275e-08)
(-9.19015e-08 -7.54466e-10 8.88458e-20 1.1984e-07 1.09858e-20 -2.79382e-08)
(-4.43524e-09 4.53429e-08 5.81386e-21 -4.79444e-08 6.24692e-22 5.23797e-08)
(-1.50858e-07 -1.33779e-09 -2.27286e-20 2.32511e-07 -2.76434e-21 -8.1653e-08)
(-1.84428e-07 6.56251e-08 -5.91595e-21 1.84575e-07 -9.82166e-22 -1.46535e-10)
(-1.81825e-07 5.84219e-08 -3.20329e-20 1.82103e-07 -3.92834e-21 -2.78174e-10)
(-1.78805e-07 5.14253e-08 -5.71678e-20 1.79114e-07 -6.05726e-21 -3.08453e-10)
(-1.75259e-07 4.46865e-08 2.02389e-20 1.75564e-07 2.6227e-21 -3.05566e-10)
(-1.71217e-07 3.80285e-08 -5.20858e-21 1.71468e-07 -5.74564e-22 -2.50703e-10)
(-1.66628e-07 3.13774e-08 2.61364e-20 1.66711e-07 3.39055e-21 -8.28897e-11)
(-1.61293e-07 2.47723e-08 6.74837e-20 1.61127e-07 7.63464e-21 1.65866e-10)
(-1.55056e-07 1.82003e-08 3.35168e-22 1.54715e-07 -1.07509e-22 3.41062e-10)
(-1.48494e-07 1.18853e-08 3.99052e-20 1.47892e-07 4.62296e-21 6.02267e-10)
(-1.41469e-07 6.23339e-09 -3.66317e-21 1.40705e-07 -5.79238e-22 7.63819e-10)
(-1.34424e-07 1.33071e-09 3.54172e-21 1.33724e-07 5.57845e-22 7.0067e-10)
(-1.26781e-07 -2.60255e-09 3.59789e-20 1.26005e-07 4.20952e-21 7.75172e-10)
(-1.19031e-07 -5.19236e-09 -1.24778e-20 1.18381e-07 -1.6396e-21 6.50035e-10)
(-1.12595e-07 -1.1697e-08 -6.27048e-21 1.1216e-07 -7.04369e-22 4.35742e-10)
(-1.06694e-07 -1.61754e-08 1.9416e-22 1.06759e-07 6.40208e-23 -6.50242e-11)
(-1.00693e-07 -1.59377e-08 -1.22637e-22 1.01223e-07 -1.54287e-23 -5.29314e-10)
(-9.40677e-08 -1.67068e-08 -3.28316e-22 9.47946e-08 -1.9321e-22 -7.26885e-10)
(-8.72901e-08 -1.84699e-08 -4.69303e-20 8.81613e-08 -5.64378e-21 -8.71263e-10)
(-7.96584e-08 -2.20746e-08 5.3058e-20 8.02038e-08 6.7e-21 -5.45312e-10)
(-7.24985e-08 -2.83924e-08 -3.0707e-22 7.38764e-08 -1.77805e-22 -1.37794e-09)
(-6.16828e-08 -3.34581e-08 -0 6.05181e-08 9.72156e-24 1.16471e-09)
(-6.16774e-08 -3.54841e-08 4.89218e-21 6.6301e-08 3.54519e-22 -4.62368e-09)
(-4.33169e-08 -1.39279e-08 -1.80774e-19 3.15355e-08 -2.30007e-20 1.17814e-08)
(-9.14648e-08 -7.3194e-10 2.37491e-22 1.19277e-07 2.69842e-22 -2.78122e-08)
(-6.42399e-09 4.55478e-08 -1.65494e-20 -4.61732e-08 -2.17539e-21 5.25972e-08)
(-1.47561e-07 -5.66185e-09 -9.12972e-23 2.30597e-07 -2.98286e-24 -8.30362e-08)
(-1.91318e-07 1.1861e-07 5.64911e-21 1.93814e-07 6.7511e-23 -2.49618e-09)
(-1.92573e-07 1.18589e-07 -3.56263e-20 1.94569e-07 -3.82929e-21 -1.99622e-09)
(-1.9394e-07 1.17363e-07 -7.13085e-22 1.95604e-07 8.06796e-22 -1.66341e-09)
(-1.9545e-07 1.151e-07 3.23783e-20 1.96837e-07 3.01539e-21 -1.38699e-09)
(-1.96786e-07 1.12047e-07 -3.45811e-20 1.97936e-07 -4.00523e-21 -1.15013e-09)
(-1.97941e-07 1.08045e-07 6.31141e-21 1.98835e-07 1.10976e-21 -8.94521e-10)
(-1.98679e-07 1.03044e-07 2.44633e-21 1.99371e-07 1.32405e-22 -6.91412e-10)
(-1.99129e-07 9.72695e-08 -5.86559e-21 1.99628e-07 -2.62719e-22 -4.98914e-10)
(-1.99084e-07 9.10664e-08 4.104e-20 1.994e-07 5.04551e-21 -3.15537e-10)
(-1.98788e-07 8.42201e-08 5.76867e-20 1.9899e-07 5.92129e-21 -2.0217e-10)
(-1.98019e-07 7.66201e-08 4.29434e-21 1.98128e-07 7.89047e-23 -1.09093e-10)
(-1.9618e-07 6.88803e-08 1.51822e-20 1.96118e-07 1.50079e-21 6.22045e-11)
(-1.93543e-07 6.07458e-08 -1.63733e-20 1.93639e-07 -1.92769e-21 -9.66718e-11)
(-1.90808e-07 5.26813e-08 -1.63626e-22 1.91078e-07 7.25581e-22 -2.70296e-10)
(-1.87322e-07 4.5232e-08 8.62499e-20 1.87621e-07 9.61485e-21 -2.98424e-10)
(-1.83233e-07 3.80512e-08 1.07836e-22 1.83569e-07 -8.88101e-22 -3.35315e-10)
(-1.78493e-07 3.12222e-08 -4.90919e-20 1.78834e-07 -5.6192e-21 -3.40702e-10)
(-1.73351e-07 2.43924e-08 -1.00447e-20 1.7356e-07 -1.10322e-21 -2.09342e-10)
(-1.67304e-07 1.73163e-08 -4.61729e-20 1.67397e-07 -5.28592e-21 -9.31693e-11)
(-1.60254e-07 1.07062e-08 -1.08445e-20 1.60183e-07 -1.01303e-21 7.00608e-11)
(-1.53054e-07 4.63718e-09 3.4392e-22 1.52617e-07 -1.36187e-22 4.36389e-10)
(-1.45519e-07 -9.73635e-10 -5.68564e-20 1.44808e-07 -6.65615e-21 7.11231e-10)
(-1.37951e-07 -5.79043e-09 -3.75079e-21 1.37187e-07 -2.51349e-22 7.63912e-10)
(-1.29819e-07 -9.52733e-09 -1.38322e-20 1.28845e-07 -1.62845e-21 9.73606e-10)
(-1.21885e-07 -1.18754e-08 -9.44523e-23 1.20827e-07 5.71362e-23 1.05798e-09)
(-1.15113e-07 -1.82894e-08 5.97686e-21 1.14147e-07 5.15718e-22 9.65505e-10)
(-1.08964e-07 -2.25747e-08 -4.84252e-20 1.08449e-07 -5.72423e-21 5.15065e-10)
(-1.0272e-07 -2.19079e-08 4.40051e-20 1.02714e-07 5.66972e-21 5.28682e-12)
(-9.58952e-08 -2.21905e-08 4.04564e-20 9.61497e-08 5.02888e-21 -2.54476e-10)
(-8.89302e-08 -2.34821e-08 7.35967e-20 8.94457e-08 8.73056e-21 -5.15531e-10)
(-8.10546e-08 -2.66915e-08 -8.55711e-20 8.1374e-08 -1.08036e-20 -3.19396e-10)
(-7.34814e-08 -3.25628e-08 -1.30958e-22 7.46312e-08 1.73886e-22 -1.1498e-09)
(-6.26857e-08 -3.67211e-08 -0 6.15665e-08 -6.57082e-24 1.11922e-09)
(-6.20241e-08 -3.73895e-08 -4.62727e-21 6.63371e-08 -5.08912e-22 -4.31309e-09)
(-4.51676e-08 -1.39012e-08 4.62775e-20 3.39149e-08 5.87331e-21 1.12527e-08)
(-9.09709e-08 -6.32463e-10 1.97429e-20 1.18553e-07 2.43744e-21 -2.75819e-08)
(-7.86124e-09 4.54476e-08 -1.93839e-20 -4.48508e-08 -2.5769e-21 5.2712e-08)
(-1.445e-07 -1.07123e-08 3.40688e-24 2.28776e-07 1.66791e-23 -8.42762e-08)
(0.000399747 0.00380702 4.48465e-18 -5.12934e-05 6.39432e-19 -0.000348453)
(1.93811e-05 0.000124472 1.16009e-19 -1.66809e-05 8.30576e-21 -2.70017e-06)
(4.86082e-06 2.01532e-05 -1.43787e-21 -5.2814e-06 -7.11151e-22 4.20585e-07)
(3.98654e-07 9.02179e-07 5.5374e-22 -4.67315e-07 8.39356e-23 6.86608e-08)
(5.8186e-07 5.39946e-07 1.12327e-21 -7.34167e-07 1.04991e-22 1.52307e-07)
(8.96904e-07 3.51889e-07 8.40927e-22 -1.16942e-06 3.17568e-23 2.72517e-07)
(6.77273e-07 1.95886e-07 3.58868e-22 -8.8981e-07 -1.48122e-22 2.12537e-07)
(4.37623e-07 1.20162e-07 -3.98056e-21 -5.70156e-07 -4.5666e-22 1.32533e-07)
(3.47012e-07 5.09031e-08 -1.43328e-21 -4.47175e-07 6.09979e-23 1.00163e-07)
(3.13611e-07 -3.34143e-08 3.40278e-21 -4.02981e-07 3.91468e-22 8.93692e-08)
(2.81238e-07 -1.07592e-07 -0 -3.62402e-07 -1.19172e-22 8.1165e-08)
(2.38088e-07 -1.51547e-07 -1.94125e-22 -3.06549e-07 2.00981e-22 6.84607e-08)
(1.94522e-07 -1.77466e-07 7.09619e-21 -2.48666e-07 7.43621e-22 5.41449e-08)
(1.55893e-07 -1.95831e-07 2.13064e-22 -1.96945e-07 3.66864e-23 4.10519e-08)
(1.20836e-07 -2.05351e-07 7.29566e-21 -1.50149e-07 7.55216e-22 2.93134e-08)
(8.93217e-08 -2.06007e-07 4.45547e-22 -1.08478e-07 -1.15737e-22 1.91564e-08)
(6.11456e-08 -2.00162e-07 1.43044e-21 -7.16253e-08 2.77042e-22 1.04797e-08)
(3.61215e-08 -1.89437e-07 5.26192e-21 -3.93341e-08 5.61175e-22 3.21259e-09)
(1.41286e-08 -1.7518e-07 2.54574e-21 -1.15673e-08 3.07675e-22 -2.56134e-09)
(-4.98751e-09 -1.58389e-07 6.82475e-21 1.18664e-08 4.55008e-22 -6.87886e-09)
(-2.14587e-08 -1.39996e-07 -6.0405e-21 3.12133e-08 -1.03301e-21 -9.75462e-09)
(-3.56223e-08 -1.20649e-07 -8.69178e-21 4.7039e-08 -6.43481e-22 -1.14167e-08)
(-4.78779e-08 -1.00966e-07 2.9097e-21 5.99092e-08 4.68661e-22 -1.20313e-08)
(-5.85848e-08 -8.13158e-08 -2.07829e-21 7.04642e-08 -4.4074e-22 -1.18795e-08)
(-6.80924e-08 -6.19959e-08 -5.92774e-21 7.91756e-08 -6.83448e-22 -1.10832e-08)
(-7.6681e-08 -4.31523e-08 -5.06062e-21 8.65858e-08 -1.2106e-22 -9.90487e-09)
(-8.4606e-08 -2.49223e-08 1.00708e-20 9.30148e-08 1.06603e-21 -8.40879e-09)
(-9.19585e-08 -7.43613e-09 -3.39836e-21 9.86957e-08 -5.52498e-22 -6.73721e-09)
(-9.89789e-08 9.15482e-09 1.27188e-21 1.03951e-07 1.05596e-22 -4.97174e-09)
(-1.05836e-07 2.47979e-08 -4.40915e-21 1.0922e-07 -3.19236e-22 -3.38403e-09)
(-1.12761e-07 3.95427e-08 6.97154e-21 1.14816e-07 9.0326e-22 -2.05489e-09)
(-1.19735e-07 5.34232e-08 4.25402e-21 1.20819e-07 3.87616e-22 -1.08338e-09)
(-1.2687e-07 6.64659e-08 5.0074e-21 1.27303e-07 6.80608e-22 -4.32428e-10)
(-1.34029e-07 7.86075e-08 1.22968e-20 1.34139e-07 9.66766e-22 -1.10295e-10)
(-1.41279e-07 8.96351e-08 -9.38787e-21 1.41351e-07 -1.30548e-21 -7.11087e-11)
(-1.4837e-07 9.93531e-08 -5.19411e-21 1.48633e-07 -3.45987e-22 -2.62225e-10)
(-1.55307e-07 1.07698e-07 4.453e-22 1.55884e-07 3.32957e-23 -5.76586e-10)
(-1.61986e-07 1.14827e-07 -6.02755e-21 1.63053e-07 -6.67188e-22 -1.06797e-09)
(-1.68504e-07 1.20948e-07 -2.39755e-21 1.70136e-07 -3.0629e-22 -1.63233e-09)
(-1.74061e-07 1.26399e-07 -9.56237e-21 1.75667e-07 -8.96668e-22 -1.60586e-09)
(-1.79945e-07 1.29862e-07 3.31666e-21 1.81644e-07 5.71243e-22 -1.69825e-09)
(-1.85921e-07 1.31108e-07 4.21702e-21 1.88047e-07 2.21831e-22 -2.12596e-09)
(-1.89636e-07 1.32565e-07 -1.07453e-20 1.90806e-07 -1.04965e-21 -1.16941e-09)
(-1.93881e-07 1.31474e-07 8.50486e-21 1.95339e-07 1.0461e-21 -1.45888e-09)
(-1.98734e-07 1.28563e-07 -3.00124e-22 2.00812e-07 -1.45911e-22 -2.07798e-09)
(-2.02011e-07 1.25721e-07 9.62943e-26 2.03716e-07 -1.13606e-23 -1.70464e-09)
(-2.05358e-07 1.2186e-07 1.69585e-22 2.07162e-07 1.25355e-22 -1.80352e-09)
(-2.07967e-07 1.17169e-07 8.60997e-21 2.09695e-07 5.59621e-22 -1.72747e-09)
(-2.09971e-07 1.11553e-07 -2.97543e-20 2.1155e-07 -3.25263e-21 -1.57941e-09)
(-2.11266e-07 1.04957e-07 1.16799e-23 2.12686e-07 3.33981e-22 -1.41988e-09)
(-2.11992e-07 9.77347e-08 8.89702e-23 2.13253e-07 -1.14896e-22 -1.2614e-09)
(-2.11977e-07 9.00895e-08 -1.13949e-20 2.13047e-07 -1.22277e-21 -1.07007e-09)
(-2.11242e-07 8.22036e-08 4.30474e-22 2.12036e-07 1.55799e-22 -7.94384e-10)
(-2.10199e-07 7.33883e-08 -1.34357e-21 2.10731e-07 -1.40779e-22 -5.32076e-10)
(-2.08114e-07 6.34553e-08 3.65984e-23 2.08748e-07 -3.32073e-23 -6.34899e-10)
(-2.04394e-07 5.43294e-08 -6.35458e-21 2.05087e-07 -6.91861e-22 -6.92968e-10)
(-2.0075e-07 4.62515e-08 5.5907e-23 2.01193e-07 -2.14121e-22 -4.43561e-10)
(-1.96583e-07 3.80645e-08 -3.68544e-20 1.97097e-07 -4.07495e-21 -5.13398e-10)
(-1.91709e-07 3.03871e-08 1.1737e-23 1.92264e-07 5.28417e-22 -5.55283e-10)
(-1.86141e-07 2.32802e-08 4.13213e-20 1.867e-07 4.64042e-21 -5.59093e-10)
(-1.80038e-07 1.62218e-08 -4.26231e-23 1.80551e-07 -1.64345e-23 -5.12167e-10)
(-1.73039e-07 9.09361e-09 4.41234e-20 1.73522e-07 5.01883e-21 -4.82705e-10)
(-1.65506e-07 2.68479e-09 -2.67781e-21 1.6571e-07 -7.33608e-22 -2.03236e-10)
(-1.57563e-07 -3.2254e-09 -3.66443e-20 1.57405e-07 -4.23031e-21 1.57887e-10)
(-1.49374e-07 -8.63937e-09 -5.12213e-22 1.48879e-07 9.79291e-23 4.95182e-10)
(-1.41195e-07 -1.32671e-08 -4.92846e-23 1.4057e-07 4.07906e-23 6.24789e-10)
(-1.3256e-07 -1.67275e-08 1.3374e-20 1.3154e-07 1.62319e-21 1.02004e-09)
(-1.24245e-07 -1.87562e-08 1.14416e-20 1.23015e-07 1.31208e-21 1.22918e-09)
(-1.17115e-07 -2.51274e-08 1.07994e-22 1.15844e-07 -2.20249e-23 1.27019e-09)
(-1.10721e-07 -2.92367e-08 -3.18018e-22 1.09759e-07 -5.31328e-23 9.6174e-10)
(-1.04271e-07 -2.81622e-08 2.02594e-22 1.03772e-07 -9.62266e-23 4.98602e-10)
(-9.73013e-08 -2.80158e-08 -3.83939e-20 9.70849e-08 -4.87076e-21 2.16402e-10)
(-9.01777e-08 -2.88473e-08 -5.93562e-20 9.03249e-08 -6.97465e-21 -1.47164e-10)
(-8.20705e-08 -3.16429e-08 8.4532e-20 8.21435e-08 1.06942e-20 -7.29854e-11)
(-7.41113e-08 -3.69995e-08 4.06693e-20 7.50003e-08 4.86734e-21 -8.89055e-10)
(-6.34247e-08 -4.02149e-08 -0 6.23176e-08 -1.04849e-22 1.10712e-09)
(-6.22206e-08 -3.9348e-08 -1.34116e-20 6.61376e-08 -1.51641e-21 -3.91699e-09)
(-4.69009e-08 -1.40302e-08 1.19632e-19 3.61743e-08 1.51292e-20 1.07266e-08)
(-9.04298e-08 -5.42328e-10 -9.195e-20 1.17605e-07 -1.18187e-20 -2.71749e-08)
(-8.82554e-09 4.50165e-08 4.8524e-21 -4.39073e-08 7.52603e-22 5.27328e-08)
(-1.41771e-07 -1.64931e-08 3.22243e-24 2.27088e-07 -3.27935e-24 -8.53168e-08)
(-0.000604254 -0.00242263 -6.74806e-19 0.00152333 -5.12028e-20 -0.000919081)
(0.000101595 0.00143255 3.22043e-19 0.000100067 2.87644e-20 -0.000201662)
(7.4305e-05 0.00061198 -9.70506e-20 -4.39713e-05 -1.30547e-20 -3.03337e-05)
(2.97542e-07 1.91905e-06 -1.27942e-22 -2.22367e-07 -4.56254e-24 -7.51755e-08)
(2.86897e-07 1.23748e-06 -4.94416e-25 -2.45301e-07 3.82198e-24 -4.15956e-08)
(4.33013e-07 1.1251e-06 -5.66986e-25 -4.17239e-07 -1.12146e-22 -1.57736e-08)
(6.83114e-07 1.14425e-06 -6.03292e-21 -7.39081e-07 -5.50987e-22 5.59664e-08)
(5.72274e-07 8.03966e-07 2.016e-21 -6.59772e-07 3.52222e-22 8.74986e-08)
(4.35367e-07 5.77003e-07 1.54061e-22 -5.13697e-07 -1.02672e-22 7.83293e-08)
(3.99458e-07 4.68421e-07 -2.43557e-21 -4.78532e-07 -2.55791e-22 7.90741e-08)
(3.88829e-07 3.73533e-07 -0 -4.74868e-07 -6.8541e-23 8.60383e-08)
(3.70117e-07 2.90464e-07 -4.88661e-21 -4.60151e-07 -5.64268e-22 9.00336e-08)
(3.40301e-07 2.24028e-07 -1.98537e-21 -4.28484e-07 -6.99192e-23 8.81831e-08)
(3.09115e-07 1.70434e-07 2.15222e-25 -3.93245e-07 -8.38093e-23 8.41307e-08)
(2.79382e-07 1.27867e-07 -4.96722e-21 -3.58918e-07 -3.78933e-22 7.95363e-08)
(2.49437e-07 9.60235e-08 4.52623e-21 -3.2338e-07 7.32894e-22 7.39423e-08)
(2.18827e-07 7.33422e-08 4.87731e-21 -2.85652e-07 2.71167e-22 6.68258e-08)
(1.88238e-07 5.8121e-08 -3.71021e-21 -2.46958e-07 -5.885e-22 5.87195e-08)
(1.58354e-07 4.90382e-08 -3.01554e-21 -2.08672e-07 -2.51726e-22 5.03179e-08)
(1.29784e-07 4.50002e-08 -1.52217e-21 -1.72062e-07 -9.42081e-23 4.22772e-08)
(1.02714e-07 4.50179e-08 -8.45953e-22 -1.37504e-07 1.62136e-22 3.47897e-08)
(7.73037e-08 4.82009e-08 7.54014e-21 -1.05395e-07 7.80544e-22 2.80917e-08)
(5.35696e-08 5.37528e-08 7.84589e-24 -7.58047e-08 -1.04225e-22 2.22351e-08)
(3.14857e-08 6.09945e-08 3.27416e-21 -4.87771e-08 4.31508e-22 1.72914e-08)
(1.1039e-08 6.93786e-08 3.80059e-21 -2.43225e-08 3.15265e-22 1.32835e-08)
(-7.85547e-09 7.84115e-08 4.85648e-22 -2.36337e-09 -1.26039e-22 1.02188e-08)
(-2.53779e-08 8.77668e-08 -3.04699e-21 1.74451e-08 -3.58952e-22 7.93277e-09)
(-4.16915e-08 9.70419e-08 -1.6268e-21 3.53554e-08 -8.76708e-23 6.33605e-09)
(-5.68647e-08 1.06014e-07 4.39045e-24 5.15089e-08 5.83131e-23 5.35574e-09)
(-7.10381e-08 1.14424e-07 8.88413e-22 6.61126e-08 8.96853e-23 4.92557e-09)
(-8.45084e-08 1.22312e-07 2.49611e-23 7.97927e-08 1.14122e-22 4.7157e-09)
(-9.75246e-08 1.29572e-07 6.10175e-21 9.29963e-08 6.11298e-22 4.52833e-09)
(-1.10087e-07 1.36311e-07 7.66229e-24 1.05772e-07 -1.3166e-22 4.31556e-09)
(-1.22286e-07 1.42287e-07 4.88902e-23 1.18252e-07 2.22075e-22 4.03439e-09)
(-1.34076e-07 1.47333e-07 1.05175e-20 1.3046e-07 1.13437e-21 3.616e-09)
(-1.45334e-07 1.51134e-07 3.2048e-21 1.42136e-07 2.34031e-24 3.19831e-09)
(-1.55897e-07 1.53821e-07 -5.85971e-21 1.53078e-07 -5.80403e-22 2.8189e-09)
(-1.65926e-07 1.55583e-07 3.79303e-21 1.63546e-07 4.96358e-22 2.37983e-09)
(-1.75717e-07 1.56812e-07 -1.23179e-23 1.74218e-07 -1.46786e-22 1.49898e-09)
(-1.84796e-07 1.57748e-07 -4.52209e-21 1.84016e-07 -5.31183e-22 7.80238e-10)
(-1.92357e-07 1.57789e-07 -4.00426e-21 1.91416e-07 -2.74529e-22 9.41648e-10)
(-2.00184e-07 1.5506e-07 3.61079e-21 1.99288e-07 5.28708e-22 8.965e-10)
(-2.07786e-07 1.49708e-07 5.79442e-21 2.08468e-07 5.87392e-22 -6.81296e-10)
(-2.12334e-07 1.45423e-07 3.09687e-21 2.13282e-07 5.86747e-22 -9.47417e-10)
(-2.16671e-07 1.41873e-07 2.46853e-20 2.16772e-07 2.52008e-21 -1.0112e-10)
(-2.21325e-07 1.3558e-07 3.63051e-24 2.21851e-07 -3.49498e-22 -5.26112e-10)
(-2.25032e-07 1.28968e-07 2.30988e-23 2.25823e-07 -1.20205e-22 -7.90957e-10)
(-2.27798e-07 1.21786e-07 -8.51311e-21 2.28674e-07 -6.38132e-22 -8.76741e-10)
(-2.29654e-07 1.13925e-07 1.86438e-20 2.30597e-07 2.0576e-21 -9.4251e-10)
(-2.30643e-07 1.05321e-07 3.16611e-22 2.31599e-07 -4.34992e-22 -9.56225e-10)
(-2.30806e-07 9.63398e-08 -2.26615e-20 2.318e-07 -2.39785e-21 -9.93242e-10)
(-2.30117e-07 8.71396e-08 7.94705e-23 2.31083e-07 -3.34755e-23 -9.6578e-10)
(-2.28411e-07 7.79556e-08 -2.62735e-20 2.29135e-07 -2.80753e-21 -7.24647e-10)
(-2.26038e-07 6.7575e-08 1.29291e-21 2.26609e-07 4.61671e-22 -5.71367e-10)
(-2.22531e-07 5.6376e-08 8.59942e-21 2.23262e-07 8.79752e-22 -7.31096e-10)
(-2.18166e-07 4.67742e-08 -5.06652e-21 2.18646e-07 -7.29129e-22 -4.79862e-10)
(-2.13244e-07 3.79032e-08 -1.45944e-20 2.13579e-07 -1.56121e-21 -3.34944e-10)
(-2.07801e-07 2.90385e-08 -3.31733e-22 2.08252e-07 4.57164e-23 -4.50041e-10)
(-2.01633e-07 2.09623e-08 1.24152e-23 2.02136e-07 -5.86806e-24 -5.02675e-10)
(-1.94844e-07 1.36533e-08 3.40432e-22 1.95361e-07 5.62402e-23 -5.16539e-10)
(-1.87456e-07 6.46595e-09 -3.24747e-23 1.87992e-07 -2.46534e-22 -5.36671e-10)
(-1.79328e-07 -5.46502e-10 -4.18917e-20 1.79888e-07 -4.68615e-21 -5.60578e-10)
(-1.70813e-07 -6.63199e-09 1.49165e-20 1.71193e-07 2.11482e-21 -3.80074e-10)
(-1.61941e-07 -1.21773e-08 3.48165e-20 1.62075e-07 4.20589e-21 -1.33602e-10)
(-1.52904e-07 -1.71769e-08 5.17667e-20 1.5274e-07 5.89368e-21 1.64628e-10)
(-1.43984e-07 -2.13604e-08 -1.2583e-22 1.43673e-07 -3.72172e-22 3.10878e-10)
(-1.34754e-07 -2.43652e-08 -3.1111e-20 1.33921e-07 -3.72876e-21 8.32683e-10)
(-1.2597e-07 -2.59967e-08 -1.08467e-20 1.24862e-07 -1.24786e-21 1.10818e-09)
(-1.18459e-07 -3.21857e-08 -2.00674e-20 1.17138e-07 -2.22044e-21 1.32123e-09)
(-1.11843e-07 -3.60861e-08 3.12976e-20 1.10623e-07 3.83686e-21 1.22001e-09)
(-1.05247e-07 -3.46643e-08 -9.74357e-21 1.04396e-07 -1.18333e-21 8.51766e-10)
(-9.81796e-08 -3.41337e-08 3.74833e-20 9.75489e-08 4.92519e-21 6.30717e-10)
(-9.09301e-08 -3.45521e-08 1.02552e-19 9.07018e-08 1.26282e-20 2.28218e-10)
(-8.26428e-08 -3.69517e-08 4.66949e-20 8.2438e-08 5.52388e-21 2.04709e-10)
(-7.43774e-08 -4.1734e-08 1.54454e-22 7.49635e-08 -7.78776e-23 -5.86065e-10)
(-6.39035e-08 -4.39462e-08 -0 6.2758e-08 2.83099e-23 1.14544e-09)
(-6.22622e-08 -4.13679e-08 1.26959e-20 6.56707e-08 1.59556e-21 -3.40855e-09)
(-4.85019e-08 -1.43236e-08 3.67904e-22 3.82965e-08 1.70338e-22 1.02054e-08)
(-8.98426e-08 -5.86499e-10 8.73148e-20 1.16427e-07 1.11178e-20 -2.65844e-08)
(-9.2875e-09 4.42471e-08 4.95133e-20 -4.33089e-08 6.40926e-21 5.25964e-08)
(-1.39537e-07 -2.30331e-08 3.09116e-24 2.256e-07 -4.0341e-23 -8.60629e-08)
(-0.00227443 -0.0253671 4.12561e-18 0.0027528 4.93623e-19 -0.000478367)
(-0.00043597 -0.00520589 1.96986e-18 0.000649952 1.5375e-19 -0.000213982)
(3.35064e-05 0.000139875 -1.61404e-20 -2.65245e-05 -1.53385e-20 -6.98191e-06)
(2.18886e-05 0.000165841 -6.09902e-20 -2.36398e-05 -5.99662e-21 1.75123e-06)
(2.42227e-07 1.79749e-06 7.34907e-23 -2.6217e-07 3.09625e-23 1.99433e-08)
(2.03426e-07 1.31602e-06 2.52219e-22 -2.11126e-07 2.39003e-23 7.69965e-09)
(2.5429e-07 1.20849e-06 -2.87467e-25 -2.73704e-07 -5.33332e-24 1.94136e-08)
(3.76477e-07 1.3439e-06 2.76451e-24 -4.38358e-07 9.46069e-26 6.18813e-08)
(3.51974e-07 1.14865e-06 8.55597e-25 -4.24075e-07 1.84927e-24 7.21017e-08)
(2.75323e-07 8.72664e-07 -4.92465e-24 -3.34255e-07 9.61496e-25 5.89323e-08)
(2.62183e-07 7.72324e-07 -0 -3.21671e-07 1.31993e-25 5.94876e-08)
(2.52905e-07 6.78446e-07 -5.91634e-24 -3.15971e-07 3.21512e-24 6.30657e-08)
(2.39513e-07 5.97654e-07 -2.7574e-24 -3.04982e-07 -4.80793e-24 6.54693e-08)
(2.22876e-07 5.23885e-07 2.34798e-24 -2.8988e-07 3.37659e-23 6.7004e-08)
(2.07931e-07 4.63181e-07 1.15129e-21 -2.76988e-07 8.93968e-23 6.90574e-08)
(1.9163e-07 4.11914e-07 -9.63587e-22 -2.61522e-07 -1.33028e-22 6.98919e-08)
(1.72923e-07 3.69527e-07 6.27396e-24 -2.41272e-07 2.16719e-23 6.83489e-08)
(1.52522e-07 3.34601e-07 -1.30913e-23 -2.17567e-07 1.13181e-24 6.5045e-08)
(1.31057e-07 3.062e-07 -1.06802e-23 -1.91579e-07 4.12191e-23 6.05211e-08)
(1.09117e-07 2.83421e-07 1.45772e-21 -1.64494e-07 1.63358e-22 5.53763e-08)
(8.67918e-08 2.65585e-07 7.92884e-22 -1.36403e-07 4.71226e-23 4.96108e-08)
(6.43834e-08 2.51935e-07 3.27801e-23 -1.07937e-07 -2.2067e-23 4.35531e-08)
(4.22286e-08 2.41813e-07 1.92584e-25 -7.96857e-08 2.77904e-24 3.7457e-08)
(2.05689e-08 2.34519e-07 1.28898e-23 -5.21794e-08 9.88932e-25 3.16105e-08)
(-3.64619e-10 2.29502e-07 9.91849e-24 -2.57881e-08 -1.16667e-22 2.61528e-08)
(-2.04929e-08 2.26157e-07 -4.65383e-21 -7.45057e-10 -4.44272e-22 2.1238e-08)
(-3.96013e-08 2.24066e-07 5.84406e-22 2.26077e-08 1.6819e-22 1.69936e-08)
(-5.77362e-08 2.22756e-07 -5.94076e-24 4.42776e-08 -1.01579e-23 1.34587e-08)
(-7.47805e-08 2.21953e-07 -6.23582e-23 6.41253e-08 -2.83707e-23 1.06552e-08)
(-9.08301e-08 2.21233e-07 -8.59256e-22 8.22402e-08 -8.11644e-23 8.58988e-09)
(-1.05934e-07 2.20477e-07 2.33834e-24 9.88297e-08 1.1664e-23 7.10463e-09)
(-1.20332e-07 2.19562e-07 2.64745e-23 1.14279e-07 6.43597e-23 6.05354e-09)
(-1.34001e-07 2.18546e-07 3.39376e-21 1.28681e-07 3.30659e-22 5.31994e-09)
(-1.47204e-07 2.17051e-07 5.83246e-24 1.42488e-07 -8.18896e-23 4.71566e-09)
(-1.59984e-07 2.14849e-07 3.83811e-23 1.55983e-07 -5.68571e-23 4.00084e-09)
(-1.72227e-07 2.11635e-07 -3.05568e-21 1.68878e-07 -1.89694e-22 3.34851e-09)
(-1.83528e-07 2.07561e-07 5.56167e-21 1.8054e-07 5.49675e-22 2.98792e-09)
(-1.941e-07 2.02857e-07 -3.63241e-21 1.9132e-07 -4.63663e-22 2.78026e-09)
(-2.04494e-07 1.98039e-07 -3.1501e-24 2.02467e-07 1.47314e-22 2.02701e-09)
(-2.14573e-07 1.93448e-07 4.2724e-21 2.13553e-07 4.99239e-22 1.01995e-09)
(-2.22568e-07 1.88556e-07 3.78462e-21 2.21312e-07 3.04331e-22 1.25586e-09)
(-2.3002e-07 1.79935e-07 3.1705e-23 2.28826e-07 -6.07831e-23 1.19382e-09)
(-2.3702e-07 1.69325e-07 1.88055e-23 2.37086e-07 -3.74697e-23 -6.58312e-11)
(-2.4224e-07 1.6208e-07 -2.81048e-21 2.42075e-07 -4.75595e-22 1.65604e-10)
(-2.46639e-07 1.54286e-07 -1.25336e-20 2.46447e-07 -1.21804e-21 1.9118e-10)
(-2.50723e-07 1.44352e-07 4.14083e-24 2.51151e-07 1.692e-22 -4.27815e-10)
(-2.53318e-07 1.34613e-07 2.62138e-23 2.53801e-07 -9.98858e-24 -4.82087e-10)
(-2.55036e-07 1.24513e-07 -9.73387e-23 2.55616e-07 -5.10436e-23 -5.80245e-10)
(-2.55737e-07 1.13997e-07 -4.72563e-21 2.5646e-07 -4.91344e-22 -7.22977e-10)
(-2.55459e-07 1.03093e-07 -2.96399e-22 2.56283e-07 2.74144e-23 -8.24944e-10)
(-2.54222e-07 9.21164e-08 -2.11818e-22 2.55178e-07 8.66209e-23 -9.5599e-10)
(-2.52064e-07 8.12633e-08 1.04294e-20 2.53111e-07 1.04672e-21 -1.04728e-09)
(-2.48717e-07 7.06181e-08 -3.99822e-21 2.49596e-07 -5.34695e-22 -8.79311e-10)
(-2.44394e-07 5.87294e-08 -1.80175e-23 2.45192e-07 -4.39022e-23 -7.98765e-10)
(-2.39027e-07 4.65662e-08 -8.1233e-21 2.39929e-07 -7.84721e-22 -9.01674e-10)
(-2.33029e-07 3.6378e-08 1.03655e-20 2.3374e-07 1.30997e-21 -7.10704e-10)
(-2.26425e-07 2.68779e-08 1.37301e-20 2.27146e-07 1.6865e-21 -7.2096e-10)
(-2.19268e-07 1.76926e-08 3.74405e-20 2.20084e-07 4.01439e-21 -8.16197e-10)
(-2.11481e-07 9.48943e-09 -1.11179e-22 2.12314e-07 -5.00167e-22 -8.3344e-10)
(-2.03166e-07 2.1549e-09 -3.34e-20 2.04004e-07 -3.69078e-21 -8.38505e-10)
(-1.94277e-07 -4.97974e-09 8.86496e-21 1.95162e-07 1.20734e-21 -8.85335e-10)
(-1.84862e-07 -1.16892e-08 -3.6031e-22 1.85799e-07 -2.15148e-22 -9.36769e-10)
(-1.75216e-07 -1.72769e-08 -1.87138e-20 1.76076e-07 -2.38152e-21 -8.601e-10)
(-1.65338e-07 -2.22162e-08 -4.8196e-20 1.66058e-07 -5.6532e-21 -7.19315e-10)
(-1.55421e-07 -2.65212e-08 -4.43667e-20 1.55899e-07 -4.84212e-21 -4.77983e-10)
(-1.45786e-07 -2.99916e-08 2.44274e-20 1.46136e-07 3.05312e-21 -3.50267e-10)
(-1.35946e-07 -3.23292e-08 -1.98165e-21 1.35696e-07 -3.05966e-22 2.50282e-10)
(-1.26739e-07 -3.33404e-08 1.03215e-20 1.26135e-07 1.21866e-21 6.03753e-10)
(-1.18914e-07 -3.92028e-08 -2.89254e-21 1.17907e-07 -3.86186e-22 1.00762e-09)
(-1.12132e-07 -4.28304e-08 1.07787e-22 1.10996e-07 3.14676e-23 1.13572e-09)
(-1.0547e-07 -4.10618e-08 2.31332e-23 1.04519e-07 -1.39113e-22 9.51004e-10)
(-9.8353e-08 -4.02269e-08 -4.26303e-20 9.74869e-08 -5.34401e-21 8.66091e-10)
(-9.10578e-08 -4.03371e-08 -4.04053e-20 9.05564e-08 -4.83979e-21 5.01415e-10)
(-8.26809e-08 -4.23963e-08 2.13605e-22 8.22248e-08 1.49691e-22 4.56068e-10)
(-7.42341e-08 -4.6571e-08 2.33023e-23 7.44899e-08 1.24596e-23 -2.5579e-10)
(-6.40832e-08 -4.7728e-08 -0 6.28596e-08 -1.56399e-23 1.22368e-09)
(-6.21188e-08 -4.33254e-08 -1.24436e-20 6.4939e-08 -1.59553e-21 -2.82021e-09)
(-4.99216e-08 -1.46414e-08 1.45555e-22 4.02655e-08 -3.19864e-23 9.65604e-09)
(-8.91223e-08 -8.06912e-10 -5.24606e-20 1.14871e-07 -6.69313e-21 -2.57483e-08)
(-9.13894e-09 4.3312e-08 -4.70024e-20 -4.31167e-08 -6.10788e-21 5.22557e-08)
(-1.37787e-07 -3.01464e-08 4.57114e-22 2.24315e-07 1.25337e-22 -8.65281e-08)
(-0.00338443 -0.0481838 -4.1085e-18 0.0034856 -4.23004e-19 -0.000101163)
(-0.0013214 -0.0189863 2.42036e-20 0.00143225 2.44952e-20 -0.000110851)
(-0.000141698 -0.00258041 -5.45876e-22 9.6443e-05 1.80571e-20 4.52551e-05)
(1.62507e-05 5.21582e-05 1.47698e-19 -4.38691e-05 1.44477e-20 2.76184e-05)
(1.20267e-07 1.57345e-06 -7.08561e-23 -2.22418e-07 -3.30698e-23 1.02151e-07)
(6.767e-08 1.64761e-06 -2.40175e-22 -1.13288e-07 -2.5557e-23 4.56184e-08)
(2.31863e-08 1.47377e-06 3.00749e-25 -3.72162e-08 1.56817e-23 1.40299e-08)
(2.30686e-08 1.70366e-06 1.50055e-26 -5.00572e-08 1.91106e-23 2.69886e-08)
(3.1857e-08 1.45654e-06 4.74686e-22 -7.471e-08 1.40379e-22 4.28529e-08)
(1.99636e-08 1.10404e-06 2.30525e-21 -5.41372e-08 2.14129e-22 3.41737e-08)
(8.44921e-09 1.01308e-06 -0 -3.8692e-08 -3.33298e-23 3.02428e-08)
(2.66369e-10 9.18736e-07 1.28558e-21 -3.10686e-08 7.60983e-23 3.08022e-08)
(-5.60853e-09 8.27018e-07 -1.85486e-21 -2.7738e-08 -2.68971e-22 3.33465e-08)
(-1.00996e-08 7.48223e-07 -1.48283e-21 -2.72174e-08 -1.69709e-23 3.7317e-08)
(-1.40232e-08 6.81719e-07 2.30015e-21 -2.82708e-08 2.96991e-22 4.22941e-08)
(-1.91109e-08 6.23835e-07 9.23298e-22 -2.71374e-08 1.81674e-23 4.62483e-08)
(-2.61434e-08 5.74525e-07 1.22388e-24 -2.22526e-08 6.14098e-23 4.8396e-08)
(-3.432e-08 5.32177e-07 3.3741e-21 -1.52429e-08 4.03688e-22 4.95629e-08)
(-4.34244e-08 4.95828e-07 2.72615e-21 -6.51757e-09 1.30757e-22 4.9942e-08)
(-5.34023e-08 4.64683e-07 -1.3891e-21 3.82472e-09 -2.46023e-22 4.95776e-08)
(-6.44182e-08 4.38169e-07 -7.56532e-22 1.61412e-08 -2.24539e-22 4.8277e-08)
(-7.64204e-08 4.15685e-07 -6.86086e-21 3.03177e-08 -6.42044e-22 4.61028e-08)