/*--------------------------------*- C++ -*----------------------------------*\
| =========                 |                                                 |
| \\      /  F ield         | OpenFOAM: The Open Source CFD Toolbox           |
|  \\    /   O peration     | Version:  2306                                  |
|   \\  /    A nd           | Website:  www.openfoam.com                      |
|    \\/     M anipulation  |                                                 |
\*---------------------------------------------------------------------------*/
FoamFile
{
    version     2.0;
    format      ascii;
    arch        "LSB;label=32;scalar=64";
    class       volScalarField;
    location    "75";
    object      turbulenceProperties:nut;
}
// * * * * * * * * * * * * * * * * * * * * * * * * * * * * * * * * * * * * * //

dimensions      [0 2 -1 0 0 0 0];

internalField   nonuniform List<scalar> 
1340
(
6.11514e-06
6.09444e-06
6.10384e-06
6.10456e-06
6.11582e-06
6.0942e-06
6.11332e-06
6.11167e-06
6.10374e-06
6.10568e-06
6.11657e-06
6.09384e-06
6.10171e-06
6.10432e-06
6.10933e-06
6.11377e-06
6.11157e-06
6.10371e-06
6.10693e-06
6.11734e-06
6.09334e-06
6.09961e-06
6.10203e-06
6.10258e-06
6.10186e-06
6.10149e-06
6.10207e-06
6.10491e-06
6.11008e-06
6.11428e-06
6.11152e-06
6.10377e-06
6.1083e-06
6.11811e-06
6.09267e-06
6.08985e-06
6.09156e-06
6.09349e-06
6.09548e-06
6.09757e-06
6.10008e-06
6.10244e-06
6.10289e-06
6.1021e-06
6.10178e-06
6.10252e-06
6.1056e-06
6.11092e-06
6.11484e-06
6.11149e-06
6.10391e-06
6.10977e-06
6.11884e-06
6.09181e-06
6.08587e-06
6.08606e-06
6.08637e-06
6.08676e-06
6.08727e-06
6.08799e-06
6.08899e-06
6.09035e-06
6.09209e-06
6.09403e-06
6.09601e-06
6.09813e-06
6.10065e-06
6.10295e-06
6.10328e-06
6.10243e-06
6.10215e-06
6.10306e-06
6.10641e-06
6.11187e-06
6.11545e-06
6.1115e-06
6.10415e-06
6.11134e-06
6.11948e-06
6.09077e-06
6.09828e-06
6.09703e-06
6.09584e-06
6.09454e-06
6.09314e-06
6.09182e-06
6.09072e-06
6.08973e-06
6.08876e-06
6.08787e-06
6.08723e-06
6.0869e-06
6.08685e-06
6.08694e-06
6.08712e-06
6.0874e-06
6.08784e-06
6.08853e-06
6.08955e-06
6.09096e-06
6.09274e-06
6.09468e-06
6.09667e-06
6.0988e-06
6.10131e-06
6.10353e-06
6.10375e-06
6.10283e-06
6.1026e-06
6.10371e-06
6.10736e-06
6.11294e-06
6.11612e-06
6.11155e-06
6.10449e-06
6.113e-06
6.12001e-06
6.08952e-06
0.0183835
0.000482394
9.95272e-05
2.48909e-08
6.0198e-06
1.70768e-05
1.24272e-05
6.28851e-06
4.88827e-06
5.61706e-06
6.27556e-06
6.26153e-06
6.10294e-06
6.10488e-06
6.12185e-06
6.12246e-06
6.12206e-06
6.12528e-06
6.12804e-06
6.12983e-06
6.13072e-06
6.13074e-06
6.13029e-06
6.12958e-06
6.1287e-06
6.12766e-06
6.12642e-06
6.12501e-06
6.12347e-06
6.12183e-06
6.1201e-06
6.11826e-06
6.1163e-06
6.11431e-06
6.1124e-06
6.11067e-06
6.10913e-06
6.1077e-06
6.10629e-06
6.10487e-06
6.10355e-06
6.10235e-06
6.10112e-06
6.09989e-06
6.09868e-06
6.09743e-06
6.09604e-06
6.09458e-06
6.09322e-06
6.09206e-06
6.09098e-06
6.08994e-06
6.08902e-06
6.0884e-06
6.08804e-06
6.0879e-06
6.08789e-06
6.08796e-06
6.08815e-06
6.08852e-06
6.08919e-06
6.09025e-06
6.09171e-06
6.09351e-06
6.09546e-06
6.09745e-06
6.09959e-06
6.10207e-06
6.1042e-06
6.1043e-06
6.10332e-06
6.10316e-06
6.10448e-06
6.10845e-06
6.11414e-06
6.11686e-06
6.11165e-06
6.10494e-06
6.11474e-06
6.12039e-06
6.08808e-06
0.0403325
0.0111615
0.00280408
0
2.4114e-08
5.8302e-06
1.45187e-05
1.02436e-05
5.88817e-06
5.43451e-06
5.96974e-06
6.24437e-06
6.17227e-06
6.10258e-06
6.11489e-06
6.11918e-06
6.11571e-06
6.11812e-06
6.12215e-06
6.12587e-06
6.12881e-06
6.13031e-06
6.13091e-06
6.13089e-06
6.13046e-06
6.12973e-06
6.12875e-06
6.12754e-06
6.12614e-06
6.12459e-06
6.12288e-06
6.12099e-06
6.11897e-06
6.11691e-06
6.11496e-06
6.11321e-06
6.11163e-06
6.1101e-06
6.10855e-06
6.107e-06
6.10557e-06
6.10434e-06
6.103e-06
6.10166e-06
6.1004e-06
6.09908e-06
6.0976e-06
6.09608e-06
6.09468e-06
6.09345e-06
6.09229e-06
6.09117e-06
6.09023e-06
6.08962e-06
6.08925e-06
6.08904e-06
6.08891e-06
6.08889e-06
6.08899e-06
6.08931e-06
6.08997e-06
6.09108e-06
6.09258e-06
6.09439e-06
6.09635e-06
6.09834e-06
6.10049e-06
6.10292e-06
6.10495e-06
6.10493e-06
6.1039e-06
6.10382e-06
6.10541e-06
6.10972e-06
6.11547e-06
6.11764e-06
6.11178e-06
6.1055e-06
6.11655e-06
6.1206e-06
6.08644e-06
0.0545019
0.0242078
0.00385749
0.000958307
0
1.58715e-08
3.93667e-06
1.03559e-05
9.04672e-06
5.64549e-06
5.84265e-06
6.15953e-06
6.23964e-06
6.11825e-06
6.12518e-06
6.12471e-06
6.11898e-06
6.11854e-06
6.12175e-06
6.12539e-06
6.12887e-06
6.131e-06
6.1322e-06
6.1327e-06
6.13266e-06
6.13221e-06
6.13145e-06
6.13041e-06
6.12914e-06
6.12766e-06
6.12595e-06
6.12402e-06
6.12193e-06
6.11983e-06
6.11786e-06
6.1161e-06
6.11446e-06
6.11281e-06
6.1111e-06
6.10939e-06
6.10785e-06
6.10656e-06
6.10516e-06
6.10374e-06
6.10238e-06
6.10095e-06
6.09938e-06
6.0978e-06
6.09635e-06
6.09503e-06
6.09377e-06
6.09259e-06
6.09162e-06
6.09102e-06
6.09063e-06
6.09032e-06
6.09008e-06
6.08996e-06
6.08998e-06
6.09025e-06
6.09093e-06
6.09209e-06
6.09362e-06
6.09545e-06
6.09741e-06
6.0994e-06
6.10153e-06
6.10389e-06
6.1058e-06
6.10567e-06
6.1046e-06
6.10464e-06
6.10653e-06
6.1112e-06
6.11696e-06
6.1185e-06
6.11196e-06
6.10619e-06
6.11842e-06
6.1206e-06
6.08457e-06
0.0575396
0.0317713
0.00984733
0.00245607
0
7.3958e-09
2.2444e-06
9.79037e-06
9.59608e-06
5.75115e-06
5.91165e-06
6.25076e-06
6.24104e-06
6.15261e-06
6.15045e-06
6.14056e-06
6.13145e-06
6.12717e-06
6.12847e-06
6.1304e-06
6.13268e-06
6.13439e-06
6.13565e-06
6.13639e-06
6.13658e-06
6.13629e-06
6.13562e-06
6.13465e-06
6.13342e-06
6.13192e-06
6.13013e-06
6.12808e-06
6.12588e-06
6.12369e-06
6.12166e-06
6.11982e-06
6.11804e-06
6.11619e-06
6.11425e-06
6.11234e-06
6.11069e-06
6.10935e-06
6.10787e-06
6.1063e-06
6.10477e-06
6.10321e-06
6.10153e-06
6.09986e-06
6.09832e-06
6.09688e-06
6.0955e-06
6.09423e-06
6.09322e-06
6.09262e-06
6.09218e-06
6.09175e-06
6.09138e-06
6.09116e-06
6.0911e-06
6.09134e-06
6.09204e-06
6.09324e-06
6.09479e-06
6.09662e-06
6.09858e-06
6.10057e-06
6.10268e-06
6.10494e-06
6.10672e-06
6.10648e-06
6.10539e-06
6.10558e-06
6.10783e-06
6.11287e-06
6.11856e-06
6.11937e-06
6.11217e-06
6.10698e-06
6.12034e-06
6.12037e-06
6.08256e-06
0.0510974
0.0309374
0.0112796
0.000685905
0.000159452
3.18731e-09
9.9506e-07
1.12856e-05
9.13264e-06
5.61445e-06
5.94626e-06
6.35894e-06
6.23657e-06
6.18335e-06
6.17027e-06
6.15673e-06
6.14388e-06
6.13724e-06
6.136e-06
6.1358e-06
6.13692e-06
6.13841e-06
6.13991e-06
6.14098e-06
6.14143e-06
6.1413e-06
6.14073e-06
6.13984e-06
6.13866e-06
6.13716e-06
6.13531e-06
6.13316e-06
6.13084e-06
6.12856e-06
6.12645e-06
6.12448e-06
6.1225e-06
6.12035e-06
6.11808e-06
6.11597e-06
6.11427e-06
6.11289e-06
6.11123e-06
6.10938e-06
6.10764e-06
6.10592e-06
6.10409e-06
6.10231e-06
6.10063e-06
6.09904e-06
6.09751e-06
6.09614e-06
6.0951e-06
6.09448e-06
6.09395e-06
6.09335e-06
6.09285e-06
6.09254e-06
6.09241e-06
6.09263e-06
6.09337e-06
6.0946e-06
6.09616e-06
6.098e-06
6.09996e-06
6.10195e-06
6.10401e-06
6.10616e-06
6.10778e-06
6.10744e-06
6.10635e-06
6.10675e-06
6.1094e-06
6.1148e-06
6.12034e-06
6.12032e-06
6.11245e-06
6.10793e-06
6.12229e-06
6.11989e-06
6.08087e-06
0.0338681
0.019417
0.00632824
9.05346e-05
1.72416e-06
9.94177e-09
2.80878e-06
1.13903e-05
9.82923e-06
5.34125e-06
5.86997e-06
6.33704e-06
6.20571e-06
6.15863e-06
6.15486e-06
6.15024e-06
6.14286e-06
6.14088e-06
6.14214e-06
6.14413e-06
6.14681e-06
6.14918e-06
6.15088e-06
6.1515e-06
6.15106e-06
6.14988e-06
6.14837e-06
6.14671e-06
6.14489e-06
6.14288e-06
6.14064e-06
6.13824e-06
6.1358e-06
6.1335e-06
6.13138e-06
6.12928e-06
6.12698e-06
6.12444e-06
6.12193e-06
6.11985e-06
6.11826e-06
6.11671e-06
6.11465e-06
6.11249e-06
6.11058e-06
6.1087e-06
6.10673e-06
6.10485e-06
6.10305e-06
6.10133e-06
6.09971e-06
6.09832e-06
6.09734e-06
6.09674e-06
6.0961e-06
6.09536e-06
6.09479e-06
6.09441e-06
6.09426e-06
6.09453e-06
6.09536e-06
6.09665e-06
6.09823e-06
6.10007e-06
6.10202e-06
6.10398e-06
6.10594e-06
6.10792e-06
6.10935e-06
6.10887e-06
6.10782e-06
6.10849e-06
6.11163e-06
6.11738e-06
6.12259e-06
6.1215e-06
6.1129e-06
6.10918e-06
6.12435e-06
6.11919e-06
6.0796e-06
0.0134793
0.00577166
0.000584844
0.000133714
0
1.18456e-08
3.14917e-06
1.34975e-05
8.9907e-06
5.41769e-06
6.07528e-06
6.36405e-06
6.2214e-06
6.16791e-06
6.16256e-06
6.15755e-06
6.15656e-06
6.16246e-06
6.17058e-06
6.17912e-06
6.18699e-06
6.19264e-06
6.19525e-06
6.19491e-06
6.1922e-06
6.18797e-06
6.18296e-06
6.17758e-06
6.17216e-06
6.16678e-06
6.16158e-06
6.15669e-06
6.1523e-06
6.14841e-06
6.1449e-06
6.14143e-06
6.13785e-06
6.13437e-06
6.13144e-06
6.12923e-06
6.12721e-06
6.12472e-06
6.12176e-06
6.11906e-06
6.11674e-06
6.1144e-06
6.11205e-06
6.10981e-06
6.10766e-06
6.10562e-06
6.10377e-06
6.10228e-06
6.10127e-06
6.10051e-06
6.09958e-06
6.09861e-06
6.09788e-06
6.09739e-06
6.09718e-06
6.09749e-06
6.09837e-06
6.09966e-06
6.10122e-06
6.10302e-06
6.1049e-06
6.10675e-06
6.10854e-06
6.11026e-06
6.11141e-06
6.1108e-06
6.10984e-06
6.11091e-06
6.11463e-06
6.12069e-06
6.12533e-06
6.12288e-06
6.11352e-06
6.11086e-06
6.12652e-06
6.11818e-06
6.07867e-06
0.00223894
8.24297e-05
1.91037e-06
0
2.04376e-09
5.7624e-07
1.03725e-05
1.34723e-05
7.26886e-06
6.17771e-06
6.69005e-06
6.63718e-06
6.43171e-06
6.33901e-06
6.28864e-06
6.25163e-06
6.23152e-06
6.22651e-06
6.23084e-06
6.23988e-06
6.24962e-06
6.25744e-06
6.2623e-06
6.2635e-06
6.26098e-06
6.25561e-06
6.24827e-06
6.23948e-06
6.2297e-06
6.2194e-06
6.20912e-06
6.19925e-06
6.19009e-06
6.18166e-06
6.17392e-06
6.16662e-06
6.15998e-06
6.1544e-06
6.15004e-06
6.14636e-06
6.14248e-06
6.13808e-06
6.13374e-06
6.1301e-06
6.12685e-06
6.1236e-06
6.12046e-06
6.11749e-06
6.11467e-06
6.11206e-06
6.10981e-06
6.10807e-06
6.10678e-06
6.10557e-06
6.10418e-06
6.10287e-06
6.1019e-06
6.1012e-06
6.10091e-06
6.10121e-06
6.10207e-06
6.1033e-06
6.10478e-06
6.10649e-06
6.10825e-06
6.10992e-06
6.11148e-06
6.11289e-06
6.11374e-06
6.11301e-06
6.11224e-06
6.11379e-06
6.11813e-06
6.12438e-06
6.1282e-06
6.12426e-06
6.11423e-06
6.1129e-06
6.12863e-06
6.11695e-06
6.07818e-06
2.6542e-08
1.62058e-08
5.36703e-14
0
8.01283e-10
2.16112e-07
9.53271e-06
1.52512e-05
1.05048e-05
7.52115e-06
7.59682e-06
7.60976e-06
7.26628e-06
6.98519e-06
6.7927e-06
6.63612e-06
6.51349e-06
6.42753e-06
6.37115e-06
6.33436e-06
6.314e-06
6.30507e-06
6.30278e-06
6.30328e-06
6.30408e-06
6.30453e-06
6.3036e-06
6.30051e-06
6.29495e-06
6.28725e-06
6.27765e-06
6.26656e-06
6.25455e-06
6.24214e-06
6.22964e-06
6.21739e-06
6.20576e-06
6.19537e-06
6.18654e-06
6.17897e-06
6.17179e-06
6.16445e-06
6.15732e-06
6.15112e-06
6.1459e-06
6.14107e-06
6.13641e-06
6.13204e-06
6.12797e-06
6.12418e-06
6.1208e-06
6.11797e-06
6.11574e-06
6.11384e-06
6.11192e-06
6.10993e-06
6.10819e-06
6.10687e-06
6.10591e-06
6.10549e-06
6.10573e-06
6.10649e-06
6.10759e-06
6.10894e-06
6.1105e-06
6.11207e-06
6.11351e-06
6.11478e-06
6.11583e-06
6.11635e-06
6.11554e-06
6.11506e-06
6.11719e-06
6.12213e-06
6.1284e-06
6.13116e-06
6.12557e-06
6.11503e-06
6.11535e-06
6.13065e-06
6.11552e-06
6.07812e-06
5.0203e-17
2.65152e-17
1.96195e-16
6.96774e-09
1.8303e-06
9.79896e-06
1.28545e-05
1.11934e-05
9.09947e-06
8.75088e-06
8.79809e-06
8.53763e-06
8.18301e-06
7.872e-06
7.58626e-06
7.32019e-06
7.08452e-06
6.88374e-06
6.71754e-06
6.58803e-06
6.49256e-06
6.41965e-06
6.36703e-06
6.33199e-06
6.31076e-06
6.29845e-06
6.29247e-06
6.29068e-06
6.29064e-06
6.29037e-06
6.28869e-06
6.28544e-06
6.28025e-06
6.27305e-06
6.26418e-06
6.25424e-06
6.24363e-06
6.23294e-06
6.22238e-06
6.21172e-06
6.20082e-06
6.19012e-06
6.18042e-06
6.1721e-06
6.1648e-06
6.158e-06
6.15167e-06
6.14585e-06
6.14051e-06
6.13566e-06
6.13142e-06
6.12787e-06
6.1249e-06
6.12214e-06
6.11936e-06
6.1167e-06
6.11447e-06
6.11275e-06
6.11152e-06
6.11094e-06
6.11104e-06
6.11164e-06
6.11255e-06
6.11372e-06
6.11507e-06
6.11638e-06
6.11753e-06
6.11846e-06
6.11909e-06
6.11922e-06
6.1184e-06
6.11833e-06
6.12112e-06
6.12664e-06
6.13271e-06
6.13412e-06
6.12678e-06
6.11594e-06
6.11824e-06
6.13251e-06
6.11389e-06
6.07848e-06
5.05902e-07
9.24202e-09
1.85171e-06
5.46807e-06
9.18501e-06
1.02477e-05
9.54843e-06
8.90545e-06
8.81038e-06
8.93291e-06
8.906e-06
8.76443e-06
8.5889e-06
8.39225e-06
8.17279e-06
7.94043e-06
7.70624e-06
7.47792e-06
7.26174e-06
7.06417e-06
6.8879e-06
6.73357e-06
6.60272e-06
6.49567e-06
6.41111e-06
6.34888e-06
6.30801e-06
6.28014e-06
6.26312e-06
6.25451e-06
6.25149e-06
6.25104e-06
6.25221e-06
6.25392e-06
6.25508e-06
6.2548e-06
6.25269e-06
6.24825e-06
6.24135e-06
6.23234e-06
6.22201e-06
6.21138e-06
6.20131e-06
6.19196e-06
6.18313e-06
6.17479e-06
6.16707e-06
6.16e-06
6.15357e-06
6.14783e-06
6.14285e-06
6.13857e-06
6.13474e-06
6.13104e-06
6.12743e-06
6.12417e-06
6.12148e-06
6.11938e-06
6.1179e-06
6.11716e-06
6.1171e-06
6.11748e-06
6.11817e-06
6.11912e-06
6.12019e-06
6.12119e-06
6.12199e-06
6.12252e-06
6.12268e-06
6.12237e-06
6.12163e-06
6.12214e-06
6.12566e-06
6.13168e-06
6.13727e-06
6.13702e-06
6.12784e-06
6.11704e-06
6.12159e-06
6.13411e-06
6.11207e-06
6.07927e-06
6.99733e-06
6.13081e-06
7.60055e-06
8.10551e-06
8.15876e-06
7.99922e-06
7.96364e-06
8.08386e-06
8.26067e-06
8.38236e-06
8.43655e-06
8.44625e-06
8.4185e-06
8.35266e-06
8.2523e-06
8.12379e-06
7.97363e-06
7.80791e-06
7.63271e-06
7.45422e-06
7.27752e-06
7.10716e-06
6.94748e-06
6.80171e-06
6.67193e-06
6.56033e-06
6.46698e-06
6.39035e-06
6.32957e-06
6.28315e-06
6.2496e-06
6.22822e-06
6.21721e-06
6.21321e-06
6.21461e-06
6.21894e-06
6.22335e-06
6.22623e-06
6.22677e-06
6.2249e-06
6.22111e-06
6.21601e-06
6.20982e-06
6.2027e-06
6.19493e-06
6.18692e-06
6.17911e-06
6.17171e-06
6.16489e-06
6.15877e-06
6.15339e-06
6.14858e-06
6.14404e-06
6.13962e-06
6.13544e-06
6.13177e-06
6.12874e-06
6.12637e-06
6.12474e-06
6.12387e-06
6.12362e-06
6.12378e-06
6.12424e-06
6.12493e-06
6.12569e-06
6.12634e-06
6.12677e-06
6.12684e-06
6.12642e-06
6.12566e-06
6.12512e-06
6.12639e-06
6.13072e-06
6.13712e-06
6.14195e-06
6.13971e-06
6.12867e-06
6.11828e-06
6.12535e-06
6.1354e-06
6.11006e-06
6.08035e-06
7.09349e-06
7.18567e-06
7.08084e-06
7.06834e-06
7.07608e-06
7.1504e-06
7.28904e-06
7.45548e-06
7.61717e-06
7.75958e-06
7.87857e-06
7.96844e-06
8.02423e-06
8.04483e-06
8.03262e-06
7.99155e-06
7.92569e-06
7.83872e-06
7.73397e-06
7.6148e-06
7.48461e-06
7.34717e-06
7.20664e-06
7.06698e-06
6.93184e-06
6.80462e-06
6.68754e-06
6.58206e-06
6.48918e-06
6.40928e-06
6.3426e-06
6.28954e-06
6.24958e-06
6.22152e-06
6.20371e-06
6.19409e-06
6.19075e-06
6.19067e-06
6.19214e-06
6.1946e-06
6.19722e-06
6.19902e-06
6.19943e-06
6.19797e-06
6.19474e-06
6.19014e-06
6.18462e-06
6.17866e-06
6.17267e-06
6.16697e-06
6.16164e-06
6.15659e-06
6.15168e-06
6.14694e-06
6.1426e-06
6.13887e-06
6.13581e-06
6.13347e-06
6.1319e-06
6.13105e-06
6.13072e-06
6.13073e-06
6.131e-06
6.13142e-06
6.13185e-06
6.13212e-06
6.13213e-06
6.13169e-06
6.13066e-06
6.12954e-06
6.12947e-06
6.13171e-06
6.13686e-06
6.14333e-06
6.14684e-06
6.14221e-06
6.12947e-06
6.12011e-06
6.12953e-06
6.13613e-06
6.10795e-06
6.08224e-06
6.86375e-06
6.95363e-06
6.77241e-06
6.73153e-06
6.72502e-06
6.76091e-06
6.83381e-06
6.93726e-06
7.06379e-06
7.20422e-06
7.34657e-06
7.47823e-06
7.58891e-06
7.67253e-06
7.72719e-06
7.75395e-06
7.75517e-06
7.73326e-06
7.69017e-06
7.62773e-06
7.54794e-06
7.45341e-06
7.34745e-06
7.23353e-06
7.11526e-06
6.99608e-06
6.87895e-06
6.76638e-06
6.6606e-06
6.56346e-06
6.47664e-06
6.40159e-06
6.3389e-06
6.28827e-06
6.24857e-06
6.21825e-06
6.19584e-06
6.17992e-06
6.16967e-06
6.1643e-06
6.16317e-06
6.16566e-06
6.16908e-06
6.1726e-06
6.1754e-06
6.17694e-06
6.17712e-06
6.17596e-06
6.17365e-06
6.17044e-06
6.16654e-06
6.16214e-06
6.15746e-06
6.15282e-06
6.14855e-06
6.14484e-06
6.1418e-06
6.13951e-06
6.138e-06
6.13714e-06
6.13671e-06
6.13655e-06
6.1366e-06
6.13676e-06
6.13691e-06
6.13689e-06
6.13654e-06
6.13556e-06
6.13383e-06
6.13228e-06
6.13271e-06
6.13597e-06
6.14195e-06
6.14855e-06
6.15085e-06
6.14397e-06
6.12956e-06
6.12112e-06
6.13356e-06
6.13674e-06
6.10557e-06
6.0832e-06
7.06089e-06
7.1508e-06
6.91109e-06
6.80233e-06
6.7154e-06
6.65663e-06
6.62874e-06
6.63368e-06
6.67105e-06
6.73679e-06
6.82348e-06
6.92178e-06
7.02253e-06
7.11833e-06
7.20421e-06
7.27698e-06
7.33427e-06
7.3739e-06
7.39387e-06
7.39317e-06
7.37224e-06
7.33305e-06
7.27873e-06
7.21256e-06
7.13766e-06
7.05659e-06
6.97151e-06
6.88432e-06
6.79698e-06
6.71149e-06
6.62986e-06
6.55385e-06
6.48457e-06
6.4225e-06
6.36761e-06
6.31976e-06
6.27886e-06
6.24484e-06
6.21757e-06
6.19645e-06
6.18093e-06
6.17012e-06
6.16281e-06
6.15824e-06
6.1556e-06
6.15447e-06
6.15494e-06
6.15603e-06
6.15708e-06
6.15739e-06
6.15679e-06
6.15529e-06
6.15324e-06
6.15101e-06
6.14893e-06
6.1472e-06
6.14595e-06
6.14522e-06
6.14497e-06
6.145e-06
6.14517e-06
6.1454e-06
6.14565e-06
6.14583e-06
6.1458e-06
6.14535e-06
6.14427e-06
6.14241e-06
6.14019e-06
6.1392e-06
6.14152e-06
6.14685e-06
6.1536e-06
6.15873e-06
6.15702e-06
6.14561e-06
6.13012e-06
6.12624e-06
6.14079e-06
6.13564e-06
6.10319e-06
6.08817e-06
)
;

boundaryField
{
    inlet
    {
        type            freestream;
        freestreamValue uniform 1e-05;
        value           uniform 1e-05;
    }
    outlet
    {
        type            freestream;
        freestreamValue uniform 1e-05;
        value           nonuniform List<scalar> 
82
(
7.06089e-06
6.91109e-06
7.1508e-06
6.80233e-06
6.7154e-06
6.65663e-06
6.62874e-06
6.63368e-06
6.67105e-06
6.73679e-06
6.82348e-06
6.92178e-06
7.02253e-06
7.11833e-06
7.20421e-06
7.27698e-06
7.33427e-06
7.3739e-06
7.39387e-06
7.39317e-06
7.37224e-06
7.33305e-06
7.27873e-06
7.21256e-06
7.13766e-06
7.05659e-06
6.97151e-06
6.88432e-06
6.79698e-06
6.71149e-06
6.62986e-06
6.55385e-06
6.48457e-06
6.4225e-06
6.36761e-06
6.31976e-06
6.27886e-06
6.24484e-06
6.21757e-06
6.19645e-06
6.18093e-06
6.17012e-06
6.16281e-06
6.15824e-06
6.1556e-06
6.15447e-06
6.15494e-06
6.15603e-06
6.15708e-06
6.15739e-06
6.15679e-06
6.15529e-06
6.15324e-06
6.15101e-06
6.14893e-06
6.1472e-06
6.14595e-06
6.14522e-06
6.14497e-06
6.145e-06
6.14517e-06
6.1454e-06
6.14565e-06
6.14583e-06
6.1458e-06
6.14535e-06
6.14427e-06
6.14241e-06
6.14019e-06
6.1392e-06
6.14152e-06
6.14685e-06
6.1536e-06
6.15873e-06
6.15702e-06
6.14561e-06
6.13012e-06
6.12624e-06
6.14079e-06
6.13564e-06
6.10319e-06
6.08817e-06
)
;
    }
    walls
    {
        type            nutUSpaldingWallFunction;
        value           nonuniform List<scalar> 0();
    }
    frontAndBack
    {
        type            empty;
    }
    procBoundary3to2
    {
        type            processor;
        value           nonuniform List<scalar> 
88
(
6.11459e-06
6.09459e-06
6.10403e-06
6.10359e-06
6.10359e-06
6.11296e-06
6.11181e-06
6.11181e-06
6.10147e-06
6.10386e-06
6.1087e-06
6.1087e-06
6.09927e-06
6.10175e-06
6.10239e-06
6.10173e-06
6.10132e-06
6.10132e-06
6.08951e-06
6.09118e-06
6.0931e-06
6.0951e-06
6.09717e-06
6.09717e-06
6.08491e-06
6.08525e-06
6.08571e-06
6.08624e-06
6.08685e-06
6.08761e-06
6.08859e-06
6.08859e-06
6.09652e-06
6.0953e-06
6.09414e-06
6.09294e-06
6.09164e-06
6.09038e-06
6.08933e-06
6.08844e-06
6.08755e-06
6.08669e-06
6.08605e-06
6.0858e-06
6.0858e-06
3.59554e-05
1.99432e-08
5.6105e-06
1.50156e-05
1.12991e-05
6.1476e-06
4.8792e-06
5.55037e-06
6.23884e-06
6.29286e-06
6.14444e-06
6.10889e-06
6.12554e-06
6.13485e-06
6.13271e-06
6.133e-06
6.13399e-06
6.13389e-06
6.13319e-06
6.13209e-06
6.13078e-06
6.12943e-06
6.12812e-06
6.12683e-06
6.12549e-06
6.12402e-06
6.12243e-06
6.12074e-06
6.11902e-06
6.11726e-06
6.11544e-06
6.11356e-06
6.11167e-06
6.10985e-06
6.10817e-06
6.10669e-06
6.10534e-06
6.10404e-06
6.10276e-06
6.10149e-06
6.10025e-06
6.09922e-06
6.09922e-06
)
;
    }
    procBoundary3to6
    {
        type            processor;
        value           uniform 0.00027328;
    }
    procBoundary3to7
    {
        type            processor;
        value           nonuniform List<scalar> 
16
(
0.046343
0.0725677
0.080343
0.0762372
0.0644908
0.0436421
0.0197385
0.00477114
0.00477114
0.000434524
1.84199e-11
4.91757e-11
5.24012e-06
7.22471e-06
7.05592e-06
7.27862e-06
)
;
    }
}


// ************************************************************************* //
