/*--------------------------------*- C++ -*----------------------------------*\
| =========                 |                                                 |
| \\      /  F ield         | OpenFOAM: The Open Source CFD Toolbox           |
|  \\    /   O peration     | Version:  2306                                  |
|   \\  /    A nd           | Website:  www.openfoam.com                      |
|    \\/     M anipulation  |                                                 |
\*---------------------------------------------------------------------------*/
FoamFile
{
    version     2.0;
    format      ascii;
    arch        "LSB;label=32;scalar=64";
    class       volVectorField;
    location    "75";
    object      U;
}
// * * * * * * * * * * * * * * * * * * * * * * * * * * * * * * * * * * * * * //

dimensions      [0 1 -1 0 0 0 0];

internalField   nonuniform List<vector> 
1340
(
(25.6769 3.38418 -1.13718e-16)
(25.7211 3.11545 1.16807e-16)
(25.6545 3.2635 -3.32775e-16)
(25.6541 3.23056 -5.49142e-17)
(25.6814 3.38451 1.79575e-17)
(25.7319 3.12137 -4.9178e-16)
(25.6851 3.22039 0)
(25.6728 3.23037 -1.27345e-16)
(25.6603 3.26401 3.31948e-16)
(25.6621 3.23311 1.80788e-16)
(25.6866 3.38485 1.24618e-19)
(25.7425 3.12714 4.26808e-16)
(25.7075 3.16733 -1.92863e-16)
(25.7055 3.18459 4.3982e-18)
(25.7012 3.20138 2.53322e-17)
(25.6927 3.22036 0)
(25.6799 3.23113 9.26393e-19)
(25.6666 3.2646 -1.97449e-18)
(25.6704 3.23599 -1.14717e-18)
(25.6928 3.38519 2.5558e-19)
(25.753 3.13278 -5.76906e-19)
(25.7226 3.08327 1.65015e-17)
(25.7242 3.10067 6.52573e-17)
(25.7228 3.11582 6.51268e-17)
(25.7216 3.13195 -2.21767e-16)
(25.7203 3.14872 5.5423e-17)
(25.7185 3.16608 -7.96282e-17)
(25.7156 3.18385 -8.92434e-19)
(25.7104 3.20121 1.85051e-16)
(25.7008 3.22059 0)
(25.6873 3.23215 1.10819e-17)
(25.6735 3.26531 -3.22444e-16)
(25.6791 3.23919 -1.72275e-16)
(25.6998 3.38552 -7.11807e-18)
(25.7634 3.13832 5.62438e-17)
(25.7262 2.97755 1.50957e-16)
(25.7304 2.99768 -1.37014e-16)
(25.7337 3.01809 -3.53774e-17)
(25.7361 3.03867 -2.14645e-16)
(25.7378 3.05953 -4.76433e-17)
(25.7389 3.0802 3.25191e-17)
(25.7395 3.09812 1.49069e-17)
(25.7373 3.11367 -6.25751e-19)
(25.7353 3.13025 4.1321e-17)
(25.7331 3.14747 -1.02956e-16)
(25.7303 3.16528 1.9139e-16)
(25.7265 3.18353 -1.18474e-16)
(25.7202 3.2014 -1.84789e-16)
(25.7095 3.22111 0)
(25.6953 3.23344 -8.7656e-18)
(25.681 3.26613 3.16588e-16)
(25.6882 3.24271 1.69181e-16)
(25.7077 3.38584 7.99796e-18)
(25.7736 3.1438 -5.72934e-17)
(25.7061 2.8384 -1.86153e-17)
(25.7138 2.85533 -9.66268e-17)
(25.721 2.87303 -1.6784e-16)
(25.7278 2.89147 5.99634e-17)
(25.7341 2.91061 -1.68766e-17)
(25.7398 2.93039 7.55117e-17)
(25.7448 2.95071 1.91997e-16)
(25.749 2.97144 -2.07035e-18)
(25.7523 2.99248 1.12311e-16)
(25.7546 3.01371 -1.00797e-17)
(25.756 3.03506 1.2948e-17)
(25.7566 3.05664 9.37441e-17)
(25.7565 3.07789 -3.27238e-17)
(25.7562 3.0963 -1.62149e-17)
(25.753 3.11221 -7.4231e-19)
(25.75 3.12918 2.02264e-18)
(25.7468 3.14678 5.23751e-19)
(25.743 3.16501 -1.03662e-16)
(25.7381 3.18368 1.15614e-16)
(25.7307 3.20199 -2.55276e-19)
(25.7188 3.22194 0)
(25.7037 3.23503 1.09619e-17)
(25.6891 3.2671 -3.32283e-16)
(25.6977 3.24655 -1.49721e-18)
(25.7163 3.38611 -2.11826e-17)
(25.7835 3.14927 -6.50212e-19)
(25.6349 2.67192 1.66514e-17)
(25.6422 2.68101 -1.04553e-16)
(25.65 2.6906 -2.19997e-18)
(25.6581 2.70082 9.71672e-17)
(25.6665 2.71167 -1.04343e-16)
(25.6752 2.72323 1.809e-17)
(25.6841 2.73549 7.49453e-18)
(25.693 2.74853 -1.84155e-17)
(25.7019 2.76234 1.26337e-16)
(25.7108 2.77696 1.77406e-16)
(25.7194 2.79243 1.32158e-17)
(25.7277 2.80874 4.69915e-17)
(25.7357 2.82579 -5.03762e-17)
(25.743 2.84373 4.94488e-19)
(25.7497 2.86245 2.63234e-16)
(25.7559 2.88193 -6.80797e-19)
(25.7615 2.90211 -1.45683e-16)
(25.7664 2.92293 -3.0656e-17)
(25.7706 2.94429 -1.35592e-16)
(25.7737 2.96605 -3.31047e-17)
(25.776 2.98802 -5.96012e-19)
(25.7772 3.01013 -1.54775e-16)
(25.7775 3.03228 -7.43249e-18)
(25.7768 3.05457 -3.85959e-17)
(25.7755 3.07643 -2.21577e-19)
(25.7741 3.09532 1.36897e-17)
(25.7699 3.11155 -1.17111e-16)
(25.7659 3.12887 1.06412e-16)
(25.7616 3.14677 9.40397e-17)
(25.7567 3.16536 1.70237e-16)
(25.7507 3.18437 -1.89481e-16)
(25.7419 3.20307 -2.9977e-19)
(25.7287 3.22315 0)
(25.7127 3.23696 -7.92836e-18)
(25.6979 3.26827 9.16305e-17)
(25.7076 3.25072 3.60173e-17)
(25.7257 3.38634 -2.49565e-17)
(25.7933 3.15479 -6.79745e-19)
(25.506 2.6183 2.33009e-18)
(25.5531 2.61826 2.46637e-18)
(25.5967 2.61383 -1.70827e-19)
(25.6224 2.60937 6.44894e-19)
(25.6339 2.6042 8.75367e-19)
(25.6393 2.59887 4.07783e-19)
(25.6433 2.59358 3.44823e-20)
(25.6473 2.58859 -3.55184e-18)
(25.651 2.58415 -1.46651e-18)
(25.6533 2.58022 3.48321e-18)
(25.6542 2.57667 0)
(25.654 2.57347 -5.57267e-19)
(25.653 2.57072 8.07893e-18)
(25.6513 2.56846 2.56396e-19)
(25.6491 2.56667 9.15753e-18)
(25.6464 2.56536 8.63095e-19)
(25.6434 2.56449 2.25051e-18)
(25.6401 2.56405 7.53708e-18)
(25.6368 2.564 3.78386e-18)
(25.6335 2.56432 1.06146e-17)
(25.6302 2.56495 -9.7765e-18)
(25.627 2.56587 -1.45399e-17)
(25.624 2.56702 5.27365e-18)
(25.6212 2.56838 -3.59544e-18)
(25.6187 2.56992 -1.09113e-17)
(25.6165 2.57163 -9.93645e-18)
(25.6147 2.57349 2.00997e-17)
(25.6133 2.57548 -7.03685e-18)
(25.6123 2.57763 2.70723e-18)
(25.6118 2.57991 -9.66607e-18)
(25.6118 2.58238 1.57431e-17)
(25.6124 2.58506 9.98276e-18)
(25.6135 2.588 1.18948e-17)
(25.6152 2.59122 3.00795e-17)
(25.6175 2.59481 -2.31548e-17)
(25.6205 2.59878 -1.33253e-17)
(25.6241 2.60321 1.11201e-18)
(25.6282 2.6081 -1.60918e-17)
(25.633 2.61355 -6.53767e-18)
(25.6384 2.61956 -2.68956e-17)
(25.6446 2.62605 9.37465e-18)
(25.6511 2.63325 1.23476e-17)
(25.6582 2.6411 -3.12135e-17)
(25.6659 2.6493 2.51528e-17)
(25.6738 2.65858 1.14539e-18)
(25.682 2.66843 -1.20715e-19)
(25.6906 2.67912 -7.79282e-19)
(25.6994 2.69061 2.76334e-17)
(25.7084 2.70294 -9.2026e-17)
(25.7175 2.71611 -6.64602e-20)
(25.7265 2.73015 -5.45517e-19)
(25.7355 2.74506 -3.73244e-17)
(25.7444 2.76083 -1.80141e-18)
(25.753 2.77745 -4.36718e-18)
(25.761 2.79498 -1.95986e-19)
(25.7682 2.81338 -1.88687e-17)
(25.775 2.83247 5.3719e-19)
(25.7812 2.85237 -1.1642e-16)
(25.7866 2.87302 -7.4847e-19)
(25.7914 2.89435 1.26655e-16)
(25.7954 2.91628 -2.52086e-19)
(25.7985 2.93873 1.2976e-16)
(25.8005 2.9615 -9.01293e-18)
(25.8016 2.98444 -1.03437e-16)
(25.8016 3.00745 5.45509e-18)
(25.8006 3.03043 3.16288e-18)
(25.7986 3.05345 3.41858e-17)
(25.796 3.0759 2.9242e-17)
(25.7934 3.09527 -1.46229e-18)
(25.7881 3.11181 2.8736e-18)
(25.783 3.12942 -6.95666e-19)
(25.7775 3.14755 -9.22188e-17)
(25.7714 3.16642 -1.36501e-16)
(25.764 3.1857 1.93208e-16)
(25.7539 3.20468 8.74107e-17)
(25.7392 3.2248 0)
(25.7222 3.23926 -2.50961e-17)
(25.7072 3.26968 2.28278e-16)
(25.718 3.25524 -1.82701e-16)
(25.7358 3.38653 8.85552e-18)
(25.8029 3.16047 -7.17215e-19)
(25.4208 2.63453 -1.89409e-19)
(25.4286 2.63907 2.17259e-19)
(25.465 2.63913 -3.49768e-19)
(25.5069 2.63809 -1.60457e-19)
(25.5374 2.63621 -2.56678e-20)
(25.5555 2.6339 -1.20289e-20)
(25.5666 2.63071 -3.15987e-18)
(25.5756 2.62651 1.4022e-18)
(25.5846 2.62187 1.776e-19)
(25.593 2.61711 -2.38679e-18)
(25.5999 2.61225 0)
(25.6053 2.60725 -4.9987e-18)
(25.6096 2.60221 -2.35193e-18)
(25.613 2.59724 -7.49218e-21)
(25.6156 2.5924 -6.01593e-18)
(25.6175 2.58771 5.65521e-18)
(25.6187 2.58325 6.36381e-18)
(25.6195 2.57909 -5.18385e-18)
(25.6199 2.57529 -4.34323e-18)
(25.6201 2.57189 -2.50238e-18)
(25.6201 2.5689 -1.07618e-18)
(25.62 2.56633 1.24912e-17)
(25.6199 2.56419 6.89079e-20)
(25.6198 2.56246 5.92918e-18)
(25.6199 2.56115 7.2656e-18)
(25.6202 2.56023 9.39036e-19)
(25.6208 2.55971 -6.32715e-18)
(25.6217 2.55956 -3.2291e-18)
(25.623 2.55978 -2.82574e-20)
(25.6246 2.56036 2.06688e-18)
(25.6267 2.5613 -1.40836e-19)
(25.6292 2.56263 1.41025e-17)
(25.6322 2.56438 -9.49531e-20)
(25.6358 2.56658 -2.30581e-19)
(25.6399 2.56929 2.71221e-17)
(25.6445 2.57254 8.44437e-18)
(25.6497 2.57637 -1.55272e-17)
(25.6553 2.58081 1.05388e-17)
(25.6615 2.58591 9.2539e-20)
(25.6682 2.59179 -1.26393e-17)
(25.6756 2.5984 -1.15846e-17)
(25.6834 2.60564 1.0555e-17)
(25.6915 2.61379 1.77876e-17)
(25.6998 2.623 8.88279e-18)
(25.7086 2.63272 7.61245e-17)
(25.7176 2.64336 -1.28968e-19)
(25.7268 2.65497 -8.47169e-19)
(25.7361 2.66749 -2.61701e-17)
(25.7455 2.68096 6.00029e-17)
(25.7549 2.69537 9.11301e-19)
(25.7641 2.71073 -7.20791e-17)
(25.7731 2.72705 -3.50186e-20)
(25.7818 2.74429 -8.50463e-17)
(25.7902 2.76236 4.03201e-18)
(25.7978 2.78136 2.6624e-17)
(25.8044 2.80118 -1.43677e-17)
(25.8106 2.82167 -4.44362e-17)
(25.8159 2.84295 2.91402e-19)
(25.8204 2.86493 -8.41339e-19)
(25.8241 2.88752 -1.23851e-18)
(25.827 2.91063 -2.82053e-19)
(25.8288 2.93418 -1.26394e-16)
(25.8295 2.95798 4.12738e-17)
(25.8292 2.98191 1.0139e-16)
(25.8278 3.00583 1.49417e-16)
(25.8253 3.02962 3.42836e-18)
(25.8219 3.05337 -8.53134e-17)
(25.8178 3.07641 -2.9592e-17)
(25.814 3.09626 -5.08953e-17)
(25.8076 3.11306 7.91448e-17)
(25.8013 3.13093 -2.40883e-17)
(25.7945 3.14925 8.88503e-17)
(25.7871 3.16831 2.39988e-16)
(25.7783 3.18774 1.01616e-16)
(25.7666 3.20691 -3.51517e-18)
(25.7504 3.22696 0)
(25.7324 3.24201 2.88702e-17)
(25.7173 3.27139 -4.60434e-18)
(25.7289 3.26013 1.75827e-16)
(25.7464 3.38667 7.17512e-17)
(25.8123 3.16638 -7.65173e-19)
(25.4648 2.59755 5.35417e-19)
(25.4008 2.60244 6.38795e-19)
(25.3862 2.60301 -3.18337e-20)
(25.4106 2.60067 -6.7902e-19)
(25.4475 2.59709 7.63434e-20)
(25.478 2.59406 3.02617e-19)
(25.4978 2.59146 2.2506e-20)
(25.5111 2.58829 1.21812e-21)
(25.5231 2.58456 3.99977e-21)
(25.5351 2.58067 5.1902e-21)
(25.5462 2.57678 0)
(25.5557 2.57279 1.02911e-20)
(25.5641 2.56868 -9.92622e-21)
(25.5717 2.56448 -6.06011e-22)
(25.5783 2.56017 1.40234e-18)
(25.5843 2.55577 -1.23793e-18)
(25.5895 2.55134 -3.13535e-20)
(25.5943 2.547 1.41705e-20)
(25.5985 2.54281 2.38058e-20)
(25.6024 2.53885 2.19366e-18)
(25.6061 2.53514 1.3163e-18)
(25.6095 2.53177 -5.60695e-20)
(25.6128 2.52878 1.74949e-20)
(25.6161 2.52621 -1.11652e-20)
(25.6194 2.52408 1.55772e-20)
(25.6228 2.52244 -9.1287e-18)
(25.6264 2.52128 1.17695e-18)
(25.6302 2.52063 5.41273e-20)
(25.6343 2.52047 -1.46612e-19)
(25.6387 2.52083 -1.91845e-18)
(25.6434 2.52167 -5.87868e-20)
(25.6485 2.52305 -1.52207e-19)
(25.654 2.52494 8.3016e-18)
(25.6599 2.5274 -1.29572e-19)
(25.6663 2.53044 -2.02027e-20)
(25.6731 2.53416 -8.19397e-18)
(25.6803 2.53855 1.53539e-17)
(25.6879 2.54364 -1.00747e-17)
(25.6958 2.54945 8.48645e-20)
(25.7042 2.55618 1.24768e-17)
(25.7131 2.56379 1.13246e-17)
(25.7224 2.57209 -1.24682e-19)
(25.7316 2.58142 1.83745e-19)
(25.7408 2.59176 -9.34237e-18)
(25.7506 2.60282 -3.9091e-17)
(25.7603 2.61501 -1.59212e-19)
(25.7701 2.62815 -1.05657e-18)
(25.7798 2.64228 1.19799e-18)
(25.7895 2.6574 -1.52053e-17)
(25.7989 2.67353 -1.06964e-18)
(25.808 2.69063 1.2268e-18)
(25.8168 2.70873 3.239e-17)
(25.8251 2.72776 -1.21926e-17)
(25.8329 2.7476 -1.92887e-19)
(25.8396 2.76832 -2.68692e-17)
(25.8454 2.78977 3.46788e-17)
(25.8505 2.81189 4.53628e-17)
(25.8547 2.83473 1.15281e-16)
(25.8579 2.85815 -9.72554e-19)
(25.8602 2.88209 -1.01699e-16)
(25.8617 2.90643 2.59775e-17)
(25.8618 2.93109 1.45995e-18)
(25.8609 2.95591 -5.77579e-17)
(25.8589 2.98078 -1.37918e-16)
(25.8558 3.00556 -1.21963e-16)
(25.8517 3.03012 7.02099e-17)
(25.8466 3.05456 -4.15403e-18)
(25.841 3.07815 2.65832e-17)
(25.8358 3.09843 -6.69803e-18)
(25.8281 3.11547 1.56104e-19)
(25.8206 3.13356 1.66275e-19)
(25.8125 3.15199 -1.02891e-16)
(25.8037 3.17117 -9.90496e-17)
(25.7934 3.19064 -6.98293e-18)
(25.78 3.20987 -3.95071e-18)
(25.7622 3.22973 0)
(25.7431 3.24527 -2.24293e-17)
(25.728 3.2735 -5.21759e-18)
(25.7404 3.26547 -1.07449e-16)
(25.7576 3.38677 -6.72727e-17)
(25.8218 3.17269 -8.29842e-19)
(25.6206 2.49157 -5.65622e-19)
(25.4861 2.49674 3.51072e-20)
(25.4048 2.49862 -8.19202e-21)
(25.3842 2.4961 6.79056e-19)
(25.4056 2.4914 -6.77549e-20)
(25.4396 2.48788 -2.99695e-19)
(25.4667 2.48633 -9.24462e-20)
(25.4841 2.48517 -6.94938e-21)
(25.4977 2.48354 3.57505e-19)
(25.5112 2.48175 2.42064e-18)
(25.5242 2.48009 0)
(25.5358 2.47851 1.34308e-18)
(25.5462 2.47688 -2.11332e-18)
(25.5558 2.47518 -1.87666e-18)
(25.5647 2.47335 3.04869e-18)
(25.5728 2.47139 1.38478e-18)
(25.5804 2.46935 2.02189e-19)
(25.5875 2.4673 5.07341e-18)
(25.5942 2.46526 4.23188e-18)
(25.6005 2.46329 -2.12115e-18)
(25.6066 2.4614 -1.46105e-18)
(25.6126 2.4597 -1.21695e-17)
(25.6184 2.4582 -4.88914e-20)
(25.6242 2.45702 -3.53109e-18)
(25.63 2.45616 -3.54833e-20)
(25.636 2.45573 -1.60641e-19)
(25.642 2.45574 7.20152e-20)
(25.6483 2.45627 -8.65379e-20)
(25.6549 2.4573 1.49404e-19)
(25.6617 2.45892 1.90581e-18)
(25.6688 2.4611 4.56741e-20)
(25.6763 2.46389 7.30451e-20)
(25.6841 2.46725 -8.27975e-18)
(25.6923 2.47128 -8.43767e-21)
(25.7009 2.47596 -5.87783e-21)
(25.7098 2.48143 1.20017e-18)
(25.7191 2.48763 -1.49369e-17)
(25.7286 2.49464 1.0042e-17)
(25.7384 2.50239 7.47854e-20)
(25.7485 2.51111 -2.65718e-17)
(25.7589 2.52081 1.21751e-17)
(25.7695 2.53126 -1.00508e-17)
(25.7797 2.54277 2.08126e-19)
(25.79 2.55521 -4.91164e-17)
(25.8004 2.56857 6.01738e-18)
(25.8107 2.58304 -1.93033e-19)
(25.8209 2.59842 -1.29793e-18)
(25.8308 2.61482 2.55594e-17)
(25.8405 2.63222 1.49578e-17)
(25.8497 2.65062 7.90824e-19)
(25.8584 2.66997 6.71248e-17)
(25.8665 2.69028 -2.11271e-18)
(25.8741 2.71149 2.5626e-17)
(25.8809 2.73343 2.04507e-17)
(25.8864 2.75614 9.38932e-18)
(25.8909 2.77948 4.02203e-17)
(25.8946 2.80343 2.34583e-17)
(25.8972 2.82794 -1.30952e-16)
(25.8988 2.85291 9.35289e-17)
(25.8994 2.87825 1.44413e-16)
(25.8989 2.90385 -2.46347e-17)
(25.8972 2.92961 1.29187e-16)
(25.8943 2.95541 -3.35106e-17)
(25.8904 2.98115 -3.22119e-17)
(25.8854 3.00669 2.89196e-16)
(25.8794 3.03194 9.67486e-19)
(25.8725 3.05698 -1.73792e-17)
(25.8651 3.08104 -1.57428e-18)
(25.8586 3.10172 -5.58058e-17)
(25.8496 3.11895 1.66915e-19)
(25.8408 3.13721 -4.37997e-17)
(25.8313 3.15572 9.43593e-17)
(25.8211 3.17494 8.65975e-17)
(25.8092 3.19435 -2.35526e-17)
(25.794 3.21352 -4.38049e-18)
(25.7747 3.23309 0)
(25.7544 3.24904 2.69815e-16)
(25.7394 3.27598 -9.23773e-17)
(25.7524 3.27129 9.94651e-17)
(25.7692 3.38678 2.3843e-18)
(25.8314 3.17942 -3.47041e-16)
(25.8242 2.31304 7.12393e-19)
(25.6417 2.31699 1.18678e-19)
(25.5073 2.32013 -2.10607e-20)
(25.4415 2.31888 -7.67884e-19)
(25.4379 2.31606 1.35925e-19)
(25.4657 2.315 3.82955e-19)
(25.4945 2.31662 -1.49375e-19)
(25.5137 2.31901 -1.06333e-20)
(25.528 2.32084 -1.15734e-20)
(25.5421 2.32247 1.36425e-19)
(25.5561 2.32429 0)
(25.5688 2.32621 -1.6887e-18)
(25.5805 2.32811 2.44736e-18)
(25.5913 2.32996 2.85734e-18)
(25.6015 2.33173 1.80294e-18)
(25.6109 2.33345 -1.18648e-18)
(25.6197 2.33517 2.58923e-19)
(25.6281 2.33692 2.01134e-19)
(25.636 2.33869 9.16078e-20)
(25.6436 2.34051 2.56944e-18)
(25.651 2.34237 1.12181e-18)
(25.6582 2.34435 -2.54374e-19)
(25.6654 2.34644 6.02534e-18)
(25.6725 2.34874 3.60917e-18)
(25.6797 2.35127 -3.70509e-20)
(25.687 2.35413 5.69113e-18)
(25.6944 2.35733 -1.38257e-17)
(25.7021 2.36098 4.14893e-18)
(25.71 2.3651 6.1154e-18)
(25.7182 2.36981 1.15803e-17)
(25.7267 2.37507 -1.62473e-17)
(25.7355 2.38099 -2.53823e-17)
(25.7447 2.38753 -3.8775e-18)
(25.7542 2.39479 -7.67108e-18)
(25.764 2.40273 1.24169e-17)
(25.7741 2.41151 1.51594e-17)
(25.7844 2.42113 1.08837e-17)
(25.7949 2.43164 -5.37621e-18)
(25.8056 2.44294 3.08412e-18)
(25.8165 2.45524 2.62725e-17)
(25.8276 2.46853 -1.35576e-17)
(25.8385 2.48261 1.66112e-17)
(25.8488 2.49769 -5.31091e-18)
(25.8592 2.51363 4.76333e-17)
(25.8695 2.53049 3.39609e-17)
(25.8795 2.54829 4.5416e-17)
(25.8891 2.56692 1.00345e-18)
(25.8983 2.58651 4.57441e-17)
(25.9069 2.607 2.5796e-17)
(25.915 2.6284 2.37507e-17)
(25.9223 2.65064 -1.79345e-17)
(25.929 2.67372 -5.66376e-17)
(25.9348 2.69755 5.69448e-17)
(25.9396 2.72198 -1.51579e-18)
(25.943 2.74699 -6.8867e-17)
(25.9454 2.77246 -6.62616e-17)
(25.9468 2.79837 -2.34908e-19)
(25.947 2.82464 -1.36764e-17)
(25.9462 2.85118 -1.47501e-16)
(25.9444 2.87792 -4.78605e-18)
(25.9414 2.90472 -5.57253e-19)
(25.9371 2.93149 -2.02641e-17)
(25.9318 2.95814 3.04318e-17)
(25.9253 2.98458 8.47701e-18)
(25.9179 3.01069 -8.35426e-18)
(25.9096 3.03642 -2.962e-18)
(25.9005 3.06185 1.96644e-17)
(25.8911 3.08616 7.00642e-17)
(25.8829 3.10707 3.95672e-18)
(25.8725 3.12434 1.82242e-19)
(25.8623 3.14268 4.05023e-17)
(25.8513 3.16116 -3.35843e-18)
(25.8395 3.18028 -6.79757e-18)
(25.8258 3.19948 -7.53597e-18)
(25.8088 3.21843 -4.81648e-18)
(25.7877 3.23757 0)
(25.7663 3.25378 -2.3876e-16)
(25.7514 3.27925 9.73413e-17)
(25.7653 3.27807 -5.98703e-17)
(25.7808 3.38677 -3.67841e-18)
(25.8417 3.18702 2.76041e-16)
(26.0493 2.07636 1.14161e-19)
(25.8671 2.08249 -1.65073e-19)
(25.7264 2.08742 -3.34876e-19)
(25.6497 2.0891 1.63662e-19)
(25.6314 2.09042 -1.54692e-19)
(25.6423 2.0937 4.88679e-19)
(25.655 2.09918 2.58457e-18)
(25.6615 2.10515 3.54642e-19)
(25.6662 2.11087 1.06207e-18)
(25.6724 2.11673 -1.33026e-19)
(25.6795 2.12286 0)
(25.6868 2.12917 1.26581e-18)
(25.6942 2.13552 -3.45668e-18)
(25.7018 2.14196 1.69279e-19)
(25.7095 2.14846 -4.79245e-18)
(25.7172 2.15508 -3.12955e-18)
(25.7249 2.16182 -3.45262e-18)
(25.7325 2.16869 -2.7112e-18)
(25.74 2.17568 -1.0399e-18)
(25.7475 2.18278 -6.37553e-18)
(25.755 2.18999 9.15363e-18)
(25.7625 2.19735 4.05044e-18)
(25.7701 2.20484 -4.05503e-19)
(25.7777 2.21253 -6.83244e-19)
(25.7854 2.2204 2.46186e-18)
(25.7933 2.22853 2.38446e-18)
(25.8014 2.2369 7.08449e-18)
(25.8097 2.24561 5.47959e-18)
(25.8182 2.25471 -8.01644e-18)
(25.8269 2.26426 -1.19475e-17)
(25.8359 2.27428 4.96631e-18)
(25.8451 2.28486 3.1157e-18)
(25.8546 2.29602 2.37917e-18)
(25.8643 2.30782 -1.78393e-17)
(25.8742 2.32027 -1.5569e-17)
(25.8841 2.33354 -2.54405e-18)
(25.8942 2.34763 1.13304e-17)
(25.9043 2.36266 6.33765e-18)
(25.9146 2.3785 -1.62419e-17)
(25.9248 2.39533 -2.22633e-17)
(25.9348 2.41307 1.9482e-18)
(25.9443 2.43164 -2.89556e-17)
(25.9534 2.45114 1.25596e-17)
(25.9624 2.47144 -2.50849e-17)
(25.971 2.49257 2.30696e-17)
(25.9791 2.51448 -7.15982e-17)
(25.9866 2.53712 3.8583e-19)
(25.9934 2.56055 6.86859e-18)
(25.9995 2.58469 -5.47593e-17)
(26.0048 2.60951 -2.46513e-17)
(26.0093 2.63499 -4.02024e-17)
(26.0128 2.66106 -9.96585e-18)
(26.0154 2.68766 -7.02323e-17)
(26.0168 2.71462 -5.45986e-17)
(26.0167 2.74191 6.41156e-17)
(26.0156 2.76944 4.68151e-17)
(26.0134 2.79717 -2.29869e-17)
(26.0101 2.82501 8.02147e-17)
(26.0057 2.8529 1.12124e-16)
(26.0003 2.88077 -1.51734e-17)
(25.9937 2.90848 3.59906e-17)
(25.9859 2.93595 -1.19048e-16)
(25.9771 2.96311 -5.99533e-17)
(25.9674 2.98989 1.20522e-16)
(25.9568 3.01622 -2.48292e-16)
(25.9454 3.04211 -3.29516e-17)
(25.9335 3.06763 1.23077e-16)
(25.9216 3.09193 -1.06556e-16)
(25.9112 3.11296 4.44096e-17)
(25.8992 3.13019 1.10353e-17)
(25.8872 3.14858 -4.85592e-18)
(25.8745 3.16699 -1.29976e-16)
(25.8608 3.18597 -1.47219e-16)
(25.8451 3.20489 -9.28824e-17)
(25.8259 3.22356 -6.35393e-17)
(25.8028 3.24219 0)
(25.7801 3.25873 2.08307e-16)
(25.7654 3.28243 -1.36391e-16)
(25.7796 3.28541 -1.53119e-16)
(25.794 3.3861 1.16551e-16)
(25.8514 3.1943 9.97273e-17)
(26.4371 1.70006 -4.26911e-19)
(26.3459 1.70567 -9.36149e-19)
(26.2769 1.71143 1.27343e-18)
(26.2391 1.71615 -1.24106e-19)
(26.2239 1.72242 -1.95923e-19)
(26.2141 1.73062 -1.31327e-18)
(26.1994 1.74027 -9.56104e-19)
(26.1805 1.75054 5.56613e-19)
(26.1616 1.76132 -1.17399e-18)
(26.1443 1.77293 -1.98785e-18)
(26.1284 1.78515 0)
(26.1139 1.79802 1.32341e-18)
(26.1011 1.81138 1.57032e-18)
(26.09 1.82535 6.934e-19)
(26.0806 1.8398 5.3005e-19)
(26.0728 1.85487 1.97728e-18)
(26.0665 1.87041 -1.37839e-18)
(26.0616 1.88648 -1.42101e-18)
(26.058 1.90293 3.55211e-19)
(26.0556 1.91982 3.58426e-18)
(26.0541 1.93711 -8.76883e-18)
(26.0536 1.95477 -2.76333e-18)
(26.054 1.97275 8.71187e-19)
(26.055 1.9911 -1.56751e-18)
(26.0567 2.00976 -6.05396e-18)
(26.059 2.02876 -4.69761e-18)
(26.0618 2.04805 -5.55554e-18)
(26.0651 2.06761 2.49573e-18)
(26.0688 2.08749 -6.12513e-18)
(26.0728 2.10765 4.99076e-18)
(26.0772 2.1281 4.59644e-18)
(26.0818 2.14889 2.57882e-18)
(26.0867 2.17003 -1.56939e-18)
(26.0917 2.19148 2.69632e-18)
(26.0968 2.21332 -1.58139e-18)
(26.102 2.23563 -8.20323e-18)
(26.1071 2.25846 -1.48013e-17)
(26.1123 2.28188 -9.80562e-18)
(26.1174 2.30581 2.16536e-17)
(26.1222 2.33037 3.36914e-17)
(26.1264 2.35548 -1.83149e-17)
(26.1302 2.38112 1.90769e-17)
(26.1335 2.40734 1.79166e-18)
(26.1367 2.43405 1.28323e-17)
(26.1393 2.46128 -2.76592e-17)
(26.1412 2.4889 3.89273e-17)
(26.1424 2.51694 -1.50735e-17)
(26.1429 2.54531 1.17379e-18)
(26.1426 2.574 5.14017e-17)
(26.1414 2.60293 -1.61636e-17)
(26.1394 2.63211 9.83327e-18)
(26.1364 2.66146 3.66845e-17)
(26.1324 2.6909 -3.25261e-17)
(26.1272 2.72031 5.73896e-17)
(26.1207 2.74966 -3.59258e-17)
(26.1134 2.77891 1.31525e-17)
(26.1051 2.80801 5.73887e-17)
(26.0958 2.83691 -6.10435e-17)
(26.0856 2.86556 -8.02065e-17)
(26.0745 2.89392 -4.22057e-17)
(26.0624 2.92184 -1.04668e-16)
(26.0494 2.94931 5.10682e-17)
(26.0355 2.97626 2.50702e-17)
(26.021 3.00269 -5.58877e-18)
(26.0059 3.02852 1.21156e-16)
(25.9903 3.0539 -8.41562e-18)
(25.9745 3.07884 -1.8279e-16)
(25.959 3.10248 9.36761e-17)
(25.9457 3.12311 6.13743e-17)
(25.9314 3.13988 -3.21891e-18)
(25.9171 3.15792 3.55077e-17)
(25.9021 3.17586 -1.65712e-18)
(25.8859 3.19431 2.73072e-17)
(25.8676 3.2126 -4.0066e-17)
(25.8457 3.23065 -1.47482e-18)
(25.8202 3.24848 0)
(25.7961 3.26505 -1.90439e-16)
(25.7817 3.28676 1.43946e-16)
(25.7954 3.29391 3.19422e-17)
(25.81 3.38627 -1.10564e-16)
(25.8577 3.20268 6.48456e-17)
(26.7956 1.34638 4.83544e-19)
(26.8502 1.35165 7.97487e-20)
(26.898 1.36128 -7.00403e-19)
(26.9383 1.37169 -2.45739e-19)
(26.9666 1.38413 -1.22394e-19)
(26.979 1.39838 -1.23422e-19)
(26.9771 1.41373 -1.87534e-19)
(26.9651 1.43028 -8.01771e-19)
(26.9464 1.44779 7.65032e-19)
(26.9225 1.46647 1.82953e-18)
(26.8946 1.48598 0)
(26.8638 1.50643 -2.60396e-19)
(26.8315 1.52759 9.83456e-19)
(26.7985 1.54964 -7.13442e-19)
(26.7658 1.5724 2.37488e-18)
(26.7338 1.59602 -2.96754e-18)
(26.7031 1.62025 2.44198e-18)
(26.6738 1.64529 -4.20624e-19)
(26.6464 1.67087 1.81862e-19)
(26.6208 1.69714 -1.20272e-18)
(26.5971 1.724 5.08419e-18)
(26.5753 1.75144 4.76073e-18)
(26.5553 1.77936 7.84634e-20)
(26.537 1.80787 1.76458e-18)
(26.5203 1.83677 5.96264e-18)
(26.5051 1.86614 4.81103e-18)
(26.4912 1.89593 3.28137e-18)
(26.4785 1.92601 -1.05179e-17)
(26.4669 1.95642 1.03117e-17)
(26.4563 1.98707 3.88213e-18)
(26.4466 2.01794 -7.97239e-18)
(26.4376 2.04896 4.09689e-19)
(26.4292 2.08017 -3.15625e-18)
(26.4213 2.11137 1.03199e-17)
(26.4138 2.14272 6.2989e-18)
(26.4067 2.17417 -6.52223e-19)
(26.3999 2.20578 -3.19841e-19)
(26.3933 2.23751 5.14624e-18)
(26.3867 2.26938 -1.77672e-19)
(26.3799 2.30135 -1.1648e-17)
(26.3727 2.33346 8.17908e-18)
(26.3653 2.36565 4.08298e-18)
(26.358 2.39795 -8.82756e-18)
(26.3505 2.43032 -2.86698e-18)
(26.3426 2.4627 -3.99766e-18)
(26.3342 2.495 -3.26583e-18)
(26.3253 2.52724 -9.67281e-18)
(26.316 2.55929 -1.11186e-17)
(26.3061 2.59118 -2.82985e-17)
(26.2956 2.62283 2.4583e-17)
(26.2845 2.65425 3.48007e-17)
(26.2727 2.68539 -3.37437e-17)
(26.26 2.71617 4.00549e-17)
(26.2465 2.74654 -2.6403e-17)
(26.2321 2.77652 2.77156e-17)
(26.2172 2.80606 -4.40452e-17)
(26.2016 2.83515 -3.6808e-17)
(26.1854 2.86376 3.43197e-17)
(26.1686 2.89188 1.14189e-17)
(26.1511 2.91946 -1.52278e-17)
(26.133 2.94643 9.87245e-17)
(26.1143 2.97278 -5.19887e-18)
(26.0951 2.9985 8.78959e-18)
(26.0756 3.02358 2.50546e-17)
(26.0557 3.04802 5.93743e-19)
(26.0357 3.07201 9.62139e-17)
(26.0159 3.09552 1.47018e-16)
(25.9967 3.11773 -7.34858e-17)
(25.9804 3.13735 -5.54486e-18)
(25.9637 3.15313 -1.26645e-17)
(25.9471 3.17034 7.27559e-18)
(25.9297 3.1874 8.69229e-18)
(25.9112 3.20496 3.67168e-17)
(25.8902 3.22231 3.74716e-17)
(25.8656 3.23945 -2.33291e-17)
(25.838 3.25632 0)
(25.8127 3.27264 -3.96952e-17)
(25.7988 3.29255 -1.45646e-16)
(25.8117 3.30336 7.35565e-17)
(25.8266 3.38813 1.5026e-16)
(25.8629 3.21282 -6.36358e-17)
(26.6535 1.43206 -1.75394e-19)
(26.4724 1.45161 3.58008e-19)
(26.8221 1.42891 1.78628e-20)
(26.9776 1.42981 -3.32324e-20)
(27.1139 1.43317 3.07909e-19)
(27.2306 1.4379 2.74923e-19)
(27.3271 1.44455 3.61419e-19)
(27.4046 1.45281 2.85819e-19)
(27.4646 1.46286 -4.14961e-19)
(27.5084 1.47465 -4.81358e-19)
(27.5369 1.48813 -1.17565e-18)
(27.5513 1.50323 0)
(27.5533 1.51992 -9.21725e-20)
(27.5447 1.53809 -1.09279e-18)
(27.527 1.55768 -1.53016e-18)
(27.5019 1.57865 -1.69825e-18)
(27.4709 1.60092 1.87667e-18)
(27.4355 1.6243 -9.32407e-19)
(27.3968 1.64896 1.6836e-18)
(27.356 1.67459 -2.08906e-19)
(27.3139 1.70132 8.98321e-20)
(27.2714 1.72903 -1.91477e-18)
(27.2291 1.75766 -9.91953e-19)
(27.1874 1.78721 -3.87891e-18)
(27.1466 1.81757 -2.48289e-19)
(27.1071 1.84871 -3.43356e-19)
(27.069 1.88055 1.66642e-18)
(27.0323 1.9131 2.0546e-18)
(26.9971 1.94616 2.72739e-18)
(26.9634 1.97971 -3.4367e-18)
(26.9312 2.01366 -1.70821e-18)
(26.9003 2.04789 5.60583e-18)
(26.8708 2.08229 -2.61204e-18)
(26.8424 2.11684 -7.91694e-20)
(26.8152 2.15129 -9.40845e-19)
(26.789 2.18578 1.42184e-19)
(26.7637 2.22015 3.16505e-18)
(26.7393 2.25443 3.12409e-18)
(26.7155 2.28857 2.58174e-18)
(26.692 2.32254 -2.35811e-18)
(26.6689 2.35632 1.30959e-19)
(26.6461 2.38997 3.21551e-18)
(26.6238 2.42342 -5.99968e-18)
(26.602 2.4567 8.67704e-18)
(26.5804 2.48974 2.22492e-18)
(26.5589 2.52251 4.06164e-18)
(26.5374 2.55494 -4.90151e-18)
(26.5161 2.587 -1.14151e-17)
(26.4947 2.61863 -1.33242e-17)
(26.4733 2.64984 7.63746e-18)
(26.4518 2.68058 -8.84213e-18)
(26.4301 2.71083 -1.70728e-17)
(26.4082 2.74058 8.45071e-18)
(26.3859 2.76977 -5.87797e-18)
(26.3633 2.7984 3.55261e-18)
(26.3405 2.8265 -2.05287e-17)
(26.3176 2.85401 3.77383e-17)
(26.2944 2.88097 -7.71179e-18)
(26.2711 2.90734 -1.84912e-17)
(26.2476 2.93313 -2.66591e-17)
(26.2238 2.95832 -6.03116e-20)
(26.1998 2.98286 -2.57035e-17)
(26.1756 3.00676 7.73321e-18)
(26.1513 3.03005 -3.15608e-17)
(26.127 3.0527 -2.79929e-17)
(26.1027 3.07474 7.66908e-18)
(26.0787 3.09643 -2.91671e-17)
(26.0552 3.11767 -6.89031e-17)
(26.0324 3.13765 3.46996e-17)
(26.0132 3.15562 -3.98965e-17)
(25.9944 3.16991 8.38474e-18)
(25.9757 3.18582 -4.2764e-17)
(25.9562 3.20157 1.33483e-17)
(25.9354 3.21786 -5.56388e-17)
(25.912 3.23398 -4.36752e-17)
(25.885 3.24997 2.09516e-17)
(25.8556 3.26576 0)
(25.8294 3.28163 5.39612e-17)
(25.8164 3.29994 -3.67453e-17)
(25.8288 3.314 9.85271e-17)
(25.8434 3.3917 -8.34413e-17)
(25.8684 3.22518 -7.69364e-17)
(25.9621 2.08437 -3.75594e-19)
(25.7633 2.09436 -5.05508e-19)
(26.1616 2.08023 8.20052e-20)
(26.3588 2.07317 3.63565e-20)
(26.5484 2.06753 1.00217e-19)
(26.7294 2.0613 4.26512e-20)
(26.8997 2.05539 1.40296e-19)
(27.0575 2.04987 -7.59215e-20)
(27.2013 2.04508 2.94726e-19)
(27.3297 2.04122 -4.27983e-20)
(27.4418 2.03847 7.61281e-20)
(27.5373 2.03689 0)
(27.6161 2.03668 -4.97533e-20)
(27.6786 2.03788 4.36629e-19)
(27.7255 2.04056 4.32991e-19)
(27.7578 2.04469 2.91078e-19)
(27.7766 2.05029 2.67725e-19)
(27.7834 2.05727 -1.54557e-20)
(27.7793 2.06574 -2.46682e-19)
(27.766 2.07548 -4.43938e-19)
(27.7448 2.08659 -7.71361e-21)
(27.717 2.09894 1.05837e-19)
(27.6839 2.11255 4.48242e-19)
(27.6465 2.12743 3.09452e-19)
(27.6061 2.14346 -1.31696e-19)
(27.5633 2.16074 -5.69339e-19)
(27.519 2.17914 -1.55078e-18)
(27.4738 2.19871 2.91529e-19)
(27.4282 2.2194 1.15557e-18)
(27.3826 2.24108 1.23382e-18)
(27.3374 2.26376 -1.89418e-18)
(27.2927 2.28725 -2.04452e-19)
(27.2488 2.31153 1.86956e-18)
(27.2057 2.3364 1.11022e-18)
(27.1636 2.36176 1.90722e-19)
(27.1225 2.38755 -1.22315e-18)
(27.0822 2.41366 -3.49589e-19)
(27.0428 2.43997 2.80203e-18)
(27.004 2.46643 1.65653e-18)
(26.966 2.49301 -5.73298e-19)
(26.9287 2.51965 -7.63611e-19)
(26.8922 2.54638 1.8803e-18)
(26.8566 2.57311 3.93326e-19)
(26.8217 2.59982 -2.07491e-18)
(26.7874 2.62646 1.70255e-18)
(26.7537 2.65296 -2.03175e-18)
(26.7204 2.67928 -3.50374e-18)
(26.6876 2.70535 -3.37733e-19)
(26.6553 2.73113 -1.60565e-18)
(26.6234 2.7566 -1.19561e-18)
(26.5918 2.78171 -4.06205e-18)
(26.5605 2.80644 8.94505e-18)
(26.5293 2.83078 -2.79566e-18)
(26.4983 2.85469 -4.06797e-19)
(26.4674 2.87818 -6.50211e-18)
(26.4369 2.9013 7.26578e-18)
(26.4067 2.92396 -1.41644e-17)
(26.3767 2.94623 5.07896e-18)
(26.347 2.96806 8.20198e-18)
(26.3175 2.98945 1.70069e-17)
(26.2882 3.01039 1.24467e-19)
(26.259 3.03087 -8.21999e-18)
(26.23 3.05088 -2.62952e-18)
(26.2013 3.07044 2.59107e-17)
(26.1729 3.08953 3.98112e-17)
(26.1449 3.10819 -9.3173e-18)
(26.1175 3.12668 -6.86843e-19)
(26.0908 3.14484 -7.35489e-18)
(26.0649 3.16189 -4.17783e-17)
(26.0432 3.17764 1.63346e-17)
(26.0227 3.18997 -1.1128e-18)
(26.0022 3.20413 3.63056e-18)
(25.9809 3.21816 6.32399e-17)
(25.958 3.23284 2.8334e-17)
(25.9324 3.24744 1.82421e-17)
(25.9033 3.26207 2.28204e-17)
(25.8725 3.27668 0)
(25.8461 3.29195 5.45198e-17)
(25.8343 3.30893 -2.26068e-18)
(25.8465 3.32587 -2.57335e-17)
(25.8602 3.39695 -3.85412e-17)
(25.8742 3.24002 -6.40347e-17)
(25.2557 2.79728 -2.60226e-20)
(25.097 2.8051 -6.21471e-21)
(25.4237 2.79119 -2.58176e-19)
(25.5982 2.78273 1.01713e-19)
(25.7757 2.77489 1.19784e-20)
(25.9553 2.76567 -1.61414e-19)
(26.1349 2.75573 -1.79251e-19)
(26.3122 2.74505 -1.41405e-19)
(26.4851 2.73386 -6.22963e-20)
(26.6515 2.72231 3.1589e-20)
(26.8096 2.71062 4.66551e-20)
(26.9576 2.69897 0)
(27.094 2.68759 -1.09989e-19)
(27.2177 2.67666 -4.83684e-20)
(27.3278 2.66639 3.98445e-22)
(27.4238 2.65688 -2.95254e-21)
(27.5056 2.64826 2.40893e-21)
(27.5733 2.64064 -9.45618e-20)
(27.6271 2.63409 1.99311e-19)
(27.6678 2.62862 -6.0846e-20)
(27.6962 2.62423 -4.32484e-20)
(27.7132 2.62091 1.80001e-20)
(27.7199 2.6187 1.06648e-19)
(27.7173 2.61756 -4.38152e-20)
(27.7067 2.6175 3.86242e-19)
(27.689 2.61855 2.72801e-19)
(27.6654 2.6207 1.11322e-18)
(27.6369 2.62405 2.84782e-19)
(27.6043 2.62857 1.73784e-19)
(27.5684 2.63425 1.56541e-19)
(27.53 2.64114 1.09651e-20)
(27.4897 2.64914 -4.4853e-19)
(27.4479 2.65827 5.07917e-19)
(27.4052 2.66835 9.03186e-20)
(27.3618 2.67933 -5.40556e-19)
(27.318 2.69114 3.78993e-19)
(27.2739 2.70367 -5.90054e-19)
(27.2298 2.71679 1.44252e-19)
(27.1857 2.73046 1.72955e-19)
(27.142 2.74462 7.02294e-19)
(27.0987 2.75921 4.81793e-19)
(27.056 2.7742 1.51734e-19)