# p  FACE_DATA 300
# x y z  p
0.29787915 -0.05 0.060005454 11691.046
0.29366024 -0.05 0.059998184 11708.482
0.28948669 -0.05 0.059982824 11727.953
0.28535801 -0.05 0.05995956 11747.294
0.28127374 -0.05 0.05992843 11767.788
0.27723342 -0.05 0.059889544 11788.133
0.27323659 -0.05 0.059843055 11809.045
0.2692828 -0.05 0.059789027 11830.293
0.26537161 -0.05 0.059727601 11851.51
0.26150257 -0.05 0.05965892 11873.193
0.25767524 -0.05 0.059583046 11895.453
0.2538892 -0.05 0.059500074 11918.08
0.25014401 -0.05 0.059410118 11941.079
0.24643926 -0.05 0.059313284 11964.498
0.24277452 -0.05 0.059209674 11988.279
0.23914938 -0.05 0.059099387 12012.371
0.23556344 -0.05 0.058982537 12036.542
0.23201627 -0.05 0.058859254 12060.999
0.2285075 -0.05 0.058729541 12086.444
0.22503671 -0.05 0.058593532 12111.319
0.22160352 -0.05 0.058451379 12137.004
0.21820754 -0.05 0.058303115 12162.875
0.21484838 -0.05 0.058148846 12189.136
0.21152567 -0.05 0.05798866 12215.715
0.20823903 -0.05 0.057822651 12242.734
0.20498809 -0.05 0.057650874 12270.226
0.20177248 -0.05 0.057473468 12297.424
0.19859184 -0.05 0.057290478 12325.736
0.1954458 -0.05 0.057101994 12353.306
0.19233402 -0.05 0.056908168 12381.56
0.18925614 -0.05 0.056708999 12410.328
0.18621181 -0.05 0.056504563 12439.465
0.1832007 -0.05 0.056294919 12469.026
0.18022246 -0.05 0.05608023 12498.043
0.17727675 -0.05 0.055860526 12528.471
0.17436324 -0.05 0.055635849 12558.117
0.1714816 -0.05 0.055406376 12588.218
0.16863151 -0.05 0.055172052 12619.538
0.16581265 -0.05 0.054932944 12650.567
0.16302469 -0.05 0.054689208 12682.116
0.16026733 -0.05 0.054440898 12714.17
0.15754024 -0.05 0.054188056 12746.793
0.15484313 -0.05 0.053930725 12779.574
0.15217569 -0.05 0.053668978 12812.49
0.14953762 -0.05 0.053402889 12845.765
0.14692863 -0.05 0.053132457 12879.762
0.14434842 -0.05 0.052857799 12912.854
0.14179669 -0.05 0.052579044 12946.842
0.13927317 -0.05 0.05229612 12982.3
0.13677757 -0.05 0.052009061 13017.85
0.13430961 -0.05 0.051717985 13053.48
0.13186901 -0.05 0.051422994 13089.036
0.1294555 -0.05 0.05112408 13126.009
0.12706881 -0.05 0.050821224 13163.316
0.12470868 -0.05 0.050514504 13200.747
0.12237483 -0.05 0.05020403 13237.83
0.12006701 -0.05 0.049889836 13276.154
0.11778495 -0.05 0.049571874 13315.144
0.11552842 -0.05 0.049250263 13353.75
0.11329715 -0.05 0.048924992 13393.591
0.1110909 -0.05 0.048596121 13432.91
0.10890943 -0.05 0.048263656 13474.744
0.10675251 -0.05 0.047927554 13516.048
0.10461987 -0.05 0.047587958 13557.44
0.1025113 -0.05 0.047244937 13599.001
0.10042655 -0.05 0.046898432 13642.691
0.098365405 -0.05 0.046548446 13686.481
0.096327639 -0.05 0.046195043 13731.101
0.094313028 -0.05 0.045838237 13775.758
0.092321357 -0.05 0.045478019 13821.806
0.090352417 -0.05 0.04511438 13867.633
0.088405979 -0.05 0.044747421 13913.845
0.086481845 -0.05 0.044377096 13961.592
0.084579815 -0.05 0.044003384 14009.391
0.082699669 -0.05 0.043626385 14057.865
0.080841229 -0.05 0.043246005 14108.21
0.0790043 -0.05 0.042862236 14157.866
0.077188666 -0.05 0.0424752 14208.102
0.07539416 -0.05 0.04208479 14260.147
0.073620599 -0.05 0.041690997 14312.242
0.071867788 -0.05 0.041293877 14366.075
0.070135557 -0.05 0.040893384 14421.281
0.068423743 -0.05 0.040489458 14477.718
0.066732169 -0.05 0.040082112 14533.502
0.065060663 -0.05 0.039671361 14590.64
0.063409062 -0.05 0.039257174 14648.66
0.061777219 -0.05 0.038839488 14708.942
0.060164984 -0.05 0.038418265 14769.524
0.058572196 -0.05 0.037993513 14831.725
0.056998721 -0.05 0.037565159 14895.056
0.055444419 -0.05 0.03713316 14959.261
0.053909142 -0.05 0.036697516 15024.141
0.052392764 -0.05 0.03625817 15092.007
0.050895177 -0.05 0.035815009 15162.06
0.049416244 -0.05 0.035368033 15232.878
0.047955856 -0.05 0.034917167 15304.513
0.046513915 -0.05 0.034462309 15376.221
0.045090302 -0.05 0.034003445 15450.76
0.043684931 -0.05 0.033540468 15530.232
0.042297731 -0.05 0.03307324 15612.709
0.040928604 -0.05 0.032601734 15697.015
0.039577476 -0.05 0.032125845 15784.938
0.038244291 -0.05 0.03164545 15874.987
0.036928981 -0.05 0.031160474 15968.225
0.0356315 -0.05 0.030670795 16065.429
0.03435181 -0.05 0.030176299 16168.975
0.033089918 -0.05 0.029676761 16281.039
0.031845783 -0.05 0.029172106 16400.187
0.030619394 -0.05 0.02866221 16532.955
0.029410776 -0.05 0.028146878 16676.193
0.028219949 -0.05 0.027625962 16825.237
0.027046957 -0.05 0.027099267 16977.577
0.025891857 -0.05 0.026566614 17137.387
0.02475474 -0.05 0.026027768 17303.094
0.023635681 -0.05 0.025482558 17472.78
0.022534817 -0.05 0.024930717 17647.76
0.021452274 -0.05 0.024372036 17827.433
0.020388213 -0.05 0.023806274 18013.572
0.019342865 -0.05 0.023233111 18205.497
0.018316468 -0.05 0.022652259 18407.362
0.017309264 -0.05 0.02206346 18623.365
0.016321577 -0.05 0.021466368 18855.629
0.015353757 -0.05 0.020860645 19097.628
0.014406156 -0.05 0.020245997 19351.372
0.013479274 -0.05 0.019622013 19618.611
0.012573638 -0.05 0.018988323 19903.33
0.0116898 -0.05 0.018344552 20212.655
0.010828378 -0.05 0.017690314 20550.336
0.0099901249 -0.05 0.017025149 20914.025
0.0091759198 -0.05 0.016348644 21299.072
0.008386597 -0.05 0.0156605 21708.749
0.0076231725 -0.05 0.014960218 22145.438
0.0068867853 -0.05 0.014247452 22606.762
0.0061787359 -0.05 0.013521944 23100.116
0.0055003792 -0.05 0.012783302 23624.122
0.0048530826 -0.05 0.012031363 24180.745
0.0042385571 -0.05 0.011266143 24778.506
0.0036585397 -0.05 0.010487553 25419.958
0.0031148319 -0.05 0.0096957287 26095.788
0.0026094399 -0.05 0.0088912322 26799.106
0.0021442246 -0.05 0.0080745628 27525.931
0.0017210465 -0.05 0.0072465895 28271.71
0.0013418093 -0.05 0.0064087151 29034.983
0.0010080919 -0.05 0.0055623679 29801.719
0.00072127228 -0.05 0.0047092571 30559.946
0.00048251081 -0.05 0.0038515496 31302.365
0.00029236329 -0.05 0.0029916287 32012.086
0.0001508317 -0.05 0.0021320102 32673.279
5.7495879e-05 -0.05 0.0012752716 33277.246
1.1394864e-05 -0.05 0.00042397109 33818.586
0.99768066 -0.05 0.00033611804 26519.27
0.99304169 -0.05 0.0010063364 26487.605
0.98840215 -0.05 0.0016726212 26426.956
0.98376207 -0.05 0.0023350721 26373.546
0.97912143 -0.05 0.0029936636 26317.585
0.97448026 -0.05 0.00364841 26262.592
0.96983855 -0.05 0.0042993733 26207.365
0.96519632 -0.05 0.0049465845 26152.315
0.96055356 -0.05 0.0055900577 26097.296
0.95591031 -0.05 0.0062298653 26042.325
0.95126654 -0.05 0.0068660327 25987.454
0.94662227 -0.05 0.0074985225 25932.702
0.94197753 -0.05 0.0081274235 25878.045
0.9373323 -0.05 0.008752761 25823.575
0.93268659 -0.05 0.0093745713 25769.222
0.92804042 -0.05 0.0099928964 25715.091
0.92339378 -0.05 0.010607714 25661.182
0.91874669 -0.05 0.011219031 25607.531
0.91409914 -0.05 0.011826962 25554.036
0.90945116 -0.05 0.012431486 25500.916
0.90480273 -0.05 0.013032571 25448.004
0.90015387 -0.05 0.013630361 25395.374
0.89550457 -0.05 0.014224739 25343.173
0.89085486 -0.05 0.014815813 25291.12
0.88620473 -0.05 0.01540363 25239.542
0.88155418 -0.05 0.0159881 25188.254
0.87690323 -0.05 0.016569356 25137.269
0.87225187 -0.05 0.017147383 25086.646
0.86760011 -0.05 0.017722168 25036.361
0.86294796 -0.05 0.018293719 24986.438
0.85829541 -0.05 0.018862095 24936.796
0.85364248 -0.05 0.019427289 24887.565
0.84898916 -0.05 0.01998931 24838.591
0.84433547 -0.05 0.020548224 24789.984
0.83968139 -0.05 0.021103928 24741.827
0.83502695 -0.05 0.021656533 24693.831
0.83037214 -0.05 0.022206072 24646.272
0.82571697 -0.05 0.022752481 24598.975
0.82106143 -0.05 0.023295768 24552.094
0.81640552 -0.05 0.023835961 24505.41
0.81174928 -0.05 0.024373126 24459.027
0.80709266 -0.05 0.024907211 24412.907
0.80243571 -0.05 0.025438235 24367.053
0.7977784 -0.05 0.025966147 24321.574
0.79312074 -0.05 0.026490982 24276.25
0.78846275 -0.05 0.027012845 24231.113
0.78380442 -0.05 0.027531686 24186.252
0.77914574 -0.05 0.028047403 24141.715
0.77448674 -0.05 0.028560079 24097.238
0.7698274 -0.05 0.029069753 24053.02
0.76516772 -0.05 0.02957633 24008.992
0.7605077 -0.05 0.030079852 23965.072
0.75584737 -0.05 0.030580367 23921.211
0.75118671 -0.05 0.03107785 23877.465
0.74652573 -0.05 0.031572241 23833.818
0.74186441 -0.05 0.032063551 23790.212
0.73720278 -0.05 0.032551782 23746.642
0.73254082 -0.05 0.03303698 23702.995
0.72787854 -0.05 0.033519069 23659.443
0.72321595 -0.05 0.033998064 23615.663
0.71855304 -0.05 0.034473962 23571.934
0.71388981 -0.05 0.03494667 23528.013
0.70922626 -0.05 0.035416302 23483.821
0.7045624 -0.05 0.035882849 23439.361
0.69989823 -0.05 0.036346252 23394.575
0.69523375 -0.05 0.036806454 23349.472
0.69056894 -0.05 0.037263403 23303.943
0.68590382 -0.05 0.037717206 23257.794
0.68123839 -0.05 0.038167801 23211.218
0.67657265 -0.05 0.038615123 23163.895
0.67190661 -0.05 0.039059237 23115.836
0.66724025 -0.05 0.039500049 23066.978
0.66257357 -0.05 0.039937521 23017.168
0.6579066 -0.05 0.040371712 22966.237
0.65323931 -0.05 0.040802591 22914.148
0.64857171 -0.05 0.041230085 22860.737
0.6439038 -0.05 0.041654149 22805.914
0.63923558 -0.05 0.042074786 22749.467
0.63456705 -0.05 0.042492 22691.323
0.62989822 -0.05 0.042905734 22631.311
0.62522907 -0.05 0.043315943 22569.29
0.6205596 -0.05 0.043722625 22505.049
0.61588983 -0.05 0.044125719 22438.474
0.61121975 -0.05 0.044525219 22369.294
0.60654937 -0.05 0.044921074 22297.469
0.60187867 -0.05 0.045313219 22222.705
0.59720766 -0.05 0.045701683 22144.881
0.59253634 -0.05 0.046086399 22063.822
0.58786471 -0.05 0.046467288 21979.345
0.58319277 -0.05 0.046844345 21891.256
0.57852051 -0.05 0.047217535 21799.579
0.57384795 -0.05 0.047586814 21704.194
0.56917507 -0.05 0.047952124 21604.99
0.56450189 -0.05 0.048313436 21501.744
0.55982839 -0.05 0.048670677 21394.443
0.55515457 -0.05 0.04902381 21283.117
0.55048045 -0.05 0.04937281 21167.887
0.54580601 -0.05 0.04971755 21048.511
0.54113126 -0.05 0.050058049 20925.005
0.5364562 -0.05 0.050394263 20797.507
0.53178083 -0.05 0.050726133 20666.1
0.52710515 -0.05 0.051053569 20531.026
0.52242915 -0.05 0.051376464 20392.189
0.51775284 -0.05 0.051694815 20250.014
0.51307623 -0.05 0.052008601 20105.104
0.5083993 -0.05 0.052317708 19957.445
0.50372205 -0.05 0.052622097 19806.877
0.4990445 -0.05 0.052921701 19653.248
0.49436664 -0.05 0.053216429 19496.565
0.48968848 -0.05 0.053506199 19337.411
0.48501001 -0.05 0.053790938 19176.748
0.48033122 -0.05 0.054070626 19015.833
0.47565213 -0.05 0.05434516 18855.9
0.47097274 -0.05 0.054614471 18698.009
0.46629305 -0.05 0.054878504 18542.458
0.46161306 -0.05 0.055137129 18387.797
0.45693276 -0.05 0.055390258 18231.139
0.45225217 -0.05 0.05563783 18063.077
0.44757129 -0.05 0.055879797 17861.642
0.44289011 -0.05 0.056116052 17605.954
0.43820865 -0.05 0.05634646 17291.262
0.43352689 -0.05 0.056570934 16761.446
0.42884485 -0.05 0.056789428 15703.765
0.42416254 -0.05 0.057001839 14285.054
0.41947995 -0.05 0.057208045 13036.283
0.41479707 -0.05 0.057407955 12216.91
0.41011393 -0.05 0.057601449 11801.013
0.40543053 -0.05 0.057788457 11585.951
0.40074687 -0.05 0.057968848 11494.703
0.39606296 -0.05 0.058142512 11452.297
0.3913788 -0.05 0.05830933 11436.262
0.38669439 -0.05 0.058469176 11431.387
0.38200975 -0.05 0.058621944 11430.922
0.37732488 -0.05 0.058767528 11436.126
0.37263978 -0.05 0.058905769 11444.639
0.36795448 -0.05 0.059036526 11454.734
0.36326896 -0.05 0.059159727 11465.841
0.35858325 -0.05 0.059275201 11477.927
0.35389736 -0.05 0.059382803 11490.498
0.34921128 -0.05 0.05948244 11503.619
0.34452504 -0.05 0.059573923 11517.71
0.33983865 -0.05 0.059657062 11532.3
0.33515211 -0.05 0.059731741 11547.334
0.33046544 -0.05 0.059797856 11562.722
0.32577866 -0.05 0.059855197 11579.198
0.32109177 -0.05 0.059903555 11596.038
0.31640481 -0.05 0.059942821 11613.383
0.31171778 -0.05 0.059972784 11631.043
0.30703069 -0.05 0.059993273 11649.336
0.30234357 -0.05 0.060004087 11670.013
