# p  FACE_DATA 600
# x y z  p
0.29893883 -0.05 -0.060006728 21694.942
0.29682219 -0.05 -0.060005155 21691.84
0.29471691 -0.05 -0.060001576 21690.174
0.29262294 -0.05 -0.05999591 21688.661
0.29054021 -0.05 -0.059988277 21686.814
0.28846868 -0.05 -0.059978645 21686.218
0.28640827 -0.05 -0.059967019 21684.798
0.28435895 -0.05 -0.059953476 21684.126
0.28232063 -0.05 -0.05993795 21683.821
0.28029328 -0.05 -0.059920485 21683.499
0.27827682 -0.05 -0.059901123 21683.329
0.27627121 -0.05 -0.059879855 21683.551
0.27427639 -0.05 -0.05985667 21684.121
0.2722923 -0.05 -0.059831621 21684.603
0.27031889 -0.05 -0.059804697 21685.888
0.26835611 -0.05 -0.05977592 21686.732
0.26640388 -0.05 -0.059745343 21687.933
0.26446217 -0.05 -0.059712935 21689.428
0.26253092 -0.05 -0.059678711 21691.129
0.26061007 -0.05 -0.059642689 21693.174
0.25869958 -0.05 -0.059604861 21695.575
0.25679938 -0.05 -0.059565286 21697.742
0.25490942 -0.05 -0.05952394 21700.954
0.25302965 -0.05 -0.059480842 21703.541
0.25116001 -0.05 -0.059436049 21706.608
0.24930047 -0.05 -0.059389521 21709.971
0.24745095 -0.05 -0.059341283 21713.597
0.24561141 -0.05 -0.059291325 21717.884
0.24378182 -0.05 -0.05923967 21722.085
0.24196209 -0.05 -0.059186367 21726.417
0.24015219 -0.05 -0.059131421 21730.92
0.23835206 -0.05 -0.059074821 21735.756
0.23656166 -0.05 -0.059016618 21740.34
0.23478094 -0.05 -0.058956769 21746.388
0.23300984 -0.05 -0.05889526 21751.772
0.23124831 -0.05 -0.05883224 21756.764
0.22949632 -0.05 -0.058767617 21763.476
0.22775381 -0.05 -0.058701363 21769.755
0.22602072 -0.05 -0.058633589 21776.095
0.22429701 -0.05 -0.058564274 21782.68
0.22258262 -0.05 -0.058493448 21789.165
0.22087752 -0.05 -0.058421069 21797.06
0.21918166 -0.05 -0.058347133 21804.494
0.21749499 -0.05 -0.058271732 21811.991
0.21581745 -0.05 -0.058194856 21819.694
0.21414901 -0.05 -0.058116493 21827.84
0.21248962 -0.05 -0.058036649 21836.22
0.21083923 -0.05 -0.057955337 21844.963
0.20919779 -0.05 -0.057872577 21853.679
0.20756526 -0.05 -0.057788393 21862.737
0.20594158 -0.05 -0.057702763 21872.349
0.20432674 -0.05 -0.057615707 21881.83
0.20272065 -0.05 -0.057527278 21891.211
0.20112329 -0.05 -0.057437457 21901.25
0.19953461 -0.05 -0.05734625 21911.504
0.19795458 -0.05 -0.057253621 21922.803
0.19638314 -0.05 -0.057159665 21932.612
0.19482023 -0.05 -0.05706438 21944.167
0.19326583 -0.05 -0.056967732 21954.921
0.19171991 -0.05 -0.05686975 21966.708
0.19018239 -0.05 -0.056770463 21977.551
0.18865324 -0.05 -0.056669846 21990.252
0.18713243 -0.05 -0.056567899 22001.894
0.18561991 -0.05 -0.056464666 22014.911
0.18411564 -0.05 -0.056360132 22027.415
0.18261956 -0.05 -0.056254317 22040.829
0.18113166 -0.05 -0.056147258 22053.042
0.17965186 -0.05 -0.056038987 22066.334
0.17818015 -0.05 -0.05592942 22080.233
0.17671648 -0.05 -0.055818588 22094.098
0.1752608 -0.05 -0.05570656 22107.68
0.17381308 -0.05 -0.055593324 22122.095
0.17237329 -0.05 -0.055478844 22136.671
0.17094135 -0.05 -0.055363199 22150.801
0.16951726 -0.05 -0.055246341 22166.577
0.16810096 -0.05 -0.055128258 22181.568
0.16669242 -0.05 -0.05500905 22196.723
0.16529159 -0.05 -0.054888659 22212.851
0.16389844 -0.05 -0.054767078 22228.881
0.16251293 -0.05 -0.054644372 22244.717
0.16113501 -0.05 -0.054520532 22261.003
0.15976465 -0.05 -0.054395554 22277.276
0.15840181 -0.05 -0.054269449 22294.346
0.15704647 -0.05 -0.054142171 22312.174
0.15569856 -0.05 -0.05401378 22329.179
0.15435807 -0.05 -0.053884336 22346.276
0.15302494 -0.05 -0.053753791 22363.8
0.15169915 -0.05 -0.053622161 22381.419
0.15038066 -0.05 -0.053489407 22400.47
0.14906942 -0.05 -0.053355551 22418.735
0.1477654 -0.05 -0.053220679 22437.317
0.14646858 -0.05 -0.053084715 22457.017
0.1451789 -0.05 -0.052947683 22475.887
0.14389634 -0.05 -0.052809659 22494.832
0.14262085 -0.05 -0.05267058 22514.884
0.14135242 -0.05 -0.052530426 22535.223
0.14009099 -0.05 -0.052389231 22555.74
0.13883653 -0.05 -0.052247037 22575.897
0.137589 -0.05 -0.052103837 22596.712
0.13634838 -0.05 -0.051959625 22617.019
0.13511461 -0.05 -0.051814476 22637.521
0.1338877 -0.05 -0.051668228 22660.978
0.13266759 -0.05 -0.051520967 22681.039
0.13145422 -0.05 -0.051372868 22701.966
0.13024759 -0.05 -0.051223701 22725.309
0.12904768 -0.05 -0.051073498 22747.399
0.12785442 -0.05 -0.050922382 22769.68
0.12666779 -0.05 -0.050770304 22792.668
0.12548777 -0.05 -0.050617245 22816.289
0.12431431 -0.05 -0.050463216 22839.536
0.12314738 -0.05 -0.050308326 22861.521
0.12198694 -0.05 -0.050152493 22886.297
0.12083298 -0.05 -0.049995623 22910.955
0.11968546 -0.05 -0.049837846 22934.959
0.11854435 -0.05 -0.049679177 22959.419
0.11740961 -0.05 -0.049519574 22984.38
0.11628121 -0.05 -0.049359037 23009.757
0.11515913 -0.05 -0.049197589 23035.172
0.11404333 -0.05 -0.049035234 23060.906
0.11293377 -0.05 -0.048871989 23086.371
0.11183042 -0.05 -0.048707847 23112.274
0.11073327 -0.05 -0.048542821 23137.999
0.10964229 -0.05 -0.048376866 23165.385
0.10855744 -0.05 -0.048209982 23192.11
0.10747868 -0.05 -0.048042235 23219.259
0.106406 -0.05 -0.04787359 23246.988
0.10533935 -0.05 -0.047704062 23274.934
0.10427873 -0.05 -0.047533647 23303.348
0.10322407 -0.05 -0.047362394 23330.613
0.10217536 -0.05 -0.04719032 23358.812
0.10113259 -0.05 -0.047017348 23388.197
0.10009572 -0.05 -0.046843455 23418.432
0.099064719 -0.05 -0.046668685 23447.889
0.098039551 -0.05 -0.046493118 23476.51
0.097020189 -0.05 -0.046316733 23506.038
0.096006622 -0.05 -0.046139442 23537.104
0.094998822 -0.05 -0.045961241 23568.18
0.09399675 -0.05 -0.045782217 23598.539
0.093000378 -0.05 -0.045602371 23629.616
0.092009685 -0.05 -0.045421665 23660.948
0.091024643 -0.05 -0.045240119 23692.63
0.090045231 -0.05 -0.045057701 23725.426
0.089071419 -0.05 -0.044874427 23757.598
0.088103174 -0.05 -0.044690349 23789.937
0.087140475 -0.05 -0.044505439 23822.76
0.086183302 -0.05 -0.044319662 23856.417
0.08523163 -0.05 -0.044133032 23889.954
0.084285425 -0.05 -0.043945577 23923.677
0.083344663 -0.05 -0.043757308 23957.634
0.082409325 -0.05 -0.043568191 23992.919
0.081479395 -0.05 -0.04337819 24028.416
0.080554831 -0.05 -0.043187382 24062.9
0.079635606 -0.05 -0.042995792 24098.18
0.078721718 -0.05 -0.042803304 24135.054
0.077813136 -0.05 -0.042609969 24170.805
0.076909826 -0.05 -0.042415818 24208.067
0.07601178 -0.05 -0.042220793 24245.527
0.075118966 -0.05 -0.042024932 24283.136
0.074231361 -0.05 -0.041828237 24320.699
0.073348935 -0.05 -0.04163074 24358.198
0.07247168 -0.05 -0.041432371 24397.475
0.071599572 -0.05 -0.041233139 24435.879
0.070732584 -0.05 -0.041033074 24475.458
0.069870697 -0.05 -0.040832148 24514.705
0.069013884 -0.05 -0.040630397 24554.617
0.068162134 -0.05 -0.040427777 24595.264
0.067315419 -0.05 -0.040224307 24635.904
0.06647372 -0.05 -0.040019973 24677.926
0.065637027 -0.05 -0.039814748 24720.304
0.06480531 -0.05 -0.039608654 24763.032
0.063978543 -0.05 -0.039401719 24805.25
0.063156706 -0.05 -0.039193946 24848.06
0.062339788 -0.05 -0.038985285 24891.449
0.061527775 -0.05 -0.038775725 24935.578
0.060720649 -0.05 -0.038565255 24980.429
0.059918385 -0.05 -0.038353894 25025.556
0.059120963 -0.05 -0.03814165 25071.287
0.058328367 -0.05 -0.037928504 25117.449
0.057540574 -0.05 -0.037714473 25163.336
0.056757564 -0.05 -0.037499568 25209.681
0.055979326 -0.05 -0.037283751 25257.297
0.055205861 -0.05 -0.03706696 25306.529
0.054437143 -0.05 -0.036849222 25355.425
0.053673142 -0.05 -0.036630582 25404.587
0.052913841 -0.05 -0.036411033 25453.766
0.052159229 -0.05 -0.036190552 25504.277
0.051409301 -0.05 -0.035969101 25555.819
0.050664044 -0.05 -0.035746666 25607.812
0.049923426 -0.05 -0.035523297 25659.388
0.049187444 -0.05 -0.035298949 25712.891
0.048456093 -0.05 -0.035073588 25766.002
0.047729343 -0.05 -0.034847258 25819.63
0.047007184 -0.05 -0.034619944 25873.848
0.046289611 -0.05 -0.034391604 25929.534
0.045576607 -0.05 -0.034162251 25985.115
0.044868158 -0.05 -0.033931882 26042.038
0.044164259 -0.05 -0.033700464 26099.112
0.043464894 -0.05 -0.033468005 26157.018
0.042770054 -0.05 -0.033234488 26215.438
0.042079734 -0.05 -0.032999885 26275.362
0.041393929 -0.05 -0.032764174 26335.951
0.040712625 -0.05 -0.032527361 26397.103
0.040035798 -0.05 -0.032289471 26458.032
0.039363443 -0.05 -0.032050489 26520.292
0.038695563 -0.05 -0.031810365 26583.923
0.038032168 -0.05 -0.031569045 26649.26
0.037373226 -0.05 -0.031326581 26713.929
0.036718733 -0.05 -0.03108296 26780.244
0.036068678 -0.05 -0.030838173 26845.967
0.035423063 -0.05 -0.030592193 26914.876
0.034781926 -0.05 -0.030344894 26984.75
0.034145213 -0.05 -0.030096392 27053.77
0.033512917 -0.05 -0.029846677 27124.774
0.032885063 -0.05 -0.029595666 27196.826
0.032261651 -0.05 -0.029343341 27270.607
0.031642676 -0.05 -0.029089692 27344.541
0.031028119 -0.05 -0.028834753 27418.899
0.030417981 -0.05 -0.028578493 27494.926
0.029812303 -0.05 -0.028320809 27573.469
0.029211079 -0.05 -0.028061701 27652.016
0.028614285 -0.05 -0.027801211 27731.144
0.028021925 -0.05 -0.027539318 27811.26
0.027434034 -0.05 -0.027275938 27893.81
0.02685062 -0.05 -0.027011044 27976.523
0.026271654 -0.05 -0.026744689 28060.31
0.025697179 -0.05 -0.02647678 28146.483
0.025127212 -0.05 -0.026207275 28233.121
0.024561729 -0.05 -0.025936225 28320.419
0.024000753 -0.05 -0.025663583 28409.881
0.023444337 -0.05 -0.025389243 28501.221
0.022892447 -0.05 -0.025113275 28592.931
0.022345135 -0.05 -0.024835581 28688.879
0.02180243 -0.05 -0.024556113 28784.488
0.021264293 -0.05 -0.024274957 28882.408
0.020730799 -0.05 -0.023991978 28983.283
0.020201992 -0.05 -0.023707109 29085.798
0.019677841 -0.05 -0.023420417 29188.818
0.019158403 -0.05 -0.023131824 29295.174
0.018643727 -0.05 -0.022841258 29402.537
0.018133826 -0.05 -0.022548716 29512.142
0.017628739 -0.05 -0.022254151 29622.528
0.017128472 -0.05 -0.021957583 29734.859
0.016633127 -0.05 -0.021658866 29850.617
0.016142724 -0.05 -0.021358 29966.56
0.015657283 -0.05 -0.021054987 30085.22
0.015176888 -0.05 -0.020749728 30205.302
0.014701579 -0.05 -0.020442197 30327.393
0.014231398 -0.05 -0.020132368 30451.011
0.013766434 -0.05 -0.019820157 30577.642
0.013306742 -0.05 -0.019505528 30705.297
0.012852374 -0.05 -0.019188457 30835.829
0.012403438 -0.05 -0.018868841 30968.313
0.01195997 -0.05 -0.018546687 31102.487
0.011522076 -0.05 -0.018221915 31239.163
0.011089809 -0.05 -0.017894515 31377.02
0.0106633 -0.05 -0.017564386 31518.463
0.010242659 -0.05 -0.017231451 31660.307
0.009827894 -0.05 -0.016895788 31803.577
0.0094192167 -0.05 -0.016557218 31949.936
0.0090167438 -0.05 -0.016215673 32096.473
0.0086204858 -0.05 -0.015871238 32245.239
0.0082306648 -0.05 -0.015523765 32397.046
0.0078474301 -0.05 -0.015173186 32549.406
0.00747084 -0.05 -0.014819531 32702.588
0.0071010571 -0.05 -0.014462741 32856.741
0.0067383047 -0.05 -0.014102728 33012.493
0.0063827544 -0.05 -0.013739427 33169.072
0.0060345067 -0.05 -0.013372862 33325.537
0.0056937565 -0.05 -0.013003011 33481.82
0.0053606882 -0.05 -0.012629837 33637.148
0.0050354824 -0.05 -0.012253323 33791.41
0.0047183926 -0.05 -0.01187344 33944.332
0.0044096379 -0.05 -0.011490161 34095.194
0.0041094132 -0.05 -0.011103483 34243.294
0.0038179536 -0.05 -0.010713443 34387.911
0.0035354728 -0.05 -0.01032007 34528.172
0.0032621919 -0.05 -0.0099233916 34663.207
0.0029983702 -0.05 -0.0095234712 34792.255
0.0027442429 -0.05 -0.0091203468 34914.401
0.0025000604 -0.05 -0.0087141009 35028.656
0.0022660754 -0.05 -0.0083048554 35134.057
0.0020425146 -0.05 -0.0078926699 35229.455
0.0018296563 -0.05 -0.0074776735 35312.957
0.0016277487 -0.05 -0.0070600556 35382.518
0.0014369745 -0.05 -0.006639968 35438.61
0.0012575291 -0.05 -0.0062175973 35482.489
0.0010896146 -0.05 -0.0057931737 35510.785
0.00093341057 -0.05 -0.0053669215 35521.737
0.00078906403 -0.05 -0.0049390744 35515.476
0.00065670868 -0.05 -0.0045099017 35491.026
0.00053653171 -0.05 -0.0040796665 35449.035
0.00042862038 -0.05 -0.003648665 35390.22
0.00033294635 -0.05 -0.003217232 35310.922
0.00024951873 -0.05 -0.002785685 35210.145
0.00017832255 -0.05 -0.0023543467 35089.538
0.00011930806 -0.05 -0.0019235435 34948.935
7.2389968e-05 -0.05 -0.0014936046 34788.24
3.7448893e-05 -0.05 -0.0010648563 34608.213
1.4332163e-05 -0.05 -0.0006376208 34410.361
2.8544133e-06 -0.05 -0.00021221054 34194.937
0.99884037 -0.05 -0.00016828408 26480.519
0.99652103 -0.05 -0.00050440213 26423.478
0.99420154 -0.05 -0.00083952039 26352.524
0.99188191 -0.05 -0.0011736208 26293.492
0.98956214 -0.05 -0.0015067636 26235.583
0.98724224 -0.05 -0.001838948 26181.369
0.9849222 -0.05 -0.0021701637 26129.244
0.98260201 -0.05 -0.0025004302 26079.116
0.9802817 -0.05 -0.0028297328 26030.906
0.97796124 -0.05 -0.0031580577 25984.189
0.97564065 -0.05 -0.0034854377 25938.951
0.97331994 -0.05 -0.0038118591 25895.071
0.97099908 -0.05 -0.0041373159 25852.469
0.96867808 -0.05 -0.0044618578 25810.849
0.96635697 -0.05 -0.0047854478 25770.607
0.96403572 -0.05 -0.0051081172 25730.923
0.96171435 -0.05 -0.0054299032 25692.437
0.95939284 -0.05 -0.0057507069 25654.985
0.95707121 -0.05 -0.0060705875 25618.171
0.95474946 -0.05 -0.0063895914 25582.23
0.95242757 -0.05 -0.0067076389 25547.319
0.95010556 -0.05 -0.0070248024 25512.614
0.94778343 -0.05 -0.0073411104 25478.921
0.94546118 -0.05 -0.0076564368 25446.138
0.9431388 -0.05 -0.0079708659 25413.632
0.94081631 -0.05 -0.0082844406 25381.898
0.93849369 -0.05 -0.0085971026 25350.83
0.93617096 -0.05 -0.0089088655 25320.31
0.93384811 -0.05 -0.0092197818 25290.103
0.93152514 -0.05 -0.0095298292 25260.654
0.92920204 -0.05 -0.00983897 25231.678
0.92687884 -0.05 -0.010147248 25203.143
0.92455553 -0.05 -0.01045465 25175.153
0.92223209 -0.05 -0.01076119 25147.467
0.91990855 -0.05 -0.011066875 25120.399
0.91758488 -0.05 -0.011371653 25093.92
0.91526111 -0.05 -0.011675608 25067.323
0.91293723 -0.05 -0.011978761 25041.388
0.91061324 -0.05 -0.012281 25016.082
0.90828913 -0.05 -0.012582372 24990.86
0.90596492 -0.05 -0.012882964 24965.831
0.90364059 -0.05 -0.013182677 24941.784
0.90131615 -0.05 -0.013481494 24917.712
0.89899162 -0.05 -0.013779572 24893.47
0.89666698 -0.05 -0.014076841 24870.122
0.89434223 -0.05 -0.014373142 24847.459
0.89201737 -0.05 -0.01466868 24823.963
0.88969241 -0.05 -0.014963453 24801.65
0.88736734 -0.05 -0.0152573 24779.537
0.88504217 -0.05 -0.015550344 24757.401
0.88271689 -0.05 -0.015842646 24735.321
0.88039152 -0.05 -0.016134071 24714.308
0.87806604 -0.05 -0.016424635 24692.934
0.87574046 -0.05 -0.016714466 24671.82
0.87341478 -0.05 -0.017003468 24651.165
0.871089 -0.05 -0.017291665 24630.471
0.86876312 -0.05 -0.017579058 24610.271
0.86643714 -0.05 -0.017865646 24590.002
0.86411107 -0.05 -0.018151445 24570.212
0.86178489 -0.05 -0.018436407 24550.599
0.85945862 -0.05 -0.018720606 24530.836
0.85713225 -0.05 -0.019004019 24511.68
0.85480578 -0.05 -0.019286574 24492.841
0.85247922 -0.05 -0.019568356 24473.754
0.85015256 -0.05 -0.019849417 24454.804
0.84782581 -0.05 -0.020129657 24436.468
0.84549896 -0.05 -0.020409081 24417.946
0.84317202 -0.05 -0.020687756 24399.553
0.84084499 -0.05 -0.020965643 24381.535
0.83851785 -0.05 -0.021242672 24364.082
0.83619063 -0.05 -0.021518954 24345.941
0.83386332 -0.05 -0.021794529 24328.311
0.83153592 -0.05 -0.022069294 24310.86
0.82920841 -0.05 -0.022343258 24293.617
0.82688083 -0.05 -0.02261648 24276.081
0.82455315 -0.05 -0.022888925 24259.185
0.82222538 -0.05 -0.023160547 24242.353
0.81989751 -0.05 -0.023431389 24225.721
0.81756957 -0.05 -0.023701495 24208.858
0.81524153 -0.05 -0.023970846 24192.422
0.8129134 -0.05 -0.024239417 24175.893
0.81058518 -0.05 -0.02450723 24159.605
0.80825687 -0.05 -0.024774259 24143.453
0.80592849 -0.05 -0.02504053 24127.319
0.8036 -0.05 -0.025306023 24111.459
0.80127144 -0.05 -0.025570775 24095.258
0.79894279 -0.05 -0.025834763 24079.714
0.79661404 -0.05 -0.026097924 24064.148
0.79428522 -0.05 -0.026360374 24048.289
0.79195631 -0.05 -0.026622048 24033.178
0.78962731 -0.05 -0.026882938 24017.606
0.78729823 -0.05 -0.027143126 24002.245
0.78496906 -0.05 -0.027402516 23987.191
0.78263981 -0.05 -0.02766117 23971.645
0.78031048 -0.05 -0.027919081 23956.782
0.77798106 -0.05 -0.028176144 23942.097
0.77565155 -0.05 -0.028432494 23926.822
0.77332196 -0.05 -0.028688107 23912.254
0.77099228 -0.05 -0.028942907 23897.556
0.76866253 -0.05 -0.029196968 23882.838
0.7663327 -0.05 -0.029450285 23868.193
0.76400278 -0.05 -0.029702803 23853.929
0.76167277 -0.05 -0.029954568 23839.294
0.75934268 -0.05 -0.030205572 23825.232
0.75701251 -0.05 -0.030455803 23810.781
0.75468227 -0.05 -0.030705313 23796.481
0.75235194 -0.05 -0.030954045 23782.303
0.75002152 -0.05 -0.031202018 23768.068
0.74769103 -0.05 -0.031449207 23754.198
0.74536045 -0.05 -0.031695625 23740.068
0.74302979 -0.05 -0.031941289 23726.181
0.74069906 -0.05 -0.032186181 23712.21
0.73836824 -0.05 -0.032430305 23698.5
0.73603734 -0.05 -0.032673645 23684.807
0.73370637 -0.05 -0.032916233 23670.921
0.73137531 -0.05 -0.033158092 23657.003
0.72904417 -0.05 -0.033399148 23643.678
0.72671295 -0.05 -0.033639378 23630.226
0.72438166 -0.05 -0.03387888 23616.377
0.72205028 -0.05 -0.034117645 23602.85
0.71971882 -0.05 -0.034355552 23589.874
0.71738728 -0.05 -0.034592685 23576.142
0.71505567 -0.05 -0.034829099 23562.823
0.71272397 -0.05 -0.035064674 23549.757
0.71039219 -0.05 -0.035299486 23536.2
0.70806035 -0.05 -0.035533544 23523.111
0.70572841 -0.05 -0.035766778 23509.978
0.70339641 -0.05 -0.035999269 23496.509
0.70106432 -0.05 -0.03623098 23483.396
0.69873216 -0.05 -0.036461891 23470.06
0.69639992 -0.05 -0.036691978 23457.223
0.69406759 -0.05 -0.036921269 23443.949
0.69173519 -0.05 -0.037149739 23431.523
0.68940271 -0.05 -0.037377398 23418.331
0.68707015 -0.05 -0.037604327 23405.219
0.68473751 -0.05 -0.037830471 23392.059
0.68240481 -0.05 -0.038055756 23379.548
0.68007201 -0.05 -0.038280206 23366.628
0.67773914 -0.05 -0.038503859 23354.017
0.67540619 -0.05 -0.03872673 23340.889
0.67307317 -0.05 -0.038948784 23328.349
0.67074007 -0.05 -0.039170028 23315.138
0.66840689 -0.05 -0.039390456 23302.643
0.66607364 -0.05 -0.039610024 23289.797
0.6637403 -0.05 -0.039828774 23277.286
0.66140688 -0.05 -0.040046678 23264.588
0.65907339 -0.05 -0.040263799 23251.604
0.65673983 -0.05 -0.040480085 23239.111
0.65440619 -0.05 -0.040695489 23226.55
0.65207246 -0.05 -0.040910082 23213.746
0.64973866 -0.05 -0.041123838 23201.191
0.64740479 -0.05 -0.04133674 23188.461
0.64507083 -0.05 -0.041548788 23176.034
0.6427368 -0.05 -0.04175995 23163.628
0.64040268 -0.05 -0.041970278 23150.934
0.6380685 -0.05 -0.042179754 23138.526
0.63573424 -0.05 -0.042388356 23125.935
0.63339989 -0.05 -0.042596094 23113.526
0.63106547 -0.05 -0.042802945 23101.06
0.62873098 -0.05 -0.043008941 23088.431
0.6263964 -0.05 -0.043214055 23076.09
0.62406175 -0.05 -0.043418269 23063.676
0.62172701 -0.05 -0.043621601 23051.221
0.61939221 -0.05 -0.043824069 23038.518
0.61705733 -0.05 -0.044025645 23026.199
0.61472237 -0.05 -0.044226271 23014.047
0.61238733 -0.05 -0.044426006 23001.442
0.61005222 -0.05 -0.04462488 22988.843
0.60771702 -0.05 -0.044822825 22976.549
0.60538174 -0.05 -0.045019806 22964.443
0.6030464 -0.05 -0.045215861 22952.129
0.60071097 -0.05 -0.045411024 22939.755
0.59837546 -0.05 -0.045605254 22927.564
0.59603988 -0.05 -0.045798556 22915.053
0.59370422 -0.05 -0.045990938 22902.664
0.59136849 -0.05 -0.046182352 22890.437
0.58903267 -0.05 -0.046372791 22878.307
0.58669678 -0.05 -0.046562266 22866.071
0.5843608 -0.05 -0.046750814 22853.567
0.58202475 -0.05 -0.046938396 22841.499
0.57968862 -0.05 -0.047124972 22829.403
0.57735242 -0.05 -0.047310578 22817.116
0.57501614 -0.05 -0.04749525 22804.532
0.57267978 -0.05 -0.047678924 22792.588
0.57034334 -0.05 -0.04786155 22780.614
0.56800682 -0.05 -0.048043188 22768.44
0.56567024 -0.05 -0.048223861 22756.029
0.56333356 -0.05 -0.048403536 22743.92
0.56099681 -0.05 -0.048582153 22732.088
0.55865998 -0.05 -0.04875972 22720.114
0.55632308 -0.05 -0.048936314 22707.612
0.55398609 -0.05 -0.049111879 22695.729
0.55164903 -0.05 -0.049286359 22683.647
0.54931189 -0.05 -0.049459794 22671.677
0.54697467 -0.05 -0.049632163 22659.779
0.54463737 -0.05 -0.049803468 22647.867
0.5423 -0.05 -0.049973718 22635.84
0.53996254 -0.05 -0.050142913 22623.778
0.53762502 -0.05 -0.050311035 22611.781
0.53528741 -0.05 -0.050478054 22599.998
0.53294972 -0.05 -0.050643972 22588.02
0.53061196 -0.05 -0.050808824 22575.877
0.52827412 -0.05 -0.050972558 22564.132
0.5259362 -0.05 -0.051135143 22552.322
0.5235982 -0.05 -0.051296612 22540.539
0.52126012 -0.05 -0.051456922 22529.012
0.51892198 -0.05 -0.051616121 22516.918
0.51658374 -0.05 -0.051774162 22505.623
0.51424543 -0.05 -0.051931037 22493.553
0.51190704 -0.05 -0.05208678 22482.009
0.50956857 -0.05 -0.052241321 22470.437
0.50723003 -0.05 -0.052394685 22458.823
0.50489141 -0.05 -0.052546885 22447.006
0.50255271 -0.05 -0.05269791 22435.328
0.50021394 -0.05 -0.052847701 22423.956
0.49787509 -0.05 -0.052996281 22412.257
0.49553616 -0.05 -0.053143654 22400.758
0.49319715 -0.05 -0.053289801 22389.083
0.49085807 -0.05 -0.053434697 22377.848
0.48851891 -0.05 -0.05357832 22366.574
0.48617967 -0.05 -0.053720679 22355.443
0.48384035 -0.05 -0.053861795 22343.901
0.48150097 -0.05 -0.054001669 22332.523
0.4791615 -0.05 -0.054140241 22321.307
0.47682195 -0.05 -0.054277501 22310.181
0.47448234 -0.05 -0.054413462 22299.015
0.47214264 -0.05 -0.054548109 22287.973
0.46980287 -0.05 -0.054681459 22276.548
0.46746302 -0.05 -0.054813494 22265.43
0.4651231 -0.05 -0.054944178 22254.224
0.46278311 -0.05 -0.055073496 22243.339
0.46044304 -0.05 -0.055201437 22232.375
0.45810288 -0.05 -0.055328007 22221.551
0.45576266 -0.05 -0.055453195 22210.678
0.45342237 -0.05 -0.055576996 22199.949
0.451082 -0.05 -0.05569938 22189.326
0.44874156 -0.05 -0.055820362 22178.452
0.44640104 -0.05 -0.055939944 22167.783
0.44406046 -0.05 -0.056058045 22157.554
0.44171979 -0.05 -0.056174717 22146.534
0.43937906 -0.05 -0.05628996 22136.159
0.43703826 -0.05 -0.056403696 22125.673
0.43469738 -0.05 -0.056515954 22115.366
0.43235643 -0.05 -0.056626691 22105.32
0.43001541 -0.05 -0.056735938 22094.798
0.42767432 -0.05 -0.056843696 22084.534
0.42533316 -0.05 -0.056949929 22074.22
0.42299193 -0.05 -0.057054582 22064.611
0.42065064 -0.05 -0.05715767 22054.415
0.41830927 -0.05 -0.057259223 22044.545
0.41596783 -0.05 -0.057359191 22034.629
0.41362634 -0.05 -0.057457551 22025.162
0.41128476 -0.05 -0.057554292 22015.495
0.40894313 -0.05 -0.057649427 22005.888
0.40660142 -0.05 -0.057742965 21995.986
0.40425966 -0.05 -0.057834838 21986.894
0.40191783 -0.05 -0.057925023 21977.402
0.39957593 -0.05 -0.058013541 21968.298
0.39723398 -0.05 -0.058100379 21958.832
0.39489196 -0.05 -0.058185525 21949.887
0.39254988 -0.05 -0.058268918 21941.05
0.39020774 -0.05 -0.05835059 21932.016
0.38786553 -0.05 -0.058430541 21923.152
0.38552326 -0.05 -0.058508715 21914.631
0.38318094 -0.05 -0.058585094 21906.179
0.38083857 -0.05 -0.058659688 21897.718
0.37849613 -0.05 -0.058732482 21889.289
0.37615364 -0.05 -0.058803471 21880.825
0.37381109 -0.05 -0.058872605 21872.948
0.37146848 -0.05 -0.058939856 21865.034
0.36912583 -0.05 -0.059005237 21857.301
0.36678312 -0.05 -0.059068742 21849.447
0.36444037 -0.05 -0.059130354 21841.817
0.36209757 -0.05 -0.059190049 21834.067
0.35975471 -0.05 -0.059247824 21826.598
0.35741181 -0.05 -0.059303603 21819.703
0.35506886 -0.05 -0.059357402 21812.488
0.35272586 -0.05 -0.059409225 21805.68
0.35038283 -0.05 -0.059459044 21798.618
0.34803975 -0.05 -0.059506859 21791.952
0.34569662 -0.05 -0.059552581 21785.78
0.34335347 -0.05 -0.059596249 21779.054
0.34101027 -0.05 -0.059637862 21772.964
0.33866703 -0.05 -0.059677333 21767.051
0.33632377 -0.05 -0.059714702 21761.041
0.33398046 -0.05 -0.059749909 21755.797
0.33163712 -0.05 -0.059782951 21749.927
0.32929376 -0.05 -0.059813858 21744.436
0.32695037 -0.05 -0.059842535 21739.437
0.32460696 -0.05 -0.059868969 21734.587
0.32226351 -0.05 -0.059893141 21730.122
0.31992004 -0.05 -0.059915067 21725.29
0.31757656 -0.05 -0.059934727 21720.97
0.31523306 -0.05 -0.059952066 21716.775
0.31288954 -0.05 -0.059967055 21713.187
0.31054601 -0.05 -0.059979678 21709.526
0.30820246 -0.05 -0.059989926 21706.014
0.30585891 -0.05 -0.059997792 21701.916
0.30351535 -0.05 -0.060003209 21698.762
0.30117179 -0.05 -0.060006157 21696.212
