# p  FACE_DATA 300
# x y z  p
0.29787915 -0.05 0.060005454 12010.464
0.29366024 -0.05 0.059998184 12027.492
0.28948669 -0.05 0.059982824 12046.541
0.28535801 -0.05 0.05995956 12065.468
0.28127374 -0.05 0.05992843 12085.555
0.27723342 -0.05 0.059889544 12105.562
0.27323659 -0.05 0.059843055 12126.213
0.2692828 -0.05 0.059789027 12147.266
0.26537161 -0.05 0.059727601 12168.322
0.26150257 -0.05 0.05965892 12189.865
0.25767524 -0.05 0.059583046 12212.038
0.2538892 -0.05 0.059500074 12234.687
0.25014401 -0.05 0.059410118 12257.729
0.24643926 -0.05 0.059313284 12281.127
0.24277452 -0.05 0.059209674 12304.883
0.23914938 -0.05 0.059099387 12328.985
0.23556344 -0.05 0.058982537 12353.211
0.23201627 -0.05 0.058859254 12377.738
0.2285075 -0.05 0.058729541 12403.288
0.22503671 -0.05 0.058593532 12428.313
0.22160352 -0.05 0.058451379 12454.204
0.21820754 -0.05 0.058303115 12480.342
0.21484838 -0.05 0.058148846 12506.892
0.21152567 -0.05 0.05798866 12533.732
0.20823903 -0.05 0.057822651 12561.007
0.20498809 -0.05 0.057650874 12588.796
0.20177248 -0.05 0.057473468 12616.335
0.19859184 -0.05 0.057290478 12645.034
0.1954458 -0.05 0.057101994 12673.021
0.19233402 -0.05 0.056908168 12701.707
0.18925614 -0.05 0.056708999 12730.906
0.18621181 -0.05 0.056504563 12760.447
0.1832007 -0.05 0.056294919 12790.387
0.18022246 -0.05 0.05608023 12819.802
0.17727675 -0.05 0.055860526 12850.709
0.17436324 -0.05 0.055635849 12880.895
0.1714816 -0.05 0.055406376 12911.535
0.16863151 -0.05 0.055172052 12943.379
0.16581265 -0.05 0.054932944 12974.934
0.16302469 -0.05 0.054689208 13007.032
0.16026733 -0.05 0.054440898 13039.634
0.15754024 -0.05 0.054188056 13072.801
0.15484313 -0.05 0.053930725 13106.169
0.15217569 -0.05 0.053668978 13139.725
0.14953762 -0.05 0.053402889 13173.682
0.14692863 -0.05 0.053132457 13208.37
0.14434842 -0.05 0.052857799 13242.199
0.14179669 -0.05 0.052579044 13276.98
0.13927317 -0.05 0.05229612 13313.265
0.13677757 -0.05 0.052009061 13349.641
0.13430961 -0.05 0.051717985 13386.095
0.13186901 -0.05 0.051422994 13422.482
0.1294555 -0.05 0.05112408 13460.324
0.12706881 -0.05 0.050821224 13498.554
0.12470868 -0.05 0.050514504 13536.98
0.12237483 -0.05 0.05020403 13575.109
0.12006701 -0.05 0.049889836 13614.4
0.11778495 -0.05 0.049571874 13654.159
0.11552842 -0.05 0.049250263 13693.591
0.11329715 -0.05 0.048924992 13734.697
0.1110909 -0.05 0.048596121 13775.213
0.10890943 -0.05 0.048263656 13818.238
0.10675251 -0.05 0.047927554 13860.707
0.10461987 -0.05 0.047587958 13903.293
0.1025113 -0.05 0.047244937 13946.246
0.10042655 -0.05 0.046898432 13991.395
0.098365405 -0.05 0.046548446 14036.27
0.096327639 -0.05 0.046195043 14082.065
0.094313028 -0.05 0.045838237 14127.97
0.092321357 -0.05 0.045478019 14175.296
0.090352417 -0.05 0.04511438 14222.452
0.088405979 -0.05 0.044747421 14270.019
0.086481845 -0.05 0.044377096 14319.14
0.084579815 -0.05 0.044003384 14368.337
0.082699669 -0.05 0.043626385 14418.218
0.080841229 -0.05 0.043246005 14470.017
0.0790043 -0.05 0.042862236 14521.104
0.077188666 -0.05 0.0424752 14572.816
0.07539416 -0.05 0.04208479 14626.5
0.073620599 -0.05 0.041690997 14680.314
0.071867788 -0.05 0.041293877 14735.808
0.070135557 -0.05 0.040893384 14792.437
0.068423743 -0.05 0.040489458 14850.202
0.066732169 -0.05 0.040082112 14907.572
0.065060663 -0.05 0.039671361 14966.496
0.063409062 -0.05 0.039257174 15026.218
0.061777219 -0.05 0.038839488 15088.114
0.060164984 -0.05 0.038418265 15150.27
0.058572196 -0.05 0.037993513 15214.006
0.056998721 -0.05 0.037565159 15278.829
0.055444419 -0.05 0.03713316 15344.578
0.053909142 -0.05 0.036697516 15411.191
0.052392764 -0.05 0.03625817 15480.878
0.050895177 -0.05 0.035815009 15552.606
0.049416244 -0.05 0.035368033 15624.464
0.047955856 -0.05 0.034917167 15696.633
0.046513915 -0.05 0.034462309 15769.352
0.045090302 -0.05 0.034003445 15845.664
0.043684931 -0.05 0.033540468 15926.654
0.042297731 -0.05 0.03307324 16010.358
0.040928604 -0.05 0.032601734 16095.909
0.039577476 -0.05 0.032125845 16185.065
0.038244291 -0.05 0.03164545 16276.283
0.036928981 -0.05 0.031160474 16370.635
0.0356315 -0.05 0.030670795 16468.292
0.03435181 -0.05 0.030176299 16572.389
0.033089918 -0.05 0.029676761 16688.073
0.031845783 -0.05 0.029172106 16812.838
0.030619394 -0.05 0.02866221 16946.139
0.029410776 -0.05 0.028146878 17085.573
0.028219949 -0.05 0.027625962 17235.769
0.027046957 -0.05 0.027099267 17392.342
0.025891857 -0.05 0.026566614 17553.144
0.02475474 -0.05 0.026027768 17718.322
0.023635681 -0.05 0.025482558 17889.25
0.022534817 -0.05 0.024930717 18066.297
0.021452274 -0.05 0.024372036 18247.347
0.020388213 -0.05 0.023806274 18434.298
0.019342865 -0.05 0.023233111 18628.247
0.018316468 -0.05 0.022652259 18835.042
0.017309264 -0.05 0.02206346 19055.685
0.016321577 -0.05 0.021466368 19290.996
0.015353757 -0.05 0.020860645 19535.091
0.014406156 -0.05 0.020245997 19790.199
0.013479274 -0.05 0.019622013 20058.834
0.012573638 -0.05 0.018988323 20345.993
0.0116898 -0.05 0.018344552 20658.848
0.010828378 -0.05 0.017690314 20998.879
0.0099901249 -0.05 0.017025149 21361.71
0.0091759198 -0.05 0.016348644 21746.932
0.008386597 -0.05 0.0156605 22155.972
0.0076231725 -0.05 0.014960218 22592.014
0.0068867853 -0.05 0.014247452 23052.507
0.0061787359 -0.05 0.013521944 23543.609
0.0055003792 -0.05 0.012783302 24065.076
0.0048530826 -0.05 0.012031363 24621.388
0.0042385571 -0.05 0.011266143 25218.086
0.0036585397 -0.05 0.010487553 25854.072
0.0031148319 -0.05 0.0096957287 26520.392
0.0026094399 -0.05 0.0088912322 27213.387
0.0021442246 -0.05 0.0080745628 27928.454
0.0017210465 -0.05 0.0072465895 28661.35
0.0013418093 -0.05 0.0064087151 29412.012
0.0010080919 -0.05 0.0055623679 30161.772
0.00072127228 -0.05 0.0047092571 30900.383
0.00048251081 -0.05 0.0038515496 31620.199
0.00029236329 -0.05 0.0029916287 32305.309
0.0001508317 -0.05 0.0021320102 32940.236
5.7495879e-05 -0.05 0.0012752716 33516.432
1.1394864e-05 -0.05 0.00042397109 34028.498
0.99768066 -0.05 0.00033611804 26711.76
0.99304169 -0.05 0.0010063364 26659.356
0.98840215 -0.05 0.0016726212 26582.843
0.98376207 -0.05 0.0023350721 26514.567
0.97912143 -0.05 0.0029936636 26444.929
0.97448026 -0.05 0.00364841 26376.946
0.96983855 -0.05 0.0042993733 26309.363
0.96519632 -0.05 0.0049465845 26242.482
0.96055356 -0.05 0.0055900577 26176.126
0.95591031 -0.05 0.0062298653 26110.261
0.95126654 -0.05 0.0068660327 26044.949
0.94662227 -0.05 0.0074985225 25980.185
0.94197753 -0.05 0.0081274235 25915.907
0.9373323 -0.05 0.008752761 25852.219
0.93268659 -0.05 0.0093745713 25789.007
0.92804042 -0.05 0.0099928964 25726.4
0.92339378 -0.05 0.010607714 25664.388
0.91874669 -0.05 0.011219031 25603.011
0.91409914 -0.05 0.011826962 25542.113
0.90945116 -0.05 0.012431486 25481.98
0.90480273 -0.05 0.013032571 25422.357
0.90015387 -0.05 0.013630361 25363.31
0.89550457 -0.05 0.014224739 25305.02
0.89085486 -0.05 0.014815813 25247.078
0.88620473 -0.05 0.01540363 25189.919
0.88155418 -0.05 0.0159881 25133.282
0.87690323 -0.05 0.016569356 25077.176
0.87225187 -0.05 0.017147383 25021.688
0.86760011 -0.05 0.017722168 24966.784
0.86294796 -0.05 0.018293719 24912.495
0.85829541 -0.05 0.018862095 24858.692
0.85364248 -0.05 0.019427289 24805.533
0.84898916 -0.05 0.01998931 24752.784
0.84433547 -0.05 0.020548224 24700.568
0.83968139 -0.05 0.021103928 24648.982
0.83502695 -0.05 0.021656533 24597.625
0.83037214 -0.05 0.022206072 24546.879
0.82571697 -0.05 0.022752481 24496.519
0.82106143 -0.05 0.023295768 24446.761
0.81640552 -0.05 0.023835961 24397.317
0.81174928 -0.05 0.024373126 24348.35
0.80709266 -0.05 0.024907211 24299.806
0.80243571 -0.05 0.025438235 24251.675
0.7977784 -0.05 0.025966147 24204.098
0.79312074 -0.05 0.026490982 24156.775
0.78846275 -0.05 0.027012845 24109.745
0.78380442 -0.05 0.027531686 24063.154
0.77914574 -0.05 0.028047403 24017.028
0.77448674 -0.05 0.028560079 23971.017
0.7698274 -0.05 0.029069753 23925.437
0.76516772 -0.05 0.02957633 23880.21
0.7605077 -0.05 0.030079852 23835.25
0.75584737 -0.05 0.030580367 23790.514
0.75118671 -0.05 0.03107785 23746.123
0.74652573 -0.05 0.031572241 23702.075
0.74186441 -0.05 0.032063551 23658.289
0.73720278 -0.05 0.032551782 23614.768
0.73254082 -0.05 0.03303698 23571.349
0.72787854 -0.05 0.033519069 23528.309
0.72321595 -0.05 0.033998064 23485.22
0.71855304 -0.05 0.034473962 23442.534
0.71388981 -0.05 0.03494667 23399.948
0.70922626 -0.05 0.035416302 23357.388
0.7045624 -0.05 0.035882849 23314.94
0.69989823 -0.05 0.036346252 23272.618
0.69523375 -0.05 0.036806454 23230.505
0.69056894 -0.05 0.037263403 23188.494
0.68590382 -0.05 0.037717206 23146.316
0.68123839 -0.05 0.038167801 23104.35
0.67657265 -0.05 0.038615123 23062.191
0.67190661 -0.05 0.039059237 23019.967
0.66724025 -0.05 0.039500049 22977.692
0.66257357 -0.05 0.039937521 22935.223
0.6579066 -0.05 0.040371712 22892.407
0.65323931 -0.05 0.040802591 22849.363
0.64857171 -0.05 0.041230085 22806.017
0.6439038 -0.05 0.041654149 22762.371
0.63923558 -0.05 0.042074786 22718.176
0.63456705 -0.05 0.042492 22673.418
0.62989822 -0.05 0.042905734 22627.964
0.62522907 -0.05 0.043315943 22581.751
0.6205596 -0.05 0.043722625 22534.569
0.61588983 -0.05 0.044125719 22486.399
0.61121975 -0.05 0.044525219 22436.887
0.60654937 -0.05 0.044921074 22386.163
0.60187867 -0.05 0.045313219 22333.858
0.59720766 -0.05 0.045701683 22279.9
0.59253634 -0.05 0.046086399 22224.081
0.58786471 -0.05 0.046467288 22166.221
0.58319277 -0.05 0.046844345 22105.964
0.57852051 -0.05 0.047217535 22043.157
0.57384795 -0.05 0.047586814 21977.393
0.56917507 -0.05 0.047952124 21908.516
0.56450189 -0.05 0.048313436 21836.08
0.55982839 -0.05 0.048670677 21759.959
0.55515457 -0.05 0.04902381 21679.639
0.55048045 -0.05 0.04937281 21595.052
0.54580601 -0.05 0.04971755 21505.831
0.54113126 -0.05 0.050058049 21411.753
0.5364562 -0.05 0.050394263 21312.577
0.53178083 -0.05 0.050726133 21207.94
0.52710515 -0.05 0.051053569 21097.514
0.52242915 -0.05 0.051376464 20981.015
0.51775284 -0.05 0.051694815 20858.218
0.51307623 -0.05 0.052008601 20728.759
0.5083993 -0.05 0.052317708 20592.4
0.50372205 -0.05 0.052622097 20449.278
0.4990445 -0.05 0.052921701 20299.882
0.49436664 -0.05 0.053216429 20144.448
0.48968848 -0.05 0.053506199 19982.555
0.48501001 -0.05 0.053790938 19813.52
0.48033122 -0.05 0.054070626 19637.165
0.47565213 -0.05 0.05434516 19453.882
0.47097274 -0.05 0.054614471 19264.474
0.46629305 -0.05 0.054878504 19070.955
0.46161306 -0.05 0.055137129 18874.331
0.45693276 -0.05 0.055390258 18674.041
0.45225217 -0.05 0.05563783 18463.576
0.44757129 -0.05 0.055879797 18225.251
0.44289011 -0.05 0.056116052 17942.582
0.43820865 -0.05 0.05634646 17594.883
0.43352689 -0.05 0.056570934 17019.188
0.42884485 -0.05 0.056789428 15978.861
0.42416254 -0.05 0.057001839 14636.203
0.41947995 -0.05 0.057208045 13437.095
0.41479707 -0.05 0.057407955 12621.644
0.41011393 -0.05 0.057601449 12180.161
0.40543053 -0.05 0.057788457 11951.061
0.40074687 -0.05 0.057968848 11848.64
0.39606296 -0.05 0.058142512 11799.354
0.3913788 -0.05 0.05830933 11779.22
0.38669439 -0.05 0.058469176 11771.885
0.38200975 -0.05 0.058621944 11770.25
0.37732488 -0.05 0.058767528 11772.754
0.37263978 -0.05 0.058905769 11779.271
0.36795448 -0.05 0.059036526 11787.639
0.36326896 -0.05 0.059159727 11797.308
0.35858325 -0.05 0.059275201 11808.094
0.35389736 -0.05 0.059382803 11819.484
0.34921128 -0.05 0.05948244 11831.48
0.34452504 -0.05 0.059573923 11844.499
0.33983865 -0.05 0.059657062 11858.078
0.33515211 -0.05 0.059731741 11872.172
0.33046544 -0.05 0.059797856 11886.684
0.32577866 -0.05 0.059855197 11902.35
0.32109177 -0.05 0.059903555 11918.448
0.31640481 -0.05 0.059942821 11935.105
0.31171778 -0.05 0.059972784 11952.12
0.30703069 -0.05 0.059993273 11969.783
0.30234357 -0.05 0.060004087 11989.892
