/*--------------------------------*- C++ -*----------------------------------*\
| =========                 |                                                 |
| \\      /  F ield         | OpenFOAM: The Open Source CFD Toolbox           |
|  \\    /   O peration     | Version:  2306                                  |
|   \\  /    A nd           | Website:  www.openfoam.com                      |
|    \\/     M anipulation  |                                                 |
\*---------------------------------------------------------------------------*/
FoamFile
{
    version     2.0;
    format      ascii;
    arch        "LSB;label=32;scalar=64";
    class       volScalarField;
    location    "825";
    object      magR;
}
// * * * * * * * * * * * * * * * * * * * * * * * * * * * * * * * * * * * * * //

dimensions      [0 2 -2 0 0 0 0];

internalField   nonuniform List<scalar> 
1340
(
59.2333
56.6214
53.5797
43.8862
1.7808
1.96131
2.36382
3.28792
0.383868
0.528938
0.633147
1.08071
0.0141603
0.0466216
0.117998
0.429371
0.000602514
0.00164767
0.00387933
0.0833058
7.61508e-05
0.000281027
0.000886807
0.00955684
8.22561e-06
1.45421e-06
0
0.00205762
2.15215e-05
1.57441e-05
1.8781e-06
0
2.84547e-05
3.05905e-05
3.3335e-05
1.39541e-06
2.39531e-05
2.36013e-05
4.00584e-05
1.90712e-05
2.42474e-05
2.41347e-05
3.43457e-05
4.31613e-05
2.24911e-05
2.27402e-05
2.92543e-05
4.69022e-05
2.16339e-05
2.19417e-05
2.69133e-05
4.29545e-05
2.04296e-05
2.06117e-05
2.49144e-05
3.86084e-05
1.93463e-05
1.94148e-05
2.30492e-05
3.48138e-05
1.81846e-05
1.81484e-05
2.11946e-05
3.13823e-05
1.70275e-05
1.68958e-05
1.94206e-05
2.82043e-05
1.5851e-05
1.56308e-05
1.77216e-05
2.52578e-05
1.46712e-05
1.43699e-05
1.60972e-05
2.25342e-05
1.34914e-05
1.31159e-05
1.4551e-05
2.00388e-05
1.23191e-05
1.18766e-05
1.3078e-05
1.77555e-05
1.11604e-05
1.066e-05
1.16807e-05
1.56771e-05
1.00228e-05
9.47161e-06
1.03593e-05
1.3796e-05
8.91405e-06
8.31947e-06
9.11244e-06
1.2097e-05
7.84109e-06
7.20887e-06
7.94389e-06
1.05733e-05
6.81182e-06
6.14596e-06
6.85442e-06
9.21186e-06
5.8342e-06
5.13619e-06
5.8472e-06
8.00447e-06
4.91678e-06
4.18372e-06
4.92528e-06
6.94125e-06
4.0692e-06
3.2926e-06
4.09431e-06
6.01464e-06
3.30403e-06
2.46616e-06
3.36195e-06
5.2184e-06
2.63868e-06
1.70566e-06
2.74024e-06
4.54651e-06
2.10007e-06
1.01357e-06
2.24623e-06
3.99399e-06
1.72684e-06
3.92788e-07
1.90151e-06
3.5549e-06
1.55456e-06
1.87398e-07
1.72064e-06
3.22127e-06
1.57412e-06
6.67235e-07
1.69026e-06
2.98153e-06
1.71998e-06
1.0922e-06
1.76627e-06
2.82069e-06
1.91929e-06
1.45601e-06
1.89709e-06
2.72109e-06
2.12418e-06
1.76119e-06
2.04381e-06
2.6647e-06
2.92144e-06
2.30978e-06
2.011e-06
2.18314e-06
2.63528e-06
2.96546e-06
2.46456e-06
2.20922e-06
2.3028e-06
2.6196e-06
2.99847e-06
2.58414e-06
2.36009e-06
2.39723e-06
2.60794e-06
3.0141e-06
2.66802e-06
2.46785e-06
2.46451e-06
2.59346e-06
3.00933e-06
2.71778e-06
2.53702e-06
2.50512e-06
2.57204e-06
2.98353e-06
2.73613e-06
2.57196e-06
2.52057e-06
2.54128e-06
2.93763e-06
2.72651e-06
2.57709e-06
2.51303e-06
2.50009e-06
2.87349e-06
2.69258e-06
2.55671e-06
2.48533e-06
2.4486e-06
2.79352e-06
2.63806e-06
2.51476e-06
2.44008e-06
2.38733e-06
2.70043e-06
2.56659e-06
2.45508e-06
2.38005e-06
2.31723e-06
2.59678e-06
2.48148e-06
2.38109e-06
2.30791e-06
2.23964e-06
2.48506e-06
2.38569e-06
2.29568e-06
2.22592e-06
2.15564e-06
2.36734e-06
2.28179e-06
2.20149e-06
2.13616e-06
2.06646e-06
2.24534e-06
2.17176e-06
2.10053e-06
2.04029e-06
1.97304e-06
2.1846e-06
2.12043e-06
2.05729e-06
1.99447e-06
1.93967e-06
1.87618e-06
2.04782e-06
1.99375e-06
1.93974e-06
1.88467e-06
1.83548e-06
1.77662e-06
1.91198e-06
1.86652e-06
1.82047e-06
1.77253e-06
1.72891e-06
1.67513e-06
1.7783e-06
1.74017e-06
1.70108e-06
1.6596e-06
1.62138e-06
1.57283e-06
1.64834e-06
1.61645e-06
1.58342e-06
1.54774e-06
1.51461e-06
1.47119e-06
1.52384e-06
1.49724e-06
1.46941e-06
1.43887e-06
1.41039e-06
1.37182e-06
1.40607e-06
1.3839e-06
1.36053e-06
1.33447e-06
1.31017e-06
1.27614e-06
1.29527e-06
1.27681e-06
1.2572e-06
1.23506e-06
1.21447e-06
1.18467e-06
1.19053e-06
1.17515e-06
1.15876e-06
1.14005e-06
1.12274e-06
1.09694e-06
1.10219e-06
1.09023e-06
1.07743e-06
1.06377e-06
1.0481e-06
1.03376e-06
1.01173e-06
1.00312e-06
9.93155e-07
9.82545e-07
9.71281e-07
9.58322e-07
9.46695e-07
9.28171e-07
9.07411e-07
8.99104e-07
8.90357e-07
8.81161e-07
8.70594e-07
8.61442e-07
8.46085e-07
8.16134e-07
8.09227e-07
8.02066e-07
7.94644e-07
7.86148e-07
7.79221e-07
7.66616e-07
7.30578e-07
7.2483e-07
7.18984e-07
7.13056e-07
7.06296e-07
7.01236e-07
6.90869e-07
6.531e-07
6.48266e-07
6.43477e-07
6.3881e-07
6.33581e-07
6.30154e-07
6.21949e-07
5.88757e-07
5.84429e-07
5.80261e-07
5.76358e-07
5.72089e-07
5.6975e-07
5.63372e-07
5.36989e-07
5.32873e-07
5.28992e-07
5.2542e-07
5.21581e-07
5.19738e-07
5.14352e-07
4.90424e-07
4.86395e-07
4.82624e-07
4.79206e-07
4.75619e-07
4.74031e-07
4.69391e-07
4.45512e-07
4.41596e-07
4.37932e-07
4.34677e-07
4.31327e-07
4.29921e-07
4.25897e-07
4.05292e-07
4.00734e-07
3.96602e-07
3.92867e-07
3.89701e-07
3.86712e-07
3.85942e-07
3.84144e-07
3.60336e-07
3.54879e-07
3.4976e-07
3.45037e-07
3.40861e-07
3.36934e-07
3.3433e-07
3.301e-07
3.03697e-07
2.97919e-07
2.9293e-07
2.88789e-07
2.85763e-07
2.83915e-07
2.86389e-07
2.92164e-07
2.25002e-07
2.13807e-07
2.03584e-07
1.94573e-07
1.86849e-07
1.80368e-07
1.75128e-07
1.67324e-07
1.79998e-07
1.7673e-07
1.75799e-07
1.77426e-07
1.82739e-07
1.92288e-07
2.15047e-07
2.48571e-07
2.00564e-07
1.99485e-07
1.98159e-07
1.96301e-07
1.94817e-07
2.00475e-07
2.35953e-07
2.74404e-07
5.40478e-07
5.60644e-07
5.78197e-07
5.9439e-07
6.13072e-07
6.40584e-07
7.0851e-07
7.65203e-07
1.01492e-06
1.01809e-06
1.02037e-06
1.02186e-06
1.02279e-06
1.02587e-06
1.04601e-06
9.96649e-07
1.93988e-06
1.94058e-06
1.93954e-06
1.93745e-06
1.93294e-06
1.93027e-06
1.9139e-06
1.77562e-06
12.8595
3.47161
0.920186
0.284771
0.0497498
0.00293758
0.000580634
0
1.66821e-06
2.84116e-05
4.9345e-05
4.94295e-05
4.48294e-05
4.04986e-05
3.67292e-05
3.32914e-05
3.00851e-05
2.71041e-05
2.43514e-05
2.18153e-05
1.94918e-05
1.7372e-05
1.5447e-05
1.37077e-05
1.21426e-05
1.07425e-05
9.49693e-06
8.39563e-06
7.42879e-06
6.58691e-06
5.86078e-06
5.24132e-06
4.71904e-06
4.28478e-06
3.92873e-06
3.64046e-06
3.40945e-06
3.22504e-06
3.07703e-06
2.9562e-06
2.85451e-06
2.76526e-06
2.68337e-06
2.60488e-06
2.52701e-06
2.44804e-06
2.36693e-06
2.28312e-06
2.19668e-06
2.10761e-06
2.01626e-06
1.92285e-06
1.82759e-06
1.73077e-06
1.6328e-06
1.5345e-06
1.43705e-06
1.34187e-06
1.25016e-06
1.16236e-06
1.07798e-06
9.9586e-07
9.15192e-07
8.35835e-07
7.58921e-07
6.8536e-07
6.18491e-07
5.61428e-07
5.13528e-07
4.69383e-07
4.26335e-07
3.85857e-07
3.30473e-07
2.98746e-07
1.64204e-07
2.71146e-07
2.4977e-07
7.51914e-07
8.81318e-07
1.57784e-06
7.73582
2.50219
0.474285
0.0742552
0.00755073
0.000438459
7.03809e-05
1.61276e-07
3.06797e-06
2.35588e-05
2.88845e-05
2.80555e-05
2.63472e-05
2.48347e-05
2.34499e-05
2.2087e-05
2.0726e-05
1.93679e-05
1.8033e-05
1.67256e-05
1.54565e-05
1.42323e-05
1.30596e-05
1.19495e-05
1.09044e-05
9.92804e-06
9.02442e-06
8.19519e-06
7.43965e-06
6.75739e-06
6.14634e-06
5.60373e-06
5.12578e-06
4.70815e-06
4.34628e-06
4.0343e-06
3.76684e-06
3.53791e-06
3.34147e-06
3.17194e-06
3.02401e-06
2.8927e-06
2.7741e-06
2.66454e-06
2.56128e-06
2.46217e-06
2.36559e-06
2.27045e-06
2.17603e-06
2.08177e-06
1.98743e-06
1.89275e-06
1.79752e-06
1.70168e-06
1.60542e-06
1.50934e-06
1.41442e-06
1.32195e-06
1.23288e-06
1.14754e-06
1.06536e-06
9.85214e-07
9.06357e-07
8.28743e-07
7.53527e-07
6.81499e-07
6.15866e-07
5.59508e-07
5.12271e-07
4.6883e-07
4.26172e-07
3.86128e-07
3.3066e-07
3.00472e-07
1.62679e-07
2.84471e-07
2.1877e-07
7.55074e-07
8.74112e-07
1.61493e-06
4.87965
1.57892
0.213184
0.0137688
0.000546987
8.91363e-05
7.12728e-06
4.65401e-07
7.91684e-06
1.76377e-05
1.73699e-05
1.64675e-05
1.55579e-05
1.48105e-05
1.41261e-05
1.34623e-05
1.28195e-05
1.21933e-05
1.15811e-05
1.09912e-05
1.0417e-05
9.8594e-06
9.31508e-06
8.7887e-06
8.27857e-06
7.78318e-06
7.30526e-06
6.84672e-06
6.40771e-06
5.9907e-06
5.5971e-06
5.22828e-06
4.88544e-06
4.5691e-06
4.27949e-06
4.01581e-06
3.77729e-06
3.56222e-06
3.36861e-06
3.19413e-06
3.03647e-06
2.89297e-06
2.76137e-06
2.63934e-06
2.52493e-06
2.41653e-06
2.31265e-06
2.21229e-06
2.11454e-06
2.01869e-06
1.92424e-06
1.83068e-06
1.73757e-06
1.64464e-06
1.55191e-06
1.45981e-06
1.36915e-06
1.28102e-06
1.19621e-06
1.11489e-06
1.03641e-06
9.59672e-07
8.84004e-07
8.09428e-07
7.37125e-07
6.67795e-07
6.04426e-07
5.49784e-07
5.04163e-07
4.62416e-07
4.21042e-07
3.82171e-07
3.27864e-07
2.98667e-07
1.64788e-07
2.90017e-07
2.0421e-07
7.48913e-07
8.56566e-07
1.61888e-06
2.93932
0.791121
0.0572283
0.000555165
0.000124946
2.15894e-08
9.90942e-08
1.76184e-06
9.99958e-06
1.23047e-05
1.14327e-05
1.10052e-05
1.05823e-05
1.02254e-05
9.86604e-06
9.50087e-06
9.14058e-06
8.78331e-06
8.43079e-06
8.08983e-06
7.75553e-06
7.43266e-06
7.11885e-06
6.81384e-06
6.51866e-06
6.23182e-06
5.95246e-06
5.681e-06
5.41678e-06
5.16007e-06
4.911e-06
4.66983e-06
4.43761e-06
4.21461e-06
4.00161e-06
3.79939e-06
3.60816e-06
3.42819e-06
3.25948e-06
3.10151e-06
2.95391e-06
2.81588e-06
2.68636e-06
2.5645e-06
2.44929e-06
2.33979e-06
2.23504e-06
2.13438e-06
2.03707e-06
1.94247e-06
1.85007e-06
1.75923e-06
1.66948e-06
1.58046e-06
1.49203e-06
1.40456e-06
1.31871e-06
1.23539e-06
1.15525e-06
1.07833e-06
1.00393e-06
9.30983e-07
8.58892e-07
7.87716e-07
7.18662e-07
6.52353e-07
5.91611e-07
5.39153e-07
4.95487e-07
4.55613e-07
4.15737e-07
3.7829e-07
3.25504e-07
2.97401e-07
1.69691e-07
2.94019e-07
1.97607e-07
7.41318e-07
8.34507e-07
1.6068e-06
1.4535
0.251339
0.0036576
0.000381577
0
1.27955e-08
2.34187e-07
5.3342e-06
9.21288e-06
8.95651e-06
8.46673e-06
8.32507e-06
8.1664e-06
8.02799e-06
7.87084e-06
7.70257e-06
7.52354e-06
7.33124e-06
7.13034e-06
6.92086e-06
6.70272e-06
6.47921e-06
6.25338e-06
6.02389e-06
5.79432e-06
5.56767e-06
5.34272e-06
5.12219e-06
4.90695e-06
4.69737e-06
4.49407e-06
4.29707e-06
4.10722e-06
3.92397e-06
3.74758e-06
3.57854e-06
3.41629e-06
3.26122e-06
3.11315e-06
2.97187e-06
2.8375e-06
2.70957e-06
2.58763e-06
2.47154e-06
2.36071e-06
2.25471e-06
2.153e-06
2.05518e-06
1.96076e-06
1.86923e-06
1.78015e-06
1.6929e-06
1.60704e-06
1.52217e-06
1.43812e-06
1.35517e-06
1.27393e-06
1.19516e-06
1.11937e-06
1.04651e-06
9.75851e-07
9.06397e-07
8.37618e-07
7.69606e-07
7.03591e-07
6.40107e-07
5.8181e-07
5.31378e-07
4.8949e-07
4.51224e-07
4.12652e-07
3.76454e-07
3.25064e-07
2.98171e-07
1.76401e-07
3.00404e-07
1.92821e-07
7.41615e-07
8.22949e-07
1.6052e-06
0.488062
0.0337267
0.00128376
0
5.62575e-10
1.05323e-08
3.03038e-06
7.00198e-06
7.57454e-06
7.0192e-06
6.84313e-06
6.78291e-06
6.69878e-06
6.61513e-06
6.51645e-06
6.41152e-06
6.29585e-06
6.17087e-06
6.0402e-06
5.90183e-06
5.75719e-06
5.60661e-06
5.45228e-06
5.29273e-06
5.12995e-06
4.96548e-06
4.79802e-06
4.63024e-06
4.46247e-06
4.29543e-06
4.13027e-06
3.96738e-06
3.80812e-06
3.6525e-06
3.50113e-06
3.35475e-06
3.21301e-06
3.07653e-06
2.94503e-06
2.81852e-06
2.69718e-06
2.58051e-06
2.46838e-06
2.36082e-06
2.25733e-06
2.15779e-06
2.06187e-06
1.96932e-06
1.87984e-06
1.79305e-06
1.7086e-06
1.62593e-06
1.54468e-06
1.46448e-06
1.38514e-06
1.30694e-06
1.23041e-06
1.15621e-06
1.08475e-06
1.01589e-06
9.48927e-07
8.82919e-07
8.17411e-07
7.5256e-07
6.89583e-07
6.28913e-07
5.73017e-07
5.24565e-07
4.84433e-07
4.47715e-07
4.10427e-07
3.75448e-07
3.25472e-07
2.99948e-07
1.84037e-07
3.08159e-07
1.87196e-07
7.44923e-07
0.070341
0.000139823
5.98808e-05
0
1.01795e-07
1.76011e-06
5.10068e-06
5.90427e-06
5.55995e-06
5.3294e-06
5.32573e-06
5.31454e-06
5.28847e-06
5.25685e-06
5.21381e-06
5.16503e-06
5.10615e-06
5.03845e-06
4.9645e-06
4.88293e-06
4.79515e-06
4.70113e-06
4.60118e-06
4.49676e-06
4.38879e-06
4.27669e-06
4.16124e-06
4.04423e-06
3.92497e-06
3.80442e-06
3.68321e-06
3.56145e-06
3.4401e-06
3.31941e-06
3.1998e-06
3.08186e-06
2.96577e-06
2.85217e-06
2.74097e-06
2.63258e-06
2.52725e-06
2.4247e-06
2.32528e-06
2.22888e-06
2.13531e-06
2.04473e-06
1.95686e-06
1.87164e-06
1.78891e-06
1.7084e-06
1.62988e-06
1.55291e-06
1.47718e-06
1.40234e-06
1.32832e-06
1.25535e-06
1.18391e-06
1.1146e-06
1.04771e-06
9.8308e-07
9.20016e-07
8.57666e-07
7.95638e-07
7.34156e-07
6.74425e-07
6.16745e-07
5.63404e-07
5.171e-07
4.78884e-07
4.4383e-07
4.07972e-07
3.74337e-07
3.25964e-07
3.02037e-07
1.92304e-07
3.16022e-07
0.000725027
0.000286866
0
4.76435e-08
8.73714e-07
3.82342e-06
4.61652e-06
4.38809e-06
4.18793e-06
4.17207e-06
4.20517e-06
4.21256e-06
4.21329e-06
4.20741e-06
4.19346e-06
4.17353e-06
4.14592e-06
4.1115e-06
4.07131e-06
4.02481e-06
3.97284e-06
3.9157e-06
3.85307e-06
3.78634e-06
3.71614e-06
3.64162e-06
3.56396e-06
3.48394e-06
3.40113e-06
3.31637e-06
3.22995e-06
3.14189e-06
3.05292e-06
2.96316e-06
2.8728e-06
2.7823e-06
2.69179e-06
2.60174e-06
2.5122e-06
2.4235e-06
2.33593e-06
2.24951e-06
2.16458e-06
2.08117e-06
1.99934e-06
1.91935e-06
1.84105e-06
1.76458e-06
1.68986e-06
1.61676e-06
1.54515e-06
1.47471e-06
1.4052e-06
1.33635e-06
1.26814e-06
1.2008e-06
1.13478e-06
1.07061e-06
1.00852e-06
9.48314e-07
8.89335e-07
8.30828e-07
7.72483e-07
7.14558e-07
6.5826e-07
6.03737e-07
5.53114e-07
5.09144e-07
4.72983e-07
4.39691e-07
4.05399e-07
3.7322e-07
3.2666e-07
3.04515e-07
0.000323601
0
1.46506e-08
2.58903e-07
3.1391e-06
3.74572e-06
3.54457e-06
3.37809e-06
3.36617e-06
3.41168e-06
3.4433e-06
3.46162e-06
3.47548e-06
3.48254e-06
3.4833e-06
3.47781e-06
3.4659e-06
3.44851e-06
3.42559e-06
3.3972e-06
3.36378e-06
3.32598e-06
3.28414e-06
3.23798e-06
3.1887e-06
3.13633e-06
3.08092e-06
3.02304e-06
2.96284e-06
2.90074e-06
2.83667e-06
2.77092e-06
2.70411e-06
2.63582e-06
2.56653e-06
2.49658e-06
2.42583e-06
2.35469e-06
2.28324e-06
2.21161e-06
2.14004e-06
2.06869e-06
1.99764e-06
1.9271e-06
1.85719e-06
1.78812e-06
1.71988e-06
1.65269e-06
1.58654e-06
1.52141e-06
1.45724e-06
1.3938e-06
1.33093e-06
1.26844e-06
1.20633e-06
1.14486e-06
1.08445e-06
1.02555e-06
9.68364e-07
9.12683e-07
8.57891e-07
8.03334e-07
7.48794e-07
6.94549e-07
6.41793e-07
5.90527e-07
5.42729e-07
5.01217e-07
4.67176e-07
4.35684e-07
4.03041e-07
0
2.70769e-10
5.79314e-09
2.17834e-06
3.17852e-06
2.84802e-06
2.73929e-06
2.73316e-06
2.78301e-06
2.82713e-06
2.85694e-06
2.88175e-06
2.902e-06
2.91624e-06
2.92525e-06
2.92937e-06
2.92787e-06
2.92129e-06
2.91002e-06
2.89404e-06
2.87369e-06
2.84929e-06
2.82131e-06
2.78963e-06
2.75502e-06
2.71769e-06
2.67751e-06
2.63512e-06
2.59065e-06
2.54438e-06
2.4961e-06
2.44631e-06
2.39539e-06
2.34278e-06
2.28915e-06
2.23455e-06
2.17889e-06
2.12251e-06
2.06539e-06
2.00766e-06
1.94949e-06
1.89094e-06
1.83217e-06
1.77326e-06
1.71435e-06
1.65564e-06
1.59713e-06
1.53906e-06
1.48147e-06
1.42438e-06
1.36777e-06
1.31149e-06
1.25544e-06
1.19945e-06
1.14361e-06
1.08813e-06
1.03341e-06
9.79853e-07
9.27615e-07
8.76505e-07
8.25966e-07
7.75443e-07
7.24791e-07
6.74325e-07
6.25198e-07
5.77261e-07
0
7.69937e-08
1.59219e-06
2.62284e-06
2.33851e-06
2.20629e-06
2.23177e-06
2.27726e-06
2.32526e-06
2.36021e-06
2.3896e-06
2.41567e-06
2.43713e-06
2.45416e-06
2.46652e-06
2.47488e-06
2.47877e-06
2.47812e-06
2.47376e-06
2.46554e-06
2.45379e-06
2.43861e-06
2.42038e-06
2.39924e-06
2.37563e-06
2.3496e-06
2.32117e-06
2.29089e-06
2.25873e-06
2.22488e-06
2.18932e-06
2.15229e-06
2.11402e-06
2.07426e-06
2.03338e-06
1.99136e-06
1.94821e-06
1.90416e-06
1.85909e-06
1.81318e-06
1.76653e-06
1.71914e-06
1.67115e-06
1.62262e-06
1.57367e-06
1.52448e-06
1.47505e-06
1.42562e-06
1.37623e-06
1.32694e-06
1.27776e-06
1.22856e-06
1.17929e-06
1.12982e-06
1.08024e-06
1.03076e-06
9.8174e-07
9.33533e-07
8.86258e-07
8.39744e-07
7.93505e-07
6.26231e-08
1.03355e-06
2.13537e-06
1.91975e-06
1.80063e-06
1.83238e-06
1.88312e-06
1.92651e-06
1.96321e-06
1.99349e-06
2.02118e-06
2.04561e-06
2.06613e-06
2.0832e-06
2.09611e-06
2.10572e-06
2.11172e-06
2.1139e-06
2.11312e-06
2.10911e-06
2.10224e-06
2.09254e-06
2.08048e-06
2.06606e-06
2.04959e-06
2.03125e-06
2.01099e-06
1.98925e-06
1.96598e-06
1.94131e-06
1.91524e-06
1.88798e-06
1.85955e-06
1.82983e-06
1.79911e-06
1.76727e-06
1.73435e-06
1.70048e-06
1.66552e-06
1.62961e-06
1.59283e-06
1.55511e-06
1.51654e-06
1.47722e-06
1.43719e-06
1.39659e-06
1.35549e-06
1.31404e-06
1.27233e-06
1.23041e-06
1.18832e-06
1.14595e-06
1.10326e-06
1.06017e-06
1.03708e-06
1.54501e-06
1.62883e-06
1.47812e-06
1.52407e-06
1.57155e-06
1.61149e-06
1.64502e-06
1.67477e-06
1.7014e-06
1.72629e-06
1.74787e-06
1.76622e-06
1.78182e-06
1.79411e-06
1.80361e-06
1.81006e-06
1.81358e-06
1.81458e-06
1.813e-06
1.80909e-06
1.80302e-06
1.79485e-06
1.78491e-06
1.77339e-06
1.76018e-06
1.74563e-06
1.72983e-06
1.71283e-06
1.6947e-06
1.67546e-06
1.65532e-06
1.63413e-06
1.61195e-06
1.58894e-06
1.5649e-06
1.53998e-06
1.51412e-06
1.48726e-06
1.45953e-06
1.43084e-06
1.4012e-06
)
;

boundaryField
{
    inlet
    {
        type            calculated;
        value           nonuniform List<scalar> 
13
(
6.56494e-06
6.65281e-06
6.73e-06
6.79931e-06
6.86615e-06
6.93447e-06
7.02314e-06
7.05014e-06
6.9879e-06
6.95151e-06
6.89967e-06
6.85422e-06
6.81749e-06
)
;
    }
    outlet
    {
        type            calculated;
        value           nonuniform List<scalar> 0();
    }
    walls
    {
        type            calculated;
        value           nonuniform List<scalar> 4(1.01147 0.960055 0.889622 0.707855);
    }
    frontAndBack
    {
        type            empty;
    }
    procBoundary2to1
    {
        type            processor;
        value           nonuniform List<scalar> 
84
(
61.0188
1.61011
0.250405
0.0026338
0.000180431
1.6696e-05
2.74336e-05
2.57863e-05
2.81686e-05
2.45708e-05
2.45541e-05
2.31782e-05
2.23687e-05
2.12885e-05
2.02753e-05
1.92026e-05
1.81221e-05
1.70197e-05
1.5906e-05
1.47863e-05
1.36666e-05
1.25537e-05
1.14558e-05
1.03816e-05
9.33984e-06
8.33966e-06
7.39108e-06
6.50464e-06
5.69107e-06
4.9624e-06
4.33073e-06
3.80747e-06
3.40176e-06
3.11612e-06
2.94296e-06
2.86311e-06
2.85032e-06
2.87744e-06
2.87744e-06
3.6636e-06
3.5858e-06
3.51577e-06
3.44543e-06
3.3694e-06
3.28466e-06
3.18996e-06
3.08532e-06
2.97169e-06
2.85048e-06
2.7233e-06
2.59181e-06
2.45745e-06
2.32141e-06
2.32141e-06
2.24864e-06
2.10118e-06
1.9564e-06
1.8152e-06
1.67894e-06
1.54916e-06
1.427e-06
1.31259e-06
1.2049e-06
1.2049e-06
1.11354e-06
1.01264e-06
9.15442e-07
8.22933e-07
7.3637e-07
6.58079e-07
5.93287e-07
5.41366e-07
4.94741e-07
4.49738e-07
4.49738e-07
4.10199e-07
3.66046e-07
3.10216e-07
2.36884e-07
1.85457e-07
2.02031e-07
5.17541e-07
1.01028e-06
1.93666e-06
)
;
    }
    procBoundary2to3
    {
        type            processor;
        value           nonuniform List<scalar> 
88
(
8.17022e-07
1.6082e-06
1.82046e-07
8.17022e-07
7.4807e-07
2.01322e-07
1.82046e-07
3.23699e-07
3.72367e-07
3.27809e-07
2.01322e-07
3.0755e-07
5.32375e-07
4.93409e-07
4.6153e-07
4.31857e-07
3.72367e-07
4.00931e-07
7.47085e-07
7.00407e-07
6.53803e-07
6.08382e-07
5.32375e-07
5.63841e-07
1.01674e-06
9.7316e-07
9.29756e-07
8.86826e-07
8.44467e-07
8.02535e-07
7.47085e-07
7.60612e-07
1.37063e-06
1.33921e-06
1.30692e-06
1.27388e-06
1.24021e-06
1.20597e-06
1.17125e-06
1.13614e-06
1.10067e-06
1.06474e-06
1.02831e-06
1.01674e-06
9.91313e-07
1.39966e-06
1.234e-06
1.26976e-06
1.2705e-06
1.32783e-06
1.35869e-06
1.38918e-06
1.41572e-06
1.44075e-06
1.46376e-06
1.48465e-06
1.50287e-06
1.51851e-06
1.53213e-06
1.54297e-06
1.5514e-06
1.55751e-06
1.5614e-06
1.5632e-06
1.56297e-06
1.56083e-06
1.55703e-06
1.55167e-06
1.54485e-06
1.53669e-06
1.52735e-06
1.51697e-06
1.50551e-06
1.49318e-06
1.47993e-06
1.46585e-06
1.451e-06
1.43533e-06
1.41893e-06
1.40176e-06
1.38378e-06
1.36507e-06
1.3455e-06
1.32509e-06
1.30388e-06
1.28175e-06
1.37063e-06
1.25873e-06
)
;
    }
    procBoundary2to6
    {
        type            processor;
        value           nonuniform List<scalar> 
13
(
18.6559
13.5008
8.78901
5.76395
3.49928
1.7462
0.57798
0.0767472
0.000660961
0.00016288
0
0
7.39018e-08
)
;
    }
}


// ************************************************************************* //
