/*--------------------------------*- C++ -*----------------------------------*\
| =========                 |                                                 |
| \\      /  F ield         | OpenFOAM: The Open Source CFD Toolbox           |
|  \\    /   O peration     | Version:  2306                                  |
|   \\  /    A nd           | Website:  www.openfoam.com                      |
|    \\/     M anipulation  |                                                 |
\*---------------------------------------------------------------------------*/
FoamFile
{
    version     2.0;
    format      ascii;
    arch        "LSB;label=32;scalar=64";
    class       volVectorField;
    location    "825";
    object      momentError;
}
// * * * * * * * * * * * * * * * * * * * * * * * * * * * * * * * * * * * * * //

dimensions      [0 1 -2 0 0 0 0];

internalField   nonuniform List<vector> 
1340
(
(-0.000161203 -1.56224e-05 1.26222e-15)
(-1.62834e-05 2.41925e-05 -2.16357e-15)
(-0.000367912 0.00012769 -1.10554e-14)
(-0.00220069 0.0012573 -2.14909e-14)
(-3.79272e-05 -1.52859e-05 -1.55166e-15)
(-0.000203951 -2.44699e-05 -6.70834e-17)
(-0.000292206 -1.2366e-05 3.77889e-15)
(-0.00159591 -0.000211147 9.20253e-15)
(-6.68821e-05 -9.0157e-05 3.68144e-17)
(-1.71e-05 -4.74108e-05 1.44753e-14)
(-0.000318159 -5.03697e-05 8.74933e-15)
(-0.00130167 -0.00021806 -1.0337e-13)
(-0.000582822 -0.00183003 7.59148e-15)
(-0.000255109 -0.000266066 -1.28894e-14)
(-0.000183522 0.000650427 -2.99074e-14)
(-0.00115231 -0.000275668 -1.05031e-16)
(7.48717e-07 0.00260799 -6.87917e-16)
(-4.5503e-05 0.000262913 1.03185e-14)
(-0.000163744 -0.000758299 -1.08677e-14)
(-0.00105724 -5.20586e-05 5.48118e-15)
(0.000234689 -0.000904685 -1.19107e-14)
(-0.000128466 1.4958e-05 3.46359e-15)
(-0.000445735 0.00024939 4.41724e-14)
(-0.00130926 0.000334655 3.10368e-14)
(-5.67901e-05 8.85891e-05 7.24236e-15)
(-0.000162606 -1.55233e-05 -1.54295e-15)
(-0.000245918 -7.46443e-05 -2.46104e-15)
(-0.000719462 -0.000390411 -4.22069e-14)
(-9.0652e-05 -2.36398e-05 -3.42277e-15)
(-0.000126043 -4.24527e-05 -6.46566e-15)
(-0.00022701 -7.99962e-05 3.78589e-15)
(-0.000322788 -0.000604675 -2.26299e-14)
(-8.84043e-05 -8.19999e-06 -1.09944e-15)
(-0.000130213 -1.41883e-05 8.88886e-16)
(-0.00024791 -4.82076e-05 -8.14201e-15)
(-0.000673562 -0.000195971 7.93537e-15)
(-8.93408e-05 -1.24263e-05 -4.81076e-16)
(-0.000130518 -1.94019e-05 -2.28691e-14)
(-0.000241927 -5.53979e-05 6.30533e-16)
(-0.00054882 -0.000247625 1.68636e-14)
(-8.86267e-05 -1.36126e-05 2.33477e-15)
(-0.000129781 -2.01998e-05 2.05407e-14)
(-0.000236287 -5.60249e-05 7.87238e-15)
(-0.000493472 -0.000238008 -7.15056e-14)
(-8.78139e-05 -1.50839e-05 7.27808e-15)
(-0.000128204 -2.28834e-05 -4.67751e-15)
(-0.000227113 -6.18353e-05 -2.28011e-14)
(-0.000430545 -0.000244835 4.09787e-14)
(-8.69144e-05 -1.63189e-05 -1.25855e-14)
(-0.000126317 -2.53978e-05 4.02323e-15)
(-0.000216797 -6.71209e-05 2.53868e-14)
(-0.000374242 -0.000247368 6.16885e-14)
(-8.58291e-05 -1.75984e-05 7.45355e-16)
(-0.00012367 -2.80689e-05 2.62321e-15)
(-0.000204998 -7.27433e-05 -1.32516e-14)
(-0.000322584 -0.000248785 -6.367e-15)
(-8.46167e-05 -1.90506e-05 7.28292e-16)
(-0.000120718 -3.09569e-05 -6.63906e-15)
(-0.000192521 -7.81165e-05 -2.43956e-14)
(-0.000276027 -0.000247571 -2.48068e-14)
(-8.3153e-05 -2.04299e-05 -1.03625e-15)
(-0.000116996 -3.38351e-05 4.81748e-16)
(-0.000179199 -8.30731e-05 1.92357e-14)
(-0.000234319 -0.000244217 4.77163e-14)
(-8.15053e-05 -2.21253e-05 3.09198e-15)
(-0.000112985 -3.68714e-05 -4.24527e-15)
(-0.000165698 -8.73997e-05 1.71467e-14)
(-0.000197298 -0.000238616 -1.92928e-14)
(-7.95381e-05 -2.36809e-05 1.59416e-15)
(-0.000108267 -3.97913e-05 7.49982e-15)
(-0.000151844 -9.10301e-05 3.81778e-15)
(-0.0001646 -0.000231448 -9.94831e-15)
(-7.73684e-05 -2.52576e-05 5.65144e-15)
(-0.000103321 -4.26933e-05 1.59015e-14)
(-0.000138197 -9.38674e-05 -1.01167e-14)
(-0.000135996 -0.000222486 -3.12921e-14)
(-7.48698e-05 -2.67262e-05 -9.50788e-15)
(-9.77364e-05 -4.54366e-05 -1.78554e-14)
(-0.000124617 -9.59929e-05 -1.32451e-14)
(-0.00011115 -0.000212528 1.15023e-14)
(-7.21088e-05 -2.85018e-05 5.55214e-15)
(-9.19576e-05 -4.8279e-05 4.16656e-15)
(-0.000111558 -9.72156e-05 1.9962e-14)
(-8.97052e-05 -0.00020145 1.6219e-14)
(-6.89346e-05 -3.02623e-05 -2.00678e-15)
(-8.57169e-05 -5.09232e-05 2.8871e-15)
(-9.89583e-05 -9.77403e-05 -5.29532e-15)
(-7.13024e-05 -0.000190143 -1.26012e-14)
(-6.55497e-05 -3.1999e-05 -7.53355e-18)
(-7.94737e-05 -5.31135e-05 -3.65774e-15)
(-8.70715e-05 -9.74892e-05 -1.08313e-14)
(-5.55734e-05 -0.000178414 -2.1842e-15)
(-6.18513e-05 -3.36515e-05 1.01942e-16)
(-7.29222e-05 -5.49978e-05 1.74184e-15)
(-7.58211e-05 -9.67367e-05 1.47798e-14)
(-4.23353e-05 -0.00016684 1.78709e-14)
(-5.79954e-05 -3.51645e-05 2.43593e-15)
(-6.64579e-05 -5.65337e-05 -5.36294e-15)
(-6.54372e-05 -9.51419e-05 -4.54195e-15)
(-3.11809e-05 -0.000155159 -1.11215e-14)
(-5.38704e-05 -3.66302e-05 -9.86072e-17)
(-5.98625e-05 -5.77062e-05 8.99494e-15)
(-5.58708e-05 -9.30682e-05 -1.18233e-14)
(-2.19656e-05 -0.000143938 -1.9614e-14)
(-4.96578e-05 -3.78385e-05 4.49139e-15)
(-5.35719e-05 -5.81516e-05 -1.1996e-14)
(-4.72293e-05 -9.02244e-05 -2.31734e-15)
(-1.43057e-05 -0.000132961 2.12669e-14)
(-4.53409e-05 -3.88452e-05 -8.95957e-15)
(-4.73494e-05 -5.81749e-05 2.83507e-15)
(-3.93946e-05 -8.70213e-05 1.38969e-15)
(-8.15735e-06 -0.000122505 -9.70458e-15)
(-4.10705e-05 -3.94021e-05 7.55953e-15)
(-4.15483e-05 -5.74747e-05 -1.6374e-16)
(-3.2494e-05 -8.31295e-05 7.0822e-15)
(-3.18343e-06 -0.000112346 1.40631e-14)
(-3.68545e-05 -3.97213e-05 -8.139e-15)
(-3.59609e-05 -5.63857e-05 6.89059e-15)
(-2.63603e-05 -7.90062e-05 2.02182e-15)
(6.58803e-07 -0.000102757 4.63e-16)
(-3.27896e-05 -3.96138e-05 -1.75591e-15)
(-3.08816e-05 -5.47197e-05 2.66411e-15)
(-2.11061e-05 -7.43874e-05 1.10586e-15)
(3.65574e-06 -9.35818e-05 -9.27213e-15)
(-2.89431e-05 -3.92993e-05 7.90527e-15)
(-2.61185e-05 -5.2772e-05 -1.50036e-15)
(-1.65335e-05 -6.9691e-05 -3.67934e-15)
(5.86007e-06 -8.50689e-05 -1.35891e-14)
(-2.53441e-05 -3.85446e-05 1.32748e-15)
(-2.19377e-05 -5.03735e-05 -1.19575e-16)
(-1.27296e-05 -6.47786e-05 1.74047e-15)
(7.49896e-06 -7.70293e-05 8.45829e-15)
(-2.20306e-05 -3.76553e-05 -6.34215e-15)
(-1.81076e-05 -4.7808e-05 -3.62207e-15)
(-9.44113e-06 -6.0021e-05 -1.62703e-15)
(8.60379e-06 -6.96745e-05 9.13674e-15)
(-1.89839e-05 -3.65e-05 4.02102e-15)
(-1.48473e-05 -4.50346e-05 4.77779e-15)
(-6.78658e-06 -5.52645e-05 3.64579e-15)
(9.34371e-06 -6.28347e-05 -8.00775e-15)
(-1.62672e-05 -3.52122e-05 -2.96901e-15)
(-1.19321e-05 -4.23325e-05 -3.87328e-15)
(-4.51651e-06 -5.07528e-05 -2.11687e-15)
(9.74902e-06 -5.66695e-05 1.06782e-14)
(-1.37872e-05 -3.38599e-05 -1.86145e-15)
(-9.55669e-06 -3.94465e-05 2.96565e-15)
(-2.78217e-06 -4.64099e-05 1.36674e-15)
(9.93629e-06 -5.09728e-05 -3.06822e-15)
(-1.17719e-05 -3.19912e-05 -7.37744e-16)
(-7.56843e-06 -3.66243e-05 -3.03718e-15)
(-1.2557e-06 -4.245e-05 3.66961e-15)
(9.90816e-06 -4.5886e-05 -2.85031e-15)
(-1.18081e-05 -2.59661e-05 4.84937e-15)
(-9.46399e-06 -2.95002e-05 -2.3878e-16)
(-6.72999e-06 -3.47063e-05 2.12448e-15)
(1.84997e-07 -3.83619e-05 -1.46872e-15)
(9.6764e-06 -4.13007e-05 -8.22358e-15)
(-1.02869e-05 -2.46342e-05 -6.37924e-15)
(-7.81396e-06 -2.78215e-05 1.84011e-15)
(-5.07962e-06 -3.20268e-05 1.71766e-15)
(1.07247e-06 -3.49083e-05 -1.14229e-14)
(9.3865e-06 -3.71679e-05 1.80463e-15)
(-8.89141e-06 -2.32548e-05 1.45753e-15)
(-6.38525e-06 -2.60179e-05 -3.2182e-16)
(-3.83349e-06 -2.94903e-05 -8.76009e-16)
(1.68803e-06 -3.16351e-05 1.0086e-14)
(8.99988e-06 -3.33801e-05 6.41081e-15)
(-7.66748e-06 -2.1927e-05 8.91689e-16)
(-5.09556e-06 -2.42878e-05 -6.22625e-16)
(-2.72873e-06 -2.71081e-05 -2.18177e-15)
(2.15999e-06 -2.86821e-05 -7.18898e-17)
(8.55323e-06 -3.00175e-05 1.13488e-16)
(-6.54992e-06 -2.05583e-05 -3.51996e-15)
(-4.09694e-06 -2.25364e-05 -3.48838e-15)
(-1.94352e-06 -2.48128e-05 -3.82637e-15)
(2.42544e-06 -2.59254e-05 -2.07582e-15)
(8.04871e-06 -2.69389e-05 -2.49755e-15)
(-5.60917e-06 -1.91905e-05 -1.43797e-15)
(-3.21184e-06 -2.0821e-05 -4.17647e-16)
(-1.23921e-06 -2.27148e-05 3.37702e-15)
(2.61401e-06 -2.34493e-05 1.12251e-15)
(7.52775e-06 -2.42266e-05 -6.51143e-15)
(-4.76305e-06 -1.78191e-05 -4.27805e-15)
(-2.53056e-06 -1.91874e-05 3.3964e-15)
(-7.75146e-07 -2.06982e-05 1.87332e-15)
(2.63812e-06 -2.11555e-05 -1.79866e-15)
(6.97408e-06 -2.17521e-05 3.29859e-15)
(-4.06299e-06 -1.6467e-05 1.24481e-15)
(-1.9506e-06 -1.76141e-05 -1.67447e-15)
(-3.71725e-07 -1.88406e-05 -5.73248e-16)
(2.64949e-06 -1.91078e-05 2.40955e-15)
(6.4409e-06 -1.95847e-05 5.67497e-15)
(-3.43578e-06 -1.51669e-05 1.78138e-15)
(-1.50276e-06 -1.60844e-05 -1.43824e-15)
(-1.28503e-07 -1.71156e-05 -2.475e-15)
(2.54518e-06 -1.72333e-05 -1.56037e-16)
(5.89308e-06 -1.76225e-05 -4.64025e-15)
(-2.93944e-06 -1.39345e-05 -5.82914e-16)
(-1.13372e-06 -1.46426e-05 8.81654e-17)
(1.0149e-07 -1.55763e-05 3.19956e-15)
(2.46469e-06 -1.55726e-05 -1.99203e-15)
(5.39349e-06 -1.59176e-05 1.2653e-15)
(-2.49644e-06 -1.2809e-05 -2.29052e-15)
(-8.30873e-07 -1.33677e-05 1.52008e-16)
(2.36933e-07 -1.41669e-05 3.73103e-15)
(2.29373e-06 -1.4072e-05 -3.22262e-15)
(4.87964e-06 -1.43799e-05 -2.51717e-15)
(-2.13084e-06 -1.17797e-05 1.71916e-15)
(-6.14479e-07 -1.21968e-05 4.62753e-16)
(3.30005e-07 -1.2905e-05 7.62237e-16)
(2.16525e-06 -1.27467e-05 6.05295e-16)
(4.42969e-06 -1.30362e-05 -9.63413e-16)
(-1.84122e-06 -1.08834e-05 8.71158e-16)
(-4.40626e-07 -1.11092e-05 -2.28032e-15)
(3.72531e-07 -1.1756e-05 -1.95358e-15)
(1.96595e-06 -1.1546e-05 1.88917e-15)
(3.95413e-06 -1.18268e-05 4.5727e-15)
(-1.64039e-06 -9.89398e-06 -1.1201e-15)
(-4.39568e-07 -1.02324e-05 3.02918e-15)
(4.07968e-07 -1.06469e-05 9.01195e-17)
(1.81116e-06 -1.0481e-05 -2.1951e-15)
(3.55798e-06 -1.07557e-05 2.81482e-15)
(-2.52364e-06 -8.90336e-06 -2.12012e-15)
(-1.27576e-06 -8.94783e-06 3.54603e-16)
(-7.11345e-07 -9.7889e-06 1.34313e-15)
(5.43308e-07 -9.46313e-06 1.38522e-16)
(1.59268e-06 -9.53009e-06 -3.53586e-15)
(3.12483e-06 -9.78392e-06 -3.18195e-15)
(-2.31736e-06 -8.13513e-06 1.27126e-15)
(-1.19731e-06 -8.15989e-06 2.98475e-15)
(-7.26896e-07 -8.90576e-06 6.32702e-17)
(5.10411e-07 -8.56906e-06 -3.07447e-15)
(1.43418e-06 -8.65599e-06 9.15954e-16)
(2.84909e-06 -8.9583e-06 -2.43806e-15)
(-2.19801e-06 -7.37666e-06 -1.76693e-15)
(-1.08854e-06 -7.40753e-06 -2.28276e-15)
(-5.75463e-07 -8.04993e-06 1.03146e-15)
(4.48729e-07 -7.75184e-06 1.47174e-15)
(1.32518e-06 -7.85272e-06 -1.43036e-15)
(2.51581e-06 -8.20099e-06 2.62974e-16)
(-1.91242e-06 -6.64226e-06 7.03641e-16)
(-1.00686e-06 -6.67623e-06 -2.93917e-16)
(-6.43265e-07 -7.23537e-06 6.38964e-17)
(4.33149e-07 -7.01017e-06 -1.11175e-16)
(1.22549e-06 -7.12186e-06 1.74722e-15)
(2.35027e-06 -7.48034e-06 5.85345e-16)
(-1.8069e-06 -5.95535e-06 1.16524e-15)
(-9.35466e-07 -5.98431e-06 6.73137e-16)
(-4.4846e-07 -6.55551e-06 -2.22887e-15)
(4.46958e-07 -6.36897e-06 -1.42322e-15)
(1.16696e-06 -6.46998e-06 -1.08051e-15)
(2.11566e-06 -6.82889e-06 2.50064e-16)
(-1.51078e-06 -5.35474e-06 -1.37788e-15)
(-7.37384e-07 -5.47251e-06 -1.8853e-15)
(-4.14574e-07 -5.96304e-06 -1.11302e-15)
(4.35936e-07 -5.82225e-06 2.91318e-15)
(1.0736e-06 -5.8867e-06 3.96759e-16)
(1.97111e-06 -6.17898e-06 2.95006e-16)
(-1.28938e-06 -4.8404e-06 -1.6828e-16)
(-6.05304e-07 -4.9308e-06 1.19801e-15)
(-2.28316e-07 -5.43238e-06 -6.8038e-16)
(4.46404e-07 -5.29964e-06 -5.54721e-16)
(9.49622e-07 -5.32539e-06 3.39649e-15)
(1.72606e-06 -5.60276e-06 -1.3697e-15)
(-9.82023e-07 -4.34218e-06 1.8482e-15)
(-3.5016e-07 -4.47734e-06 1.39732e-15)
(-1.58284e-07 -4.88813e-06 -2.44645e-15)
(3.42527e-07 -4.74548e-06 7.58274e-16)
(8.02359e-07 -4.77884e-06 -9.80902e-16)
(1.55694e-06 -5.05009e-06 1.0687e-15)
(-7.17921e-07 -3.87676e-06 -1.23999e-15)
(-2.75417e-07 -4.01777e-06 7.98658e-16)
(-1.16097e-07 -4.28782e-06 1.74158e-15)
(3.13366e-07 -4.20609e-06 -2.73662e-15)
(7.13255e-07 -4.28846e-06 1.41607e-15)
(1.38121e-06 -4.57883e-06 2.64381e-15)
(-9.7135e-07 -3.38288e-06 -4.96591e-16)
(-4.56953e-07 -3.4335e-06 4.3484e-16)
(-3.28166e-07 -3.7939e-06 3.70468e-16)
(8.72707e-10 -3.71242e-06 -1.01375e-15)
(2.81621e-07 -3.78992e-06 1.37257e-16)
(6.64589e-07 -3.86036e-06 1.55228e-15)
(1.31204e-06 -4.21041e-06 5.71196e-17)
(-7.38177e-07 -3.09726e-06 1.46588e-15)
(-3.26464e-07 -3.12562e-06 1.99521e-15)
(-2.97966e-07 -3.4388e-06 -1.83369e-15)
(5.24219e-08 -3.37498e-06 -1.12614e-16)
(3.23229e-07 -3.44357e-06 -6.98121e-16)
(6.8205e-07 -3.55214e-06 -7.65315e-16)
(1.20852e-06 -3.864e-06 2.45345e-15)
(-6.17574e-07 -2.8228e-06 -1.30462e-16)
(-2.53067e-07 -2.82868e-06 -1.01753e-15)
(-1.48247e-07 -3.14198e-06 -1.21594e-15)
(1.22999e-07 -3.08167e-06 2.6286e-15)
(3.67289e-07 -3.1626e-06 1.13561e-15)
(6.4921e-07 -3.23525e-06 -3.14479e-15)
(1.11334e-06 -3.52892e-06 -2.31365e-15)
(-4.38613e-07 -2.55443e-06 6.42574e-16)
(-1.21183e-07 -2.56285e-06 -7.64157e-16)
(-9.45679e-08 -2.85871e-06 2.2035e-16)
(1.90954e-07 -2.79937e-06 5.32775e-16)
(3.81207e-07 -2.86391e-06 -1.09198e-15)
(6.08594e-07 -2.9261e-06 -2.18632e-15)
(1.00376e-06 -3.19523e-06 2.52185e-15)
(-3.63312e-07 -2.34013e-06 2.81692e-15)
(-4.25298e-08 -2.30782e-06 5.83727e-17)
(3.6757e-08 -2.6059e-06 -1.8531e-15)
(2.37258e-07 -2.52414e-06 1.48382e-16)
(3.81542e-07 -2.56876e-06 1.29663e-15)
(5.47767e-07 -2.61504e-06 5.96314e-16)
(8.78827e-07 -2.8614e-06 -4.78337e-16)
(-2.54024e-07 -2.15983e-06 -3.40408e-16)
(4.13739e-08 -2.11534e-06 3.26181e-16)
(5.42326e-08 -2.35419e-06 -5.01141e-16)
(2.45934e-07 -2.24174e-06 -7.19057e-16)
(3.3987e-07 -2.26766e-06 4.86213e-16)
(4.76506e-07 -2.30326e-06 -1.13229e-15)
(7.72088e-07 -2.53443e-06 1.82907e-16)
(-2.44685e-07 -2.01898e-06 1.68643e-15)
(3.19798e-08 -1.93144e-06 8.08896e-16)
(6.39766e-08 -2.1659e-06 2.24117e-16)
(2.06073e-07 -2.02127e-06 6.99862e-16)
(3.05186e-07 -2.04096e-06 -5.75978e-17)
(4.22591e-07 -2.06668e-06 8.10101e-16)
(6.79336e-07 -2.27519e-06 -3.77378e-17)
(-2.16344e-07 -1.89596e-06 7.49259e-16)
(2.63021e-08 -1.8314e-06 1.82415e-15)
(1.94011e-08 -2.02177e-06 -5.75327e-16)
(1.79518e-07 -1.87735e-06 -1.08862e-15)
(2.67065e-07 -1.8817e-06 6.13578e-16)
(3.87456e-07 -1.92259e-06 4.74132e-16)
(6.22407e-07 -2.12272e-06 4.45039e-16)
(-2.08203e-07 -1.78142e-06 8.21041e-16)
(6.28377e-09 -1.70827e-06 -8.55023e-16)
(1.84658e-08 -1.88939e-06 -4.58438e-16)
(1.44879e-07 -1.75671e-06 7.71326e-16)
(2.3656e-07 -1.75059e-06 1.90991e-15)
(3.48037e-07 -1.79844e-06 -8.10387e-16)
(5.61004e-07 -1.99499e-06 -2.53896e-15)
(-1.74312e-07 -1.65596e-06 -1.06433e-17)
(-9.92395e-09 -1.62156e-06 -5.17735e-16)
(-5.44986e-09 -1.71182e-06 1.24852e-17)
(1.16828e-07 -1.61519e-06 7.25967e-16)
(1.9248e-07 -1.60103e-06 -1.38602e-16)
(2.93761e-07 -1.63835e-06 -4.51162e-16)
(4.96357e-07 -1.84326e-06 6.02229e-16)
(-2.43461e-07 -1.43714e-06 -1.44218e-15)
(-1.06859e-07 -1.40953e-06 -8.67081e-16)
(-1.42861e-07 -1.5629e-06 -5.64565e-17)
(8.49142e-09 -1.45848e-06 4.67222e-16)
(7.32558e-08 -1.44585e-06 4.40494e-16)
(1.50852e-07 -1.4216e-06 1.30016e-15)
(2.3768e-07 -1.4548e-06 -6.24626e-16)
(4.30361e-07 -1.65099e-06 -1.53131e-15)
(-2.2396e-07 -1.22399e-06 1.55499e-16)
(-1.0998e-07 -1.18683e-06 -3.977e-17)
(-1.09691e-07 -1.33844e-06 -5.04318e-16)
(-1.06268e-08 -1.25445e-06 1.23245e-15)
(4.78886e-08 -1.25157e-06 3.81671e-16)
(1.13168e-07 -1.23261e-06 -1.26853e-15)
(1.8674e-07 -1.26402e-06 -6.36897e-16)
(3.59918e-07 -1.43357e-06 3.2423e-16)
(-1.67335e-07 -1.03199e-06 -9.35331e-16)
(-7.6298e-08 -1.01324e-06 4.77415e-18)
(-1.10073e-07 -1.14326e-06 3.80572e-16)
(-1.05254e-08 -1.07373e-06 -1.37285e-15)
(3.35072e-08 -1.07582e-06 2.70995e-15)
(8.53642e-08 -1.06212e-06 -3.04024e-16)
(1.42011e-07 -1.09225e-06 -1.15036e-15)
(2.86288e-07 -1.24012e-06 1.03808e-15)
(-1.65571e-07 -9.25145e-07 5.25162e-17)
(-5.60281e-08 -8.79409e-07 5.93255e-16)
(-7.51699e-08 -1.02466e-06 7.44858e-16)
(-8.34704e-09 -9.46111e-07 -1.08846e-15)
(2.61221e-08 -9.5192e-07 1.20603e-15)
(6.57651e-08 -9.40009e-07 -6.35073e-16)
(1.07682e-07 -9.66316e-07 -1.47678e-15)
(2.15703e-07 -1.10379e-06 1.68976e-15)
(-1.44098e-07 -8.55082e-07 1.74297e-16)
(-4.8067e-08 -8.14242e-07 6.63967e-16)
(-7.77192e-08 -9.5637e-07 1.31545e-15)
(-2.67112e-09 -8.82727e-07 -2.56967e-17)
(2.29667e-08 -8.89261e-07 -1.89745e-15)
(5.24843e-08 -8.78017e-07 5.56116e-16)
(7.85557e-08 -9.01898e-07 -5.48041e-16)
(1.50598e-07 -1.04278e-06 -3.61693e-16)
(-1.35185e-07 -8.22708e-07 -6.26366e-16)
(-2.35418e-08 -7.77293e-07 -9.79116e-16)
(-3.49125e-08 -9.22777e-07 3.07383e-16)
(3.45143e-09 -8.53528e-07 1.49008e-15)
(2.10272e-08 -8.59215e-07 2.82956e-16)
(3.99366e-08 -8.4634e-07 -5.88833e-16)
(5.54232e-08 -8.6909e-07 1.3325e-16)
(9.8988e-08 -1.02475e-06 8.44332e-16)
(-9.41508e-08 -8.12495e-07 1.59277e-15)
(-1.64079e-08 -7.79169e-07 4.65306e-16)
(-4.18521e-08 -9.3624e-07 -1.3097e-15)
(4.87545e-09 -8.67845e-07 1.39633e-16)
(1.44412e-08 -8.75965e-07 -9.35905e-16)
(2.45395e-08 -8.6807e-07 -3.36777e-16)
(2.21358e-08 -9.01319e-07 1.74059e-15)
(3.39927e-08 -1.05947e-06 -1.12692e-16)
(-5.98044e-08 -7.74898e-07 -1.05417e-15)
(2.53133e-08 -7.1823e-07 -4.73444e-16)
(1.08334e-08 -9.01266e-07 1.00519e-15)
(1.50462e-08 -8.23616e-07 -4.35868e-16)
(1.71985e-08 -8.30398e-07 -3.63241e-16)
(1.54426e-08 -8.21236e-07 1.22523e-15)
(4.45943e-09 -8.61044e-07 -8.85005e-17)
(6.16162e-10 -1.03925e-06 -8.54984e-16)
(-3.17954e-08 -7.91035e-07 -6.32217e-16)
(7.77655e-09 -7.6542e-07 -1.25381e-15)
(2.41967e-10 -8.39166e-07 -6.62605e-16)
(4.20159e-09 -7.9382e-07 2.37662e-15)
(4.37139e-10 -7.94887e-07 -1.31034e-16)
(-8.53783e-09 -7.96152e-07 -6.26944e-16)
(-3.13297e-08 -8.54226e-07 -8.63898e-16)
(-7.5596e-08 -1.01847e-06 -3.35963e-15)
(0.0287384 0.0115659 -1.46536e-14)
(-0.00575766 -0.00348671 1.77504e-14)
(-0.00319062 -0.00372509 -9.39078e-14)
(-0.0017715 -0.00320387 1.65232e-14)
(-0.000708768 -0.00267343 3.68573e-14)
(-0.00056361 -0.00251641 -1.78214e-14)
(-0.000703684 -0.00223766 -5.62557e-14)
(-0.000468658 -0.0017306 3.64499e-15)
(-0.000376399 -0.00166552 4.8752e-15)
(-0.000317041 -0.00146123 -2.5565e-14)
(-0.000257713 -0.00128387 -1.26902e-14)
(-0.000209182 -0.00112458 3.63748e-14)
(-0.00016771 -0.000983593 5.63618e-14)
(-0.000132669 -0.000859465 -3.53963e-14)
(-0.000102977 -0.000749932 2.21681e-14)
(-7.81822e-05 -0.000654456 9.86773e-15)
(-5.74051e-05 -0.000570792 -4.68416e-14)
(-4.03137e-05 -0.000498418 3.68817e-14)
(-2.62366e-05 -0.000435029 -5.08532e-14)
(-1.49237e-05 -0.000380466 3.02209e-14)
(-5.76428e-06 -0.000333238 -8.06951e-15)
(1.40425e-06 -0.000292771 1.88445e-15)
(7.02597e-06 -0.000257463 1.08737e-14)
(1.12247e-05 -0.000227182 -9.95623e-15)
(1.43929e-05 -0.000200832 -2.99903e-15)
(1.65889e-05 -0.000178138 -4.26608e-15)
(1.80988e-05 -0.000158118 1.61446e-14)
(1.89365e-05 -0.000140658 -1.03327e-14)
(1.93549e-05 -0.000125112 1.22502e-14)
(1.93264e-05 -0.00011144 2.20399e-15)
(1.90736e-05 -9.92031e-05 -1.40426e-14)
(1.8537e-05 -8.84007e-05 -1.23058e-14)
(1.7902e-05 -7.87155e-05 1.19056e-14)
(1.70957e-05 -7.01767e-05 8.64769e-15)
(1.62864e-05 -6.25109e-05 -2.95928e-15)
(1.53741e-05 -5.57595e-05 5.9929e-15)
(1.44979e-05 -4.97001e-05 -1.71092e-15)
(1.35488e-05 -4.4402e-05 -1.18968e-14)
(1.27121e-05 -3.95723e-05 3.52784e-15)
(1.17847e-05 -3.53386e-05 -2.028e-16)
(1.09562e-05 -3.14887e-05 -7.94667e-16)
(1.00553e-05 -2.8126e-05 6.57807e-15)
(9.27443e-06 -2.50718e-05 -4.84495e-15)
(8.42833e-06 -2.24153e-05 -8.18215e-16)
(7.71624e-06 -2.0011e-05 7.70526e-16)
(6.94869e-06 -1.79317e-05 5.91749e-15)
(6.31694e-06 -1.60611e-05 -2.64755e-15)
(5.63759e-06 -1.44474e-05 5.59072e-15)
(5.08211e-06 -1.29983e-05 -1.04799e-15)
(4.49093e-06 -1.17385e-05 1.48374e-15)
(3.99836e-06 -1.06053e-05 1.41614e-15)
(3.47612e-06 -9.60609e-06 2.8896e-16)
(3.04519e-06 -8.77479e-06 1.53606e-15)
(2.64131e-06 -8.05975e-06 1.86654e-15)
(2.3052e-06 -7.41015e-06 -1.04591e-15)
(2.02899e-06 -6.80817e-06 -3.69632e-16)
(1.83828e-06 -6.17002e-06 -1.36931e-15)
(1.64687e-06 -5.57856e-06 1.99265e-15)
(1.51728e-06 -4.96319e-06 -3.96577e-15)
(1.35533e-06 -4.48735e-06 1.23541e-15)
(1.25794e-06 -4.06047e-06 -4.68287e-15)
(1.13841e-06 -3.7015e-06 -2.02098e-15)
(1.02575e-06 -3.39088e-06 1.71059e-16)
(9.15976e-07 -3.06813e-06 3.04072e-15)
(8.00494e-07 -2.74812e-06 3.48977e-15)
(6.8177e-07 -2.4496e-06 -7.68466e-16)
(5.89127e-07 -2.15376e-06 -2.94972e-15)
(5.35489e-07 -1.90496e-06 -1.35036e-15)
(5.04133e-07 -1.76788e-06 1.87339e-15)
(4.64195e-07 -1.63209e-06 5.28598e-15)
(4.33266e-07 -1.49478e-06 -2.39356e-15)
(4.08679e-07 -1.34452e-06 2.02679e-15)
(3.75373e-07 -1.16603e-06 -1.70054e-15)
(3.17499e-07 -9.94093e-07 -7.02317e-16)
(2.4608e-07 -8.93465e-07 -8.05709e-16)
(1.52057e-07 -8.73514e-07 3.81717e-15)
(1.0085e-07 -8.7119e-07 -3.98552e-16)
(4.12683e-08 -8.67234e-07 2.29185e-16)
(3.47714e-08 -8.04308e-07 8.96849e-16)
(-1.34138e-07 -7.58088e-07 9.78966e-15)
(0.020448 0.000364211 3.87807e-15)
(0.00378858 -0.000440592 -4.31355e-15)
(0.00163188 -0.000647708 1.90282e-14)
(0.00109939 -0.00101304 -3.98096e-15)
(0.00121437 -0.000620703 -6.10627e-15)
(0.000929154 -0.00055589 1.92137e-15)
(0.00079949 -0.000971255 1.03927e-14)
(0.000721986 -0.000794987 -6.27078e-16)
(0.000646206 -0.000709875 -7.38804e-16)
(0.000568767 -0.000663421 3.52989e-15)
(0.000499534 -0.000617635 3.86387e-15)
(0.000437963 -0.000572658 -7.55445e-15)
(0.000383177 -0.000529181 -1.00663e-14)
(0.000334354 -0.00048662 6.31335e-15)
(0.000291293 -0.000445762 -3.51154e-15)
(0.000253224 -0.000406442 -2.51067e-15)
(0.000219953 -0.000369141 7.9047e-15)
(0.000190763 -0.000333876 -6.18702e-15)
(0.000165508 -0.000300878 9.16679e-15)
(0.000143497 -0.000270312 -5.8185e-15)
(0.000124567 -0.000242251 1.02442e-15)
(0.000108103 -0.000216767 -1.8914e-16)
(9.40101e-05 -0.000193642 -1.44313e-15)
(8.17684e-05 -0.000172987 8.80282e-16)
(7.12866e-05 -0.000154418 8.80477e-16)
(6.21596e-05 -0.00013793 1.41187e-15)
(5.43426e-05 -0.000123163 -3.25432e-15)
(4.75163e-05 -0.000110032 2.13313e-15)
(4.16675e-05 -9.8208e-05 -2.6374e-15)
(3.65498e-05 -8.7666e-05 -1.36687e-16)
(3.21651e-05 -7.81565e-05 2.30015e-15)
(2.83115e-05 -6.96863e-05 2.41258e-15)
(2.50062e-05 -6.2038e-05 -2.59776e-15)
(2.20913e-05 -5.52575e-05 -1.28321e-15)
(1.95826e-05 -4.91354e-05 1.2966e-15)
(1.73548e-05 -4.37226e-05 -1.35354e-15)
(1.54434e-05 -3.88145e-05 1.47415e-16)
(1.36719e-05 -3.45852e-05 1.87508e-15)
(1.21594e-05 -3.07155e-05 -4.04005e-16)
(1.0798e-05 -2.72868e-05 4.4279e-16)
(9.60905e-06 -2.41735e-05 6.25509e-16)
(8.51397e-06 -2.14484e-05 -1.92679e-15)
(7.55975e-06 -1.89975e-05 9.36326e-16)
(6.66675e-06 -1.68646e-05 4.48717e-16)
(5.89828e-06 -1.49612e-05 -1.11693e-15)
(5.16914e-06 -1.33114e-05 -7.93026e-16)
(4.55287e-06 -1.1855e-05 8.67858e-17)
(3.95433e-06 -1.0587e-05 -2.06567e-16)
(3.45938e-06 -9.467e-06 -3.60993e-16)
(2.9676e-06 -8.47399e-06 6.51131e-16)
(2.57306e-06 -7.59111e-06 -6.80005e-16)
(2.15841e-06 -6.83896e-06 1.20885e-15)
(1.85399e-06 -6.19969e-06 2.6016e-16)
(1.47578e-06 -5.68376e-06 -1.44137e-16)
(1.21493e-06 -5.22602e-06 4.27736e-16)
(9.17904e-07 -4.8331e-06 9.34414e-16)
(7.50276e-07 -4.40397e-06 2.08969e-16)
(6.03809e-07 -3.95358e-06 1.31795e-16)
(5.36268e-07 -3.51894e-06 1.87777e-15)
(5.06543e-07 -3.10932e-06 -1.41436e-15)
(4.39918e-07 -2.79155e-06 -7.77791e-16)
(3.75205e-07 -2.51557e-06 -1.48481e-15)
(3.12729e-07 -2.2646e-06 -9.69543e-16)
(2.32281e-07 -2.02625e-06 -2.74751e-15)
(1.64248e-07 -1.78421e-06 -8.19263e-16)
(1.08493e-07 -1.56124e-06 -2.07353e-16)
(6.86258e-08 -1.36481e-06 6.69776e-16)
(9.24612e-08 -1.18609e-06 5.13558e-16)
(1.10796e-07 -1.04962e-06 -9.12827e-16)
(1.13065e-07 -9.35619e-07 -2.93806e-16)
(1.1093e-07 -8.24474e-07 8.62356e-16)
(1.20207e-07 -7.01678e-07 -3.37761e-16)
(1.2648e-07 -5.76089e-07 -5.07701e-16)
(1.2997e-07 -4.73092e-07 7.984e-16)
(1.19484e-07 -4.13851e-07 5.8863e-17)
(6.43654e-08 -4.10962e-07 -5.3725e-16)
(6.25004e-08 -3.942e-07 1.16848e-15)
(6.31688e-08 -3.65847e-07 -2.37684e-16)
(8.96112e-08 -2.57582e-07 -1.53249e-16)
(-9.5125e-08 -2.62139e-07 4.13602e-16)
(0.0019337 0.0010541 -1.25388e-16)
(0.000931591 0.000954528 -7.02832e-17)
(0.000719286 0.000838268 -8.5385e-17)
(0.000734538 0.000646529 1.09604e-16)
(0.000765899 0.000560591 -2.41246e-16)
(0.000746785 0.000634673 -1.69393e-16)
(0.000707033 0.000576689 1.61923e-17)
(0.000657652 0.000391102 -2.08779e-16)
(0.000618548 0.000320532 -2.36635e-16)
(0.000575444 0.000258063 1.0781e-16)
(0.000533154 0.000199001 -2.45458e-16)
(0.000491887 0.000147025 -2.05147e-16)
(0.00045197 0.000101413 1.78235e-16)
(0.000413577 6.23235e-05 3.57707e-16)
(0.000376985 2.91862e-05 -1.90593e-16)
(0.000342283 1.79703e-06 1.89411e-16)
(0.000309651 -2.06178e-05 9.73153e-17)
(0.000279102 -3.82398e-05 -1.27944e-17)
(0.000250743 -5.18057e-05 -3.799e-17)
(0.000224518 -6.18212e-05 1.52368e-16)
(0.000200449 -6.88965e-05 7.16322e-16)
(0.000178428 -7.35171e-05 -3.43114e-17)
(0.00015844 -7.59735e-05 2.03537e-16)
(0.000140347 -7.68569e-05 8.66853e-17)
(0.000124076 -7.63766e-05 -1.12857e-16)
(0.000109473 -7.48961e-05 -1.89403e-16)
(9.64614e-05 -7.25285e-05 -4.93113e-16)
(8.48763e-05 -6.95618e-05 -8.84188e-18)
(7.46322e-05 -6.6094e-05 1.30356e-18)
(6.55745e-05 -6.23278e-05 1.85324e-16)
(5.76177e-05 -5.83423e-05 2.37411e-16)
(5.06218e-05 -5.43039e-05 -1.10035e-15)
(4.44968e-05 -5.02601e-05 -1.24147e-15)
(3.91334e-05 -4.63248e-05 -6.14867e-16)
(3.44411e-05 -4.25064e-05 2.37189e-16)
(3.03416e-05 -3.88978e-05 6.74021e-16)
(2.67591e-05 -3.54324e-05 1.85394e-18)
(2.36266e-05 -3.22312e-05 1.51619e-16)
(2.08503e-05 -2.92198e-05 4.91864e-16)
(1.84254e-05 -2.64645e-05 5.03368e-16)
(1.62649e-05 -2.38816e-05 4.43881e-17)
(1.43815e-05 -2.15652e-05 -2.36024e-16)
(1.2689e-05 -1.94224e-05 -1.62156e-16)
(1.12154e-05 -1.75248e-05 -7.96104e-16)
(9.88393e-06 -1.57934e-05 -1.40162e-15)
(8.7274e-06 -1.42712e-05 -6.92531e-16)
(7.68076e-06 -1.28985e-05 -2.66286e-16)
(6.77022e-06 -1.1689e-05 9.38522e-16)
(5.95052e-06 -1.0601e-05 1.38098e-15)
(5.23372e-06 -9.62827e-06 -3.26977e-17)
(4.59949e-06 -8.74332e-06 4.27559e-16)
(4.03847e-06 -7.95626e-06 -1.54511e-15)
(3.52656e-06 -7.27899e-06 -1.20151e-15)
(3.05112e-06 -6.70565e-06 1.63409e-16)
(2.57845e-06 -6.24417e-06 -8.58506e-16)
(2.17464e-06 -5.81928e-06 -2.68471e-16)
(1.78847e-06 -5.41902e-06 -3.01888e-16)
(1.51701e-06 -4.97723e-06 6.05243e-16)
(1.3144e-06 -4.51939e-06 2.97668e-15)
(1.17586e-06 -4.07157e-06 5.48485e-16)
(1.06367e-06 -3.66388e-06 3.30914e-15)
(9.47626e-07 -3.33382e-06 1.40984e-16)
(8.17998e-07 -3.04073e-06 3.43944e-16)
(6.9811e-07 -2.74994e-06 -1.47832e-15)
(5.84934e-07 -2.46661e-06 -2.43393e-16)
(4.91214e-07 -2.20042e-06 8.266e-16)
(4.19525e-07 -1.96023e-06 -3.29692e-16)
(3.85805e-07 -1.76013e-06 6.27211e-16)
(3.7457e-07 -1.60967e-06 -2.15459e-16)
(3.56909e-07 -1.47048e-06 -6.75779e-16)
(3.27929e-07 -1.33557e-06 -9.31595e-16)
(2.90747e-07 -1.17901e-06 4.86591e-16)
(2.58424e-07 -1.00007e-06 1.62723e-15)
(2.41853e-07 -8.38512e-07 -1.57743e-15)
(2.26649e-07 -7.19234e-07 5.89779e-17)
(1.37599e-07 -6.8661e-07 -1.0205e-16)
(1.44203e-07 -6.63871e-07 -2.62292e-15)
(1.49452e-07 -6.65236e-07 2.06787e-15)
(1.31533e-07 -5.99411e-07 -2.08178e-17)
(-4.29011e-08 -6.50923e-07 -3.54632e-15)
(0.000681735 0.000352104 2.70367e-17)
(0.000416259 0.000301706 -3.3457e-17)
(0.000237132 0.000271198 2.89867e-18)
(0.000174086 0.000219703 -6.76535e-17)
(0.000192489 0.000244793 2.68819e-17)
(0.000204793 0.000254512 1.93393e-17)
(0.000202716 0.000237111 -1.76129e-17)
(0.000214444 0.00024082 -1.54368e-17)
(0.000221828 0.00023053 -1.57881e-16)
(0.000226241 0.000219188 -7.84587e-18)
(0.000228578 0.000204964 1.37247e-16)
(0.000228962 0.00018937 -1.08852e-17)
(0.000227421 0.0001723 5.45675e-17)
(0.000224046 0.000154845 -1.59514e-17)
(0.000218979 0.000136947 -3.65361e-19)
(0.000212393 0.000119348 -1.82595e-16)
(0.000204495 0.000101926 -3.46966e-16)
(0.000195494 8.53313e-05 -3.55191e-16)
(0.000185613 6.96038e-05 1.66721e-16)
(0.000175078 5.49739e-05 -2.76101e-17)
(0.000164088 4.15097e-05 5.20205e-16)
(0.000152844 2.91566e-05 -1.31791e-16)
(0.000141516 1.81507e-05 -3.68011e-16)
(0.000130313 8.37839e-06 2.92306e-16)
(0.000119337 -7.69109e-09 -5.09489e-17)
(0.000108743 -7.17327e-06 5.96324e-18)
(9.85979e-05 -1.30534e-05 -1.22703e-16)
(8.90352e-05 -1.77868e-05 -2.48795e-17)
(8.00634e-05 -2.13426e-05 4.52307e-17)
(7.17626e-05 -2.39125e-05 9.61487e-17)
(6.41098e-05 -2.55454e-05 4.51129e-16)
(5.7139e-05 -2.64425e-05 5.01508e-17)
(5.07988e-05 -2.66816e-05 3.21444e-16)
(4.50878e-05 -2.64446e-05 -2.00858e-16)
(3.99447e-05 -2.57798e-05 8.13445e-18)
(3.53486e-05 -2.48489e-05 7.78843e-17)
(3.12499e-05 -2.36501e-05 -5.12847e-16)
(2.76015e-05 -2.23518e-05 -1.94797e-16)
(2.43422e-05 -2.09298e-05 4.20312e-16)
(2.14583e-05 -1.95083e-05 -7.06496e-17)
(1.88954e-05 -1.80435e-05 -1.78453e-16)
(1.66391e-05 -1.66566e-05 4.9205e-16)
(1.46338e-05 -1.52932e-05 6.30281e-16)
(1.28766e-05 -1.40504e-05 7.65207e-16)
(1.13144e-05 -1.28649e-05 4.08719e-16)
(9.95211e-06 -1.18055e-05 1.8871e-16)
(8.74041e-06 -1.08168e-05 9.26078e-16)
(7.68636e-06 -9.93621e-06 -1.86329e-16)
(6.75129e-06 -9.11974e-06 -1.8381e-16)
(5.94031e-06 -8.37907e-06 -1.60858e-15)
(5.22591e-06 -7.69224e-06 2.98963e-16)
(4.60883e-06 -7.04616e-06 1.84164e-15)
(4.05325e-06 -6.4879e-06 -1.68106e-15)
(3.5426e-06 -5.98485e-06 -2.64757e-16)
(3.05918e-06 -5.58145e-06 2.5005e-16)
(2.58364e-06 -5.24923e-06 -7.89648e-16)
(2.15462e-06 -4.92592e-06 2.9153e-16)
(1.7734e-06 -4.61501e-06 -1.46659e-15)
(1.50196e-06 -4.2547e-06 -1.6982e-15)
(1.30609e-06 -3.87033e-06 -1.53515e-16)
(1.1462e-06 -3.50632e-06 -1.69802e-15)
(9.969e-07 -3.1805e-06 4.94796e-17)
(8.59864e-07 -2.89588e-06 -3.89769e-16)
(7.22704e-07 -2.62904e-06 3.97917e-15)
(6.0571e-07 -2.36144e-06 6.34449e-16)
(5.19196e-07 -2.11164e-06 -8.2989e-17)
(4.42869e-07 -1.89009e-06 5.68437e-16)
(3.98472e-07 -1.70626e-06 -3.03851e-16)
(3.72201e-07 -1.56488e-06 7.13113e-16)
(3.45103e-07 -1.42878e-06 2.04472e-15)
(3.13797e-07 -1.28894e-06 1.64681e-15)
(2.74697e-07 -1.13258e-06 1.23135e-15)
(2.42121e-07 -9.63489e-07 4.16471e-16)
(2.32737e-07 -8.08826e-07 4.68258e-17)
(2.28787e-07 -6.67891e-07 -2.15139e-18)
(1.39267e-07 -6.33353e-07 5.31748e-16)
(1.49708e-07 -6.31456e-07 -4.11477e-15)
(1.56375e-07 -6.39788e-07 -3.4417e-15)
(1.1726e-07 -5.80296e-07 5.97678e-17)