/*--------------------------------*- C++ -*----------------------------------*\
| =========                 |                                                 |
| \\      /  F ield         | OpenFOAM: The Open Source CFD Toolbox           |
|  \\    /   O peration     | Version:  2306                                  |
|   \\  /    A nd           | Website:  www.openfoam.com                      |
|    \\/     M anipulation  |                                                 |
\*---------------------------------------------------------------------------*/
FoamFile
{
    version     2.0;
    format      ascii;
    arch        "LSB;label=32;scalar=64";
    class       volScalarField;
    location    "825";
    object      turbulenceProperties:L;
}
// * * * * * * * * * * * * * * * * * * * * * * * * * * * * * * * * * * * * * //

dimensions      [0 1 0 0 0 0 0];

internalField   nonuniform List<scalar> 
1340
(
0.0560831
0.0562072
0.0564335
0.0565273
0.212398
0.207405
0.198332
0.175243
0.25886
0.261727
0.27318
0.246069
0.234642
0.245767
0.257586
0.24244
0.0517131
0.104075
0.113516
0.1923
0.0368998
0.059558
0.0620463
0.0995372
0.0979822
0.351733
0
0.0513272
0.0500426
0.0591206
0.284887
0
0.043643
0.0421697
0.0402121
0.408389
0.0475609
0.0478598
0.037338
0.0587993
0.0472696
0.0473331
0.0398973
0.0353489
0.0490727
0.0487935
0.0430425
0.0339929
0.0500327
0.049683
0.0448505
0.0355277
0.0514862
0.05126
0.0466192
0.0374579
0.0529081
0.0528152
0.0484721
0.0394408
0.054572
0.0546263
0.050549
0.0415406
0.0563956
0.056615
0.0528072
0.0438186
0.0584511
0.0588613
0.0552804
0.0463042
0.0607558
0.0613896
0.0580025
0.0490227
0.0633566
0.0642571
0.0610065
0.0519855
0.0663027
0.0675265
0.0643503
0.0552271
0.0696596
0.0712756
0.0680906
0.0587741
0.0735066
0.0756151
0.0723028
0.0626531
0.077944
0.0806812
0.077091
0.0669084
0.0831059
0.0866735
0.0825665
0.0715674
0.0891638
0.0938696
0.0888864
0.0766736
0.096345
0.102683
0.0962379
0.0822533
0.104949
0.113773
0.104859
0.0883285
0.115363
0.128248
0.115008
0.0948888
0.128025
0.148186
0.126918
0.101871
0.14326
0.178185
0.14058
0.109139
0.160583
0.231147
0.155271
0.116444
0.177089
0.371303
0.16876
0.123426
0.186644
0.537522
0.177408
0.12966
0.18548
0.284888
0.178995
0.134772
0.177441
0.222671
0.175101
0.13856
0.167975
0.192856
0.168955
0.141073
0.159668
0.175352
0.162778
0.142558
0.136149
0.153118
0.1641
0.157497
0.143351
0.135134
0.148232
0.156564
0.15335
0.143779
0.134388
0.144761
0.151477
0.150299
0.1441
0.134039
0.142467
0.148132
0.148233
0.144501
0.134144
0.141157
0.146099
0.147026
0.145101
0.134723
0.140682
0.145102
0.146575
0.145976
0.135771
0.140929
0.144958
0.146794
0.147173
0.137277
0.141814
0.145534
0.147609
0.148712
0.139228
0.143272
0.146742
0.148971
0.150608
0.141607
0.145252
0.148514
0.150837
0.152868
0.144405
0.147722
0.150804
0.153176
0.155493
0.147615
0.150658
0.153583
0.155971
0.158493
0.15124
0.154049
0.156833
0.159214
0.161877
0.155294
0.157902
0.160558
0.162911
0.165664
0.157437
0.159801
0.162235
0.16477
0.167082
0.169886
0.162609
0.164799
0.167078
0.169501
0.171758
0.17458
0.168285
0.170322
0.172463
0.17478
0.176971
0.17979
0.174495
0.176396
0.178411
0.180627
0.182744
0.185543
0.181241
0.183021
0.18492
0.187039
0.189074
0.191844
0.188499
0.190166
0.191958
0.193985
0.195933
0.198669
0.196233
0.197799
0.199491
0.201429
0.203288
0.205981
0.204454
0.205927
0.207526
0.209378
0.211146
0.213785
0.213258
0.214649
0.216162
0.217929
0.219602
0.22217
0.221641
0.222854
0.224173
0.225607
0.227288
0.228859
0.231337
0.232329
0.233492
0.23475
0.236107
0.237698
0.239153
0.241528
0.244277
0.245403
0.246606
0.24789
0.24939
0.250711
0.252976
0.257578
0.258676
0.259828
0.261039
0.262446
0.26361
0.265768
0.272247
0.273324
0.274433
0.275572
0.276888
0.277885
0.279963
0.287946
0.289018
0.290092
0.29115
0.292349
0.293144
0.295071
0.303276
0.304397
0.305489
0.306522
0.307664
0.308295
0.310035
0.31756
0.318784
0.319953
0.321039
0.322218
0.32279
0.324476
0.332296
0.33367
0.334971
0.336164
0.33743
0.337996
0.339663
0.348644
0.350187
0.35165
0.352964
0.354333
0.354913
0.356586
0.365534
0.367608
0.369519
0.371271
0.372777
0.374216
0.37459
0.375466
0.387668
0.390638
0.393487
0.396172
0.398592
0.400909
0.402468
0.405039
0.422276
0.426353
0.429969
0.433042
0.43533
0.436745
0.434857
0.430538
0.490598
0.503276
0.515757
0.527562
0.538352
0.547932
0.556049
0.568842
0.548467
0.553499
0.55495
0.552388
0.544289
0.53058
0.501687
0.466616
0.519243
0.520596
0.522289
0.5247
0.526609
0.518993
0.478318
0.443615
0.316316
0.310585
0.305843
0.301651
0.297015
0.290542
0.276235
0.265821
0.23081
0.230453
0.230198
0.230027
0.22991
0.229525
0.227244
0.232789
0.166989
0.166961
0.167007
0.167095
0.167283
0.16738
0.168066
0.174489
0.142993
0.18059
0.229079
0.222605
0.157159
0.0545086
0.0289614
0
0.358887
0.0454915
0.0330632
0.0331273
0.0347722
0.0365699
0.0383971
0.0403309
0.042426
0.0446983
0.0471573
0.0498231
0.0527093
0.0558327
0.0592096
0.062854
0.0667822
0.071001
0.0755136
0.0803138
0.0853804
0.0906727
0.0961257
0.101648
0.107125
0.112422
0.117406
0.121966
0.12603
0.129583
0.132663
0.135346
0.137736
0.13994
0.142059
0.144183
0.146387
0.148729
0.151256
0.154006
0.157007
0.160289
0.16388
0.167812
0.172129
0.176877
0.182105
0.187846
0.194109
0.200874
0.20811
0.215826
0.224114
0.233173
0.243235
0.254522
0.267112
0.281086
0.295895
0.310572
0.324736
0.339666
0.356403
0.374632
0.404812
0.425769
0.574226
0.446831
0.465068
0.26824
0.247667
0.185171
0.218261
0.22201
0.253797
0.259782
0.16543
0.0495252
0.0320672
1.76199
0.19281
0.0479422
0.0433065
0.0439748
0.0453514
0.0467005
0.0480578
0.0495184
0.0511185
0.0528803
0.0548022
0.0569037
0.0591934
0.0616866
0.0643964
0.0673209
0.0704731
0.0738571
0.0774664
0.0812911
0.085319
0.0895225
0.093867
0.0983066
0.102788
0.107249
0.111625
0.11586
0.119903
0.123721
0.127306
0.130663
0.13382
0.136823
0.139717
0.14256
0.145405
0.148302
0.151298
0.154435
0.15775
0.161281
0.165064
0.169141
0.173563
0.178383
0.183651
0.189405
0.195655
0.202382
0.209563
0.217216
0.225438
0.23443
0.244418
0.25561
0.268067
0.281882
0.296526
0.311105
0.325135
0.339867
0.356472
0.374502
0.404697
0.424547
0.576918
0.436284
0.497039
0.267744
0.248802
0.183085
0.277289
0.26047
0.258701
0.246188
0.0868083
0.0420773
0.0958315
0.698979
0.0880206
0.0553982
0.055897
0.0573812
0.059007
0.0604705
0.0619172
0.0634253
0.0649956
0.0666435
0.0683824
0.0701932
0.0721022
0.074113
0.0762477
0.0784979
0.0808804
0.0834148
0.0861001
0.0889366
0.0919328
0.0950786
0.0983649
0.101775
0.105286
0.108869
0.112493
0.116127
0.119737
0.123298
0.126792
0.130208
0.133545
0.136817
0.140039
0.143239
0.146448
0.149696
0.15302
0.156452
0.160027
0.163782
0.167752
0.171985
0.176532
0.18145
0.186791
0.192591
0.198864
0.205589
0.212751
0.220374
0.228566
0.237529
0.247489
0.258642
0.271034
0.28476
0.299319
0.313845
0.32774
0.342216
0.358638
0.376436
0.40642
0.42583
0.573223
0.432097
0.514412
0.268846
0.251336
0.182859
0.319296
0.292428
0.252923
0.137058
0.0723412
6.17685
1.99239
0.231772
0.0734448
0.0665584
0.0688767
0.0701727
0.0715424
0.0727783
0.0740922
0.0755025
0.0769758
0.0785254
0.0801499
0.0818211
0.0835656
0.085361
0.0872218
0.0891523
0.0911482
0.093222
0.0953843
0.0976365
0.0999892
0.102446
0.105012
0.107689
0.110471
0.113355
0.116333
0.119389
0.122511
0.125685
0.128897
0.132138
0.135399
0.138677
0.141981
0.145314
0.148692
0.152131
0.155655
0.159282
0.163042
0.166964
0.171082
0.175443
0.180096
0.185098
0.190502
0.196343
0.202632
0.209352
0.21649
0.224078
0.232234
0.241162
0.251081
0.262182
0.274494
0.288111
0.302544
0.316925
0.330597
0.344762
0.360919
0.378363
0.407892
0.426735
0.564887
0.429142
0.522829
0.270207
0.254602
0.183533
0.35066
0.312825
0.19893
0.151613
0
8.16121
0.960363
0.102387
0.0769364
0.0779569
0.0800019
0.0806709
0.0814401
0.0821394
0.0829549
0.0838554
0.0848463
0.0859511
0.0871529
0.0884615
0.089889
0.0914259
0.0930618
0.0948176
0.0966775
0.0986255
0.10068
0.102825
0.105055
0.107373
0.109775
0.112263
0.114828
0.117479
0.120211
0.123018
0.125905
0.128863
0.131892
0.13499
0.138149
0.141372
0.144664
0.148022
0.151456
0.154975
0.158593
0.162322
0.166184
0.170204
0.17441
0.178847
0.183562
0.188608
0.19404
0.199888
0.206161
0.212846
0.219933
0.22746
0.235551
0.244411
0.25425
0.26525
0.277418
0.290854
0.305082
0.319235
0.332617
0.346435
0.362266
0.379285
0.408169
0.426186
0.554045
0.424557
0.529194
0.270148
0.256365
0.183619
0.375893
0.321111
0.405394
0
1.73057
8.719
0.14187
0.087971
0.0849792
0.0879145
0.0889691
0.0893664
0.0899203
0.0904881
0.0911697
0.0919117
0.0927513
0.093685
0.0946923
0.0957953
0.0969907
0.0982841
0.099665
0.101156
0.102748
0.104435
0.106242
0.108149
0.110163
0.112285
0.114508
0.116835
0.119253
0.121766
0.124371
0.127055
0.129827
0.132675
0.135604
0.138614
0.141697
0.144864
0.148117
0.151453
0.154886
0.158417
0.16206
0.165823
0.169723
0.173782
0.178024
0.182493
0.18723
0.192287
0.197716
0.203544
0.209776
0.216401
0.223415
0.230862
0.238869
0.247639
0.257374
0.268237
0.280222
0.293432
0.307415
0.321303
0.334349
0.347791
0.363247
0.379793
0.407914
0.424923
0.542435
0.419184
0.537022
0.269548
0.393517
0.205933
0.0766941
0
1.57184
0.194549
0.102922
0.0963702
0.0989022
0.100814
0.10085
0.100958
0.101204
0.101508
0.101925
0.102404
0.102992
0.10368
0.104449
0.105317
0.106276
0.107333
0.108492
0.109744
0.111085
0.112532
0.114082
0.11572
0.117465
0.119311
0.121258
0.123314
0.125469
0.12773
0.130095
0.132561
0.13513
0.137794
0.140561
0.143425
0.146383
0.149446
0.152607
0.155872
0.159249
0.162738
0.166351
0.170095
0.173983
0.178035
0.182273
0.186734
0.19146
0.196501
0.2019
0.207684
0.213856
0.220403
0.227329
0.234683
0.242594
0.251259
0.260872
0.271579
0.283354
0.296313
0.310027
0.323614
0.336281
0.349311
0.364339
0.380357
0.407608
0.423453
0.530656
0.413941
0.443906
0.174789
0
2.56165
0.300438
0.118817
0.109118
0.111438
0.113755
0.11393
0.113498
0.113396
0.113385
0.113464
0.113651
0.11392
0.114298
0.114774
0.115339
0.116002
0.116758
0.117606
0.118557
0.119597
0.120721
0.12195
0.123271
0.124679
0.126187
0.127789
0.129487
0.131289
0.133188
0.13519
0.1373
0.139515
0.14184
0.144274
0.146822
0.149484
0.15226
0.155156
0.15817
0.161308
0.164576
0.167969
0.171503
0.17518
0.17901
0.183012
0.187203
0.191621
0.196302
0.201294
0.206635
0.212348
0.218436
0.224885
0.231704
0.238946
0.246743
0.255285
0.264753
0.275279
0.286813
0.299489
0.312898
0.326134
0.338373
0.350951
0.365494
0.380927
0.407175
0.421729
0.181814
0
5.75788
0.684
0.131243
0.12139
0.124078
0.126684
0.126831
0.126001
0.125429
0.125093
0.124842
0.124714
0.124699
0.124796
0.125009
0.125323
0.12574
0.126264
0.126889
0.127607
0.128417
0.129329
0.130324
0.131407
0.132583
0.133846
0.135199
0.136638
0.138172
0.139802
0.141518
0.14334
0.145261
0.147282
0.149414
0.151654
0.154008
0.156481
0.159076
0.161795
0.164647
0.167633
0.170758
0.174024
0.177442
0.181013
0.184747
0.188659
0.192767
0.197105
0.201705
0.206612
0.211863
0.217474
0.223447
0.229772
0.236459
0.243565
0.251224
0.259617
0.268909
0.279216
0.29047
0.302821
0.315879
0.328703
0.340471
0.352562
0.366562
0
0.586789
9.36536
0.157316
0.132431
0.138429
0.140692
0.140749
0.139501
0.138425
0.137699
0.137102
0.136621
0.136286
0.136074
0.135977
0.13601
0.136162
0.136425
0.1368
0.137283
0.137869
0.13855
0.139335
0.140207
0.141166
0.142221
0.14336
0.144585
0.145894
0.147298
0.148789
0.150362
0.15204
0.153811
0.155678
0.157654
0.159733
0.161927
0.164237
0.166669
0.169229
0.171921
0.174753
0.17773
0.180853
0.184135
0.187576
0.191186
0.194979
0.198972
0.203196
0.207681
0.212471
0.217595
0.223071
0.228899
0.235069
0.241597
0.248541
0.256034
0.264245
0.273326
0.283373
0.2943
0.306281
0
1.45839
0.184579
0.146321
0.152852
0.156721
0.155759
0.15421
0.152634
0.1515
0.150561
0.149745
0.149082
0.148562
0.148188
0.147936
0.147819
0.147837
0.147966
0.148212
0.148566
0.149027
0.149586
0.150243
0.150988
0.151822
0.152748
0.153754
0.154845
0.156018
0.15728
0.158627
0.160056
0.161582
0.163198
0.16491
0.166726
0.168643
0.170674
0.172821
0.175088
0.177484
0.180013
0.182685
0.185504
0.188472
0.191603
0.194896
0.198361
0.202012
0.205862
0.209942
0.214281
0.21892
0.223886
0.229194
0.234845
0.240831
0.24717
0.253923
0.261218
1.66255
0.230614
0.161481
0.168835
0.173412
0.171885
0.169584
0.167686
0.166115
0.164844
0.163708
0.162726
0.161913
0.161247
0.160748
0.16038
0.16015
0.160067
0.160095
0.160247
0.160508
0.160879
0.161344
0.161906
0.162554
0.163286
0.164106
0.165
0.165974
0.167025
0.168157
0.169367
0.170656
0.172036
0.173498
0.175054
0.176707
0.178457
0.18032
0.182295
0.184387
0.18661
0.188967
0.191465
0.194112
0.196912
0.199875
0.203002
0.206302
0.209786
0.213468
0.217377
0.221541
0.225997
0.229055
0.188933
0.183238
0.191377
0.188445
0.185643
0.183345
0.181472
0.179848
0.178431
0.177138
0.176039
0.17512
0.17435
0.173751
0.173291
0.172981
0.172812
0.172764
0.172838
0.173024
0.173315
0.173708
0.174191
0.174756
0.175409
0.176139
0.176941
0.177817
0.178765
0.179788
0.180878
0.182047
0.183295
0.184617
0.186029
0.187528
0.189121
0.190821
0.192624
0.194545
0.196592
)
;

boundaryField
{
    inlet
    {
        type            calculated;
        value           nonuniform List<scalar> 
13
(
0.0988007
0.0981463
0.0975816
0.0970811
0.0966033
0.0961169
0.0954965
0.0953178
0.0957683
0.0960393
0.0963975
0.09671
0.0969674
)
;
    }
    outlet
    {
        type            calculated;
        value           nonuniform List<scalar> 0();
    }
    walls
    {
        type            calculated;
        value           uniform 0;
    }
    frontAndBack
    {
        type            empty;
    }
    procBoundary2to1
    {
        type            processor;
        value           nonuniform List<scalar> 
84
(
0.0559807
0.217005
0.252162
0.239693
0.0281356
0.0582326
0.0445791
0.0458357
0.0438514
0.0469448
0.0469618
0.048337
0.0492044
0.0504372
0.0516819
0.0531057
0.0546659
0.0564085
0.0583498
0.0605188
0.0629492
0.0656803
0.0687556
0.0722249
0.0761465
0.0805834
0.0855984
0.0912446
0.0975488
0.104465
0.111825
0.119261
0.126173
0.131829
0.135651
0.137529
0.137837
0.137186
0.137186
0.121579
0.12289
0.124108
0.125368
0.126774
0.128399
0.13029
0.132481
0.134989
0.137829
0.14101
0.144542
0.148441
0.152728
0.152728
0.155179
0.160531
0.166364
0.172712
0.179582
0.186952
0.194789
0.2031
0.211982
0.211982
0.220508
0.231234
0.243203
0.256512
0.271173
0.286854
0.302115
0.316273
0.330842
0.347002
0.347002
0.363341
0.384632
0.417815
0.478135
0.540347
0.517408
0.323239
0.231336
0.167125
)
;
    }
    procBoundary2to3
    {
        type            processor;
        value           nonuniform List<scalar> 
88
(
0.257288
0.183446
0.54451
0.257288
0.268982
0.518642
0.54451
0.409007
0.381364
0.406462
0.518642
0.419645
0.318936
0.331294
0.342548
0.354121
0.381364
0.367526
0.269214
0.278043
0.287787
0.298341
0.318936
0.309905
0.230771
0.235879
0.24132
0.247091
0.253212
0.259743
0.269214
0.266807
0.198771
0.201089
0.203556
0.206179
0.208958
0.211903
0.21502
0.218316
0.221805
0.225515
0.229473
0.230771
0.233714
0.198241
0.210186
0.206481
0.206385
0.201969
0.19968
0.197475
0.195612
0.193901
0.192368
0.191008
0.189845
0.188863
0.18802
0.187357
0.186846
0.186478
0.186245
0.186137
0.18615
0.186277
0.186504
0.186825
0.187237
0.187733
0.188306
0.188948
0.189666
0.190447
0.191298
0.192214
0.193195
0.194246
0.195365
0.196557
0.19783
0.19918
0.200623
0.202161
0.203798
0.205549
0.198771
0.207419
)
;
    }
    procBoundary2to6
    {
        type            processor;
        value           nonuniform List<scalar> 
13
(
0.162178
0.235876
0.297569
0.34189
0.373946
0.3991
0.420269
0.438564
0.507553
0.134858
0
0
1.47986
)
;
    }
}


// ************************************************************************* //
