# p  FACE_DATA 300
# x y z  p
0.29787915 -0.05 -0.060005454 21763.029
0.29366024 -0.05 -0.059998184 21759.268
0.28948669 -0.05 -0.059982824 21757.036
0.28535801 -0.05 -0.05995956 21755.703
0.28127374 -0.05 -0.05992843 21755.377
0.27723341 -0.05 -0.059889544 21755.441
0.27323659 -0.05 -0.059843056 21756.53
0.2692828 -0.05 -0.059789027 21758.655
0.26537161 -0.05 -0.059727601 21761.351
0.26150257 -0.05 -0.05965892 21764.973
0.25767524 -0.05 -0.059583046 21769.712
0.2538892 -0.05 -0.059500074 21775.47
0.25014401 -0.05 -0.059410118 21782.241
0.24643926 -0.05 -0.059313284 21790.037
0.24277452 -0.05 -0.059209673 21798.808
0.23914938 -0.05 -0.059099387 21808.509
0.23556343 -0.05 -0.058982537 21818.923
0.23201627 -0.05 -0.058859254 21830.228
0.2285075 -0.05 -0.058729541 21843.153
0.22503671 -0.05 -0.058593532 21856.245
0.22160352 -0.05 -0.058451379 21870.56
0.21820754 -0.05 -0.058303115 21885.711
0.21484838 -0.05 -0.058148846 21901.844
0.21152567 -0.05 -0.05798866 21918.887
0.20823903 -0.05 -0.057822651 21936.933
0.20498809 -0.05 -0.057650874 21956.061
0.20177248 -0.05 -0.057473468 21975.619
0.19859184 -0.05 -0.057290478 21996.694
0.1954458 -0.05 -0.057101994 22017.774
0.19233402 -0.05 -0.056908168 22039.962
0.18925614 -0.05 -0.056708999 22063.437
0.18621181 -0.05 -0.056504562 22088.075
0.18320071 -0.05 -0.056294919 22113.784
0.18022246 -0.05 -0.056080229 22139.597
0.17727675 -0.05 -0.055860526 22167.174
0.17436324 -0.05 -0.05563585 22194.808
0.1714816 -0.05 -0.055406376 22223.411
0.16863151 -0.05 -0.055172052 22253.868
0.16581265 -0.05 -0.054932944 22284.765
0.16302469 -0.05 -0.054689208 22316.438
0.16026732 -0.05 -0.054440898 22348.93
0.15754024 -0.05 -0.054188056 22382.517
0.15484313 -0.05 -0.053930725 22417.006
0.15217569 -0.05 -0.053668978 22452.338
0.14953762 -0.05 -0.053402888 22488.817
0.14692863 -0.05 -0.053132457 22526.82
0.14434842 -0.05 -0.052857799 22564.687
0.14179669 -0.05 -0.052579044 22603.63
0.13927317 -0.05 -0.05229612 22644.408
0.13677758 -0.05 -0.052009061 22686.044
0.13430961 -0.05 -0.051717985 22728.368
0.13186901 -0.05 -0.051422993 22771.014
0.1294555 -0.05 -0.051124081 22815.488
0.12706881 -0.05 -0.050821224 22861.127
0.12470868 -0.05 -0.050514504 22907.627
0.12237483 -0.05 -0.05020403 22954.414
0.120067 -0.05 -0.049889836 23002.744
0.11778495 -0.05 -0.049571874 23052.218
0.11552842 -0.05 -0.049250263 23102.012
0.11329715 -0.05 -0.048924992 23153.623
0.1110909 -0.05 -0.048596121 23205.289
0.10890943 -0.05 -0.048263656 23259.693
0.10675251 -0.05 -0.047927554 23314.565
0.10461987 -0.05 -0.047587958 23370.068
0.1025113 -0.05 -0.047244937 23426.059
0.10042655 -0.05 -0.046898432 23483.974
0.098365405 -0.05 -0.046548446 23542.251
0.096327639 -0.05 -0.046195043 23602.074
0.094313028 -0.05 -0.045838237 23663.014
0.092321357 -0.05 -0.045478019 23726.059
0.090352417 -0.05 -0.04511438 23789.778
0.088405979 -0.05 -0.044747421 23854.309
0.086481845 -0.05 -0.044377096 23920.77
0.084579815 -0.05 -0.044003384 23988.002
0.082699669 -0.05 -0.043626384 24056.38
0.080841229 -0.05 -0.043246005 24127.239
0.0790043 -0.05 -0.042862236 24198.484
0.077188665 -0.05 -0.0424752 24270.951
0.07539416 -0.05 -0.042084789 24345.833
0.073620599 -0.05 -0.041690997 24421.318
0.071867788 -0.05 -0.041293877 24498.244
0.070135557 -0.05 -0.040893385 24576.646
0.068423742 -0.05 -0.040489457 24657.363
0.066732169 -0.05 -0.040082112 24739.237
0.065060663 -0.05 -0.039671361 24823.387
0.063409062 -0.05 -0.039257174 24908.938
0.061777219 -0.05 -0.038839488 24996.509
0.060164984 -0.05 -0.038418265 25084.828
0.058572196 -0.05 -0.037993513 25175.546
0.056998721 -0.05 -0.037565159 25268.467
0.055444419 -0.05 -0.03713316 25363.436
0.053909142 -0.05 -0.036697516 25459.861
0.052392764 -0.05 -0.036258171 25558.86
0.050895177 -0.05 -0.035815009 25660.027
0.049416244 -0.05 -0.035368033 25762.909
0.047955856 -0.05 -0.034917167 25868.6
0.046513915 -0.05 -0.034462309 25976.356
0.045090302 -0.05 -0.034003445 26086.45
0.043684931 -0.05 -0.033540468 26200.128
0.042297731 -0.05 -0.03307324 26317.255
0.040928604 -0.05 -0.032601735 26437.203
0.039577476 -0.05 -0.032125845 26561.058
0.038244292 -0.05 -0.03164545 26688.481
0.036928981 -0.05 -0.031160474 26819.679
0.0356315 -0.05 -0.030670795 26954.566
0.03435181 -0.05 -0.030176299 27094.158
0.033089918 -0.05 -0.029676761 27238.967
0.031845783 -0.05 -0.029172106 27386.292
0.030619394 -0.05 -0.028662209 27538.425
0.029410776 -0.05 -0.028146878 27694.276
0.028219949 -0.05 -0.027625962 27855.062
0.027046957 -0.05 -0.027099267 28020.298
0.025891857 -0.05 -0.026566614 28190.959
0.02475474 -0.05 -0.026027768 28366.955
0.023635681 -0.05 -0.025482558 28548.621
0.022534817 -0.05 -0.024930718 28736.59
0.021452274 -0.05 -0.024372036 28929.543
0.020388213 -0.05 -0.023806274 29128.12
0.019342865 -0.05 -0.023233111 29332.289
0.018316468 -0.05 -0.022652259 29543.366
0.017309264 -0.05 -0.02206346 29762.639
0.016321577 -0.05 -0.021466368 29990.711
0.015353757 -0.05 -0.020860644 30226.253
0.014406156 -0.05 -0.020245997 30469.861
0.013479274 -0.05 -0.019622013 30721.721
0.012573638 -0.05 -0.018988322 30981.398
0.0116898 -0.05 -0.018344552 31248.688
0.010828378 -0.05 -0.017690314 31523.294
0.0099901248 -0.05 -0.017025149 31806.004
0.0091759198 -0.05 -0.016348644 32095.885
0.008386597 -0.05 -0.0156605 32391.764
0.0076231725 -0.05 -0.014960218 32695.484
0.0068867853 -0.05 -0.014247452 33003.191
0.0061787359 -0.05 -0.013521943 33313.558
0.0055003792 -0.05 -0.012783302 33623.07
0.0048530826 -0.05 -0.012031363 33928.48
0.0042385571 -0.05 -0.011266143 34226.191
0.0036585397 -0.05 -0.010487553 34510.862
0.0031148318 -0.05 -0.0096957287 34773.481
0.0026094399 -0.05 -0.0088912322 35002.932
0.0021442246 -0.05 -0.0080745628 35195.351
0.0017210465 -0.05 -0.0072465895 35352.471
0.0013418093 -0.05 -0.0064087151 35458.015
0.0010080919 -0.05 -0.0055623679 35499.891
0.00072127228 -0.05 -0.0047092571 35477.389
0.00048251081 -0.05 -0.0038515496 35384.49
0.00029236329 -0.05 -0.0029916286 35217.77
0.0001508317 -0.05 -0.0021320102 34984.942
5.7495879e-05 -0.05 -0.0012752716 34674.929
1.1394864e-05 -0.05 -0.00042397109 34282.805
0.99768066 -0.05 -0.00033611804 26476.163
0.99304169 -0.05 -0.0010063364 26362.306
0.98840215 -0.05 -0.0016726212 26240.55
0.98376207 -0.05 -0.0023350721 26137.201
0.97912144 -0.05 -0.0029936636 26038.943
0.97448026 -0.05 -0.00364841 25947.828
0.96983855 -0.05 -0.0042993733 25861.611
0.96519632 -0.05 -0.0049465845 25780.107
0.96055357 -0.05 -0.0055900577 25702.6
0.95591031 -0.05 -0.0062298653 25628.562
0.95126654 -0.05 -0.0068660327 25557.868
0.94662228 -0.05 -0.0074985225 25490.204
0.94197752 -0.05 -0.0081274235 25425.102
0.9373323 -0.05 -0.008752761 25362.614
0.93268659 -0.05 -0.0093745713 25302.225
0.92804042 -0.05 -0.0099928964 25244.093
0.92339379 -0.05 -0.010607714 25187.994
0.91874669 -0.05 -0.011219031 25133.833
0.91409915 -0.05 -0.011826962 25081.06
0.90945116 -0.05 -0.012431486 25030.255
0.90480273 -0.05 -0.013032571 24980.695
0.90015387 -0.05 -0.013630361 24932.455
0.89550457 -0.05 -0.014224739 24885.884
0.89085486 -0.05 -0.014815813 24839.947
0.88620473 -0.05 -0.01540363 24795.596
0.88155418 -0.05 -0.0159881 24752.17
0.87690323 -0.05 -0.016569356 24709.645
0.87225187 -0.05 -0.017147383 24668.177
0.86760011 -0.05 -0.017722168 24627.632
0.86294795 -0.05 -0.018293719 24588.023
0.85829541 -0.05 -0.018862095 24549.053
0.85364248 -0.05 -0.01942729 24511.061
0.84898916 -0.05 -0.01998931 24473.59
0.84433547 -0.05 -0.020548224 24436.927
0.8396814 -0.05 -0.021103928 24401.239
0.83502695 -0.05 -0.021656533 24365.668
0.83037214 -0.05 -0.022206072 24331.015
0.82571696 -0.05 -0.022752481 24296.82
0.82106143 -0.05 -0.023295768 24263.473
0.81640553 -0.05 -0.023835961 24230.34
0.81174927 -0.05 -0.024373126 24197.709
0.80709266 -0.05 -0.024907211 24165.498
0.80243571 -0.05 -0.025438235 24133.703
0.7977784 -0.05 -0.025966147 24102.62
0.79312074 -0.05 -0.026490982 24071.626
0.78846275 -0.05 -0.027012845 24040.839
0.78380442 -0.05 -0.027531686 24010.565
0.77914575 -0.05 -0.028047403 23980.896
0.77448674 -0.05 -0.028560079 23951.146
0.76982739 -0.05 -0.029069752 23921.957
0.76516771 -0.05 -0.02957633 23893.153
0.7605077 -0.05 -0.030079852 23864.528
0.75584737 -0.05 -0.030580367 23836.02
0.75118671 -0.05 -0.03107785 23807.875
0.74652573 -0.05 -0.031572241 23780.116
0.74186441 -0.05 -0.032063551 23752.594
0.73720278 -0.05 -0.032551782 23725.33
0.73254083 -0.05 -0.03303698 23698.01
0.72787854 -0.05 -0.033519069 23671.261
0.72321595 -0.05 -0.033998064 23644.233
0.71855304 -0.05 -0.034473962 23617.911
0.71388981 -0.05 -0.034946671 23591.638
0.70922626 -0.05 -0.035416302 23565.241
0.7045624 -0.05 -0.03588285 23538.95
0.69989823 -0.05 -0.036346252 23512.809
0.69523375 -0.05 -0.036806454 23487.046
0.69056894 -0.05 -0.037263403 23461.497
0.68590382 -0.05 -0.037717206 23435.635
0.68123839 -0.05 -0.038167801 23410.375
0.67657265 -0.05 -0.038615123 23384.89
0.67190661 -0.05 -0.039059237 23359.574
0.66724025 -0.05 -0.039500049 23334.608
0.66257357 -0.05 -0.039937521 23309.735
0.6579066 -0.05 -0.040371712 23284.685
0.65323931 -0.05 -0.040802591 23259.838
0.64857171 -0.05 -0.041230085 23235.095
0.6439038 -0.05 -0.041654149 23210.593
0.63923558 -0.05 -0.042074786 23185.956
0.63456705 -0.05 -0.042492 23161.449
0.62989821 -0.05 -0.042905734 23136.998
0.62522906 -0.05 -0.043315943 23112.65
0.62055961 -0.05 -0.043722625 23088.175
0.61588983 -0.05 -0.044125719 23063.976
0.61121975 -0.05 -0.044525219 23039.506
0.60654937 -0.05 -0.044921074 23015.509
0.60187867 -0.05 -0.045313219 22991.313
0.59720766 -0.05 -0.045701683 22967.168
0.59253634 -0.05 -0.046086399 22943.124
0.58786471 -0.05 -0.046467288 22919.314
0.58319277 -0.05 -0.046844345 22895.382
0.57852051 -0.05 -0.047217535 22871.691
0.57384795 -0.05 -0.047586814 22847.835
0.56917507 -0.05 -0.047952124 22824.221
0.56450189 -0.05 -0.048313436 22800.358
0.55982839 -0.05 -0.048670677 22776.957
0.55515457 -0.05 -0.04902381 22753.231
0.55048045 -0.05 -0.04937281 22729.924
0.54580601 -0.05 -0.04971755 22706.645
0.54113126 -0.05 -0.050058049 22683.141
0.5364562 -0.05 -0.050394263 22659.67
0.53178083 -0.05 -0.050726133 22636.093
0.52710515 -0.05 -0.05105357 22612.91
0.52242915 -0.05 -0.051376464 22589.883
0.51775284 -0.05 -0.051694815 22566.805
0.51307623 -0.05 -0.052008601 22543.792
0.5083993 -0.05 -0.052317709 22521.055
0.50372205 -0.05 -0.052622098 22498.147
0.4990445 -0.05 -0.052921702 22475.53
0.49436664 -0.05 -0.053216428 22452.875
0.48968848 -0.05 -0.053506199 22430.566
0.48501001 -0.05 -0.053790938 22408.233
0.48033122 -0.05 -0.054070627 22386.035
0.47565213 -0.05 -0.05434516 22364.092
0.47097274 -0.05 -0.05461447 22342.075
0.46629305 -0.05 -0.054878504 22320.18
0.46161306 -0.05 -0.055137129 22298.594
0.45693277 -0.05 -0.055390258 22277.142
0.45225217 -0.05 -0.05563783 22255.862
0.44757129 -0.05 -0.055879797 22234.548
0.44289011 -0.05 -0.056116052 22213.723
0.43820865 -0.05 -0.056346461 22193.2
0.43352689 -0.05 -0.056570934 22172.935
0.42884486 -0.05 -0.056789429 22152.5
0.42416254 -0.05 -0.057001839 22132.475
0.41947994 -0.05 -0.057208045 22112.57
0.41479707 -0.05 -0.057407955 22093.18
0.41011393 -0.05 -0.057601449 22074.06
0.40543053 -0.05 -0.057788457 22055.193
0.40074687 -0.05 -0.057968847 22036.778
0.39606296 -0.05 -0.058142512 22018.529
0.3913788 -0.05 -0.05830933 22000.773
0.38669439 -0.05 -0.058469176 21983.282
0.38200975 -0.05 -0.058621944 21966.283
0.37732488 -0.05 -0.058767528 21949.659
0.37263978 -0.05 -0.058905769 21933.897
0.36795448 -0.05 -0.059036525 21918.442
0.36326896 -0.05 -0.059159726 21903.435
0.35858325 -0.05 -0.059275201 21889.095
0.35389735 -0.05 -0.059382803 21875.093
0.34921128 -0.05 -0.05948244 21861.462
0.34452504 -0.05 -0.059573923 21848.764
0.33983865 -0.05 -0.059657063 21836.792
0.33515211 -0.05 -0.059731741 21825.44
0.33046544 -0.05 -0.059797856 21814.516
0.32577866 -0.05 -0.059855197 21804.705
0.32109177 -0.05 -0.059903556 21795.476
0.31640481 -0.05 -0.059942821 21786.818
0.31171777 -0.05 -0.059972784 21778.507
0.30703069 -0.05 -0.059993273 21770.689
0.30234356 -0.05 -0.060004087 21765.715
