# p  FACE_DATA 150
# x y z  p
0.29576437 -0.05 0.059999702 11819.728
0.28738431 -0.05 0.059968924 11853.299
0.27918472 -0.05 0.059906283 11892.95
0.27116186 -0.05 0.05981265 11933.033
0.26331203 -0.05 0.059689027 11974.859
0.25563166 -0.05 0.059536266 12018.373
0.24811723 -0.05 0.059355154 12063.38
0.24076528 -0.05 0.059146558 12109.529
0.23357246 -0.05 0.058911358 12156.96
0.22653546 -0.05 0.058650342 12205.808
0.21965107 -0.05 0.058364202 12256.017
0.21291613 -0.05 0.058053757 12307.129
0.20632755 -0.05 0.057719714 12359.729
0.19988233 -0.05 0.057362758 12412.383
0.19357748 -0.05 0.056983702 12465.799
0.18741014 -0.05 0.056583118 12519.899
0.18137746 -0.05 0.056161624 12574.741
0.17547671 -0.05 0.055719844 12631.987
0.16970518 -0.05 0.055258363 12691.682
0.1640602 -0.05 0.05477783 12752.781
0.15853921 -0.05 0.054278745 12815.939
0.15313967 -0.05 0.053761636 12880.379
0.14785914 -0.05 0.053226963 12946.945
0.14269518 -0.05 0.052675259 13014.032
0.13764543 -0.05 0.052106992 13083.163
0.13270762 -0.05 0.051522466 13153.558
0.12787949 -0.05 0.050922169 13225.099
0.12315884 -0.05 0.050306449 13298.646
0.11854353 -0.05 0.049675628 13373.418
0.11403148 -0.05 0.04903008 13449.093
0.10962066 -0.05 0.04837006 13524.194
0.10530908 -0.05 0.047695796 13599.053
0.10109483 -0.05 0.047007509 13677.656
0.096976017 -0.05 0.046305459 13761.417
0.092950808 -0.05 0.04558984 13847.941
0.08901745 -0.05 0.044860715 13935.883
0.085174232 -0.05 0.044118143 14024.593
0.081419479 -0.05 0.043362242 14114.568
0.077751578 -0.05 0.042593081 14207.75
0.074168981 -0.05 0.041810614 14306.044
0.070670198 -0.05 0.041014781 14409.252
0.06725379 -0.05 0.040205492 14517.389
0.06391837 -0.05 0.039382651 14636.335
0.060662655 -0.05 0.038545988 14769.73
0.057485397 -0.05 0.037695273 14912.773
0.054385413 -0.05 0.036830261 15063.273
0.051361621 -0.05 0.035950545 15221.147
0.048412992 -0.05 0.035055749 15390.563
0.045538629 -0.05 0.034145316 15571.998
0.042737712 -0.05 0.03321865 15759.765
0.040009498 -0.05 0.032275148 15952.479
0.037353406 -0.05 0.031314032 16156.655
0.034768993 -0.05 0.030334375 16375.053
0.032255944 -0.05 0.02933521 16608.28
0.029814132 -0.05 0.028315426 16854.769
0.027443661 -0.05 0.027273729 17116.987
0.025144824 -0.05 0.026208776 17400.02
0.022918276 -0.05 0.02511886 17711.176
0.020764984 -0.05 0.02400217 18059.187
0.018686283 -0.05 0.022856725 18458.612
0.016684024 -0.05 0.021680228 18911.899
0.01476059 -0.05 0.020470219 19419.708
0.012919252 -0.05 0.019223865 19994.697
0.011164249 -0.05 0.017938283 20640.702
0.0095007128 -0.05 0.016610449 21368.735
0.0079348886 -0.05 0.015236971 22205.689
0.006474941 -0.05 0.013814774 23168.983
0.0051312596 -0.05 0.012341958 24262.004
0.0039150106 -0.05 0.010816511 25485.561
0.0028396284 -0.05 0.009238845 26827.054
0.0019206554 -0.05 0.007613688 28254.887
0.0011720639 -0.05 0.0059475212 29761.767
0.0006061561 -0.05 0.004252283 31264.865
0.00023063831 -0.05 0.0025452878 32612.573
4.5460517e-05 -0.05 0.0008455405 33724.135
0.99536103 -0.05 0.00067021835 26498.653
0.98608198 -0.05 0.0020028877 26415.889
0.97680071 -0.05 0.0033200849 26302.274
0.96751731 -0.05 0.0046220425 26194.5
0.95823181 -0.05 0.0059090613 26083.92
0.94894428 -0.05 0.0071813587 25973.994
0.93965479 -0.05 0.0084391859 25863.951
0.93036339 -0.05 0.0096828487 25754.42
0.92107012 -0.05 0.010912491 25645.526
0.91177504 -0.05 0.012128333 25537.461
0.90247819 -0.05 0.013330648 25430.327
0.89317963 -0.05 0.014519511 25324.389
0.88387936 -0.05 0.015695054 25219.686
0.87457746 -0.05 0.016857552 25116.326
0.86527395 -0.05 0.01800713 25014.328
0.85596885 -0.05 0.019143875 24913.509
0.84666223 -0.05 0.020267984 24813.943
0.8373541 -0.05 0.021379502 24715.684
0.82804448 -0.05 0.022478516 24618.706
0.8187334 -0.05 0.023565119 24522.745
0.8094209 -0.05 0.024639397 24427.824
0.80010698 -0.05 0.025701394 24333.911
0.79079168 -0.05 0.026751168 24241.08
0.78147501 -0.05 0.027788748 24149.207
0.77215699 -0.05 0.028814138 24058.239
0.76283764 -0.05 0.029827333 23968.219
0.75351698 -0.05 0.030828337 23878.716
0.74419501 -0.05 0.03181713 23789.623
0.73487174 -0.05 0.032793639 23700.633
0.72554719 -0.05 0.033757832 23612.103
0.71622136 -0.05 0.034709535 23523.687
0.70689427 -0.05 0.03564879 23435.096
0.69756592 -0.05 0.036575541 23346.045
0.68823633 -0.05 0.037489546 23256.373
0.67890547 -0.05 0.03839067 23165.707
0.66957337 -0.05 0.039278803 23073.542
0.66024004 -0.05 0.040153805 22979.45
0.65090546 -0.05 0.04101549 22882.392
0.64156964 -0.05 0.041863622 22782.001
0.63223258 -0.05 0.042697993 22676.901
0.62289428 -0.05 0.043518409 22566.548
0.61355475 -0.05 0.04432459 22449.446
0.60421397 -0.05 0.045116235 22325.335
0.59487195 -0.05 0.045893096 22192.953
0.58552869 -0.05 0.046654869 22049.788
0.57618419 -0.05 0.047401205 21893.731
0.56683843 -0.05 0.048131797 21722.783
0.55749143 -0.05 0.04884624 21537.469
0.54814318 -0.05 0.049544113 21338.014
0.53879368 -0.05 0.050225066 21126.711
0.52944294 -0.05 0.050888717 20901.734
0.52009095 -0.05 0.051534504 20659.052
0.51073771 -0.05 0.052161963 20395.418
0.50138323 -0.05 0.052770675 20109.76
0.49202751 -0.05 0.05336005 19808.107
0.48267056 -0.05 0.053929509 19500.668
0.47331239 -0.05 0.054478508 19191.37
0.46395301 -0.05 0.055006444 18873.443
0.45459243 -0.05 0.05551264 18550.576
0.44523065 -0.05 0.055996468 18077.905
0.43586773 -0.05 0.056457197 16687.24
0.42650365 -0.05 0.05689408 14560.855
0.41713847 -0.05 0.057306403 12999.759
0.4077722 -0.05 0.057693321 12194.356
0.39840488 -0.05 0.058053993 11852.721
0.38903656 -0.05 0.058387504 11709.654
0.37966728 -0.05 0.058692934 11649.388
0.3702971 -0.05 0.058969274 11629.49
0.36092607 -0.05 0.059215505 11624.96
0.35155429 -0.05 0.059430617 11634.162
0.34218182 -0.05 0.059613395 11653.822
0.33280875 -0.05 0.059762648 11679.533
0.3234352 -0.05 0.059877122 11709.727
0.31406128 -0.05 0.059955444 11742.846
0.30468712 -0.05 0.059996221 11779.617
