/*--------------------------------*- C++ -*----------------------------------*\
| =========                 |                                                 |
| \\      /  F ield         | OpenFOAM: The Open Source CFD Toolbox           |
|  \\    /   O peration     | Version:  2306                                  |
|   \\  /    A nd           | Website:  www.openfoam.com                      |
|    \\/     M anipulation  |                                                 |
\*---------------------------------------------------------------------------*/
FoamFile
{
    version     2.0;
    format      ascii;
    arch        "LSB;label=32;scalar=64";
    class       volVectorField;
    location    "550";
    object      momentError;
}
// * * * * * * * * * * * * * * * * * * * * * * * * * * * * * * * * * * * * * //

dimensions      [0 1 -2 0 0 0 0];

internalField   nonuniform List<vector> 
1340
(
(-1.1378e-07 6.30888e-07 6.04183e-16)
(-1.19381e-07 6.95011e-07 -1.95206e-15)
(-1.84523e-07 7.42938e-07 5.94286e-15)
(-1.42555e-07 7.46637e-07 7.89908e-16)
(-1.07172e-07 6.13551e-07 1.19895e-15)
(-1.97068e-07 6.73082e-07 2.7942e-15)
(-2.5396e-07 7.49627e-07 9.75807e-17)
(-2.43723e-07 7.11107e-07 6.32718e-16)
(-2.0802e-07 6.99965e-07 7.02414e-16)
(-1.68462e-07 7.26197e-07 -3.92523e-16)
(-1.03088e-07 7.20374e-07 -5.39266e-16)
(-2.07856e-07 6.74492e-07 3.05655e-15)
(-3.68815e-07 1.14662e-06 -1.32703e-15)
(-3.21258e-07 9.97702e-07 2.7691e-15)
(-2.70976e-07 8.73229e-07 8.46667e-18)
(-2.40818e-07 7.16944e-07 1.68363e-18)
(-2.75572e-07 6.95367e-07 1.20546e-15)
(-2.31899e-07 7.76031e-07 -4.17103e-15)
(-1.82601e-07 7.66805e-07 -2.20928e-15)
(-1.35878e-07 6.73672e-07 1.56423e-17)
(-1.60158e-07 6.67416e-07 -5.43763e-15)
(-7.50773e-07 1.68574e-06 2.16822e-16)
(-6.56828e-07 1.51868e-06 -2.65777e-16)
(-5.80769e-07 1.43361e-06 1.83284e-16)
(-5.08418e-07 1.36424e-06 1.12158e-15)
(-4.30872e-07 1.24711e-06 -4.12137e-16)
(-3.62073e-07 1.05527e-06 2.7005e-15)
(-3.15291e-07 9.2569e-07 -8.2132e-16)
(-2.82444e-07 8.42914e-07 -1.39446e-15)
(-2.58288e-07 8.06543e-07 -1.75779e-17)
(-2.91717e-07 7.48056e-07 -1.83124e-16)
(-2.31428e-07 7.2182e-07 2.71577e-15)
(-1.86582e-07 7.2587e-07 1.51726e-15)
(-1.43434e-07 6.70926e-07 3.03903e-18)
(-1.415e-07 6.55414e-07 4.39402e-16)
(-1.80304e-06 1.68203e-06 -9.60085e-16)
(-1.56822e-06 1.74447e-06 2.21608e-16)
(-1.32168e-06 1.75331e-06 3.47361e-16)
(-1.13861e-06 1.76373e-06 1.11304e-15)
(-9.55401e-07 1.69317e-06 1.02631e-15)
(-8.02667e-07 1.51628e-06 -3.98606e-16)
(-6.82994e-07 1.37162e-06 -6.26369e-16)
(-5.95545e-07 1.29381e-06 -5.66751e-16)
(-5.13651e-07 1.21755e-06 1.68757e-15)
(-4.48948e-07 1.17854e-06 -1.11345e-16)
(-4.10473e-07 1.16261e-06 -6.81559e-16)
(-3.60866e-07 1.01631e-06 8.58171e-16)
(-3.15432e-07 8.8074e-07 -6.31152e-16)
(-2.83317e-07 7.57782e-07 1.51702e-17)
(-2.72188e-07 7.2055e-07 -1.63046e-16)
(-2.36654e-07 7.10696e-07 6.20626e-16)
(-1.92148e-07 7.07729e-07 7.21124e-16)
(-1.49382e-07 6.53733e-07 2.62397e-17)
(-1.21041e-07 6.40476e-07 -2.31075e-16)
(-3.74375e-06 9.9363e-07 4.63419e-16)
(-3.45594e-06 1.11967e-06 8.07184e-16)
(-3.18879e-06 1.16491e-06 9.94099e-16)
(-2.93649e-06 1.1738e-06 -2.56764e-16)
(-2.68601e-06 1.14437e-06 7.71642e-16)
(-2.47142e-06 1.19853e-06 -7.49334e-16)
(-2.20573e-06 1.25785e-06 -2.28977e-15)
(-1.9441e-06 1.21803e-06 -1.15917e-15)
(-1.66289e-06 1.38521e-06 6.2734e-16)
(-1.43481e-06 1.43615e-06 1.01969e-16)
(-1.21948e-06 1.45811e-06 1.45317e-15)
(-1.05987e-06 1.52103e-06 -2.24413e-16)
(-9.40436e-07 1.60316e-06 -5.21482e-17)
(-8.02538e-07 1.49944e-06 8.04816e-17)
(-7.02404e-07 1.42291e-06 -5.6183e-17)
(-6.02897e-07 1.34729e-06 -5.39959e-16)
(-5.17112e-07 1.22409e-06 1.07563e-15)
(-4.34758e-07 1.05386e-06 -9.69792e-16)
(-3.78046e-07 9.31702e-07 1.23372e-16)
(-3.32007e-07 8.26209e-07 1.72685e-15)
(-2.98285e-07 7.49573e-07 -3.73567e-17)
(-2.75467e-07 7.09388e-07 1.70589e-16)
(-2.37393e-07 6.86295e-07 -1.40744e-15)
(-1.94856e-07 6.84076e-07 -1.67634e-15)
(-1.48745e-07 6.38047e-07 -2.1111e-17)
(-1.06334e-07 6.2304e-07 6.30174e-16)
(-4.98098e-06 -2.24474e-06 -2.3942e-16)
(-5.03493e-06 -1.92775e-06 2.68118e-16)
(-5.07194e-06 -1.69237e-06 -1.10564e-16)
(-5.05514e-06 -1.45243e-06 -2.15848e-16)
(-5.01079e-06 -1.21631e-06 7.03283e-16)
(-4.92045e-06 -9.73632e-07 -5.63937e-16)
(-4.80435e-06 -7.30855e-07 9.91854e-17)
(-4.65014e-06 -4.83801e-07 6.1604e-16)
(-4.47379e-06 -2.4688e-07 -6.14697e-16)
(-4.2593e-06 -1.78503e-08 -1.85817e-15)
(-4.10659e-06 2.34072e-07 3.37784e-17)
(-3.9384e-06 4.79378e-07 -3.54437e-16)
(-3.4874e-06 4.28898e-07 3.28153e-16)
(-3.23091e-06 5.78976e-07 3.45013e-16)
(-2.96364e-06 6.95226e-07 -1.00428e-16)
(-2.76288e-06 7.11108e-07 -2.23438e-16)
(-2.53532e-06 7.65508e-07 7.126e-16)
(-2.36191e-06 7.72374e-07 -2.74352e-16)
(-2.21825e-06 9.55114e-07 -4.00483e-16)
(-2.17657e-06 1.35968e-06 3.30273e-16)
(-1.90981e-06 1.42753e-06 -1.00444e-15)
(-1.66186e-06 1.51007e-06 6.3981e-16)
(-1.43248e-06 1.55227e-06 -3.79393e-16)
(-1.21499e-06 1.4984e-06 -5.21319e-16)
(-9.86889e-07 1.33849e-06 2.87805e-16)
(-8.53424e-07 1.26144e-06 2.01574e-16)
(-7.42323e-07 1.21785e-06 4.20738e-16)
(-6.46451e-07 1.16473e-06 -4.56526e-16)
(-5.53501e-07 1.0982e-06 -7.81193e-16)
(-4.76212e-07 1.00529e-06 2.68942e-16)
(-4.08091e-07 8.94954e-07 4.30359e-17)
(-3.52679e-07 7.97078e-07 -1.72228e-16)
(-3.10956e-07 7.21424e-07 1.24172e-17)
(-2.76898e-07 6.88502e-07 -1.38835e-16)
(-2.3668e-07 6.65543e-07 2.83387e-15)
(-1.93764e-07 6.60789e-07 -1.33358e-16)
(-1.44998e-07 6.18956e-07 2.68175e-16)
(-9.38293e-08 6.04499e-07 -9.54527e-17)
(-3.60528e-05 2.09064e-05 -7.58901e-17)
(-3.20395e-05 1.65673e-05 -2.3907e-17)
(-2.79594e-05 1.50453e-05 -2.7697e-18)
(-2.42094e-05 1.36393e-05 -2.61458e-17)
(-2.06644e-05 1.20931e-05 -1.17639e-17)
(-1.73451e-05 1.06143e-05 -8.89267e-18)
(-1.43282e-05 9.15176e-06 2.48385e-17)
(-1.15993e-05 7.79806e-06 6.72009e-17)
(-9.19774e-06 6.52371e-06 -2.89411e-17)
(-7.08235e-06 5.33436e-06 -5.41064e-17)
(-5.28356e-06 4.19598e-06 2.53291e-17)
(-3.74558e-06 3.13515e-06 -5.02821e-17)
(-2.49482e-06 2.14507e-06 -6.0981e-17)
(-1.46547e-06 1.25278e-06 -5.3679e-17)
(-6.80865e-07 4.41639e-07 -1.08102e-16)
(-7.08763e-08 -2.9205e-07 -1.02434e-17)
(3.3887e-07 -9.45371e-07 -8.98245e-17)
(6.22431e-07 -1.51558e-06 -5.33866e-17)
(7.49919e-07 -1.9996e-06 -1.20519e-16)
(7.94761e-07 -2.41825e-06 -1.0008e-17)
(7.22727e-07 -2.76825e-06 1.40507e-16)
(6.07454e-07 -3.04861e-06 1.41576e-16)
(4.08146e-07 -3.25316e-06 -8.45749e-17)
(1.96544e-07 -3.4126e-06 5.85505e-17)
(-7.46465e-08 -3.52861e-06 1.26189e-16)
(-3.3404e-07 -3.59586e-06 1.14905e-17)
(-6.33498e-07 -3.61194e-06 -1.07147e-16)
(-9.05731e-07 -3.60121e-06 -7.39815e-18)
(-1.20799e-06 -3.58076e-06 2.56455e-17)
(-1.47744e-06 -3.54295e-06 -1.19015e-17)
(-1.76806e-06 -3.4771e-06 -9.52165e-17)
(-2.0276e-06 -3.40768e-06 8.13019e-17)
(-2.30771e-06 -3.34191e-06 -2.40963e-16)
(-2.55589e-06 -3.24025e-06 -9.33861e-17)
(-2.82236e-06 -3.15529e-06 1.70039e-16)
(-3.06473e-06 -3.05924e-06 3.12999e-17)
(-3.31401e-06 -2.96769e-06 2.10385e-17)
(-3.54248e-06 -2.86151e-06 -3.25534e-17)
(-3.76208e-06 -2.76327e-06 4.52535e-17)
(-3.97111e-06 -2.68273e-06 2.55546e-16)
(-4.08382e-06 -2.58414e-06 -9.4706e-17)
(-4.54402e-06 -2.5651e-06 2.1452e-18)
(-5.10647e-06 -2.35796e-06 1.81468e-17)
(-4.45892e-06 -2.25055e-06 -1.51003e-16)
(-4.36777e-06 -2.01845e-06 7.08112e-16)
(-4.35678e-06 -1.84813e-06 1.44945e-17)
(-4.3099e-06 -1.6713e-06 -6.57219e-16)
(-4.26995e-06 -1.48505e-06 5.98756e-16)
(-4.18845e-06 -1.28858e-06 3.82706e-16)
(-4.11578e-06 -1.09092e-06 -7.98526e-17)
(-3.99644e-06 -8.82432e-07 9.9126e-18)
(-3.887e-06 -6.74821e-07 -6.3748e-16)
(-3.73354e-06 -4.72089e-07 -1.00413e-15)
(-3.545e-06 -2.85511e-07 -6.10062e-17)
(-3.56413e-06 -1.26811e-08 -2.1438e-16)
(-3.81838e-06 5.13402e-07 3.17215e-16)
(-3.57006e-06 6.55112e-07 -7.38493e-17)
(-3.31552e-06 7.69348e-07 -1.43821e-15)
(-3.05552e-06 8.53769e-07 -4.97847e-17)
(-2.84918e-06 8.79933e-07 4.51496e-16)
(-2.60102e-06 9.41896e-07 2.13333e-16)
(-2.39847e-06 9.52529e-07 5.01258e-16)
(-2.11625e-06 9.29638e-07 4.15968e-16)
(-1.92424e-06 1.02328e-06 6.61495e-16)
(-1.70812e-06 1.11725e-06 1.1212e-15)
(-1.48616e-06 1.18692e-06 2.59629e-17)
(-1.26963e-06 1.20102e-06 1.3437e-16)
(-1.0717e-06 1.18291e-06 -1.80606e-16)
(-9.2548e-07 1.12693e-06 -1.64918e-16)
(-8.15624e-07 1.10226e-06 8.42927e-16)
(-7.12608e-07 1.07732e-06 -6.83916e-16)
(-6.08716e-07 1.01399e-06 -4.3028e-17)
(-5.13396e-07 9.2813e-07 -5.8066e-16)
(-4.33452e-07 8.37061e-07 7.62738e-16)
(-3.70416e-07 7.55973e-07 -3.18064e-16)
(-3.20997e-07 6.95294e-07 4.23997e-17)
(-2.77371e-07 6.63348e-07 8.82595e-17)
(-2.33983e-07 6.3915e-07 -1.91255e-15)
(-1.89392e-07 6.38229e-07 7.61457e-16)
(-1.38249e-07 6.00779e-07 1.79981e-16)
(-8.37068e-08 5.84595e-07 6.72519e-18)
(-3.70516e-05 2.68764e-05 -1.36774e-17)
(-3.63753e-05 2.49303e-05 -9.71964e-18)
(-3.38701e-05 2.32511e-05 8.61467e-18)
(-3.12019e-05 2.16281e-05 -1.06453e-18)
(-2.84123e-05 1.99817e-05 -1.19099e-17)
(-2.55793e-05 1.83989e-05 3.78999e-17)
(-2.27984e-05 1.68667e-05 1.29754e-17)
(-2.01028e-05 1.53896e-05 -1.01015e-17)
(-1.75528e-05 1.39867e-05 3.17884e-17)
(-1.51619e-05 1.26275e-05 -4.03395e-18)
(-1.29704e-05 1.13358e-05 3.44898e-17)
(-1.09718e-05 1.00814e-05 5.52035e-17)
(-9.19255e-06 8.90096e-06 -3.68521e-17)
(-7.61359e-06 7.76521e-06 4.63715e-17)
(-6.25003e-06 6.7133e-06 -2.80634e-17)
(-5.07456e-06 5.69799e-06 -9.07746e-17)
(-4.09648e-06 4.76076e-06 -6.60381e-18)
(-3.28249e-06 3.86884e-06 2.18895e-17)
(-2.6389e-06 3.06805e-06 1.85421e-17)
(-2.12852e-06 2.31059e-06 -2.34403e-17)
(-1.75895e-06 1.63029e-06 -1.04072e-17)
(-1.49055e-06 9.92592e-07 -3.38832e-18)
(-1.33168e-06 4.45657e-07 -2.54936e-17)
(-1.24164e-06 -5.69146e-08 -4.17427e-17)
(-1.23314e-06 -4.90777e-07 1.26984e-17)
(-1.26676e-06 -8.87086e-07 5.6123e-17)
(-1.35549e-06 -1.19841e-06 -4.90663e-17)
(-1.46034e-06 -1.47001e-06 4.72301e-17)
(-1.60048e-06 -1.6837e-06 -2.22813e-17)
(-1.74226e-06 -1.87385e-06 4.61965e-17)
(-1.90433e-06 -1.98866e-06 -1.09871e-16)
(-2.05179e-06 -2.08417e-06 -1.16784e-16)
(-2.21267e-06 -2.14311e-06 -8.71485e-18)
(-2.35667e-06 -2.18734e-06 -1.98048e-16)
(-2.50098e-06 -2.16446e-06 -2.37224e-17)
(-2.63109e-06 -2.15692e-06 8.08324e-17)
(-2.7571e-06 -2.11616e-06 3.98058e-17)
(-2.86861e-06 -2.09841e-06 3.12107e-17)
(-2.97586e-06 -2.05637e-06 6.15701e-17)
(-3.07787e-06 -2.02944e-06 1.89229e-16)
(-3.1517e-06 -2.00238e-06 -1.58078e-17)
(-3.08765e-06 -1.97879e-06 -1.31155e-16)
(-3.56301e-06 -2.09368e-06 1.1785e-16)
(-4.82996e-06 -1.99773e-06 -2.65779e-16)
(-4.85521e-06 -1.84973e-06 -4.51914e-16)
(-4.81724e-06 -1.65052e-06 2.55274e-17)
(-4.76214e-06 -1.45385e-06 1.98762e-16)
(-4.69626e-06 -1.26265e-06 -2.89529e-16)
(-4.60863e-06 -1.06529e-06 2.64905e-16)
(-4.51269e-06 -8.70993e-07 1.16692e-16)
(-4.3917e-06 -6.77258e-07 2.15975e-16)
(-4.2644e-06 -4.87076e-07 4.97937e-16)
(-4.10718e-06 -3.02941e-07 5.40873e-16)
(-3.92678e-06 -1.35759e-07 -2.29369e-17)
(-3.64751e-06 -1.25014e-08 -4.91997e-17)
(-3.29859e-06 1.22084e-08 1.66454e-16)
(-3.12903e-06 1.53839e-07 1.84743e-16)
(-2.9753e-06 2.76881e-07 1.12641e-15)
(-2.78996e-06 3.72866e-07 1.56589e-17)
(-2.63321e-06 4.56663e-07 -1.0577e-15)
(-2.46521e-06 5.19516e-07 1.09741e-16)
(-2.3039e-06 6.14394e-07 -5.1355e-16)
(-2.15073e-06 7.13109e-07 -2.63684e-16)
(-1.96214e-06 7.9785e-07 9.4001e-19)
(-1.76345e-06 8.83349e-07 -9.20652e-16)
(-1.55922e-06 9.64089e-07 1.03941e-16)
(-1.33998e-06 9.98646e-07 5.71401e-17)
(-1.14882e-06 9.752e-07 -1.02327e-17)
(-9.94047e-07 9.69267e-07 1.32814e-16)
(-8.90844e-07 9.6932e-07 -4.40655e-16)
(-7.71225e-07 9.46926e-07 2.13089e-16)
(-6.59549e-07 9.03935e-07 1.08502e-16)
(-5.50566e-07 8.42576e-07 4.2296e-17)
(-4.56932e-07 7.73871e-07 -1.82661e-15)
(-3.86017e-07 7.09457e-07 -5.393e-16)
(-3.27771e-07 6.56758e-07 -1.50451e-17)
(-2.7695e-07 6.34849e-07 3.64598e-17)
(-2.29277e-07 6.15833e-07 -1.43928e-15)
(-1.83529e-07 6.14602e-07 4.97136e-16)
(-1.30335e-07 5.80222e-07 -4.05485e-16)
(-7.54928e-08 5.64353e-07 1.07391e-17)
(-3.21947e-05 2.56199e-05 -1.24918e-17)
(-3.40804e-05 2.54935e-05 -5.10684e-18)
(-3.38296e-05 2.46718e-05 1.23589e-17)
(-3.30333e-05 2.3683e-05 8.18479e-18)
(-3.18122e-05 2.258e-05 -3.79429e-18)
(-3.02724e-05 2.14388e-05 -3.6569e-18)
(-2.84952e-05 2.02695e-05 1.3925e-17)
(-2.65705e-05 1.90796e-05 -1.0019e-17)
(-2.45533e-05 1.78745e-05 -3.13367e-18)
(-2.25162e-05 1.6669e-05 1.5486e-17)
(-2.0494e-05 1.54826e-05 -1.89755e-18)
(-1.85372e-05 1.43081e-05 2.28284e-17)
(-1.6664e-05 1.31619e-05 2.06499e-17)
(-1.49106e-05 1.20418e-05 -1.2798e-17)
(-1.32775e-05 1.09637e-05 3.66107e-17)
(-1.17907e-05 9.91607e-06 -1.04072e-17)
(-1.04395e-05 8.91325e-06 -2.52495e-17)
(-9.24202e-06 7.94392e-06 3.12042e-17)
(-8.17901e-06 7.02376e-06 1.58714e-17)
(-7.2625e-06 6.14036e-06 2.34981e-18)
(-6.46906e-06 5.3086e-06 -9.73918e-18)
(-5.80803e-06 4.50956e-06 -6.92474e-17)
(-5.25226e-06 3.7596e-06 3.68134e-18)
(-4.80898e-06 3.04692e-06 -3.64922e-17)
(-4.45006e-06 2.3909e-06 -1.08962e-17)
(-4.18329e-06 1.76546e-06 1.85239e-17)
(-3.98031e-06 1.18865e-06 3.52101e-17)
(-3.84661e-06 6.5278e-07 3.40918e-18)
(-3.75603e-06 1.84673e-07 8.41992e-18)
(-3.7164e-06 -2.48391e-07 -1.09543e-17)
(-3.70293e-06 -6.33656e-07 2.80943e-17)
(-3.71983e-06 -9.69e-07 -5.90514e-17)
(-3.74738e-06 -1.23104e-06 -1.40989e-17)
(-3.79403e-06 -1.47232e-06 3.87786e-17)
(-3.84028e-06 -1.64299e-06 -1.15766e-16)
(-3.8849e-06 -1.77523e-06 -6.01328e-17)
(-3.92428e-06 -1.85854e-06 2.07938e-17)
(-3.95429e-06 -1.91474e-06 -1.70301e-17)
(-3.98054e-06 -1.91509e-06 -3.3328e-17)
(-4.00092e-06 -1.90118e-06 -5.14329e-17)
(-4.0012e-06 -1.85244e-06 3.91587e-17)
(-3.91864e-06 -1.79407e-06 -4.0124e-17)
(-3.75713e-06 -1.73943e-06 -1.14845e-16)
(-3.34212e-06 -1.68101e-06 4.64865e-17)
(-3.39154e-06 -1.59521e-06 -2.38349e-16)
(-3.42544e-06 -1.49679e-06 3.18059e-19)
(-3.45671e-06 -1.38997e-06 1.47449e-17)
(-3.46742e-06 -1.27694e-06 1.70968e-16)
(-3.47528e-06 -1.15501e-06 -3.33621e-16)
(-3.45857e-06 -1.02833e-06 1.43778e-19)
(-3.43779e-06 -8.97163e-07 3.58336e-16)
(-3.3898e-06 -7.58189e-07 -1.1864e-16)
(-3.33742e-06 -6.16905e-07 4.96328e-16)
(-3.23645e-06 -4.7109e-07 2.98454e-17)
(-3.15562e-06 -3.24987e-07 -6.5247e-17)
(-3.07664e-06 -1.65267e-07 -6.43355e-17)
(-2.96425e-06 -4.58388e-08 -4.20689e-18)
(-2.82483e-06 7.10956e-08 -6.34352e-16)
(-2.69104e-06 1.71693e-07 2.19452e-16)
(-2.54453e-06 2.63406e-07 6.07072e-16)
(-2.40261e-06 3.41426e-07 -1.3439e-16)
(-2.25308e-06 4.173e-07 1.00792e-15)
(-2.09852e-06 4.91324e-07 1.48849e-17)
(-1.93964e-06 5.62779e-07 -1.8477e-16)
(-1.77241e-06 6.57205e-07 -2.21802e-16)
(-1.58591e-06 7.27038e-07 -2.70736e-16)
(-1.39284e-06 7.69704e-07 5.21076e-16)
(-1.2004e-06 7.98644e-07 1.23189e-16)
(-1.06583e-06 8.00453e-07 2.62861e-16)
(-9.38913e-07 8.18547e-07 -4.81894e-16)
(-8.22808e-07 8.11732e-07 1.51515e-16)
(-6.95484e-07 7.85835e-07 -1.12313e-16)
(-5.76413e-07 7.40221e-07 -1.17102e-15)
(-4.79908e-07 6.97304e-07 -3.8345e-16)
(-3.99979e-07 6.56016e-07 1.39205e-16)
(-3.34164e-07 6.19279e-07 9.83197e-18)
(-2.74337e-07 6.01758e-07 1.81977e-16)
(-2.23772e-07 5.86228e-07 2.68099e-16)
(-1.78128e-07 5.91316e-07 -8.99741e-16)
(-1.22859e-07 5.60565e-07 -2.02939e-16)
(-6.87623e-08 5.43127e-07 -5.13724e-16)
(-1.98579e-05 1.82124e-05 6.81347e-18)
(-2.35781e-05 1.79729e-05 -2.02385e-18)
(-2.56323e-05 1.76712e-05 -9.00857e-18)
(-2.69757e-05 1.73236e-05 -2.63982e-18)
(-2.77336e-05 1.69417e-05 5.94455e-18)
(-2.79609e-05 1.64951e-05 -2.58453e-19)
(-2.77365e-05 1.5997e-05 -4.50328e-18)
(-2.71367e-05 1.54246e-05 1.85888e-18)
(-2.62336e-05 1.47801e-05 -2.01581e-17)
(-2.50975e-05 1.40801e-05 -1.31692e-17)
(-2.37909e-05 1.33472e-05 -1.0165e-17)
(-2.23671e-05 1.25855e-05 -1.96627e-18)
(-2.08757e-05 1.18035e-05 2.68124e-17)
(-1.93583e-05 1.10121e-05 -7.72912e-18)
(-1.7847e-05 1.02253e-05 -3.10193e-17)
(-1.63711e-05 9.44517e-06 1.47801e-17)
(-1.49494e-05 8.67965e-06 -1.0022e-17)
(-1.36015e-05 7.92825e-06 -4.7405e-17)
(-1.23358e-05 7.20027e-06 -6.82355e-18)
(-1.11631e-05 6.49089e-06 -5.62924e-19)
(-1.00845e-05 5.80982e-06 4.05252e-17)
(-9.10505e-06 5.14855e-06 5.26126e-17)
(-8.22043e-06 4.51806e-06 5.02296e-18)
(-7.43269e-06 3.90723e-06 1.90139e-17)
(-6.73326e-06 3.33055e-06 -3.24975e-19)
(-6.1215e-06 2.77608e-06 3.36089e-17)
(-5.58778e-06 2.25617e-06 -1.49561e-17)
(-5.13065e-06 1.75686e-06 -3.48646e-18)
(-4.73869e-06 1.30054e-06 -2.17753e-18)
(-4.40888e-06 8.70736e-07 7.36823e-18)
(-4.13147e-06 4.84029e-07 -2.85155e-18)
(-3.90469e-06 1.14374e-07 2.88846e-17)
(-3.71648e-06 -2.02092e-07 -3.88501e-19)
(-3.56404e-06 -4.83679e-07 8.23368e-19)
(-3.44217e-06 -7.41678e-07 2.12038e-17)
(-3.34468e-06 -9.73238e-07 7.08667e-17)
(-3.26723e-06 -1.1471e-06 -4.42148e-17)
(-3.2062e-06 -1.29537e-06 -2.93839e-18)
(-3.16167e-06 -1.40005e-06 4.89774e-17)
(-3.13222e-06 -1.46699e-06 4.60791e-18)
(-3.10737e-06 -1.48103e-06 -8.50598e-17)
(-3.03283e-06 -1.46511e-06 3.69084e-17)
(-3.03201e-06 -1.44628e-06 7.77305e-17)
(-3.12536e-06 -1.41969e-06 2.01306e-16)
(-3.15337e-06 -1.36823e-06 2.11846e-16)
(-3.16912e-06 -1.31119e-06 4.92801e-17)
(-3.18344e-06 -1.23968e-06 -7.55788e-18)
(-3.18984e-06 -1.16254e-06 -1.04037e-16)
(-3.19184e-06 -1.07399e-06 1.19915e-16)
(-3.18272e-06 -9.82049e-07 -5.44713e-17)
(-3.1657e-06 -8.83819e-07 -2.77368e-16)
(-3.13553e-06 -7.816e-07 -1.76938e-16)
(-3.09368e-06 -6.73545e-07 -7.99217e-17)
(-3.02185e-06 -5.62049e-07 -4.79432e-17)
(-2.93532e-06 -4.50633e-07 4.23725e-17)
(-2.84486e-06 -3.41139e-07 -4.06194e-16)
(-2.75068e-06 -2.33188e-07 -1.92454e-16)
(-2.6472e-06 -1.27659e-07 -2.25977e-16)
(-2.53291e-06 -3.06441e-08 -5.52804e-16)
(-2.41498e-06 6.28077e-08 1.25392e-16)
(-2.2888e-06 1.45246e-07 -1.4062e-16)
(-2.15936e-06 2.25821e-07 -5.43837e-16)
(-2.02793e-06 2.98929e-07 5.71116e-16)
(-1.88846e-06 3.79024e-07 7.14542e-16)
(-1.74445e-06 4.46386e-07 -1.12854e-16)
(-1.57278e-06 5.20855e-07 -3.32992e-16)
(-1.40613e-06 5.69552e-07 -7.97784e-18)
(-1.22571e-06 6.0732e-07 -6.46367e-17)
(-1.08562e-06 6.38581e-07 1.59069e-16)
(-9.69142e-07 6.60966e-07 1.27658e-16)
(-8.42355e-07 6.67449e-07 1.04695e-16)
(-7.1677e-07 6.48022e-07 3.01825e-16)
(-6.03206e-07 6.36604e-07 5.7531e-16)
(-5.06659e-07 6.17666e-07 2.44256e-16)
(-4.18582e-07 5.91792e-07 5.51223e-17)
(-3.40797e-07 5.66037e-07 -1.3937e-16)
(-2.76945e-07 5.62938e-07 -9.72123e-16)
(-2.22162e-07 5.59691e-07 4.26285e-16)
(-1.74001e-07 5.65301e-07 4.60121e-16)
(-1.16416e-07 5.36437e-07 6.12585e-16)
(-6.2642e-08 5.2088e-07 1.88946e-15)
(-2.69509e-06 6.3626e-06 4.92444e-19)
(-6.85765e-06 6.35882e-06 1.82259e-18)
(-1.04336e-05 6.81235e-06 6.03162e-18)
(-1.34295e-05 7.05584e-06 1.81878e-18)
(-1.59052e-05 7.28617e-06 -3.24237e-18)
(-1.78511e-05 7.42144e-06 -1.44196e-18)
(-1.92921e-05 7.4923e-06 -2.46278e-19)
(-2.02672e-05 7.48767e-06 -6.65899e-20)
(-2.082e-05 7.41924e-06 3.04143e-20)
(-2.10031e-05 7.27918e-06 -8.03743e-18)
(-2.08693e-05 7.08217e-06 9.68418e-18)
(-2.04701e-05 6.837e-06 -7.07692e-18)
(-1.98561e-05 6.55476e-06 -1.72595e-17)
(-1.90764e-05 6.23092e-06 -1.03235e-17)
(-1.81706e-05 5.87634e-06 -3.77206e-18)
(-1.71804e-05 5.50071e-06 3.27426e-18)
(-1.61351e-05 5.11462e-06 1.41376e-18)
(-1.50673e-05 4.71705e-06 -1.21919e-17)
(-1.39965e-05 4.31639e-06 -1.80754e-17)
(-1.29459e-05 3.91679e-06 -4.89519e-18)
(-1.19271e-05 3.52441e-06 3.11617e-18)
(-1.09562e-05 3.13858e-06 1.95867e-17)
(-1.00371e-05 2.7656e-06 -2.73347e-17)
(-9.18091e-06 2.40295e-06 6.02821e-18)
(-8.38643e-06 2.0526e-06 -2.23572e-17)
(-7.66062e-06 1.71072e-06 1.23661e-17)
(-6.99875e-06 1.38462e-06 3.37536e-17)
(-6.40486e-06 1.06734e-06 -2.59937e-17)
(-5.87157e-06 7.63072e-07 -4.72191e-17)
(-5.40114e-06 4.6828e-07 -1.33378e-17)
(-4.98558e-06 1.91529e-07 9.92074e-17)
(-4.62555e-06 -7.07013e-08 6.59208e-17)
(-4.31304e-06 -3.16951e-07 5.49413e-17)
(-4.04585e-06 -5.46429e-07 -4.93116e-19)
(-3.81691e-06 -7.30758e-07 -5.8012e-17)
(-3.62625e-06 -8.98132e-07 -6.42561e-17)
(-3.46564e-06 -1.02861e-06 4.87765e-17)
(-3.33186e-06 -1.13342e-06 -2.02063e-17)
(-3.22474e-06 -1.20296e-06 -6.40221e-17)
(-3.14484e-06 -1.25717e-06 4.9787e-17)
(-3.07449e-06 -1.26442e-06 -1.32366e-17)
(-2.97347e-06 -1.24277e-06 2.98779e-19)
(-2.9023e-06 -1.2222e-06 -3.83461e-17)
(-2.85884e-06 -1.19636e-06 3.23644e-18)
(-2.83947e-06 -1.16018e-06 -1.72671e-16)
(-2.82273e-06 -1.12478e-06 -1.14769e-16)
(-2.81097e-06 -1.07683e-06 -2.42463e-17)
(-2.79785e-06 -1.0268e-06 -2.30162e-16)
(-2.7849e-06 -9.66641e-07 -1.81436e-16)
(-2.76555e-06 -9.06516e-07 -5.94159e-17)
(-2.74207e-06 -8.39088e-07 -1.63988e-16)
(-2.70934e-06 -7.7003e-07 1.18349e-16)
(-2.67063e-06 -6.9397e-07 -3.20091e-16)
(-2.61043e-06 -6.14094e-07 -4.52498e-17)
(-2.54275e-06 -5.27856e-07 2.14044e-16)
(-2.47294e-06 -4.37362e-07 4.19965e-17)
(-2.39375e-06 -3.49454e-07 -1.03338e-16)
(-2.30623e-06 -2.57922e-07 9.20918e-16)
(-2.21221e-06 -1.70354e-07 5.36304e-17)
(-2.11421e-06 -8.33616e-08 -7.88583e-16)
(-2.00936e-06 -3.00715e-09 1.93111e-16)
(-1.90054e-06 7.4454e-08 -6.62642e-16)
(-1.78886e-06 1.47033e-07 -3.64865e-17)
(-1.67576e-06 2.11547e-07 8.00446e-17)
(-1.54859e-06 2.80482e-07 -1.72255e-15)
(-1.42108e-06 3.3414e-07 4.28756e-17)
(-1.26815e-06 3.85151e-07 7.87285e-17)
(-1.13015e-06 4.32491e-07 -2.46906e-16)
(-1.00622e-06 4.75138e-07 3.22974e-16)
(-8.97385e-07 5.01638e-07 -2.28353e-17)
(-7.88755e-07 5.10046e-07 1.06676e-16)
(-6.80796e-07 5.21656e-07 -7.1216e-16)
(-5.86831e-07 5.20372e-07 -6.83228e-16)
(-4.90525e-07 5.17487e-07 6.13212e-17)
(-4.08745e-07 5.06249e-07 -5.03111e-17)
(-3.31497e-07 5.01364e-07 1.24007e-16)
(-2.72125e-07 5.08388e-07 -6.68412e-16)
(-2.13797e-07 5.11833e-07 8.53186e-17)
(-1.62627e-07 5.27929e-07 -6.87669e-16)
(-1.03927e-07 5.03001e-07 -8.15958e-17)
(-5.30674e-08 4.89909e-07 1.4542e-15)
(1.29627e-05 -4.46121e-06 2.71327e-18)
(1.02698e-05 -4.5911e-06 4.04509e-18)
(6.92853e-06 -4.03455e-06 -1.01343e-18)
(3.74954e-06 -3.59585e-06 1.98564e-18)
(7.66697e-07 -3.16356e-06 1.75267e-18)
(-1.9451e-06 -2.77162e-06 -1.57959e-17)
(-4.34345e-06 -2.40872e-06 -9.37344e-18)
(-6.4003e-06 -2.06796e-06 -3.43138e-18)
(-8.10815e-06 -1.7563e-06 -1.0541e-18)
(-9.47445e-06 -1.46865e-06 4.02975e-18)
(-1.05113e-05 -1.21668e-06 -9.10994e-18)
(-1.12459e-05 -9.91291e-07 1.24143e-17)
(-1.1707e-05 -7.96241e-07 2.13748e-18)
(-1.19263e-05 -6.25331e-07 7.63861e-18)
(-1.19381e-05 -4.87036e-07 1.90276e-17)
(-1.1778e-05 -3.73771e-07 1.71568e-17)
(-1.14763e-05 -2.85591e-07 1.49338e-17)
(-1.10629e-05 -2.19546e-07 5.83705e-18)
(-1.05687e-05 -1.76784e-07 2.60892e-17)
(-1.00142e-05 -1.53242e-07 -1.29569e-17)
(-9.42416e-06 -1.46949e-07 -3.83755e-17)
(-8.81461e-06 -1.5476e-07 -8.3864e-18)
(-8.2015e-06 -1.7515e-07 -2.42053e-18)
(-7.59798e-06 -2.07515e-07 -1.11156e-17)
(-7.01285e-06 -2.46742e-07 -8.53568e-18)
(-6.4539e-06 -2.94493e-07 -2.8474e-17)
(-5.92666e-06 -3.47256e-07 -5.4406e-18)
(-5.43581e-06 -4.08231e-07 -1.47115e-18)
(-4.98287e-06 -4.71718e-07 3.04877e-17)
(-4.57029e-06 -5.40314e-07 -9.34007e-18)
(-4.19688e-06 -6.10314e-07 1.04557e-17)
(-3.86493e-06 -6.87304e-07 3.18293e-17)
(-3.57027e-06 -7.62246e-07 2.61894e-17)
(-3.31457e-06 -8.38818e-07 6.96787e-17)
(-3.0932e-06 -9.13935e-07 5.22299e-18)
(-2.90446e-06 -9.89527e-07 -4.58972e-17)
(-2.74526e-06 -1.06038e-06 -6.5453e-17)
(-2.61335e-06 -1.12293e-06 2.13003e-17)
(-2.5052e-06 -1.16197e-06 5.9465e-17)
(-2.41932e-06 -1.19005e-06 -3.57487e-17)
(-2.34193e-06 -1.19855e-06 6.22377e-17)
(-2.25629e-06 -1.18831e-06 -1.07361e-17)
(-2.19073e-06 -1.15794e-06 2.29815e-17)
(-2.15004e-06 -1.12661e-06 -1.29023e-16)
(-2.11218e-06 -1.087e-06 -3.72193e-17)
(-2.07732e-06 -1.04955e-06 3.37698e-17)
(-2.04647e-06 -1.00531e-06 -4.37022e-17)
(-2.01687e-06 -9.64708e-07 -4.8992e-17)
(-1.98945e-06 -9.18138e-07 7.65302e-17)
(-1.96081e-06 -8.72843e-07 3.90742e-18)
(-1.93329e-06 -8.24349e-07 1.4305e-16)
(-1.90354e-06 -7.71606e-07 2.39308e-16)
(-1.87385e-06 -7.12588e-07 2.83638e-17)
(-1.83507e-06 -6.48422e-07 7.12414e-17)
(-1.7935e-06 -5.76597e-07 1.27027e-17)
(-1.75199e-06 -4.99158e-07 1.92181e-16)
(-1.70664e-06 -4.1997e-07 4.33558e-17)
(-1.65727e-06 -3.3753e-07 -3.20733e-16)
(-1.60211e-06 -2.55071e-07 3.08786e-16)
(-1.5439e-06 -1.74426e-07 8.12537e-17)
(-1.47773e-06 -9.76391e-08 -5.9612e-17)
(-1.40945e-06 -2.46522e-08 4.76705e-16)
(-1.3343e-06 4.27938e-08 -1.44167e-16)
(-1.25834e-06 1.05457e-07 -1.21554e-16)
(-1.17543e-06 1.58694e-07 8.4603e-16)
(-1.08421e-06 2.0707e-07 -6.35419e-17)
(-9.90797e-07 2.52403e-07 -3.78672e-16)
(-8.86643e-07 3.03418e-07 -3.62428e-18)
(-8.08094e-07 3.45089e-07 -1.35287e-16)
(-7.31303e-07 3.76538e-07 -3.55645e-17)
(-6.55634e-07 4.00334e-07 -8.64136e-17)
(-5.8038e-07 4.12879e-07 4.53656e-16)
(-5.04672e-07 4.27472e-07 4.74131e-16)
(-4.35027e-07 4.33461e-07 2.0526e-16)
(-3.65709e-07 4.36299e-07 1.70746e-16)
(-3.05383e-07 4.39303e-07 -1.19522e-16)
(-2.50897e-07 4.58368e-07 7.25566e-16)
(-1.98435e-07 4.67914e-07 1.0023e-17)
(-1.47949e-07 4.89729e-07 8.06748e-16)
(-9.01225e-08 4.63683e-07 -4.10171e-16)
(-4.55127e-08 4.60355e-07 -2.34435e-15)
(1.81568e-05 -1.46637e-05 9.35511e-18)
(1.82386e-05 -1.47454e-05 -3.35631e-18)
(1.6965e-05 -1.36914e-05 -4.58594e-18)
(1.53421e-05 -1.27472e-05 7.12248e-19)
(1.34614e-05 -1.18459e-05 5.52535e-18)
(1.14222e-05 -1.09979e-05 7.54801e-18)
(9.313e-06 -1.01977e-05 -4.12603e-18)
(7.21239e-06 -9.43674e-06 4.11815e-19)
(5.18196e-06 -8.71968e-06 9.2181e-18)
(3.27569e-06 -8.04132e-06 5.18913e-18)
(1.52817e-06 -7.40156e-06 -4.46881e-18)
(-3.49223e-08 -6.80038e-06 -9.4727e-18)
(-1.39886e-06 -6.23694e-06 5.92751e-19)
(-2.5597e-06 -5.71391e-06 5.09928e-20)
(-3.51995e-06 -5.23015e-06 -8.32096e-19)
(-4.2892e-06 -4.78763e-06 1.6912e-18)
(-4.87876e-06 -4.37874e-06 1.15566e-17)
(-5.30689e-06 -4.00982e-06 5.93166e-18)
(-5.59039e-06 -3.67681e-06 -1.27159e-17)
(-5.74774e-06 -3.3783e-06 2.07713e-17)
(-5.79866e-06 -3.10987e-06 1.41289e-17)
(-5.761e-06 -2.87192e-06 -5.88088e-18)
(-5.65e-06 -2.66026e-06 1.40578e-18)
(-5.48407e-06 -2.47592e-06 1.58441e-17)
(-5.27473e-06 -2.31063e-06 1.45155e-17)
(-5.03569e-06 -2.16609e-06 1.71255e-17)
(-4.77672e-06 -2.03763e-06 -1.37104e-17)
(-4.5077e-06 -1.92544e-06 -3.2083e-19)
(-4.23496e-06 -1.82628e-06 1.86099e-17)
(-3.96633e-06 -1.73926e-06 4.01045e-18)
(-3.70488e-06 -1.65985e-06 -2.6152e-17)
(-3.45662e-06 -1.59288e-06 -1.37062e-17)
(-3.22241e-06 -1.53374e-06 -6.89184e-18)
(-3.00577e-06 -1.48261e-06 2.14535e-17)
(-2.80701e-06 -1.43485e-06 4.2132e-17)
(-2.62959e-06 -1.398e-06 4.28888e-17)
(-2.47235e-06 -1.36693e-06 3.06006e-17)
(-2.33831e-06 -1.34636e-06 -2.08065e-17)
(-2.22268e-06 -1.32837e-06 -6.53471e-17)
(-2.12445e-06 -1.31792e-06 2.87864e-17)
(-2.03466e-06 -1.30494e-06 7.80784e-18)
(-1.94743e-06 -1.29134e-06 2.60396e-17)
(-1.88453e-06 -1.27305e-06 -5.20102e-17)
(-1.83465e-06 -1.25394e-06 9.48866e-17)
(-1.79104e-06 -1.22819e-06 -3.50681e-17)
(-1.75263e-06 -1.19643e-06 1.09241e-16)
(-1.72104e-06 -1.15089e-06 3.56587e-17)
(-1.69261e-06 -1.10429e-06 -7.13718e-17)
(-1.66998e-06 -1.04975e-06 5.11612e-17)
(-1.64847e-06 -9.91972e-07 1.23667e-16)
(-1.632e-06 -9.28358e-07 3.39021e-17)
(-1.61651e-06 -8.63754e-07 -4.319e-17)
(-1.60427e-06 -7.91779e-07 2.29653e-16)
(-1.58561e-06 -7.21687e-07 4.77549e-17)
(-1.56952e-06 -6.44297e-07 -1.14435e-16)
(-1.55084e-06 -5.66762e-07 -2.9383e-16)
(-1.52887e-06 -4.85529e-07 -2.58172e-17)
(-1.50156e-06 -4.04537e-07 -1.99269e-17)
(-1.46883e-06 -3.20895e-07 -2.52888e-16)
(-1.4309e-06 -2.39632e-07 1.96144e-16)
(-1.38445e-06 -1.59531e-07 1.18709e-16)
(-1.33424e-06 -8.13514e-08 2.08464e-16)
(-1.27573e-06 -7.88773e-09 1.96503e-16)
(-1.21461e-06 6.01659e-08 -4.36188e-16)
(-1.14433e-06 1.18855e-07 5.38549e-16)
(-1.07304e-06 1.69266e-07 3.46222e-16)
(-9.94263e-07 2.20915e-07 2.22448e-17)
(-9.11026e-07 2.72761e-07 1.15357e-16)
(-8.24084e-07 3.21109e-07 -2.76984e-16)
(-7.62392e-07 3.63793e-07 -5.95477e-17)
(-6.94769e-07 3.91307e-07 -1.97484e-17)
(-6.27395e-07 4.18529e-07 4.83144e-16)
(-5.58577e-07 4.36073e-07 5.50316e-16)
(-4.89472e-07 4.50008e-07 4.84939e-16)
(-4.2137e-07 4.56071e-07 2.12764e-16)
(-3.58556e-07 4.70644e-07 1.0504e-16)
(-2.99462e-07 4.90432e-07 -7.47756e-16)
(-2.36856e-07 5.02028e-07 1.65538e-16)
(-1.75062e-07 5.2162e-07 7.2019e-16)
(-1.11283e-07 4.97027e-07 -1.44848e-16)
(-5.85359e-08 4.81736e-07 -5.44501e-16)
(9.66628e-06 -1.29984e-05 -2.26199e-18)
(1.15049e-05 -1.31699e-05 3.94655e-18)
(1.24482e-05 -1.2352e-05 1.7295e-18)
(1.29131e-05 -1.16425e-05 4.83e-19)
(1.29709e-05 -1.1001e-05 5.4504e-19)
(1.26599e-05 -1.03997e-05 1.37324e-18)
(1.20364e-05 -9.82778e-06 5.04112e-18)
(1.11663e-05 -9.27736e-06 -2.62791e-20)
(1.011e-05 -8.74502e-06 -7.03587e-18)
(8.92707e-06 -8.22722e-06 -2.2588e-18)
(7.67686e-06 -7.72722e-06 2.44805e-18)
(6.40515e-06 -7.24363e-06 -3.44036e-18)
(5.15477e-06 -6.77785e-06 -9.51558e-19)
(3.95801e-06 -6.32958e-06 -7.06161e-18)
(2.84105e-06 -5.90129e-06 2.71531e-18)
(1.82137e-06 -5.49442e-06 -1.72918e-18)
(9.10335e-07 -5.10805e-06 -4.24219e-18)
(1.13552e-07 -4.74389e-06 1.75857e-18)
(-5.68084e-07 -4.40206e-06 3.98917e-18)
(-1.13784e-06 -4.08372e-06 -1.17701e-17)
(-1.60123e-06 -3.78978e-06 -9.83188e-18)
(-1.96636e-06 -3.51773e-06 -2.55378e-18)
(-2.24205e-06 -3.26634e-06 -1.63215e-18)
(-2.4392e-06 -3.03846e-06 -1.16401e-17)
(-2.56738e-06 -2.83032e-06 -1.07096e-17)
(-2.63723e-06 -2.64032e-06 -9.5864e-18)
(-2.65847e-06 -2.46717e-06 3.01326e-17)
(-2.63992e-06 -2.3086e-06 -5.75261e-19)
(-2.58988e-06 -2.16364e-06 -2.83139e-17)
(-2.51621e-06 -2.03137e-06 3.98373e-18)
(-2.42478e-06 -1.90826e-06 1.08294e-17)
(-2.32177e-06 -1.79526e-06 2.50452e-18)
(-2.21113e-06 -1.69021e-06 -7.97742e-18)
(-2.09727e-06 -1.5927e-06 -3.74508e-17)
(-1.98344e-06 -1.5018e-06 -7.49455e-18)
(-1.87326e-06 -1.41766e-06 1.94052e-17)
(-1.76916e-06 -1.3383e-06 2.01459e-17)
(-1.67284e-06 -1.26796e-06 5.49644e-18)
(-1.58242e-06 -1.20482e-06 -1.71867e-17)
(-1.49811e-06 -1.14959e-06 -4.93835e-17)
(-1.41811e-06 -1.09708e-06 5.45582e-18)
(-1.34395e-06 -1.05058e-06 -3.666e-17)
(-1.28484e-06 -1.0116e-06 2.83335e-17)
(-1.23813e-06 -9.77074e-07 -2.08906e-17)
(-1.19854e-06 -9.40483e-07 6.7195e-17)
(-1.16779e-06 -9.0667e-07 -9.34392e-17)
(-1.14321e-06 -8.70306e-07 3.53355e-17)
(-1.12464e-06 -8.36032e-07 4.73172e-17)
(-1.1106e-06 -7.99014e-07 -9.73645e-17)
(-1.10082e-06 -7.63339e-07 -8.85126e-17)