/*--------------------------------*- C++ -*----------------------------------*\
| =========                 |                                                 |
| \\      /  F ield         | OpenFOAM: The Open Source CFD Toolbox           |
|  \\    /   O peration     | Version:  2306                                  |
|   \\  /    A nd           | Website:  www.openfoam.com                      |
|    \\/     M anipulation  |                                                 |
\*---------------------------------------------------------------------------*/
FoamFile
{
    version     2.0;
    format      ascii;
    arch        "LSB;label=32;scalar=64";
    class       volScalarField;
    location    "550";
    object      turbulenceProperties:I;
}
// * * * * * * * * * * * * * * * * * * * * * * * * * * * * * * * * * * * * * //

dimensions      [0 0 0 0 0 0 0];

internalField   nonuniform List<scalar> 
1340
(
2.6594e-05
3.72821e-05
1.25945e-05
2.55141e-05
2.65513e-05
3.729e-05
1.32107e-05
1.67605e-05
1.24668e-05
2.55547e-05
2.65532e-05
3.72793e-05
1.79629e-05
1.68513e-05
1.63215e-05
1.35267e-05
1.695e-05
1.23899e-05
2.55986e-05
2.65858e-05
3.72589e-05
2.14905e-05
2.06842e-05
2.00014e-05
1.93444e-05
1.86357e-05
1.79429e-05
1.68874e-05
1.64113e-05
1.38573e-05
1.71299e-05
1.23577e-05
2.56439e-05
2.66383e-05
3.72341e-05
2.54824e-05
2.46652e-05
2.38229e-05
2.29735e-05
2.21104e-05
2.12679e-05
2.05103e-05
1.98706e-05
1.9252e-05
1.85826e-05
1.79269e-05
1.69327e-05
1.65115e-05
1.41966e-05
1.72963e-05
1.23664e-05
2.56859e-05
2.6702e-05
3.72062e-05
2.97546e-05
2.91041e-05
2.84416e-05
2.77709e-05
2.70929e-05
2.64047e-05
2.56987e-05
2.49673e-05
2.42079e-05
2.34247e-05
2.2635e-05
2.18294e-05
2.10412e-05
2.03345e-05
1.97389e-05
1.91594e-05
1.8531e-05
1.79133e-05
1.69858e-05
1.66201e-05
1.45405e-05
1.74466e-05
1.24124e-05
2.57236e-05
2.67701e-05
3.71717e-05
3.45199e-05
3.41241e-05
3.3712e-05
3.32843e-05
3.28421e-05
3.23855e-05
3.19154e-05
3.14321e-05
3.09355e-05
3.0424e-05
2.9896e-05
2.93497e-05
2.87851e-05
2.82035e-05
2.76082e-05
2.70025e-05
2.6387e-05
2.57591e-05
2.5112e-05
2.44395e-05
2.37399e-05
2.30179e-05
2.22897e-05
2.15432e-05
2.08116e-05
2.01575e-05
1.96064e-05
1.90667e-05
1.84807e-05
1.79019e-05
1.70462e-05
1.67359e-05
1.48861e-05
1.75782e-05
1.24926e-05
2.57553e-05
2.68326e-05
3.7135e-05
3.42824e-05
3.44868e-05
3.25886e-05
3.30709e-05
3.30627e-05
3.38009e-05
3.41939e-05
3.45773e-05
3.49072e-05
3.5216e-05
3.54979e-05
3.57523e-05
3.5973e-05
3.6162e-05
3.63261e-05
3.6457e-05
3.65592e-05
3.66341e-05
3.66828e-05
3.67073e-05
3.6708e-05
3.66866e-05
3.66456e-05
3.65864e-05
3.651e-05
3.64176e-05
3.63111e-05
3.61919e-05
3.60594e-05
3.59159e-05
3.57608e-05
3.5595e-05
3.54187e-05
3.52316e-05
3.50342e-05
3.48261e-05
3.46064e-05
3.4376e-05
3.41327e-05
3.38768e-05
3.36083e-05
3.33254e-05
3.3028e-05
3.27151e-05
3.23875e-05
3.20438e-05
3.16848e-05
3.13114e-05
3.09234e-05
3.0522e-05
3.01078e-05
2.968e-05
2.92373e-05
2.87784e-05
2.83011e-05
2.78053e-05
2.72917e-05
2.6763e-05
2.62218e-05
2.56687e-05
2.51015e-05
2.45142e-05
2.3902e-05
2.32639e-05
2.26047e-05
2.19392e-05
2.12531e-05
2.058e-05
1.99798e-05
1.94732e-05
1.89738e-05
1.84311e-05
1.78923e-05
1.71133e-05
1.68581e-05
1.52308e-05
1.76901e-05
1.26029e-05
2.57764e-05
2.68857e-05
3.70985e-05
3.45163e-05
3.07415e-05
2.9432e-05
3.07682e-05
3.10481e-05
3.15445e-05
3.1845e-05
3.21733e-05
3.24635e-05
3.27364e-05
3.29836e-05
3.32047e-05
3.3399e-05
3.35671e-05
3.37119e-05
3.38284e-05
3.39211e-05
3.39921e-05
3.40399e-05
3.40668e-05
3.40748e-05
3.40643e-05
3.40373e-05
3.39955e-05
3.39393e-05
3.38704e-05
3.37907e-05
3.36995e-05
3.35986e-05
3.34886e-05
3.33693e-05
3.32417e-05
3.31054e-05
3.2961e-05
3.2808e-05
3.26459e-05
3.24749e-05
3.22944e-05
3.21033e-05
3.19012e-05
3.16874e-05
3.14614e-05
3.12216e-05
3.09676e-05
3.06999e-05
3.04168e-05
3.01194e-05
2.9808e-05
2.9483e-05
2.91453e-05
2.87955e-05
2.84327e-05
2.80557e-05
2.76632e-05
2.72527e-05
2.68236e-05
2.63761e-05
2.59124e-05
2.54346e-05
2.49433e-05
2.44366e-05
2.39095e-05
2.33584e-05
2.27828e-05
2.21875e-05
2.15856e-05
2.09608e-05
2.03476e-05
1.98018e-05
1.93392e-05
1.88803e-05
1.83818e-05
1.78843e-05
1.71866e-05
1.6986e-05
1.55718e-05
1.77813e-05
1.27347e-05
2.57926e-05
2.69222e-05
3.70688e-05
3.00549e-05
2.82129e-05
2.77173e-05
2.89768e-05
2.91151e-05
2.94844e-05
2.97457e-05
3.00232e-05
3.02729e-05
3.05045e-05
3.07108e-05
3.08999e-05
3.1065e-05
3.12079e-05
3.13299e-05
3.14307e-05
3.15106e-05
3.15735e-05
3.1617e-05
3.16419e-05
3.16529e-05
3.1649e-05
3.16316e-05
3.16007e-05
3.15601e-05
3.15096e-05
3.14492e-05
3.13806e-05
3.13044e-05
3.12211e-05
3.11309e-05
3.10344e-05
3.09311e-05
3.08216e-05
3.07057e-05
3.05827e-05
3.04525e-05
3.03144e-05
3.01678e-05
3.00116e-05
2.98454e-05
2.96685e-05
2.94788e-05
2.92771e-05
2.9062e-05
2.88327e-05
2.85908e-05
2.83356e-05
2.80682e-05
2.77894e-05
2.74995e-05
2.71979e-05
2.68836e-05
2.65545e-05
2.62078e-05
2.5843e-05
2.54595e-05
2.50587e-05
2.46428e-05
2.42123e-05
2.37657e-05
2.32991e-05
2.28094e-05
2.22973e-05
2.17666e-05
2.12285e-05
2.06658e-05
2.0114e-05
1.96227e-05
1.92033e-05
1.87856e-05
1.8332e-05
1.78774e-05
1.72657e-05
1.71193e-05
1.59068e-05
1.78529e-05
1.28866e-05
2.57864e-05
2.69532e-05
3.70513e-05
2.77383e-05
2.66741e-05
2.62708e-05
2.72381e-05
2.73142e-05
2.76238e-05
2.78443e-05
2.80737e-05
2.82787e-05
2.84692e-05
2.86398e-05
2.87949e-05
2.89312e-05
2.90492e-05
2.91504e-05
2.9235e-05
2.9302e-05
2.93556e-05
2.93935e-05
2.94169e-05
2.94291e-05
2.94295e-05
2.94187e-05
2.93979e-05
2.93706e-05
2.93335e-05
2.92897e-05
2.92406e-05
2.91847e-05
2.91239e-05
2.90578e-05
2.89877e-05
2.89118e-05
2.8832e-05
2.87471e-05
2.86567e-05
2.85609e-05
2.84589e-05
2.83495e-05
2.82326e-05
2.81069e-05
2.79715e-05
2.78254e-05
2.76683e-05
2.74987e-05
2.73172e-05
2.71239e-05
2.69189e-05
2.67036e-05
2.64783e-05
2.62436e-05
2.59988e-05
2.5743e-05
2.54728e-05
2.51864e-05
2.48824e-05
2.45587e-05
2.4218e-05
2.38615e-05
2.34893e-05
2.31014e-05
2.26946e-05
2.22658e-05
2.18166e-05
2.13499e-05
2.08746e-05
2.03738e-05
1.98832e-05
1.94455e-05
1.90682e-05
1.86914e-05
1.82826e-05
1.78728e-05
1.73506e-05
1.72578e-05
1.62286e-05
1.79075e-05
1.30271e-05
2.57665e-05
2.69579e-05
3.70723e-05
2.60852e-05
2.51011e-05
2.46785e-05
2.54677e-05
2.55269e-05
2.57835e-05
2.59617e-05
2.61472e-05
2.63099e-05
2.64652e-05
2.66034e-05
2.67279e-05
2.68397e-05
2.69349e-05
2.70181e-05
2.70894e-05
2.71455e-05
2.71901e-05
2.72243e-05
2.72471e-05
2.72611e-05
2.72655e-05
2.72616e-05
2.72515e-05
2.72345e-05
2.72109e-05
2.71846e-05
2.71525e-05
2.71152e-05
2.70745e-05
2.70327e-05
2.6986e-05
2.69369e-05
2.68828e-05
2.68263e-05
2.67692e-05
2.67032e-05
2.66339e-05
2.65598e-05
2.64796e-05
2.63903e-05
2.62943e-05
2.61885e-05
2.60715e-05
2.59461e-05
2.58081e-05
2.56605e-05
2.55038e-05
2.5337e-05
2.51636e-05
2.49819e-05
2.47915e-05
2.45928e-05
2.438e-05
2.41516e-05
2.39071e-05
2.36423e-05
2.33596e-05
2.30624e-05
2.27482e-05
2.24191e-05
2.20735e-05
2.17068e-05
2.13218e-05
2.09206e-05
2.05101e-05
2.00724e-05
1.96448e-05
1.92617e-05
1.89271e-05
1.85922e-05
1.82301e-05
1.78699e-05
1.74422e-05
1.74059e-05
1.65476e-05
1.79445e-05
1.32912e-05
2.56713e-05
2.70146e-05
3.70953e-05
2.41141e-05
2.32025e-05
2.27897e-05
2.34463e-05
2.34715e-05
2.36761e-05
2.38044e-05
2.39324e-05
2.40669e-05
2.41743e-05
2.42753e-05
2.43782e-05
2.44582e-05
2.4527e-05
2.45965e-05
2.46561e-05
2.46932e-05
2.47363e-05
2.47666e-05
2.47889e-05
2.48082e-05
2.48143e-05
2.48225e-05
2.48258e-05
2.48198e-05
2.48142e-05
2.48064e-05
2.47948e-05
2.47812e-05
2.47621e-05
2.47483e-05
2.47313e-05
2.47102e-05
2.46843e-05
2.46648e-05
2.46412e-05
2.46096e-05
2.45765e-05
2.45418e-05
2.45016e-05
2.4452e-05
2.44007e-05
2.43352e-05
2.42642e-05
2.41873e-05
2.4095e-05
2.39986e-05
2.38957e-05
2.37817e-05
2.36667e-05
2.35444e-05
2.34141e-05
2.32804e-05
2.31315e-05
2.29674e-05
2.2789e-05
2.25911e-05
2.23731e-05
2.21426e-05
2.18959e-05
2.16351e-05
2.13603e-05
2.10662e-05
2.07564e-05
2.04311e-05
2.00945e-05
1.97298e-05
1.93753e-05
1.90531e-05
1.87659e-05
1.84792e-05
1.8172e-05
1.78707e-05
1.75562e-05
1.75705e-05
1.69143e-05
1.78998e-05
1.37947e-05
2.54104e-05
2.68747e-05
3.64434e-05
2.18312e-05
2.11255e-05
2.079e-05
2.12775e-05
2.12793e-05
2.14263e-05
2.14994e-05
2.15851e-05
2.16794e-05
2.17433e-05
2.1815e-05
2.18881e-05
2.19382e-05
2.19849e-05
2.20418e-05
2.2084e-05
2.21091e-05
2.21508e-05
2.2172e-05
2.21988e-05
2.22232e-05
2.22294e-05
2.22499e-05
2.22684e-05
2.22723e-05
2.22849e-05
2.22925e-05
2.23014e-05
2.2313e-05
2.23177e-05
2.23262e-05
2.23386e-05
2.23437e-05
2.23487e-05
2.23632e-05
2.23678e-05
2.23716e-05
2.23747e-05
2.23765e-05
2.2372e-05
2.23639e-05
2.23507e-05
2.23269e-05
2.23035e-05
2.22681e-05
2.22255e-05
2.21816e-05
2.21315e-05
2.20754e-05
2.20201e-05
2.1962e-05
2.18968e-05
2.18301e-05
2.17499e-05
2.16557e-05
2.15466e-05
2.14194e-05
2.12734e-05
2.11159e-05
2.09447e-05
2.07614e-05
2.0566e-05
2.03547e-05
2.01293e-05
1.98878e-05
1.96334e-05
1.93511e-05
1.90769e-05
1.88205e-05
1.85856e-05
1.83533e-05
1.81091e-05
1.78807e-05
1.76933e-05
1.77621e-05
1.72954e-05
1.78265e-05
1.43231e-05
2.53811e-05
2.67449e-05
3.64004e-05
1.97134e-05
1.91397e-05
1.88389e-05
1.9219e-05
1.92104e-05
1.92961e-05
1.93467e-05
1.9417e-05
1.94527e-05
1.95064e-05
1.95629e-05
1.96008e-05
1.96363e-05
1.9675e-05
1.97192e-05
1.97418e-05
1.97745e-05
1.98063e-05
1.98229e-05
1.98565e-05
1.98835e-05
1.98955e-05
1.99239e-05
1.99494e-05
1.99638e-05
1.99951e-05
2.00149e-05
2.00372e-05
2.0068e-05
2.00933e-05
2.01186e-05
2.01536e-05
2.01801e-05
2.02099e-05
2.02477e-05
2.02762e-05
2.03069e-05
2.0339e-05
2.03676e-05
2.03914e-05
2.04157e-05
2.04317e-05
2.04454e-05
2.0457e-05
2.04572e-05
2.04587e-05
2.04591e-05
2.04552e-05
2.04518e-05
2.04491e-05
2.04487e-05
2.04431e-05
2.0434e-05
2.04173e-05
2.03847e-05
2.03386e-05
2.02766e-05
2.01976e-05
2.01101e-05
2.00113e-05
1.99027e-05
1.97854e-05
1.96546e-05
1.95099e-05
1.93504e-05
1.91761e-05
1.89748e-05
1.87791e-05
1.85865e-05
1.84042e-05
1.82289e-05
1.80512e-05
1.7905e-05
1.78442e-05
1.79728e-05
1.76491e-05
1.779e-05
1.48293e-05
2.5479e-05
2.63753e-05
3.6377e-05
1.77886e-05
1.68239e-05
1.72597e-05
1.69378e-05
1.73032e-05
1.72577e-05
1.73151e-05
1.73629e-05
1.74067e-05
1.74282e-05
1.74673e-05
1.75108e-05
1.75408e-05
1.75656e-05
1.76021e-05
1.76404e-05
1.76563e-05
1.76949e-05
1.77241e-05
1.77478e-05
1.7786e-05
1.78118e-05
1.78429e-05
1.78748e-05
1.79085e-05
1.79416e-05
1.79816e-05
1.80183e-05
1.80544e-05
1.8102e-05
1.8145e-05
1.81868e-05
1.82419e-05
1.82865e-05
1.8338e-05
1.8396e-05
1.84436e-05
1.84981e-05
1.85529e-05
1.86025e-05
1.86526e-05
1.87004e-05
1.8744e-05
1.87872e-05
1.88253e-05
1.88618e-05
1.88985e-05
1.89358e-05
1.89744e-05
1.90154e-05
1.90584e-05
1.91055e-05
1.91495e-05
1.9189e-05
1.92234e-05
1.92415e-05
1.92481e-05
1.92415e-05
1.92203e-05
1.91936e-05
1.91593e-05
1.91173e-05
1.90693e-05
1.90098e-05
1.89373e-05
1.88512e-05
1.87493e-05
1.86219e-05
1.84971e-05
1.83629e-05
1.82307e-05
1.81125e-05
1.8003e-05
1.79447e-05
1.80053e-05
1.81901e-05
1.79628e-05
1.77823e-05
1.54262e-05
2.56393e-05
2.58996e-05
3.63456e-05
1.59929e-05
1.51017e-05
1.54737e-05
1.51587e-05
1.55067e-05
1.54484e-05
1.55054e-05
1.55262e-05
1.55649e-05
1.55933e-05
1.56118e-05
1.56501e-05
1.56784e-05
1.571e-05
1.57403e-05
1.57714e-05
1.57979e-05
1.58377e-05
1.58733e-05
1.59036e-05
1.59413e-05
1.59763e-05
1.60253e-05
1.60609e-05
1.6107e-05
1.61533e-05
1.6201e-05
1.62581e-05
1.63063e-05
1.63673e-05
1.64252e-05
1.64874e-05
1.65558e-05
1.66183e-05
1.66885e-05
1.67626e-05
1.68316e-05
1.69025e-05
1.69782e-05
1.70488e-05
1.71203e-05
1.71917e-05
1.72587e-05
1.73281e-05
1.73952e-05
1.74638e-05
1.75334e-05
1.7605e-05
1.76827e-05
1.77637e-05
1.7846e-05
1.79335e-05
1.80192e-05
1.80989e-05
1.81754e-05
1.82364e-05
1.82871e-05
1.83283e-05
1.83583e-05
1.83854e-05
1.84075e-05
1.84246e-05
1.84369e-05
1.84401e-05
1.8431e-05
1.84091e-05
1.83719e-05
1.83111e-05
1.82496e-05
1.81683e-05
1.80846e-05
1.8022e-05
1.79808e-05
1.80128e-05
1.81852e-05
1.84159e-05
1.82471e-05
1.78253e-05
1.61959e-05
2.58621e-05
2.53362e-05
3.63249e-05
1.42823e-05
1.34786e-05
1.37809e-05
1.34893e-05
1.38105e-05
1.37652e-05
1.38137e-05
1.38365e-05
1.38804e-05
1.38943e-05
1.39249e-05
1.39686e-05
1.39935e-05
1.40327e-05
1.40692e-05
1.40993e-05
1.41433e-05
1.4186e-05
1.42309e-05
1.42677e-05
1.43166e-05
1.437e-05
1.44185e-05
1.44716e-05
1.45324e-05
1.45842e-05
1.46511e-05
1.47207e-05
1.47792e-05
1.48553e-05
1.49261e-05
1.50047e-05
1.50849e-05
1.51598e-05
1.52459e-05
1.53356e-05
1.54156e-05
1.55032e-05
1.5595e-05
1.56806e-05
1.57686e-05
1.58615e-05
1.59468e-05
1.6037e-05
1.61321e-05
1.62244e-05
1.63233e-05
1.64243e-05
1.65334e-05
1.66453e-05
1.67588e-05
1.68789e-05
1.69951e-05
1.71068e-05
1.72165e-05
1.73126e-05
1.74008e-05
1.74835e-05
1.7559e-05
1.76334e-05
1.77045e-05
1.77735e-05
1.78391e-05
1.78961e-05
1.7943e-05
1.79777e-05
1.79975e-05
1.7996e-05
1.79891e-05
1.79554e-05
1.79195e-05
1.79137e-05
1.7943e-05
1.80671e-05
1.8338e-05
1.85924e-05
1.84384e-05
1.78603e-05
1.70401e-05
2.61385e-05
2.4631e-05
3.63498e-05
1.3069e-05
1.23726e-05
1.2649e-05
1.23735e-05
1.26739e-05
1.26294e-05
1.26556e-05
1.26944e-05
1.27234e-05
1.27335e-05
1.27687e-05
1.2805e-05
1.28296e-05
1.28596e-05
1.29004e-05
1.29293e-05
1.29753e-05
1.30177e-05
1.30537e-05
1.30965e-05
1.31505e-05
1.32047e-05
1.32481e-05
1.33027e-05
1.3374e-05
1.34241e-05
1.34923e-05
1.35648e-05
1.36305e-05
1.37066e-05
1.37848e-05
1.38667e-05
1.39518e-05
1.40351e-05
1.41288e-05
1.42241e-05
1.43138e-05
1.44146e-05
1.45159e-05
1.46178e-05
1.47185e-05
1.48301e-05
1.4936e-05
1.50477e-05
1.51662e-05
1.52806e-05
1.54073e-05
1.55326e-05
1.56651e-05
1.58009e-05
1.59386e-05
1.60805e-05
1.62187e-05
1.63566e-05
1.64904e-05
1.66159e-05
1.67371e-05
1.68546e-05
1.69682e-05
1.70822e-05
1.71934e-05
1.73044e-05
1.74128e-05
1.75128e-05
1.76064e-05
1.76886e-05
1.77565e-05
1.78064e-05
1.78489e-05
1.78606e-05
1.78678e-05
1.79094e-05
1.79966e-05
1.81971e-05
1.85383e-05
1.87973e-05
1.86593e-05
1.80964e-05
1.82164e-05
2.65703e-05
2.39547e-05
3.65625e-05
1.17871e-05
1.11315e-05
1.13801e-05
1.11096e-05
1.14533e-05
1.14046e-05
1.14553e-05
1.14991e-05
1.15141e-05
1.15394e-05
1.15939e-05
1.16367e-05
1.16722e-05
1.17043e-05
1.17524e-05
1.18035e-05
1.1855e-05
1.18993e-05
1.19407e-05
1.2011e-05
1.20651e-05
1.21235e-05
1.21813e-05
1.224e-05
1.23214e-05
1.23828e-05
1.2453e-05
1.25282e-05
1.26066e-05
1.26866e-05
1.27648e-05
1.28561e-05
1.29392e-05
1.30294e-05
1.31271e-05
1.32208e-05
1.33177e-05
1.34169e-05
1.35262e-05
1.36323e-05
1.37368e-05
1.38553e-05
1.39705e-05
1.409e-05
1.4214e-05
1.43416e-05
1.44743e-05
1.4608e-05
1.47468e-05
1.48881e-05
1.50339e-05
1.51798e-05
1.53277e-05
1.54765e-05
1.56223e-05
1.57659e-05
1.59092e-05
1.60516e-05
1.61923e-05
1.6336e-05
1.6478e-05
1.66219e-05
1.6764e-05
1.68998e-05
1.70314e-05
1.71515e-05
1.72582e-05
1.73476e-05
1.74199e-05
1.74599e-05
1.75115e-05
1.76125e-05
1.77786e-05
1.80764e-05
1.84792e-05
1.86861e-05
1.84636e-05
1.7936e-05
1.89326e-05
2.6815e-05
2.27796e-05
3.69374e-05
1.20913e-05
1.16553e-05
1.18223e-05
1.16342e-05
1.17978e-05
1.17629e-05
1.18021e-05
1.18228e-05
1.18173e-05
1.18335e-05
1.18681e-05
1.18964e-05
1.19142e-05
1.19261e-05
1.19577e-05
1.1991e-05
1.20192e-05
1.20463e-05
1.20701e-05
1.21208e-05
1.21562e-05
1.21889e-05
1.22313e-05
1.22753e-05
1.23307e-05
1.23788e-05
1.24343e-05
1.24903e-05
1.25558e-05
1.26238e-05
1.26902e-05
1.27726e-05
1.28481e-05
1.29367e-05
1.30297e-05
1.31259e-05
1.32274e-05
1.33329e-05
1.34524e-05
1.35668e-05
1.36902e-05
1.38196e-05
1.39488e-05
1.4081e-05
1.42163e-05
1.43534e-05
1.44865e-05
1.46242e-05
1.47606e-05
1.48986e-05
1.50427e-05
1.51879e-05
1.53405e-05
1.54951e-05
1.56533e-05
1.5812e-05
1.59706e-05
1.6128e-05
1.62805e-05
1.64333e-05
1.65829e-05
1.67338e-05
1.68842e-05
1.7032e-05
1.71777e-05
1.73148e-05
1.74437e-05
1.75622e-05
1.76765e-05
1.77612e-05
1.78308e-05
1.79309e-05
1.80838e-05
1.83558e-05
1.87176e-05
1.88884e-05
1.87905e-05
1.87787e-05
2.08348e-05
2.75329e-05
2.31251e-05
3.86646e-05
1.05284e-05
1.05904e-05
1.0528e-05
1.06475e-05
1.07021e-05
1.07206e-05
1.07514e-05
1.07738e-05
1.08082e-05
1.08447e-05
1.08671e-05
1.09027e-05
1.09385e-05
1.09758e-05
1.10122e-05
1.10473e-05
1.10903e-05
1.11307e-05
1.1172e-05
1.12185e-05
1.12605e-05
1.13097e-05
1.13556e-05
1.14048e-05
1.1458e-05
1.15124e-05
1.15674e-05
1.16226e-05
1.16849e-05
1.17449e-05
1.18094e-05
1.18769e-05
1.19436e-05
1.20178e-05
1.20908e-05
1.21697e-05
1.22496e-05
1.23326e-05
1.24195e-05
1.25046e-05
1.25952e-05
1.26845e-05
1.27734e-05
1.28618e-05
1.29516e-05
1.30383e-05
1.31249e-05
1.32152e-05
1.33066e-05
1.34052e-05
1.35098e-05
1.36224e-05
1.37441e-05
1.38702e-05
1.40038e-05
1.41401e-05
1.42813e-05
1.4425e-05
1.45707e-05
1.47245e-05
1.48816e-05
1.50455e-05
1.52124e-05
1.538e-05
1.55463e-05
1.5703e-05
1.58499e-05
1.59803e-05
1.60554e-05
1.60878e-05
1.61952e-05
1.6414e-05
1.67493e-05
1.72468e-05
1.77039e-05
1.76627e-05
1.71546e-05
1.73361e-05
2.05747e-05
2.53731e-05
2.19778e-05
3.86571e-05
)
;

boundaryField
{
    inlet
    {
        type            calculated;
        value           nonuniform List<scalar> 
23
(
7.59913e-05
7.5784e-05
7.55822e-05
7.53855e-05
7.51897e-05
7.49906e-05
7.47829e-05
7.45626e-05
7.43239e-05
7.4062e-05
7.37698e-05
7.34487e-05
7.30803e-05
7.25162e-05
7.20433e-05
7.14664e-05
7.0744e-05
6.98565e-05
6.87762e-05
6.74868e-05
6.59152e-05
6.46669e-05
6.22236e-05
)
;
    }
    outlet
    {
        type            calculated;
        value           nonuniform List<scalar> 
82
(
9.40033e-06
9.39097e-06
9.49477e-06
9.54746e-06
9.61431e-06
9.63065e-06
9.6634e-06
9.68471e-06
9.72183e-06
9.76135e-06
9.78195e-06
9.8196e-06
9.85758e-06
9.897e-06
9.93515e-06
9.97122e-06
1.00173e-05
1.00599e-05
1.01031e-05
1.01532e-05
1.01968e-05
1.02492e-05
1.02974e-05
1.03492e-05
1.04059e-05
1.04634e-05
1.05212e-05
1.05785e-05
1.06444e-05
1.07064e-05
1.07731e-05
1.08428e-05
1.09102e-05
1.09861e-05
1.10591e-05
1.11381e-05
1.12172e-05
1.12985e-05
1.13837e-05
1.14651e-05
1.15526e-05
1.16378e-05
1.17218e-05
1.18049e-05
1.18902e-05
1.19721e-05
1.20543e-05
1.21421e-05
1.22316e-05
1.23303e-05
1.24355e-05
1.25492e-05
1.26719e-05
1.27975e-05
1.29301e-05
1.30647e-05
1.32056e-05
1.33516e-05
1.35034e-05
1.36688e-05
1.38419e-05
1.40248e-05
1.42117e-05
1.43983e-05
1.45825e-05
1.47537e-05
1.49097e-05
1.50386e-05
1.50916e-05
1.51006e-05
1.52193e-05
1.54878e-05
1.59161e-05
1.65411e-05
1.70919e-05
1.70052e-05
1.62124e-05
1.60559e-05
1.94873e-05
2.48919e-05
1.98202e-05
3.68147e-05
)
;
    }
    walls
    {
        type            calculated;
        value           nonuniform List<scalar> 0();
    }
    frontAndBack
    {
        type            empty;
    }
    procBoundary3to2
    {
        type            processor;
        value           nonuniform List<scalar> 
88
(
2.6691e-05
3.72661e-05
1.27713e-05
2.54674e-05
2.54674e-05
1.2914e-05
1.65637e-05
1.65637e-05
1.79893e-05
1.68267e-05
1.62449e-05
1.62449e-05
2.17093e-05
2.08569e-05
2.0132e-05
1.94377e-05
1.86917e-05
1.86917e-05
2.59818e-05
2.51091e-05
2.42101e-05
2.33033e-05
2.23848e-05
2.23848e-05
3.07061e-05
2.9987e-05
2.92574e-05
2.85219e-05
2.77819e-05
2.70345e-05
2.62709e-05
2.62709e-05
3.63698e-05
3.58967e-05
3.54078e-05
3.49044e-05
3.43864e-05
3.38555e-05
3.33119e-05
3.27559e-05
3.21875e-05
3.16044e-05
3.10056e-05
3.03891e-05
3.03891e-05
2.9757e-05
3.65617e-05
3.7442e-05
3.56956e-05
3.62617e-05
3.6827e-05
3.72938e-05
3.76803e-05
3.80207e-05
3.83236e-05
3.86049e-05
3.88474e-05
3.90532e-05
3.92279e-05
3.93658e-05
3.9473e-05
3.95469e-05
3.9589e-05
3.96038e-05
3.95907e-05
3.95523e-05
3.94903e-05
3.94054e-05
3.9301e-05
3.91789e-05
3.90379e-05
3.88813e-05
3.87102e-05
3.85248e-05
3.83257e-05
3.81128e-05
3.78882e-05
3.76501e-05
3.73987e-05
3.71358e-05
3.68585e-05
3.65684e-05
3.62644e-05
3.59454e-05
3.56125e-05
3.52642e-05
3.49e-05
3.49e-05
)
;
    }
    procBoundary3to6
    {
        type            processor;
        value           uniform 7.95767e-06;
    }
    procBoundary3to7
    {
        type            processor;
        value           nonuniform List<scalar> 
16
(
5.18649e-06
2.86607e-05
2.88546e-05
2.53708e-05
2.37084e-05
2.22344e-05
2.04342e-05
1.86126e-05
1.86126e-05
1.67392e-05
1.5042e-05
1.34178e-05
1.23091e-05
1.11163e-05
1.15442e-05
1.06725e-05
)
;
    }
}


// ************************************************************************* //
