/*--------------------------------*- C++ -*----------------------------------*\
| =========                 |                                                 |
| \\      /  F ield         | OpenFOAM: The Open Source CFD Toolbox           |
|  \\    /   O peration     | Version:  2306                                  |
|   \\  /    A nd           | Website:  www.openfoam.com                      |
|    \\/     M anipulation  |                                                 |
\*---------------------------------------------------------------------------*/
FoamFile
{
    version     2.0;
    format      ascii;
    arch        "LSB;label=32;scalar=64";
    class       volScalarField;
    location    "600";
    object      nuTilda;
}
// * * * * * * * * * * * * * * * * * * * * * * * * * * * * * * * * * * * * * //

dimensions      [0 2 -1 0 0 0 0];

internalField   nonuniform List<scalar> 
1340
(
4.00638e-05
4.00652e-05
4.00644e-05
4.00292e-05
4.00664e-05
4.00652e-05
4.00255e-05
4.0029e-05
4.00676e-05
4.00662e-05
4.00087e-05
4.00129e-05
4.00252e-05
4.00288e-05
4.00689e-05
4.00673e-05
4.00182e-05
4.00101e-05
4.00086e-05
4.00128e-05
4.0025e-05
4.00286e-05
4.00703e-05
4.00686e-05
4.0042e-05
4.00349e-05
4.00271e-05
4.0019e-05
4.00106e-05
4.00086e-05
4.00126e-05
4.00248e-05
4.00283e-05
4.00717e-05
4.00701e-05
4.00594e-05
4.00541e-05
4.00492e-05
4.00431e-05
4.0036e-05
4.0028e-05
4.00198e-05
4.00111e-05
4.00086e-05
4.00125e-05
4.00246e-05
4.0028e-05
4.00732e-05
4.00718e-05
4.00826e-05
4.00787e-05
4.00736e-05
4.00673e-05
4.00608e-05
4.00554e-05
4.00504e-05
4.00443e-05
4.00371e-05
4.0029e-05
4.00206e-05
4.00117e-05
4.00086e-05
4.00123e-05
4.00244e-05
4.00276e-05
4.00747e-05
4.00736e-05
4.00945e-05
4.00931e-05
4.00914e-05
4.00894e-05
4.00871e-05
4.00842e-05
4.00803e-05
4.00752e-05
4.00689e-05
4.00623e-05
4.00567e-05
4.00517e-05
4.00456e-05
4.00383e-05
4.003e-05
4.00216e-05
4.00123e-05
4.00086e-05
4.00121e-05
4.00242e-05
4.00271e-05
4.00762e-05
4.00756e-05
4.00992e-05
4.00992e-05
4.00991e-05
4.0099e-05
4.00986e-05
4.00981e-05
4.00973e-05
4.00962e-05
4.00948e-05
4.00931e-05
4.00911e-05
4.00888e-05
4.00859e-05
4.00821e-05
4.0077e-05
4.00706e-05
4.00639e-05
4.00582e-05
4.00531e-05
4.0047e-05
4.00396e-05
4.00312e-05
4.00225e-05
4.0013e-05
4.00087e-05
4.00119e-05
4.00239e-05
4.00266e-05
4.00778e-05
4.00779e-05
4.01021e-05
4.01035e-05
4.01032e-05
4.01027e-05
4.01023e-05
4.01018e-05
4.01014e-05
4.01012e-05
4.01011e-05
4.0101e-05
4.0101e-05
4.01009e-05
4.01009e-05
4.01008e-05
4.01008e-05
4.01007e-05
4.01004e-05
4.00998e-05
4.00991e-05
4.0098e-05
4.00966e-05
4.00949e-05
4.00929e-05
4.00906e-05
4.00877e-05
4.00839e-05
4.00789e-05
4.00725e-05
4.00656e-05
4.00597e-05
4.00546e-05
4.00484e-05
4.00409e-05
4.00324e-05
4.00236e-05
4.00138e-05
4.00089e-05
4.00116e-05
4.00237e-05
4.0026e-05
4.00794e-05
4.00803e-05
3.6762e-06
9.85932e-07
0
0
0.000155459
0.000456718
0.0161113
0.0551938
0.112664
0.176088
0.235511
0.285618
0.324075
0.350415
0.365812
0.372617
0.373748
0.362751
0.330894
0.272102
0.188972
0.0998813
0.0338919
0.00195383
0.000541785
0
0
0
5.08176e-06
2.00401e-05
4.03613e-05
4.33624e-05
4.07228e-05
3.97005e-05
3.99358e-05
4.01373e-05
4.01376e-05
4.01121e-05
4.01081e-05
4.01074e-05
4.01048e-05
4.01034e-05
4.01034e-05
4.01033e-05
4.01031e-05
4.01029e-05
4.01028e-05
4.01027e-05
4.01027e-05
4.01026e-05
4.01026e-05
4.01025e-05
4.01024e-05
4.01022e-05
4.01017e-05
4.01009e-05
4.00998e-05
4.00985e-05
4.00968e-05
4.00948e-05
4.00924e-05
4.00896e-05
4.00858e-05
4.00808e-05
4.00744e-05
4.00674e-05
4.00614e-05
4.00562e-05
4.00499e-05
4.00424e-05
4.00337e-05
4.00247e-05
4.00147e-05
4.00091e-05
4.00114e-05
4.00234e-05
4.00254e-05
4.00809e-05
4.00829e-05
4.03856e-05
8.82932e-06
2.30643e-06
0
0
4.7931e-06
0.00209065
0.00821539
0.0366842
0.0875603
0.150378
0.213179
0.26828
0.31193
0.342839
0.36158
0.370721
0.372993
0.364359
0.336086
0.281252
0.201224
0.11194
0.0398301
0.00355154
0.000992163
0
0
0
3.24705e-06
1.21479e-05
3.81354e-05
4.44131e-05
4.16125e-05
3.98428e-05
3.98603e-05
4.00987e-05
4.01204e-05
4.00946e-05
4.00998e-05
4.01097e-05
4.01095e-05
4.01061e-05
4.01047e-05
4.01047e-05
4.01048e-05
4.01047e-05
4.01046e-05
4.01045e-05
4.01045e-05
4.01044e-05
4.01044e-05
4.01043e-05
4.0104e-05
4.01036e-05
4.01028e-05
4.01018e-05
4.01004e-05
4.00987e-05
4.00967e-05
4.00944e-05
4.00916e-05
4.00879e-05
4.00829e-05
4.00764e-05
4.00693e-05
4.00632e-05
4.00578e-05
4.00516e-05
4.00439e-05
4.00351e-05
4.0026e-05
4.00156e-05
4.00094e-05
4.00111e-05
4.00231e-05
4.00248e-05
4.00824e-05
4.00856e-05
4.32355e-05
4.05717e-05
1.39663e-05
3.63396e-06
0
0
0
0.000623779
0.00228816
0.0211216
0.0633274
0.122978
0.187861
0.247788
0.297033
0.333188
0.356237
0.368287
0.371875
0.36553
0.340757
0.28997
0.213233
0.124013
0.0475951
0.00671541
0.00180932
0
0
0
8.69275e-07
2.14314e-06
3.22861e-05
4.36724e-05
4.21646e-05
4.00192e-05
3.9866e-05
4.01836e-05
4.0214e-05
4.01224e-05
4.00873e-05
4.00984e-05
4.01094e-05
4.01099e-05
4.01074e-05
4.01064e-05
4.01064e-05
4.01065e-05
4.01065e-05
4.01064e-05
4.01064e-05
4.01063e-05
4.01062e-05
4.0106e-05
4.01056e-05
4.01049e-05
4.01039e-05
4.01025e-05
4.01008e-05
4.00988e-05
4.00965e-05
4.00937e-05
4.009e-05
4.00851e-05
4.00786e-05
4.00714e-05
4.0065e-05
4.00596e-05
4.00533e-05
4.00456e-05
4.00366e-05
4.00273e-05
4.00167e-05
4.00097e-05
4.00109e-05
4.00228e-05
4.00242e-05
4.00839e-05
4.00886e-05
4.02845e-05
4.30168e-05
4.05241e-05
2.0385e-05
5.29678e-06
0
0
0
4.44233e-05
8.12806e-05
0.0107535
0.0420697
0.0955825
0.160489
0.224652
0.279761
0.321738
0.349651
0.364946
0.369949
0.365756
0.344421
0.29776
0.22428
0.135208
0.0555085
0.0102166
0.00269844
0
0
0
7.4037e-08
7.29831e-06
2.93399e-05
4.31395e-05
4.28062e-05
3.98825e-05
3.92597e-05
3.98405e-05
4.02102e-05
4.02089e-05
4.01251e-05
4.00952e-05
4.01019e-05
4.01096e-05
4.01103e-05
4.01089e-05
4.01084e-05
4.01084e-05
4.01085e-05
4.01084e-05
4.01084e-05
4.01083e-05
4.01081e-05
4.01077e-05
4.0107e-05
4.0106e-05
4.01047e-05
4.0103e-05
4.0101e-05
4.00987e-05
4.00959e-05
4.00923e-05
4.00874e-05
4.00809e-05
4.00735e-05
4.0067e-05
4.00615e-05
4.00551e-05
4.00474e-05
4.00382e-05
4.00287e-05
4.00178e-05
4.00102e-05
4.00106e-05
4.00224e-05
4.00235e-05
4.00852e-05
4.00916e-05
3.98962e-05
4.03012e-05
4.24548e-05
4.07066e-05
2.88722e-05
7.39461e-06
1.11631e-07
0
0
9.10239e-07
0.000972242
0.00364262
0.0244323
0.0683017
0.129659
0.196608
0.258186
0.307622
0.342151
0.362036
0.369473
0.367091
0.3489
0.306457
0.236534
0.148134
0.0650861
0.0135419
0.00395185
0.000132187
0
0
0
5.77274e-06
2.25434e-05
4.14442e-05
4.58548e-05
4.26586e-05
3.99595e-05
3.94794e-05
3.98847e-05
4.01583e-05
4.01773e-05
4.0126e-05
4.01039e-05
4.01065e-05
4.01112e-05
4.01116e-05
4.01108e-05
4.01105e-05
4.01105e-05
4.01105e-05
4.01104e-05
4.01103e-05
4.01099e-05
4.01093e-05
4.01083e-05
4.0107e-05
4.01054e-05
4.01033e-05
4.0101e-05
4.00982e-05
4.00946e-05
4.00898e-05
4.00834e-05
4.00759e-05
4.00692e-05
4.00635e-05
4.00571e-05
4.00493e-05
4.004e-05
4.00302e-05
4.00191e-05
4.00107e-05
4.00104e-05
4.00221e-05
4.00228e-05
4.00866e-05
4.00949e-05
4.01203e-05
3.99948e-05
4.02542e-05
4.12675e-05
4.10389e-05
3.69434e-05
1.58333e-05
4.16177e-06
3.00264e-08
0
0
0.000170051
0.000576941
0.00992369
0.0352146
0.0805927
0.14052
0.205017
0.264252
0.311544
0.343843
0.361344
0.364861
0.354173
0.322601
0.265221
0.186304
0.102707
0.0405628
0.00590189
0.00197089
5.30875e-05
0
0
6.78688e-07
5.1608e-06
1.76397e-05
3.68868e-05
4.39314e-05
4.2713e-05
4.03946e-05
3.96485e-05
3.98692e-05
4.01207e-05
4.01633e-05
4.01261e-05
4.01073e-05
4.01096e-05
4.01136e-05
4.0114e-05
4.01133e-05
4.01131e-05
4.01131e-05
4.0113e-05
4.01127e-05
4.01121e-05
4.01112e-05
4.01099e-05
4.01083e-05
4.01063e-05
4.01039e-05
4.01011e-05
4.00976e-05
4.00929e-05
4.00865e-05
4.00788e-05
4.00719e-05
4.0066e-05
4.00595e-05
4.00516e-05
4.00421e-05
4.0032e-05
4.00206e-05
4.00115e-05
4.00102e-05
4.00217e-05
4.00222e-05
4.00878e-05
4.00984e-05
4.01309e-05
4.01236e-05
4.00238e-05
4.01204e-05
4.05922e-05
4.20627e-05
4.00107e-05
3.31948e-05
4.85008e-06
1.36525e-06
0
0
4.41726e-06
8.00334e-05
0.0023192
0.0085876
0.0315987
0.0738275
0.131392
0.195287
0.255496
0.30448
0.338421
0.356342
0.358317
0.342489
0.30291
0.238036
0.15825
0.0823174
0.0297247
0.00260524
0.000947962
1.79652e-05
0
0
4.64464e-07
5.19555e-06
1.92464e-05
3.8181e-05
4.40892e-05
4.23058e-05
4.01324e-05
3.96698e-05
3.99695e-05
4.01627e-05
4.01592e-05
4.01199e-05
4.01105e-05
4.01151e-05
4.01176e-05
4.01172e-05
4.01166e-05
4.01164e-05
4.01161e-05
4.01156e-05
4.01147e-05
4.01135e-05
4.01119e-05
4.01099e-05
4.01074e-05
4.01046e-05
4.01011e-05
4.00965e-05
4.00901e-05
4.00823e-05
4.00751e-05
4.0069e-05
4.00623e-05
4.00543e-05
4.00446e-05
4.00342e-05
4.00224e-05
4.00125e-05
4.00099e-05
4.00213e-05
4.00215e-05
4.0089e-05
4.01021e-05
4.01108e-05
4.01199e-05
4.01097e-05
4.00715e-05
4.00529e-05
4.03978e-05
4.12754e-05
4.21112e-05
3.84747e-05
2.44597e-05
6.34427e-06
8.69038e-08
0
0
0
7.31505e-05
0.00202596
0.00742256
0.0294705
0.0707359
0.127819
0.191956
0.252954
0.302744
0.33681
0.352897
0.350751
0.32684
0.27728
0.206165
0.127501
0.0595502
0.0163965
0.000835969
0.000339426
0
0
0
5.34239e-07
6.93097e-06
2.69988e-05
4.17949e-05
4.37117e-05
4.11051e-05
3.96982e-05
3.97701e-05
4.00901e-05
4.01737e-05
4.01378e-05
4.01146e-05
4.01155e-05
4.01194e-05
4.01202e-05
4.01201e-05
4.01199e-05
4.01193e-05
4.01185e-05
4.01173e-05
4.01157e-05
4.01136e-05
4.01112e-05
4.01084e-05
4.01049e-05
4.01003e-05
4.0094e-05
4.00861e-05
4.00786e-05
4.00722e-05
4.00653e-05
4.00572e-05
4.00473e-05
4.00366e-05
4.00244e-05
4.00136e-05
4.00098e-05
4.00208e-05
4.00209e-05
4.009e-05
4.01058e-05
4.01069e-05
4.01114e-05
4.01097e-05
4.00926e-05
4.00417e-05
4.01833e-05
4.0637e-05
4.19959e-05
4.12963e-05
3.61553e-05
1.32666e-05
3.49692e-06
0
0
0
0
6.67646e-05
0.00201285
0.00740037
0.0295923
0.0712382
0.12896
0.193894
0.255426
0.30472
0.336661
0.347865
0.338471
0.304601
0.245809
0.170576
0.0946953
0.0381785
0.00666752
0.00196895
4.76588e-05
0
0
0
3.83372e-06
1.41316e-05
3.67216e-05
4.4251e-05
4.25618e-05
4.01797e-05
3.96853e-05
3.99895e-05
4.01684e-05
4.01606e-05
4.01292e-05
4.01228e-05
4.01242e-05
4.01237e-05
4.0123e-05
4.01228e-05
4.01224e-05
4.01213e-05
4.01197e-05
4.01176e-05
4.01151e-05
4.01123e-05
4.01088e-05
4.01043e-05
4.00981e-05
4.00901e-05
4.00824e-05
4.00756e-05
4.00685e-05
4.00603e-05
4.00502e-05
4.00391e-05
4.00266e-05
4.0015e-05
4.00098e-05
4.00202e-05
4.00202e-05
4.00908e-05
4.01096e-05
4.01043e-05
4.01054e-05
4.01072e-05
4.01111e-05
4.00946e-05
4.00709e-05
4.00303e-05
4.03425e-05
4.10888e-05
4.22222e-05
3.99392e-05
2.78271e-05
7.19411e-06
9.79125e-08
0
0
0
0
7.02912e-05
0.00225406
0.00837619
0.031963
0.0754829
0.134992
0.200997
0.26216
0.308919
0.335919
0.340343
0.321258
0.276306
0.208644
0.131411
0.0628941
0.0188868
0.00209563
0.000616008
0
0
0
4.1524e-07
6.96131e-06
2.72554e-05
4.25222e-05
4.35616e-05
4.08796e-05
3.97123e-05
3.98662e-05
4.01141e-05
4.0148e-05
4.01229e-05
4.01221e-05
4.01297e-05
4.01304e-05
4.01278e-05
4.01261e-05
4.01251e-05
4.01238e-05
4.01218e-05
4.01193e-05
4.01164e-05
4.01129e-05
4.01085e-05
4.01024e-05
4.00944e-05
4.00864e-05
4.00793e-05
4.0072e-05
4.00636e-05
4.00534e-05
4.00419e-05
4.0029e-05
4.00166e-05
4.00099e-05
4.00196e-05
4.00195e-05
4.00914e-05
4.01133e-05
4.01041e-05
4.01045e-05
4.0105e-05
4.01066e-05
4.01084e-05
4.01052e-05
4.00797e-05
4.0033e-05
4.0107e-05
4.05077e-05
4.17781e-05
4.16138e-05
3.68753e-05
1.41187e-05
3.73742e-06
1.22589e-08
0
0
0
0
0.000127046
0.000184063
0.0101981
0.0366967
0.0836419
0.145893
0.212746
0.271994
0.314088
0.333371
0.328504
0.297508
0.240533
0.166102
0.0913494
0.0359271
0.00561403
0.00164079
0
0
0
0
5.00577e-06
1.94722e-05
3.9217e-05
4.42181e-05
4.18127e-05
3.99807e-05
3.98917e-05
4.01759e-05
4.02108e-05
4.0138e-05
4.0111e-05
4.01219e-05
4.01317e-05
4.01324e-05
4.01301e-05
4.01281e-05
4.01262e-05
4.01237e-05
4.01208e-05
4.01173e-05
4.0113e-05
4.0107e-05
4.00991e-05
4.00909e-05
4.00834e-05
4.00757e-05
4.00672e-05
4.00568e-05
4.0045e-05
4.00316e-05
4.00185e-05
4.00101e-05
4.0019e-05
4.00187e-05
4.00916e-05
4.01169e-05
4.01047e-05
4.01051e-05
4.01054e-05
4.01057e-05
4.01068e-05
4.01081e-05
4.01101e-05
4.00935e-05
4.00637e-05
4.00073e-05
4.02509e-05
4.08968e-05
4.23389e-05
3.93874e-05
3.1038e-05
1.67191e-06
5.77717e-07
0
0
0
0
1.85217e-06
0.000108132
0.00339271
0.0128218
0.0445926
0.0963864
0.161803
0.228554
0.283696
0.318286
0.327199
0.310096
0.265298
0.197225
0.120549
0.0545775
0.0145858
0.00396988
7.15545e-05
0
0
0
2.54205e-06
9.0638e-06
3.34054e-05
4.36596e-05
4.23281e-05
3.97397e-05
3.94037e-05
3.99785e-05
4.02611e-05
4.02231e-05
4.01466e-05
4.01257e-05
4.01306e-05
4.01341e-05
4.01332e-05
4.01309e-05
4.01283e-05
4.01253e-05
4.01218e-05
4.01175e-05
4.01117e-05
4.01039e-05
4.00955e-05
4.00877e-05
4.00796e-05
4.00709e-05
4.00603e-05
4.00482e-05
4.00344e-05
4.00206e-05
4.00106e-05
4.00184e-05
4.00179e-05
4.00918e-05
4.01204e-05
4.01058e-05
4.01061e-05
4.01065e-05
4.01068e-05
4.01072e-05
4.01076e-05
4.01093e-05
4.01106e-05
4.01083e-05
4.00811e-05
4.00359e-05
4.00466e-05
4.05242e-05
4.15358e-05
4.21544e-05
3.67202e-05
2.19472e-05
5.7161e-06
1.27486e-07
0
0
0
0
0
0.000575998
0.00185853
0.0186435
0.056447
0.114159
0.182314
0.246887
0.294776
0.317932
0.31373
0.280873
0.2213
0.145997
0.0740373
0.0250534
0.0029546
0.000721265
0
0
0
2.83912e-07
6.95414e-06
2.76394e-05
4.49461e-05
4.58414e-05
4.16117e-05
3.94462e-05
3.9523e-05
4.00077e-05
4.01859e-05
4.01729e-05
4.01438e-05
4.01366e-05
4.01369e-05
4.0136e-05
4.01336e-05
4.01305e-05
4.0127e-05
4.01227e-05
4.01171e-05
4.01093e-05
4.0101e-05
4.00928e-05
4.00843e-05
4.00753e-05
4.00645e-05
4.00522e-05
4.00378e-05
4.00234e-05
4.00116e-05
4.00176e-05
4.00169e-05
4.00908e-05
4.0124e-05
4.01067e-05
4.0107e-05
4.01074e-05
4.01077e-05
4.01081e-05
4.01084e-05
4.01088e-05
4.01099e-05
4.01116e-05
4.01134e-05
4.01007e-05
4.00637e-05
4.00078e-05
4.02375e-05
4.09286e-05
4.2354e-05
4.08635e-05
3.40901e-05
1.63844e-05
4.33564e-06
1.24856e-07
0
0
0
0
2.09249e-05
0.00152865
0.00563746
0.0284696
0.0743033
0.139091
0.210454
0.272566
0.312598
0.322596
0.301586
0.249458
0.173992
0.0944344
0.0304858
0.00155973
0.00142913
0.000453028
0.000152451
3.03818e-05
0
9.15563e-07
8.01177e-06
3.07041e-05
4.42129e-05
4.38413e-05
4.11219e-05
3.99893e-05
3.99673e-05
4.01093e-05
4.01532e-05
4.01484e-05
4.01419e-05
4.01395e-05
4.01374e-05
4.01345e-05
4.01309e-05
4.01267e-05
4.01212e-05
4.01136e-05
4.01052e-05
4.00968e-05
4.00879e-05
4.00787e-05
4.00678e-05
4.00551e-05
4.00405e-05
4.00252e-05
4.00123e-05
4.00175e-05
4.00163e-05
4.00919e-05
4.01266e-05
4.01077e-05
4.01081e-05
4.01085e-05
4.01089e-05
4.01094e-05
4.01099e-05
4.01104e-05
4.01109e-05
4.01114e-05
4.01132e-05
4.01152e-05
4.01165e-05
4.00893e-05
4.00514e-05
4.00215e-05
4.04446e-05
4.13916e-05
4.23486e-05
4.04457e-05
3.37224e-05
1.5157e-05
3.75988e-06
0
0
0
0
0
6.71973e-05
0.00173126
0.00593946
0.0276408
0.0690087
0.12597
0.188263
0.242907
0.278905
0.288041
0.267677
0.219454
0.153475
0.0897003
0.0436375
0.0175839
0.00562514
0.00106591
0.000241708
0
0
5.34777e-06
2.03682e-05
3.52376e-05
4.04743e-05
4.08063e-05
4.03232e-05
4.01367e-05
4.01339e-05
4.01497e-05
4.01519e-05
4.01495e-05
4.01468e-05
4.01438e-05
4.01402e-05
4.0136e-05
4.01306e-05
4.01234e-05
4.01151e-05
4.01064e-05
4.00967e-05
4.00868e-05
4.00754e-05
4.00625e-05
4.00468e-05
4.00309e-05
4.00148e-05
4.00174e-05
4.0015e-05
4.00869e-05
4.01332e-05
)
;

boundaryField
{
    inlet
    {
        type            freestream;
        freestreamValue uniform 4e-05;
        value           nonuniform List<scalar> 
27
(
4.00638e-05
4.00644e-05
4.00652e-05
4.00662e-05
4.00673e-05
4.00686e-05
4.00701e-05
4.00718e-05
4.00736e-05
4.00756e-05
4.00779e-05
4.00803e-05
4.00829e-05
4.00856e-05
4.00886e-05
4.00916e-05
4.00949e-05
4.00984e-05
4.01021e-05
4.01058e-05
4.01096e-05
4.01133e-05
4.01169e-05
4.01204e-05
4.0124e-05
4.01266e-05
4.01332e-05
)
;
    }
    outlet
    {
        type            freestream;
        freestreamValue uniform 4e-05;
        value           nonuniform List<scalar> 
78
(
4.01077e-05
4.01081e-05
4.01085e-05
4.01089e-05
4.01094e-05
4.01099e-05
4.01104e-05
4.01109e-05
4.01114e-05
4.01132e-05
4.01152e-05
4.01165e-05
4.00893e-05
4.00514e-05
4.00215e-05
4.04446e-05
4.13916e-05
4.23486e-05
4.04457e-05
3.37224e-05
1.5157e-05
3.75988e-06
0
0
0
0
0
6.71973e-05
0.00173126
0.00593946
0.0276408
0.0690087
0.12597
0.188263
0.242907
0.278905
0.288041
0.267677
0.219454
0.153475
0.0897003
0.0436375
0.0175839
0.00562514
0.00106591
0.000241708
0
0
5.34777e-06
2.03682e-05
3.52376e-05
4.04743e-05
4.08063e-05
4.03232e-05
4.01367e-05
4.01339e-05
4.01497e-05
4.01519e-05
4.01495e-05
4.01468e-05
4.01438e-05
4.01402e-05
4.0136e-05
4.01306e-05
4.01234e-05
4.01151e-05
4.01064e-05
4.00967e-05
4.00868e-05
4.00754e-05
4.00625e-05
4.00468e-05
4.00309e-05
4.00148e-05
4.00174e-05
4.0015e-05
4.00869e-05
4.01332e-05
)
;
    }
    walls
    {
        type            fixedValue;
        value           nonuniform List<scalar> 0();
    }
    frontAndBack
    {
        type            empty;
    }
    procBoundary7to3
    {
        type            processor;
        value           nonuniform List<scalar> 
16
(
3.80325e-05
4.32591e-05
4.03939e-05
3.98861e-05
4.01125e-05
4.01445e-05
4.01188e-05
4.01089e-05
4.01056e-05
4.01056e-05
4.0104e-05
4.01037e-05
4.01044e-05
4.01055e-05
4.01064e-05
4.01073e-05
)
;
    }
    procBoundary7to6
    {
        type            processor;
        value           nonuniform List<scalar> 
91
(
4.00634e-05
4.00641e-05
4.00641e-05
4.00293e-05
4.00293e-05
4.00257e-05
4.00257e-05
4.00088e-05
4.0013e-05
4.0013e-05
4.00175e-05
4.00097e-05
4.00097e-05
4.00409e-05
4.00339e-05
4.00262e-05
4.00262e-05
4.00581e-05
4.00528e-05
4.0048e-05
4.0048e-05
4.0081e-05
4.00771e-05
4.0072e-05
4.00658e-05
4.00658e-05
4.00929e-05
4.00915e-05
4.00898e-05
4.00878e-05
4.00855e-05
4.00855e-05
4.00976e-05
4.00976e-05
4.00975e-05
4.00974e-05
4.0097e-05
4.00964e-05
4.00956e-05
4.00956e-05
4.01038e-05
4.01027e-05
4.01016e-05
4.01008e-05
4.01003e-05
4.00999e-05
4.00996e-05
4.00995e-05
4.00994e-05
4.00993e-05
4.00993e-05
4.00993e-05
4.00993e-05
3.11953e-08
0
0
0.00119356
0.00467748
0.0287897
0.0763096
0.137211
0.199168
0.254604
0.299951
0.333765
0.356179
0.368978
0.374735
0.374524
0.360825
0.325199
0.262509
0.176656
0.0877691
0.0260195
0.00282245
0.00069724
0
0
0
6.27462e-06
2.50674e-05
4.16916e-05
4.2771e-05
4.04323e-05
3.98071e-05
4.00378e-05
4.01497e-05
4.01241e-05
4.01027e-05
4.01027e-05
)
;
    }
}


// ************************************************************************* //
