/*--------------------------------*- C++ -*----------------------------------*\
| =========                 |                                                 |
| \\      /  F ield         | OpenFOAM: The Open Source CFD Toolbox           |
|  \\    /   O peration     | Version:  2306                                  |
|   \\  /    A nd           | Website:  www.openfoam.com                      |
|    \\/     M anipulation  |                                                 |
\*---------------------------------------------------------------------------*/
FoamFile
{
    version     2.0;
    format      ascii;
    arch        "LSB;label=32;scalar=64";
    class       volScalarField;
    location    "600";
    object      turbulenceProperties:L;
}
// * * * * * * * * * * * * * * * * * * * * * * * * * * * * * * * * * * * * * //

dimensions      [0 1 0 0 0 0 0];

internalField   nonuniform List<scalar> 
1340
(
0.222829
0.255623
0.221222
0.259563
0.259699
0.221257
0.401815
0.261245
0.262508
0.220804
0.425065
0.313719
0.403708
0.262613
0.264975
0.220063
0.356302
0.328734
0.431602
0.316648
0.405695
0.263868
0.267023
0.219318
0.300019
0.320219
0.32022
0.363663
0.333416
0.438798
0.319589
0.407654
0.26496
0.268525
0.218628
0.279127
0.288149
0.300322
0.306783
0.327645
0.326349
0.371623
0.338354
0.446617
0.322471
0.409595
0.265857
0.269486
0.218004
0.24778
0.256676
0.26617
0.27623
0.28725
0.295994
0.308332
0.31413
0.33569
0.332945
0.380206
0.343547
0.455075
0.325313
0.411506
0.266602
0.270021
0.217353
0.220285
0.226924
0.233948
0.241366
0.249196
0.257457
0.26616
0.275463
0.285269
0.296163
0.304581
0.317092
0.322144
0.34444
0.340067
0.389497
0.349036
0.464227
0.328169
0.413348
0.267247
0.270215
0.216781
0.195681
0.199888
0.204395
0.209216
0.214356
0.219826
0.225632
0.231784
0.238292
0.245169
0.252431
0.260088
0.268164
0.276644
0.285725
0.295229
0.305963
0.313994
0.326684
0.33089
0.353968
0.347762
0.39955
0.354845
0.474096
0.331062
0.415128
0.267814
0.269963
0.21622
0.178533
0.180001
0.181612
0.183383
0.185331
0.187474
0.189825
0.192399
0.195208
0.198261
0.201573
0.205154
0.209012
0.213159
0.217599
0.222347
0.227405
0.232781
0.238481
0.244511
0.250878
0.257597
0.264682
0.272142
0.280004
0.288226
0.297047
0.306194
0.316721
0.324295
0.337166
0.340418
0.364319
0.356057
0.410407
0.360986
0.48467
0.333985
0.416885
0.268312
0.269478
0.215671
6.33215
1.56174
0
0
0.0911484
0.186144
0.706427
0.680127
0.706028
0.741822
0.788063
0.85195
0.950058
1.12593
1.54696
4.83415
1.61119
1.18102
1.01173
0.919858
0.854711
0.791144
0.716064
0.416215
0.342605
0
0
0
2.87211
0.40543
0.181835
0.173632
0.184126
0.189868
0.19041
0.190931
0.192235
0.193687
0.195138
0.196699
0.198424
0.200322
0.202413
0.204715
0.207244
0.210014
0.213031
0.216305
0.219848
0.223668
0.227771
0.23216
0.236848
0.241834
0.247122
0.252717
0.258619
0.264834
0.271376
0.278261
0.285491
0.293104
0.301021
0.309536
0.318257
0.328523
0.335554
0.348604
0.350779
0.375549
0.364988
0.422089
0.367487
0.495943
0.337
0.418558
0.268771
0.268727
0.215133
0.239629
1.95461
8.20368
0
0
1.8977
0.339809
1.00258
0.713726
0.72852
0.763155
0.808358
0.869339
0.959827
1.1141
1.44706
2.95519
1.95151
1.30716
1.08814
0.975686
0.900999
0.83416
0.744086
0.488525
0.472774
0
0
0
5.84413
0.905823
0.209078
0.186817
0.197967
0.207099
0.208605
0.208904
0.210148
0.211682
0.213189
0.214814
0.216661
0.218723
0.220995
0.223493
0.226237
0.229235
0.232493
0.236021
0.239824
0.243903
0.248261
0.252905
0.25783
0.263037
0.268526
0.274293
0.280342
0.28668
0.293331
0.30029
0.307608
0.31516
0.32331
0.331522
0.341456
0.347844
0.361067
0.362025
0.3877
0.374571
0.434636
0.37436
0.507972
0.340076
0.420306
0.269217
0.267966
0.214565
0.238995
0.255493
1.02463
7.17086
0
0
0
0.183538
0.526075
0.763262
0.74987
0.782212
0.82668
0.885368
0.969554
1.10676
1.38001
2.26576
2.53931
1.46337
1.17481
1.03681
0.950692
0.878778
0.786224
0.596975
0.703038
0
0
0
2.3661
9.12576
0.272497
0.207238
0.214102
0.225468
0.228077
0.228004
0.229216
0.231129
0.23294
0.234704
0.236668
0.238909
0.241408
0.244156
0.24716
0.250427
0.253968
0.25778
0.261863
0.266213
0.27083
0.275707
0.28084
0.286218
0.291838
0.297691
0.303794
0.310161
0.316789
0.323749
0.330853
0.338558
0.346163
0.355663
0.361289
0.37466
0.374252
0.400847
0.384891
0.448082
0.381616
0.520738
0.343372
0.422184
0.269542
0.267179
0.21397
0.268775
0.25686
0.267144
0.631629
4.93272
0
0
0
0.0926777
0.082376
0.9645
0.775906
0.799779
0.843027
0.899924
0.979086
1.1029
1.33401
1.95177
3.89698
1.65596
1.27016
1.10123
1.00171
0.923007
0.830688
0.684111
0.891587
0
0
0
0.0013633
2.26969
0.3364
0.231081
0.231712
0.246519
0.252022
0.25069
0.250288
0.251876
0.254106
0.256289
0.258519
0.260991
0.263766
0.266826
0.270152
0.273749
0.277614
0.281742
0.286119
0.29074
0.295593
0.300658
0.305925
0.311378
0.31701
0.322823
0.328841
0.335063
0.341576
0.348136
0.355289
0.362163
0.371131
0.375831
0.389343
0.387372
0.414988
0.395807
0.462553
0.389144
0.53528
0.346535
0.424829
0.269878
0.266272
0.213158
0.286951
0.288039
0.27325
0.284767
0.427772
3.29356
0.000890548
0
0
9.03785
0.241598
0.851191
0.824836
0.819159
0.858996
0.914059
0.988544
1.09998
1.29472
1.74258
4.8118
1.9574
1.39249
1.17531
1.05504
0.964728
0.865389
0.70362
1.36327
0.145693
0
0
0
3.28909
0.505695
0.264385
0.245069
0.257183
0.272339
0.277206
0.276717
0.276959
0.278827
0.281375
0.284037
0.286842
0.289913
0.293293
0.296958
0.300874
0.305049
0.30945
0.314061
0.318866
0.323828
0.328935
0.33415
0.339482
0.344903
0.350452
0.356137
0.362049
0.367911
0.374366
0.3803
0.388582
0.392158
0.4057
0.402003
0.43047
0.407967
0.477755
0.397641
0.548866
0.350352
0.426787
0.270435
0.265457
0.212652
0.305725
0.310413
0.307344
0.303217
0.309262
0.350088
1.12363
7.14223
1.23288e-05
0
0
0.122633
0.238857
1.08585
0.851432
0.87176
0.92079
0.987976
1.08244
1.23127
1.51261
2.30959
3.52527
1.75406
1.36551
1.18528
1.07237
0.976183
0.892169
0.699038
0.71872
0.157025
0
0
0.569943
4.40809
0.803788
0.331457
0.286392
0.29127
0.305232
0.312057
0.312786
0.313344
0.315465
0.318443
0.321628
0.324991
0.328618
0.332515
0.336679
0.341033
0.345545
0.350179
0.354907
0.359685
0.364458
0.369234
0.373971
0.378731
0.383504
0.388431
0.393169
0.398501
0.40307
0.410133
0.412291
0.425359
0.4199
0.448193
0.423103
0.493123
0.409493
0.559877
0.358831
0.437184
0.276721
0.27235
0.22064
0.332279
0.335396
0.334528
0.336423
0.337993
0.331038
0.348304
0.437645
6.50879
0.85195
0
0
3.26823
0.0940867
0.48117
1.11876
0.880621
0.907031
0.964411
1.04221
1.15205
1.32791
1.6718
2.77568
3.09104
1.77374
1.4143
1.23555
1.11906
1.02008
0.926109
0.629239
0.494925
0.558921
0
0
0.119306
4.98615
0.828633
0.373136
0.330571
0.338766
0.354318
0.360267
0.360635
0.36188
0.364883
0.368549
0.372318
0.376254
0.380421
0.384728
0.389127
0.393504
0.397818
0.401993
0.405954
0.409704
0.41317
0.416482
0.419608
0.422788
0.425606
0.429031
0.431453
0.43662
0.436619
0.448893
0.440852
0.469144
0.439808
0.51174
0.420627
0.572485
0.363644
0.436588
0.277302
0.269256
0.219724
0.364385
0.366924
0.364523
0.366344
0.370881
0.372441
0.367887
0.36302
0.401257
0.734334
5.40396
0.000189448
0
0
0
0.0889681
0.434258
1.17475
0.900304
0.936299
1.00458
1.09645
1.22803
1.44462
1.89439
3.8199
2.67037
1.75338
1.43843
1.2687
1.15032
1.03984
0.892713
0.803144
0.281973
0
0
0
0.116175
3.95328
0.630537
0.405906
0.387781
0.404497
0.418524
0.421382
0.422021
0.42484
0.429031
0.433452
0.437795
0.442115
0.446377
0.450337
0.453919
0.456993
0.459464
0.461323
0.462546
0.463329
0.463675
0.463998
0.463832
0.464411
0.463793
0.466419
0.463558
0.474715
0.463429
0.491785
0.457167
0.531981
0.431331
0.58835
0.367534
0.438026
0.277065
0.267051
0.218934
0.40487
0.401117
0.402069
0.405693
0.40962
0.411892
0.410149
0.400189
0.408161
0.480867
2.0065
5.73102
0
0
0
0
0.08814
0.441749
1.16145
0.917171
0.96741
1.05017
1.16152
1.32433
1.60217
2.24068
8.85278
2.37379
1.71987
1.44865
1.2878
1.15973
1.04287
0.839054
0.914844
0.177943
0
0
0
7.35473
1.75293
0.545412
0.463538
0.46957
0.49134
0.500457
0.501844
0.504375
0.508965
0.513799
0.518136
0.521896
0.524773
0.52666
0.527369
0.52681
0.525055
0.522215
0.51869
0.514561
0.510523
0.50606
0.502769
0.498279
0.497798
0.491631
0.501291
0.486489
0.514607
0.474527
0.551933
0.441576
0.603715
0.370792
0.440072
0.276476
0.265892
0.21822
0.450377
0.445097
0.445638
0.448478
0.451083
0.454224
0.457074
0.456959
0.450961
0.440841
0.466686
0.730614
5.13121
0.000195007
0
0
0
0
0.0887384
0.496656
1.09326
0.939453
1.00766
1.10844
1.24491
1.4504
1.82258
2.85225
4.32297
2.16362
1.68096
1.44503
1.2879
1.14879
0.997185
1.10292
0.396285
0
0
0
0.0238747
5.14141
0.917669
0.598616
0.575967
0.599259
0.617426
0.621001
0.622534
0.626007
0.629408
0.631079
0.630402
0.627402
0.622027
0.614377
0.604981
0.594289
0.583148
0.571804
0.561214
0.550777
0.542429
0.533282
0.529209
0.519532
0.527244
0.508953
0.53626
0.49114
0.569888
0.451042
0.615911
0.373527
0.442189
0.275602
0.265727
0.217401
0.504777
0.498218
0.498297
0.500845
0.503019
0.505619
0.50742
0.5107
0.512973
0.510563
0.496494
0.497412
0.567253
2.12117
5.38552
4.28575e-07
0
0
0
0
0.104986
0.160591
1.01296
0.968639
1.05977
1.18331
1.35297
1.61986
2.15539
4.43547
3.04793
2.00485
1.63614
1.42712
1.26848
1.12697
0.884602
0.801694
0
0
0
0
6.44627
1.76337
0.844732
0.757909
0.77781
0.814308
0.827503
0.826752
0.822368
0.813997
0.799327
0.778989
0.755012
0.72921
0.703081
0.677651
0.653905
0.632002
0.612673
0.594933
0.580804
0.566785
0.559107
0.54628
0.55193
0.530483
0.556594
0.507065
0.586421
0.460016
0.626744
0.375926
0.444931
0.27467
0.266899
0.216376
0.549959
0.543669
0.542636
0.545115
0.547601
0.549492
0.550543
0.552889
0.555533
0.559037
0.558281
0.551843
0.535289
0.569405
0.746685
0.649142
0.0422621
0
0
0
0
8.9001
0.102673
0.862829
0.944376
1.01147
1.12867
1.28084
1.49649
1.86034
2.73754
7.14729
2.51345
1.88014
1.58781
1.39675
1.229
1.05036
6.89494
0.167415
0
0
0
0.969987
4.16075
2.05502
1.67287
1.50677
1.47797
1.43912
1.32414
1.19426
1.08304
0.990497
0.913056
0.848448
0.794641
0.7494
0.711395
0.678928
0.651654
0.62769
0.60881
0.591206
0.580749
0.566024
0.569528
0.546348
0.569931
0.518678
0.594895
0.466335
0.628736
0.377249
0.448296
0.273522
0.270656
0.214279
0.608426
0.599536
0.598667
0.601767
0.604613
0.60526
0.604813
0.608553
0.6094
0.610626
0.614116
0.616126
0.610182
0.598548
0.590788
0.669005
1.2504
6.36363
0.000588918
0
0
0
0
0
0.241779
1.19732
0.959177
1.07223
1.21921
1.40964
1.69512
2.2405
4.28217
3.45554
2.18981
1.76571
1.52665
1.34361
1.18782
1.19173
0.435983
0
0
0
0.00318777
5.12965
2.45134
1.13248
1.25668
1.45752
1.3938
1.22962
1.09437
0.996017
0.920654
0.858977
0.807526
0.764068
0.727517
0.696127
0.669488
0.64586
0.626953
0.60957
0.599296
0.585338
0.58882
0.565142
0.588442
0.534604
0.613833
0.476487
0.649142
0.380797
0.457246
0.273715
0.278
0.210956
0.585453
0.581361
0.581662
0.584792
0.587806
0.589872
0.591097
0.594383
0.596591
0.599192
0.603295
0.606957
0.609737
0.610749
0.607346
0.596479
0.618662
0.733317
1.78543
6.88672
0.000780533
0
0
0
0
0.272193
0.448337
1.08785
1.01876
1.15824
1.33376
1.57168
1.95906
2.85856
7.26843
2.67678
1.97368
1.63416
1.38713
1.08036
0.466257
0.644159
0.300902
0.22508
0.511423
0
0.0174279
5.54639
1.057
0.738867
0.765742
0.813269
0.821212
0.800627
0.773909
0.747695
0.722423
0.698204
0.67564
0.654834
0.635989
0.618461
0.603687
0.590038
0.581781
0.570858
0.573033
0.55367
0.571525
0.526143
0.592011
0.471144
0.628918
0.37722
0.469458
0.271193
0.291822
0.200491
0.632676
0.630601
0.62973
0.628497
0.627685
0.626858
0.625268
0.623367
0.621783
0.620887
0.620027
0.618482
0.617101
0.615637
0.614377
0.608158
0.598169
0.59202
0.616398
0.712077
1.83281
6.95652
0
0
0
0
0
0.109645
0.551617
1.00587
1.0709
1.2336
1.43425
1.71217
2.18068
3.35645
6.4395
2.84225
2.17372
1.85302
1.66571
1.59409
1.76459
3.99222
0.814398
0.449327
0
0
5.8288
1.52352
0.763063
0.673348
0.671873
0.677998
0.677076
0.671839
0.665326
0.658382
0.651242
0.644085
0.637097
0.629883
0.62355
0.61704
0.615314
0.61143
0.620308
0.603217
0.629766
0.575677
0.672254
0.509641
0.768525
0.399362
0.515976
0.284316
0.292131
0.201782
)
;

boundaryField
{
    inlet
    {
        type            calculated;
        value           nonuniform List<scalar> 
27
(
0.0874116
0.087354
0.0872484
0.0871089
0.0869612
0.0868091
0.0866483
0.0864802
0.0863057
0.0861313
0.0859578
0.0857884
0.0856264
0.0854756
0.0853398
0.0852231
0.0851237
0.0853277
0.0853014
0.0853131
0.0853839
0.0855214
0.085745
0.0860664
0.0865345
0.0870081
0.0879911
)
;
    }
    outlet
    {
        type            calculated;
        value           nonuniform List<scalar> 
78
(
0.702263
0.69828
0.696257
0.693649
0.691702
0.68974
0.686534
0.682866
0.679721
0.677655
0.675645
0.672625
0.669709
0.666691
0.664042
0.656286
0.645036
0.638877
0.665522
0.764922
1.9328
6.78762
0
0
0
0
0
0.109391
0.552259
1.03569
1.07573
1.2358
1.43512
1.71155
2.17697
3.33869
6.65953
2.85693
2.17939
1.85553
1.66607
1.59171
1.75345
4.91689
0.833865
0.460769
0
0
5.42476
1.61384
0.805018
0.709739
0.708711
0.716357
0.717194
0.714048
0.710009
0.705818
0.701623
0.697445
0.693451
0.688801
0.685194
0.680321
0.682563
0.678921
0.697446
0.668125
0.720839
0.624288
0.820989
0.532305
1.48177
0.407058
0.545234
0.289216
0.291778
0.207399
)
;
    }
    walls
    {
        type            calculated;
        value           nonuniform List<scalar> 0();
    }
    frontAndBack
    {
        type            empty;
    }
    procBoundary7to3
    {
        type            processor;
        value           nonuniform List<scalar> 
16
(
0.206888
0.199299
0.226937
0.245316
0.260726
0.281853
0.311017
0.344075
0.402809
0.402809
0.448563
0.502499
0.54717
0.607639
0.579854
0.637533
)
;
    }
    procBoundary7to6
    {
        type            processor;
        value           nonuniform List<scalar> 
91
(
0.223099
0.251495
0.251495
0.257026
0.257026
0.400213
0.400213
0.419209
0.310866
0.310866
0.349608
0.324368
0.324368
0.293808
0.313382
0.314541
0.314541
0.271687
0.280949
0.292963
0.292963
0.239012
0.248076
0.257734
0.268011
0.268011
0.209893
0.216657
0.223813
0.231373
0.239356
0.239356
0.183528
0.187812
0.192398
0.197302
0.202533
0.2081
0.214014
0.214014
0.164524
0.166047
0.167714
0.169542
0.17155
0.173751
0.176159
0.178789
0.181654
0.184761
0.188128
0.191765
0.191765
6.85699e-05
0
0
0.238549
0.989482
0.650201
0.655122
0.682412
0.718356
0.765731
0.833009
0.940005
1.14282
1.70069
2.93333
1.38158
1.07574
0.942977
0.867858
0.811144
0.748056
0.660202
0.584656
0.401761
0
0
0
1.95208
0.274997
0.161349
0.159888
0.169021
0.172968
0.173565
0.174446
0.175796
0.177165
0.177165
)
;
    }
}


// ************************************************************************* //
