/*--------------------------------*- C++ -*----------------------------------*\
| =========                 |                                                 |
| \\      /  F ield         | OpenFOAM: The Open Source CFD Toolbox           |
|  \\    /   O peration     | Version:  2306                                  |
|   \\  /    A nd           | Website:  www.openfoam.com                      |
|    \\/     M anipulation  |                                                 |
\*---------------------------------------------------------------------------*/
FoamFile
{
    version     2.0;
    format      ascii;
    arch        "LSB;label=32;scalar=64";
    class       volScalarField;
    location    "600";
    object      turbulenceProperties:nut;
}
// * * * * * * * * * * * * * * * * * * * * * * * * * * * * * * * * * * * * * //

dimensions      [0 2 -1 0 0 0 0];

internalField   nonuniform List<scalar> 
1340
(
6.10199e-06
6.10274e-06
6.10233e-06
6.08333e-06
6.10338e-06
6.10276e-06
6.08133e-06
6.08325e-06
6.10405e-06
6.10328e-06
6.07231e-06
6.07456e-06
6.08121e-06
6.08314e-06
6.10476e-06
6.10389e-06
6.07744e-06
6.07309e-06
6.07228e-06
6.07449e-06
6.0811e-06
6.08302e-06
6.1055e-06
6.10459e-06
6.09024e-06
6.08641e-06
6.08221e-06
6.07784e-06
6.07333e-06
6.07225e-06
6.07442e-06
6.08099e-06
6.08286e-06
6.10627e-06
6.10539e-06
6.09963e-06
6.09674e-06
6.0941e-06
6.09085e-06
6.08698e-06
6.0827e-06
6.07828e-06
6.0736e-06
6.07224e-06
6.07433e-06
6.08087e-06
6.08268e-06
6.10707e-06
6.10629e-06
6.11213e-06
6.11002e-06
6.10728e-06
6.10389e-06
6.10039e-06
6.09744e-06
6.09477e-06
6.09149e-06
6.08759e-06
6.08323e-06
6.07874e-06
6.07391e-06
6.07224e-06
6.07423e-06
6.08075e-06
6.08246e-06
6.10788e-06
6.10729e-06
6.11858e-06
6.11782e-06
6.1169e-06
6.11583e-06
6.11457e-06
6.11301e-06
6.11092e-06
6.10818e-06
6.10477e-06
6.10119e-06
6.09818e-06
6.09548e-06
6.09218e-06
6.08824e-06
6.0838e-06
6.07923e-06
6.07425e-06
6.07227e-06
6.07412e-06
6.08063e-06
6.08222e-06
6.10871e-06
6.10839e-06
6.12113e-06
6.12111e-06
6.12108e-06
6.121e-06
6.12082e-06
6.12052e-06
6.12009e-06
6.1195e-06
6.11874e-06
6.11782e-06
6.11674e-06
6.11549e-06
6.11393e-06
6.11186e-06
6.10913e-06
6.10569e-06
6.10205e-06
6.09897e-06
6.09623e-06
6.09291e-06
6.08893e-06
6.08441e-06
6.07976e-06
6.07463e-06
6.07232e-06
6.07401e-06
6.0805e-06
6.08195e-06
6.10955e-06
6.10959e-06
6.12267e-06
6.12345e-06
6.12327e-06
6.12302e-06
6.1228e-06
6.12253e-06
6.1223e-06
6.12218e-06
6.12212e-06
6.1221e-06
6.12208e-06
6.12206e-06
6.12203e-06
6.12201e-06
6.12198e-06
6.12191e-06
6.12175e-06
6.12146e-06
6.12104e-06
6.12046e-06
6.11971e-06
6.11879e-06
6.11771e-06
6.11645e-06
6.1149e-06
6.11285e-06
6.11013e-06
6.10667e-06
6.10296e-06
6.09981e-06
6.09703e-06
6.09369e-06
6.08966e-06
6.08506e-06
6.08033e-06
6.07505e-06
6.0724e-06
6.07388e-06
6.08036e-06
6.08164e-06
6.11039e-06
6.11089e-06
5.10225e-10
2.64005e-12
0
0
0.000141938
0.000455008
0.0161113
0.0551938
0.112664
0.176088
0.235511
0.285618
0.324075
0.350415
0.365812
0.372617
0.373748
0.362751
0.330894
0.272102
0.188972
0.0998813
0.0338919
0.00195374
0.000540568
0
0
0
1.86262e-09
4.40728e-07
6.26389e-06
8.04544e-06
6.4641e-06
5.90792e-06
6.03319e-06
6.14175e-06
6.14191e-06
6.1281e-06
6.12594e-06
6.12558e-06
6.12417e-06
6.12341e-06
6.12337e-06
6.12336e-06
6.12322e-06
6.1231e-06
6.12304e-06
6.12303e-06
6.12301e-06
6.12299e-06
6.12296e-06
6.12293e-06
6.12287e-06
6.12272e-06
6.12245e-06
6.12204e-06
6.12147e-06
6.12072e-06
6.1198e-06
6.11872e-06
6.11746e-06
6.11593e-06
6.11389e-06
6.11119e-06
6.10772e-06
6.10393e-06
6.1007e-06
6.09788e-06
6.09452e-06
6.09045e-06
6.08577e-06
6.08094e-06
6.07552e-06
6.07251e-06
6.07375e-06
6.08021e-06
6.08131e-06
6.11122e-06
6.11229e-06
6.2772e-06
1.69472e-08
7.90621e-11
0
0
1.4742e-09
0.00209057
0.00821538
0.0366842
0.0875603
0.150378
0.213179
0.26828
0.31193
0.342839
0.36158
0.370721
0.372993
0.364359
0.336086
0.281252
0.201224
0.11194
0.0398301
0.00355151
0.0009918
0
0
0
3.10554e-10
6.05432e-08
5.11651e-06
8.73334e-06
6.97363e-06
5.98349e-06
5.99282e-06
6.12086e-06
6.13259e-06
6.11862e-06
6.12143e-06
6.12679e-06
6.12671e-06
6.12486e-06
6.12407e-06
6.12408e-06
6.12413e-06
6.12408e-06
6.12403e-06
6.12401e-06
6.12398e-06
6.12395e-06
6.12393e-06
6.12387e-06
6.12374e-06
6.12348e-06
6.12309e-06
6.12253e-06
6.12179e-06
6.12088e-06
6.11979e-06
6.11853e-06
6.117e-06
6.11499e-06
6.11231e-06
6.10883e-06
6.10497e-06
6.10165e-06
6.09878e-06
6.0954e-06
6.09129e-06
6.08652e-06
6.08159e-06
6.07603e-06
6.07266e-06
6.07362e-06
6.08006e-06
6.08097e-06
6.11204e-06
6.11378e-06
7.96455e-06
6.37996e-06
1.05502e-07
4.87178e-10
0
0
0
0.00062286
0.0022881
0.0211216
0.0633274
0.122978
0.187861
0.247788
0.297033
0.333188
0.356237
0.368287
0.371875
0.36553
0.340757
0.28997
0.213233
0.124013
0.0475951
0.0067154
0.00180921
0
0
0
1.59534e-12
5.89402e-11
2.77495e-06
8.24493e-06
7.30183e-06
6.07798e-06
5.99582e-06
6.16687e-06
6.18337e-06
6.13367e-06
6.11467e-06
6.12071e-06
6.12664e-06
6.12689e-06
6.12557e-06
6.12502e-06
6.12503e-06
6.12509e-06
6.12507e-06
6.12503e-06
6.125e-06
6.12497e-06
6.12492e-06
6.12481e-06
6.12457e-06
6.12419e-06
6.12364e-06
6.12292e-06
6.12201e-06
6.12092e-06
6.11965e-06
6.11813e-06
6.11615e-06
6.1135e-06
6.11e-06
6.10608e-06
6.10267e-06
6.09974e-06
6.09633e-06
6.09218e-06
6.08733e-06
6.0823e-06
6.0766e-06
6.07286e-06
6.07348e-06
6.07989e-06
6.08063e-06
6.11283e-06
6.11537e-06
6.22184e-06
7.8264e-06
6.35358e-06
4.71314e-07
2.19833e-09
0
0
0
8.74021e-06
4.87726e-05
0.0107535
0.0420697
0.0955825
0.160489
0.224652
0.279761
0.321738
0.349651
0.364946
0.369949
0.365756
0.344421
0.29776
0.22428
0.135208
0.0555085
0.0102166
0.00269839
0
0
0
8.39499e-17
7.91851e-09
1.93395e-06
7.90373e-06
7.69472e-06
6.00466e-06
5.67768e-06
5.98226e-06
6.18131e-06
6.18062e-06
6.13512e-06
6.11897e-06
6.12258e-06
6.12673e-06
6.12713e-06
6.12639e-06
6.12608e-06
6.12612e-06
6.12615e-06
6.12612e-06
6.12608e-06
6.12603e-06
6.12593e-06
6.12571e-06
6.12535e-06
6.12482e-06
6.1241e-06
6.12319e-06
6.1221e-06
6.12084e-06
6.11933e-06
6.11737e-06
6.11474e-06
6.11125e-06
6.10726e-06
6.10375e-06
6.10076e-06
6.09732e-06
6.09314e-06
6.0882e-06
6.08306e-06
6.07721e-06
6.0731e-06
6.07335e-06
6.07971e-06
6.08027e-06
6.11357e-06
6.11701e-06
6.01199e-06
6.23094e-06
7.47802e-06
6.45503e-06
1.81921e-06
8.34441e-09
4.33869e-16
0
0
1.91799e-12
0.000971863
0.00364259
0.0244323
0.0683017
0.129659
0.196608
0.258186
0.307622
0.342151
0.362036
0.369473
0.367091
0.3489
0.306457
0.236534
0.148134
0.0650861
0.0135419
0.00395183
0.000114453
0
0
0
3.10113e-09
6.99228e-07
6.87543e-06
9.73129e-06
7.60322e-06
6.04589e-06
5.79175e-06
6.00582e-06
6.15314e-06
6.16345e-06
6.13562e-06
6.12365e-06
6.12509e-06
6.12759e-06
6.12785e-06
6.1274e-06
6.12723e-06
6.12724e-06
6.12724e-06
6.1272e-06
6.1271e-06
6.1269e-06
6.12656e-06
6.12605e-06
6.12535e-06
6.12445e-06
6.12336e-06
6.12209e-06
6.12058e-06
6.11865e-06
6.11606e-06
6.11258e-06
6.10852e-06
6.10491e-06
6.10185e-06
6.09838e-06
6.09416e-06
6.08914e-06
6.08388e-06
6.07789e-06
6.07341e-06
6.07323e-06
6.07951e-06
6.07992e-06
6.11431e-06
6.11879e-06
6.13255e-06
6.06486e-06
6.20527e-06
6.77325e-06
6.64239e-06
4.56177e-06
1.73667e-07
8.38013e-10
2.27111e-18
0
0
0.000158513
0.000575868
0.00992369
0.0352146
0.0805927
0.14052
0.205017
0.264252
0.311544
0.343843
0.361344
0.364861
0.354173
0.322601
0.265221
0.186304
0.102707
0.0405628
0.00590188
0.0019708
1.56499e-05
0
0
5.92798e-13
1.9812e-09
2.66431e-07
4.53646e-06
8.41381e-06
7.63692e-06
6.28214e-06
5.88048e-06
5.99756e-06
6.13274e-06
6.15587e-06
6.13567e-06
6.12548e-06
6.12673e-06
6.1289e-06
6.12912e-06
6.12876e-06
6.12863e-06
6.12863e-06
6.12859e-06
6.12842e-06
6.1281e-06
6.12761e-06
6.12693e-06
6.12604e-06
6.12495e-06
6.12366e-06
6.12216e-06
6.12025e-06
6.1177e-06
6.11423e-06
6.1101e-06
6.10636e-06
6.10319e-06
6.09967e-06
6.09541e-06
6.09028e-06
6.08487e-06
6.07872e-06
6.07381e-06
6.07309e-06
6.0793e-06
6.07956e-06
6.11496e-06
6.12068e-06
6.13825e-06
6.1343e-06
6.08041e-06
6.13257e-06
6.39132e-06
7.24058e-06
6.07338e-06
3.07785e-06
1.54555e-09
9.7067e-12
0
0
1.06349e-09
4.71292e-05
0.00231914
0.00858759
0.0315987
0.0738275
0.131392
0.195287
0.255496
0.30448
0.338421
0.356342
0.358317
0.342489
0.30291
0.238036
0.15825
0.0823174
0.0297247
0.00260519
0.000947564
2.86403e-07
0
0
1.30026e-13
2.03508e-09
3.75887e-07
5.13852e-06
8.5177e-06
7.3872e-06
6.13909e-06
5.8917e-06
6.05126e-06
6.15553e-06
6.1536e-06
6.13233e-06
6.12721e-06
6.12973e-06
6.13107e-06
6.13087e-06
6.13056e-06
6.13042e-06
6.13026e-06
6.12998e-06
6.12953e-06
6.12887e-06
6.12798e-06
6.12688e-06
6.12558e-06
6.12406e-06
6.12217e-06
6.11966e-06
6.11622e-06
6.112e-06
6.1081e-06
6.10479e-06
6.10119e-06
6.09687e-06
6.09163e-06
6.08604e-06
6.0797e-06
6.07433e-06
6.07297e-06
6.07907e-06
6.07922e-06
6.11561e-06
6.12269e-06
6.12742e-06
6.13233e-06
6.1268e-06
6.10616e-06
6.0961e-06
6.28388e-06
6.77777e-06
7.26967e-06
5.28193e-06
9.60781e-07
4.52315e-09
1.5936e-16
0
0
0
3.82112e-05
0.00202587
0.00742256
0.0294705
0.0707359
0.127819
0.191956
0.252954
0.302744
0.33681
0.352897
0.350751
0.32684
0.27728
0.206165
0.127501
0.0595502
0.0163965
0.000835457
0.000336348
0
0
0
2.27597e-13
6.44164e-09
1.4072e-06
7.08108e-06
8.2704e-06
6.68016e-06
5.90668e-06
5.94477e-06
6.1162e-06
6.16149e-06
6.14201e-06
6.12944e-06
6.12993e-06
6.13204e-06
6.1325e-06
6.13242e-06
6.1323e-06
6.13202e-06
6.13155e-06
6.13089e-06
6.13002e-06
6.12892e-06
6.1276e-06
6.12607e-06
6.12419e-06
6.12172e-06
6.11831e-06
6.11404e-06
6.10999e-06
6.10651e-06
6.10282e-06
6.09844e-06
6.09309e-06
6.08731e-06
6.08078e-06
6.07496e-06
6.0729e-06
6.0788e-06
6.07888e-06
6.11617e-06
6.12471e-06
6.1253e-06
6.12773e-06
6.12678e-06
6.11758e-06
6.09007e-06
6.16668e-06
6.41621e-06
7.20057e-06
6.78985e-06
4.21742e-06
8.59873e-08
4.17747e-10
0
0
0
0
3.03112e-05
0.00201276
0.00740036
0.0295923
0.0712382
0.12896
0.193894
0.255426
0.30472
0.336661
0.347865
0.338471
0.304601
0.245809
0.170576
0.0946953
0.0381785
0.00666751
0.00196885
1.10672e-05
0
0
0
6.03444e-10
1.10556e-07
4.46306e-06
8.62501e-06
7.54357e-06
6.16474e-06
5.89987e-06
6.062e-06
6.15862e-06
6.15439e-06
6.13734e-06
6.13391e-06
6.13466e-06
6.1344e-06
6.13398e-06
6.13389e-06
6.13365e-06
6.13307e-06
6.13219e-06
6.13107e-06
6.12974e-06
6.12819e-06
6.12631e-06
6.12388e-06
6.12053e-06
6.11622e-06
6.11202e-06
6.10837e-06
6.10456e-06
6.10012e-06
6.09467e-06
6.0887e-06
6.08195e-06
6.07571e-06
6.07288e-06
6.07851e-06
6.07851e-06
6.1166e-06
6.12673e-06
6.12389e-06
6.12449e-06
6.12544e-06
6.12758e-06
6.11862e-06
6.10583e-06
6.08395e-06
6.25354e-06
6.67087e-06
7.33661e-06
6.03499e-06
1.58019e-06
7.47623e-09
2.5679e-16
0
0
0
0
3.46167e-05
0.00225399
0.00837618
0.031963
0.0754829
0.134992
0.200997
0.26216
0.308919
0.335919
0.340343
0.321258
0.276306
0.208644
0.131411
0.0628941
0.0188868
0.00209555
0.000615066
0
0
0
8.30653e-14
6.55511e-09
1.45928e-06
7.5193e-06
8.17331e-06
6.55218e-06
5.91417e-06
5.99593e-06
6.12916e-06
6.14757e-06
6.13393e-06
6.13348e-06
6.13763e-06
6.13803e-06
6.1366e-06
6.13567e-06
6.13515e-06
6.13443e-06
6.13335e-06
6.132e-06
6.13042e-06
6.12854e-06
6.12616e-06
6.12287e-06
6.11855e-06
6.11422e-06
6.11038e-06
6.10642e-06
6.10191e-06
6.09636e-06
6.0902e-06
6.08324e-06
6.07658e-06
6.07293e-06
6.07819e-06
6.07813e-06
6.11691e-06
6.12873e-06
6.12379e-06
6.124e-06
6.12423e-06
6.12511e-06
6.12609e-06
6.12435e-06
6.11059e-06
6.0854e-06
6.12534e-06
6.3445e-06
7.07113e-06
6.97439e-06
4.53131e-06
1.10155e-07
5.45068e-10
6.31008e-20
0
0
0
0
0.000108167
0.000174073
0.0101981
0.0366967
0.0836419
0.145893
0.212746
0.271994
0.314088
0.333371
0.328504
0.297508
0.240533
0.166102
0.0913494
0.0359271
0.00561402
0.00164065
0
0
0
0
1.7537e-09
3.93569e-07
5.65572e-06
8.60317e-06
7.09156e-06
6.05724e-06
6.00959e-06
6.16268e-06
6.18165e-06
6.14212e-06
6.12748e-06
6.13343e-06
6.13873e-06
6.13907e-06
6.13784e-06
6.13676e-06
6.1357e-06
6.13439e-06
6.1328e-06
6.13091e-06
6.12856e-06
6.12535e-06
6.12105e-06
6.11661e-06
6.11258e-06
6.10844e-06
6.10385e-06
6.0982e-06
6.09186e-06
6.08466e-06
6.07761e-06
6.07309e-06
6.07785e-06
6.0777e-06
6.11703e-06
6.1307e-06
6.12411e-06
6.1243e-06
6.12449e-06
6.12464e-06
6.12522e-06
6.12592e-06
6.127e-06
6.11804e-06
6.10195e-06
6.07153e-06
6.20348e-06
6.56189e-06
7.40731e-06
5.7438e-06
2.39307e-06
2.18307e-11
3.11232e-13
0
0
0
0
3.28808e-11
8.42758e-05
0.00339267
0.0128218
0.0445926
0.0963864
0.161803
0.228554
0.283696
0.318286
0.327199
0.310096
0.265298
0.197225
0.120549
0.0545775
0.0145858
0.00396985
3.61947e-05
0
0
0
1.16666e-10
1.88176e-08
3.15109e-06
8.23659e-06
7.40078e-06
5.92868e-06
5.75228e-06
6.05608e-06
6.20907e-06
6.18832e-06
6.14677e-06
6.13545e-06
6.13811e-06
6.14002e-06
6.13952e-06
6.13826e-06
6.13685e-06
6.13524e-06
6.13335e-06
6.13103e-06
6.12789e-06
6.12364e-06
6.11913e-06
6.1149e-06
6.11055e-06
6.10586e-06
6.10013e-06
6.09361e-06
6.08617e-06
6.07872e-06
6.07334e-06
6.07754e-06
6.07728e-06
6.11711e-06
6.13259e-06
6.1247e-06
6.12487e-06
6.12506e-06
6.12522e-06
6.12543e-06
6.12565e-06
6.12658e-06
6.1273e-06
6.12606e-06
6.11134e-06
6.08696e-06
6.09273e-06
6.35363e-06
6.92877e-06
7.29569e-06
4.46248e-06
6.29646e-07
2.98124e-09
7.38025e-16
0
0
0
0
0
0.000574922
0.00185843
0.0186435
0.056447
0.114159
0.182314
0.246887
0.294776
0.317932
0.31373
0.280873
0.2213
0.145997
0.0740373
0.0250534
0.00295456
0.000720577
0
0
0
1.81536e-14
6.52815e-09
1.53973e-06
9.09502e-06
9.72169e-06
6.97318e-06
5.7744e-06
5.81449e-06
6.07177e-06
6.16814e-06
6.16103e-06
6.14524e-06
6.14135e-06
6.14152e-06
6.14104e-06
6.13972e-06
6.13806e-06
6.13614e-06
6.13384e-06
6.13079e-06
6.12661e-06
6.12207e-06
6.11766e-06
6.11307e-06
6.10823e-06
6.1024e-06
6.09572e-06
6.08799e-06
6.08021e-06
6.07385e-06
6.0771e-06
6.07675e-06
6.11656e-06
6.13454e-06
6.12517e-06
6.12535e-06
6.12554e-06
6.12573e-06
6.12593e-06
6.12611e-06
6.12633e-06
6.12688e-06
6.12785e-06
6.1288e-06
6.12194e-06
6.10193e-06
6.07183e-06
6.1962e-06
6.57985e-06
7.41651e-06
6.54308e-06
3.3974e-06
1.98906e-07
9.87049e-10
6.78996e-16
0
0
0
0
5.22275e-07
0.00152849
0.00563745
0.0284696
0.0743033
0.139091
0.210454
0.272566
0.312598
0.322596
0.301586
0.249458
0.173992
0.0944344
0.0304858
0.00155958
0.00142896
0.00045129
0.000138464
2.20759e-06
0
1.96326e-12
1.14952e-08
2.29738e-06
8.59968e-06
8.35487e-06
6.68972e-06
6.06188e-06
6.05009e-06
6.12656e-06
6.15036e-06
6.14776e-06
6.14424e-06
6.14293e-06
6.14181e-06
6.14023e-06
6.1383e-06
6.136e-06
6.13303e-06
6.12893e-06
6.12439e-06
6.11982e-06
6.11501e-06
6.11002e-06
6.10415e-06
6.09729e-06
6.08942e-06
6.08118e-06
6.07426e-06
6.07703e-06
6.07642e-06
6.11716e-06
6.13597e-06
6.1257e-06
6.12592e-06
6.12615e-06
6.12639e-06
6.12664e-06
6.1269e-06
6.12715e-06
6.12743e-06
6.12773e-06
6.12872e-06
6.12975e-06
6.13046e-06
6.11576e-06
6.09532e-06
6.07922e-06
6.30968e-06
6.8449e-06
7.4132e-06
6.31026e-06
3.26356e-06
1.46042e-07
5.58286e-10
0
0
0
0
0
3.08307e-05
0.00173114
0.00593945
0.0276408
0.0690087
0.12597
0.188263
0.242907
0.278905
0.288041
0.267677
0.219454
0.153475
0.0897003
0.0436375
0.0175839
0.00562513
0.00106559
0.000235733
0
0
2.28418e-09
4.69787e-07
3.83849e-06
6.32605e-06
6.51092e-06
6.24299e-06
6.14143e-06
6.13992e-06
6.14848e-06
6.14968e-06
6.14834e-06
6.14689e-06
6.14528e-06
6.14334e-06
6.14102e-06
6.13813e-06
6.1342e-06
6.12975e-06
6.12502e-06
6.11978e-06
6.11443e-06
6.10828e-06
6.10127e-06
6.09282e-06
6.08429e-06
6.07561e-06
6.077e-06
6.07569e-06
6.11447e-06
6.13951e-06
)
;

boundaryField
{
    inlet
    {
        type            freestream;
        freestreamValue uniform 1e-05;
        value           nonuniform List<scalar> 
27
(
6.10199e-06
6.10233e-06
6.10276e-06
6.10328e-06
6.10389e-06
6.10459e-06
6.10539e-06
6.10629e-06
6.10729e-06
6.10839e-06
6.10959e-06
6.11089e-06
6.11229e-06
6.11378e-06
6.11537e-06
6.11701e-06
6.11879e-06
6.12068e-06
6.12269e-06
6.12471e-06
6.12673e-06
6.12873e-06
6.1307e-06
6.13259e-06
6.13454e-06
6.13597e-06
6.13951e-06
)
;
    }
    outlet
    {
        type            freestream;
        freestreamValue uniform 1e-05;
        value           nonuniform List<scalar> 
78
(
6.1257e-06
6.12592e-06
6.12615e-06
6.12639e-06
6.12664e-06
6.1269e-06
6.12715e-06
6.12743e-06
6.12773e-06
6.12872e-06
6.12975e-06
6.13046e-06
6.11576e-06
6.09532e-06
6.07922e-06
6.30968e-06
6.8449e-06
7.4132e-06
6.31026e-06
3.26356e-06
1.46042e-07
5.58286e-10
0
0
0
0
0
3.08307e-05
0.00173114
0.00593945
0.0276408
0.0690087
0.12597
0.188263
0.242907
0.278905
0.288041
0.267677
0.219454
0.153475
0.0897003
0.0436375
0.0175839
0.00562513
0.00106559
0.000235733
0
0
2.28418e-09
4.69787e-07
3.83849e-06
6.32605e-06
6.51092e-06
6.24299e-06
6.14143e-06
6.13992e-06
6.14848e-06
6.14968e-06
6.14834e-06
6.14689e-06
6.14528e-06
6.14334e-06
6.14102e-06
6.13813e-06
6.1342e-06
6.12975e-06
6.12502e-06
6.11978e-06
6.11443e-06
6.10828e-06
6.10127e-06
6.09282e-06
6.08429e-06
6.07561e-06
6.077e-06
6.07569e-06
6.11447e-06
6.13951e-06
)
;
    }
    walls
    {
        type            nutUSpaldingWallFunction;
        value           nonuniform List<scalar> 0();
    }
    frontAndBack
    {
        type            empty;
    }
    procBoundary7to3
    {
        type            processor;
        value           nonuniform List<scalar> 
16
(
5.067e-06
7.97956e-06
6.28177e-06
6.00657e-06
6.12831e-06
6.14563e-06
6.1317e-06
6.12638e-06
6.1246e-06
6.1246e-06
6.12372e-06
6.12356e-06
6.12393e-06
6.12454e-06
6.125e-06
6.12549e-06
)
;
    }
    procBoundary7to6
    {
        type            processor;
        value           nonuniform List<scalar> 
91
(
6.10177e-06
6.10214e-06
6.10214e-06
6.08339e-06
6.08339e-06
6.08144e-06
6.08144e-06
6.07236e-06
6.07461e-06
6.07461e-06
6.07706e-06
6.07287e-06
6.07287e-06
6.08966e-06
6.08588e-06
6.08175e-06
6.08175e-06
6.09892e-06
6.09609e-06
6.09346e-06
6.09346e-06
6.1113e-06
6.10917e-06
6.10642e-06
6.10307e-06
6.10307e-06
6.11772e-06
6.11695e-06
6.11603e-06
6.11496e-06
6.11371e-06
6.11371e-06
6.12027e-06
6.12025e-06
6.12022e-06
6.12013e-06
6.11994e-06
6.11963e-06
6.11918e-06
6.11918e-06
6.12361e-06
6.123e-06
6.12241e-06
6.122e-06
6.1217e-06
6.12149e-06
6.12136e-06
6.12127e-06
6.12122e-06
6.12119e-06
6.12118e-06
6.12116e-06
6.12116e-06
2.64594e-18
0
0
0.00119331
0.00467746
0.0287897
0.0763096
0.137211
0.199168
0.254604
0.299951
0.333765
0.356179
0.368978
0.374735
0.374524
0.360825
0.325199
0.262509
0.176656
0.0877691
0.0260195
0.00282241
0.000696505
0
0
0
4.32788e-09
1.05671e-06
7.0201e-06
7.67285e-06
6.30291e-06
5.96445e-06
6.08796e-06
6.14847e-06
6.13461e-06
6.12301e-06
6.12301e-06
)
;
    }
}


// ************************************************************************* //
