/*--------------------------------*- C++ -*----------------------------------*\
| =========                 |                                                 |
| \\      /  F ield         | OpenFOAM: The Open Source CFD Toolbox           |
|  \\    /   O peration     | Version:  2306                                  |
|   \\  /    A nd           | Website:  www.openfoam.com                      |
|    \\/     M anipulation  |                                                 |
\*---------------------------------------------------------------------------*/
FoamFile
{
    version     2.0;
    format      ascii;
    arch        "LSB;label=32;scalar=64";
    class       volScalarField;
    location    "600";
    object      turbulenceProperties:epsilon;
}
// * * * * * * * * * * * * * * * * * * * * * * * * * * * * * * * * * * * * * //

dimensions      [0 2 -3 0 0 0 0];

internalField   nonuniform List<scalar> 
1340
(
6.71413e-10
3.87686e-10
6.91143e-10
3.64615e-10
3.63916e-10
6.90708e-10
6.34845e-11
3.55314e-10
3.48588e-10
6.96395e-10
5.06887e-11
1.70845e-10
6.23021e-11
3.47967e-10
3.35788e-10
7.05827e-10
1.02682e-10
1.41702e-10
4.76864e-11
1.64611e-10
6.10904e-11
3.41395e-10
3.25606e-10
7.15467e-10
2.04284e-10
1.57406e-10
1.57398e-10
9.46176e-11
1.3391e-10
4.46342e-11
1.58635e-10
5.99243e-11
3.35802e-10
3.18386e-10
7.24549e-10
2.72684e-10
2.40095e-10
2.03467e-10
1.86855e-10
1.43614e-10
1.45904e-10
8.67675e-11
1.26262e-10
4.15893e-11
1.53039e-10
5.87962e-11
3.31291e-10
3.13869e-10
7.32889e-10
4.39189e-10
3.81388e-10
3.29809e-10
2.84315e-10
2.43125e-10
2.15638e-10
1.83134e-10
1.69978e-10
1.30335e-10
1.34681e-10
7.9194e-11
1.18799e-10
3.85823e-11
1.47759e-10
5.77117e-11
3.27601e-10
3.11391e-10
7.41716e-10
7.03077e-10
6.24334e-10
5.52665e-10
4.87784e-10
4.29303e-10
3.76791e-10
3.29866e-10
2.87504e-10
2.49959e-10
2.15152e-10
1.9233e-10
1.63721e-10
1.53686e-10
1.17586e-10
1.23748e-10
7.1904e-11
1.11501e-10
3.56285e-11
1.42683e-10
5.66898e-11
3.24448e-10
3.10504e-10
7.49586e-10
1.12918e-09
1.03707e-09
9.48573e-10
8.6412e-10
7.84169e-10
7.08988e-10
6.38775e-10
5.73604e-10
5.13461e-10
4.58221e-10
4.07722e-10
3.61784e-10
3.20127e-10
2.82635e-10
2.48374e-10
2.17896e-10
1.88884e-10
1.70283e-10
1.45323e-10
1.3807e-10
1.05428e-10
1.13154e-10
6.49355e-11
1.04376e-10
3.27527e-11
1.37761e-10
5.57237e-11
3.21712e-10
3.11664e-10
7.574e-10
1.62962e-09
1.57711e-09
1.52189e-09
1.46395e-09
1.40335e-09
1.34028e-09
1.27509e-09
1.20822e-09
1.14017e-09
1.07153e-09
1.00283e-09
9.34628e-10
8.67502e-10
8.01945e-10
7.38459e-10
6.77382e-10
6.19094e-10
5.6385e-10
5.11844e-10
4.6319e-10
4.17922e-10
3.75994e-10
3.37319e-10
3.01823e-10
2.6932e-10
2.39875e-10
2.12619e-10
1.88323e-10
1.64499e-10
1.49657e-10
1.28078e-10
1.23249e-10
9.39485e-11
1.02972e-10
5.83321e-11
9.74539e-11
2.99865e-11
1.33e-10
5.47901e-11
3.1933e-10
3.13918e-10
7.65144e-10
1.44734e-14
3.13361e-17
0
0
4.36808e-07
6.34808e-07
0.000134343
0.0062864
0.0460427
0.144238
0.270944
0.353828
0.334215
0.214184
0.0683825
0.000757876
0.0619777
0.196282
0.276624
0.225113
0.101158
0.0203479
0.0011846
1.9883e-06
9.23413e-08
0
0
0
2.71119e-13
9.74902e-11
1.51647e-09
1.87032e-09
1.44544e-09
1.27166e-09
1.25853e-09
1.24603e-09
1.21258e-09
1.17647e-09
1.14183e-09
1.10601e-09
1.06805e-09
1.02812e-09
9.86309e-10
9.42684e-10
8.97495e-10
8.51082e-10
8.03884e-10
7.56305e-10
7.08714e-10
6.61523e-10
6.15133e-10
5.69912e-10
5.26117e-10
4.84052e-10
4.43926e-10
4.05902e-10
3.70093e-10
3.36552e-10
3.05253e-10
2.76143e-10
2.4921e-10
2.24305e-10
2.01619e-10
1.80328e-10
1.61354e-10
1.42107e-10
1.3056e-10
1.12078e-10
1.0932e-10
8.32048e-11
9.32583e-11
5.21377e-11
9.07388e-11
2.73513e-11
1.28304e-10
5.39193e-11
3.1715e-10
3.17444e-10
7.72847e-10
5.02854e-10
5.59989e-13
1.20632e-15
0
0
1.57154e-12
5.48275e-06
4.39041e-06
0.00152195
0.0190655
0.0802035
0.181513
0.270456
0.286081
0.209248
0.0862494
0.00534429
0.0286224
0.132545
0.216626
0.196397
0.0989086
0.0231763
0.00164904
6.29206e-06
1.56396e-07
0
0
0
2.71597e-14
7.67789e-12
8.61616e-10
1.41337e-09
1.08845e-09
8.98928e-10
8.73317e-10
8.69294e-10
8.48986e-10
8.24527e-10
8.01485e-10
7.77542e-10
7.51373e-10
7.23424e-10
6.94124e-10
6.63605e-10
6.31987e-10
5.99571e-10
5.66662e-10
5.33534e-10
5.00491e-10
4.67837e-10
4.3584e-10
4.04703e-10
3.74654e-10
3.45852e-10
3.18431e-10
2.92479e-10
2.68042e-10
2.45107e-10
2.23619e-10
2.03597e-10
1.84901e-10
1.67802e-10
1.51506e-10
1.3704e-10
1.2177e-10
1.13065e-10
9.73871e-11
9.63569e-11
7.32543e-11
8.40744e-11
4.63729e-11
8.42563e-11
2.48508e-11
1.23724e-10
5.30273e-11
3.15056e-10
3.21068e-10
7.81073e-10
5.20319e-10
3.89529e-10
3.84651e-12
6.71062e-15
0
0
0
1.71113e-06
1.2513e-06
0.000222113
0.0064257
0.0397445
0.113567
0.198078
0.237255
0.197217
0.0997189
0.0151634
0.00989502
0.0852008
0.166168
0.168795
0.0949497
0.0255845
0.00225731
1.90758e-05
1.93965e-07
0
0
0
5.26128e-17
2.20542e-15
3.10215e-10
9.24881e-10
7.99321e-10
6.40395e-10
6.11155e-10
6.12862e-10
6.00099e-10
5.80207e-10
5.62278e-10
5.45594e-10
5.27734e-10
5.08209e-10
4.87486e-10
4.65906e-10
4.43666e-10
4.2096e-10
3.97973e-10
3.74948e-10
3.52103e-10
3.29647e-10
3.07736e-10
2.86532e-10
2.66152e-10
2.46703e-10
2.28241e-10
2.1081e-10
1.94372e-10
1.78895e-10
1.64384e-10
1.50695e-10
1.3816e-10
1.26002e-10
1.15285e-10
1.03448e-10
9.71511e-11
8.40042e-11
8.43689e-11
6.41061e-11
7.54133e-11
4.10519e-11
7.80287e-11
2.25017e-11
1.19042e-10
5.20903e-11
3.13536e-10
3.24871e-10
7.89809e-10
3.17543e-10
3.89066e-10
3.25803e-10
1.62091e-11
2.54825e-14
0
0
0
2.33386e-08
1.02773e-07
1.14956e-05
0.00164347
0.0170744
0.0654727
0.138292
0.190621
0.180077
0.107982
0.0267954
0.00175632
0.0520559
0.125582
0.143608
0.0896378
0.0272442
0.00287353
3.89497e-05
2.48756e-07
0
0
0
6.87535e-22
4.0721e-13
1.41132e-10
5.94725e-10
5.86234e-10
4.47823e-10
4.09004e-10
4.18677e-10
4.22119e-10
4.11572e-10
3.97144e-10
3.83728e-10
3.70667e-10
3.56839e-10
3.42057e-10
3.26633e-10
3.10842e-10
2.94821e-10
2.78744e-10
2.62763e-10
2.47049e-10
2.31711e-10
2.16866e-10
2.02617e-10
1.89018e-10
1.76121e-10
1.63933e-10
1.52439e-10
1.4158e-10
1.31352e-10
1.21615e-10
1.12701e-10
1.03893e-10
9.62236e-11
8.72518e-11
8.29654e-11
7.20319e-11
7.35065e-11
5.58052e-11
6.74326e-11
3.61506e-11
7.21637e-11
2.0154e-11
1.14754e-10
5.08048e-11
3.11977e-10
3.2932e-10
8.01926e-10
2.43952e-10
2.40765e-10
3.02079e-10
2.52611e-10
5.45843e-11
8.68869e-14
4.78499e-22
0
0
5.28691e-16
2.15794e-06
7.36585e-07
0.000252066
0.00566124
0.0320279
0.0870952
0.144179
0.159076
0.114035
0.0411691
0.000752674
0.0269585
0.0903699
0.120668
0.0854472
0.0300217
0.00393288
8.1054e-05
1.42944e-07
4.13317e-08
0
0
0
1.28184e-13
3.51441e-11
3.41713e-10
4.87038e-10
3.85701e-10
3.00759e-10
2.79633e-10
2.8208e-10
2.81459e-10
2.74018e-10
2.64159e-10
2.54367e-10
2.44566e-10
2.34372e-10
2.23753e-10
2.12909e-10
2.02039e-10
1.91203e-10
1.80556e-10
1.70182e-10
1.60153e-10
1.50559e-10
1.41425e-10
1.328e-10
1.2465e-10
1.16995e-10
1.09757e-10
1.02914e-10
9.6353e-11
9.03554e-11
8.42807e-11
7.91395e-11
7.26023e-11
6.99879e-11
6.10987e-11
6.33758e-11
4.81995e-11
5.97453e-11
3.17641e-11
6.61907e-11
1.8231e-11
1.09834e-10
4.98786e-11
3.09415e-10
3.33387e-10
8.09595e-10
1.89525e-10
1.78225e-10
1.8569e-10
1.97253e-10
1.81985e-10
1.09695e-10
2.23581e-12
3.86097e-15
8.24942e-25
0
0
1.7426e-07
4.71989e-07
5.62382e-06
0.000664754
0.00725086
0.0308793
0.0723556
0.107531
0.105252
0.0621235
0.0132652
0.00251596
0.0375455
0.077251
0.075619
0.0391187
0.00954483
0.000842724
6.88748e-06
2.29528e-07
3.33756e-09
0
0
6.56414e-18
4.43173e-14
7.40575e-12
1.36535e-10
2.54362e-10
2.34568e-10
1.91028e-10
1.74238e-10
1.7278e-10
1.71754e-10
1.67217e-10
1.61019e-10
1.54719e-10
1.48416e-10
1.41975e-10
1.35434e-10
1.28857e-10
1.22401e-10
1.16132e-10
1.10106e-10
1.04354e-10
9.89185e-11
9.38366e-11
8.9074e-11
8.46453e-11
8.04687e-11
7.65359e-11
7.27242e-11
6.92803e-11
6.56443e-11
6.27159e-11
5.85036e-11
5.72866e-11
5.05627e-11
5.32423e-11
4.10159e-11
5.1644e-11
2.79855e-11
5.88538e-11
1.68383e-11
9.98139e-11
4.52999e-11
2.82241e-10
3.00898e-10
6.98583e-10
1.35831e-10
1.30846e-10
1.32146e-10
1.29255e-10
1.27195e-10
1.3973e-10
1.12441e-10
4.6073e-11
6.08767e-15
1.61135e-17
0
0
1.98343e-13
5.80681e-08
1.86172e-06
3.23417e-06
0.000419702
0.00475615
0.0209772
0.0504989
0.075746
0.0726267
0.0396939
0.00609835
0.00403154
0.0324689
0.0555729
0.0462989
0.0202165
0.00412116
0.000285623
9.02347e-07
1.13581e-07
3.09479e-11
0
0
6.69667e-19
2.50576e-14
5.86735e-12
8.49325e-11
1.43572e-10
1.27689e-10
1.0506e-10
9.80862e-11
9.78132e-11
9.65644e-11
9.34228e-11
8.9743e-11
8.61599e-11
8.26122e-11
7.90522e-11
7.55712e-11
7.22111e-11
6.90515e-11
6.61043e-11
6.33999e-11
6.09613e-11
5.87592e-11
5.68116e-11
5.50251e-11
5.34032e-11
5.18136e-11
5.04538e-11
4.88606e-11
4.77711e-11
4.55479e-11
4.55464e-11
4.0764e-11
4.38194e-11
3.41653e-11
4.42333e-11
2.41296e-11
5.28659e-11
1.5403e-11
9.46339e-11
4.55477e-11
2.79881e-10
3.1497e-10
7.10315e-10
9.39116e-11
9.13438e-11
9.37693e-11
9.19015e-11
8.74782e-11
8.61755e-11
9.10321e-11
9.66631e-11
6.35313e-11
7.25229e-12
1.11942e-14
5.3615e-23
0
0
0
5.83861e-08
1.87064e-06
1.71778e-06
0.00031167
0.00368428
0.0164034
0.0391506
0.056934
0.0509691
0.0237336
0.0016513
0.00678888
0.0295521
0.0398379
0.0270584
0.00947034
0.00144504
5.5526e-05
1.12328e-08
4.94891e-08
0
0
0
6.93214e-19
4.41076e-14
1.21823e-11
6.16728e-11
7.54743e-11
6.22098e-11
5.38593e-11
5.24284e-11
5.21874e-11
5.08373e-11
4.88709e-11
4.69016e-11
4.50681e-11
4.33328e-11
4.17017e-11
4.02537e-11
3.89982e-11
3.7959e-11
3.71489e-11
3.65532e-11
3.61678e-11
3.59238e-11
3.58161e-11
3.5716e-11
3.57665e-11
3.55876e-11
3.57766e-11
3.49763e-11
3.58466e-11
3.25921e-11
3.58841e-11
2.82948e-11
3.78881e-11
2.06613e-11
4.78101e-11
1.38073e-11
9.06904e-11
4.49525e-11
2.80839e-10
3.25502e-10
7.20635e-10
6.16146e-11
6.39544e-11
6.33501e-11
6.11115e-11
5.87871e-11
5.75407e-11
5.86728e-11
6.53843e-11
6.00871e-11
3.08883e-11
2.77444e-13
5.99619e-16
0
0
0
0
4.95514e-08
1.71326e-06
1.78176e-06
0.000292971
0.00330207
0.0141063
0.0320393
0.0433413
0.0343522
0.0121101
5.48283e-05
0.0097697
0.0258403
0.0269797
0.014436
0.00375528
0.000376377
4.78434e-06
8.71775e-08
1.80522e-09
0
0
0
2.29012e-15
4.38155e-13
1.86272e-11
3.72078e-11
3.46708e-11
2.84146e-11
2.63401e-11
2.60848e-11
2.55873e-11
2.46756e-11
2.37561e-11
2.29697e-11
2.23149e-11
2.18295e-11
2.15181e-11
2.14026e-11
2.14937e-11
2.17824e-11
2.226e-11
2.28712e-11
2.3614e-11
2.43697e-11
2.52405e-11
2.59074e-11
2.68534e-11
2.69562e-11
2.83337e-11
2.62108e-11
2.95488e-11
2.35993e-11
3.26405e-11
1.78315e-11
4.35252e-11
1.24541e-11
8.75444e-11
4.4122e-11
2.83238e-10
3.31217e-10
7.30126e-10
4.02363e-11
4.21801e-11
4.19761e-11
4.09236e-11
3.99832e-11
3.88841e-11
3.79156e-11
3.80144e-11
4.02625e-11
4.44903e-11
3.48722e-11
6.5916e-12
1.15312e-14
5.9147e-23
0
0
0
0
5.38767e-08
1.50579e-06
3.29105e-06
0.000335377
0.00333717
0.0130368
0.0270462
0.0325719
0.0213737
0.00458184
0.000903051
0.0121041
0.0211366
0.0166647
0.00659857
0.00114278
5.45084e-05
4.9757e-08
7.58263e-08
0
0
0
7.40552e-20
1.22372e-14
2.69088e-12
1.31197e-11
1.54778e-11
1.28913e-11
1.13686e-11
1.11162e-11
1.10199e-11
1.07791e-11
1.05466e-11
1.04353e-11
1.04806e-11
1.06826e-11
1.10567e-11
1.16178e-11
1.23567e-11
1.32705e-11
1.43142e-11
1.54846e-11
1.66869e-11
1.79882e-11
1.91211e-11
2.04668e-11
2.11036e-11
2.27197e-11
2.14183e-11
2.46671e-11
2.00121e-11
2.8443e-11
1.56879e-11
3.99848e-11
1.14964e-11
8.5008e-11
4.32831e-11
2.86847e-10
3.32042e-10
7.41206e-10
2.54976e-11
2.68673e-11
2.68505e-11
2.63082e-11
2.58567e-11
2.53283e-11
2.49674e-11
2.43267e-11
2.39068e-11
2.44136e-11
2.75451e-11
2.7306e-11
1.59132e-11
2.0246e-13
5.44483e-16
5.98009e-27
0
0
0
0
1.3635e-07
7.50959e-08
8.05904e-06
0.000449078
0.00371119
0.0126708
0.0229892
0.0233806
0.0114853
0.000765803
0.00328618
0.0130394
0.0155356
0.00883835
0.00235548
0.00022999
2.31166e-06
8.55485e-08
0
0
0
0
1.61825e-15
2.78164e-13
3.23606e-12
5.20042e-12
4.57103e-12
3.75918e-12
3.5234e-12
3.54103e-12
3.61789e-12
3.7678e-12
4.05186e-12
4.49254e-12
5.09177e-12
5.85221e-12
6.77243e-12
7.84826e-12
9.05238e-12
1.03745e-11
1.17473e-11
1.32126e-11
1.45461e-11
1.60395e-11
1.69384e-11
1.85858e-11
1.78356e-11
2.08996e-11
1.72438e-11
2.50346e-11
1.3992e-11
3.69552e-11
1.07217e-11
8.28587e-11
4.22256e-11
2.90762e-10
3.26247e-10
7.55358e-10
1.80947e-11
1.89469e-11
1.90916e-11
1.87467e-11
1.84086e-11
1.81566e-11
1.80185e-11
1.7713e-11
1.73757e-11
1.69394e-11
1.7052e-11
1.79299e-11
2.04861e-11
1.5699e-11
5.6105e-12
1.23482e-17
1.87074e-19
0
0
0
0
8.80479e-15
9.31587e-08
5.63677e-07
2.1201e-05
0.000677753
0.00441435
0.0125915
0.0190444
0.0152503
0.00459302
0.000107389
0.00597716
0.0119545
0.00965581
0.00368226
0.000570059
2.03954e-05
2.21458e-10
4.42641e-09
0
0
0
2.64955e-17
6.59712e-16
9.04827e-14
2.13771e-13
3.22319e-13
3.42384e-13
3.80851e-13
5.34226e-13
8.1054e-13
1.20005e-12
1.71646e-12
2.37844e-12
3.19138e-12
4.14887e-12
5.24617e-12
6.46116e-12
7.78933e-12
9.17812e-12
1.06625e-11
1.20483e-11
1.35487e-11
1.4551e-11
1.61251e-11
1.57312e-11
1.85756e-11
1.56854e-11
2.28669e-11
1.32116e-11
3.49927e-11
1.05865e-11
8.17026e-11
4.09718e-11
2.95674e-10
3.08506e-10
7.85384e-10
1.2078e-11
1.28107e-11
1.28853e-11
1.26218e-11
1.23857e-11
1.23329e-11
1.23695e-11
1.20682e-11
1.20011e-11
1.19034e-11
1.16325e-11
1.14819e-11
1.19663e-11
1.30135e-11
1.37821e-11
8.22643e-12
9.64751e-13
3.54002e-15
2.94612e-22
0
0
0
0
0
4.47381e-07
2.49894e-08
6.12463e-05
0.00108858
0.00538649
0.0122775
0.0145808
0.00813179
0.000764605
0.00173259
0.00770891
0.00891985
0.00458317
0.000996203
6.31951e-05
1.023e-07
8.30799e-08
0
0
0
4.17852e-21
9.46239e-16
4.82012e-14
1.05008e-12
7.00257e-13
3.66427e-13
4.33465e-13
7.18428e-13
1.14973e-12
1.67897e-12
2.30131e-12
3.03777e-12
3.89013e-12
4.85458e-12
5.90702e-12
7.0474e-12
8.23838e-12
9.51217e-12
1.07129e-11
1.19882e-11
1.28315e-11
1.40997e-11
1.37685e-11
1.62251e-11
1.38027e-11
2.02613e-11
1.16548e-11
3.21047e-11
9.31648e-12
7.87005e-11
3.78564e-11
2.94839e-10
2.77174e-10
8.36071e-10
1.4089e-11
1.449e-11
1.44601e-11
1.4153e-11
1.38648e-11
1.36715e-11
1.35586e-11
1.32611e-11
1.3066e-11
1.28407e-11
1.2494e-11
1.21929e-11
1.19687e-11
1.19032e-11
1.2222e-11
1.32876e-11
1.13469e-11
5.7865e-12
3.31503e-13
1.79362e-15
4.24463e-22
0
0
0
0
4.55767e-10
7.07282e-07
1.02344e-06
0.000171375
0.00182354
0.00680267
0.0122209
0.010998
0.00365983
9.62284e-05
0.00427438
0.00818428
0.00590872
0.00181976
0.000166381
6.42295e-07
1.35624e-07
9.07337e-08
1.10827e-08
2.58277e-11
0
7.22752e-20
2.05161e-15
1.40284e-12
5.75766e-12
4.96768e-12
3.80369e-12
3.63436e-12
4.02282e-12
4.6115e-12
5.29476e-12
6.07589e-12
6.96415e-12
7.9426e-12
9.0016e-12
1.01172e-11
1.13141e-11
1.24632e-11
1.36571e-11
1.44487e-11
1.55864e-11
1.53504e-11
1.76129e-11
1.55117e-11
2.15971e-11
1.34715e-11
3.35867e-11
1.05745e-11
8.17282e-11
3.40679e-11
3.0596e-10
2.28277e-10
1.02478e-09
1.03295e-11
1.04662e-11
1.05243e-11
1.06072e-11
1.06622e-11
1.07186e-11
1.08282e-11
1.09609e-11
1.10731e-11
1.11373e-11
1.11993e-11
1.13118e-11
1.14119e-11
1.15188e-11
1.16119e-11
1.21209e-11
1.30321e-11
1.36919e-11
1.14856e-11
6.53244e-12
3.31772e-13
1.32679e-15
0
0
0
0
0
2.09722e-08
4.48355e-07
1.6374e-06
0.000128452
0.0011353
0.00377911
0.00621154
0.00507038
0.00136753
0.000111185
0.00235111
0.00378708
0.00245291
0.000750022
0.000102947
4.48599e-06
5.60573e-09
2.20244e-08
2.77211e-09
0
0
1.06686e-15
4.75446e-13
4.89107e-12
8.06573e-12
8.15313e-12
7.84007e-12
7.87531e-12
8.12372e-12
8.44738e-12
8.80968e-12
9.2025e-12
9.61848e-12
1.00475e-11
1.05157e-11
1.09494e-11
1.14188e-11
1.15471e-11
1.18429e-11
1.11786e-11
1.25002e-11
1.05208e-11
1.50687e-11
8.10085e-12
2.45312e-11
4.74039e-12
6.5056e-11
2.33449e-11
2.53262e-10
2.27306e-10
9.98835e-10
)
;

boundaryField
{
    inlet
    {
        type            calculated;
        value           nonuniform List<scalar> 
27
(
2.83534e-08
2.84283e-08
2.85663e-08
2.87499e-08
2.89459e-08
2.91495e-08
2.93667e-08
2.95959e-08
2.98363e-08
3.00789e-08
3.03229e-08
3.05634e-08
3.07957e-08
3.10141e-08
3.12123e-08
3.13842e-08
3.15315e-08
3.12315e-08
3.12707e-08
3.12542e-08
3.11511e-08
3.09518e-08
3.06308e-08
3.01764e-08
2.95292e-08
2.88919e-08
2.76231e-08
)
;
    }
    outlet
    {
        type            calculated;
        value           nonuniform List<scalar> 
78
(
6.80332e-12
6.95996e-12
7.04125e-12
7.14784e-12
7.22874e-12
7.31138e-12
7.44899e-12
7.61047e-12
7.7524e-12
7.8475e-12
7.9414e-12
8.08514e-12
8.2258e-12
8.37431e-12
8.50761e-12
8.93676e-12
9.63667e-12
1.00947e-11
8.45072e-12
4.90485e-12
2.67492e-13
1.16987e-15
0
0
0
0
0
2.11677e-08
4.46274e-07
1.45686e-06
0.000126162
0.00112724
0.00377001
0.00622053
0.00510504
0.00139687
9.72029e-05
0.00230316
0.00374779
0.0024397
0.000749366
0.000103564
4.60116e-06
2.43629e-09
2.00386e-08
2.50686e-09
0
0
8.15497e-16
3.76789e-13
3.94765e-12
6.5337e-12
6.58483e-12
6.29017e-12
6.2548e-12
6.36575e-12
6.51244e-12
6.66867e-12
6.82959e-12
6.9947e-12
7.15725e-12
7.35245e-12
7.50844e-12
7.72578e-12
7.62446e-12
7.78916e-12
6.99328e-12
8.30446e-12
6.12764e-12
1.08945e-11
3.63958e-12
2.06119e-11
3.39298e-13
6.02736e-11
1.87224e-11
2.36529e-10
2.28407e-10
8.94957e-10
)
;
    }
    walls
    {
        type            calculated;
        value           nonuniform List<scalar> 0();
    }
    frontAndBack
    {
        type            empty;
    }
    procBoundary7to3
    {
        type            processor;
        value           nonuniform List<scalar> 
16
(
8.98624e-10
1.07627e-09
6.25175e-10
4.56684e-10
3.58297e-10
2.62394e-10
1.7695e-10
1.18127e-10
6.28846e-11
6.28846e-11
4.08914e-11
2.59632e-11
1.84665e-11
1.21407e-11
1.46413e-11
1.00182e-11
)
;
    }
    procBoundary7to6
    {
        type            processor;
        value           nonuniform List<scalar> 
91
(
6.68171e-10
4.13773e-10
4.13773e-10
3.79222e-10
3.79222e-10
6.45077e-11
6.45077e-11
5.35811e-11
1.77204e-10
1.77204e-10
1.10776e-10
1.49488e-10
1.49488e-10
2.22112e-10
1.71599e-10
1.69076e-10
1.69076e-10
3.03802e-10
2.65671e-10
2.24694e-10
2.24694e-10
5.07267e-10
4.37088e-10
3.75153e-10
3.20827e-10
3.20827e-10
8.52996e-10
7.51362e-10
6.59769e-10
5.77665e-10
5.04366e-10
5.04366e-10
1.4593e-09
1.33064e-09
1.20823e-09
1.0925e-09
9.83933e-10
8.82793e-10
7.89177e-10
7.89177e-10
2.25969e-09
2.1779e-09
2.0926e-09
2.00376e-09
1.91159e-09
1.81656e-09
1.71924e-09
1.62028e-09
1.52047e-09
1.42073e-09
1.32173e-09
1.22427e-09
1.22427e-09
8.28581e-24
0
0
4.2006e-06
8.54073e-07
0.00106809
0.0192992
0.095295
0.23735
0.384045
0.448374
0.380972
0.211926
0.0480385
0.00568613
0.115353
0.280647
0.347963
0.255109
0.101879
0.0172735
0.000741784
1.53946e-06
1.0408e-07
0
0
0
9.371e-13
3.60193e-10
2.46829e-09
2.58495e-09
2.03212e-09
1.84716e-09
1.82382e-09
1.78821e-09
1.73371e-09
1.68055e-09
1.68055e-09
)
;
    }
}


// ************************************************************************* //
