/*--------------------------------*- C++ -*----------------------------------*\
| =========                 |                                                 |
| \\      /  F ield         | OpenFOAM: The Open Source CFD Toolbox           |
|  \\    /   O peration     | Version:  2306                                  |
|   \\  /    A nd           | Website:  www.openfoam.com                      |
|    \\/     M anipulation  |                                                 |
\*---------------------------------------------------------------------------*/
FoamFile
{
    version     2.0;
    format      ascii;
    arch        "LSB;label=32;scalar=64";
    class       volVectorField;
    location    "600";
    object      U;
}
// * * * * * * * * * * * * * * * * * * * * * * * * * * * * * * * * * * * * * //

dimensions      [0 1 -1 0 0 0 0];

internalField   nonuniform List<vector> 
1340
(
(26.0616 2.65164 1.04454e-16)
(25.8628 3.22883 1.52716e-17)
(26.0517 2.64885 -5.67221e-17)
(25.9546 2.86823 -4.39593e-16)
(25.8668 3.22694 2.55401e-19)
(26.0436 2.64518 -4.78253e-19)
(25.9262 3.06463 1.53387e-16)
(25.949 2.86114 -4.40804e-18)
(25.8694 3.22507 -2.18489e-17)
(26.0369 2.64094 2.64091e-16)
(25.9664 2.9893 5.22316e-16)
(25.9588 2.93009 3.0112e-16)
(25.9242 3.06084 -7.07235e-17)
(25.9432 2.85429 1.56279e-16)
(25.8714 3.22301 9.73848e-17)
(26.0301 2.63649 -2.64708e-16)
(26.0008 2.94307 -9.02805e-17)
(25.9845 2.93386 2.41353e-17)
(25.9612 2.98374 -8.02731e-18)
(25.953 2.92293 -3.64841e-18)
(25.9219 3.05687 -5.07287e-17)
(25.937 2.84775 1.03614e-17)
(25.8731 3.2207 3.85226e-19)
(26.0228 2.63189 -5.17056e-19)
(26.0471 2.88786 2.46666e-16)
(26.0293 2.90472 3.02273e-16)
(26.0121 2.91213 3.60715e-16)
(25.9927 2.93653 1.3865e-16)
(25.9772 2.92673 -1.49183e-17)
(25.9555 2.97822 -2.23606e-16)
(25.9469 2.91605 -5.09918e-17)
(25.9193 3.05276 1.13985e-16)
(25.9307 2.84151 -1.49049e-16)
(25.8742 3.21816 -4.05381e-19)
(26.0155 2.62708 -5.22311e-19)
(26.0826 2.83673 6.63209e-17)
(26.0659 2.85357 -3.02463e-16)
(26.0508 2.86839 -3.42534e-17)
(26.0352 2.88097 -1.91981e-16)
(26.0185 2.89802 -4.43215e-18)
(26.0024 2.90519 -7.78987e-18)
(25.9843 2.93023 -1.13695e-16)
(25.9695 2.91989 1.40112e-17)
(25.9496 2.97276 -9.01836e-19)
(25.9405 2.90946 -2.38623e-18)
(25.9162 3.04852 -2.80058e-18)
(25.9243 2.83555 6.18409e-18)
(25.8746 3.21544 -9.67991e-17)
(26.0083 2.62209 -1.42154e-16)
(26.1293 2.74232 1.84715e-16)
(26.1149 2.76623 -1.43104e-16)
(26.0995 2.78904 -6.84852e-17)
(26.0832 2.81067 2.30913e-17)
(26.0665 2.83118 -5.84153e-20)
(26.0512 2.84765 8.50662e-18)
(26.0373 2.86231 9.23281e-19)
(26.0228 2.87464 2.05982e-16)
(26.0074 2.89179 8.89233e-17)
(25.9924 2.89868 -1.21406e-16)
(25.9756 2.92422 1.11408e-16)
(25.9614 2.91339 -4.60497e-19)
(25.9432 2.9674 1.97244e-16)
(25.9338 2.90319 4.11958e-17)
(25.9127 3.0442 -6.36874e-17)
(25.9177 2.82989 1.47187e-16)
(25.8744 3.21255 8.29484e-17)
(26.0012 2.617 1.86655e-16)
(26.1462 2.61782 1.65474e-16)
(26.1415 2.64344 2.71691e-17)
(26.1351 2.66874 2.63714e-17)
(26.1271 2.69358 3.30024e-17)
(26.1174 2.71782 8.1341e-18)
(26.1062 2.74134 -1.22088e-16)
(26.0936 2.76404 -1.27287e-16)
(26.0799 2.78584 2.39399e-18)
(26.0653 2.80663 -5.59889e-17)
(26.0502 2.82651 -3.36275e-17)
(26.0363 2.84251 8.52106e-18)
(26.0236 2.85692 9.28985e-19)
(26.0103 2.86894 -6.78039e-18)
(25.996 2.88606 -9.77328e-17)
(25.982 2.89264 1.04914e-16)
(25.9665 2.91854 -1.02848e-16)
(25.953 2.90727 -4.7514e-19)
(25.9366 2.96217 -1.98685e-16)
(25.9268 2.89728 -4.61844e-17)
(25.9088 3.03981 5.72965e-17)
(25.9109 2.82456 1.73289e-18)
(25.8736 3.20949 -1.44841e-16)
(25.994 2.61187 -1.82852e-18)
(26.096 2.47229 1.99209e-17)
(26.1031 2.4928 5.80839e-17)
(26.109 2.51405 -2.87585e-17)
(26.1135 2.53596 5.74435e-17)
(26.1165 2.55841 2.03613e-17)
(26.118 2.58127 -7.73706e-17)
(26.1179 2.60442 -8.45833e-18)
(26.1161 2.62772 -7.99009e-18)
(26.1128 2.65103 2.53489e-17)
(26.1078 2.67421 1.73811e-17)
(26.1013 2.69714 -9.33722e-18)
(26.0932 2.71967 -3.48173e-19)
(26.0836 2.74168 -2.42084e-18)
(26.0727 2.76307 2.88427e-17)
(26.0606 2.78376 2.34268e-18)
(26.0475 2.8036 5.02497e-17)
(26.0339 2.82273 3.33981e-17)
(26.0213 2.83817 8.48154e-18)
(26.0097 2.85225 9.29077e-19)
(25.9974 2.86387 -1.83998e-16)
(25.9843 2.88088 -5.01738e-17)
(25.9713 2.88711 -1.81338e-16)
(25.9571 2.91322 1.00462e-16)
(25.9443 2.90157 -4.88037e-19)
(25.9295 2.95712 1.27731e-16)
(25.9195 2.89175 -1.19059e-16)
(25.9044 3.03538 -1.45587e-16)
(25.904 2.81958 1.79741e-18)
(25.8723 3.20628 2.9212e-18)
(25.9867 2.60678 -4.48955e-17)
(25.9397 2.3614 2.03795e-18)
(25.951 2.36828 -2.55436e-19)
(25.9624 2.37595 -3.22522e-19)
(25.9739 2.38445 -7.17231e-18)
(25.9854 2.39381 -5.31185e-18)
(25.9968 2.40408 -1.30317e-17)
(26.008 2.41528 -4.82701e-18)
(26.0189 2.42742 -1.08564e-17)
(26.0294 2.44052 7.80813e-18)
(26.0395 2.45458 5.18904e-17)
(26.0489 2.46958 -1.58953e-17)
(26.0576 2.48551 1.74429e-17)
(26.0654 2.50231 -4.84335e-18)
(26.0723 2.51995 -4.03623e-18)
(26.0781 2.53836 1.91016e-18)
(26.0828 2.55746 -3.6541e-18)
(26.0862 2.57716 -1.2406e-18)
(26.0882 2.59738 4.51632e-18)
(26.0888 2.61798 3.67005e-17)
(26.088 2.63888 -8.35924e-17)
(26.0857 2.65993 4.58091e-18)
(26.082 2.68102 -1.96922e-17)
(26.0767 2.70202 -8.81302e-18)
(26.0699 2.72281 6.52062e-19)
(26.0617 2.74326 8.83772e-17)
(26.0522 2.76327 9.6938e-17)
(26.0415 2.78276 -6.19192e-17)
(26.0299 2.80155 4.79647e-17)
(26.0177 2.81984 -2.87992e-17)
(26.0063 2.83464 8.3914e-18)
(25.9957 2.84831 9.23821e-19)
(25.9845 2.85948 6.66409e-17)
(25.9725 2.87627 1.17996e-16)
(25.9604 2.88212 1.64096e-16)
(25.9475 2.9083 -4.22173e-17)
(25.9354 2.89632 -2.31235e-17)
(25.9222 2.95226 -1.05227e-16)
(25.912 2.88663 -7.02369e-17)
(25.8997 3.03094 2.70585e-18)
(25.8969 2.81496 1.86169e-18)
(25.8704 3.20295 3.39503e-18)
(25.9794 2.60178 4.10425e-17)
(25.7173 2.3973 -1.13692e-18)
(25.7164 2.39709 2.85853e-19)
(25.7149 2.39651 8.35438e-19)
(25.7168 2.39594 -7.56475e-19)
(25.7284 2.39588 -8.61792e-19)
(25.7475 2.39607 2.23854e-18)
(25.7482 2.39478 1.30377e-18)
(25.6796 2.38874 -1.20123e-18)
(25.4948 2.37444 2.86552e-19)
(25.1793 2.34994 1.85959e-18)
(24.7524 2.31531 2.92788e-19)
(24.2555 2.27257 8.58922e-19)
(23.7454 2.22549 -1.08999e-18)
(23.2906 2.1796 -3.80248e-18)
(22.9667 2.14183 1.22981e-18)
(22.8435 2.11964 8.09817e-18)
(22.9647 2.11922 1.13335e-18)
(23.3282 2.1431 -1.5402e-18)
(23.8798 2.18868 3.661e-19)
(24.5204 2.24788 3.46779e-18)
(25.1232 2.30806 -1.93885e-18)
(25.5674 2.3553 7.01721e-18)
(25.7962 2.38107 -1.07486e-17)
(25.8529 2.38777 1.15928e-17)
(25.8372 2.38555 7.25269e-18)
(25.8219 2.38307 1.29628e-18)
(25.825 2.38308 1.84417e-18)
(25.8371 2.38466 1.45438e-17)
(25.8488 2.38653 -1.00416e-18)
(25.8581 2.38831 4.10292e-18)
(25.8665 2.3902 -8.48776e-18)
(25.8748 2.39239 -1.13117e-17)
(25.8833 2.39495 9.63979e-19)
(25.892 2.3979 -3.97618e-18)
(25.9007 2.40128 7.29262e-18)
(25.9097 2.40514 -1.88573e-18)
(25.9189 2.40953 -4.15353e-18)
(25.9283 2.41449 -2.71253e-18)
(25.9379 2.42006 1.54459e-18)
(25.9476 2.42629 -1.79055e-19)
(25.9575 2.43322 1.60055e-18)
(25.9673 2.44088 9.03354e-19)
(25.9772 2.44932 6.80667e-19)
(25.987 2.45856 5.66244e-19)
(25.9966 2.46862 1.38113e-18)
(26.0059 2.47953 8.25274e-18)
(26.0148 2.4913 -4.62441e-18)
(26.0233 2.50393 -3.71962e-17)
(26.0313 2.5174 -1.37954e-18)
(26.0385 2.5317 -1.5296e-17)
(26.045 2.54681 -3.51527e-19)
(26.0506 2.56267 -2.13848e-17)
(26.0552 2.57923 -3.23427e-18)
(26.0587 2.59643 -1.10746e-18)
(26.061 2.61419 4.06572e-18)
(26.0621 2.63242 -3.55673e-17)
(26.062 2.65103 7.55487e-17)
(26.0604 2.66991 -2.19747e-17)
(26.0576 2.68896 -1.08117e-18)
(26.0533 2.70806 -8.26208e-18)
(26.0477 2.7271 4.63594e-17)
(26.0407 2.74597 -1.07433e-17)
(26.0324 2.76455 -1.56822e-17)
(26.023 2.78278 7.69761e-18)
(26.0126 2.80047 -6.7587e-18)
(26.0016 2.81783 2.85774e-17)
(25.9914 2.83192 6.66711e-17)
(25.9818 2.84511 3.87584e-17)
(25.9715 2.85578 -1.82253e-17)
(25.9605 2.87224 -9.61968e-17)
(25.9494 2.8777 -8.46349e-17)
(25.9376 2.90379 1.40477e-18)
(25.9261 2.89154 9.73825e-17)
(25.9145 2.94762 -2.39329e-18)
(25.9042 2.88195 7.55101e-17)
(25.8945 3.02651 -3.49349e-17)
(25.8896 2.81075 1.92942e-18)
(25.8681 3.19951 6.05731e-17)
(25.972 2.59697 -4.21309e-17)
(25.7431 2.4488 5.11379e-20)
(25.7431 2.44868 1.62984e-18)
(25.7423 2.44824 7.22678e-19)
(25.7408 2.44764 -4.74096e-19)
(25.7411 2.44719 -4.96538e-19)
(25.7493 2.44715 -6.42525e-20)
(25.7678 2.44752 -6.02145e-20)
(25.7813 2.44725 1.37311e-18)
(25.7485 2.44365 -9.35666e-19)
(25.6186 2.43308 2.02933e-18)
(25.3622 2.4128 -6.06348e-19)
(24.9858 2.38209 -4.00695e-20)
(24.5232 2.34237 2.00015e-18)
(24.0267 2.29695 1.88075e-19)
(23.5623 2.25101 -1.77059e-18)
(23.2044 2.21126 -4.61032e-19)
(23.0259 2.18523 -2.03283e-18)
(23.0792 2.17962 2.55806e-18)
(23.375 2.19798 1.64153e-18)
(23.8717 2.23889 1.05801e-18)
(24.4801 2.29533 4.05099e-18)
(25.0778 2.35533 -8.14041e-18)
(25.5399 2.40482 8.19195e-18)
(25.7953 2.43389 -9.48822e-18)
(25.8702 2.44301 -1.53601e-19)
(25.8582 2.4415 -6.70789e-20)
(25.8387 2.43869 -3.49784e-18)
(25.8376 2.43826 -5.82306e-18)
(25.8478 2.43966 5.65004e-19)
(25.8587 2.44149 -1.31757e-18)
(25.8672 2.44321 7.04719e-19)
(25.8744 2.44499 6.06143e-18)
(25.8816 2.44704 -1.45694e-20)
(25.8889 2.44942 6.73679e-18)
(25.8962 2.45216 -5.5536e-18)
(25.9038 2.45528 1.24849e-18)
(25.9115 2.45882 -1.46015e-19)
(25.9194 2.46284 3.99998e-18)
(25.9275 2.46736 -4.91887e-19)
(25.9357 2.47243 5.2984e-19)
(25.944 2.47808 1.34489e-18)
(25.9525 2.48435 7.10074e-19)
(25.961 2.49128 -1.65578e-18)
(25.9694 2.4989 4.57774e-19)
(25.9777 2.50723 6.91222e-19)
(25.9859 2.5163 -7.26799e-18)
(25.9938 2.52613 -3.86022e-18)
(26.0013 2.53673 4.11857e-18)
(26.0084 2.54809 -1.88731e-17)
(26.015 2.56022 7.42702e-18)
(26.0209 2.5731 -3.54941e-18)
(26.0261 2.5867 2.43222e-17)
(26.0304 2.60099 -2.84602e-18)
(26.0339 2.61591 -9.82658e-19)
(26.0363 2.63143 -2.14907e-17)
(26.0377 2.64746 -3.17287e-18)
(26.0379 2.66393 -1.25987e-17)
(26.0369 2.68075 1.15782e-17)
(26.0347 2.69784 3.20519e-17)
(26.0313 2.71509 -1.09413e-16)
(26.0265 2.73241 -4.76995e-17)
(26.0205 2.7497 -8.34375e-17)
(26.0133 2.76682 -8.5163e-17)
(26.0049 2.78377 7.46171e-17)
(25.9957 2.80029 -9.96063e-17)
(25.9858 2.81667 2.40587e-17)
(25.9766 2.82999 3.45142e-18)
(25.9679 2.84264 -2.10229e-17)
(25.9585 2.85276 1.76073e-17)
(25.9484 2.86882 -7.01062e-17)
(25.9382 2.87386 -5.33898e-17)
(25.9275 2.89972 1.41537e-18)
(25.9167 2.88726 -6.60337e-17)
(25.9066 2.94324 -2.44376e-18)
(25.8961 2.87774 2.02794e-16)
(25.889 3.02212 4.06276e-17)
(25.8821 2.80698 1.40383e-16)
(25.8653 3.19597 -5.56772e-17)
(25.9643 2.59243 3.8028e-17)
(25.7651 2.49585 4.27306e-20)
(25.7653 2.49578 -7.89223e-20)
(25.7654 2.49546 -4.69796e-19)
(25.7648 2.495 8.51473e-19)
(25.7633 2.49453 2.30367e-19)
(25.7625 2.49414 -7.31585e-19)
(25.7675 2.49404 3.94114e-19)
(25.7832 2.49443 -2.95149e-21)
(25.8029 2.49481 2.73894e-20)
(25.7965 2.49313 -1.80789e-19)
(25.7149 2.48594 4.657e-20)
(25.5172 2.46989 9.54799e-19)
(25.1944 2.44335 -3.95969e-20)
(24.7705 2.40698 1.65222e-19)
(24.2927 2.36359 1.29612e-18)
(23.8237 2.31795 -2.91031e-19)
(23.4371 2.27656 9.5479e-19)
(23.2082 2.24698 1.54404e-18)
(23.1968 2.23635 -7.95896e-20)
(23.426 2.24918 -1.26637e-18)
(23.8672 2.2852 -1.54991e-18)
(24.4412 2.33848 6.58932e-18)
(25.0301 2.39772 -6.87522e-18)
(25.5067 2.44882 3.23997e-19)
(25.7876 2.48076 -2.03064e-18)
(25.8822 2.4922 -6.01854e-20)
(25.8762 2.4915 -7.14554e-19)
(25.854 2.48847 -6.67693e-20)
(25.8491 2.48774 -2.89026e-18)
(25.8573 2.48909 -3.65493e-21)
(25.8672 2.49097 1.74439e-19)
(25.8748 2.49266 -1.52781e-19)
(25.8808 2.49428 -1.08078e-18)
(25.8868 2.49613 -8.83561e-18)
(25.8931 2.49832 5.39318e-18)
(25.8994 2.50085 -1.25529e-18)
(25.9059 2.50372 -8.30691e-20)
(25.9125 2.50696 -8.43211e-19)
(25.9192 2.51062 -1.43585e-18)
(25.9261 2.51474 1.33889e-19)
(25.9332 2.51935 1.09593e-18)
(25.9403 2.52448 7.1403e-19)
(25.9475 2.53016 2.41949e-18)
(25.9547 2.53643 8.21973e-19)
(25.9619 2.54332 7.56775e-19)
(25.9689 2.55084 -6.90973e-19)
(25.9758 2.55902 -3.20529e-18)
(25.9824 2.56789 3.45252e-18)
(25.9886 2.57743 1.65119e-17)
(25.9944 2.58768 -2.32158e-17)
(25.9997 2.59861 -5.20797e-18)
(26.0044 2.61022 1.2695e-18)
(26.0084 2.62248 -2.49066e-18)
(26.0117 2.63537 -8.67028e-19)
(26.014 2.64884 2.81689e-17)
(26.0155 2.66285 3.88143e-18)
(26.0159 2.67733 -7.08376e-18)
(26.0153 2.69223 -3.10796e-17)
(26.0135 2.70746 -1.617e-17)
(26.0106 2.72293 1.31827e-16)
(26.0066 2.73858 2.30207e-17)
(26.0014 2.7543 -2.91862e-17)
(25.995 2.76999 1.4238e-16)
(25.9876 2.78562 -4.69618e-17)
(25.9793 2.80095 2.64215e-17)
(25.9704 2.8163 -2.8173e-17)
(25.962 2.82882 8.15866e-17)
(25.9541 2.84087 -2.91672e-17)
(25.9455 2.85041 -1.41871e-17)
(25.9364 2.86599 -1.14494e-17)
(25.9269 2.8706 5.44054e-17)
(25.9173 2.89611 1.41889e-18)
(25.9071 2.8835 5.54475e-17)
(25.8984 2.93912 -2.48001e-18)
(25.8878 2.87403 -2.57355e-16)
(25.8832 3.01777 3.01815e-18)
(25.8744 2.80372 -1.35956e-16)
(25.8622 3.19232 7.08786e-17)
(25.9563 2.58824 -2.18707e-18)
(25.784 2.53887 3.57832e-20)
(25.7843 2.53883 -6.61367e-20)
(25.7845 2.53859 1.28455e-18)
(25.7846 2.53825 -9.68488e-19)
(25.7843 2.53792 5.5202e-20)
(25.783 2.53755 6.00589e-19)
(25.7815 2.53718 -1.61546e-18)
(25.7838 2.537 -4.54996e-21)
(25.7956 2.53733 2.3319e-20)
(25.8164 2.53801 -1.58308e-19)
(25.8271 2.5377 4.24e-20)
(25.7853 2.53341 -1.08341e-18)
(25.643 2.52145 5.94136e-20)
(25.376 2.49925 1.34817e-18)
(24.9951 2.46649 2.08369e-18)
(24.5405 2.42526 -2.51798e-19)
(24.0719 2.3799 8.44065e-19)
(23.662 2.33675 -1.81743e-18)
(23.3882 2.30348 7.83099e-19)
(23.3171 2.28775 -1.11588e-19)
(23.4831 2.29507 -1.97228e-18)
(23.8705 2.32642 2.69229e-19)
(24.4095 2.37691 3.25952e-19)
(24.9874 2.43584 6.88551e-18)
(25.4751 2.48898 3.48019e-18)
(25.7784 2.52409 1.23056e-18)
(25.8911 2.53792 7.90087e-19)
(25.8903 2.53768 -5.81289e-20)
(25.8649 2.53373 2.06894e-18)
(25.8564 2.53199 1.03384e-18)
(25.8637 2.53297 1.66112e-19)
(25.874 2.535 -4.82053e-18)
(25.8813 2.53688 1.02102e-18)
(25.8863 2.53851 8.3611e-18)
(25.8911 2.54021 1.39732e-18)
(25.8962 2.54219 1.22878e-18)
(25.9017 2.54451 -3.44056e-20)
(25.9072 2.54715 1.11105e-18)
(25.9128 2.55013 -1.11126e-18)
(25.9186 2.55348 9.58552e-20)
(25.9244 2.55723 8.15468e-19)
(25.9304 2.56141 2.642e-19)
(25.9365 2.56606 4.75881e-19)
(25.9426 2.57121 -1.55815e-19)
(25.9487 2.57688 6.8673e-19)
(25.9547 2.58311 1.98076e-18)
(25.9605 2.5899 -2.63962e-18)
(25.9662 2.59729 4.08632e-18)
(25.9716 2.60528 2.47582e-18)
(25.9767 2.6139 1.14116e-17)
(25.9813 2.62314 -5.13544e-18)
(25.9854 2.633 6.82896e-18)
(25.989 2.64347 -7.2291e-18)
(25.9919 2.65454 -7.60069e-19)
(25.9941 2.66618 4.40749e-17)
(25.9954 2.67835 -1.97258e-17)
(25.9959 2.69102 7.8572e-19)
(25.9954 2.70412 4.77513e-17)
(25.994 2.71761 -2.44111e-17)
(25.9915 2.73141 -2.51238e-17)
(25.9879 2.74545 -8.79647e-17)
(25.9833 2.75966 1.12058e-18)
(25.9776 2.77392 -8.94879e-18)
(25.971 2.78826 1.52398e-17)
(25.9635 2.80239 1.11e-17)
(25.9554 2.81668 2.38138e-17)
(25.9478 2.82837 -7.45277e-17)
(25.9406 2.83979 -5.02509e-18)
(25.9327 2.84873 -1.30866e-17)
(25.9244 2.86375 7.02435e-17)
(25.9156 2.86794 -1.09854e-17)
(25.9069 2.89295 1.41436e-18)
(25.8973 2.8803 -5.28549e-18)
(25.89 2.93527 2.23254e-17)
(25.8791 2.87087 1.61045e-16)
(25.8771 3.01345 7.20379e-17)
(25.8663 2.80105 2.24126e-18)
(25.8589 3.1885 3.74892e-17)
(25.9478 2.58455 -7.29679e-17)
(25.8007 2.57843 3.05501e-20)
(25.801 2.57841 -5.65267e-20)
(25.8012 2.57821 -3.49762e-20)
(25.8015 2.57794 1.14237e-18)
(25.8016 2.57769 4.73497e-20)
(25.8015 2.57743 -5.44781e-19)
(25.8004 2.57711 1.39167e-18)
(25.7987 2.57675 -3.92001e-21)
(25.7989 2.57651 2.0148e-20)
(25.8066 2.57667 -1.3766e-19)
(25.8249 2.57732 3.75637e-20)
(25.8444 2.57771 8.45518e-19)
(25.833 2.57568 -1.35169e-19)
(25.7431 2.56789 -8.49382e-19)
(25.5372 2.55127 -1.8919e-18)
(25.2092 2.52439 -2.29764e-19)
(24.7871 2.48807 -7.55212e-19)
(24.3248 2.44552 1.59162e-18)
(23.8937 2.40224 -8.80416e-19)
(23.5731 2.36555 -9.13338e-20)
(23.4371 2.34333 -9.10555e-19)
(23.5328 2.3421 -1.58134e-18)
(23.8598 2.36456 2.98372e-18)
(24.3608 2.40781 -4.97631e-18)
(24.9288 2.46292 -4.51642e-18)
(25.4331 2.51663 -1.04569e-18)
(25.7679 2.55614 -5.62282e-19)
(25.9078 2.57582 -5.412e-20)
(25.9162 2.57981 -3.64175e-18)
(25.8842 2.57713 -1.31208e-18)
(25.8655 2.57449 2.49644e-18)
(25.8673 2.57411 8.46815e-18)
(25.8772 2.57536 -2.76092e-20)
(25.8856 2.57711 -5.938e-18)
(25.8908 2.57881 -8.66654e-18)
(25.8947 2.58045 -1.17952e-18)
(25.8987 2.58224 1.38365e-18)
(25.9032 2.58429 -2.17038e-18)
(25.9079 2.58665 2.24572e-18)
(25.9127 2.58933 -5.83852e-19)
(25.9175 2.59235 5.88988e-19)
(25.9225 2.59572 -1.35882e-18)
(25.9275 2.59949 2.83323e-19)
(25.9326 2.60368 -4.64079e-20)
(25.9376 2.60831 1.62537e-18)
(25.9427 2.61341 -3.42127e-18)
(25.9476 2.619 -1.15765e-17)
(25.9524 2.62512 2.82043e-18)
(25.957 2.63176 -3.9872e-18)
(25.9613 2.63895 -1.02695e-18)
(25.9652 2.6467 3.39022e-18)
(25.9688 2.65502 -4.73799e-18)
(25.9718 2.6639 -9.26352e-18)
(25.9743 2.67334 -6.63832e-19)
(25.9762 2.68332 -2.23629e-19)
(25.9773 2.69382 3.13814e-18)
(25.9777 2.70481 -5.02939e-18)
(25.9772 2.71626 -3.97247e-17)
(25.9759 2.72811 -3.29366e-18)
(25.9737 2.74033 3.98317e-18)
(25.9705 2.75284 8.37292e-17)
(25.9663 2.76559 1.04167e-18)
(25.9612 2.77849 -3.84722e-18)
(25.9551 2.79154 6.59339e-17)
(25.9482 2.80449 -3.0908e-17)
(25.9409 2.81771 -1.99327e-18)
(25.9339 2.82856 3.13064e-18)
(25.9274 2.83932 9.12533e-18)
(25.9201 2.84765 1.62265e-17)
(25.9125 2.86205 -3.44827e-18)
(25.9043 2.86585 -3.22921e-18)
(25.8966 2.8902 -2.37366e-17)
(25.8872 2.87764 -1.47674e-16)
(25.8815 2.93165 -5.01066e-17)
(25.8701 2.86832 -4.1643e-18)
(25.8711 3.00915 -3.67065e-17)
(25.8575 2.79902 2.43714e-18)
(25.8559 3.18465 -9.66416e-17)
(25.9382 2.58109 1.0539e-18)
(25.8192 2.62361 3.13696e-19)
(25.8196 2.62359 -3.01859e-19)
(25.8199 2.62344 -2.76284e-19)
(25.8201 2.62322 -1.3339e-19)
(25.8204 2.62301 8.28786e-19)
(25.8206 2.62281 5.92534e-19)
(25.8206 2.62258 -5.17195e-19)
(25.8201 2.62231 -2.85919e-19)
(25.8189 2.622 1.21031e-18)
(25.818 2.62172 -3.66294e-19)
(25.8208 2.62166 9.84885e-20)
(25.8313 2.62203 -7.76097e-19)
(25.8482 2.62262 1.25431e-19)
(25.8559 2.62232 7.58702e-19)
(25.8216 2.61879 -4.67914e-19)
(25.7055 2.609 -2.73509e-18)
(25.4801 2.59043 -7.5076e-19)
(25.1464 2.56219 3.02344e-19)
(24.7364 2.52566 -6.75417e-19)
(24.3078 2.48465 -4.02761e-19)
(23.9346 2.44525 5.0049e-19)
(23.6945 2.41501 -9.51436e-19)
(23.651 2.40128 -1.79822e-18)
(23.832 2.40907 -1.01369e-18)
(24.2131 2.43875 1.42947e-18)
(24.7151 2.48481 -1.64653e-18)
(25.2222 2.53652 1.27222e-18)
(25.6212 2.58141 -1.66367e-18)
(25.8506 2.61064 3.18579e-18)
(25.927 2.62315 -3.40315e-19)
(25.9186 2.62459 3.82805e-18)
(25.8917 2.62209 -4.93318e-18)
(25.8782 2.62018 1.40191e-18)
(25.8795 2.6201 3.67302e-18)
(25.8866 2.62127 6.39146e-18)
(25.893 2.62283 -2.41949e-18)
(25.8973 2.62436 -1.04878e-18)
(25.9005 2.62589 5.53266e-20)
(25.9037 2.62756 -5.49958e-19)
(25.9073 2.62948 -2.26238e-18)
(25.911 2.63171 -3.71812e-18)
(25.9149 2.63423 1.62634e-18)
(25.9188 2.63706 -8.42694e-20)
(25.9227 2.64022 8.55241e-19)
(25.9267 2.64376 -4.91551e-19)
(25.9307 2.64767 -6.5173e-19)
(25.9346 2.652 3.08494e-18)
(25.9384 2.65676 2.47914e-18)
(25.942 2.66196 -2.23306e-18)
(25.9454 2.66765 -5.42023e-18)
(25.9486 2.67381 -1.69951e-17)
(25.9514 2.68047 1.48156e-18)
(25.9538 2.68763 9.49577e-18)
(25.9558 2.6953 -1.31669e-17)
(25.9572 2.70348 -1.82226e-17)
(25.9581 2.71215 1.25075e-17)
(25.9583 2.7213 -5.38316e-18)
(25.9578 2.73091 6.7297e-18)
(25.9565 2.74095 -8.13572e-18)
(25.9545 2.75139 -6.95077e-17)
(25.9516 2.76217 1.03073e-17)
(25.9478 2.77327 4.28515e-17)
(25.9432 2.78458 -1.60252e-17)
(25.9377 2.79616 -3.78528e-18)
(25.9315 2.80773 2.1377e-17)
(25.9249 2.81971 -2.14115e-17)
(25.9186 2.8296 -4.23736e-18)
(25.9128 2.83954 5.0535e-17)
(25.9062 2.84722 3.13759e-18)
(25.8994 2.86078 -1.21693e-17)
(25.8917 2.86428 1.1914e-17)
(25.8852 2.88761 5.1927e-17)
(25.8762 2.87552 3.81996e-17)
(25.8722 2.92787 4.04199e-17)
(25.8602 2.86649 -8.3157e-17)
(25.8642 3.00432 -3.8206e-17)
(25.8484 2.7981 3.20784e-18)
(25.8519 3.1797 5.98562e-17)
(25.9292 2.57916 -1.69063e-17)
(25.8385 2.67099 1.00167e-19)
(25.8388 2.67095 1.62716e-20)
(25.8391 2.67081 1.50792e-19)
(25.8394 2.67062 -2.06329e-19)
(25.8397 2.67044 -8.44759e-19)
(25.8399 2.67026 -6.5085e-19)
(25.8401 2.67007 -8.90976e-20)
(25.8403 2.66986 1.94527e-19)
(25.8403 2.66963 -1.3754e-18)
(25.8395 2.66936 1.43814e-19)
(25.838 2.66907 8.36243e-20)
(25.8373 2.66885 -2.16294e-19)
(25.8414 2.66886 -7.51458e-19)
(25.8539 2.66919 -1.36528e-19)
(25.8725 2.66944 1.60941e-19)
(25.8816 2.6684 9.74478e-19)
(25.8507 2.66387 2.27691e-19)
(25.7426 2.65316 -1.34036e-18)
(25.5302 2.63408 9.42435e-19)
(25.2126 2.60601 2.21652e-19)
(24.8213 2.57064 4.31638e-19)
(24.4148 2.53215 1.34986e-18)
(24.0693 2.49689 3.11047e-18)
(23.8623 2.47225 2.51183e-18)
(23.8523 2.46483 -1.09974e-19)
(24.0578 2.47818 -6.60772e-19)
(24.4422 2.51079 4.12882e-19)
(24.9176 2.55565 5.55301e-19)
(25.3704 2.60201 2.28732e-18)
(25.7053 2.63938 3.74106e-18)
(25.8844 2.66197 -6.21306e-18)
(25.9362 2.67064 8.11573e-19)
(25.9231 2.67081 8.78347e-19)
(25.8987 2.66831 -2.45367e-18)
(25.8869 2.66662 -4.05722e-18)
(25.8878 2.66661 3.62261e-18)
(25.8935 2.66766 2.80141e-19)
(25.8985 2.66899 4.35727e-20)
(25.9016 2.67026 -1.88558e-19)
(25.9038 2.67152 2.41299e-18)
(25.906 2.67294 -2.26988e-19)
(25.9086 2.67461 -1.32683e-18)
(25.9113 2.67653 -3.81144e-19)
(25.9141 2.67872 -8.96891e-19)
(25.917 2.68119 -6.89897e-19)
(25.9198 2.68396 2.2123e-19)
(25.9226 2.68706 2.21075e-19)
(25.9253 2.6905 2.71008e-18)
(25.9279 2.6943 1.46707e-18)
(25.9304 2.6985 -1.63075e-18)
(25.9326 2.70309 2.88669e-18)
(25.9346 2.7081 -2.74494e-18)
(25.9363 2.71355 -8.66938e-19)
(25.9376 2.71945 1.07869e-17)
(25.9385 2.72579 8.85817e-20)
(25.9389 2.7326 8.78016e-18)
(25.9388 2.73985 -3.85199e-17)
(25.9381 2.74756 -1.92891e-17)
(25.9368 2.75569 1.1547e-17)
(25.9348 2.76425 1.33139e-17)
(25.9321 2.7732 -2.54365e-17)
(25.9287 2.78251 1.98147e-18)
(25.9245 2.79212 -4.75092e-17)
(25.9195 2.80209 -6.32992e-18)
(25.9139 2.81215 2.80208e-17)
(25.9079 2.82274 1.51338e-17)
(25.9023 2.83156 3.52397e-17)
(25.8971 2.84057 -2.59282e-17)
(25.8912 2.84753 3.58184e-17)
(25.8851 2.86011 -1.03386e-17)
(25.8782 2.86329 -6.21367e-17)
(25.8726 2.88542 -3.25605e-17)
(25.8644 2.87389 6.4593e-17)
(25.8615 2.92435 -5.11511e-17)
(25.8501 2.86512 7.3586e-17)
(25.8557 2.99967 1.1864e-16)
(25.84 2.79773 8.40037e-17)
(25.8459 3.17508 -4.66312e-17)
(25.9225 2.5779 1.42876e-16)
(25.855 2.71127 -2.43506e-19)
(25.8553 2.71121 -6.26166e-20)
(25.8555 2.71108 1.01096e-19)
(25.8558 2.7109 2.51373e-19)
(25.8561 2.71073 4.78395e-19)
(25.8563 2.71056 2.96159e-19)
(25.8565 2.71039 3.38132e-19)
(25.8568 2.71019 1.35742e-19)
(25.857 2.70999 4.83176e-19)
(25.8571 2.70977 -8.76655e-19)
(25.8568 2.70952 4.01115e-20)
(25.8556 2.70924 -1.59324e-19)
(25.8542 2.70894 6.94838e-19)
(25.8548 2.70876 2.91071e-19)
(25.8618 2.70886 -2.67089e-19)
(25.8784 2.7093 4.40138e-19)
(25.9007 2.70964 1.33698e-18)
(25.9122 2.70863 -2.93598e-19)
(25.8822 2.70407 -3.04637e-19)
(25.7739 2.69326 -1.06357e-18)
(25.561 2.67401 -5.38622e-20)
(25.2443 2.64585 -6.03757e-19)
(24.8592 2.61081 -5.63715e-19)
(24.4697 2.57359 -6.37167e-19)
(24.1555 2.54099 -1.42944e-18)
(23.9933 2.5205 2.52695e-18)
(24.0331 2.51815 -1.21579e-19)
(24.278 2.53617 -6.28759e-20)
(24.6743 2.57135 -4.08939e-18)
(25.125 2.61543 -2.87515e-18)
(25.5228 2.65768 6.46314e-19)
(25.7928 2.68909 7.39897e-19)
(25.9199 2.70601 -3.4939e-18)
(25.9434 2.71083 -1.31801e-18)
(25.9225 2.70927 4.45464e-19)
(25.9004 2.70652 2.98469e-19)
(25.8921 2.70518 1.53243e-18)
(25.8942 2.70542 5.17016e-19)
(25.8991 2.70641 1.65172e-19)
(25.9025 2.70747 -8.34098e-19)
(25.9043 2.70843 -2.04146e-19)
(25.9055 2.70942 1.3768e-18)
(25.907 2.7106 -5.58321e-19)
(25.9088 2.71201 -7.23857e-20)
(25.9107 2.71366 3.6514e-19)
(25.9125 2.71554 -3.23706e-19)
(25.9143 2.71767 -9.84902e-20)
(25.916 2.72008 3.03768e-20)
(25.9177 2.72278 -8.09013e-19)
(25.9193 2.72579 5.63499e-18)
(25.9206 2.72913 5.83785e-18)
(25.9218 2.73284 5.72445e-18)
(25.9227 2.7369 -5.00316e-18)
(25.9233 2.74135 4.84461e-18)
(25.9236 2.7462 -4.12e-18)
(25.9235 2.75145 4.76251e-18)
(25.9229 2.75712 2.34299e-17)
(25.9218 2.76322 3.87487e-17)
(25.9202 2.76973 8.46467e-19)
(25.9181 2.77667 -8.15406e-18)
(25.9153 2.784 1.63545e-18)
(25.912 2.79174 -4.93438e-17)
(25.9079 2.79982 3.06848e-17)
(25.9032 2.80832 -1.68677e-18)
(25.8979 2.81699 -2.08131e-17)
(25.8923 2.82627 -1.01026e-17)
(25.8871 2.83407 1.67616e-17)
(25.8824 2.84219 -9.69616e-18)
(25.877 2.84844 -1.19226e-17)
(25.8715 2.86007 -6.71275e-19)
(25.8652 2.86291 -5.62535e-18)
(25.8603 2.88384 8.51977e-18)
(25.8527 2.87282 -1.73374e-17)
(25.8507 2.92139 2.93033e-18)
(25.8401 2.86426 5.08659e-18)
(25.8466 2.99557 -6.50256e-17)
(25.8319 2.79785 -1.40171e-16)
(25.8388 3.17127 3.75036e-17)
(25.916 2.57763 -8.19224e-17)
(25.8703 2.74547 -4.19908e-20)
(25.8705 2.74533 -2.0338e-19)
(25.8707 2.74516 2.58266e-20)
(25.8709 2.745 -8.44756e-20)
(25.8711 2.74483 2.34179e-20)
(25.8713 2.74466 -3.86742e-19)
(25.8715 2.74447 1.04333e-20)
(25.8717 2.74428 7.38319e-20)
(25.8719 2.74407 3.53916e-19)
(25.8721 2.74386 3.58301e-20)
(25.8721 2.74362 4.50441e-19)
(25.8715 2.74334 -5.89956e-19)
(25.8702 2.74303 -2.0168e-19)
(25.8692 2.74275 2.27008e-19)
(25.8715 2.74265 -2.56764e-19)
(25.8814 2.74293 -5.30208e-19)
(25.9013 2.74361 8.8031e-19)
(25.9261 2.7442 -8.78331e-19)
(25.9378 2.7433 6.92482e-19)
(25.9044 2.73856 1.49864e-19)
(25.7887 2.72716 1.69511e-19)
(25.5668 2.70697 -7.36689e-19)
(25.2443 2.67783 2.28743e-19)
(24.8634 2.64241 1.71781e-18)
(24.4954 2.6062 -4.32074e-19)
(24.2229 2.57662 -1.32935e-18)
(24.1178 2.56114 5.60004e-19)
(24.2169 2.56488 2.72969e-19)
(24.5035 2.5883 -1.07285e-18)
(24.9076 2.62621 1.67406e-18)
(25.3271 2.66913 -1.4145e-18)
(25.6655 2.70662 1.85012e-18)
(25.8694 2.73145 1.44872e-18)
(25.9456 2.74235 -7.75554e-19)
(25.9436 2.74343 -1.0071e-18)
(25.918 2.74058 -5.86892e-19)
(25.9004 2.73804 -1.71989e-18)
(25.8965 2.73726 -6.51925e-19)
(25.8998 2.73773 -4.31234e-19)
(25.9034 2.73857 6.46448e-19)
(25.9051 2.7393 -9.39061e-19)
(25.9057 2.73996 3.58784e-19)
(25.9062 2.74072 1.0471e-18)
(25.907 2.74167 5.14863e-19)
(25.908 2.74284 1.03696e-18)
(25.9089 2.7442 -6.73078e-20)
(25.9098 2.74579 1.88552e-20)
(25.9106 2.74761 -2.50029e-19)
(25.9113 2.74969 -2.66313e-18)
(25.9119 2.75203 -1.20195e-19)
(25.9122 2.75467 -1.52996e-18)
(25.9124 2.75761 -4.85916e-19)
(25.9123 2.76089 -3.12233e-18)
(25.9119 2.76451 2.85431e-18)
(25.9111 2.76849 -7.99616e-18)
(25.91 2.77285 -8.97557e-18)
(25.9085 2.77759 -5.25598e-18)
(25.9065 2.78274 -7.86855e-18)
(25.904 2.78829 -1.03557e-17)
(25.901 2.79424 -1.10199e-17)
(25.8974 2.80061 2.45133e-17)
(25.8933 2.80734 -7.53778e-18)
(25.8887 2.81453 -3.70196e-18)
(25.8835 2.82196 3.34938e-18)
(25.878 2.83005 -9.93487e-19)
(25.873 2.8369 -1.70457e-17)
(25.8686 2.84419 -1.06647e-17)
(25.8635 2.84978 -2.51655e-17)
(25.8584 2.86048 -2.96388e-17)
(25.8525 2.86301 2.45115e-17)
(25.8481 2.88276 6.20642e-17)
(25.8411 2.87224 -1.985e-17)
(25.8397 2.91894 2.48532e-19)
(25.8299 2.86389 -6.36991e-17)
(25.837 2.992 4.53288e-19)
(25.8234 2.79855 3.10373e-17)
(25.8312 3.16814 2.91018e-18)
(25.9085 2.57871 -2.28256e-16)
(25.8841 2.77432 6.36266e-20)
(25.8843 2.77417 1.09668e-19)
(25.8844 2.774 -1.20313e-19)
(25.8845 2.77384 -1.62472e-19)
(25.8847 2.77366 -1.0743e-19)
(25.8848 2.77349 9.90276e-20)
(25.885 2.77329 6.37421e-20)
(25.8851 2.77309 -1.82848e-19)
(25.8853 2.77288 -3.0682e-19)
(25.8854 2.77266 1.46991e-19)
(25.8856 2.77243 -1.44507e-19)
(25.8857 2.77219 3.81953e-19)
(25.8855 2.77191 -1.26762e-19)
(25.8846 2.7716 7.08583e-21)
(25.8832 2.77126 -1.11828e-19)
(25.8827 2.771 1.19789e-19)
(25.8865 2.771 -2.50616e-19)
(25.8989 2.77147 2.50408e-19)
(25.9216 2.77239 -1.37863e-19)
(25.9481 2.77314 -3.07857e-19)
(25.9577 2.77213 1.09607e-19)
(25.9164 2.76679 4.69078e-20)
(25.7871 2.75418 2.37769e-19)
(25.5494 2.73234 -6.58793e-19)
(25.2174 2.70173 -1.4697e-19)
(24.8429 2.66595 1.2186e-18)
(24.5042 2.63143 6.87578e-19)
(24.2849 2.60607 4.88014e-19)
(24.2477 2.59697 9.94904e-19)
(24.4109 2.60776 1.05796e-20)
(24.7369 2.63667 1.69049e-18)
(25.1405 2.67653 -6.46371e-19)
(25.5186 2.71692 1.3837e-18)
(25.7897 2.74828 6.74722e-19)
(25.926 2.76577 1.13268e-18)
(25.9564 2.77084 6.62078e-19)
(25.9366 2.76898 1.92596e-18)
(25.9119 2.76566 2.63795e-19)
(25.9007 2.76375 1.83151e-18)
(25.9007 2.76352 1.31641e-18)
(25.904 2.76405 -3.79869e-19)
(25.9059 2.76463 2.42154e-19)
(25.9062 2.76507 -1.43638e-18)
(25.9059 2.76552 -1.99317e-20)
(25.9058 2.76612 -6.077e-19)
(25.9059 2.7669 1.3467e-19)
(25.906 2.76785 4.93376e-20)
(25.906 2.76898 -4.92533e-19)
(25.9058 2.77031 4.14789e-19)
(25.9056 2.77186 -1.38439e-18)
(25.9052 2.77365 1.48652e-18)
(25.9046 2.7757 1.07652e-19)
(25.9038 2.77803 -3.92581e-18)
(25.9027 2.78065 -1.61954e-18)
(25.9013 2.78359 -4.15153e-18)
(25.8995 2.78687 3.54043e-18)
(25.8974 2.7905 -1.66657e-17)
(25.8949 2.7945 -2.83844e-18)
(25.892 2.79888 -3.01877e-18)
(25.8886 2.80366 8.27908e-18)
(25.8848 2.80885 -1.86061e-17)
(25.8805 2.81443 1.35246e-17)
(25.8756 2.82047 -9.43067e-18)
(25.8704 2.8268 -2.40649e-17)
(25.8649 2.83383 -1.40602e-17)
(25.86 2.83984 1.23911e-17)
(25.8556 2.84636 1.45039e-17)
(25.8507 2.85137 2.50375e-18)
(25.8458 2.86119 3.53654e-17)
(25.8402 2.86346 -1.07163e-18)
(25.836 2.88207 -4.46513e-17)
(25.8296 2.87208 -2.32022e-17)
(25.8285 2.91693 -1.7665e-17)
(25.8194 2.86399 4.29656e-17)
(25.827 2.98893 -1.57092e-18)
(25.8144 2.79988 9.10564e-17)
(25.8229 3.16554 -8.03141e-19)
(25.8996 2.58134 2.19539e-16)
(25.8981 2.79816 -2.87999e-20)
(25.8982 2.79801 -1.19968e-19)
(25.8983 2.79784 -1.17061e-22)
(25.8983 2.79767 9.28542e-20)
(25.8984 2.79749 -4.41679e-20)
(25.8985 2.79731 7.9259e-20)
(25.8986 2.79712 -1.46998e-19)
(25.8986 2.79691 -1.13281e-19)
(25.8987 2.7967 2.65866e-19)
(25.8988 2.79648 -2.64695e-19)
(25.8988 2.79624 -6.049e-20)
(25.8989 2.796 -4.66036e-20)
(25.899 2.79574 3.53612e-19)