/*--------------------------------*- C++ -*----------------------------------*\
| =========                 |                                                 |
| \\      /  F ield         | OpenFOAM: The Open Source CFD Toolbox           |
|  \\    /   O peration     | Version:  2306                                  |
|   \\  /    A nd           | Website:  www.openfoam.com                      |
|    \\/     M anipulation  |                                                 |
\*---------------------------------------------------------------------------*/
FoamFile
{
    version     2.0;
    format      ascii;
    arch        "LSB;label=32;scalar=64";
    class       volScalarField;
    location    "750";
    object      div(phi);
}
// * * * * * * * * * * * * * * * * * * * * * * * * * * * * * * * * * * * * * //

dimensions      [0 0 -1 0 0 0 0];

internalField   nonuniform List<scalar> 
1340
(
-9.96698e-09
3.30351e-08
5.16631e-09
6.81923e-09
-3.90854e-10
4.81208e-09
-1.03413e-08
1.60186e-08
-1.50498e-09
-1.52644e-09
1.6e-09
6.78565e-09
-6.76471e-09
-6.24599e-09
1.49991e-09
-2.97042e-09
-2.82908e-09
2.1588e-09
3.01957e-09
-3.78571e-10
2.08885e-09
3.99442e-09
-7.1695e-09
-5.05929e-09
-1.06818e-08
8.57593e-10
-8.14896e-09
-4.24874e-09
-7.56463e-09
4.97258e-11
4.57504e-09
-8.91944e-10
-2.07696e-09
1.87924e-09
3.89387e-09
6.57964e-08
8.41788e-09
2.28577e-08
-3.55413e-09
2.23401e-08
-9.83808e-09
-6.01637e-09
1.96349e-09
2.70345e-09
-1.03724e-08
-3.86508e-09
-4.88278e-09
2.08369e-09
-1.75487e-09
-3.1201e-09
2.04402e-09
2.92228e-09
-5.92868e-10
6.5466e-10
5.98843e-09
1.86824e-08
-2.01488e-08
-8.7414e-09
-4.11831e-10
-1.31029e-08
3.08126e-08
9.17574e-09
2.08684e-08
9.81353e-09
2.80582e-08
-8.96926e-09
-3.15457e-10
2.2922e-09
2.16729e-09
-4.56712e-09
2.09754e-09
-5.77588e-09
-2.1046e-09
-6.63341e-09
2.43579e-10
4.2724e-09
-8.49793e-10
-2.274e-09
1.70903e-09
2.2565e-09
1.31874e-07
3.26918e-08
4.11082e-08
8.98133e-09
3.02277e-08
-3.86721e-09
2.36655e-08
-6.96928e-09
2.0915e-08
-1.06553e-08
2.34772e-08
-1.63675e-08
1.98902e-08
-1.86474e-08
1.45393e-08
-1.98795e-08
1.18451e-08
-1.25832e-09
1.37425e-08
1.76827e-08
1.43929e-08
2.73072e-08
-6.50881e-10
1.51648e-08
-7.09434e-09
1.93002e-10
2.13567e-09
9.41599e-09
-7.38201e-09
-2.3581e-09
-4.93035e-09
2.61745e-09
-1.02281e-09
-3.48632e-09
1.46703e-09
2.36833e-09
-8.33616e-10
-1.77088e-10
-4.76751e-06
6.94385e-07
-2.19209e-06
5.1852e-07
-2.13216e-06
4.60677e-07
-2.02229e-06
3.90212e-07
-1.88374e-06
3.15549e-07
-1.73498e-06
2.42153e-07
-1.57798e-06
1.80122e-07
-1.40642e-06
1.31958e-07
-1.23949e-06
1.00418e-07
-1.057e-06
8.4424e-08
-8.95472e-07
8.04398e-08
-7.17537e-07
8.46313e-08
-5.8263e-07
8.95221e-08
-4.29393e-07
9.04966e-08
-3.38159e-07
7.78172e-08
-2.28331e-07
4.39817e-08
-1.84298e-07
-6.02078e-10
-1.63534e-07
-2.67708e-08
-1.20253e-07
-4.64654e-08
-9.57256e-08
-5.39341e-08
-8.05469e-08
-5.28714e-08
-4.838e-08
-5.90076e-08
-4.49437e-08
-5.80979e-08
-3.34482e-08
-5.06267e-08
-2.13144e-08
-4.03531e-08
-1.14935e-08
-2.98028e-08
-4.27051e-09
-1.99235e-08
-1.36991e-09
-1.33916e-08
4.94049e-10
-8.57976e-09
-9.26292e-10
-3.35405e-09
4.74643e-09
9.61538e-09
1.04594e-08
1.52801e-08
4.77903e-09
2.60405e-08
-8.24718e-09
8.35865e-09
2.6388e-10
1.52604e-08
-6.47244e-09
5.43967e-09
-3.99976e-09
4.25125e-11
-5.62365e-09
-3.03164e-10
3.40516e-09
-9.68521e-10
-2.53252e-09
1.18756e-09
1.40185e-09
-2.2206e-06
1.04348e-06
-7.6905e-07
8.25057e-07
-8.47537e-07
7.60702e-07
-8.51805e-07
7.11647e-07
-7.95682e-07
6.66247e-07
-7.36069e-07
6.15982e-07
-6.61959e-07
5.65359e-07
-5.89958e-07
5.11512e-07
-5.24285e-07
4.56132e-07
-4.60301e-07
3.97666e-07
-4.10188e-07
3.3722e-07
-3.63955e-07
2.77876e-07
-3.26664e-07
2.22916e-07
-2.86929e-07
1.75556e-07
-2.49078e-07
1.35345e-07
-2.07117e-07
1.13301e-07
-1.70603e-07
1.00621e-07
-7.5127e-08
7.3075e-08
-5.86957e-08
3.2899e-08
-5.02255e-08
-9.30867e-09
-5.13121e-08
-4.20456e-08
-6.79956e-08
-5.49405e-08
-5.99662e-08
-5.29117e-08
-4.4713e-08
-4.45584e-08
-2.98827e-08
-3.5656e-08
-1.84804e-08
-2.61139e-08
-1.05134e-08
-1.82895e-08
-5.63899e-09
-1.11796e-08
-3.26226e-09
-6.18554e-09
-1.89442e-09
-2.0744e-09
1.2945e-09
4.71448e-09
5.74256e-09
4.26926e-09
2.11582e-08
-2.50374e-09
1.69354e-08
-5.63886e-09
1.82392e-08
-5.8703e-09
1.44254e-08
-7.83236e-09
-9.47171e-10
-4.67553e-09
2.8962e-09
-7.5338e-10
-3.12511e-09
5.79275e-10
2.25434e-09
-9.86604e-10
-4.34201e-10
-1.80739e-06
1.12687e-06
-2.02232e-07
7.96765e-07
-3.58025e-07
6.26205e-07
-4.33383e-07
5.02291e-07
-5.18652e-07
4.03098e-07
-5.51347e-07
3.29788e-07
-5.80379e-07
2.72153e-07
-5.73943e-07
2.28076e-07
-5.60774e-07
1.91678e-07
-5.31154e-07
1.60195e-07
-4.95035e-07
1.33072e-07
-4.56421e-07
1.0746e-07
-4.07654e-07
8.60747e-08
-3.69189e-07
6.5137e-08
-3.12083e-07
4.74766e-08
-2.75689e-07
2.06984e-08
-2.1656e-07
-8.85629e-09
-2.1784e-07
-2.39875e-08
-1.74611e-07
-2.21122e-08
-1.22081e-07
-1.16586e-08
-8.67096e-08
-2.81032e-09
-4.02115e-08
-1.17008e-09
-1.92117e-08
-7.66765e-09
-1.189e-08
-1.40663e-08
-8.84066e-09
-1.67328e-08
-6.40137e-09
-1.53904e-08
-3.68441e-09
-1.14117e-08
-1.47023e-09
-7.00489e-09
-3.41058e-10
-3.36962e-09
-7.80962e-11
-6.58671e-10
3.56302e-10
2.52919e-09
1.17009e-09
8.00391e-09
7.95428e-10
1.32468e-08
-3.70301e-09
9.21446e-09
-6.7448e-09
1.6947e-08
-1.21208e-08
3.44444e-09
-3.9347e-09
4.67217e-09
-4.38451e-09
-5.16e-10
2.48413e-09
-1.65831e-10
-2.237e-09
9.60634e-10
8.3434e-10
-1.95317e-06
8.2542e-07
-3.46646e-07
6.83102e-07
-2.88395e-07
5.79625e-07
-2.71857e-07
4.76801e-07
-3.09162e-07
3.89414e-07
-3.2009e-07
3.29984e-07
-3.30468e-07
2.8764e-07
-3.16883e-07
2.58846e-07
-3.02605e-07
2.33303e-07
-2.80387e-07
2.09403e-07
-2.64905e-07
1.83434e-07
-2.46815e-07
1.57688e-07
-2.34978e-07
1.3172e-07
-2.19091e-07
1.08334e-07
-2.03941e-07
8.75619e-08
-1.83927e-07
7.15943e-08
-1.63545e-07
6.2576e-08
-1.24678e-07
4.94079e-08
-8.80494e-08
3.55487e-08
-7.59171e-08
1.98616e-08
-4.84947e-08
8.92428e-09
-4.01888e-08
1.38502e-09
-2.77379e-08
-5.85723e-10
-1.4793e-08
-1.33982e-09
-5.27079e-09
-1.83674e-09
3.36031e-10
-2.38736e-09
2.92366e-09
-2.78345e-09
3.1909e-09
-2.68364e-09
2.10077e-09
-2.22962e-09
7.00909e-10
-1.58538e-09
-4.10154e-10
-6.75305e-10
-8.17114e-10
-3.03392e-10
2.85282e-09
-1.4534e-09
1.34171e-09
-3.82669e-09
1.27794e-08
-1.27045e-08
9.25621e-09
-7.2424e-09
6.11366e-09
-5.48502e-09
4.46257e-09
6.10028e-11
9.67494e-10
1.20379e-09
2.14158e-09
-9.46764e-10
-5.92975e-10
-1.86005e-06
8.68316e-07
-1.70408e-07
5.79698e-07
-2.11412e-07
4.36273e-07
-2.46435e-07
3.3228e-07
-2.65293e-07
2.58316e-07
-2.90129e-07
2.03928e-07
-2.93725e-07
1.65391e-07
-3.08506e-07
1.36816e-07
-3.02029e-07
1.18733e-07
-2.97125e-07
1.06965e-07
-2.78355e-07
9.98797e-08
-2.55961e-07
9.42576e-08
-2.30604e-07
8.70524e-08
-2.06305e-07
7.9566e-08
-1.83254e-07
7.0588e-08
-1.60011e-07
6.2787e-08
-1.37078e-07
5.42143e-08
-1.15142e-07
5.28464e-08
-9.12082e-08
5.55122e-08
-4.84682e-08
6.01868e-08
-2.13799e-08
5.88229e-08
4.04165e-09
5.28483e-08
1.72143e-08
3.92865e-08
1.7558e-08
2.38433e-08
1.31645e-08
1.00941e-08
8.05238e-09
1.18486e-10
3.61324e-09
-4.84887e-09
1.22558e-09
-5.986e-09
-1.34326e-10
-5.00789e-09
-1.12079e-09
-3.20391e-09
-2.20086e-09
-1.53556e-09
-3.39831e-09
-1.19817e-09
-3.92715e-09
-1.25485e-09
-3.56108e-09
3.75063e-09
-1.15927e-08
1.08279e-08
-1.0917e-08
7.86511e-09
-6.28842e-09
8.02498e-09
-3.45031e-09
4.07372e-09
3.17804e-09
3.09182e-09
-1.10657e-09
6.86333e-10
5.29588e-10
-1.45801e-06
6.20774e-07
-3.04642e-07
4.41829e-07
-3.42121e-07
3.65029e-07
-3.44534e-07
3.10351e-07
-3.2753e-07
2.68746e-07
-3.11706e-07
2.36201e-07
-2.85326e-07
2.13287e-07
-2.57253e-07
1.95398e-07
-2.26718e-07
1.8127e-07
-1.9988e-07
1.67702e-07
-1.75191e-07
1.55189e-07
-1.55577e-07
1.41596e-07
-1.39306e-07
1.28362e-07
-1.26678e-07
1.13569e-07
-1.17024e-07
9.91542e-08
-1.09589e-07
8.40796e-08
-1.03625e-07
7.05683e-08
-9.43424e-08
5.7387e-08
-8.83672e-08
4.6669e-08
-7.31742e-08
3.77316e-08
-6.36591e-08
2.91216e-08
-4.38662e-08
1.8299e-08
-3.72073e-08
5.369e-09
-3.26715e-08
-5.20187e-09
-2.76607e-08
-1.17695e-08
-2.35328e-08
-1.33648e-08
-1.55274e-08
-1.16742e-08
-7.75885e-09
-9.38419e-09
-2.36498e-09
-7.52582e-09
3.05265e-10
-6.29986e-09
7.93312e-10
-5.52895e-09
-6.73567e-10
-5.20298e-09
-2.82323e-09
-5.5466e-09
-1.16811e-09
-7.65101e-09
1.01887e-08
-1.1315e-08
1.08912e-08
-8.07841e-09
9.57146e-09
-6.17122e-09
6.42579e-09
1.16756e-09
4.26695e-09
1.0958e-09
2.35462e-09
-4.1385e-10
-4.01281e-10
-1.59431e-06
7.23658e-07
-1.6608e-07
5.20262e-07
-1.72703e-07
4.18647e-07
-1.6646e-07
3.43808e-07
-1.60227e-07
2.87457e-07
-1.49861e-07
2.43314e-07
-1.39334e-07
2.06544e-07
-1.36811e-07
1.74999e-07
-1.30923e-07
1.49662e-07
-1.308e-07
1.28742e-07
-1.24146e-07
1.13122e-07
-1.2117e-07
1.00757e-07
-1.11889e-07
9.21287e-08
-1.04342e-07
8.53746e-08
-9.36379e-08
8.03614e-08
-8.18125e-08
7.51167e-08
-7.14301e-08
6.87855e-08
-6.13816e-08
6.10102e-08
-5.42976e-08
5.21831e-08
-4.75786e-08
4.30221e-08
-4.16755e-08
3.40369e-08
-3.58051e-08
2.74334e-08
-3.03127e-08
2.37524e-08
-1.62088e-08
2.14157e-08
-7.68202e-09
1.81022e-08
1.78074e-09
1.36321e-08
6.18655e-09
7.45611e-09
6.23994e-09
1.60967e-09
4.68935e-09
-2.65037e-09
2.73073e-09
-5.00512e-09
1.12434e-09
-5.80479e-09
-7.50151e-10
-5.80317e-09
-2.9637e-09
-4.59415e-09
-2.52588e-09
4.61796e-09
-4.77213e-09
1.18097e-08
-9.20936e-09
9.51975e-09
-7.8975e-09
8.45942e-09
-2.66362e-09
6.02922e-09
2.06955e-09
4.40118e-09
-5.59135e-10
9.0772e-10
5.00959e-10
-1.2156e-06
6.33241e-07
-9.1387e-08
4.05918e-07
-1.35647e-07
3.14732e-07
-1.37046e-07
2.59732e-07
-1.27899e-07
2.19884e-07
-1.18076e-07
1.87655e-07
-1.14196e-07
1.60609e-07
-1.08934e-07
1.38594e-07
-1.06297e-07
1.1987e-07
-1.0122e-07
1.04036e-07
-9.92866e-08
9.01496e-08
-9.43623e-08
7.85192e-08
-9.19914e-08
6.87789e-08
-8.65743e-08
6.11243e-08
-8.06717e-08
5.48596e-08
-7.36247e-08
4.92834e-08
-6.63577e-08
4.43586e-08
-5.98518e-08
3.93883e-08
-5.16888e-08
3.47412e-08
-4.64457e-08
2.92819e-08
-3.82881e-08
2.38676e-08
-3.50794e-08
1.69992e-08
-2.73967e-08
9.34969e-09
-2.6223e-08
1.27579e-09
-2.40414e-08
-4.42898e-09
-2.04964e-08
-7.71144e-09
-1.71873e-08
-8.39505e-09
-1.19211e-08
-7.56555e-09
-7.11513e-09
-6.5995e-09
-3.63601e-09
-5.89074e-09
-1.58435e-09
-5.54161e-09
-1.26856e-09
-5.03911e-09
-2.25801e-09
-4.71693e-09
-1.45782e-09
-4.26908e-09
2.00428e-09
-6.73846e-09
8.1623e-09
-5.94449e-09
9.78309e-09
-4.90517e-09
7.41895e-09
1.63876e-11
6.22757e-09
1.10528e-10
3.74729e-09
2.2527e-10
-1.43324e-10
4.40411e-07
-3.72659e-07
3.75158e-07
-1.15123e-07
3.163e-07
-1.32975e-07
2.71763e-07
-1.3488e-07
2.37623e-07
-1.33275e-07
2.0921e-07
-1.26518e-07
1.85139e-07
-1.19502e-07
1.63623e-07
-1.10737e-07
1.44421e-07
-1.03731e-07
1.26818e-07
-9.52304e-08
1.11256e-07
-8.98098e-08
9.77377e-08
-8.20008e-08
8.70483e-08
-7.43367e-08
7.82803e-08
-6.54398e-08
7.11045e-08
-5.73644e-08
6.4856e-08
-4.963e-08
5.93543e-08
-4.16823e-08
5.39092e-08
-3.55785e-08
4.81734e-08
-2.97947e-08
4.20588e-08
-2.60564e-08
3.57289e-08
-2.26691e-08
2.94837e-08
-1.99884e-08
2.34979e-08
-1.74923e-08
1.88774e-08
-1.54365e-08
1.60293e-08
-8.05164e-09
1.38849e-08
-3.98454e-09
1.10381e-08
5.34052e-10
7.4462e-09
2.14686e-09
2.94489e-09
1.34182e-09
-9.81588e-10
2.58076e-10
-3.42377e-09
-5.26957e-10
-4.29192e-09
-6.39895e-10
-4.31342e-09
-1.25906e-09
-4.16218e-09
-1.12144e-09
-2.95379e-09
-1.99128e-09
5.7122e-09
-1.86752e-09
9.40666e-09
-4.03738e-09
8.05429e-09
-2.54551e-09
7.63385e-09
-8.92364e-11
6.3305e-09
-5.28361e-10
1.11795e-09
6.36752e-10
3.89875e-07
-3.85384e-07
2.95067e-07
-8.38968e-08
2.53013e-07
-9.37677e-08
2.14212e-07
-9.98693e-08
1.8291e-07
-9.96493e-08
1.58179e-07
-9.54221e-08
1.37218e-07
-8.97928e-08
1.18378e-07
-8.8632e-08
1.01664e-07
-8.51862e-08
8.80704e-08
-8.20671e-08
7.67277e-08
-7.68552e-08
6.72604e-08
-7.23841e-08
5.91169e-08
-6.65872e-08
5.22044e-08
-6.14617e-08
4.643e-08
-5.56494e-08
4.163e-08
-4.89774e-08
3.75905e-08
-4.29576e-08
3.36248e-08
-3.69457e-08
3.00648e-08
-3.2312e-08
2.64355e-08
-2.68489e-08
2.31304e-08
-2.36404e-08
1.93729e-08
-1.88901e-08
1.57551e-08
-1.74408e-08
1.13045e-08
-1.33062e-08
6.34123e-09
-1.32577e-08
9.4386e-10
-1.30634e-08
-3.17311e-09
-1.20637e-08
-5.79134e-09
-1.13208e-08
-6.59684e-09
-8.83948e-09
-5.99678e-09
-5.89044e-09
-4.96461e-09
-3.11579e-09
-4.012e-09
-1.19524e-09
-3.0251e-09
-5.79983e-10
-2.33944e-09
3.41826e-10
-1.8713e-09
6.51385e-10
-1.19258e-09
3.76657e-09
-1.68217e-09
7.53096e-09
-2.16936e-09
8.27559e-09
-1.25041e-09
7.40046e-09
-1.68612e-09
3.17697e-09
5.81356e-10
1.99193e-10
3.05578e-07
-2.64755e-07
2.6903e-07
-7.75885e-08
2.23414e-07
-9.44805e-08
1.86414e-07
-9.79303e-08
1.58408e-07
-9.44559e-08
1.36411e-07
-8.75387e-08
1.18515e-07
-7.99704e-08
1.03517e-07
-7.10335e-08
9.05677e-08
-6.3242e-08
7.89802e-08
-5.66875e-08
6.86222e-08
-5.05574e-08
5.96584e-08
-4.63168e-08
5.21923e-08
-4.12852e-08
4.65935e-08
-3.61829e-08
4.22651e-08
-3.07536e-08
3.88893e-08
-2.57666e-08
3.6017e-08
-2.13311e-08
3.34858e-08
-1.67348e-08
3.08629e-08
-1.35356e-08
2.79158e-08
-1.0608e-08
2.45738e-08
-9.05767e-09
2.09824e-08
-7.91739e-09
1.73423e-08
-7.14378e-09
1.38696e-08
-6.61404e-09
1.12165e-08
-5.9705e-09
9.55448e-09
-2.33252e-09
8.08078e-09
-7.93698e-10
6.08441e-09
8.05388e-10
3.81634e-09
1.22053e-09
1.35809e-09
7.41577e-10
-3.7975e-10
5.612e-10
-9.8321e-10
9.08966e-10
-8.81247e-10
1.26522e-09
-7.61534e-10
1.73633e-09
-6.62934e-10
1.81693e-09
7.50681e-11
9.56238e-10
5.23396e-09
8.76585e-11
6.90502e-09
-1.57896e-09
7.0274e-09
-2.77474e-09
5.04398e-09
-4.15018e-10
1.26285e-09
6.39164e-10
-5.40849e-08
-3.30261e-07
1.22409e-07
-1.17129e-07
1.20008e-07
-9.50636e-08
1.12815e-07
-8.11751e-08
1.02888e-07
-6.93346e-08
9.20901e-08
-6.14266e-08
8.08286e-08
-5.44874e-08
6.97757e-08
-4.97291e-08
5.90761e-08
-4.75929e-08
4.94824e-08
-4.52497e-08
4.15767e-08
-4.29175e-08
3.5233e-08
-3.9883e-08
3.01789e-08
-3.67347e-08
2.61227e-08
-3.32527e-08
2.27775e-08
-2.99928e-08
2.01487e-08
-2.67099e-08
1.80501e-08
-2.27722e-08
1.63481e-08
-1.94967e-08
1.45772e-08
-1.64095e-08
1.30038e-08
-1.41921e-08
1.13827e-08
-1.15119e-08
9.92663e-09
-1.00952e-08
8.13708e-09
-8.07581e-09
6.3864e-09
-7.81881e-09
4.20724e-09
-5.9843e-09
1.67987e-09
-6.42739e-09
-1.03148e-09
-6.89842e-09
-2.85104e-09
-6.3869e-09
-3.54469e-09
-5.7756e-09
-2.99878e-09
-3.66941e-09
-1.67601e-09
-1.0834e-09
-5.68784e-10
8.54151e-10
2.55843e-10
1.80765e-09
7.20166e-10
2.42682e-09
6.20574e-10
3.03148e-09
2.52533e-10
1.62961e-09
4.82856e-10
3.03643e-09
-2.04561e-10
5.83119e-09
-3.11289e-09
6.06625e-09
-1.41451e-09
2.97173e-09
9.85671e-10
7.89531e-10
7.8359e-08
-2.04958e-07
1.23336e-07
-7.07796e-08
1.12645e-07
-6.46718e-08
1.01164e-07
-5.87121e-08
9.00227e-08
-5.23751e-08
7.94139e-08
-4.69668e-08
6.93948e-08
-4.23235e-08
6.07538e-08
-3.809e-08
5.37452e-08
-3.09221e-08
4.77879e-08
-2.55559e-08
4.18393e-08
-2.09982e-08
3.62436e-08
-1.77327e-08
3.12189e-08
-1.48865e-08
2.70652e-08
-1.24727e-08
2.38121e-08
-9.65308e-09
2.12343e-08
-7.33399e-09
1.90698e-08
-5.34184e-09
1.72384e-08
-3.84371e-09
1.573e-08
-2.11981e-09
1.43436e-08
-1.11965e-09
1.2933e-08
-1.46207e-10
1.13703e-08
2.24094e-10
9.70575e-09
-7.63079e-11
8.06853e-09
-2.49393e-11
6.71797e-09
-4.80045e-10
6.05701e-09
-2.53583e-10
6.27013e-09
2.01031e-09
6.58651e-09
3.24989e-09
6.4399e-09
4.56357e-09
5.77733e-09
5.09679e-09
4.59184e-09
4.62856e-09
3.58971e-09
4.23242e-09
2.8648e-09
3.92239e-09
2.04456e-09
3.54802e-09
1.22026e-09
3.68809e-09
5.78557e-10
1.6815e-09
7.09305e-10
9.00957e-10
3.96314e-09
-2.70663e-09
5.59392e-09
-1.32241e-09
4.41626e-09
1.49795e-09
2.04231e-09
8.38914e-10
-9.23469e-10
-1.49326e-07
5.34069e-08
-4.03166e-08
5.53112e-08
-3.35902e-08
5.11326e-08
-3.06505e-08
4.52478e-08
-2.8985e-08
3.92909e-08
-2.59446e-08
3.37336e-08
-2.39507e-08
2.82438e-08
-2.16043e-08
2.30932e-08
-2.016e-08
1.82251e-08
-1.92925e-08
1.40709e-08
-1.83314e-08
1.08112e-08
-1.69644e-08
8.52906e-09
-1.5228e-08
7.05288e-09
-1.28697e-08
6.29729e-09
-1.04818e-08
5.97231e-09
-7.71507e-09
6.01479e-09
-5.23818e-09
6.17401e-09
-2.83892e-09
6.48862e-09
-7.72887e-10
6.80344e-09
9.06944e-10
7.21034e-09
2.27604e-09
7.56388e-09
3.53676e-09
7.86407e-09
4.16027e-09
7.83502e-09
4.93857e-09
7.60841e-09
4.56501e-09
6.92055e-09
5.23661e-09
5.66641e-09
4.21921e-09
4.05951e-09
2.8876e-09
2.79658e-09
2.35073e-09
2.20247e-09
1.75866e-09
2.20878e-09
2.35411e-09
2.36466e-09
2.89827e-09
2.26817e-09
2.89366e-09
2.02384e-09
2.63447e-09
1.62623e-09
3.30954e-09
1.43831e-09
2.32005e-09
5.30156e-10
1.83623e-09
-1.66757e-09
3.56629e-09
4.51189e-12
4.30385e-09
1.98881e-09
2.32645e-09
1.26433e-09
2.96743e-10
-2.40432e-08
-4.81945e-08
-8.89135e-09
-2.48406e-08
2.86489e-09
-1.15996e-08
8.80615e-09
-3.70591e-09
1.15511e-08
5.50456e-10
1.24126e-08
3.29008e-09
1.24628e-08
4.93484e-09
1.21852e-08
6.27187e-09
1.18559e-08
7.5781e-09
1.16395e-08
8.413e-09
1.17757e-08
1.00399e-08
1.25537e-08
1.20906e-08
1.39669e-08
1.47015e-08
1.59131e-08
1.82559e-08
1.80488e-08
2.11404e-08
1.99082e-08
2.40836e-08
2.13002e-08
2.55271e-08
2.19338e-08
2.64202e-08
2.18169e-08
2.58113e-08
2.09052e-08
2.43367e-08
1.93524e-08
2.20805e-08
1.73745e-08
1.91021e-08
1.51443e-08
1.6373e-08
1.30009e-08
1.31138e-08
1.10559e-08
1.10782e-08
9.61735e-09
8.64527e-09
8.96672e-09
7.81417e-09
8.99638e-09
8.35078e-09
9.0585e-09
8.35642e-09
8.48068e-09
8.23754e-09
7.24133e-09
6.99706e-09
5.59496e-09
5.31802e-09
4.0385e-09
3.9243e-09
2.65739e-09
2.83991e-09
1.94596e-09
3.26282e-09
1.59344e-09
1.49857e-09
9.70593e-10
4.65666e-10
1.39956e-09
9.49331e-10
2.1879e-09
1.3378e-09
1.19592e-09
6.54663e-10
2.40027e-10
-4.08569e-16
)
;

boundaryField
{
    inlet
    {
        type            extrapolatedCalculated;
        value           nonuniform List<scalar> 
23
(
3.30351e-08
4.81208e-09
6.78565e-09
2.08885e-09
3.89387e-09
6.5466e-10
2.2565e-09
-1.77088e-10
1.40185e-09
-4.34201e-10
8.3434e-10
-5.92975e-10
5.29588e-10
-4.01281e-10
5.00959e-10
-1.43324e-10
6.36752e-10
1.99193e-10
6.39164e-10
7.89531e-10
8.38914e-10
2.96743e-10
-4.08569e-16
)
;
    }
    outlet
    {
        type            extrapolatedCalculated;
        value           nonuniform List<scalar> 
82
(
-2.40432e-08
-8.89135e-09
-4.81945e-08
-2.48406e-08
2.86489e-09
-1.15996e-08
8.80615e-09
-3.70591e-09
1.15511e-08
5.50456e-10
1.24126e-08
3.29008e-09
1.24628e-08
4.93484e-09
1.21852e-08
6.27187e-09
1.18559e-08
7.5781e-09
1.16395e-08
8.413e-09
1.17757e-08
1.00399e-08
1.25537e-08
1.20906e-08
1.39669e-08
1.47015e-08
1.59131e-08
1.82559e-08
1.80488e-08
2.11404e-08
1.99082e-08
2.40836e-08
2.13002e-08
2.55271e-08
2.19338e-08
2.64202e-08
2.18169e-08
2.58113e-08
2.09052e-08
2.43367e-08
1.93524e-08
2.20805e-08
1.73745e-08
1.91021e-08
1.51443e-08
1.6373e-08
1.30009e-08
1.31138e-08
1.10559e-08
1.10782e-08
9.61735e-09
8.64527e-09
8.96672e-09
7.81417e-09
8.99638e-09
8.35078e-09
9.0585e-09
8.35642e-09
8.48068e-09
8.23754e-09
7.24133e-09
6.99706e-09
5.59496e-09
5.31802e-09
4.0385e-09
3.9243e-09
2.65739e-09
2.83991e-09
1.94596e-09
3.26282e-09
1.59344e-09
1.49857e-09
9.70593e-10
4.65666e-10
1.39956e-09
9.49331e-10
2.1879e-09
1.3378e-09
1.19592e-09
6.54663e-10
2.40027e-10
-4.08569e-16
)
;
    }
    walls
    {
        type            extrapolatedCalculated;
        value           nonuniform List<scalar> 0();
    }
    frontAndBack
    {
        type            empty;
    }
    procBoundary3to2
    {
        type            processor;
        value           nonuniform List<scalar> 
88
(
2.41854e-09
4.97356e-09
-5.14306e-09
-2.56441e-09
-2.56441e-09
-2.63235e-09
-5.88394e-09
-5.88394e-09
-1.3714e-08
-7.85947e-09
-1.14836e-08
-1.14836e-08
-2.47767e-08
-6.94663e-09
-9.39039e-10
8.10333e-10
-1.94519e-08
-1.94519e-08
-1.61119e-08
1.34362e-08
3.70974e-09
1.9782e-08
-2.25351e-08
-2.25351e-08
4.09939e-09
-6.85121e-09
-5.2597e-09
-4.85679e-09
-2.17704e-08
3.314e-08
-2.89275e-08
-2.89275e-08
8.30832e-08
2.40311e-08
6.65588e-08
1.0527e-08
4.55895e-08
7.96602e-09
3.41054e-08
6.4912e-09
2.23426e-08
8.94071e-09
1.29895e-08
6.00989e-09
6.00989e-09
-1.42381e-06
2.18682e-06
8.12254e-07
1.38491e-06
4.87353e-07
1.05224e-06
3.89839e-07
8.86762e-07
3.34109e-07
7.90195e-07
3.0896e-07
7.31603e-07
2.76546e-07
6.84302e-07
2.50617e-07
6.41569e-07
2.08063e-07
5.94922e-07
1.68227e-07
5.48503e-07
1.36764e-07
4.96712e-07
1.02368e-07
4.41777e-07
7.97201e-08
3.81379e-07
6.11329e-08
3.17399e-07
3.6703e-08
2.6735e-07
3.56286e-08
2.3214e-07
9.09582e-08
1.95943e-07
9.72868e-08
1.48038e-07
1.05385e-07
9.68263e-08
7.44126e-08
7.38902e-08
5.88437e-08
5.46141e-08
5.46141e-08
)
;
    }
    procBoundary3to6
    {
        type            processor;
        value           uniform 5.33312e-06;
    }
    procBoundary3to7
    {
        type            processor;
        value           nonuniform List<scalar> 
16
(
8.20436e-07
1.94236e-06
2.03523e-06
1.72826e-06
1.26567e-06
1.07541e-06
9.92472e-07
1.24549e-06
1.24549e-06
5.64607e-07
4.76108e-07
3.53502e-07
6.44571e-08
1.13498e-07
3.02734e-08
1.55158e-08
)
;
    }
}


// ************************************************************************* //
