/*--------------------------------*- C++ -*----------------------------------*\
| =========                 |                                                 |
| \\      /  F ield         | OpenFOAM: The Open Source CFD Toolbox           |
|  \\    /   O peration     | Version:  2306                                  |
|   \\  /    A nd           | Website:  www.openfoam.com                      |
|    \\/     M anipulation  |                                                 |
\*---------------------------------------------------------------------------*/
FoamFile
{
    version     2.0;
    format      ascii;
    arch        "LSB;label=32;scalar=64";
    class       volSymmTensorField;
    location    "750";
    object      turbulenceProperties:R;
}
// * * * * * * * * * * * * * * * * * * * * * * * * * * * * * * * * * * * * * //

dimensions      [0 2 -2 0 0 0 0];

internalField   nonuniform List<symmTensor> 
1340
(
(4.90361e-07 2.98315e-08 -4.14968e-20 4.22543e-07 -5.37227e-21 4.96738e-07)
(8.43515e-07 3.63857e-08 2.09291e-20 1.0413e-06 2.42751e-21 8.87602e-07)
(1.03789e-07 -1.79815e-09 -8.12916e-20 9.73324e-08 -1.017e-20 1.13527e-07)
(3.89648e-07 9.89159e-09 -1.2723e-20 4.86519e-07 -1.43853e-21 4.13385e-07)
(4.86598e-07 3.12161e-08 6.13776e-21 4.23133e-07 6.62746e-22 4.9561e-07)
(8.45413e-07 3.60359e-08 -8.40781e-20 1.0428e-06 -9.51343e-21 8.88332e-07)
(1.00142e-07 -1.43916e-09 -0 1.29194e-07 -5.00778e-23 1.17502e-07)
(1.65587e-07 -5.4261e-09 -2.7507e-20 2.10434e-07 -3.24774e-21 1.81715e-07)
(1.00367e-07 -1.4187e-09 7.72586e-20 9.6547e-08 9.69122e-21 1.11455e-07)
(3.91136e-07 9.36065e-09 3.89288e-20 4.88449e-07 4.6003e-21 4.14837e-07)
(4.84389e-07 3.24179e-08 1.31109e-23 4.25223e-07 7.71921e-23 4.96272e-07)
(8.46865e-07 3.54822e-08 6.9266e-20 1.04319e-06 7.77847e-21 8.87854e-07)
(1.87317e-07 7.01721e-09 -3.50242e-20 2.40404e-07 -4.20694e-21 2.1372e-07)
(1.64467e-07 5.15106e-09 7.24603e-22 2.11707e-07 1.78232e-22 1.8851e-07)
(1.54367e-07 1.62399e-09 4.78725e-21 1.99592e-07 5.70935e-22 1.75828e-07)
(1.05199e-07 -2.55008e-09 -0 1.35463e-07 -1.00737e-23 1.23124e-07)
(1.69587e-07 -6.62558e-09 -1.2561e-22 2.1501e-07 -2.19987e-23 1.86051e-07)
(9.77964e-08 -1.08396e-09 5.53548e-22 9.66472e-08 9.52267e-23 1.1022e-07)
(3.92764e-07 9.01608e-09 3.25569e-22 4.90486e-07 6.01958e-23 4.16422e-07)
(4.835e-07 3.34906e-08 2.87548e-24 4.28223e-07 2.49846e-24 4.98069e-07)
(8.47784e-07 3.45378e-08 3.73873e-22 1.04314e-06 6.88153e-23 8.869e-07)
(2.67612e-07 9.37097e-09 2.48268e-21 3.43786e-07 3.90361e-22 3.05682e-07)
(2.47941e-07 8.3823e-09 1.05397e-20 3.18707e-07 1.27598e-21 2.83306e-07)
(2.31855e-07 7.64163e-09 1.07127e-20 2.98154e-07 1.08349e-21 2.65028e-07)
(2.1695e-07 7.11539e-09 -3.72825e-20 2.7901e-07 -4.4666e-21 2.47961e-07)
(2.01367e-07 6.49384e-09 9.73394e-21 2.5904e-07 1.26044e-21 2.3024e-07)
(1.86672e-07 5.50204e-09 -1.48567e-20 2.40387e-07 -1.83118e-21 2.13396e-07)
(1.65007e-07 3.71894e-09 9.62178e-23 2.13028e-07 1.37094e-22 1.89425e-07)
(1.56079e-07 1.58544e-10 3.53847e-20 2.01954e-07 4.30206e-21 1.779e-07)
(1.10693e-07 -3.70802e-09 -0 1.42128e-07 -7.19475e-23 1.29142e-07)
(1.73456e-07 -7.76272e-09 2.05019e-21 2.19368e-07 1.40976e-22 1.90253e-07)
(9.59935e-08 -7.76985e-10 -7.06307e-20 9.74956e-08 -8.83596e-21 1.09693e-07)
(3.94422e-07 8.8084e-09 -3.55524e-20 4.92584e-07 -4.20699e-21 4.18115e-07)
(4.83631e-07 3.44826e-08 -2.32402e-21 4.31748e-07 -2.29516e-22 5.00565e-07)
(8.48299e-07 3.31823e-08 9.14177e-21 1.04299e-06 1.03816e-21 8.85818e-07)
(3.74732e-07 8.70407e-09 2.05444e-20 4.83243e-07 2.13864e-21 4.28991e-07)
(3.5141e-07 8.80596e-09 -1.89822e-20 4.52956e-07 -2.31721e-21 4.02186e-07)
(3.28074e-07 8.59091e-09 -4.9468e-21 4.22766e-07 -6.17593e-22 3.75426e-07)
(3.05302e-07 8.17357e-09 -3.07325e-20 3.93384e-07 -3.58041e-21 3.49332e-07)
(2.82937e-07 7.66294e-09 -7.11218e-21 3.64568e-07 -6.88868e-22 3.2378e-07)
(2.61914e-07 7.07893e-09 4.98841e-21 3.37515e-07 6.22035e-22 2.99701e-07)
(2.43614e-07 6.27445e-09 2.54687e-21 3.14087e-07 2.80447e-22 2.78836e-07)
(2.28671e-07 5.71068e-09 5.23944e-23 2.9491e-07 2.56985e-23 2.61816e-07)
(2.14722e-07 5.34513e-09 6.23737e-21 2.76931e-07 6.77155e-22 2.4581e-07)
(2.00065e-07 4.86544e-09 -1.70831e-20 2.58085e-07 -1.96536e-21 2.2911e-07)
(1.86202e-07 3.97588e-09 3.24528e-20 2.40398e-07 3.90457e-21 2.13178e-07)
(1.65825e-07 2.25701e-09 -2.10643e-20 2.14509e-07 -2.727e-21 1.90555e-07)
(1.58096e-07 -1.3242e-09 -3.34103e-20 2.04498e-07 -3.99082e-21 1.80228e-07)
(1.16545e-07 -4.90661e-09 -0 1.4909e-07 7.32732e-23 1.35465e-07)
(1.77103e-07 -8.83374e-09 -1.95123e-21 2.23408e-07 -1.27667e-22 1.94223e-07)
(9.49003e-08 -4.85737e-10 6.70483e-20 9.90196e-08 8.3645e-21 1.09804e-07)
(3.95969e-07 8.71504e-09 3.36014e-20 4.94571e-07 3.95526e-21 4.19761e-07)
(4.84421e-07 3.53918e-08 2.21173e-21 4.3554e-07 2.19283e-22 5.03466e-07)
(8.48547e-07 3.14511e-08 -8.60168e-21 1.04277e-06 -9.69634e-22 8.84631e-07)
(5.09162e-07 -4.44713e-09 -2.22217e-21 6.58487e-07 -3.73739e-22 5.83834e-07)
(4.87271e-07 -2.49988e-09 -1.20159e-20 6.30331e-07 -1.45892e-21 5.5881e-07)
(4.65514e-07 -6.97749e-10 -2.14404e-20 6.02245e-07 -2.22485e-21 5.33887e-07)
(4.44033e-07 9.89173e-10 7.58386e-21 5.74425e-07 9.78231e-22 5.09236e-07)
(4.22873e-07 2.54015e-09 -1.95654e-21 5.46941e-07 -2.09488e-22 4.84913e-07)
(4.01949e-07 3.87616e-09 9.79568e-21 5.19708e-07 1.27272e-21 4.60834e-07)
(3.81037e-07 4.90153e-09 2.53082e-20 4.92473e-07 2.81525e-21 4.3676e-07)
(3.59935e-07 5.54668e-09 1.39771e-22 4.65025e-07 -4.18499e-23 4.12484e-07)
(3.38614e-07 5.81614e-09 1.49606e-20 4.37361e-07 1.70661e-21 3.87991e-07)
(3.17251e-07 5.78433e-09 -1.37182e-21 4.09713e-07 -2.19885e-22 3.63489e-07)
(2.96378e-07 5.56347e-09 1.31478e-21 3.82747e-07 2.09318e-22 3.39552e-07)
(2.75762e-07 5.24918e-09 1.35273e-20 3.56141e-07 1.54916e-21 3.1598e-07)
(2.56308e-07 4.84181e-09 -4.69358e-21 3.31056e-07 -6.11663e-22 2.93668e-07)
(2.39405e-07 4.20994e-09 -2.36131e-21 3.09336e-07 -2.57917e-22 2.74358e-07)
(2.25601e-07 3.81332e-09 7.83639e-23 2.91557e-07 2.68289e-23 2.58605e-07)
(2.12608e-07 3.59771e-09 -4.6773e-23 2.74768e-07 -3.80175e-24 2.43673e-07)
(1.98901e-07 3.24819e-09 -1.36987e-22 2.57097e-07 -8.06567e-23 2.28031e-07)
(1.8588e-07 2.44892e-09 -1.76966e-20 2.40401e-07 -2.06358e-21 2.13029e-07)
(1.669e-07 7.73291e-10 2.00359e-20 2.16117e-07 2.46748e-21 1.91871e-07)
(1.60385e-07 -2.8181e-09 -1.33716e-22 2.07181e-07 -7.62924e-23 1.82772e-07)
(1.22697e-07 -6.13859e-09 -0 1.56277e-07 4.51317e-24 1.42027e-07)
(1.8046e-07 -9.83313e-09 1.85265e-21 2.27065e-07 1.13299e-22 1.97893e-07)
(9.44592e-08 -2.03783e-10 -6.83459e-20 1.01167e-07 -8.44933e-21 1.10496e-07)
(3.9738e-07 8.72588e-09 1.12644e-22 4.9641e-07 1.18061e-22 4.21322e-07)
(4.85589e-07 3.62085e-08 -6.29188e-21 4.39389e-07 -8.12086e-22 5.06537e-07)
(8.48409e-07 2.93572e-08 -4.70434e-23 1.04226e-06 -3.4345e-24 8.83163e-07)
(6.96691e-07 -4.5124e-08 2.13661e-21 8.77342e-07 2.0613e-23 7.87026e-07)
(6.79525e-07 -4.15938e-08 -1.34535e-20 8.58422e-07 -1.40931e-21 7.68983e-07)
(6.62023e-07 -3.80632e-08 -2.69164e-22 8.38854e-07 3.00553e-22 7.5045e-07)
(6.44234e-07 -3.45371e-08 1.22133e-20 8.18696e-07 1.10397e-21 7.31478e-07)
(6.26235e-07 -3.10368e-08 -1.30381e-20 7.98028e-07 -1.47835e-21 7.12143e-07)
(6.0806e-07 -2.75874e-08 2.37923e-21 7.76879e-07 4.17343e-22 6.92481e-07)
(5.89769e-07 -2.42181e-08 9.21336e-22 7.55309e-07 4.62406e-23 6.72551e-07)
(5.71405e-07 -2.09751e-08 -2.21037e-21 7.33354e-07 -8.59449e-23 6.52392e-07)
(5.52986e-07 -1.79046e-08 1.54403e-20 7.11032e-07 1.88064e-21 6.3202e-07)
(5.34471e-07 -1.505e-08 2.17023e-20 6.88294e-07 2.18902e-21 6.11393e-07)
(5.1582e-07 -1.24425e-08 1.61404e-21 6.65112e-07 2.35088e-23 5.90475e-07)
(4.96983e-07 -1.00827e-08 5.70297e-21 6.41458e-07 5.51467e-22 5.6923e-07)
(4.77971e-07 -7.94171e-09 -6.14786e-21 6.17395e-07 -7.17397e-22 5.47691e-07)
(4.58836e-07 -5.9675e-09 -6.81914e-23 5.93031e-07 2.8584e-22 5.2594e-07)
(4.39704e-07 -4.10535e-09 3.23236e-20 5.68559e-07 3.55828e-21 5.04138e-07)
(4.20699e-07 -2.33567e-09 4.43261e-23 5.44153e-07 -3.51086e-22 4.82431e-07)
(4.0186e-07 -6.92589e-10 -1.83948e-20 5.19868e-07 -2.08359e-21 4.60869e-07)
(3.83121e-07 7.39728e-10 -3.75859e-21 4.95634e-07 -4.07315e-22 4.39382e-07)
(3.64294e-07 1.86422e-09 -1.72936e-20 4.71235e-07 -1.95397e-21 4.17769e-07)
(3.45228e-07 2.62051e-09 -4.06774e-21 4.46517e-07 -3.6551e-22 3.95876e-07)
(3.25912e-07 3.01756e-09 1.38763e-22 4.21496e-07 -5.23572e-23 3.73707e-07)
(3.06524e-07 3.13511e-09 -2.13454e-20 3.96416e-07 -2.45838e-21 3.51476e-07)
(2.87551e-07 3.08046e-09 -1.40627e-21 3.71891e-07 -8.73726e-23 3.2971e-07)
(2.68684e-07 2.9345e-09 -5.19757e-21 3.4752e-07 -6.01122e-22 3.08131e-07)
(2.50822e-07 2.68101e-09 -3.89714e-23 3.24453e-07 2.33894e-23 2.87623e-07)
(2.35327e-07 2.20807e-09 2.24845e-21 3.0448e-07 1.81005e-22 2.69892e-07)
(2.22648e-07 1.96706e-09 -1.82414e-20 2.88107e-07 -2.10049e-21 2.55402e-07)
(2.10606e-07 1.88816e-09 1.6585e-20 2.72525e-07 2.09971e-21 2.41552e-07)
(1.97866e-07 1.65485e-09 1.52572e-20 2.56066e-07 1.8523e-21 2.26994e-07)
(1.85699e-07 9.30514e-10 2.77654e-20 2.40388e-07 3.18999e-21 2.12944e-07)
(1.68225e-07 -7.24796e-10 -3.23154e-20 2.1784e-07 -3.97384e-21 1.93363e-07)
(1.62927e-07 -4.31745e-09 -5.52953e-23 2.09981e-07 7.25346e-23 1.85511e-07)
(1.29098e-07 -7.39619e-09 -0 1.63632e-07 -2.71548e-24 1.48777e-07)
(1.83459e-07 -1.07547e-08 -1.74773e-21 2.30268e-07 -1.787e-22 2.01196e-07)
(9.46283e-08 7.72786e-11 1.74564e-20 1.03894e-07 2.15259e-21 1.11726e-07)
(3.98592e-07 8.82719e-09 7.50495e-21 4.98038e-07 8.80327e-22 4.22746e-07)
(4.86769e-07 3.69345e-08 -7.37611e-21 4.42979e-07 -9.64417e-22 5.09408e-07)
(8.48063e-07 2.6893e-08 1.89064e-24 1.04171e-06 6.51458e-24 8.81657e-07)
(6.60403e-07 -4.62588e-08 1.244e-21 7.98771e-07 1.64662e-22 7.12445e-07)
(7.19079e-07 -8.39394e-08 1.80123e-21 8.71725e-07 1.13818e-22 7.96648e-07)
(6.47273e-07 -7.46722e-08 -9.14497e-23 7.7133e-07 -4.28096e-23 7.18174e-07)
(6.66883e-07 -6.85571e-08 3.35832e-22 7.93278e-07 4.59993e-23 7.2817e-07)
(6.69304e-07 -7.09967e-08 4.21447e-22 7.88671e-07 3.64735e-23 7.29713e-07)
(7.0058e-07 -7.60077e-08 1.90926e-22 8.24404e-07 7.52138e-24 7.62209e-07)
(7.18433e-07 -7.93496e-08 1.00723e-22 8.41879e-07 -3.38087e-23 7.80229e-07)
(7.35867e-07 -8.20953e-08 -1.50709e-21 8.59467e-07 -1.59113e-22 7.9759e-07)
(7.51163e-07 -8.45617e-08 -5.93171e-22 8.7452e-07 1.60403e-23 8.12845e-07)
(7.65493e-07 -8.67353e-08 1.34046e-21 8.88966e-07 1.42249e-22 8.27195e-07)
(7.78607e-07 -8.87108e-08 -0 9.02285e-07 -3.7785e-23 8.40426e-07)
(7.90401e-07 -9.04125e-08 -7.11866e-23 9.145e-07 6.22171e-23 8.52406e-07)
(8.00621e-07 -9.18516e-08 2.7077e-21 9.25185e-07 2.65146e-22 8.62877e-07)
(8.09298e-07 -9.30147e-08 8.12557e-23 9.34465e-07 1.18072e-23 8.71874e-07)
(8.16707e-07 -9.39171e-08 2.77706e-21 9.42721e-07 2.69978e-22 8.79669e-07)
(8.22494e-07 -9.4568e-08 1.68591e-22 9.49374e-07 -3.3969e-23 8.85906e-07)
(8.26828e-07 -9.49541e-08 5.43131e-22 9.54732e-07 9.09879e-23 8.90751e-07)
(8.29773e-07 -9.50989e-08 2.00096e-21 9.58806e-07 1.99151e-22 8.94265e-07)
(8.31378e-07 -9.50023e-08 9.67021e-22 9.61666e-07 1.07606e-22 8.96495e-07)
(8.31743e-07 -9.4684e-08 2.59402e-21 9.63382e-07 1.76361e-22 8.97533e-07)
(8.30891e-07 -9.41459e-08 -2.29589e-21 9.63972e-07 -3.48625e-22 8.974e-07)
(8.28916e-07 -9.34077e-08 -3.29991e-21 9.63494e-07 -2.43381e-22 8.96184e-07)
(8.25936e-07 -9.247e-08 1.10375e-21 9.62111e-07 1.58581e-22 8.93997e-07)
(8.22038e-07 -9.13571e-08 -7.8939e-22 9.59856e-07 -1.47471e-22 8.9092e-07)
(8.17284e-07 -9.00745e-08 -2.25149e-21 9.56786e-07 -2.45828e-22 8.87008e-07)
(8.11745e-07 -8.86344e-08 -1.9205e-21 9.52951e-07 -6.47083e-23 8.82327e-07)
(8.0552e-07 -8.7043e-08 3.82359e-21 9.48459e-07 3.8462e-22 8.76965e-07)
(7.98699e-07 -8.53215e-08 -1.29131e-21 9.43364e-07 -1.88928e-22 8.71006e-07)
(7.91268e-07 -8.34669e-08 4.8297e-22 9.37635e-07 3.94007e-23 8.64429e-07)
(7.83349e-07 -8.14937e-08 -1.6738e-21 9.31396e-07 -1.22634e-22 8.57348e-07)
(7.74931e-07 -7.94055e-08 2.64668e-21 9.24604e-07 3.1891e-22 8.49743e-07)
(7.66069e-07 -7.72111e-08 1.61755e-21 9.17304e-07 1.44313e-22 8.41661e-07)
(7.56804e-07 -7.492e-08 1.89989e-21 9.09514e-07 2.40732e-22 8.33134e-07)
(7.47123e-07 -7.2531e-08 4.66556e-21 9.01208e-07 3.7082e-22 8.2414e-07)
(7.37078e-07 -7.00588e-08 -3.55918e-21 8.92417e-07 -4.65367e-22 8.14722e-07)
(7.2666e-07 -6.75019e-08 -1.96854e-21 8.8312e-07 -1.38681e-22 8.04864e-07)
(7.15858e-07 -6.487e-08 1.66589e-22 8.73274e-07 1.30963e-23 7.94544e-07)
(7.04723e-07 -6.21668e-08 -2.28358e-21 8.62935e-07 -2.44351e-22 7.83805e-07)
(6.93187e-07 -5.93986e-08 -9.08636e-22 8.5199e-07 -1.15284e-22 7.72569e-07)
(6.81272e-07 -5.65656e-08 -3.62032e-21 8.40465e-07 -3.31769e-22 7.60853e-07)
(6.69006e-07 -5.36783e-08 1.25369e-21 8.28375e-07 2.05858e-22 7.48676e-07)
(6.5633e-07 -5.07349e-08 1.59538e-21 8.15638e-07 8.92355e-23 7.35973e-07)
(6.43265e-07 -4.77443e-08 -4.06135e-21 8.02265e-07 -3.95287e-22 7.22757e-07)
(6.29788e-07 -4.47037e-08 3.21571e-21 7.88227e-07 3.91318e-22 7.09004e-07)
(6.15954e-07 -4.16224e-08 -1.06573e-22 7.73577e-07 -6.50258e-23 6.94763e-07)
(6.0174e-07 -3.85059e-08 -3.12431e-27 7.58276e-07 -1.61895e-23 6.80008e-07)
(5.87192e-07 -3.53647e-08 6.54373e-23 7.42366e-07 5.82208e-23 6.64783e-07)
(5.72381e-07 -3.2217e-08 3.24308e-21 7.2592e-07 2.1377e-22 6.49154e-07)
(5.57326e-07 -2.90867e-08 -1.12107e-20 7.08938e-07 -1.217e-21 6.33137e-07)
(5.42097e-07 -2.60089e-08 4.62478e-24 6.91484e-07 1.15725e-22 6.16798e-07)
(5.26748e-07 -2.30264e-08 2.73767e-23 6.73605e-07 -4.15493e-23 6.00183e-07)
(5.11275e-07 -2.01885e-08 -4.28496e-21 6.55278e-07 -4.5408e-22 5.83283e-07)
(4.9565e-07 -1.75327e-08 1.61333e-22 6.3647e-07 7.01499e-23 5.66067e-07)
(4.79843e-07 -1.5088e-08 -5.04364e-22 6.17158e-07 -4.72045e-23 5.48506e-07)
(4.63787e-07 -1.28507e-08 1.65618e-23 5.97297e-07 -9.38486e-24 5.30548e-07)
(4.47488e-07 -1.07886e-08 -2.38652e-21 5.76936e-07 -2.59863e-22 5.12217e-07)
(4.30975e-07 -8.84987e-09 2.01826e-23 5.56161e-07 -8.67264e-23 4.93574e-07)
(4.14352e-07 -6.98897e-09 -1.38033e-20 5.35133e-07 -1.51359e-21 4.74747e-07)
(3.97722e-07 -5.19717e-09 3.46709e-24 5.13996e-07 2.0584e-22 4.55863e-07)
(3.81127e-07 -3.51975e-09 1.54722e-20 4.92801e-07 1.72177e-21 4.36968e-07)
(3.64517e-07 -2.04613e-09 -1.77618e-23 4.71489e-07 -6.18955e-24 4.18007e-07)
(3.47741e-07 -8.71893e-10 1.65263e-20 4.49882e-07 1.85813e-21 3.98815e-07)
(3.3069e-07 -5.00465e-11 -1.00732e-21 4.27867e-07 -2.79289e-22 3.79281e-07)
(3.13368e-07 4.35718e-10 -1.37466e-20 4.05485e-07 -1.56127e-21 3.59429e-07)
(2.95948e-07 6.67662e-10 -1.97177e-22 3.82974e-07 3.88846e-23 3.39466e-07)
(2.78855e-07 7.47587e-10 -1.60394e-23 3.60886e-07 1.41433e-23 3.1986e-07)
(2.61731e-07 7.39838e-10 5.02734e-21 3.38761e-07 5.9819e-22 3.00275e-07)
(2.45472e-07 6.16825e-10 4.30559e-21 3.17746e-07 4.81532e-22 2.81593e-07)
(2.31383e-07 2.87013e-10 4.17767e-23 2.9954e-07 -8.95018e-24 2.65451e-07)
(2.19806e-07 1.88634e-10 -1.26706e-22 2.84567e-07 -1.94969e-23 2.52211e-07)
(2.08709e-07 2.31418e-10 8.27547e-23 2.70203e-07 -4.05335e-23 2.39442e-07)
(1.96944e-07 9.74711e-11 -1.44739e-20 2.54985e-07 -1.79542e-21 2.25988e-07)
(1.85647e-07 -5.70493e-10 -2.23924e-20 2.4035e-07 -2.54028e-21 2.12912e-07)
(1.69788e-07 -2.23013e-09 3.19075e-20 2.19666e-07 3.92816e-21 1.95024e-07)
(1.65707e-07 -5.81697e-09 1.53808e-20 2.12885e-07 1.7715e-21 1.88429e-07)
(1.35705e-07 -8.67034e-09 -0 1.71108e-07 -4.4283e-23 1.55671e-07)
(1.86059e-07 -1.15932e-08 -5.0799e-21 2.32982e-07 -5.4069e-22 2.04092e-07)
(9.53506e-08 3.72479e-10 4.52569e-20 1.07144e-07 5.53559e-21 1.13433e-07)
(3.99448e-07 8.99676e-09 -3.48665e-20 4.99287e-07 -4.28896e-21 4.23898e-07)
(4.87829e-07 3.7596e-08 1.842e-21 4.46186e-07 2.95018e-22 5.11924e-07)
(8.476e-07 2.40602e-08 1.85218e-24 1.04126e-06 -1.64723e-24 8.80268e-07)
(7.14848e-07 -7.12969e-08 -1.33855e-22 8.9262e-07 -8.83655e-24 7.81405e-07)
(5.7949e-07 -6.48482e-08 1.9209e-22 6.86006e-07 1.77341e-23 6.33862e-07)
(5.3416e-07 -5.9493e-08 -2.12198e-22 6.22675e-07 -2.59959e-23 5.84638e-07)
(5.82581e-07 -6.23998e-08 -7.69353e-23 6.84861e-07 -2.78315e-24 6.32252e-07)
(5.94675e-07 -6.62323e-08 5.89798e-25 6.94495e-07 2.43826e-24 6.45162e-07)
(6.14882e-07 -6.91333e-08 1.69806e-25 7.16551e-07 -3.56805e-23 6.65501e-07)
(6.27897e-07 -7.13731e-08 -1.52343e-21 7.28717e-07 -1.31453e-22 6.78377e-07)
(6.41848e-07 -7.34748e-08 6.14647e-22 7.42773e-07 9.5078e-23 6.92267e-07)
(6.5434e-07 -7.53945e-08 5.91219e-23 7.55188e-07 -3.2436e-23 7.04761e-07)
(6.66085e-07 -7.71336e-08 -9.73353e-22 7.67102e-07 -9.57212e-23 7.16576e-07)
(6.76739e-07 -7.8683e-08 -0 7.78013e-07 -2.06399e-23 7.27364e-07)
(6.86247e-07 -8.00179e-08 -1.85289e-21 7.87906e-07 -1.98979e-22 7.3706e-07)
(6.94569e-07 -8.11465e-08 -7.53619e-22 7.9671e-07 -3.08776e-23 7.45626e-07)
(7.01698e-07 -8.2069e-08 1.56367e-25 8.04431e-07 -2.38386e-23 7.53057e-07)
(7.07737e-07 -8.27859e-08 -1.89574e-21 8.11229e-07 -1.45704e-22 7.59454e-07)
(7.1249e-07 -8.33025e-08 1.72633e-21 8.16778e-07 2.47419e-22 7.64621e-07)
(7.1611e-07 -8.36165e-08 1.86038e-21 8.21325e-07 1.15415e-22 7.68707e-07)
(7.18689e-07 -8.37401e-08 -1.41459e-21 8.24966e-07 -1.97866e-22 7.71805e-07)
(7.20178e-07 -8.36839e-08 -1.14945e-21 8.27574e-07 -9.70994e-23 7.7386e-07)
(7.20663e-07 -8.34452e-08 -5.78733e-22 8.29286e-07 -3.58096e-23 7.74958e-07)
(7.20236e-07 -8.30405e-08 -3.22666e-22 8.30173e-07 3.75008e-23 7.75185e-07)
(7.18929e-07 -8.24745e-08 2.87034e-21 8.30252e-07 2.83892e-22 7.74571e-07)
(7.16832e-07 -8.17613e-08 1.97928e-24 8.29599e-07 -2.99944e-23 7.73201e-07)
(7.14025e-07 -8.09023e-08 1.2452e-21 8.28319e-07 1.50368e-22 7.71152e-07)
(7.10545e-07 -7.99141e-08 1.44516e-21 8.26394e-07 1.19536e-22 7.68454e-07)
(7.06467e-07 -7.87975e-08 1.83793e-22 8.23921e-07 -3.44915e-23 7.65179e-07)
(7.01893e-07 -7.75689e-08 -1.15884e-21 8.20985e-07 -1.24181e-22 7.61421e-07)
(6.968e-07 -7.6228e-08 -6.18422e-22 8.17538e-07 -4.00162e-23 7.57155e-07)
(6.91273e-07 -7.47833e-08 1.56599e-24 8.13665e-07 1.6585e-23 7.52457e-07)
(6.85358e-07 -7.32404e-08 3.37631e-22 8.09404e-07 3.03772e-23 7.47368e-07)
(6.79056e-07 -7.16027e-08 8.85556e-24 8.04732e-07 3.17139e-23 7.41883e-07)
(6.72422e-07 -6.98767e-08 2.31764e-21 7.997e-07 2.33283e-22 7.3605e-07)
(6.65449e-07 -6.80671e-08 3.89201e-24 7.94274e-07 -3.57553e-23 7.29854e-07)
(6.58172e-07 -6.61729e-08 1.70007e-23 7.88496e-07 7.30613e-23 7.23326e-07)
(6.50593e-07 -6.42029e-08 3.99299e-21 7.82335e-07 4.19305e-22 7.16457e-07)
(6.42697e-07 -6.21552e-08 1.2153e-21 7.75765e-07 2.64636e-23 7.09225e-07)
(6.34508e-07 -6.00364e-08 -2.21984e-21 7.68799e-07 -2.1986e-22 7.01649e-07)
(6.26013e-07 -5.78461e-08 1.43715e-21 7.61408e-07 1.74893e-22 6.93705e-07)
(6.17184e-07 -5.5586e-08 -4.26406e-24 7.53544e-07 -4.60235e-23 6.85359e-07)
(6.0802e-07 -5.32609e-08 -1.70925e-21 7.45189e-07 -1.97026e-22 6.76603e-07)
(5.98509e-07 -5.08672e-08 -1.51447e-21 7.36327e-07 -1.148e-22 6.67416e-07)
(5.88648e-07 -4.84093e-08 1.36549e-21 7.2694e-07 1.91196e-22 6.57791e-07)
(5.78389e-07 -4.58882e-08 2.19285e-21 7.16955e-07 2.16348e-22 6.47672e-07)
(5.67734e-07 -4.32989e-08 1.16751e-21 7.06375e-07 2.11292e-22 6.37056e-07)
(5.56726e-07 -4.06534e-08 9.31946e-21 6.95234e-07 9.49509e-22 6.25981e-07)
(5.45315e-07 -3.79482e-08 1.06632e-24 6.83461e-07 -1.17178e-22 6.14391e-07)
(5.33575e-07 -3.51989e-08 6.65395e-24 6.71129e-07 -2.66554e-23 6.02356e-07)
(5.21537e-07 -3.24202e-08 -3.20878e-21 6.58254e-07 -2.52718e-22 5.899e-07)
(5.09239e-07 -2.96363e-08 7.02715e-21 6.44859e-07 7.64619e-22 5.77055e-07)
(4.96751e-07 -2.68843e-08 1.18947e-22 6.30999e-07 -1.45266e-22 5.63883e-07)
(4.84114e-07 -2.42047e-08 -8.52999e-21 6.16698e-07 -9.08524e-22 5.50413e-07)
(4.71323e-07 -2.1643e-08 3.15342e-23 6.01931e-07 -1.29391e-23 5.36635e-07)
(4.58356e-07 -1.92361e-08 -9.88068e-21 5.86667e-07 -1.05298e-21 5.2252e-07)
(4.4518e-07 -1.70051e-08 4.85462e-22 5.70876e-07 1.66258e-22 5.08036e-07)
(4.31715e-07 -1.4941e-08 3.22531e-21 5.54495e-07 3.35972e-22 4.93113e-07)
(4.17951e-07 -1.30081e-08 -1.89623e-21 5.37557e-07 -2.71491e-22 4.77762e-07)
(4.03898e-07 -1.11574e-08 -5.46643e-21 5.20119e-07 -5.89964e-22 4.62016e-07)
(3.8964e-07 -9.34972e-09 -1.20958e-22 5.02317e-07 1.30682e-23 4.45985e-07)
(3.75265e-07 -7.58881e-09 3.24075e-24 4.84268e-07 -2.25823e-24 4.29772e-07)
(3.60812e-07 -5.92955e-09 1.25702e-22 4.66012e-07 2.32295e-23 4.13418e-07)
(3.46257e-07 -4.46514e-09 -1.19728e-23 4.47509e-07 -9.23845e-23 3.96888e-07)
(3.31483e-07 -3.28817e-09 -1.5691e-20 4.28614e-07 -1.7384e-21 3.80054e-07)
(3.1641e-07 -2.44371e-09 5.58731e-21 4.0925e-07 7.90025e-22 3.62834e-07)
(3.01053e-07 -1.9068e-09 1.30557e-20 3.89468e-07 1.56176e-21 3.45264e-07)
(2.85571e-07 -1.59538e-09 1.94353e-20 3.69495e-07 2.17648e-21 3.27539e-07)
(2.70332e-07 -1.41287e-09 -4.42985e-23 3.49821e-07 -1.46244e-22 3.10067e-07)
(2.54927e-07 -1.31299e-09 -1.16962e-20 3.29925e-07 -1.37677e-21 2.92456e-07)
(2.40271e-07 -1.33006e-09 -4.08115e-21 3.10975e-07 -4.58568e-22 2.75608e-07)
(2.27574e-07 -1.53379e-09 -7.55503e-21 2.94536e-07 -8.09882e-22 2.61047e-07)
(2.17065e-07 -1.5039e-09 1.17895e-20 2.80943e-07 1.4122e-21 2.49029e-07)
(2.06902e-07 -1.35632e-09 -3.67182e-21 2.678e-07 -4.34187e-22 2.37339e-07)
(1.96121e-07 -1.41121e-09 1.41297e-20 2.53844e-07 1.81874e-21 2.25001e-07)
(1.85717e-07 -2.04381e-09 3.86861e-20 2.40287e-07 4.62388e-21 2.12929e-07)
(1.71579e-07 -3.73478e-09 1.76458e-20 2.21581e-07 2.00867e-21 1.9684e-07)
(1.68711e-07 -7.30957e-09 6.25857e-23 2.1588e-07 -3.48739e-23 1.91512e-07)
(1.42458e-07 -9.9483e-09 -0 1.78648e-07 1.26061e-23 1.62649e-07)
(1.88227e-07 -1.23451e-08 4.80755e-21 2.35185e-07 5.83491e-22 2.06559e-07)
(9.64955e-08 7.03479e-10 1.55367e-22 1.10802e-07 7.32821e-23 1.15472e-07)
(4.00094e-07 9.19982e-09 3.30962e-20 5.00386e-07 4.01968e-21 4.24983e-07)
(4.88546e-07 3.82303e-08 1.8855e-20 4.48754e-07 2.38603e-21 5.13772e-07)
(8.47239e-07 2.08484e-08 1.84215e-24 1.04129e-06 -1.67577e-23 8.79387e-07)
(5.51625e-07 -5.12849e-08 4.78488e-22 6.6721e-07 5.59787e-23 5.9465e-07)
(4.93976e-07 -5.51714e-08 4.98763e-22 5.74678e-07 4.09576e-23 5.35345e-07)
(4.77338e-07 -5.48551e-08 -2.59405e-23 5.49892e-07 -2.00765e-23 5.18622e-07)
(5.20405e-07 -5.83922e-08 -3.91672e-22 6.06051e-07 -3.78054e-23 5.62016e-07)
(5.26847e-07 -6.05487e-08 4.65653e-23 6.09333e-07 1.59683e-23 5.68533e-07)
(5.41085e-07 -6.23872e-08 1.56948e-22 6.2455e-07 1.6886e-23 5.82629e-07)
(5.51615e-07 -6.41053e-08 -2.025e-24 6.34545e-07 -4.21604e-24 5.93095e-07)
(5.62633e-07 -6.57294e-08 5.74784e-25 6.45678e-07 -1.12065e-24 6.04112e-07)
(5.72615e-07 -6.71991e-08 -2.06332e-25 6.55758e-07 2.79145e-25 6.14143e-07)
(5.81893e-07 -6.85389e-08 -2.00009e-24 6.65224e-07 -1.27894e-24 6.23518e-07)
(5.9016e-07 -6.97095e-08 -0 6.73737e-07 9.71625e-25 6.31928e-07)
(5.97686e-07 -7.07223e-08 -3.18619e-24 6.81694e-07 -3.1423e-24 6.39644e-07)
(6.04227e-07 -7.15825e-08 2.01683e-25 6.88698e-07 -6.45138e-25 6.46422e-07)
(6.09824e-07 -7.22789e-08 5.40327e-25 6.94862e-07 1.10737e-23 6.52304e-07)
(6.14521e-07 -7.28212e-08 4.40743e-22 7.00222e-07 3.40048e-23 6.57333e-07)
(6.18287e-07 -7.32027e-08 -3.67122e-22 7.04753e-07 -4.63546e-23 6.61477e-07)
(6.21149e-07 -7.34403e-08 3.6045e-24 7.08428e-07 1.1376e-23 6.64761e-07)
(6.23226e-07 -7.352e-08 -3.89305e-24 7.11491e-07 2.23461e-24 6.67306e-07)
(6.24464e-07 -7.34724e-08 -3.51668e-24 7.13723e-07 6.25633e-24 6.69053e-07)
(6.24874e-07 -7.32759e-08 5.56902e-22 7.15222e-07 6.29446e-23 6.70013e-07)
(6.24642e-07 -7.29568e-08 3.00546e-22 7.16169e-07 1.7515e-23 6.70368e-07)
(6.23739e-07 -7.25102e-08 9.47654e-24 7.16524e-07 -3.47056e-24 6.70087e-07)
(6.22239e-07 -7.19536e-08 -3.17141e-25 7.16329e-07 1.30848e-24 6.69241e-07)
(6.20136e-07 -7.12836e-08 3.5605e-24 7.15575e-07 8.66069e-25 6.67822e-07)
(6.17588e-07 -7.05089e-08 2.61573e-24 7.14461e-07 -2.84877e-23 6.65983e-07)
(6.14602e-07 -6.96436e-08 -1.77138e-21 7.12936e-07 -1.75326e-22 6.63729e-07)
(6.11186e-07 -6.86829e-08 2.23503e-22 7.11016e-07 5.25226e-23 6.61062e-07)
(6.07415e-07 -6.76373e-08 -2.43176e-24 7.08767e-07 -4.91056e-24 6.58054e-07)
(6.03321e-07 -6.65088e-08 -2.35948e-23 7.0622e-07 -8.30048e-24 6.54734e-07)
(5.98927e-07 -6.53018e-08 -3.26582e-22 7.03383e-07 -3.46673e-23 6.51118e-07)
(5.94255e-07 -6.40197e-08 1.13809e-24 7.00268e-07 7.0612e-25 6.47227e-07)
(5.8934e-07 -6.2666e-08 8.74976e-24 6.96905e-07 2.37083e-23 6.43087e-07)
(5.84164e-07 -6.12432e-08 1.28711e-21 6.93251e-07 1.32587e-22 6.38677e-07)
(5.78761e-07 -5.975e-08 2.09298e-24 6.89347e-07 -1.41916e-23 6.34023e-07)
(5.73136e-07 -5.8191e-08 1.16196e-23 6.85181e-07 -1.06723e-23 6.29128e-07)
(5.67268e-07 -5.65674e-08 -1.15974e-21 6.80711e-07 -8.60412e-23 6.23961e-07)
(5.61159e-07 -5.48779e-08 2.10775e-21 6.75934e-07 2.10713e-22 6.18521e-07)
(5.54799e-07 -5.3123e-08 -1.37537e-21 6.70827e-07 -1.69075e-22 6.12789e-07)
(5.48174e-07 -5.1302e-08 -8.47628e-25 6.65364e-07 3.76472e-23 6.06745e-07)
(5.41248e-07 -4.94151e-08 1.6141e-21 6.59487e-07 1.82343e-22 6.00347e-07)
(5.34023e-07 -4.74591e-08 1.43536e-21 6.532e-07 1.24516e-22 5.93592e-07)
(5.26479e-07 -4.54354e-08 8.84847e-24 6.46463e-07 -1.40073e-23 5.86452e-07)
(5.18555e-07 -4.33373e-08 6.50876e-24 6.39196e-07 -1.42145e-23 5.7886e-07)
(5.10295e-07 -4.11669e-08 -1.07176e-21 6.31448e-07 -1.61859e-22 5.70855e-07)
(5.01664e-07 -3.89268e-08 -4.73445e-21 6.23159e-07 -4.76952e-22 5.62397e-07)
(4.9265e-07 -3.66147e-08 9.37853e-25 6.14306e-07 4.51736e-23 5.53466e-07)
(4.83331e-07 -3.42466e-08 5.87485e-24 6.04963e-07 9.92786e-24 5.44136e-07)
(4.73707e-07 -3.18339e-08 -2.76209e-23 5.95105e-07 -1.98926e-23 5.34396e-07)
(4.63839e-07 -2.94043e-08 -1.78028e-21 5.8478e-07 -1.9337e-22 5.24301e-07)
(4.53786e-07 -2.69907e-08 -1.11859e-22 5.74023e-07 9.09265e-24 5.13896e-07)
(4.43574e-07 -2.46346e-08 -6.57076e-23 5.6284e-07 1.98267e-23 5.03201e-07)
(4.33212e-07 -2.23754e-08 3.91728e-21 5.51218e-07 4.0508e-22 4.9221e-07)
(4.22679e-07 -2.02477e-08 -1.49678e-21 5.39122e-07 -1.95518e-22 4.80896e-07)
(4.11915e-07 -1.82643e-08 -5.55873e-24 5.26494e-07 -1.56297e-23 4.692e-07)
(4.00834e-07 -1.64073e-08 -3.04883e-21 5.13263e-07 -2.96867e-22 4.57046e-07)
(3.89421e-07 -1.46419e-08 3.89183e-21 4.99453e-07 4.88034e-22 4.44434e-07)
(3.77661e-07 -1.29189e-08 5.14874e-21 4.85091e-07 6.25421e-22 4.31374e-07)
(3.65609e-07 -1.12069e-08 1.4008e-20 4.7027e-07 1.51034e-21 4.17938e-07)
(3.53355e-07 -9.52178e-09 -3.88376e-23 4.55101e-07 -1.7359e-22 4.04227e-07)
(3.40945e-07 -7.92681e-09 -1.2494e-20 4.39624e-07 -1.37845e-21 3.90284e-07)
(3.28366e-07 -6.51642e-09 3.31638e-21 4.23801e-07 4.47935e-22 3.76083e-07)
(3.15536e-07 -5.37948e-09 -1.30879e-22 4.07522e-07 -8.06907e-23 3.61528e-07)
(3.02392e-07 -4.55217e-09 -7.0153e-21 3.90729e-07 -8.84046e-22 3.46561e-07)
(2.8897e-07 -3.99806e-09 -1.80681e-20 3.735e-07 -2.09273e-21 3.31235e-07)
(2.7539e-07 -3.64234e-09 -1.66405e-20 3.5602e-07 -1.78515e-21 3.15708e-07)
(2.61959e-07 -3.38673e-09 9.17746e-21 3.38706e-07 1.12837e-21 3.00321e-07)
(2.48255e-07 -3.21103e-09 -7.46592e-22 3.21024e-07 -1.14532e-22 2.84667e-07)
(2.35202e-07 -3.14599e-09 3.88132e-21 3.04148e-07 4.47115e-22 2.69657e-07)
(2.23867e-07 -3.24e-09 -1.08916e-21 2.89458e-07 -1.42511e-22 2.56655e-07)
(2.14386e-07 -3.09825e-09 4.37522e-23 2.77211e-07 1.26732e-23 2.45823e-07)
(2.05159e-07 -2.86491e-09 9.08121e-24 2.65306e-07 -5.62834e-23 2.35221e-07)
(1.95369e-07 -2.86238e-09 -1.60704e-20 2.52626e-07 -1.96164e-21 2.24012e-07)
(1.85893e-07 -3.4834e-09 -1.52378e-20 2.40187e-07 -1.76595e-21 2.12982e-07)
(1.73591e-07 -5.23305e-09 8.34756e-23 2.23586e-07 5.57936e-23 1.9881e-07)
(1.71933e-07 -8.79199e-09 7.08843e-24 2.18971e-07 2.27446e-24 1.94759e-07)
(1.493e-07 -1.12166e-08 -0 1.862e-07 -6.65927e-24 1.69661e-07)
(1.89971e-07 -1.30166e-08 -4.72759e-21 2.36895e-07 -5.83858e-22 2.08618e-07)
(9.80513e-08 1.11519e-09 5.92984e-23 1.14869e-07 -2.19724e-23 1.17823e-07)
(3.99957e-07 9.37716e-09 -1.98919e-20 5.00673e-07 -2.4195e-21 4.25448e-07)
(4.89378e-07 3.89199e-08 -1.79008e-20 4.51015e-07 -2.27269e-21 5.15331e-07)
(8.47317e-07 1.73356e-08 2.4173e-22 1.04207e-06 6.11538e-23 8.7928e-07)
(4.74517e-07 -4.56506e-08 -4.34954e-22 5.66238e-07 -4.41718e-23 5.08548e-07)
(4.44287e-07 -5.14873e-08 9.60749e-25 5.11208e-07 1.16803e-23 4.78842e-07)
(4.31648e-07 -5.11725e-08 -1.14216e-25 4.92501e-07 9.18229e-24 4.66267e-07)
(4.62903e-07 -5.34648e-08 3.74057e-22 5.33955e-07 3.55549e-23 4.97515e-07)
(4.66742e-07 -5.47697e-08 -4.39323e-23 5.3491e-07 -1.44819e-23 5.01251e-07)
(4.77888e-07 -5.61761e-08 -1.4898e-22 5.46968e-07 -1.19607e-23 5.12345e-07)
(4.86178e-07 -5.74859e-08 -4.79125e-25 5.54953e-07 2.09579e-24 5.20642e-07)
(4.94684e-07 -5.87009e-08 -3.26277e-26 5.63639e-07 1.68074e-24 5.2919e-07)
(5.02339e-07 -5.98005e-08 1.5e-22 5.71421e-07 3.15622e-23 5.36924e-07)
(5.09435e-07 -6.07871e-08 9.06129e-22 5.78766e-07 8.76058e-23 5.44136e-07)
(5.15781e-07 -6.16556e-08 -0 5.85389e-07 -5.9811e-24 5.50635e-07)
(5.21509e-07 -6.24035e-08 4.88223e-22 5.91527e-07 3.45475e-23 5.56555e-07)
(5.26497e-07 -6.30336e-08 -7.04558e-22 5.96973e-07 -8.92719e-23 5.61774e-07)
(5.30761e-07 -6.35425e-08 -5.65913e-22 6.01768e-07 -2.88875e-23 5.66308e-07)
(5.34333e-07 -6.39311e-08 8.78908e-22 6.05962e-07 1.02635e-22 5.70188e-07)
(5.37229e-07 -6.42035e-08 3.52675e-22 6.09563e-07 1.97782e-23 5.73432e-07)
(5.3941e-07 -6.43633e-08 7.49057e-25 6.12487e-07 1.88009e-23 5.75997e-07)
(5.41007e-07 -6.44077e-08 1.2886e-21 6.14957e-07 1.49289e-22 5.78016e-07)
(5.41966e-07 -6.43487e-08 1.04053e-21 6.16825e-07 7.26371e-23 5.79433e-07)
(5.42318e-07 -6.41834e-08 -5.29541e-22 6.1815e-07 -7.19598e-23 5.80277e-07)
(5.42186e-07 -6.39218e-08 -2.88259e-22 6.1908e-07 -6.35384e-23 5.80671e-07)
(5.41558e-07 -6.35668e-08 -2.61455e-21 6.19573e-07 -2.59333e-22 5.80599e-07)
(5.40458e-07 -6.31238e-08 -1.57124e-24 6.19637e-07 2.91505e-23 5.80084e-07)
(5.38937e-07 -6.25959e-08 -6.98608e-22 6.19332e-07 -7.05301e-23 5.79175e-07)
(5.37123e-07 -6.1991e-08 -2.42179e-25 6.18817e-07 1.27032e-23 5.77997e-07)
(5.34914e-07 -6.13145e-08 -5.72482e-24 6.17906e-07 -4.65461e-24 5.76447e-07)
(5.32419e-07 -6.05609e-08 4.15388e-24 6.16773e-07 9.57085e-25 5.74629e-07)
(5.29699e-07 -5.97473e-08 -1.84947e-24 6.15445e-07 -2.93973e-25 5.72602e-07)