# p  FACE_DATA 300
# x y z  p
0.29787915 -0.05 0.060005454 11722.729
0.29366024 -0.05 0.059998184 11740.19
0.28948669 -0.05 0.059982824 11759.686
0.28535801 -0.05 0.05995956 11779.049
0.28127374 -0.05 0.05992843 11799.56
0.27723342 -0.05 0.059889544 11819.929
0.27323659 -0.05 0.059843055 11840.872
0.2692828 -0.05 0.059789027 11862.157
0.26537161 -0.05 0.059727601 11883.413
0.26150257 -0.05 0.05965892 11905.134
0.25767524 -0.05 0.059583046 11927.436
0.2538892 -0.05 0.059500074 11950.114
0.25014401 -0.05 0.059410118 11973.17
0.24643926 -0.05 0.059313284 11996.643
0.24277452 -0.05 0.059209674 12020.476
0.23914938 -0.05 0.059099387 12044.616
0.23556344 -0.05 0.058982537 12068.837
0.23201627 -0.05 0.058859254 12093.345
0.2285075 -0.05 0.058729541 12118.844
0.22503671 -0.05 0.058593532 12143.78
0.22160352 -0.05 0.058451379 12169.53
0.21820754 -0.05 0.058303115 12195.472
0.21484838 -0.05 0.058148846 12221.809
0.21152567 -0.05 0.05798866 12248.467
0.20823903 -0.05 0.057822651 12275.564
0.20498809 -0.05 0.057650874 12303.131
0.20177248 -0.05 0.057473468 12330.406
0.19859184 -0.05 0.057290478 12358.798
0.1954458 -0.05 0.057101994 12386.448
0.19233402 -0.05 0.056908168 12414.781
0.18925614 -0.05 0.056708999 12443.624
0.18621181 -0.05 0.056504563 12472.833
0.1832007 -0.05 0.056294919 12502.462
0.18022246 -0.05 0.05608023 12531.552
0.17727675 -0.05 0.055860526 12562.065
0.17436324 -0.05 0.055635849 12591.803
0.1714816 -0.05 0.055406376 12621.994
0.16863151 -0.05 0.055172052 12653.401
0.16581265 -0.05 0.054932944 12684.517
0.16302469 -0.05 0.054689208 12716.157
0.16026733 -0.05 0.054440898 12748.3
0.15754024 -0.05 0.054188056 12781.011
0.15484313 -0.05 0.053930725 12813.882
0.15217569 -0.05 0.053668978 12846.896
0.14953762 -0.05 0.053402889 12880.27
0.14692863 -0.05 0.053132457 12914.373
0.14434842 -0.05 0.052857799 12947.584
0.14179669 -0.05 0.052579044 12981.697
0.13927317 -0.05 0.05229612 13017.271
0.13677757 -0.05 0.052009061 13052.933
0.13430961 -0.05 0.051717985 13088.677
0.13186901 -0.05 0.051422994 13124.348
0.1294555 -0.05 0.05112408 13161.441
0.12706881 -0.05 0.050821224 13198.88
0.12470868 -0.05 0.050514504 13236.457
0.12237483 -0.05 0.05020403 13273.683
0.12006701 -0.05 0.049889836 13312.117
0.11778495 -0.05 0.049571874 13351.19
0.11552842 -0.05 0.049250263 13389.903
0.11329715 -0.05 0.048924992 13429.907
0.1110909 -0.05 0.048596121 13469.383
0.10890943 -0.05 0.048263656 13511.368
0.10675251 -0.05 0.047927554 13552.817
0.10461987 -0.05 0.047587958 13594.358
0.1025113 -0.05 0.047244937 13636.087
0.10042655 -0.05 0.046898432 13679.965
0.098365405 -0.05 0.046548446 13723.924
0.096327639 -0.05 0.046195043 13768.676
0.094313028 -0.05 0.045838237 13813.481
0.092321357 -0.05 0.045478019 13859.686
0.090352417 -0.05 0.04511438 13905.671
0.088405979 -0.05 0.044747421 13952.043
0.086481845 -0.05 0.044377096 13999.955
0.084579815 -0.05 0.044003384 14047.92
0.082699669 -0.05 0.043626385 14096.562
0.080841229 -0.05 0.043246005 14147.077
0.0790043 -0.05 0.042862236 14196.905
0.077188666 -0.05 0.0424752 14247.315
0.07539416 -0.05 0.04208479 14299.551
0.073620599 -0.05 0.041690997 14351.845
0.071867788 -0.05 0.041293877 14405.869
0.070135557 -0.05 0.040893384 14461.24
0.068423743 -0.05 0.040489458 14517.832
0.066732169 -0.05 0.040082112 14573.801
0.065060663 -0.05 0.039671361 14631.148
0.063409062 -0.05 0.039257174 14689.367
0.061777219 -0.05 0.038839488 14749.836
0.060164984 -0.05 0.038418265 14810.598
0.058572196 -0.05 0.037993513 14872.974
0.056998721 -0.05 0.037565159 14936.476
0.055444419 -0.05 0.03713316 15000.858
0.053909142 -0.05 0.036697516 15065.94
0.052392764 -0.05 0.03625817 15134.031
0.050895177 -0.05 0.035815009 15204.313
0.049416244 -0.05 0.035368033 15275.27
0.047955856 -0.05 0.034917167 15346.911
0.046513915 -0.05 0.034462309 15418.659
0.045090302 -0.05 0.034003445 15493.419
0.043684931 -0.05 0.033540468 15573.135
0.042297731 -0.05 0.03307324 15655.773
0.040928604 -0.05 0.032601734 15740.185
0.039577476 -0.05 0.032125845 15828.215
0.038244291 -0.05 0.03164545 15918.336
0.036928981 -0.05 0.031160474 16011.471
0.0356315 -0.05 0.030670795 16108.218
0.03435181 -0.05 0.030176299 16211.726
0.033089918 -0.05 0.029676761 16325.896
0.031845783 -0.05 0.029172106 16447.633
0.030619394 -0.05 0.02866221 16578.113
0.029410776 -0.05 0.028146878 16717.38
0.028219949 -0.05 0.027625962 16868.225
0.027046957 -0.05 0.027099267 17024.188
0.025891857 -0.05 0.026566614 17183.668
0.02475474 -0.05 0.026027768 17347.747
0.023635681 -0.05 0.025482558 17517.577
0.022534817 -0.05 0.024930717 17693.232
0.021452274 -0.05 0.024372036 17873.072
0.020388213 -0.05 0.023806274 18059.173
0.019342865 -0.05 0.023233111 18251.195
0.018316468 -0.05 0.022652259 18453.504
0.017309264 -0.05 0.02206346 18670.068
0.016321577 -0.05 0.021466368 18902.911
0.015353757 -0.05 0.020860645 19145.192
0.014406156 -0.05 0.020245997 19399.171
0.013479274 -0.05 0.019622013 19666.55
0.012573638 -0.05 0.018988323 19951.551
0.0116898 -0.05 0.018344552 20261.265
0.010828378 -0.05 0.017690314 20599.237
0.0099901249 -0.05 0.017025149 20962.917
0.0091759198 -0.05 0.016348644 21347.996
0.008386597 -0.05 0.0156605 21757.615
0.0076231725 -0.05 0.014960218 22194.19
0.0068867853 -0.05 0.014247452 22655.428
0.0061787359 -0.05 0.013521944 23148.66
0.0055003792 -0.05 0.012783302 23672.303
0.0048530826 -0.05 0.012031363 24228.731
0.0042385571 -0.05 0.011266143 24826.359
0.0036585397 -0.05 0.010487553 25467.44
0.0031148319 -0.05 0.0096957287 26142.394
0.0026094399 -0.05 0.0088912322 26844.539
0.0021442246 -0.05 0.0080745628 27570.12
0.0017210465 -0.05 0.0072465895 28314.553
0.0013418093 -0.05 0.0064087151 29076.542
0.0010080919 -0.05 0.0055623679 29841.514
0.00072127228 -0.05 0.0047092571 30597.692
0.00048251081 -0.05 0.0038515496 31337.733
0.00029236329 -0.05 0.0029916287 32044.871
0.0001508317 -0.05 0.0021320102 32703.299
5.7495879e-05 -0.05 0.0012752716 33304.329
1.1394864e-05 -0.05 0.00042397109 33842.567
0.99768066 -0.05 0.00033611804 26551.433
0.99304169 -0.05 0.0010063364 26516.378
0.98840215 -0.05 0.0016726212 26452.988
0.98376207 -0.05 0.0023350721 26397.056
0.97912143 -0.05 0.0029936636 26338.773
0.97448026 -0.05 0.00364841 26281.59
0.96983855 -0.05 0.0042993733 26224.29
0.96519632 -0.05 0.0049465845 26167.263
0.96055356 -0.05 0.0055900577 26110.359
0.95591031 -0.05 0.0062298653 26053.581
0.95126654 -0.05 0.0068660327 25996.991
0.94662227 -0.05 0.0074985225 25940.599
0.94197753 -0.05 0.0081274235 25884.377
0.9373323 -0.05 0.008752761 25828.414
0.93268659 -0.05 0.0093745713 25772.634
0.92804042 -0.05 0.0099928964 25717.138
0.92339378 -0.05 0.010607714 25661.926
0.91874669 -0.05 0.011219031 25607.034
0.91409914 -0.05 0.011826962 25552.355
0.90945116 -0.05 0.012431486 25498.122
0.90480273 -0.05 0.013032571 25444.156
0.90015387 -0.05 0.013630361 25390.532
0.89550457 -0.05 0.014224739 25337.403
0.89085486 -0.05 0.014815813 25284.462
0.88620473 -0.05 0.01540363 25232.048
0.88155418 -0.05 0.0159881 25179.959
0.87690323 -0.05 0.016569356 25128.21
0.87225187 -0.05 0.017147383 25076.863
0.86760011 -0.05 0.017722168 25025.895
0.86294796 -0.05 0.018293719 24975.335
0.85829541 -0.05 0.018862095 24925.099
0.85364248 -0.05 0.019427289 24875.325
0.84898916 -0.05 0.01998931 24825.85
0.84433547 -0.05 0.020548224 24776.784
0.83968139 -0.05 0.021103928 24728.206
0.83502695 -0.05 0.021656533 24679.805
0.83037214 -0.05 0.022206072 24631.864
0.82571697 -0.05 0.022752481 24584.199
0.82106143 -0.05 0.023295768 24536.976
0.81640552 -0.05 0.023835961 24489.97
0.81174928 -0.05 0.024373126 24443.301
0.80709266 -0.05 0.024907211 24396.928
0.80243571 -0.05 0.025438235 24350.853
0.7977784 -0.05 0.025966147 24305.191
0.79312074 -0.05 0.026490982 24259.715
0.78846275 -0.05 0.027012845 24214.453
0.78380442 -0.05 0.027531686 24169.502
0.77914574 -0.05 0.028047403 24124.894
0.77448674 -0.05 0.028560079 24080.354
0.7698274 -0.05 0.029069753 24036.094
0.76516772 -0.05 0.02957633 23992.044
0.7605077 -0.05 0.030079852 23948.123
0.75584737 -0.05 0.030580367 23904.287
0.75118671 -0.05 0.03107785 23860.603
0.74652573 -0.05 0.031572241 23817.064
0.74186441 -0.05 0.032063551 23773.611
0.73720278 -0.05 0.032551782 23730.24
0.73254082 -0.05 0.03303698 23686.821
0.72787854 -0.05 0.033519069 23643.53
0.72321595 -0.05 0.033998064 23600.033
0.71855304 -0.05 0.034473962 23556.63
0.71388981 -0.05 0.03494667 23513.067
0.70922626 -0.05 0.035416302 23469.262
0.7045624 -0.05 0.035882849 23425.226
0.69989823 -0.05 0.036346252 23380.92
0.69523375 -0.05 0.036806454 23336.372
0.69056894 -0.05 0.037263403 23291.477
0.68590382 -0.05 0.037717206 23246.018
0.68123839 -0.05 0.038167801 23200.186
0.67657265 -0.05 0.038615123 23153.649
0.67190661 -0.05 0.039059237 23106.441
0.66724025 -0.05 0.039500049 23058.509
0.66257357 -0.05 0.039937521 23009.688
0.6579066 -0.05 0.040371712 22959.794
0.65323931 -0.05 0.040802591 22908.809
0.64857171 -0.05 0.041230085 22856.594
0.6439038 -0.05 0.041654149 22803.076
0.63923558 -0.05 0.042074786 22748.027
0.63456705 -0.05 0.042492 22691.363
0.62989822 -0.05 0.042905734 22632.895
0.62522907 -0.05 0.043315943 22572.478
0.6205596 -0.05 0.043722625 22509.89
0.61588983 -0.05 0.044125719 22445.034
0.61121975 -0.05 0.044525219 22377.613
0.60654937 -0.05 0.044921074 22307.588
0.60187867 -0.05 0.045313219 22234.641
0.59720766 -0.05 0.045701683 22158.667
0.59253634 -0.05 0.046086399 22079.484
0.58786471 -0.05 0.046467288 21996.942
0.58319277 -0.05 0.046844345 21910.731
0.57852051 -0.05 0.047217535 21820.729
0.57384795 -0.05 0.047586814 21726.871
0.56917507 -0.05 0.047952124 21629.182
0.56450189 -0.05 0.048313436 21527.416
0.55982839 -0.05 0.048670677 21421.474
0.55515457 -0.05 0.04902381 21311.205
0.55048045 -0.05 0.04937281 21196.836
0.54580601 -0.05 0.04971755 21078.321
0.54113126 -0.05 0.050058049 20955.443
0.5364562 -0.05 0.050394263 20828.192
0.53178083 -0.05 0.050726133 20696.795
0.52710515 -0.05 0.051053569 20561.385
0.52242915 -0.05 0.051376464 20422.111
0.51775284 -0.05 0.051694815 20279.032
0.51307623 -0.05 0.052008601 20132.686
0.5083993 -0.05 0.052317708 19983.48
0.50372205 -0.05 0.052622097 19831.13
0.4990445 -0.05 0.052921701 19675.398
0.49436664 -0.05 0.053216429 19516.263
0.48968848 -0.05 0.053506199 19354.308
0.48501001 -0.05 0.053790938 19190.552
0.48033122 -0.05 0.054070626 19026.364
0.47565213 -0.05 0.05434516 18863.073
0.47097274 -0.05 0.054614471 18701.681
0.46629305 -0.05 0.054878504 18542.368
0.46161306 -0.05 0.055137129 18383.301
0.45693276 -0.05 0.055390258 18221.938
0.45225217 -0.05 0.05563783 18043.438
0.44757129 -0.05 0.055879797 17822.775
0.44289011 -0.05 0.056116052 17550.862
0.43820865 -0.05 0.05634646 17194.85
0.43352689 -0.05 0.056570934 16511.194
0.42884485 -0.05 0.056789428 15291.415
0.42416254 -0.05 0.057001839 13880.621
0.41947995 -0.05 0.057208045 12761.581
0.41479707 -0.05 0.057407955 12082.192
0.41011393 -0.05 0.057601449 11749.563
0.40543053 -0.05 0.057788457 11579.078
0.40074687 -0.05 0.057968848 11507.248
0.39606296 -0.05 0.058142512 11474.864
0.3913788 -0.05 0.05830933 11463.017
0.38669439 -0.05 0.058469176 11459.941
0.38200975 -0.05 0.058621944 11461.139
0.37732488 -0.05 0.058767528 11467.19
0.37263978 -0.05 0.058905769 11476.132
0.36795448 -0.05 0.059036526 11486.351
0.36326896 -0.05 0.059159727 11497.504
0.35858325 -0.05 0.059275201 11509.587
0.35389736 -0.05 0.059382803 11522.149
0.34921128 -0.05 0.05948244 11535.255
0.34452504 -0.05 0.059573923 11549.333
0.33983865 -0.05 0.059657062 11563.911
0.33515211 -0.05 0.059731741 11578.938
0.33046544 -0.05 0.059797856 11594.323
0.32577866 -0.05 0.059855197 11610.801
0.32109177 -0.05 0.059903555 11627.647
0.31640481 -0.05 0.059942821 11645.003
0.31171778 -0.05 0.059972784 11662.675
0.30703069 -0.05 0.059993273 11680.98
0.30234357 -0.05 0.060004087 11701.673
