/*--------------------------------*- C++ -*----------------------------------*\
| =========                 |                                                 |
| \\      /  F ield         | OpenFOAM: The Open Source CFD Toolbox           |
|  \\    /   O peration     | Version:  2306                                  |
|   \\  /    A nd           | Website:  www.openfoam.com                      |
|    \\/     M anipulation  |                                                 |
\*---------------------------------------------------------------------------*/
FoamFile
{
    version     2.0;
    format      ascii;
    arch        "LSB;label=32;scalar=64";
    class       volScalarField;
    location    "950";
    object      turbulenceProperties:L;
}
// * * * * * * * * * * * * * * * * * * * * * * * * * * * * * * * * * * * * * //

dimensions      [0 1 0 0 0 0 0];

internalField   nonuniform List<scalar> 
1340
(
0.257288
0.183446
0.54451
0.268982
0.257683
0.18331
0.518643
0.409007
0.550026
0.268477
0.257635
0.183265
0.381364
0.406462
0.419645
0.506421
0.404355
0.553361
0.267936
0.257279
0.183268
0.318936
0.331295
0.342548
0.354121
0.367527
0.381658
0.405468
0.417234
0.494228
0.400023
0.554712
0.267378
0.256721
0.183292
0.269214
0.278043
0.287787
0.298341
0.309906
0.322105
0.333941
0.344644
0.355669
0.368432
0.381861
0.40425
0.41458
0.482298
0.396084
0.554219
0.266851
0.256048
0.18333
0.230771
0.235879
0.24132
0.247091
0.253212
0.259743
0.266807
0.274548
0.283085
0.292475
0.302607
0.313709
0.325397
0.336657
0.346778
0.357227
0.369302
0.382002
0.402843
0.411741
0.470764
0.392575
0.552045
0.266364
0.255325
0.1834
0.19877
0.201088
0.203556
0.206178
0.208958
0.211903
0.215019
0.218315
0.221805
0.225514
0.229473
0.233714
0.238263
0.243138
0.248338
0.253862
0.259733
0.266008
0.272804
0.280248
0.288444
0.297431
0.307091
0.31768
0.328799
0.339432
0.348946
0.358793
0.370143
0.382087
0.401264
0.408754
0.459705
0.38953
0.548364
0.265936
0.254648
0.183479
0.204616
0.198301
0.210056
0.206516
0.206417
0.201987
0.199699
0.197495
0.19563
0.193916
0.192381
0.191019
0.189854
0.18887
0.188026
0.187362
0.18685
0.186481
0.186247
0.186138
0.186151
0.186277
0.186504
0.186825
0.187236
0.187732
0.188305
0.188947
0.189665
0.190446
0.191296
0.192212
0.193194
0.194245
0.195364
0.196556
0.197829
0.199179
0.200622
0.20216
0.203797
0.205548
0.207419
0.209421
0.211556
0.213838
0.216273
0.21886
0.221611
0.224527
0.227612
0.230885
0.234369
0.238089
0.242083
0.246375
0.250983
0.255909
0.261155
0.266741
0.272725
0.279212
0.286314
0.294118
0.302648
0.311785
0.32181
0.332301
0.342261
0.351147
0.360371
0.370965
0.382124
0.399529
0.405644
0.449161
0.386956
0.543415
0.265611
0.254052
0.183555
0.198822
0.221708
0.231569
0.221596
0.219629
0.216193
0.214163
0.211986
0.210096
0.208351
0.206798
0.20543
0.204243
0.203231
0.202368
0.201682
0.201143
0.200736
0.200468
0.200324
0.200293
0.200371
0.200548
0.200813
0.201165
0.201595
0.202091
0.202659
0.20329
0.203981
0.204733
0.205543
0.206413
0.207342
0.208334
0.209393
0.21052
0.211721
0.213006
0.214379
0.215849
0.217422
0.219114
0.220931
0.222876
0.224968
0.227204
0.22959
0.23213
0.234826
0.237681
0.240711
0.24394
0.247391
0.251104
0.255104
0.259413
0.264032
0.268965
0.274234
0.279887
0.286021
0.292732
0.300092
0.30811
0.316671
0.326085
0.335891
0.345138
0.353385
0.361966
0.371776
0.382118
0.397657
0.402436
0.439178
0.384851
0.537627
0.26533
0.253604
0.183595
0.226627
0.241177
0.245693
0.235079
0.233967
0.231038
0.229019
0.226913
0.225051
0.223352
0.221862
0.220515
0.219354
0.218361
0.217522
0.216837
0.2163
0.215883
0.2156
0.215444
0.215385
0.215428
0.215563
0.215792
0.216088
0.216454
0.216889
0.217384
0.217934
0.218537
0.219193
0.219897
0.220655
0.221462
0.222322
0.22324
0.224219
0.225265
0.226383
0.227586
0.228877
0.230265
0.23177
0.233388
0.235136
0.237025
0.239048
0.241216
0.243527
0.245979
0.248579
0.251337
0.254275
0.257423
0.260822
0.264494
0.268466
0.272746
0.277332
0.282243
0.287523
0.293256
0.299526
0.306381
0.31383
0.321768
0.330517
0.339577
0.348079
0.355682
0.363593
0.372594
0.382081
0.395657
0.399141
0.429776
0.383179
0.53111
0.265272
0.253201
0.183569
0.245123
0.255022
0.259053
0.249859
0.249147
0.246359
0.244419
0.242433
0.240686
0.239086
0.237674
0.236406
0.235305
0.234362
0.233561
0.232898
0.232379
0.23197
0.231685
0.231516
0.231435
0.231448
0.23155
0.231731
0.231964
0.232276
0.232641
0.233051
0.233518
0.234026
0.234579
0.235168
0.235808
0.236483
0.237204
0.237975
0.238797
0.239677
0.240625
0.241645
0.242749
0.243948
0.245251
0.246666
0.248209
0.249879
0.251678
0.253612
0.255672
0.257859
0.260174
0.26263
0.265243
0.268058
0.271104
0.274413
0.278025
0.28193
0.286133
0.290655
0.295521
0.300803
0.306581
0.312881
0.319711
0.326985
0.335024
0.343297
0.351033
0.357991
0.365219
0.373399
0.381985
0.393537
0.395769
0.421093
0.381873
0.525188
0.265344
0.253036
0.183347
0.260658
0.270925
0.275575
0.267017
0.266384
0.263735
0.26193
0.260078
0.258478
0.256971
0.255647
0.254467
0.25342
0.252538
0.251773
0.251125
0.250619
0.250223
0.249923
0.24973
0.249617
0.249593
0.249645
0.249754
0.249927
0.250161
0.250422
0.250736
0.2511
0.251498
0.251906
0.252362
0.252843
0.253373
0.253928
0.254491
0.255143
0.255829
0.256566
0.257366
0.25826
0.259225
0.260296
0.261486
0.262772
0.264197
0.265736
0.267387
0.269163
0.271032
0.273015
0.27512
0.27735
0.279775
0.282425
0.285315
0.288512
0.292003
0.295763
0.299845
0.30424
0.308997
0.314212
0.319884
0.326021
0.332552
0.339817
0.347232
0.354159
0.360438
0.366951
0.374262
0.381844
0.391276
0.392227
0.41281
0.380938
0.514545
0.26618
0.252382
0.1831
0.281855
0.292941
0.298221
0.28984
0.28951
0.286997
0.285443
0.283912
0.282324
0.281073
0.279908
0.278734
0.277831
0.277062
0.276291
0.275636
0.275235
0.274769
0.274448
0.274215
0.274018
0.273965
0.27389
0.27387
0.273953
0.274031
0.274135
0.27428
0.274448
0.274678
0.274849
0.275058
0.275311
0.275619
0.275857
0.276142
0.276517
0.276911
0.277324
0.277801
0.278386
0.278993
0.279765
0.280607
0.28152
0.282619
0.283773
0.285014
0.286398
0.287804
0.289313
0.290934
0.292615
0.294508
0.296621
0.298951
0.301577
0.304522
0.307699
0.311169
0.314926
0.318981
0.323441
0.32828
0.333522
0.33913
0.345426
0.351779
0.357761
0.363265
0.368931
0.375205
0.381581
0.388503
0.388344
0.403666
0.381711
0.495525
0.268742
0.253545
0.186245
0.311135
0.321558
0.326721
0.319195
0.319143
0.31693
0.315833
0.314561
0.313179
0.31225
0.311217
0.310175
0.309466
0.308811
0.308019
0.307437
0.307096
0.306528
0.306246
0.305887
0.305565
0.305493
0.305225
0.304986
0.304947
0.304788
0.3047
0.304594
0.304452
0.304404
0.304304
0.304151
0.304099
0.304048
0.303869
0.303824
0.303791
0.303768
0.303763
0.303843
0.303972
0.304172
0.304516
0.304856
0.305361
0.305967
0.306591
0.307303
0.308101
0.308891
0.309723
0.310658
0.311621
0.312782
0.314158
0.315761
0.317652
0.319844
0.322245
0.324893
0.327776
0.330907
0.334363
0.338132
0.342269
0.34674
0.351842
0.356948
0.361858
0.366472
0.371153
0.376208
0.381081
0.385227
0.383914
0.394547
0.38307
0.476954
0.268865
0.254571
0.186363
0.34429
0.354666
0.360329
0.353174
0.353316
0.351726
0.350785
0.349494
0.348832
0.347853
0.346831
0.346149
0.345512
0.344825
0.344046
0.34365
0.343082
0.342535
0.342252
0.341678
0.341222
0.341024
0.340548
0.340123
0.339888
0.339368
0.339044
0.338679
0.338173
0.33776
0.33735
0.336777
0.33635
0.335868
0.335256
0.3348
0.334309
0.333797
0.333346
0.332974
0.332594
0.332351
0.332145
0.331975
0.33199
0.331982
0.331994
0.332072
0.332143
0.332202
0.332224
0.332328
0.33249
0.332778
0.333326
0.334099
0.33514
0.336469
0.337953
0.339644
0.341519
0.343571
0.345888
0.348491
0.351406
0.35465
0.358469
0.362268
0.366079
0.369758
0.373367
0.377104
0.380268
0.381691
0.379163
0.386404
0.383628
0.460366
0.267634
0.25791
0.186389
0.381175
0.402983
0.392918
0.400418
0.391961
0.393003
0.391698
0.390614
0.389619
0.389126
0.388238
0.387257
0.386579
0.386017
0.385203
0.384355
0.383999
0.383153
0.382516
0.382002
0.38118
0.380627
0.379966
0.37929
0.378582
0.377889
0.377055
0.376296
0.375552
0.374573
0.373694
0.372844
0.37173
0.370833
0.369804
0.368649
0.36771
0.366637
0.365567
0.364607
0.363641
0.362725
0.361895
0.361077
0.360361
0.359678
0.358994
0.358301
0.357584
0.356826
0.356035
0.355169
0.354365
0.353651
0.353035
0.352719
0.352618
0.352759
0.353172
0.353686
0.354346
0.355154
0.356081
0.357235
0.358651
0.360341
0.362361
0.364906
0.367443
0.370197
0.372938
0.375435
0.377794
0.37912
0.377992
0.374375
0.37941
0.383544
0.442227
0.265742
0.262396
0.186442
0.423581
0.448538
0.437833
0.446967
0.436961
0.438637
0.437044
0.436471
0.435392
0.434602
0.434086
0.433017
0.432226
0.431345
0.430503
0.429643
0.42891
0.42782
0.426851
0.426029
0.425015
0.424076
0.422774
0.421836
0.420627
0.419422
0.418188
0.41672
0.41549
0.413946
0.412492
0.41094
0.409249
0.407717
0.406008
0.40422
0.402571
0.400892
0.399113
0.397469
0.395818
0.394183
0.392664
0.3911
0.389602
0.388082
0.386552
0.38499
0.383307
0.381568
0.379818
0.377974
0.376187
0.374545
0.372982
0.371752
0.370742
0.369929
0.369348
0.368832
0.368418
0.36811
0.367904
0.367886
0.368122
0.368621
0.369436
0.370739
0.372071
0.37381
0.375606
0.37698
0.377928
0.377371
0.373959
0.369516
0.373239
0.382344
0.420865
0.26321
0.267954
0.186428
0.473984
0.50224
0.491234
0.501866
0.490215
0.49185
0.490142
0.489356
0.487821
0.487347
0.486287
0.484769
0.483907
0.482555
0.481297
0.480262
0.47876
0.47731
0.475796
0.474557
0.472929
0.471161
0.469569
0.467841
0.465876
0.464218
0.462093
0.459905
0.458083
0.455735
0.453574
0.451198
0.448802
0.446584
0.444067
0.441471
0.439182
0.436706
0.43414
0.431773
0.429368
0.42686
0.424581
0.422198
0.419714
0.417331
0.414809
0.412262
0.409548
0.406799
0.404049
0.40118
0.398445
0.395856
0.393345
0.391177
0.389214
0.387394
0.385753
0.384153
0.382642
0.381192
0.379833
0.378674
0.377745
0.377084
0.376743
0.376858
0.377091
0.377878
0.378705
0.378904
0.37838
0.375906
0.370538
0.365723
0.369085
0.38129
0.399647
0.260154
0.275306
0.186159
0.517776
0.546917
0.53496
0.546861
0.533886
0.535765
0.534657
0.533026
0.531815
0.5314
0.529939
0.528438
0.527428
0.526199
0.524536
0.523358
0.521501
0.519796
0.518355
0.516653
0.514525
0.512404
0.510719
0.508616
0.505896
0.503998
0.501447
0.498761
0.496352
0.493591
0.490785
0.487883
0.484903
0.482023
0.478823
0.475612
0.472631
0.469322
0.466047
0.462799
0.459631
0.456172
0.452939
0.449575
0.446061
0.442721
0.43908
0.435535
0.431852
0.428139
0.424441
0.420697
0.417117
0.413609
0.410262
0.407177
0.404244
0.401444
0.398779
0.396144
0.393614
0.391128
0.388738
0.386571
0.384579
0.382864
0.381478
0.380496
0.379682
0.379515
0.379436
0.378636
0.3769
0.372887
0.366222
0.361442
0.364421
0.375986
0.37346
0.255629
0.28272
0.184916
0.573674
0.607422
0.594217
0.60869
0.590411
0.592925
0.590291
0.588037
0.587266
0.585972
0.583218
0.581065
0.579298
0.577704
0.575338
0.572839
0.570348
0.568216
0.566243
0.56292
0.560387
0.557679
0.555027
0.552356
0.548697
0.545969
0.542882
0.539616
0.536251
0.532863
0.529589
0.525819
0.522436
0.518813
0.514945
0.511286
0.507562
0.503804
0.499724
0.495832
0.492051
0.487837
0.483811
0.479701
0.475506
0.471269
0.466942
0.462661
0.458298
0.453945
0.449539
0.445215
0.440919
0.436682
0.432613
0.428683
0.424833
0.421082
0.417444
0.413797
0.410262
0.40675
0.403349
0.400163
0.397137
0.394432
0.392074
0.390145
0.38862
0.387814
0.386746
0.384616
0.381133
0.375007
0.367047
0.36326
0.367934
0.378948
0.358885
0.252937
0.296846
0.1828
0.558983
0.579872
0.571679
0.580906
0.572849
0.574546
0.572632
0.571628
0.571895
0.571109
0.569442
0.568084
0.567232
0.566662
0.565158
0.563583
0.562256
0.560987
0.559877
0.557528
0.555897
0.5544
0.552473
0.550484
0.548001
0.545864
0.543418
0.540973
0.538138
0.535232
0.532418
0.528975
0.525856
0.52224
0.518501
0.514691
0.510731
0.506676
0.502162
0.497916
0.493416
0.488784
0.484245
0.479686
0.475107
0.470556
0.466217
0.461814
0.457533
0.453283
0.44893
0.44463
0.440203
0.435807
0.431405
0.42708
0.422847
0.418731
0.414827
0.41099
0.407312
0.403674
0.400123
0.396705
0.393405
0.390362
0.387558
0.385032
0.382633
0.380891
0.379478
0.377447
0.374369
0.368981
0.362071
0.359077
0.361232
0.361607
0.325764
0.24603
0.292028
0.174395
0.641467
0.637702
0.641447
0.634209
0.630941
0.629828
0.627996
0.626676
0.624662
0.62255
0.621256
0.619217
0.617184
0.615075
0.613037
0.61108
0.608707
0.606491
0.604242
0.601734
0.599482
0.596871
0.594453
0.591881
0.589122
0.58633
0.583535
0.58075
0.577642
0.574678
0.571528
0.568267
0.565077
0.561574
0.558167
0.554531
0.550894
0.54717
0.543322
0.539604
0.535705
0.53191
0.528187
0.524536
0.520877
0.517387
0.513951
0.510418
0.506892
0.503142
0.49923
0.49509
0.490694
0.486224
0.481581
0.476938
0.472228
0.467533
0.462871
0.458062
0.453254
0.448356
0.443486
0.438715
0.434091
0.429839
0.425944
0.422562
0.420685
0.419925
0.417223
0.411769
0.403666
0.392214
0.38234
0.383528
0.395152
0.391088
0.329228
0.266349
0.306663
0.17375
)
;

boundaryField
{
    inlet
    {
        type            calculated;
        value           nonuniform List<scalar> 
23
(
0.0972131
0.0974566
0.0976941
0.0979263
0.0981584
0.0983959
0.0986456
0.0989133
0.0992063
0.0995319
0.0998996
0.100308
0.100782
0.101535
0.102178
0.10298
0.104005
0.105297
0.106916
0.108918
0.111451
0.113535
0.117791
)
;
    }
    outlet
    {
        type            calculated;
        value           nonuniform List<scalar> 
82
(
0.718499
0.719143
0.711342
0.707294
0.702324
0.701089
0.698678
0.697112
0.694428
0.691598
0.690126
0.687469
0.684811
0.682075
0.679449
0.676985
0.673865
0.671007
0.668134
0.664835
0.661987
0.658599
0.655515
0.652227
0.648665
0.645093
0.641537
0.638052
0.634093
0.630407
0.626496
0.62245
0.618592
0.614301
0.610233
0.605885
0.601595
0.597244
0.592754
0.588525
0.584045
0.57975
0.575571
0.571494
0.567373
0.563465
0.559597
0.555528
0.55144
0.547005
0.542358
0.537432
0.532215
0.526983
0.521576
0.5162
0.510699
0.505125
0.499463
0.493441
0.487306
0.480992
0.474721
0.468631
0.462787
0.4575
0.452808
0.449027
0.447554
0.447381
0.443981
0.436396
0.424801
0.408952
0.396034
0.398359
0.418116
0.422269
0.347601
0.271502
0.340054
0.182451
)
;
    }
    walls
    {
        type            calculated;
        value           nonuniform List<scalar> 0();
    }
    frontAndBack
    {
        type            empty;
    }
    procBoundary3to2
    {
        type            processor;
        value           nonuniform List<scalar> 
88
(
0.256365
0.183619
0.537022
0.269548
0.269548
0.530656
0.413941
0.413941
0.380927
0.407175
0.421729
0.421729
0.315879
0.328703
0.340471
0.352562
0.366563
0.366563
0.264245
0.273326
0.283373
0.294301
0.306281
0.306281
0.223886
0.229195
0.234845
0.240831
0.24717
0.253923
0.261218
0.261218
0.188966
0.191464
0.194111
0.196912
0.199875
0.203002
0.206302
0.209786
0.213468
0.217377
0.221541
0.225997
0.225997
0.223412
0.188642
0.183447
0.191476
0.188475
0.185658
0.183358
0.181482
0.179854
0.178435
0.177141
0.176041
0.175121
0.17435
0.17375
0.17329
0.172979
0.17281
0.172761
0.172836
0.173021
0.173312
0.173705
0.174188
0.174753
0.175407
0.176136
0.176939
0.177814
0.178763
0.179786
0.180876
0.182045
0.183293
0.184615
0.186028
0.187526
0.18912
0.19082
0.192623
0.194544
0.196591
0.196591
)
;
    }
    procBoundary3to6
    {
        type            processor;
        value           uniform 1.43143;
    }
    procBoundary3to7
    {
        type            processor;
        value           nonuniform List<scalar> 
16
(
5.81243
0.241301
0.239137
0.268595
0.286834
0.305717
0.332447
0.364661
0.364661
0.404974
0.450306
0.504527
0.549737
0.608246
0.585456
0.632786
)
;
    }
}


// ************************************************************************* //
