/*--------------------------------*- C++ -*----------------------------------*\
| =========                 |                                                 |
| \\      /  F ield         | OpenFOAM: The Open Source CFD Toolbox           |
|  \\    /   O peration     | Version:  2306                                  |
|   \\  /    A nd           | Website:  www.openfoam.com                      |
|    \\/     M anipulation  |                                                 |
\*---------------------------------------------------------------------------*/
FoamFile
{
    version     2.0;
    format      ascii;
    arch        "LSB;label=32;scalar=64";
    class       volScalarField;
    location    "950";
    object      turbulenceProperties:epsilon;
}
// * * * * * * * * * * * * * * * * * * * * * * * * * * * * * * * * * * * * * //

dimensions      [0 2 -3 0 0 0 0];

internalField   nonuniform List<scalar> 
1340
(
3.77902e-10
1.46189e-09
1.88298e-11
3.1628e-10
3.75597e-10
1.46625e-09
2.28792e-11
5.91617e-11
1.80857e-11
3.18671e-10
3.75886e-10
1.46769e-09
7.82579e-11
6.06483e-11
5.33825e-11
2.51696e-11
6.19326e-11
1.76537e-11
3.21259e-10
3.77976e-10
1.4676e-09
1.59971e-10
1.37409e-10
1.20225e-10
1.05262e-10
9.07253e-11
7.80172e-11
6.12458e-11
5.46281e-11
2.77477e-11
6.46598e-11
1.74823e-11
3.23957e-10
3.81279e-10
1.46684e-09
3.15058e-10
2.76913e-10
2.41284e-10
2.08918e-10
1.79443e-10
1.5377e-10
1.33104e-10
1.17327e-10
1.03442e-10
8.98377e-11
7.78521e-11
6.19881e-11
5.60412e-11
3.05976e-11
6.72709e-11
1.75448e-11
3.26531e-10
3.85316e-10
1.46562e-09
5.83537e-10
5.34589e-10
4.87972e-10
4.43952e-10
4.02557e-10
3.63569e-10
3.26573e-10
2.91278e-10
2.5771e-10
2.26182e-10
1.97384e-10
1.70899e-10
1.47642e-10
1.28862e-10
1.14466e-10
1.01651e-10
8.89944e-11
7.7738e-11
6.28594e-11
5.76038e-11
3.3709e-11
6.97096e-11
1.7823e-11
3.28931e-10
3.89705e-10
1.46339e-09
1.06037e-09
1.01231e-09
9.64096e-10
9.15964e-10
8.68184e-10
8.20905e-10
7.74332e-10
7.28608e-10
6.83818e-10
6.39914e-10
5.9688e-10
5.54704e-10
5.13525e-10
4.73552e-10
4.35106e-10
3.98447e-10
3.63626e-10
3.30509e-10
2.98792e-10
2.68294e-10
2.39083e-10
2.11479e-10
1.86107e-10
1.62513e-10
1.41626e-10
1.247e-10
1.11648e-10
9.98876e-11
8.81886e-11
7.767e-11
6.38557e-11
5.93074e-11
3.70725e-11
7.19154e-11
1.83066e-11
3.31064e-10
3.93873e-10
1.46086e-09
9.39629e-10
1.09343e-09
8.58158e-10
9.09616e-10
9.10953e-10
9.94682e-10
1.04129e-09
1.08854e-09
1.13059e-09
1.17104e-09
1.20882e-09
1.24363e-09
1.2744e-09
1.30113e-09
1.32462e-09
1.34348e-09
1.35825e-09
1.36901e-09
1.37588e-09
1.37909e-09
1.3787e-09
1.37495e-09
1.36827e-09
1.35888e-09
1.34697e-09
1.33278e-09
1.31664e-09
1.29881e-09
1.27927e-09
1.2584e-09
1.23617e-09
1.21277e-09
1.18831e-09
1.1628e-09
1.13637e-09
1.10904e-09
1.08077e-09
1.05176e-09
1.02181e-09
9.91049e-10
9.59581e-10
9.27288e-10
8.94278e-10
8.60564e-10
8.26343e-10
7.91613e-10
7.56557e-10
7.21403e-10
6.86242e-10
6.51277e-10
6.16665e-10
5.82427e-10
5.48554e-10
5.15051e-10
4.8188e-10
4.4916e-10
4.17062e-10
3.85855e-10
3.55771e-10
3.26889e-10
2.99134e-10
2.72295e-10
2.46272e-10
2.21164e-10
1.97274e-10
1.75153e-10
1.54331e-10
1.35751e-10
1.20629e-10
1.08876e-10
9.81501e-11
8.74107e-11
7.76402e-11
6.49733e-11
6.11484e-11
4.0679e-11
7.38484e-11
1.89829e-11
3.32697e-10
3.97592e-10
1.45843e-09
1.08829e-09
6.88332e-10
5.75501e-10
6.85923e-10
7.11605e-10
7.58131e-10
7.87211e-10
8.20001e-10
8.49863e-10
8.7866e-10
9.05337e-10
9.29678e-10
9.51449e-10
9.70538e-10
9.87171e-10
1.00066e-09
1.01141e-09
1.01963e-09
1.02508e-09
1.02801e-09
1.02864e-09
1.02703e-09
1.0234e-09
1.01801e-09
1.0109e-09
1.00231e-09
9.92497e-10
9.81404e-10
9.69264e-10
9.56203e-10
9.42217e-10
9.27461e-10
9.11908e-10
8.9567e-10
8.78741e-10
8.61089e-10
8.4279e-10
8.23817e-10
8.04114e-10
7.83695e-10
7.6256e-10
7.40726e-10
7.18108e-10
6.94758e-10
6.70815e-10
6.46203e-10
6.21135e-10
5.95712e-10
5.70051e-10
5.44322e-10
5.1863e-10
4.9299e-10
4.67399e-10
4.41849e-10
4.16275e-10
3.90763e-10
3.65433e-10
3.40516e-10
3.1621e-10
2.92602e-10
2.6967e-10
2.47277e-10
2.25375e-10
2.04074e-10
1.83654e-10
1.64591e-10
1.46397e-10
1.30041e-10
1.16658e-10
1.06145e-10
9.64325e-11
8.66511e-11
7.76457e-11
6.62064e-11
6.31226e-11
4.45067e-11
7.54779e-11
1.9814e-11
3.34118e-10
4.00417e-10
1.45715e-09
6.28807e-10
4.89016e-10
4.54101e-10
5.42193e-10
5.52706e-10
5.81202e-10
6.01928e-10
6.24569e-10
6.4548e-10
6.65329e-10
6.8337e-10
7.00204e-10
7.15129e-10
7.28217e-10
7.39507e-10
7.48887e-10
7.56339e-10
7.622e-10
7.66198e-10
7.68406e-10
7.69242e-10
7.68623e-10
7.66695e-10
7.63444e-10
7.59269e-10
7.54145e-10
7.48103e-10
7.41315e-10
7.33859e-10
7.25782e-10
7.17134e-10
7.07995e-10
6.98314e-10
6.88178e-10
6.77595e-10
6.66511e-10
6.54938e-10
6.42856e-10
6.30241e-10
6.17017e-10
6.03211e-10
5.88788e-10
5.7364e-10
5.57888e-10
5.41478e-10
5.24415e-10
5.06884e-10
4.889e-10
4.70603e-10
4.52111e-10
4.33488e-10
4.14759e-10
3.95913e-10
3.76891e-10
3.57619e-10
3.38158e-10
3.18577e-10
2.99042e-10
2.79743e-10
2.60777e-10
2.42143e-10
2.23762e-10
2.05615e-10
1.87828e-10
1.70627e-10
1.54408e-10
1.38703e-10
1.24487e-10
1.12765e-10
1.03429e-10
9.47186e-11
8.5893e-11
7.76768e-11
6.75566e-11
6.52344e-11
4.85324e-11
7.68045e-11
2.0805e-11
3.34425e-10
4.02985e-10
1.45795e-09
4.58185e-10
3.91378e-10
3.67685e-10
4.24922e-10
4.29764e-10
4.49515e-10
4.63944e-10
4.79327e-10
4.9339e-10
5.06717e-10
5.18854e-10
5.30073e-10
5.40051e-10
5.48795e-10
5.56346e-10
5.62704e-10
5.6774e-10
5.71755e-10
5.74567e-10
5.76245e-10
5.77044e-10
5.76917e-10
5.75899e-10
5.741e-10
5.71793e-10
5.68725e-10
5.65156e-10
5.61187e-10
5.56713e-10
5.51894e-10
5.467e-10
5.41241e-10
5.35391e-10
5.293e-10
5.22892e-10
5.16141e-10
5.0907e-10
5.01631e-10
4.93765e-10
4.85474e-10
4.76698e-10
4.67394e-10
4.57533e-10
4.4712e-10
4.36101e-10
4.24557e-10
4.12542e-10
4.00099e-10
3.87357e-10
3.74377e-10
3.61223e-10
3.47893e-10
3.34378e-10
3.20547e-10
3.06371e-10
2.91851e-10
2.7697e-10
2.61938e-10
2.46881e-10
2.31872e-10
2.16978e-10
2.02139e-10
1.87331e-10
1.727e-10
1.58415e-10
1.44788e-10
1.3139e-10
1.1918e-10
1.09018e-10
1.00787e-10
9.30433e-11
8.51556e-11
7.77566e-11
6.90256e-11
6.74875e-11
5.26616e-11
7.78612e-11
2.17599e-11
3.34073e-10
4.04047e-10
1.465e-09
3.5868e-10
3.07373e-10
2.87142e-10
3.25742e-10
3.28831e-10
3.42235e-10
3.51764e-10
3.61883e-10
3.70924e-10
3.79698e-10
3.87619e-10
3.94852e-10
4.01415e-10
4.07048e-10
4.1201e-10
4.16279e-10
4.19642e-10
4.22302e-10
4.2433e-10
4.25647e-10
4.26411e-10
4.26576e-10
4.26219e-10
4.25472e-10
4.24292e-10
4.22704e-10
4.20945e-10
4.18839e-10
4.16414e-10
4.13786e-10
4.11109e-10
4.08141e-10
4.05044e-10
4.01662e-10
3.98159e-10
3.94641e-10
3.90621e-10
3.86444e-10
3.82021e-10
3.77288e-10
3.72089e-10
3.66573e-10
3.60577e-10
3.54052e-10
3.47171e-10
3.39737e-10
3.31931e-10
3.23805e-10
3.15339e-10
3.0673e-10
2.97909e-10
2.88891e-10
2.79705e-10
2.70125e-10
2.60121e-10
2.49735e-10
2.38842e-10
2.27622e-10
2.16263e-10
2.04727e-10
1.93153e-10
1.81536e-10
1.69787e-10
1.58067e-10
1.46505e-10
1.35335e-10
1.24134e-10
1.1387e-10
1.05222e-10
9.80796e-11
9.12994e-11
8.43733e-11
7.78726e-11
7.06359e-11
6.99605e-11
5.70183e-11
7.8629e-11
2.36176e-11
3.29913e-10
4.08259e-10
1.47288e-09
2.62388e-10
2.24851e-10
2.09338e-10
2.34618e-10
2.35684e-10
2.44045e-10
2.49401e-10
2.54821e-10
2.60598e-10
2.65267e-10
2.69708e-10
2.74277e-10
2.77858e-10
2.80953e-10
2.84101e-10
2.86812e-10
2.88485e-10
2.90443e-10
2.91804e-10
2.92795e-10
2.93638e-10
2.93861e-10
2.94183e-10
2.94268e-10
2.93911e-10
2.93575e-10
2.93131e-10
2.92507e-10
2.9179e-10
2.90815e-10
2.90088e-10
2.89209e-10
2.88143e-10
2.86854e-10
2.85864e-10
2.84684e-10
2.83139e-10
2.81531e-10
2.79853e-10
2.77936e-10
2.75602e-10
2.7321e-10
2.70202e-10
2.66974e-10
2.63525e-10
2.59448e-10
2.55248e-10
2.50831e-10
2.46014e-10
2.41239e-10
2.36241e-10
2.31015e-10
2.25746e-10
2.19994e-10
2.13786e-10
2.07193e-10
2.00066e-10
1.92435e-10
1.84609e-10
1.76512e-10
1.68243e-10
1.59854e-10
1.51223e-10
1.42509e-10
1.33763e-10
1.25139e-10
1.16267e-10
1.08097e-10
1.01048e-10
9.50627e-11
8.93564e-11
8.35292e-11
7.80892e-11
7.26762e-11
7.28025e-11
6.23647e-11
7.79943e-11
2.74589e-11
3.17526e-10
4.00827e-10
1.37589e-09
1.76681e-10
1.5486e-10
1.45299e-10
1.59494e-10
1.59596e-10
1.64101e-10
1.66391e-10
1.69097e-10
1.721e-10
1.74156e-10
1.76479e-10
1.78861e-10
1.80504e-10
1.82041e-10
1.83919e-10
1.85315e-10
1.86137e-10
1.8752e-10
1.88213e-10
1.89095e-10
1.89894e-10
1.90072e-10
1.9074e-10
1.91338e-10
1.91436e-10
1.91833e-10
1.92056e-10
1.92321e-10
1.9268e-10
1.92801e-10
1.93054e-10
1.9344e-10
1.93572e-10
1.93699e-10
1.94156e-10
1.94268e-10
1.94353e-10
1.94409e-10
1.9442e-10
1.94214e-10
1.93881e-10
1.93369e-10
1.92496e-10
1.91636e-10
1.9037e-10
1.88866e-10
1.87332e-10
1.85598e-10
1.83681e-10
1.81808e-10
1.79858e-10
1.77698e-10
1.75508e-10
1.72912e-10
1.69899e-10
1.66469e-10
1.62539e-10
1.58125e-10
1.53465e-10
1.48525e-10
1.43372e-10
1.38026e-10
1.32413e-10
1.26612e-10
1.20607e-10
1.1451e-10
1.08016e-10
1.01971e-10
9.65502e-11
9.17788e-11
8.72367e-11
8.26438e-11
7.85014e-11
7.51833e-11
7.62241e-11
6.83345e-11
7.68938e-11
3.19934e-11
3.16965e-10
3.94408e-10
1.37235e-09
1.17833e-10
1.04636e-10
9.821e-11
1.06414e-10
1.06242e-10
1.08176e-10
1.09341e-10
1.10965e-10
1.11809e-10
1.13072e-10
1.1441e-10
1.15315e-10
1.16167e-10
1.17094e-10
1.18158e-10
1.18704e-10
1.19491e-10
1.20256e-10
1.20654e-10
1.21466e-10
1.22117e-10
1.224e-10
1.23085e-10
1.23702e-10
1.24043e-10
1.24804e-10
1.25282e-10
1.25823e-10
1.26577e-10
1.27196e-10
1.27815e-10
1.28686e-10
1.2934e-10
1.30083e-10
1.31035e-10
1.31749e-10
1.32524e-10
1.33336e-10
1.3406e-10
1.34658e-10
1.35273e-10
1.35668e-10
1.36003e-10
1.36281e-10
1.36256e-10
1.36266e-10
1.36246e-10
1.36117e-10
1.35998e-10
1.359e-10
1.35862e-10
1.35688e-10
1.3542e-10
1.34948e-10
1.3406e-10
1.32821e-10
1.31175e-10
1.29114e-10
1.26861e-10
1.24356e-10
1.2165e-10
1.18774e-10
1.15628e-10
1.12218e-10
1.08546e-10
1.04633e-10
1.0025e-10
9.61127e-11
9.21739e-11
8.85613e-11
8.51871e-11
8.18627e-11
7.9177e-11
7.80105e-11
8.01194e-11
7.42806e-11
7.64481e-11
3.68618e-11
3.22858e-10
3.74386e-10
1.37156e-09
7.84236e-11
6.27763e-11
6.94602e-11
6.43999e-11
7.01401e-11
6.93991e-11
7.03282e-11
7.11121e-11
7.18411e-11
7.22058e-11
7.28682e-11
7.36095e-11
7.41265e-11
7.45592e-11
7.51915e-11
7.58571e-11
7.61384e-11
7.68126e-11
7.73254e-11
7.77428e-11
7.84152e-11
7.88713e-11
7.94214e-11
7.99886e-11
8.05885e-11
8.11814e-11
8.19013e-11
8.25639e-11
8.322e-11
8.40929e-11
8.48862e-11
8.56621e-11
8.66931e-11
8.75344e-11
8.85124e-11
8.9626e-11
9.05445e-11
9.16077e-11
9.26844e-11
9.36636e-11
9.46621e-11
9.56211e-11
9.65008e-11
9.73767e-11
9.81521e-11
9.88993e-11
9.96539e-11
1.00427e-10
1.01233e-10
1.02094e-10
1.03004e-10
1.0401e-10
1.04953e-10
1.05801e-10
1.06539e-10
1.06919e-10
1.07039e-10
1.06866e-10
1.06367e-10
1.05751e-10
1.04967e-10
1.04018e-10
1.02944e-10
1.01624e-10
1.00034e-10
9.81747e-11
9.60089e-11
9.33615e-11
9.08134e-11
8.81419e-11
8.55794e-11
8.33265e-11
8.1268e-11
8.01428e-11
8.11122e-11
8.43e-11
7.99123e-11
7.65149e-11
4.32947e-11
3.32171e-10
3.49433e-10
1.36994e-09
5.14265e-11
4.09002e-11
4.50495e-11
4.1478e-11
4.54101e-11
4.47201e-11
4.53754e-11
4.56139e-11
4.60678e-11
4.64037e-11
4.66246e-11
4.70867e-11
4.74323e-11
4.78207e-11
4.8196e-11
4.85829e-11
4.89157e-11
4.94161e-11
4.98662e-11
5.02523e-11
5.07335e-11
5.11838e-11
5.18171e-11
5.22797e-11
5.28832e-11
5.34933e-11
5.41271e-11
5.48938e-11
5.55461e-11
5.63795e-11
5.71784e-11
5.80465e-11
5.90114e-11
5.99028e-11
6.09178e-11
6.20022e-11
6.30235e-11
6.4086e-11
6.52357e-11
6.63206e-11
6.74335e-11
6.85589e-11
6.96255e-11
7.07455e-11
7.18394e-11
7.29712e-11
7.41322e-11
7.5342e-11
7.66732e-11
7.80788e-11
7.95263e-11
8.10878e-11
8.26374e-11
8.40944e-11
8.55103e-11
8.66458e-11
8.75925e-11
8.83633e-11
8.89213e-11
8.94212e-11
8.98265e-11
9.01302e-11
9.03363e-11
9.03585e-11
9.01311e-11
8.96485e-11
8.88637e-11
8.76254e-11
8.63792e-11
8.4784e-11
8.31753e-11
8.19705e-11
8.11545e-11
8.1642e-11
8.46724e-11
8.88256e-11
8.53309e-11
7.74811e-11
5.27809e-11
3.45163e-10
3.21333e-10
1.37032e-09
3.27987e-11
2.60167e-11
2.84281e-11
2.60942e-11
2.86651e-11
2.82859e-11
2.86822e-11
2.8867e-11
2.92319e-11
2.93458e-11
2.96025e-11
2.9975e-11
3.01891e-11
3.05289e-11
3.08494e-11
3.11161e-11
3.15083e-11
3.18929e-11
3.23006e-11
3.26392e-11
3.30909e-11
3.35904e-11
3.40482e-11
3.4554e-11
3.51404e-11
3.56453e-11
3.63051e-11
3.70011e-11
3.75929e-11
3.83734e-11
3.91097e-11
3.99401e-11
4.07996e-11
4.16158e-11
4.25672e-11
4.3577e-11
4.44922e-11
4.55097e-11
4.65949e-11
4.76244e-11
4.87003e-11
4.98547e-11
5.09335e-11
5.2093e-11
5.33365e-11
5.45647e-11
5.59037e-11
5.72973e-11
5.88307e-11
6.04356e-11
6.20964e-11
6.38908e-11
6.56611e-11
6.73946e-11
6.91301e-11
7.0674e-11
7.21091e-11
7.34737e-11
7.47327e-11
7.59873e-11
7.71971e-11
7.83809e-11
7.95122e-11
8.04939e-11
8.12928e-11
8.1869e-11
8.21699e-11
8.20722e-11
8.18719e-11
8.11926e-11
8.04864e-11
8.03202e-11
8.07701e-11
8.29257e-11
8.7847e-11
9.25709e-11
8.92388e-11
7.83424e-11
6.49201e-11
3.61697e-10
2.88357e-10
1.37818e-09
2.30315e-11
1.85007e-11
2.02113e-11
1.85082e-11
2.03744e-11
2.00899e-11
2.02571e-11
2.05062e-11
2.06936e-11
2.07582e-11
2.09882e-11
2.12276e-11
2.13906e-11
2.15912e-11
2.18663e-11
2.20639e-11
2.23797e-11
2.26749e-11
2.2928e-11
2.32316e-11
2.36183e-11
2.40117e-11
2.43301e-11
2.4735e-11
2.52713e-11
2.56539e-11
2.61799e-11
2.67484e-11
2.72714e-11
2.78867e-11
2.85297e-11
2.92144e-11
2.99391e-11
3.0661e-11
3.14885e-11
3.23474e-11
3.31711e-11
3.41163e-11
3.50852e-11
3.60805e-11
3.70855e-11
3.8223e-11
3.93259e-11
4.0516e-11
4.18075e-11
4.30831e-11
4.45296e-11
4.59965e-11
4.75851e-11
4.92569e-11
5.09945e-11
5.2833e-11
5.46688e-11
5.65462e-11
5.84126e-11
6.02022e-11
6.19677e-11
6.37148e-11
6.54364e-11
6.71965e-11
6.8943e-11
7.07156e-11
7.24748e-11
7.41169e-11
7.56688e-11
7.70376e-11
7.8167e-11
7.89802e-11
7.9661e-11
7.98018e-11
7.98696e-11
8.05496e-11
8.2049e-11
8.56477e-11
9.20657e-11
9.70376e-11
9.38966e-11
8.28593e-11
8.51433e-11
3.88024e-10
2.59274e-10
1.41556e-09
1.52825e-11
1.21581e-11
1.32757e-11
1.2057e-11
1.36214e-11
1.33917e-11
1.36324e-11
1.38427e-11
1.39155e-11
1.40388e-11
1.4306e-11
1.45192e-11
1.46972e-11
1.486e-11
1.51061e-11
1.53714e-11
1.56418e-11
1.58778e-11
1.61002e-11
1.64838e-11
1.67839e-11
1.71122e-11
1.74417e-11
1.77815e-11
1.82606e-11
1.86283e-11
1.90556e-11
1.9521e-11
2.00156e-11
2.05295e-11
2.10418e-11
2.16518e-11
2.2218e-11
2.28451e-11
2.35392e-11
2.42202e-11
2.49389e-11
2.56912e-11
2.65404e-11
2.73836e-11
2.82349e-11
2.9223e-11
3.0208e-11
3.12565e-11
3.23738e-11
3.35538e-11
3.48144e-11
3.61205e-11
3.7515e-11
3.89743e-11
4.0524e-11
4.21203e-11
4.37848e-11
4.55082e-11
4.72433e-11
4.89993e-11
5.07994e-11
5.26343e-11
5.44948e-11
5.64431e-11
5.84159e-11
6.04626e-11
6.25314e-11
6.45497e-11
6.65436e-11
6.83915e-11
7.00546e-11
7.14532e-11
7.25823e-11
7.31884e-11
7.40014e-11
7.56574e-11
7.84682e-11
8.37317e-11
9.12445e-11
9.51118e-11
9.03614e-11
8.03011e-11
9.98499e-11
4.04833e-10
2.13327e-10
1.48221e-09
1.69541e-11
1.46395e-11
1.54971e-11
1.45354e-11
1.53708e-11
1.51899e-11
1.5394e-11
1.55024e-11
1.54734e-11
1.55588e-11
1.57418e-11
1.58929e-11
1.59886e-11
1.6053e-11
1.62245e-11
1.64066e-11
1.65621e-11
1.67124e-11
1.68453e-11
1.7131e-11
1.73329e-11
1.75208e-11
1.77665e-11
1.80247e-11
1.83535e-11
1.86426e-11
1.89804e-11
1.93259e-11
1.97363e-11
2.01683e-11
2.0598e-11
2.11395e-11
2.16455e-11
2.22512e-11
2.28999e-11
2.35854e-11
2.43255e-11
2.51134e-11
2.60286e-11
2.69279e-11
2.79237e-11
2.89974e-11
3.00997e-11
3.12604e-11
3.24827e-11
3.37575e-11
3.50313e-11
3.63861e-11
3.77665e-11
3.92021e-11
4.07438e-11
4.23417e-11
4.40699e-11
4.5874e-11
4.77747e-11
4.97387e-11
5.17607e-11
5.3827e-11
5.58838e-11
5.8002e-11
6.01283e-11
6.23281e-11
6.45742e-11
6.68319e-11
6.91064e-11
7.12902e-11
7.33793e-11
7.53259e-11
7.72341e-11
7.86574e-11
7.98371e-11
8.1574e-11
8.42982e-11
8.93413e-11
9.63698e-11
9.96239e-11
9.72573e-11
9.68516e-11
1.47097e-10
4.5227e-10
2.27748e-10
1.78924e-09
9.77456e-12
1.00076e-11
9.77577e-12
1.02299e-11
1.04436e-11
1.05176e-11
1.06409e-11
1.07308e-11
1.08699e-11
1.10182e-11
1.11103e-11
1.12574e-11
1.14065e-11
1.15637e-11
1.17183e-11
1.18691e-11
1.20553e-11
1.22325e-11
1.24156e-11
1.26239e-11
1.28146e-11
1.30403e-11
1.32538e-11
1.34857e-11
1.37401e-11
1.40037e-11
1.42739e-11
1.45497e-11
1.48653e-11
1.51743e-11
1.55116e-11
1.58708e-11
1.62322e-11
1.66409e-11
1.7051e-11
1.75026e-11
1.79694e-11
1.84636e-11
1.89922e-11
1.9521e-11
2.00956e-11
2.06751e-11
2.12642e-11
2.18622e-11
2.24829e-11
2.30952e-11
2.37188e-11
2.43818e-11
2.50668e-11
2.5822e-11
2.66402e-11
2.7542e-11
2.85416e-11
2.96055e-11
3.07634e-11
3.19791e-11
3.32747e-11
3.46324e-11
3.60502e-11
3.759e-11
3.92125e-11
4.09564e-11
4.27877e-11
4.46821e-11
4.6619e-11
4.84937e-11
5.0294e-11
5.19249e-11
5.28586e-11
5.32428e-11
5.46377e-11
5.75951e-11
6.23676e-11
6.99863e-11
7.75065e-11
7.6547e-11
6.79212e-11
7.07945e-11
1.41029e-10
3.29285e-10
1.87275e-10
1.81599e-09
)
;

boundaryField
{
    inlet
    {
        type            calculated;
        value           nonuniform List<scalar> 
23
(
2.36904e-08
2.34545e-08
2.32273e-08
2.30077e-08
2.27909e-08
2.25717e-08
2.23439e-08
2.21031e-08
2.18431e-08
2.15587e-08
2.12431e-08
2.0899e-08
2.05086e-08
1.9907e-08
1.9411e-08
1.88131e-08
1.8082e-08
1.72108e-08
1.61918e-08
1.5034e-08
1.3713e-08
1.27338e-08
1.09906e-08
)
;
    }
    outlet
    {
        type            calculated;
        value           nonuniform List<scalar> 
82
(
6.20852e-12
6.18629e-12
6.46237e-12
6.61161e-12
6.80088e-12
6.84895e-12
6.94402e-12
7.00664e-12
7.11563e-12
7.23284e-12
7.29476e-12
7.40825e-12
7.52399e-12
7.64547e-12
7.76438e-12
7.87806e-12
8.02502e-12
8.16265e-12
8.304e-12
8.4701e-12
8.61685e-12
8.79553e-12
8.96229e-12
9.1444e-12
9.34695e-12
9.55569e-12
9.7694e-12
9.98459e-12
1.02363e-11
1.04778e-11
1.0742e-11
1.10241e-11
1.13017e-11
1.16208e-11
1.19338e-11
1.22802e-11
1.26342e-11
1.30065e-11
1.3405e-11
1.37945e-11
1.42227e-11
1.46489e-11
1.50789e-11
1.55138e-11
1.59693e-11
1.64167e-11
1.68752e-11
1.73748e-11
1.78953e-11
1.84823e-11
1.91236e-11
1.9834e-11
2.06229e-11
2.14539e-11
2.23574e-11
2.33036e-11
2.43245e-11
2.54168e-11
2.65899e-11
2.79133e-11
2.93473e-11
3.09206e-11
3.25891e-11
3.43183e-11
3.60871e-11
3.77864e-11
3.93784e-11
4.07227e-11
4.12619e-11
4.13267e-11
4.26087e-11
4.5653e-11
5.0851e-11
5.92122e-11
6.73289e-11
6.57676e-11
5.41835e-11
5.20874e-11
1.13493e-10
3.04989e-10
1.23861e-10
1.49355e-09
)
;
    }
    walls
    {
        type            calculated;
        value           nonuniform List<scalar> 0();
    }
    frontAndBack
    {
        type            empty;
    }
    procBoundary3to2
    {
        type            processor;
        value           nonuniform List<scalar> 
88
(
3.83368e-10
1.4564e-09
1.99023e-11
3.13624e-10
3.13624e-10
2.08761e-11
5.63907e-11
5.63907e-11
7.86171e-11
6.02241e-11
5.23345e-11
5.23345e-11
1.66254e-10
1.41792e-10
1.23185e-10
1.07136e-10
9.1683e-11
9.1683e-11
3.3943e-10
2.9653e-10
2.56669e-10
2.20628e-10
1.88088e-10
1.88088e-10
6.58698e-10
5.99742e-10
5.44061e-10
4.91946e-10
4.43385e-10
3.98064e-10
3.55431e-10
3.55431e-10
1.29815e-09
1.23171e-09
1.16587e-09
1.10093e-09
1.03708e-09
9.74633e-10
9.13746e-10
8.54522e-10
7.97068e-10
7.41246e-10
6.87056e-10
6.34444e-10
6.34444e-10
6.67068e-10
1.34174e-09
1.48057e-09
1.23078e-09
1.31071e-09
1.39345e-09
1.46503e-09
1.52667e-09
1.58257e-09
1.63342e-09
1.68164e-09
1.72401e-09
1.76047e-09
1.79176e-09
1.81662e-09
1.83594e-09
1.84914e-09
1.85638e-09
1.85844e-09
1.85523e-09
1.84725e-09
1.83488e-09
1.81829e-09
1.79822e-09
1.77507e-09
1.74874e-09
1.71994e-09
1.68895e-09
1.65591e-09
1.62105e-09
1.58445e-09
1.54658e-09
1.50723e-09
1.46659e-09
1.42503e-09
1.38223e-09
1.33856e-09
1.29399e-09
1.2485e-09
1.20237e-09
1.15557e-09
1.10818e-09
1.10818e-09
)
;
    }
    procBoundary3to6
    {
        type            processor;
        value           uniform 1.98633e-12;
    }
    procBoundary3to7
    {
        type            processor;
        value           nonuniform List<scalar> 
16
(
1.97144e-14
4.8823e-10
5.18832e-10
3.1843e-10
2.44364e-10
1.8955e-10
1.35558e-10
9.36283e-11
9.36283e-11
6.15514e-11
4.02616e-11
2.55482e-11
1.8124e-11
1.20923e-11
1.40887e-11
1.03224e-11
)
;
    }
}


// ************************************************************************* //
