# p  FACE_DATA 300
# x y z  p
0.29787915 -0.05 0.060005454 11682.876
0.29366024 -0.05 0.059998184 11700.313
0.28948669 -0.05 0.059982824 11719.787
0.28535801 -0.05 0.05995956 11739.131
0.28127374 -0.05 0.05992843 11759.629
0.27723342 -0.05 0.059889544 11779.976
0.27323659 -0.05 0.059843055 11800.888
0.2692828 -0.05 0.059789027 11822.136
0.26537161 -0.05 0.059727601 11843.352
0.26150257 -0.05 0.05965892 11865.033
0.25767524 -0.05 0.059583046 11887.291
0.2538892 -0.05 0.059500074 11909.912
0.25014401 -0.05 0.059410118 11932.904
0.24643926 -0.05 0.059313284 11956.316
0.24277452 -0.05 0.059209674 11980.091
0.23914938 -0.05 0.059099387 12004.177
0.23556344 -0.05 0.058982537 12028.341
0.23201627 -0.05 0.058859254 12052.791
0.2285075 -0.05 0.058729541 12078.228
0.22503671 -0.05 0.058593532 12103.093
0.22160352 -0.05 0.058451379 12128.765
0.21820754 -0.05 0.058303115 12154.622
0.21484838 -0.05 0.058148846 12180.868
0.21152567 -0.05 0.05798866 12207.432
0.20823903 -0.05 0.057822651 12234.436
0.20498809 -0.05 0.057650874 12261.912
0.20177248 -0.05 0.057473468 12289.094
0.19859184 -0.05 0.057290478 12317.388
0.1954458 -0.05 0.057101994 12344.94
0.19233402 -0.05 0.056908168 12373.176
0.18925614 -0.05 0.056708999 12401.926
0.18621181 -0.05 0.056504563 12431.047
0.1832007 -0.05 0.056294919 12460.591
0.18022246 -0.05 0.05608023 12489.59
0.17727675 -0.05 0.055860526 12519.997
0.17436324 -0.05 0.055635849 12549.619
0.1714816 -0.05 0.055406376 12579.695
0.16863151 -0.05 0.055172052 12610.991
0.16581265 -0.05 0.054932944 12641.996
0.16302469 -0.05 0.054689208 12673.52
0.16026733 -0.05 0.054440898 12705.55
0.15754024 -0.05 0.054188056 12738.151
0.15484313 -0.05 0.053930725 12770.907
0.15217569 -0.05 0.053668978 12803.797
0.14953762 -0.05 0.053402889 12837.045
0.14692863 -0.05 0.053132457 12871.012
0.14434842 -0.05 0.052857799 12904.071
0.14179669 -0.05 0.052579044 12938.024
0.13927317 -0.05 0.05229612 12973.449
0.13677757 -0.05 0.052009061 13008.967
0.13430961 -0.05 0.051717985 13044.565
0.13186901 -0.05 0.051422994 13080.09
0.1294555 -0.05 0.05112408 13117.029
0.12706881 -0.05 0.050821224 13154.301
0.12470868 -0.05 0.050514504 13191.698
0.12237483 -0.05 0.05020403 13228.747
0.12006701 -0.05 0.049889836 13267.034
0.11778495 -0.05 0.049571874 13305.985
0.11552842 -0.05 0.049250263 13344.553
0.11329715 -0.05 0.048924992 13384.359
0.1110909 -0.05 0.048596121 13423.633
0.10890943 -0.05 0.048263656 13465.427
0.10675251 -0.05 0.047927554 13506.691
0.10461987 -0.05 0.047587958 13548.043
0.1025113 -0.05 0.047244937 13589.557
0.10042655 -0.05 0.046898432 13633.191
0.098365405 -0.05 0.046548446 13676.928
0.096327639 -0.05 0.046195043 13721.512
0.094313028 -0.05 0.045838237 13766.129
0.092321357 -0.05 0.045478019 13812.133
0.090352417 -0.05 0.04511438 13857.915
0.088405979 -0.05 0.044747421 13904.081
0.086481845 -0.05 0.044377096 13951.782
0.084579815 -0.05 0.044003384 13999.533
0.082699669 -0.05 0.043626385 14047.96
0.080841229 -0.05 0.043246005 14098.258
0.0790043 -0.05 0.042862236 14147.868
0.077188666 -0.05 0.0424752 14198.057
0.07539416 -0.05 0.04208479 14250.052
0.073620599 -0.05 0.041690997 14302.095
0.071867788 -0.05 0.041293877 14355.879
0.070135557 -0.05 0.040893384 14411.045
0.068423743 -0.05 0.040489458 14467.444
0.066732169 -0.05 0.040082112 14523.181
0.065060663 -0.05 0.039671361 14580.267
0.063409062 -0.05 0.039257174 14638.241
0.061777219 -0.05 0.038839488 14698.482
0.060164984 -0.05 0.038418265 14759.024
0.058572196 -0.05 0.037993513 14821.186
0.056998721 -0.05 0.037565159 14884.479
0.055444419 -0.05 0.03713316 14948.643
0.053909142 -0.05 0.036697516 15013.477
0.052392764 -0.05 0.03625817 15081.29
0.050895177 -0.05 0.035815009 15151.291
0.049416244 -0.05 0.035368033 15222.085
0.047955856 -0.05 0.034917167 15293.731
0.046513915 -0.05 0.034462309 15365.439
0.045090302 -0.05 0.034003445 15439.921
0.043684931 -0.05 0.033540468 15519.321
0.042297731 -0.05 0.03307324 15601.739
0.040928604 -0.05 0.032601734 15686.001
0.039577476 -0.05 0.032125845 15773.894
0.038244291 -0.05 0.03164545 15863.904
0.036928981 -0.05 0.031160474 15956.907
0.0356315 -0.05 0.030670795 16053.532
0.03435181 -0.05 0.030176299 16156.851
0.033089918 -0.05 0.029676761 16270.514
0.031845783 -0.05 0.029172106 16391.513
0.030619394 -0.05 0.02866221 16521.788
0.029410776 -0.05 0.028146878 16661.523
0.028219949 -0.05 0.027625962 16812.419
0.027046957 -0.05 0.027099267 16967.843
0.025891857 -0.05 0.026566614 17126.981
0.02475474 -0.05 0.026027768 17291.049
0.023635681 -0.05 0.025482558 17460.747
0.022534817 -0.05 0.024930717 17636.105
0.021452274 -0.05 0.024372036 17815.727
0.020388213 -0.05 0.023806274 18001.773
0.019342865 -0.05 0.023233111 18193.678
0.018316468 -0.05 0.022652259 18395.426
0.017309264 -0.05 0.02206346 18611.254
0.016321577 -0.05 0.021466368 18843.352
0.015353757 -0.05 0.020860645 19085.277
0.014406156 -0.05 0.020245997 19338.928
0.013479274 -0.05 0.019622013 19606.073
0.012573638 -0.05 0.018988323 19890.643
0.0116898 -0.05 0.018344552 20199.801
0.010828378 -0.05 0.017690314 20537.367
0.0099901249 -0.05 0.017025149 20901.052
0.0091759198 -0.05 0.016348644 21286.081
0.008386597 -0.05 0.0156605 21695.767
0.0076231725 -0.05 0.014960218 22132.486
0.0068867853 -0.05 0.014247452 22593.841
0.0061787359 -0.05 0.013521944 23087.232
0.0055003792 -0.05 0.012783302 23611.292
0.0048530826 -0.05 0.012031363 24167.921
0.0042385571 -0.05 0.011266143 24765.703
0.0036585397 -0.05 0.010487553 25407.235
0.0031148319 -0.05 0.0096957287 26083.308
0.0026094399 -0.05 0.0088912322 26786.96
0.0021442246 -0.05 0.0080745628 27514.149
0.0017210465 -0.05 0.0072465895 28260.331
0.0013418093 -0.05 0.0064087151 29023.988
0.0010080919 -0.05 0.0055623679 29791.27
0.00072127228 -0.05 0.0047092571 30550.138
0.00048251081 -0.05 0.0038515496 31293.309
0.00029236329 -0.05 0.0029916287 32003.858
0.0001508317 -0.05 0.0021320102 32665.945
5.7495879e-05 -0.05 0.0012752716 33270.869
1.1394864e-05 -0.05 0.00042397109 33813.227
0.99768066 -0.05 0.00033611804 26527.309
0.99304169 -0.05 0.0010063364 26494.903
0.98840215 -0.05 0.0016726212 26433.549
0.98376207 -0.05 0.0023350721 26379.521
0.97912143 -0.05 0.0029936636 26322.981
0.97448026 -0.05 0.00364841 26267.451
0.96983855 -0.05 0.0042993733 26211.717
0.96519632 -0.05 0.0049465845 26156.191
0.96055356 -0.05 0.0055900577 26100.723
0.95591031 -0.05 0.0062298653 26045.325
0.95126654 -0.05 0.0068660327 25990.054
0.94662227 -0.05 0.0074985225 25934.924
0.94197753 -0.05 0.0081274235 25879.912
0.9373323 -0.05 0.008752761 25825.107
0.93268659 -0.05 0.0093745713 25770.442
0.92804042 -0.05 0.0099928964 25716.018
0.92339378 -0.05 0.010607714 25661.838
0.91874669 -0.05 0.011219031 25607.933
0.91409914 -0.05 0.011826962 25554.205
0.90945116 -0.05 0.012431486 25500.868
0.90480273 -0.05 0.013032571 25447.758
0.90015387 -0.05 0.013630361 25394.942
0.89550457 -0.05 0.014224739 25342.575
0.89085486 -0.05 0.014815813 25290.365
0.88620473 -0.05 0.01540363 25238.649
0.88155418 -0.05 0.0159881 25187.233
0.87690323 -0.05 0.016569356 25136.139
0.87225187 -0.05 0.017147383 25085.417
0.86760011 -0.05 0.017722168 25035.049
0.86294796 -0.05 0.018293719 24985.052
0.85829541 -0.05 0.018862095 24935.35
0.85364248 -0.05 0.019427289 24886.065
0.84898916 -0.05 0.01998931 24837.048
0.84433547 -0.05 0.020548224 24788.405
0.83968139 -0.05 0.021103928 24740.222
0.83502695 -0.05 0.021656533 24692.205
0.83037214 -0.05 0.022206072 24644.635
0.82571697 -0.05 0.022752481 24597.332
0.82106143 -0.05 0.023295768 24550.451
0.81640552 -0.05 0.023835961 24503.772
0.81174928 -0.05 0.024373126 24457.398
0.80709266 -0.05 0.024907211 24411.29
0.80243571 -0.05 0.025438235 24365.451
0.7977784 -0.05 0.025966147 24319.99
0.79312074 -0.05 0.026490982 24274.683
0.78846275 -0.05 0.027012845 24229.567
0.78380442 -0.05 0.027531686 24184.727
0.77914574 -0.05 0.028047403 24140.209
0.77448674 -0.05 0.028560079 24095.75
0.7698274 -0.05 0.029069753 24051.55
0.76516772 -0.05 0.02957633 24007.539
0.7605077 -0.05 0.030079852 23963.631
0.75584737 -0.05 0.030580367 23919.783
0.75118671 -0.05 0.03107785 23876.045
0.74652573 -0.05 0.031572241 23832.406
0.74186441 -0.05 0.032063551 23788.802
0.73720278 -0.05 0.032551782 23745.234
0.73254082 -0.05 0.03303698 23701.586
0.72787854 -0.05 0.033519069 23658.029
0.72321595 -0.05 0.033998064 23614.239
0.71855304 -0.05 0.034473962 23570.495
0.71388981 -0.05 0.03494667 23526.555
0.70922626 -0.05 0.035416302 23482.339
0.7045624 -0.05 0.035882849 23437.846
0.69989823 -0.05 0.036346252 23393.021
0.69523375 -0.05 0.036806454 23347.869
0.69056894 -0.05 0.037263403 23302.287
0.68590382 -0.05 0.037717206 23256.076
0.68123839 -0.05 0.038167801 23209.429
0.67657265 -0.05 0.038615123 23162.025
0.67190661 -0.05 0.039059237 23113.874
0.66724025 -0.05 0.039500049 23064.909
0.66257357 -0.05 0.039937521 23014.978
0.6579066 -0.05 0.040371712 22963.908
0.65323931 -0.05 0.040802591 22911.66
0.64857171 -0.05 0.041230085 22858.067
0.6439038 -0.05 0.041654149 22803.039
0.63923558 -0.05 0.042074786 22746.364
0.63456705 -0.05 0.042492 22687.967
0.62989822 -0.05 0.042905734 22627.672
0.62522907 -0.05 0.043315943 22565.338
0.6205596 -0.05 0.043722625 22500.751
0.61588983 -0.05 0.044125719 22433.798
0.61121975 -0.05 0.044525219 22364.202
0.60654937 -0.05 0.044921074 22291.92
0.60187867 -0.05 0.045313219 22216.658
0.59720766 -0.05 0.045701683 22138.291
0.59253634 -0.05 0.046086399 22056.636
0.58786471 -0.05 0.046467288 21971.506
0.58319277 -0.05 0.046844345 21882.729
0.57852051 -0.05 0.047217535 21790.326
0.57384795 -0.05 0.047586814 21694.159
0.56917507 -0.05 0.047952124 21594.113
0.56450189 -0.05 0.048313436 21489.973
0.55982839 -0.05 0.048670677 21381.736
0.55515457 -0.05 0.04902381 21269.464
0.55048045 -0.05 0.04937281 21153.231
0.54580601 -0.05 0.04971755 21032.854
0.54113126 -0.05 0.050058049 20908.215
0.5364562 -0.05 0.050394263 20779.619
0.53178083 -0.05 0.050726133 20647.128
0.52710515 -0.05 0.051053569 20510.95
0.52242915 -0.05 0.051376464 20370.974
0.51775284 -0.05 0.051694815 20227.758
0.51307623 -0.05 0.052008601 20081.851
0.5083993 -0.05 0.052317708 19933.153
0.50372205 -0.05 0.052622097 19781.504
0.4990445 -0.05 0.052921701 19626.752
0.49436664 -0.05 0.053216429 19468.98
0.48968848 -0.05 0.053506199 19308.87
0.48501001 -0.05 0.053790938 19147.454
0.48033122 -0.05 0.054070626 18986.027
0.47565213 -0.05 0.05434516 18825.829
0.47097274 -0.05 0.054614471 18667.886
0.46629305 -0.05 0.054878504 18512.34
0.46161306 -0.05 0.055137129 18357.454
0.45693276 -0.05 0.055390258 18200.117
0.45225217 -0.05 0.05563783 18029.493
0.44757129 -0.05 0.055879797 17821.502
0.44289011 -0.05 0.056116052 17560.672
0.43820865 -0.05 0.05634646 17234.621
0.43352689 -0.05 0.056570934 16651.325
0.42884485 -0.05 0.056789428 15524.175
0.42416254 -0.05 0.057001839 14096.342
0.41947995 -0.05 0.057208045 12896.089
0.41479707 -0.05 0.057407955 12134.608
0.41011393 -0.05 0.057601449 11755.421
0.40543053 -0.05 0.057788457 11559.72
0.40074687 -0.05 0.057968848 11477.362
0.39606296 -0.05 0.058142512 11439.488
0.3913788 -0.05 0.05830933 11425.495
0.38669439 -0.05 0.058469176 11421.664
0.38200975 -0.05 0.058621944 11421.76
0.37732488 -0.05 0.058767528 11427.403
0.37263978 -0.05 0.058905769 11436.143
0.36795448 -0.05 0.059036526 11446.335
0.36326896 -0.05 0.059159727 11457.494
0.35858325 -0.05 0.059275201 11469.609
0.35389736 -0.05 0.059382803 11482.201
0.34921128 -0.05 0.05948244 11495.339
0.34452504 -0.05 0.059573923 11509.446
0.33983865 -0.05 0.059657062 11524.05
0.33515211 -0.05 0.059731741 11539.097
0.33046544 -0.05 0.059797856 11554.497
0.32577866 -0.05 0.059855197 11570.983
0.32109177 -0.05 0.059903555 11587.833
0.31640481 -0.05 0.059942821 11605.187
0.31171778 -0.05 0.059972784 11622.855
0.30703069 -0.05 0.059993273 11641.155
0.30234357 -0.05 0.060004087 11661.839
