/*--------------------------------*- C++ -*----------------------------------*\
| =========                 |                                                 |
| \\      /  F ield         | OpenFOAM: The Open Source CFD Toolbox           |
|  \\    /   O peration     | Version:  2306                                  |
|   \\  /    A nd           | Website:  www.openfoam.com                      |
|    \\/     M anipulation  |                                                 |
\*---------------------------------------------------------------------------*/
FoamFile
{
    version     2.0;
    format      ascii;
    arch        "LSB;label=32;scalar=64";
    class       volSymmTensorField;
    location    "575";
    object      turbulenceProperties:devReff;
}
// * * * * * * * * * * * * * * * * * * * * * * * * * * * * * * * * * * * * * //

dimensions      [0 2 -2 0 0 0 0];

internalField   nonuniform List<symmTensor> 
1340
(
(8.38889e-05 -7.88943e-05 -3.01098e-21 -8.38202e-05 -1.16602e-21 -6.86695e-08)
(9.39151e-05 -6.41751e-05 2.25994e-20 -9.40055e-05 2.24866e-20 9.04557e-08)
(0.000101278 -4.85545e-05 4.96597e-20 -0.000101244 2.8327e-20 -3.46969e-08)
(0.000106353 -2.95461e-05 -7.91496e-20 -0.000106491 -8.79518e-20 1.38844e-07)
(0.000107683 -8.5611e-06 -1.11368e-19 -0.000107663 -9.45069e-20 -2.01199e-08)
(7.04965e-05 -6.77415e-05 1.04186e-20 -7.04517e-05 9.19051e-21 -4.47809e-08)
(7.89776e-05 -5.54799e-05 2.97711e-20 -7.90425e-05 1.58061e-20 6.48523e-08)
(8.52961e-05 -4.24359e-05 -6.97717e-20 -8.52709e-05 -4.91987e-20 -2.52088e-08)
(8.97939e-05 -2.65892e-05 1.00614e-20 -8.99101e-05 1.79746e-20 1.16169e-07)
(9.12356e-05 -9.01917e-06 1.0532e-19 -9.12079e-05 4.17787e-20 -2.77108e-08)
(8.88811e-05 9.0266e-06 -7.82711e-20 -8.88323e-05 -9.30806e-20 -4.88717e-08)
(5.96089e-05 -5.85706e-05 -5.32585e-21 -5.95724e-05 -4.93922e-21 -3.65039e-08)
(6.68507e-05 -4.8272e-05 -2.22898e-20 -6.68905e-05 -1.48383e-20 3.97791e-08)
(7.231e-05 -3.72852e-05 -3.14889e-21 -7.22882e-05 4.72667e-22 -2.18229e-08)
(7.6315e-05 -2.3955e-05 4.13142e-20 -7.64085e-05 2.71665e-20 9.34747e-08)
(7.78003e-05 -9.11528e-06 -2.49302e-20 -7.77654e-05 -2.00738e-21 -3.49335e-08)
(7.61476e-05 6.17178e-06 9.11852e-20 -7.61051e-05 7.0551e-20 -4.25577e-08)
(7.11877e-05 2.11306e-05 1.51987e-19 -7.11571e-05 6.70347e-20 -3.06011e-08)
(5.06504e-05 -5.0932e-05 6.98022e-21 -5.06238e-05 4.91508e-21 -2.6612e-08)
(5.68924e-05 -4.22195e-05 9.82693e-21 -5.69189e-05 6.86593e-21 2.65399e-08)
(6.16435e-05 -3.29053e-05 2.6159e-20 -6.16241e-05 8.96254e-21 -1.93929e-08)
(6.52202e-05 -2.16055e-05 -7.14162e-20 -6.52986e-05 -4.85336e-20 7.84417e-08)
(6.67093e-05 -8.98486e-06 -3.54432e-20 -6.66702e-05 -2.60632e-20 -3.91226e-08)
(6.55728e-05 4.06094e-06 -8.86535e-20 -6.55382e-05 -5.50132e-20 -3.4539e-08)
(6.16763e-05 1.69204e-05 -1.08864e-19 -6.16575e-05 -2.98335e-20 -1.88294e-08)
(5.49974e-05 2.87604e-05 9.16899e-20 -5.50117e-05 1.74949e-20 1.43617e-08)
(4.32275e-05 -4.45133e-05 7.55745e-21 -4.32042e-05 3.92084e-21 -2.32733e-08)
(4.86454e-05 -3.70888e-05 1.59882e-21 -4.86654e-05 1.0217e-22 1.99741e-08)
(5.28076e-05 -2.91502e-05 -2.13532e-20 -5.27885e-05 -6.13392e-21 -1.90929e-08)
(5.60098e-05 -1.95057e-05 6.58202e-20 -5.6074e-05 4.40152e-20 6.41538e-08)
(5.74716e-05 -8.70588e-06 1.21923e-19 -5.74317e-05 5.54508e-20 -3.98807e-08)
(5.67193e-05 2.4962e-06 2.75106e-21 -5.66916e-05 1.37066e-20 -2.76193e-08)
(5.36348e-05 1.36046e-05 2.32022e-19 -5.36273e-05 9.69815e-20 -7.55723e-09)
(4.81697e-05 2.39169e-05 -6.77789e-20 -4.81823e-05 -6.58855e-20 1.25907e-08)
(4.08601e-05 3.23698e-05 -1.14658e-19 -4.08575e-05 -3.52153e-20 -2.64682e-09)
(3.7033e-05 -3.90675e-05 7.15886e-21 -3.70141e-05 3.36e-21 -1.89697e-08)
(4.17612e-05 -3.27112e-05 -1.28363e-20 -4.17735e-05 -7.55182e-21 1.23009e-08)
(4.54291e-05 -2.59002e-05 -5.04841e-21 -4.54153e-05 -3.44704e-21 -1.38355e-08)
(4.83023e-05 -1.76335e-05 -9.30813e-21 -4.83552e-05 3.47855e-21 5.28967e-08)
(4.97157e-05 -8.33699e-06 9.23538e-20 -4.9679e-05 3.51637e-20 -3.67939e-08)
(4.92518e-05 1.32969e-06 -1.00755e-19 -4.92292e-05 -5.05544e-20 -2.25883e-08)
(4.67956e-05 1.09759e-05 1.05754e-20 -4.67944e-05 7.93899e-21 -1.16869e-09)
(4.22952e-05 1.99847e-05 4.08745e-20 -4.23076e-05 -4.90379e-21 1.24574e-08)
(3.61969e-05 2.74481e-05 -2.91724e-19 -3.61947e-05 -8.1686e-20 -2.20886e-09)
(2.91598e-05 3.29971e-05 7.00385e-20 -2.91504e-05 3.98445e-20 -9.38741e-09)
(3.18315e-05 -3.44107e-05 -1.04074e-20 -3.18177e-05 -3.95896e-21 -1.38018e-08)
(3.59784e-05 -2.89497e-05 8.64464e-21 -3.59847e-05 7.40918e-21 6.2683e-09)
(3.92241e-05 -2.30778e-05 5.81444e-20 -3.92118e-05 2.97483e-20 -1.22971e-08)
(4.18105e-05 -1.59514e-05 1.64448e-20 -4.18554e-05 3.67412e-22 4.49139e-08)
(4.31628e-05 -7.91423e-06 -6.98402e-20 -4.31285e-05 -2.81652e-20 -3.42712e-08)
(4.29133e-05 4.65515e-07 6.50939e-20 -4.2895e-05 3.30471e-20 -1.82192e-08)
(4.09492e-05 8.87365e-06 -1.76682e-20 -4.09524e-05 -4.75578e-21 3.21518e-09)
(3.72223e-05 1.67686e-05 1.62529e-19 -3.72324e-05 6.07356e-20 1.01467e-08)
(3.21033e-05 2.33713e-05 5.33655e-20 -3.21018e-05 2.4595e-20 -1.51249e-09)
(2.61528e-05 2.8354e-05 -3.21915e-20 -2.61438e-05 -1.22234e-20 -8.98494e-09)
(2.74378e-05 -3.04052e-05 1.0671e-21 -2.74278e-05 -1.88158e-22 -1.00653e-08)
(3.1094e-05 -2.56938e-05 -2.63809e-21 -3.10973e-05 -3.54941e-21 3.23783e-09)
(3.3976e-05 -2.06147e-05 -4.96472e-20 -3.39651e-05 -2.81996e-20 -1.09285e-08)
(3.63078e-05 -1.44441e-05 -8.09999e-20 -3.63455e-05 -4.1441e-20 3.77138e-08)
(3.75923e-05 -7.46398e-06 -9.97267e-20 -3.75626e-05 -2.78981e-20 -2.96463e-08)
(3.75028e-05 -1.72384e-07 1.44264e-19 -3.74875e-05 5.32241e-20 -1.53255e-08)
(3.59273e-05 7.18178e-06 -1.3295e-19 -3.59336e-05 -5.58777e-20 6.32485e-09)
(3.28253e-05 1.41205e-05 3.19869e-20 -3.28345e-05 2.59826e-20 9.1526e-09)
(2.85081e-05 1.99712e-05 7.98639e-20 -2.8506e-05 2.49212e-20 -2.08835e-09)
(2.34502e-05 2.44424e-05 5.54859e-20 -2.34436e-05 2.10768e-20 -6.61332e-09)
(1.80068e-05 2.75629e-05 5.24592e-20 -1.80064e-05 1.46899e-20 -4.29813e-10)
(2.37088e-05 -2.69417e-05 1.32886e-20 -2.37006e-05 7.34281e-21 -8.1807e-09)
(2.69456e-05 -2.28609e-05 2.05532e-20 -2.69472e-05 1.11767e-20 1.57402e-09)
(2.95136e-05 -1.84529e-05 5.69509e-20 -2.95036e-05 2.32271e-20 -1.00123e-08)
(3.16203e-05 -1.30896e-05 -1.28513e-20 -3.16511e-05 -6.14815e-21 3.07966e-08)
(3.28322e-05 -7.0046e-06 4.83253e-20 -3.28073e-05 1.03962e-20 -2.48933e-08)
(3.28613e-05 -6.38099e-07 -1.57651e-19 -3.28486e-05 -5.53325e-20 -1.27633e-08)
(3.15958e-05 5.81433e-06 1.36039e-19 -3.1602e-05 7.35436e-20 6.18926e-09)
(2.90017e-05 1.19282e-05 1.84293e-19 -2.90103e-05 4.60732e-20 8.57179e-09)
(2.53445e-05 1.71187e-05 -1.13896e-20 -2.53425e-05 -1.69687e-20 -1.96303e-09)
(2.10252e-05 2.1131e-05 7.77226e-20 -2.10192e-05 -8.76399e-22 -5.95588e-09)
(1.63543e-05 2.39832e-05 5.51702e-20 -1.63534e-05 1.23166e-20 -9.29438e-10)
(2.05308e-05 -2.39306e-05 -1.58928e-20 -2.05245e-05 -6.6479e-21 -6.30097e-09)
(2.34057e-05 -2.03856e-05 1.88825e-20 -2.34057e-05 6.77088e-21 -4.89894e-11)
(2.57011e-05 -1.65468e-05 -5.05585e-20 -2.5692e-05 -2.45575e-20 -9.11323e-09)
(2.76071e-05 -1.18706e-05 -4.13043e-20 -2.76323e-05 -1.56121e-20 2.52031e-08)
(2.87464e-05 -6.55059e-06 -1.09988e-20 -2.87253e-05 5.80608e-21 -2.10659e-08)
(2.88596e-05 -9.72281e-07 1.63906e-19 -2.88506e-05 5.91237e-20 -8.95407e-09)
(2.78449e-05 4.70154e-06 -1.93021e-20 -2.78505e-05 -2.36602e-20 5.59824e-09)
(2.56674e-05 1.01026e-05 -1.30899e-19 -2.56743e-05 -5.95955e-20 6.96165e-09)
(2.25553e-05 1.47157e-05 -1.08879e-19 -2.25537e-05 -4.20156e-20 -1.50564e-09)
(1.88538e-05 1.83129e-05 -3.71149e-19 -1.88488e-05 -8.52507e-20 -4.91116e-09)
(1.48313e-05 2.09118e-05 5.05586e-20 -1.48309e-05 3.02915e-20 -3.45551e-10)
(1.07783e-05 2.25486e-05 2.02971e-19 -1.07759e-05 3.19489e-20 -2.38109e-09)
(1.78124e-05 -2.13e-05 9.98137e-21 -1.78077e-05 4.36613e-21 -4.65478e-09)
(2.03728e-05 -1.82133e-05 3.50498e-21 -2.03719e-05 3.22057e-21 -8.84419e-10)
(2.24297e-05 -1.48608e-05 6.01981e-20 -2.24213e-05 2.69185e-20 -8.39951e-09)
(2.41567e-05 -1.07724e-05 9.39404e-20 -2.41775e-05 3.33341e-20 2.07788e-08)
(2.52252e-05 -6.10802e-06 -3.44448e-20 -2.52069e-05 -2.26673e-20 -1.83227e-08)
(2.53969e-05 -1.20579e-06 -1.3736e-19 -2.53904e-05 -4.89247e-20 -6.47931e-09)
(2.45842e-05 3.79454e-06 2.22752e-20 -2.45897e-05 3.66651e-21 5.50633e-09)
(2.27515e-05 8.57402e-06 -1.55074e-19 -2.27578e-05 -4.07998e-20 6.26064e-09)
(2.00933e-05 1.26793e-05 7.3807e-20 -2.00923e-05 4.40084e-20 -1.0376e-09)
(1.69094e-05 1.59056e-05 1.6146e-19 -1.69055e-05 5.70565e-20 -3.94996e-09)
(1.34335e-05 1.82681e-05 -9.64543e-20 -1.34328e-05 -3.12305e-20 -6.85817e-10)
(9.91861e-06 1.97959e-05 -1.43387e-19 -9.9156e-06 -4.24556e-20 -3.0156e-09)
(1.54786e-05 -1.89938e-05 -1.14503e-20 -1.54751e-05 -3.13472e-21 -3.49254e-09)
(1.7765e-05 -1.62999e-05 3.63536e-20 -1.77634e-05 1.43026e-20 -1.52829e-09)
(1.96123e-05 -1.33647e-05 -1.89885e-20 -1.96048e-05 -8.71998e-21 -7.48012e-09)
(2.11792e-05 -9.78215e-06 -1.46521e-20 -2.11965e-05 -6.19325e-21 1.7231e-08)
(2.21784e-05 -5.68223e-06 -3.25779e-20 -2.2163e-05 -1.56072e-20 -1.5387e-08)
(2.23911e-05 -1.36414e-06 -9.96177e-20 -2.23861e-05 -3.23459e-20 -5.01763e-09)
(2.17412e-05 3.05304e-06 -5.9898e-20 -2.17462e-05 -2.15788e-20 5.01438e-09)
(2.01946e-05 7.29107e-06 -5.7981e-21 -2.01997e-05 1.06063e-20 5.03298e-09)
(1.79169e-05 1.09493e-05 6.85572e-20 -1.79153e-05 3.50908e-20 -1.60154e-09)
(1.51693e-05 1.3843e-05 7.15391e-20 -1.51656e-05 1.81453e-20 -3.70071e-09)
(1.21575e-05 1.59852e-05 1.59504e-19 -1.21573e-05 2.11062e-20 -2.3284e-10)
(9.10215e-06 1.74006e-05 -3.32426e-20 -9.10007e-06 -1.76927e-20 -2.07194e-09)
(1.3469e-05 -1.69645e-05 -8.68369e-21 -1.34669e-05 -4.57906e-21 -2.09968e-09)
(1.55157e-05 -1.46097e-05 -5.31223e-20 -1.55132e-05 -2.03696e-20 -2.4621e-09)
(1.71773e-05 -1.20338e-05 -3.32763e-20 -1.71709e-05 -1.24393e-20 -6.37638e-09)
(1.86006e-05 -8.88769e-06 -2.83835e-20 -1.86152e-05 -1.01177e-20 1.46355e-08)
(1.95331e-05 -5.27583e-06 -2.17471e-20 -1.952e-05 -4.20557e-21 -1.31006e-08)
(1.97731e-05 -1.46446e-06 6.27026e-20 -1.97699e-05 1.18159e-20 -3.26169e-09)
(1.92559e-05 2.44448e-06 -2.80429e-19 -1.92605e-05 -8.51545e-20 4.61971e-09)
(1.79477e-05 6.20843e-06 1.93682e-20 -1.79524e-05 3.76953e-20 4.6373e-09)
(1.59905e-05 9.4712e-06 3.71335e-19 -1.59896e-05 9.36947e-20 -8.66661e-10)
(1.3613e-05 1.20675e-05 1.1037e-19 -1.36098e-05 2.32478e-21 -3.16225e-09)
(1.09951e-05 1.40083e-05 -2.79683e-19 -1.09945e-05 -8.28384e-20 -5.99462e-10)
(8.33266e-06 1.53137e-05 -2.10117e-19 -8.3302e-06 -3.00469e-20 -2.45611e-09)
(5.77429e-06 1.60578e-05 4.10811e-20 -5.77103e-06 2.39403e-20 -3.26346e-09)
(1.17338e-05 -1.51741e-05 9.55639e-21 -1.17324e-05 3.14133e-21 -1.41729e-09)
(1.35702e-05 -1.31111e-05 -1.52487e-20 -1.35677e-05 -4.07901e-21 -2.48184e-09)
(1.50674e-05 -1.08475e-05 5.73721e-20 -1.50612e-05 1.62342e-20 -6.1413e-09)
(1.63614e-05 -8.07842e-06 -1.4481e-19 -1.63738e-05 -5.49559e-20 1.24182e-08)
(1.72297e-05 -4.89032e-06 -1.09817e-19 -1.72185e-05 -3.2837e-20 -1.12468e-08)
(1.74869e-05 -1.51982e-06 -5.79844e-20 -1.74846e-05 -9.8917e-21 -2.32351e-09)
(1.70776e-05 1.94517e-06 1.32703e-19 -1.70818e-05 5.74745e-20 4.20035e-09)
(1.59687e-05 5.29316e-06 1.72624e-19 -1.59724e-05 2.96154e-20 3.61074e-09)
(1.42827e-05 8.20637e-06 -1.82877e-19 -1.42816e-05 -6.00089e-20 -1.06816e-09)
(1.22198e-05 1.0536e-05 1.4877e-19 -1.22174e-05 3.57086e-20 -2.42081e-09)
(9.94e-06 1.22915e-05 1.45536e-20 -9.93981e-06 1.65614e-20 -1.95772e-10)
(7.61575e-06 1.34897e-05 -5.27431e-20 -7.61387e-06 8.95269e-21 -1.88004e-09)
(5.37792e-06 1.41957e-05 1.78294e-19 -5.37507e-06 4.13612e-20 -2.84495e-09)
(1.02324e-05 -1.35899e-05 -9.79284e-21 -1.02312e-05 -4.08418e-21 -1.23702e-09)
(1.18827e-05 -1.1779e-05 -2.11133e-20 -1.18805e-05 -6.16763e-21 -2.23913e-09)
(1.32339e-05 -9.7878e-06 3.95385e-20 -1.32284e-05 1.64504e-20 -5.47598e-09)
(1.44115e-05 -7.34603e-06 7.24612e-20 -1.44218e-05 2.65244e-20 1.02956e-08)
(1.52191e-05 -4.52644e-06 1.15557e-19 -1.52094e-05 3.93996e-20 -9.70209e-09)
(1.54856e-05 -1.54187e-06 7.74812e-20 -1.54839e-05 2.90898e-20 -1.69392e-09)
(1.51641e-05 1.5348e-06 2.28972e-19 -1.5168e-05 4.98768e-20 3.91335e-09)
(1.42229e-05 4.51549e-06 -3.43233e-19 -1.42264e-05 -9.64566e-20 3.44529e-09)
(1.27672e-05 7.11909e-06 3.02331e-20 -1.27663e-05 1.55489e-20 -8.92943e-10)
(1.09728e-05 9.21111e-06 -6.47098e-20 -1.09706e-05 -1.01278e-20 -2.19183e-09)
(8.98286e-06 1.07979e-05 1.3218e-19 -8.98232e-06 2.89031e-20 -5.43775e-10)
(6.94961e-06 1.18947e-05 4.89329e-20 -6.94751e-06 6.41612e-21 -2.10374e-09)
(4.98965e-06 1.2558e-05 9.93265e-20 -4.98703e-06 -9.20747e-23 -2.61429e-09)
(3.14223e-06 1.28733e-05 4.56967e-20 -3.1408e-06 -4.03569e-22 -1.43171e-09)
(8.93086e-06 -1.21842e-05 9.68325e-21 -8.93002e-06 3.9838e-21 -8.38252e-10)
(1.04158e-05 -1.05931e-05 3.33265e-20 -1.04134e-05 9.35148e-21 -2.38646e-09)
(1.16372e-05 -8.83825e-06 -7.63641e-20 -1.16324e-05 -2.46013e-20 -4.80908e-09)
(1.27091e-05 -6.68228e-06 2.92215e-20 -1.27181e-05 1.37417e-20 8.99069e-09)
(1.34592e-05 -4.1855e-06 9.45221e-20 -1.3451e-05 2.68302e-20 -8.24594e-09)
(1.37295e-05 -1.53891e-06 -2.35106e-20 -1.37283e-05 -1.39288e-20 -1.19388e-09)
(1.34794e-05 1.1971e-06 -1.23819e-19 -1.34831e-05 -2.86005e-20 3.69258e-09)
(1.268e-05 3.85492e-06 2.71212e-19 -1.26825e-05 7.30824e-20 2.44699e-09)
(1.14203e-05 6.18387e-06 -2.28002e-19 -1.14195e-05 -5.98903e-20 -8.50455e-10)
(9.85699e-06 8.06172e-06 1.86169e-19 -9.85513e-06 4.97925e-20 -1.8666e-09)
(8.1169e-06 9.49501e-06 -7.03729e-20 -8.11666e-06 -3.24645e-20 -2.39035e-10)
(6.33536e-06 1.04963e-05 -7.79942e-20 -6.33363e-06 -1.47888e-20 -1.7293e-09)
(4.61593e-06 1.1115e-05 -1.70979e-19 -4.61368e-06 -2.93148e-20 -2.25171e-09)
(2.99434e-06 1.14272e-05 1.77292e-20 -2.99282e-06 5.54694e-21 -1.52028e-09)
(7.8002e-06 -1.0934e-05 -5.3288e-23 -7.79992e-06 -2.66882e-23 -2.85356e-10)
(9.13805e-06 -9.53523e-06 8.60613e-21 -9.13578e-06 1.87223e-21 -2.26805e-09)
(1.02432e-05 -7.9868e-06 -4.59907e-20 -1.02388e-05 -1.29923e-20 -4.41579e-09)
(1.12199e-05 -6.07992e-06 8.39618e-20 -1.12276e-05 2.44135e-20 7.67217e-09)
(1.19157e-05 -3.86635e-06 -1.0881e-19 -1.19088e-05 -3.08854e-20 -6.85391e-09)
(1.21854e-05 -1.51639e-06 1.37255e-19 -1.21844e-05 4.44509e-20 -9.43639e-10)
(1.19936e-05 9.19194e-07 1.27203e-19 -1.19971e-05 2.78007e-20 3.51443e-09)
(1.1314e-05 3.29102e-06 -1.2178e-19 -1.13165e-05 -3.91701e-20 2.46349e-09)
(1.02225e-05 5.37574e-06 -1.5604e-20 -1.02218e-05 7.7034e-21 -7.97005e-10)
(8.85785e-06 7.06272e-06 1.73314e-20 -8.85623e-06 -1.39369e-20 -1.62198e-09)
(7.33347e-06 8.35697e-06 -9.04969e-20 -7.3331e-06 -1.47625e-20 -3.71977e-10)
(5.77e-06 9.26935e-06 1.16556e-19 -5.76834e-06 2.65063e-20 -1.65235e-09)
(4.25998e-06 9.84309e-06 7.35747e-20 -4.25794e-06 2.63184e-20 -2.03945e-09)
(2.83563e-06 1.01465e-05 1.02122e-20 -2.83413e-06 -1.18643e-20 -1.49899e-09)
(6.81637e-06 -9.8205e-06 -1.70389e-21 -6.81632e-06 -6.96977e-22 -4.7004e-11)
(8.02347e-06 -8.58935e-06 7.34018e-21 -8.02122e-06 2.14277e-21 -2.24972e-09)
(9.02442e-06 -7.22177e-06 -2.75164e-21 -9.02042e-06 -2.26438e-21 -3.99242e-09)
(9.91458e-06 -5.53344e-06 -4.84698e-20 -9.92126e-06 -1.74865e-20 6.67476e-09)
(1.05594e-05 -3.56856e-06 -1.15217e-19 -1.05536e-05 -3.38566e-20 -5.81161e-09)
(1.08252e-05 -1.47942e-06 -8.01567e-20 -1.08245e-05 -2.37262e-20 -6.95442e-10)
(1.06811e-05 6.90914e-07 -1.36901e-19 -1.06841e-05 -3.76701e-20 3.02924e-09)
(1.0103e-05 2.81013e-06 5.43083e-20 -1.0105e-05 1.737e-20 2.06375e-09)
(9.15609e-06 4.67707e-06 2.67135e-20 -9.15534e-06 2.5724e-21 -7.52057e-10)
(7.96304e-06 6.19284e-06 -2.79803e-19 -7.96165e-06 -5.41433e-20 -1.39225e-09)
(6.62582e-06 7.36089e-06 -5.33617e-20 -6.62549e-06 2.52048e-21 -3.3466e-10)
(5.25179e-06 8.19078e-06 -1.14841e-19 -5.25034e-06 -2.18144e-20 -1.44742e-09)
(3.92414e-06 8.72057e-06 2.01607e-19 -3.92241e-06 2.78332e-20 -1.72702e-09)
(2.67216e-06 9.01131e-06 -2.08612e-19 -2.67104e-06 -3.24057e-20 -1.12138e-09)
(1.50642e-06 9.11133e-06 -8.50449e-20 -1.50586e-06 -8.56564e-21 -5.58802e-10)
(5.95927e-06 -8.82697e-06 1.01158e-20 -5.95934e-06 3.79702e-21 7.34803e-11)
(7.0493e-06 -7.74224e-06 3.50478e-20 -7.04718e-06 1.14123e-20 -2.11529e-09)
(7.95687e-06 -6.53337e-06 6.29677e-20 -7.9531e-06 1.94725e-20 -3.7719e-09)
(8.76868e-06 -5.03701e-06 6.26291e-20 -8.77452e-06 1.91462e-20 5.84652e-09)
(9.36566e-06 -3.29125e-06 9.70788e-20 -9.3607e-06 2.79898e-20 -4.96478e-09)
(9.62515e-06 -1.43193e-06 9.47838e-20 -9.62456e-06 1.84235e-20 -5.91921e-10)
(9.52013e-06 5.03632e-07 -2.41155e-19 -9.52281e-06 -6.29671e-20 2.67982e-09)
(9.02811e-06 2.39841e-06 -1.19795e-19 -9.02994e-06 -1.83833e-20 1.82667e-09)
(8.20566e-06 4.07173e-06 1.66152e-19 -8.20491e-06 4.10449e-20 -7.52555e-10)
(7.16131e-06 5.43396e-06 3.27279e-19 -7.16014e-06 8.04357e-20 -1.17695e-09)
(5.98674e-06 6.48792e-06 1.59163e-19 -5.98643e-06 2.46495e-20 -3.10853e-10)
(4.77793e-06 7.24182e-06 -2.87589e-20 -4.77649e-06 -6.91976e-21 -1.43667e-09)
(3.60905e-06 7.72938e-06 -6.58008e-20 -3.60742e-06 -1.62768e-20 -1.63241e-09)
(2.50761e-06 8.00498e-06 2.48966e-19 -2.50635e-06 4.52304e-20 -1.26407e-09)
(1.48181e-06 8.11284e-06 -4.371e-20 -1.48125e-06 -9.73387e-21 -5.56964e-10)
(5.2117e-06 -7.93877e-06 8.23571e-21 -5.21197e-06 2.17374e-21 2.74074e-10)
(6.19671e-06 -6.9825e-06 -6.9286e-21 -6.19473e-06 -2.86143e-21 -1.97601e-09)
(7.02029e-06 -5.91326e-06 -2.45576e-20 -7.01684e-06 -7.55089e-21 -3.45446e-09)
(7.761e-06 -4.58611e-06 -2.38492e-20 -7.76606e-06 -1.14781e-20 5.05882e-09)
(8.31296e-06 -3.03333e-06 -2.60432e-19 -8.30899e-06 -7.08064e-20 -3.96894e-09)
(8.56458e-06 -1.37751e-06 -4.85172e-20 -8.56408e-06 -4.65834e-21 -5.00695e-10)
(8.4916e-06 3.50484e-07 1.29158e-19 -8.49397e-06 3.77492e-20 2.36596e-09)
(8.07298e-06 2.04575e-06 1.12934e-19 -8.07463e-06 2.31262e-20 1.64285e-09)
(7.35795e-06 3.54624e-06 -2.68841e-19 -7.3573e-06 -5.86089e-20 -6.53447e-10)
(6.44277e-06 4.77094e-06 4.21689e-20 -6.44173e-06 -4.26843e-22 -1.04116e-09)
(5.40993e-06 5.72197e-06 -2.57051e-20 -5.40957e-06 -4.91795e-21 -3.532e-10)
(4.3455e-06 6.40604e-06 5.80927e-21 -4.34426e-06 5.74562e-21 -1.2443e-09)
(3.31576e-06 6.85332e-06 -7.75792e-20 -3.31446e-06 -7.8105e-21 -1.29633e-09)
(2.34572e-06 7.11276e-06 -1.45055e-19 -2.34458e-06 -3.29052e-20 -1.13567e-09)
(1.44311e-06 7.22395e-06 1.12886e-21 -1.44243e-06 8.20892e-22 -6.84236e-10)
(4.55886e-06 -7.14382e-06 -2.30398e-21 -4.55925e-06 -4.96653e-22 3.96111e-10)
(5.44967e-06 -6.30043e-06 2.37867e-20 -5.44775e-06 6.74697e-21 -1.91998e-09)
(6.19749e-06 -5.35394e-06 2.26029e-20 -6.1944e-06 5.96082e-21 -3.08862e-09)
(6.87376e-06 -4.17602e-06 7.97059e-21 -6.87808e-06 1.89065e-21 4.32361e-09)
(7.38374e-06 -2.79366e-06 3.27663e-20 -7.38045e-06 1.45913e-20 -3.28374e-09)
(7.62619e-06 -1.31799e-06 2.12706e-19 -7.62567e-06 5.06596e-20 -5.23965e-10)
(7.5792e-06 2.25829e-07 -1.23636e-19 -7.58134e-06 -3.37404e-20 2.13952e-09)
(7.22343e-06 1.74343e-06 8.46124e-20 -7.22475e-06 3.14076e-20 1.3239e-09)
(6.60117e-06 3.08968e-06 2.96473e-19 -6.60062e-06 5.73124e-20 -5.55263e-10)
(5.79856e-06 4.19096e-06 -2.21518e-19 -5.79767e-06 -4.56655e-20 -8.86691e-10)
(4.88957e-06 5.04877e-06 1.79372e-19 -4.88934e-06 3.63857e-20 -2.24959e-10)
(3.95114e-06 5.66928e-06 1.25652e-19 -3.94992e-06 1.4777e-20 -1.21737e-09)
(3.04346e-06 6.07884e-06 2.1671e-19 -3.04209e-06 3.26722e-20 -1.37452e-09)
(2.1884e-06 6.32155e-06 -2.19377e-20 -2.18764e-06 -3.6893e-21 -7.62082e-10)
(1.39432e-06 6.43293e-06 -9.06151e-20 -1.39363e-06 -1.09332e-20 -6.82644e-10)
(6.65004e-07 6.43976e-06 -1.07385e-19 -6.64253e-07 -9.75853e-21 -7.50878e-10)
(3.98837e-06 -6.4315e-06 2.62089e-21 -3.98884e-06 -1.25231e-24 4.76004e-10)
(4.79454e-06 -5.68727e-06 -5.96614e-20 -4.79267e-06 -1.55611e-20 -1.86691e-09)
(5.47376e-06 -4.84901e-06 7.30404e-20 -5.47103e-06 2.01248e-20 -2.72991e-09)
(6.09137e-06 -3.8029e-06 -2.32003e-20 -6.09522e-06 -4.34422e-21 3.84772e-09)
(6.56246e-06 -2.57162e-06 1.93797e-19 -6.55972e-06 4.80245e-20 -2.7386e-09)
(6.79478e-06 -1.25545e-06 -1.28808e-19 -6.79434e-06 -3.54525e-20 -4.40254e-10)
(6.76894e-06 1.24568e-07 2.02994e-20 -6.77088e-06 1.22678e-20 1.93909e-09)
(6.46692e-06 1.48408e-06 3.12803e-19 -6.46807e-06 5.67391e-20 1.15421e-09)
(5.92521e-06 2.69256e-06 -3.5764e-19 -5.92464e-06 -7.88285e-20 -5.72644e-10)
(5.22066e-06 3.68322e-06 1.46919e-19 -5.21985e-06 3.81132e-20 -8.11667e-10)
(4.42009e-06 4.45694e-06 -2.24201e-19 -4.41977e-06 -5.48011e-20 -3.19102e-10)
(3.59236e-06 5.01932e-06 -2.81168e-19 -3.5914e-06 -5.06402e-20 -9.57732e-10)
(2.79163e-06 5.39341e-06 -1.45331e-19 -2.79053e-06 -2.63149e-20 -1.09756e-09)
(2.03755e-06 5.61938e-06 5.25937e-20 -2.03675e-06 1.58071e-20 -8.01681e-10)
(1.33801e-06 5.72918e-06 1.45779e-19 -1.33744e-06 2.12662e-20 -5.63036e-10)
(6.96757e-07 5.74676e-06 6.53128e-20 -6.96063e-07 1.3496e-20 -6.94074e-10)
(4.21939e-06 -5.13545e-06 -2.10818e-20 -4.21768e-06 -6.05963e-21 -1.7054e-09)
(4.83665e-06 -4.39285e-06 -2.38328e-20 -4.83414e-06 -6.19768e-21 -2.50657e-09)
(5.40083e-06 -3.46315e-06 -9.11629e-21 -5.4042e-06 -4.37596e-21 3.3703e-09)
(5.83573e-06 -2.36584e-06 -1.41314e-19 -5.83348e-06 -3.19431e-20 -2.24343e-09)
(6.05742e-06 -1.19127e-06 2.28231e-19 -6.05704e-06 5.53216e-20 -3.8353e-10)
(6.04871e-06 4.30338e-08 -9.40026e-20 -6.05036e-06 -3.14841e-20 1.65366e-09)
(5.79257e-06 1.26161e-06 -4.0443e-19 -5.79368e-06 -8.67385e-20 1.11103e-09)
(5.32103e-06 2.34658e-06 3.52084e-19 -5.32052e-06 8.82313e-20 -5.07903e-10)
(4.70221e-06 3.23803e-06 5.02993e-20 -4.70159e-06 8.78519e-22 -6.22704e-10)
(3.99674e-06 3.93593e-06 1.09117e-19 -3.99646e-06 3.55429e-20 -2.85457e-10)
(3.26587e-06 4.44558e-06 1.28547e-19 -3.26494e-06 2.83249e-20 -9.26797e-10)
(2.55899e-06 4.78711e-06 -1.23241e-20 -2.55789e-06 7.24701e-21 -1.1043e-09)
(1.89409e-06 4.99647e-06 2.8545e-20 -1.89333e-06 -1.61455e-21 -7.66689e-10)
(1.27759e-06 5.10297e-06 -1.50692e-19 -1.27711e-06 -2.45665e-20 -4.80245e-10)
(7.13133e-07 5.12818e-06 8.21625e-20 -7.12553e-07 8.71732e-21 -5.79794e-10)
(1.91377e-07 5.08875e-06 -1.54665e-19 -1.91193e-07 -2.26575e-20 -1.84107e-10)
(3.71407e-06 -4.63841e-06 -1.51425e-20 -3.71252e-06 -3.42965e-21 -1.55152e-09)
(4.27521e-06 -3.9804e-06 3.87966e-20 -4.27301e-06 8.58956e-21 -2.20517e-09)
(4.79068e-06 -3.15383e-06 -1.16003e-19 -4.79358e-06 -2.91888e-20 2.89811e-09)
(5.19201e-06 -2.17529e-06 3.03588e-20 -5.19019e-06 6.13189e-21 -1.81981e-09)
(5.40286e-06 -1.12663e-06 -2.18033e-19 -5.40251e-06 -5.23712e-20 -3.49948e-10)
(5.40783e-06 -2.20438e-08 5.00243e-20 -5.40931e-06 1.39197e-20 1.48354e-09)
(5.19114e-06 1.07068e-06 1.45794e-20 -5.19204e-06 9.04068e-21 8.99369e-10)
(4.78053e-06 2.04537e-06 -1.82777e-20 -4.78002e-06 -1.23376e-20 -5.08562e-10)
(4.23682e-06 2.8477e-06 -5.18162e-20 -4.2362e-06 -5.37455e-21 -6.20035e-10)
(3.61475e-06 3.47731e-06 2.82512e-19 -3.61445e-06 4.73104e-20 -2.99175e-10)
(2.96932e-06 3.93884e-06 -3.33279e-20 -2.96845e-06 -1.18284e-20 -8.61498e-10)
(2.34508e-06 4.25013e-06 2.52446e-19 -2.34418e-06 3.54151e-20 -9.05121e-10)
(1.7582e-06 4.44371e-06 -8.01852e-20 -1.75755e-06 -1.47081e-20 -6.45625e-10)
(1.21492e-06 4.54595e-06 8.90939e-20 -1.21435e-06 1.91629e-20 -5.74228e-10)
(7.17862e-07 4.57646e-06 -7.11664e-20 -7.17391e-07 -1.36184e-20 -4.70964e-10)
(2.59383e-07 4.55033e-06 1.17484e-19 -2.59153e-07 2.31254e-20 -2.29638e-10)
(3.26978e-06 -4.19041e-06 -7.45426e-20 -3.26832e-06 -1.8783e-20 -1.46098e-09)
(3.78016e-06 -3.60706e-06 -9.31816e-21 -3.77819e-06 4.28468e-22 -1.96695e-09)
(4.25116e-06 -2.87197e-06 1.88253e-19 -4.25368e-06 4.61319e-20 2.52441e-09)
(4.62138e-06 -1.99906e-06 1.62896e-21 -4.61983e-06 -3.38491e-22 -1.54481e-09)
(4.82129e-06 -1.06225e-06 1.36426e-19 -4.82097e-06 3.08275e-20 -3.20247e-10)
(4.83713e-06 -7.33893e-08 -1.58954e-19 -4.83845e-06 -3.79946e-20 1.31478e-09)
(4.65434e-06 9.06751e-07 2.18405e-20 -4.65512e-06 7.98306e-21 7.80562e-10)
(4.29673e-06 1.78271e-06 -6.48541e-20 -4.29633e-06 -9.08554e-21 -3.9996e-10)
(3.81893e-06 2.50494e-06 5.60433e-20 -3.81844e-06 7.4959e-21 -4.88839e-10)
(3.27025e-06 3.07302e-06 -1.50127e-19 -3.27001e-06 -4.14221e-20 -2.45552e-10)
(2.69994e-06 3.49095e-06 -7.96142e-20 -2.69921e-06 -6.76842e-21 -7.31812e-10)
(2.14846e-06 3.77457e-06 -2.8226e-19 -2.14755e-06 -4.75783e-20 -9.0798e-10)
(1.63025e-06 3.95322e-06 8.07959e-20 -1.62973e-06 1.93238e-20 -5.26568e-10)
(1.1514e-06 4.0505e-06 3.89469e-20 -1.15099e-06 2.5528e-21 -4.07274e-10)
(7.13756e-07 4.08449e-06 -2.95547e-20 -7.13315e-07 -4.71233e-22 -4.40782e-10)
(3.10766e-07 4.06895e-06 -3.60692e-20 -3.10592e-07 -4.84371e-21 -1.73689e-10)
(2.87893e-06 -3.78629e-06 5.35772e-20 -2.8776e-06 1.41199e-20 -1.32902e-09)
(3.34319e-06 -3.26905e-06 8.85249e-20 -3.34147e-06 2.03887e-20 -1.71569e-09)
(3.77364e-06 -2.61511e-06 -7.95315e-20 -3.77585e-06 -2.26381e-20 2.21001e-09)
(4.11501e-06 -1.83623e-06 -2.11051e-19 -4.11377e-06 -4.69586e-20 -1.24488e-09)
(4.30403e-06 -9.9905e-07 1.8876e-20 -4.3038e-06 4.20214e-21 -2.27707e-10)
(4.32852e-06 -1.13386e-07 -4.32693e-20 -4.32967e-06 -6.44616e-21 1.15462e-09)
(4.17477e-06 7.66262e-07 1.32716e-19 -4.17547e-06 3.05502e-20 7.00706e-10)
(3.86349e-06 1.55372e-06 1.83372e-19 -3.86304e-06 3.26113e-20 -4.48806e-10)
(3.44353e-06 2.20405e-06 -1.174e-19 -3.44307e-06 -2.26082e-20 -4.67913e-10)
(2.95932e-06 2.71674e-06 -1.76478e-19 -2.95909e-06 -2.26199e-20 -2.29983e-10)
(2.45541e-06 3.09509e-06 3.44152e-19 -2.45469e-06 5.98089e-20 -7.17327e-10)
(1.96798e-06 3.35329e-06 1.75891e-19 -1.96726e-06 3.25966e-20 -7.20187e-10)
(1.5103e-06 3.51777e-06 -5.14583e-20 -1.50977e-06 -1.63803e-20 -5.32252e-10)
(1.08781e-06 3.60998e-06 2.06872e-20 -1.08733e-06 2.2289e-21 -4.77638e-10)
(7.02634e-07 3.64604e-06 1.50092e-19 -7.02194e-07 2.37508e-20 -4.39405e-10)
(3.483e-07 3.63864e-06 1.32478e-19 -3.48185e-07 1.89602e-20 -1.1496e-10)
(2.02887e-08 3.59522e-06 2.0411e-20 -2.00805e-08 1.84492e-21 -2.08209e-10)
(2.53493e-06 -3.42149e-06 -1.28345e-20 -2.53371e-06 -3.74448e-21 -1.21681e-09)
(2.95734e-06 -2.96279e-06 -9.9875e-20 -2.95584e-06 -2.34987e-20 -1.501e-09)
(3.35079e-06 -2.38091e-06 1.47989e-20 -3.3527e-06 7.52437e-21 1.9084e-09)
(3.66549e-06 -1.68568e-06 3.21395e-19 -3.66442e-06 7.00671e-20 -1.07261e-09)
(3.84382e-06 -9.37217e-07 -2.43538e-19 -3.84358e-06 -5.57131e-20 -2.38859e-10)
(3.87494e-06 -1.43803e-07 2.17533e-20 -3.87596e-06 6.97941e-21 1.02063e-09)
(3.74608e-06 6.45806e-07 -1.10242e-20 -3.7467e-06 -3.07823e-21 6.20369e-10)
(3.47527e-06 1.35391e-06 -1.2078e-19 -3.47493e-06 -1.94274e-20 -3.38671e-10)
(3.10621e-06 1.93962e-06 3.34281e-19 -3.1058e-06 5.88766e-20 -4.02898e-10)
(2.67878e-06 2.40252e-06 1.99969e-20 -2.6786e-06 -6.88604e-21 -1.85171e-10)
(2.23345e-06 2.74501e-06 -3.33065e-19 -2.23276e-06 -6.27165e-20 -6.88889e-10)
(1.80237e-06 2.98013e-06 8.60333e-20 -1.8017e-06 1.21331e-20 -6.67767e-10)
(1.39819e-06 3.13135e-06 -1.57361e-19 -1.39774e-06 -2.53421e-20 -4.50015e-10)
(1.02546e-06 3.21823e-06 -1.45372e-19 -1.02514e-06 -2.3746e-20 -3.21084e-10)
(6.86348e-07 3.25532e-06 -6.74851e-20 -6.85926e-07 -1.16142e-20 -4.22131e-10)
(3.74507e-07 3.25429e-06 2.44605e-20 -3.74416e-07 1.48745e-21 -9.14084e-11)
(8.66829e-08 3.22195e-06 1.86093e-20 -8.64534e-08 1.52897e-21 -2.29499e-10)
(2.23208e-06 -3.09206e-06 -3.5513e-20 -2.23093e-06 -7.67223e-21 -1.15222e-09)
(2.61644e-06 -2.68519e-06 6.4162e-20 -2.61514e-06 1.55176e-20 -1.30305e-09)
(2.97609e-06 -2.16734e-06 4.46643e-20 -2.97775e-06 6.01202e-21 1.66005e-09)
(3.26608e-06 -1.5467e-06 -3.4962e-19 -3.2652e-06 -7.58133e-20 -8.81506e-10)
(3.43395e-06 -8.77451e-07 2.53247e-19 -3.43379e-06 5.84099e-20 -1.6823e-10)
(3.47012e-06 -1.6637e-07 -9.08093e-20 -3.47104e-06 -1.6888e-20 9.1785e-10)
(3.36271e-06 5.42765e-07 2.85095e-19 -3.36321e-06 5.76167e-20 4.99436e-10)
(3.1272e-06 1.1797e-06 2.01522e-19 -3.12687e-06 3.01113e-20 -3.28801e-10)
(2.80284e-06 1.70741e-06 -5.0221e-19 -2.80247e-06 -9.73859e-20 -3.7641e-10)
(2.42559e-06 2.12529e-06 -2.30799e-19 -2.42542e-06 -3.39677e-20 -1.70864e-10)
(2.03192e-06 2.43542e-06 9.64016e-20 -2.03131e-06 2.48119e-20 -6.14981e-10)
(1.65072e-06 2.6494e-06 -3.67286e-20 -1.65012e-06 -8.24208e-21 -5.94745e-10)
(1.29352e-06 2.78833e-06 1.14483e-19 -1.29307e-06 2.44023e-20 -4.45609e-10)
(9.64616e-07 2.86997e-06 -9.02602e-20 -9.64242e-07 -1.11371e-20 -3.73964e-10)
(6.65802e-07 2.90741e-06 -3.05993e-20 -6.65468e-07 -4.25527e-21 -3.33504e-10)
(3.91805e-07 2.91121e-06 -2.02345e-20 -3.91675e-07 -5.68813e-22 -1.30053e-10)
(1.38877e-07 2.88778e-06 -1.97189e-20 -1.38735e-07 -3.94257e-21 -1.42621e-10)
(1.96535e-06 -2.79439e-06 3.08109e-21 -1.9643e-06 1.35054e-21 -1.04842e-09)
(2.31509e-06 -2.43351e-06 7.49182e-20 -2.31394e-06 1.63854e-20 -1.14463e-09)
(2.64383e-06 -1.97254e-06 -8.27458e-20 -2.64529e-06 -1.73688e-20 1.46052e-09)
(2.91103e-06 -1.41839e-06 1.88852e-19 -2.91028e-06 4.17764e-20 -7.50594e-10)
(3.06882e-06 -8.19739e-07 -9.74424e-20 -3.06864e-06 -2.21158e-20 -1.73556e-10)
(3.10869e-06 -1.82308e-07 1.48276e-19 -3.10948e-06 2.88525e-20 7.89115e-10)
(3.0196e-06 4.54651e-07 -2.69718e-19 -3.02006e-06 -6.00821e-20 4.67015e-10)
(2.81505e-06 1.02771e-06 -2.94267e-20 -2.81471e-06 -4.81694e-21 -3.40495e-10)
(2.52995e-06 1.50336e-06 4.18376e-19 -2.52963e-06 8.75496e-20 -3.24156e-10)
(2.197e-06 1.88064e-06 -2.29064e-20 -2.19684e-06 1.38631e-23 -1.60432e-10)
(1.84893e-06 2.16153e-06 -6.13876e-20 -1.84838e-06 -9.85382e-21 -5.4738e-10)
(1.51175e-06 2.35629e-06 -1.74455e-20 -1.51125e-06 9.63747e-22 -5.00838e-10)
(1.19615e-06 2.48386e-06 1.51066e-19 -1.19577e-06 2.41279e-20 -3.77588e-10)
(9.05842e-07 2.56031e-06 9.00203e-20 -9.05544e-07 1.41679e-20 -2.98652e-10)
(6.42471e-07 2.5975e-06 -9.48491e-20 -6.42178e-07 -1.54227e-20 -2.92622e-10)
(4.01524e-07 2.60504e-06 1.43553e-19 -4.01396e-07 2.24088e-20 -1.28037e-10)
(1.79348e-07 2.58879e-06 2.48578e-20 -1.79204e-07 3.02411e-21 -1.44548e-10)
(-2.81009e-08 2.55219e-06 -1.21639e-19 2.81742e-08 -1.52784e-20 -7.32426e-11)
(1.73036e-06 -2.52526e-06 -9.03643e-21 -1.72942e-06 -2.85304e-21 -9.36624e-10)
(2.04864e-06 -2.20521e-06 -1.15e-19 -2.04763e-06 -2.51154e-20 -1.00856e-09)
(2.3491e-06 -1.79483e-06 2.67617e-20 -2.35039e-06 6.8906e-21 1.28734e-09)
(2.5952e-06 -1.30002e-06 1.89345e-20 -2.59459e-06 2.07256e-21 -6.1461e-10)