/*--------------------------------*- C++ -*----------------------------------*\
| =========                 |                                                 |
| \\      /  F ield         | OpenFOAM: The Open Source CFD Toolbox           |
|  \\    /   O peration     | Version:  2306                                  |
|   \\  /    A nd           | Website:  www.openfoam.com                      |
|    \\/     M anipulation  |                                                 |
\*---------------------------------------------------------------------------*/
FoamFile
{
    version     2.0;
    format      ascii;
    arch        "LSB;label=32;scalar=64";
    class       volScalarField;
    location    "600";
    object      div(phi);
}
// * * * * * * * * * * * * * * * * * * * * * * * * * * * * * * * * * * * * * //

dimensions      [0 0 -1 0 0 0 0];

internalField   nonuniform List<scalar> 
10720
(
6.8865e-06
-5.25475e-06
3.79685e-06
-3.13078e-06
2.38287e-06
6.07338e-07
3.31241e-06
1.8534e-06
8.3133e-07
-7.02615e-07
-9.03011e-07
-1.15528e-06
-6.7358e-07
-6.18022e-07
-2.54561e-07
-3.07468e-07
-5.46226e-09
-1.63157e-07
3.1836e-07
8.4961e-08
1.07635e-06
1.11605e-06
3.62279e-06
4.93597e-06
6.02624e-06
5.12347e-06
2.73849e-06
1.48469e-06
2.66329e-06
2.12829e-06
-8.53147e-06
1.99216e-05
2.43565e-06
-1.92458e-07
-8.06882e-06
2.73078e-05
7.78144e-05
-2.14371e-05
5.65453e-05
-5.38701e-06
5.77683e-06
4.28137e-08
1.17229e-06
9.4837e-07
-4.42833e-06
-2.01299e-06
-6.97638e-06
-1.42075e-06
-1.5982e-07
-8.7088e-08
4.43104e-07
2.88259e-07
5.98656e-07
3.32482e-07
5.11356e-07
2.703e-07
5.58417e-07
2.27077e-07
6.46077e-07
3.60388e-08
3.64131e-07
-1.03527e-06
-1.62891e-06
-1.79764e-06
-1.75299e-06
-1.23912e-06
-1.18669e-06
1.57712e-06
-2.8121e-06
-1.08021e-06
-1.46223e-06
-1.54108e-06
-2.5657e-06
-2.55034e-06
-4.96977e-07
-1.39461e-05
-9.82281e-06
-1.06346e-05
3.32454e-06
-1.47762e-06
2.39872e-06
-2.33974e-06
2.54636e-06
1.27634e-06
2.56456e-06
1.78219e-06
1.50565e-07
-7.98722e-07
-9.70056e-07
-1.05228e-06
-6.39715e-07
-6.22069e-07
-2.69866e-07
-3.36472e-07
-2.06267e-08
-7.36402e-08
3.36852e-07
2.59486e-07
7.62977e-07
6.81362e-07
1.46004e-06
1.62597e-06
2.28278e-06
2.18108e-06
1.73012e-06
1.13405e-06
1.6761e-06
1.34499e-06
-4.11656e-06
1.01695e-05
2.02712e-06
2.81298e-06
-2.2752e-07
1.01768e-05
7.16059e-05
5.31966e-05
8.28492e-05
-1.32334e-07
2.75764e-06
-1.08812e-06
6.15149e-07
-2.41588e-06
-7.28006e-07
-5.24104e-06
-1.26306e-06
-4.20811e-07
-2.08443e-07
8.16728e-08
2.44124e-07
4.04596e-07
6.18791e-07
5.30033e-07
6.35574e-07
4.51809e-07
5.99336e-07
3.87349e-07
5.70416e-07
1.9164e-07
2.7058e-07
-6.92569e-07
-1.08798e-06
-1.52619e-06
-1.47305e-06
-1.46128e-06
-1.08846e-06
1.08261e-06
-2.18221e-06
-9.24553e-07
-1.41403e-06
-1.41066e-06
-2.62943e-06
-2.4682e-06
2.32216e-07
-1.34757e-05
-1.1841e-05
-1.86674e-05
-6.19984e-06
4.00416e-06
-4.0243e-06
2.94116e-06
-4.97354e-07
2.72472e-06
2.01325e-06
7.81851e-07
-3.04706e-07
-6.99286e-07
-1.22202e-06
-8.66194e-07
-8.92479e-07
-5.19039e-07
-5.0649e-07
-2.87208e-07
-2.53436e-07
-1.48923e-07
-6.19478e-10
5.97091e-08
4.55162e-07
5.48904e-07
1.41296e-06
1.85624e-06
2.64004e-06
2.33819e-06
2.56417e-06
7.99771e-07
1.67333e-06
1.18661e-06
-3.73605e-06
1.07823e-05
1.04309e-06
-1.36671e-06
-6.80151e-06
1.81785e-05
2.59706e-05
-4.12521e-05
1.14484e-05
4.33137e-06
-2.89859e-06
4.31571e-07
-2.52433e-06
-9.46793e-07
-1.71729e-06
-1.2979e-06
-1.24544e-07
1.08571e-08
-6.75795e-08
8.8297e-08
9.15285e-08
4.48763e-07
3.93554e-07
5.5582e-07
3.74712e-07
4.43948e-07
3.72604e-07
3.78406e-07
4.07779e-07
2.29579e-07
1.68511e-07
-6.37969e-07
-1.19726e-06
-1.58812e-06
-1.46031e-06
-1.46978e-06
-9.85724e-07
1.0726e-06
-2.28892e-06
-9.58119e-07
-1.43334e-06
-1.34111e-06
-2.27855e-06
-2.03596e-06
-1.04259e-06
-1.07253e-05
-6.71625e-06
-5.3545e-06
2.91222e-06
-2.59053e-06
1.22139e-06
-8.06227e-07
2.18047e-06
1.71952e-06
1.19065e-06
3.9706e-07
-3.92482e-07
-9.22536e-07
-1.0522e-06
-8.54502e-07
-8.26279e-07
-4.97168e-07
-5.67864e-07
-2.3499e-07
-3.05815e-07
5.48742e-08
8.64653e-08
4.50864e-07
5.1953e-07
8.14089e-07
9.43529e-07
1.32344e-06
1.54877e-06
2.09254e-06
2.01282e-06
1.90952e-06
1.87686e-06
1.28488e-06
-1.78469e-06
6.65636e-06
2.15526e-06
2.83205e-06
7.22943e-07
6.65273e-06
4.76131e-05
3.46077e-05
6.36038e-05
-2.06132e-06
-5.98803e-07
-2.23904e-06
-1.95067e-06
-1.27543e-06
-1.63792e-06
1.37814e-07
2.47892e-07
5.73444e-08
6.56278e-08
-5.45506e-08
1.45068e-07
3.86997e-07
5.28368e-07
6.66739e-07
5.45711e-07
5.85098e-07
4.44252e-07
5.32213e-07
3.70837e-07
3.63054e-07
1.01735e-07
-2.76358e-07
-8.06951e-07
-1.08067e-06
-1.38675e-06
-1.41944e-06
-1.20064e-06
5.88392e-07
-1.74191e-06
-9.74884e-07
-1.40932e-06
-1.44565e-06
-2.63899e-06
-2.45855e-06
-5.58105e-07
-1.35172e-05
-1.2553e-05
-1.99832e-05
1.17336e-06
-2.14237e-07
-2.20722e-07
1.29243e-06
1.13188e-06
1.58162e-06
7.98959e-07
-4.59948e-08
-4.00047e-07
-9.9057e-07
-8.23186e-07
-9.85653e-07
-6.5362e-07
-7.4487e-07
-4.63907e-07
-4.91512e-07
-2.71873e-07
-2.60434e-07
-8.48843e-08
-1.1376e-09
2.26225e-07
4.38964e-07
8.87199e-07
1.54372e-06
2.11918e-06
2.89283e-06
2.62704e-06
2.07209e-06
1.46962e-06
1.41447e-06
-1.72758e-06
7.90839e-06
1.44629e-06
-2.81277e-06
-7.21968e-06
1.89217e-05
1.7602e-05
-4.5006e-05
1.68892e-06
-1.67661e-06
-1.41028e-06
-2.68184e-06
-9.89706e-07
-1.10075e-06
-3.73737e-07
2.09215e-07
3.99356e-07
2.84906e-07
2.53979e-09
-6.53482e-08
1.57081e-07
2.98795e-07
6.23266e-07
5.18516e-07
6.20929e-07
3.96057e-07
4.94527e-07
3.43609e-07
4.37249e-07
2.30025e-07
2.21336e-07
-3.71427e-07
-6.87335e-07
-1.2882e-06
-1.32395e-06
-1.55037e-06
-1.01778e-06
3.80252e-07
-1.42626e-06
-9.4545e-07
-1.16225e-06
-1.25327e-06
-1.84102e-06
-1.67129e-06
-1.72651e-06
-8.84342e-06
-4.2883e-06
-2.65892e-06
-8.7562e-07
3.74743e-08
1.18483e-06
2.02624e-07
1.58006e-06
7.81945e-07
3.35392e-07
2.30559e-08
-6.24898e-07
-7.61138e-07
-8.16931e-07
-7.65379e-07
-6.23868e-07
-6.84438e-07
-4.32916e-07
-4.81053e-07
-1.55092e-07
-1.68983e-07
2.16903e-07
2.33711e-07
5.88115e-07
5.14485e-07
8.16352e-07
7.50894e-07
1.26732e-06
1.59532e-06
2.23739e-06
2.29321e-06
2.60114e-06
1.66775e-06
-4.05475e-07
5.65616e-06
2.88373e-06
3.13995e-06
9.09354e-07
7.91489e-06
4.00112e-05
2.3667e-05
5.00896e-05
-9.40729e-07
-2.1801e-06
-2.04075e-06
-1.02166e-06
-1.74135e-06
-1.4329e-07
4.78202e-07
3.93255e-07
2.17726e-07
-6.53388e-08
-7.59391e-08
5.55443e-08
3.76505e-07
5.78404e-07
6.8172e-07
6.22223e-07
5.13333e-07
5.2528e-07
4.43892e-07
4.23029e-07
3.04788e-07
1.65442e-07
-9.31781e-08
-4.70713e-07
-7.48526e-07
-1.19228e-06
-1.29494e-06
-1.32902e-06
2.2243e-07
-1.4193e-06
-1.07627e-06
-1.32837e-06
-1.36629e-06
-2.34025e-06
-2.17743e-06
-1.38194e-06
-1.17146e-05
-1.20281e-05
-1.88349e-05
-1.9879e-06
1.39317e-06
2.66945e-08
1.16468e-06
6.08333e-07
5.49362e-07
2.4091e-07
-1.59519e-07
-5.37412e-07
-5.80681e-07
-7.37557e-07
-5.63762e-07
-7.44453e-07
-5.63412e-07
-6.62258e-07
-4.19026e-07
-4.16126e-07
-2.23786e-07
-1.87405e-07
-5.05397e-08
4.91026e-08
1.73313e-07
4.43591e-07
8.24942e-07
1.471e-06
2.10558e-06
2.85727e-06
1.97515e-06
2.31961e-06
1.07285e-06
-4.18884e-07
6.10472e-06
7.71024e-07
-3.4427e-06
-8.37332e-06
2.13945e-05
1.61336e-05
-4.86278e-05
4.15297e-07
-7.02501e-07
-2.65609e-06
-5.82474e-07
-1.57849e-06
2.88731e-07
-1.84431e-07
1.25143e-07
4.28149e-07
1.26104e-07
-6.22929e-08
-1.3358e-07
3.69937e-08
3.90183e-07
5.52381e-07
7.15205e-07
5.434e-07
5.57601e-07
4.08475e-07
4.96174e-07
3.05774e-07
4.03339e-07
8.77506e-08
7.10035e-08
-5.68145e-07
-6.14405e-07
-1.37827e-06
-1.16276e-06
-1.42497e-06
3.92378e-07
-1.27325e-06
-7.09665e-07
-1.08169e-06
-9.36566e-07
-1.53798e-06
-1.11261e-06
-1.78746e-06
-5.41316e-06
-2.27728e-06
4.69442e-07
1.18365e-06
7.00335e-07
7.38275e-07
6.7221e-07
4.50534e-07
3.01534e-07
1.59674e-07
-2.1306e-07
-3.61582e-07
-6.03157e-07
-4.57077e-07
-4.73748e-07
-5.8166e-07
-5.22048e-07
-5.9133e-07
-3.35835e-07
-3.47829e-07
-9.91116e-09
-6.95318e-09
3.40789e-07
2.94108e-07
5.38975e-07
3.85517e-07
6.12858e-07
6.09958e-07
1.26009e-06
1.66772e-06
2.44118e-06
2.77333e-06
2.32996e-06
5.31591e-07
4.79215e-06
3.40501e-06
3.15566e-06
1.04592e-06
9.79065e-06
3.65495e-05
1.59167e-05
3.88328e-05
-1.74758e-06
-4.40963e-07
-1.81015e-06
1.98394e-06
-1.21101e-06
-1.32169e-07
1.85078e-07
2.90843e-07
4.06668e-08
-1.57841e-07
-1.91073e-07
5.54097e-08
3.21267e-07
6.36068e-07
6.40657e-07
6.01915e-07
4.99733e-07
5.11074e-07
4.37906e-07
4.18929e-07
2.77366e-07
2.20815e-07
8.57e-09
-2.04772e-07
-4.87702e-07
-8.77309e-07
-1.11109e-06
-1.21304e-06
-5.65724e-08
-1.22863e-06
-1.29721e-06
-1.37607e-06
-1.35395e-06
-2.06668e-06
-1.93374e-06
-1.98331e-06
-9.72426e-06
-1.08767e-05
-1.57249e-05
1.58465e-07
4.01403e-07
1.03559e-06
4.21267e-07
4.52924e-07
2.62391e-07
6.09236e-08
-6.85558e-08
-3.72236e-07
-2.65867e-07
-3.3876e-07
-4.66808e-07
-4.3376e-07
-6.74069e-07
-5.1074e-07
-5.69643e-07
-3.17242e-07
-3.4153e-07
-1.40248e-07
-1.91954e-07
-2.27655e-08
-1.12817e-07
1.39414e-07
1.75396e-07
8.16964e-07
1.09655e-06
2.27673e-06
1.83164e-06
2.44716e-06
1.11853e-06
5.26777e-07
3.59319e-06
7.59075e-07
-4.61919e-06
-7.96402e-06
2.08335e-05
1.33529e-05
-5.1144e-05
-2.57141e-07
1.73227e-07
-1.73158e-06
1.40597e-06
-2.76646e-06
9.54374e-07
-1.44855e-07
-1.84669e-08
1.00757e-08
3.50991e-08
-2.06396e-07
-1.94653e-07
2.32087e-08
3.41327e-07
5.93956e-07
6.1672e-07
5.80101e-07
4.70822e-07
5.18723e-07
3.98883e-07
4.48178e-07
2.56014e-07
3.06495e-07
1.22578e-08
-6.82995e-08
-5.22982e-07
-7.23965e-07
-1.17612e-06
-1.00871e-06
1.62011e-08
-7.84887e-07
-1.00558e-06
-7.90152e-07
-8.77944e-07
-1.07268e-06
-8.47538e-07
-1.86624e-06
-3.25852e-06
-3.12488e-07
2.52111e-06
8.45142e-07
1.58693e-06
7.98621e-07
8.72999e-07
3.06344e-07
1.43642e-07
1.06861e-07
-1.03299e-07
-3.55887e-08
-7.99478e-07
5.46034e-08
-2.41876e-07
-3.93154e-07
-5.33085e-07
-4.58542e-07
-4.64934e-07
-2.40736e-07
-1.6983e-07
6.53662e-08
1.40013e-07
2.88185e-07
2.99651e-07
3.01296e-07
3.15724e-07
3.46891e-07
7.78729e-07
1.1867e-06
2.20624e-06
2.66977e-06
2.97956e-06
1.02617e-06
4.5176e-06
3.95897e-06
3.10932e-06
1.24687e-06
1.00191e-05
2.9202e-05
1.04169e-05
2.97653e-05
-1.14969e-06
-3.37852e-08
-1.92812e-06
1.91072e-06
-1.2077e-06
6.10735e-08
-1.21921e-07
6.2226e-07
-2.17541e-07
-2.69765e-07
-2.04252e-07
2.87237e-09
3.72673e-07
5.25946e-07
6.00277e-07
4.77618e-07
5.15933e-07
4.38737e-07
4.96665e-07
3.33383e-07
3.43859e-07
1.70161e-07
1.58024e-07
-1.05233e-07
-1.9068e-07
-6.29835e-07
-7.32527e-07
-1.00509e-06
-1.42221e-07
-1.15506e-06
-1.41883e-06
-1.55251e-06
-1.44959e-06
-1.87635e-06
-1.81128e-06
-2.51499e-06
-8.1566e-06
-9.67403e-06
-1.2592e-05
9.93846e-07
4.59041e-07
4.60224e-07
7.77103e-08
3.63886e-07
2.10501e-07
1.73901e-07
2.24103e-07
-1.04033e-06
3.12552e-07
-2.13864e-07
6.12637e-08
-3.58437e-07
-4.09582e-07
-6.01274e-07
-4.26972e-07
-4.87729e-07
-2.20058e-07
-3.28929e-07
-8.27609e-08
-2.99572e-07
-3.79544e-08
-3.58448e-07
1.35007e-07
-1.69915e-07
8.47232e-07
7.30239e-07
2.04393e-06
1.41799e-06
1.98341e-06
-4.29096e-07
2.70636e-06
-2.92966e-07
-4.65514e-06
-7.37639e-06
1.76265e-05
1.13441e-05
-4.95975e-05
1.18928e-06
-1.98536e-07
-6.78548e-07
-1.39856e-07
-3.6341e-07
9.18462e-07
-6.54586e-07
6.91796e-07
-4.39488e-08
-1.8989e-07
-3.55653e-07
-2.48815e-07
3.82654e-08
3.06386e-07
5.14267e-07
4.99701e-07
4.80608e-07
4.62199e-07
4.68932e-07
4.62526e-07
3.76035e-07
3.43441e-07
2.36514e-07
2.17596e-07
-1.63905e-08
-8.53293e-08
-5.29463e-07
-5.60874e-07
-8.5561e-07
1.2995e-07
-7.36458e-07
-8.33249e-07
-1.01979e-06
-6.19528e-07
-9.08221e-07
-5.09672e-07
-1.60068e-06
-1.27338e-06
8.44598e-07
3.15601e-06
2.27873e-07
8.9533e-07
1.98342e-07
8.82959e-08
1.67492e-08
2.00019e-07
3.37634e-07
-5.0793e-07
5.19397e-07
-9.2791e-07
3.26119e-07
1.30896e-07
-1.78783e-07
-3.33035e-07
-4.34206e-07
-4.44966e-07
-3.04509e-07
-2.08538e-07
4.66871e-09
5.02357e-08
2.18432e-07
1.63095e-07
2.47156e-07
1.34819e-07
2.34006e-07
4.07915e-07
8.27971e-07
1.70419e-06
2.40389e-06
2.98455e-06
1.45371e-06
4.3303e-06
4.6572e-06
3.27145e-06
1.48996e-06
9.54417e-06
2.18399e-05
6.21016e-06
2.22131e-05
-2.92123e-07
-2.46655e-07
-2.23699e-07
1.14852e-07
-2.54882e-07
3.46857e-07
-2.84945e-07
4.42915e-07
-3.66645e-07
-4.73322e-07
-2.59947e-07
4.52561e-08
2.87635e-07
4.48998e-07
4.13929e-07
4.46401e-07
4.0146e-07
5.1025e-07
3.89122e-07
4.1195e-07
2.44822e-07
2.81236e-07
1.165e-07
1.01957e-07
-1.07453e-07
-2.61987e-07
-4.88611e-07
-5.79717e-07
-2.58529e-07
-9.33478e-07
-1.47976e-06
-1.63439e-06
-1.66225e-06
-1.81947e-06
-1.74677e-06
-2.80865e-06
-6.84584e-06
-8.33294e-06
-9.87657e-06
4.222e-07
2.77005e-07
1.30554e-07
2.84878e-08
1.14903e-07
1.40615e-07
5.717e-08
3.15511e-07
-1.38912e-06
6.20633e-07
1.15608e-07
6.3792e-08
-7.7481e-08
-3.47453e-07
-4.08854e-07
-5.54743e-07
-3.96129e-07
-4.25434e-07
-1.93575e-07
-3.10118e-07
-1.14357e-07
-3.5289e-07
-1.36888e-07
-4.05598e-07
-4.95699e-08
-2.01343e-07
5.62953e-07
6.32399e-07
1.4183e-06
9.12512e-07
-3.75972e-07
1.02198e-06
-6.23482e-07
-5.28017e-06
-6.63229e-06
1.43043e-05
9.40315e-06
-4.47762e-05
1.488e-06
-3.80017e-08
-1.67983e-07
2.25357e-08
-1.08499e-07
1.2283e-07
-1.3253e-07
7.18861e-07
-2.50886e-07
-3.11698e-07
-3.7145e-07
-1.82852e-07
2.84755e-08
2.9073e-07
3.37308e-07
4.00603e-07
3.55521e-07
4.50231e-07
4.35505e-07
4.5703e-07
3.56875e-07
3.35792e-07
2.7264e-07
2.45291e-07
1.5036e-07
6.32188e-08
-1.4846e-07
-2.37511e-07
-3.76313e-07
1.09371e-07
-4.52406e-07
-8.63771e-07
-8.28148e-07
-8.28231e-07
-5.61994e-07
-4.07133e-07
-1.33505e-06
-1.22801e-07
1.68863e-06
3.49364e-06
2.75448e-07
2.9296e-07
9.39925e-08
1.13317e-08
5.04757e-08
2.2835e-07
2.49913e-07
-2.50667e-07
1.49974e-07
-7.0064e-07
1.29967e-07
7.05498e-08
8.71888e-09
-2.14123e-07
-4.2349e-07
-4.11908e-07
-4.44311e-07
-1.65036e-07
-1.6863e-07
1.10963e-07
3.18937e-08
2.42464e-07
6.45284e-08
2.31754e-07
1.1013e-08
3.6958e-07
3.77029e-07
1.3543e-06
1.69263e-06
2.71382e-06
1.46984e-06
4.27453e-06
4.83215e-06
3.73193e-06
1.48353e-06
8.80294e-06
1.54421e-05
3.23141e-06
1.6223e-05
1.65599e-08
-8.83487e-09
-5.84965e-08
1.29863e-07
-9.46086e-08
1.27913e-07
4.25062e-09
3.56128e-07
-4.00998e-07
-2.72907e-07
-1.60788e-07
6.94091e-08
2.32606e-07
2.87771e-07
3.24455e-07
3.2404e-07
4.42844e-07
4.10888e-07
4.38451e-07
3.08158e-07
3.243e-07
2.07637e-07
2.30463e-07
9.87768e-08
8.65514e-08
-1.23069e-07
-1.60809e-07
-3.37914e-07
-1.67362e-07
-8.10968e-07
-1.24212e-06
-1.69169e-06
-1.72977e-06
-1.94506e-06
-1.74858e-06
-3.01733e-06
-5.6955e-06
-7.01049e-06
-7.57309e-06
2.3544e-07
2.38743e-07
1.47209e-08
4.22507e-08
1.3225e-07
1.50919e-07
1.12538e-07
1.48938e-07
-1.84909e-07
-9.3155e-08
2.8211e-07
8.89906e-08
6.24428e-09
-1.9104e-07
-4.22817e-07
-5.24917e-07
-4.99364e-07
-3.84404e-07
-3.11379e-07
-2.01324e-07
-2.36302e-07
-1.74923e-07
-3.11434e-07
-2.20573e-07
-4.27365e-07
-1.91372e-07
-3.02074e-07
3.52172e-07
1.41094e-07
5.62924e-07
-1.10981e-06
2.7637e-08
-1.1341e-06
-6.09768e-06
-6.08415e-06
1.11252e-05
9.48138e-06
-4.01041e-05
2.4943e-06
1.0081e-07
2.43027e-08
6.31509e-08
-7.88648e-08
9.87874e-08
-4.72384e-08
1.04712e-07
-1.04739e-07
-2.99584e-07
-3.16685e-07
-1.09716e-07
8.13006e-08
1.65167e-07
2.71173e-07
2.386e-07
3.66838e-07
3.62227e-07
4.6153e-07
3.56455e-07
3.75582e-07
2.80412e-07
3.08414e-07
2.42242e-07
2.48101e-07
1.62279e-07
1.00202e-07
1.17394e-09
-3.75329e-09
1.13169e-07
-2.15784e-07
-6.09484e-07
-7.90814e-07
-7.01254e-07
-5.80533e-07
-1.98807e-07
-9.92754e-07
8.05884e-07
2.21656e-06
3.00043e-06
2.49336e-07
1.58731e-07
7.87114e-08
1.51332e-09
5.64242e-08
2.50027e-07
2.43481e-07
-1.45685e-07
4.00828e-08
6.35932e-08
-1.47957e-07
3.61311e-07
-6.79152e-08
-1.28762e-07
-3.83103e-07
-5.19771e-07
-3.49952e-07
-3.25148e-07
-4.3382e-08
-8.24524e-08
1.74037e-07
4.48959e-08
2.42085e-07
2.2795e-08
1.8862e-07
5.29214e-08
3.81987e-07
7.09259e-07
1.29815e-06
1.86192e-06
1.59708e-06
3.71259e-06
4.79313e-06
3.7962e-06
1.51284e-06
7.60365e-06
1.08168e-05
1.21216e-06
1.22868e-05
9.69114e-08
6.14344e-08
-2.54726e-09
1.05215e-07
-8.72687e-08
7.65782e-08
-1.6833e-08
-1.0759e-08
-9.7112e-08
-1.76687e-07
-4.08148e-08
6.19994e-08
1.29113e-07
1.89131e-07
2.29745e-07
3.34489e-07
3.74469e-07
4.11883e-07
3.36102e-07
3.37389e-07
2.43574e-07
2.70229e-07
1.73202e-07
2.05408e-07
7.38477e-08
7.46815e-08
-7.90704e-08
-7.01993e-08
-2.05483e-07
-5.273e-07
-1.05728e-06
-1.45548e-06
-1.77958e-06
-1.96729e-06
-1.83664e-06
-2.97488e-06
-4.68412e-06
-5.64935e-06
-5.80296e-06
1.91666e-07
1.86556e-07
-1.67859e-08
4.835e-08
1.51354e-07
1.43814e-07
1.08584e-07
2.11153e-07
-1.7731e-07
-1.21195e-07
2.64885e-07
8.24576e-09
2.70126e-07
-1.35957e-07
-4.24541e-07
-4.72763e-07
-4.96601e-07
-3.19603e-07
-2.97937e-07
-1.56653e-07
-1.89957e-07
-1.26553e-07
-2.34216e-07
-2.16654e-07
-3.96645e-07
-3.57017e-07
-5.24052e-07
-1.72527e-07
-5.02099e-07
-1.37393e-07
-1.584e-06
-4.31043e-07
-1.96091e-06
-5.67315e-06
-6.53564e-06
8.41895e-06
8.94909e-06
-3.46711e-05
2.7806e-06
1.2623e-07
6.95433e-08
6.79157e-08
-6.63301e-08
6.75102e-08
-6.71357e-08
4.57878e-08
-9.44697e-09
-5.95985e-08
-1.54131e-07
-8.77634e-08
-3.09161e-08
1.30726e-07
1.20819e-07
2.61341e-07
2.701e-07
4.02485e-07
3.19603e-07
3.64382e-07
2.62615e-07
3.00406e-07
2.3519e-07
2.75526e-07
2.28327e-07
2.49826e-07
1.57851e-07
1.90638e-07
1.01128e-07
2.16952e-07
-1.12915e-07
-2.51621e-07
-6.45066e-07
-5.2514e-07
-5.4037e-07
4.42844e-08
-5.70109e-07
1.34732e-06
2.23665e-06
2.70258e-06
2.1059e-07
1.12894e-07
7.53736e-08
-2.99951e-09
7.41013e-08
2.43547e-07
2.42594e-07
-1.23875e-07
4.63419e-08
4.7801e-08
-1.0851e-07
1.31622e-07
5.62182e-08
-2.39539e-07
-3.24903e-07
-4.04257e-07
-3.54922e-07
-1.6294e-07
-1.4284e-07
4.34724e-08
4.06665e-08
1.74745e-07
1.09345e-07
1.52771e-07
5.73177e-08
9.84955e-08
1.79757e-07
4.38495e-07
8.21434e-07
1.21396e-06
1.5042e-06
3.09832e-06
4.26286e-06
3.64631e-06
1.41782e-06
6.05125e-06
6.76996e-06
-2.27066e-08
9.25929e-06
1.00996e-07
7.54905e-08
1.3165e-08
8.45498e-08
-8.30198e-08
3.99986e-08
-4.12375e-08
3.77267e-08
4.14334e-10
-5.5789e-08
-1.1285e-07
2.22576e-07
-4.93838e-08
9.47976e-08
2.13938e-07
2.95182e-07
3.37297e-07
3.10812e-07
3.08531e-07
2.42724e-07
2.58933e-07
1.88519e-07
2.19842e-07
1.35237e-07
1.30118e-07
6.2111e-08
2.2498e-08
-3.55828e-08
-1.4271e-07
-3.90159e-07
-7.98286e-07
-1.18991e-06
-1.6521e-06
-1.87199e-06
-1.96151e-06
-2.7804e-06
-3.74798e-06
-4.46569e-06
-4.30167e-06
1.52025e-07
1.61312e-07
-3.28309e-08
6.62567e-08
1.48245e-07
1.30573e-07
9.3619e-08
2.20743e-07
-1.40717e-07
-8.85865e-08
1.04959e-07
6.13829e-08
-2.9382e-09
-4.35603e-08
-2.64905e-07
-3.81729e-07
-2.67405e-07
-2.91022e-07
-1.31395e-07
-2.00484e-07
-3.31624e-08
-1.65466e-07
-4.96349e-08
-2.75958e-07
-1.99944e-07
-5.28149e-07
-3.83046e-07
-6.81267e-07
-4.86513e-07
-9.99792e-07
-1.09416e-06
-1.22388e-06
-1.71362e-06
-5.54685e-06
-6.345e-06
6.18891e-06
8.86806e-06
-3.00847e-05
3.07161e-06
1.1677e-07
7.30039e-08
5.90984e-08
-5.94518e-08
5.27523e-08
-8.41814e-08
4.76634e-08
-1.19823e-08
3.20874e-08
-7.55118e-08
2.06595e-07
-2.71319e-07
-1.5042e-08
4.94671e-08
1.4097e-07
3.03944e-07
2.45801e-07
3.11761e-07
2.14372e-07
2.61765e-07
1.86147e-07
2.36489e-07
1.87735e-07
2.35895e-07
1.60933e-07
2.26635e-07
1.28484e-07
2.29967e-07
9.8864e-08
1.25802e-07
-2.10735e-07
-2.1258e-07
-5.27609e-07
-2.19292e-07
-4.8213e-10
-3.06087e-07
1.55659e-06
2.2351e-06
2.02673e-06
1.73522e-07
8.12416e-08
7.8624e-08
-4.31643e-10
6.27288e-08
2.35602e-07
2.21931e-07
-1.09836e-07
9.04146e-08
2.06258e-08
-1.31318e-07
-3.76008e-08
-6.38501e-08
-1.47919e-07
-2.90706e-07
-2.54985e-07
-1.22325e-07
-9.73411e-08
-5.42405e-08
2.76937e-09
8.31927e-08
1.39059e-07
1.50822e-07
1.31873e-07
8.62773e-08
6.88924e-08
1.48448e-07
2.50169e-07
5.79526e-07
7.81275e-07
1.43677e-06
2.41829e-06
3.59747e-06
3.11687e-06
1.22206e-06
4.42747e-06
3.74944e-06
-9.75572e-07
7.14461e-06
9.03252e-08
6.22951e-08
1.38388e-08
6.69299e-08
-8.56527e-08
2.62178e-08
-6.7354e-08
6.8371e-08
-1.02009e-08
7.84585e-08
-1.46968e-07
2.68184e-07
-2.01534e-07
-2.94943e-08
1.45667e-07
2.15469e-07
2.41382e-07
2.34179e-07
2.06303e-07
2.0896e-07
1.6729e-07
1.87331e-07
1.35687e-07
9.68975e-08
6.69765e-08
4.23767e-08
8.37185e-10
-3.28186e-08
-1.5245e-07
-2.86881e-07
-6.46992e-07
-9.05844e-07
-1.46555e-06
-1.64716e-06
-2.00817e-06
-2.36353e-06
-2.94756e-06
-3.26871e-06
-3.11011e-06
1.25826e-07
1.35907e-07
-3.51097e-08
6.18398e-08
1.42275e-07
1.15125e-07
8.78077e-08
2.33531e-07
-1.12004e-07
-1.32885e-07
8.9486e-08
-1.41779e-07
-6.19529e-08
-2.3646e-07
-1.62381e-07
-1.34702e-08
-1.49863e-07
-7.34316e-08
-1.56187e-07
-4.65818e-08
-9.79597e-08
1.52064e-08
-1.00771e-07
-5.24106e-08
-2.49538e-07
-2.68101e-07
-4.82929e-07
-4.87465e-07
-7.14054e-07
-8.24648e-07
-1.07558e-06
-1.03399e-06
-1.79801e-06
-4.48972e-06
-6.11417e-06
4.57371e-06
8.60137e-06
-2.47314e-05
3.04776e-06
9.70262e-08
6.19462e-08
4.54091e-08
-5.93461e-08
3.2936e-08
-9.53992e-08
3.38609e-08
-2.79472e-08
2.89126e-08
-2.24373e-08
2.06479e-07
-3.51471e-07
-2.15381e-08
-2.6622e-08
1.58764e-07
1.43203e-07
2.23249e-07
1.45017e-07
1.99069e-07
1.21071e-07
1.72539e-07
1.17646e-07
1.46769e-07
8.22871e-08
1.34157e-07
9.50174e-08
1.41873e-07
1.07355e-07
1.34847e-07
5.5835e-08
-2.58458e-08
-1.38364e-07
-2.42632e-07
-1.34475e-07
1.3165e-07
2.30061e-07
1.94088e-06
1.88685e-06
1.79322e-06
1.42055e-07
6.63249e-08
7.50228e-08
-8.8256e-09
6.45144e-08
2.15168e-07
2.16054e-07
-9.65574e-08
7.75258e-08
3.04669e-08
-2.26318e-07
-6.82889e-08
-1.57946e-07
-7.86572e-08
3.57975e-08
-5.18242e-07
6.5214e-08
5.01819e-09
-2.78303e-08
-7.8749e-09
9.7399e-08
1.3316e-07
1.79375e-07
1.46535e-07
1.21444e-07
1.07029e-07
1.55715e-07
2.27556e-07
4.58828e-07
6.42989e-07
1.28352e-06
1.9096e-06
2.8926e-06
2.48919e-06
1.01296e-06
3.16603e-06
1.67386e-06
-1.60186e-06
5.40332e-06
7.33548e-08
5.31222e-08
8.51162e-09
5.05012e-08
-8.67213e-08
1.56044e-08
-8.53905e-08
4.9256e-08
1.08435e-09
5.39242e-08
-1.29588e-07
1.33315e-07
-1.94281e-07
3.99534e-08
8.3724e-08
1.48704e-07
1.42925e-07
1.42255e-07
1.25937e-07
1.14865e-07
1.23061e-07
9.83282e-08
4.3202e-08
5.31706e-09
-1.56851e-08
-1.62908e-08
-4.52033e-08
-7.7834e-08
-1.72633e-07
-2.68317e-07
-5.42733e-07
-7.21688e-07
-1.23638e-06
-1.38466e-06
-1.8353e-06
-1.9004e-06
-2.17371e-06
-2.27457e-06
-2.12527e-06
1.0643e-07
1.19465e-07
-3.73131e-08
6.82098e-08
1.25608e-07
9.75778e-08
7.8575e-08
2.19907e-07
-1.05431e-07
-1.35061e-07
3.21008e-08
-1.42476e-07
-9.94849e-08
9.97194e-08
-6.60879e-07
4.27513e-07
2.77292e-07
8.78106e-08
-2.173e-08
-7.05818e-08
5.2364e-09
7.93079e-09
4.90732e-08
-2.5213e-08
-4.61534e-08
-1.93038e-07
-2.34912e-07
-4.27155e-07
-4.40077e-07
-7.39867e-07
-6.53283e-07
-9.71888e-07
-1.42717e-06
-3.41635e-06
-5.35307e-06
3.6482e-06
6.93013e-06
-2.05567e-05
3.17018e-06
8.14469e-08
4.97428e-08
3.32892e-08
-5.76093e-08
2.57606e-08
-1.02374e-07
2.31208e-08
-4.95885e-08
3.6834e-08
3.01446e-09
2.58465e-08
-3.7297e-08
-9.95727e-08
6.77717e-08
6.5406e-08
1.45788e-07
7.17645e-08
1.30067e-07
5.67211e-08
1.04449e-07
5.15509e-08
5.2672e-08
-1.54493e-08
-5.69501e-09
-6.15451e-09
3.47717e-08
3.30884e-08
6.2897e-08
2.73729e-08
5.47898e-08
-6.33841e-08
-2.84584e-09
-1.83968e-07
7.09171e-08
2.28094e-07
3.19414e-07
1.78151e-06
1.91602e-06
1.3351e-06
1.25983e-07
5.49746e-08
8.09756e-08
-5.68422e-09
4.90504e-08
1.98886e-07
1.88944e-07
-9.30353e-08
7.96076e-08
1.61588e-08
-2.26605e-07
-8.98401e-08
1.42726e-08
-2.39434e-07
4.33084e-07
-3.35892e-07
4.12595e-07
3.28893e-07
5.92027e-08
3.63946e-08
7.75081e-08
1.77363e-07
1.78412e-07
2.09501e-07
1.40088e-07
1.95436e-07
1.62505e-07
3.04562e-07
3.88214e-07
6.46926e-07
1.0904e-06
1.54844e-06
2.30597e-06
1.86938e-06
1.07141e-06
2.19274e-06
4.66368e-07
-1.94493e-06
4.16463e-06
5.7626e-08
3.8373e-08
4.87691e-09
3.88024e-08
-8.51538e-08
4.96098e-09
-9.96487e-08
3.9131e-08
4.91804e-09
3.21244e-08
-4.07032e-08
-5.38117e-08
1.1606e-08
-4.90728e-08
7.33313e-08
3.42458e-08
1.66927e-07
3.58964e-08
6.44725e-08
5.03446e-08
3.97926e-08
-1.27797e-08
-5.93278e-08
-1.04361e-07
-8.11842e-08
-8.02895e-08
-8.40038e-08
-1.32486e-07
-1.93185e-07
-2.84946e-07
-4.71367e-07
-6.10634e-07
-1.02235e-06
-1.12306e-06
-1.61037e-06
-1.46904e-06
-1.58726e-06
-1.50567e-06
-1.48417e-06
8.7537e-08
1.1804e-07
-2.84996e-08
6.34739e-08
1.13656e-07
8.17311e-08
6.86884e-08
2.07826e-07
-9.91144e-08
-1.45911e-07
3.62627e-08
-9.30084e-08
-2.64529e-08
2.78873e-07
-2.66932e-07
9.85025e-07
4.13389e-07
2.36899e-07
1.93045e-08
-1.21644e-08
2.42667e-08
8.41609e-08
9.38706e-08
9.36355e-08
4.32524e-08
-2.38955e-09
-1.07923e-07
-1.70259e-07
-2.87489e-07
-4.06868e-07
-4.30573e-07
-6.82928e-07
-1.01474e-06
-2.5611e-06
-3.90026e-06
2.48578e-06
4.59105e-06
-1.53927e-05
3.02499e-06
7.11519e-08
3.72986e-08
2.32758e-08
-5.4767e-08
1.40145e-08
-1.03262e-07
8.48966e-09
-5.93899e-08
3.3885e-08
9.62891e-09
3.01748e-08
-1.57866e-08
-3.13504e-08
1.54298e-08
2.14367e-08
2.23831e-07
7.51254e-08
4.63468e-08
1.36561e-08
-1.09925e-10
-1.24947e-08
-8.34178e-08
-1.22437e-07
-1.25477e-07
-8.37077e-08
-4.26382e-08
-2.50347e-08
-2.11359e-08
-2.88371e-08
-1.78191e-08
-6.66138e-08
-7.61294e-09
-1.14847e-07
1.41059e-07
1.99194e-07
4.40377e-07
1.69534e-06
1.55674e-06
1.09993e-06
1.22394e-07
5.85312e-08
7.90092e-08
-8.15983e-09
5.01928e-08
1.74633e-07
1.74543e-07
-9.2952e-08
6.49301e-08
2.22599e-08
-2.02246e-07
-3.58207e-09
1.22691e-07
1.24888e-08
7.01842e-07
1.14668e-07
8.55791e-07
1.58899e-07
6.29579e-08
1.73155e-08
1.2581e-07
1.50881e-07
2.41415e-07
1.88039e-07
2.28404e-07
1.82355e-07
2.52448e-07
2.85988e-07
4.07494e-07
5.98202e-07
9.17805e-07
1.29514e-06
1.77599e-06
1.42929e-06
1.57645e-06
1.67092e-06
8.77396e-08
-1.65559e-06
3.20904e-06
3.57492e-08
3.33823e-08
2.22196e-09
3.01078e-08
-8.02948e-08
4.58879e-10
-1.05162e-07
3.37722e-08
8.28977e-09
2.44677e-08
-5.05465e-08
-1.80744e-08
2.65642e-08
-3.15272e-08
2.64941e-07
1.41697e-07
1.47816e-07
-2.14727e-08
1.42539e-08
-5.37522e-08
-7.64451e-08
-1.11198e-07
-1.67572e-07
-1.58538e-07
-1.28777e-07
-1.0485e-07
-1.14018e-07
-1.59267e-07
-2.05155e-07
-2.90957e-07
-4.09291e-07
-5.39673e-07
-8.16152e-07
-9.45876e-07
-1.27194e-06
-1.1103e-06
-1.1356e-06
-1.05093e-06
-1.09296e-06
6.39585e-08
1.154e-07
-1.88726e-08
6.98485e-08
1.00105e-07
6.73699e-08
5.58026e-08
1.82405e-07
-9.25324e-08
-1.2617e-07
6.97594e-08
-5.65289e-09
1.02551e-07
3.81945e-07
1.37788e-07
6.70913e-07
2.01736e-07
1.52595e-07
-9.94837e-09
1.57987e-08
4.19825e-08
1.25802e-07
1.26057e-07
1.58666e-07
1.19995e-07
1.08716e-07
2.69256e-08
-8.72768e-09
-1.11915e-07
-1.60252e-07
-2.29626e-07
-3.80446e-07
-6.95577e-07
-1.68774e-06
-2.66646e-06
1.72462e-06
2.46152e-06
-1.14519e-05
2.91502e-06
6.98538e-08
1.99894e-08
1.71666e-08
-4.87701e-08
1.25838e-08
-1.00584e-07
6.59339e-09
-6.58311e-08
2.71181e-08
-1.53196e-09
3.31255e-08
7.1692e-09
-8.15189e-08
2.85383e-07
-2.67058e-08
3.64889e-07
-3.22147e-08
1.61973e-07
-1.79574e-07
-8.33831e-08
-1.55706e-07
-1.90765e-07
-1.99367e-07
-1.78412e-07
-1.15664e-07
-7.93439e-08
-6.58371e-08
-7.12303e-08
-6.96599e-08
-6.97069e-08
-7.69918e-08
-3.92224e-08
-7.01691e-08
1.12675e-07
2.49538e-07
3.50714e-07
1.26236e-06
1.30848e-06
7.88009e-07
2.01969e-07
2.66843e-08
7.5642e-08
6.43013e-10
4.06128e-08
1.58229e-07
1.46464e-07
-8.6663e-08
6.09372e-08
3.19393e-08
-1.31068e-07
6.64182e-08
1.9656e-07
1.33376e-07
6.29842e-07
6.10469e-08
6.93865e-07
-3.38979e-07
-2.90776e-09
3.7116e-08
8.63949e-08
1.84185e-07
2.01566e-07
2.27939e-07
2.02458e-07
2.20678e-07
2.32508e-07
2.91191e-07
3.63133e-07
5.36561e-07
7.46479e-07
1.05636e-06
1.38903e-06
9.4037e-07
2.15321e-06
1.2557e-06
1.72501e-07
-1.14532e-06
2.50468e-06
-3.94286e-08
4.56238e-09
-4.50597e-09
2.39928e-08
-7.3776e-08
-3.20756e-09
-1.05097e-07
2.39405e-08
-4.9502e-09
1.68475e-08
-5.26462e-08
-6.63292e-08
1.97175e-07
-1.66505e-07
7.45134e-07
-3.30955e-08
3.48691e-07
-2.46588e-07
-9.16797e-08
-2.37614e-07
-2.3904e-07
-2.28367e-07
-2.08289e-07
-1.73755e-07
-1.22649e-07
-1.05208e-07
-1.18134e-07
-1.56691e-07
-1.96271e-07
-2.695e-07
-3.4664e-07
-4.63647e-07
-6.45958e-07
-7.5706e-07
-9.98101e-07
-8.50284e-07
-8.83603e-07
-8.25223e-07
-9.20756e-07
-6.33217e-08
2.33667e-07
7.25618e-10
6.56085e-08
9.3249e-08
5.72203e-08
4.85158e-08
1.66128e-07
-8.15585e-08
-9.37996e-08
9.63478e-08
5.44485e-08
1.50365e-07
4.12459e-07
7.68181e-08
6.17659e-07
-3.14745e-07
4.66961e-07
1.60641e-07
6.70513e-08
1.18623e-07
1.12763e-07
1.78653e-07
1.49124e-07
1.89705e-07
1.34479e-07
1.32551e-07
6.14179e-08
3.94224e-08
-2.20792e-08
-5.54347e-08
-1.49666e-07
-4.85219e-07
-9.25004e-07
-2.2053e-07
1.1766e-06
6.63698e-07
-7.75415e-06
2.62433e-06
3.16798e-08
-3.41039e-08
-6.02207e-11
-4.53975e-08
7.27468e-09
-9.42017e-08
4.5746e-10
-7.20784e-08
1.49433e-08
-1.64421e-08
2.26332e-08
3.3349e-08
-1.38304e-07
4.4129e-07
-1.35974e-07
3.90701e-07
-1.54392e-08
-1.24477e-07
-2.01216e-07
-3.64029e-07
-2.84671e-07
-2.3335e-07
-2.20952e-07
-1.61061e-07
-1.11739e-07
-8.26424e-08
-8.22187e-08
-8.87089e-08
-9.26119e-08
-9.1135e-08
-8.63407e-08
-5.96952e-08
-5.51874e-08
8.35742e-08
2.06592e-07
1.81337e-07
8.46092e-07
9.15997e-07
5.16518e-07
2.24499e-07
1.1027e-08
8.04001e-08
3.77826e-09
4.38699e-08
1.38683e-07
1.33653e-07
-8.09029e-08
5.95334e-08
3.8127e-08
-8.45726e-08
9.83588e-08
2.11783e-07
1.43168e-07
5.85926e-07
-1.15442e-07
4.1829e-07
-2.5417e-07
1.5937e-07
2.78132e-07
1.70569e-07
1.99064e-07
2.02613e-07
2.12615e-07
1.92791e-07
1.97188e-07
2.11306e-07
2.46517e-07
3.12018e-07
4.3145e-07
5.89853e-07
8.10572e-07
1.04624e-06
1.25365e-06
-3.5271e-08
1.57765e-06
3.01589e-07
-4.05807e-07
1.87212e-06
-9.06129e-08
-4.60518e-08
-1.74677e-08
1.77402e-08
-6.68981e-08
-2.26431e-09
-1.0141e-07
1.99072e-08
-1.74157e-08
1.48527e-08
-6.23421e-08
-7.46112e-08
9.53857e-08
6.57201e-08
4.6804e-07
3.73701e-07
-1.67318e-07
5.85203e-09
-4.37002e-07
-3.08393e-07
-2.29546e-07
-2.45087e-07
-2.0316e-07
-1.34592e-07
-9.76423e-08
-8.45546e-08
-9.97074e-08
-1.35682e-07
-1.65396e-07
-2.27559e-07
-2.74568e-07
-3.81656e-07
-4.8499e-07
-6.12451e-07
-7.5393e-07
-6.66986e-07
-7.09936e-07
-7.41376e-07
-8.16917e-07
-7.96296e-08
1.25811e-07
-9.6406e-09
6.60799e-08
8.24438e-08
4.77621e-08
4.05694e-08
1.45831e-07
-7.07996e-08
-7.05209e-08
1.06347e-07
7.18588e-08
1.547e-07
3.83709e-07
1.07847e-08
5.20296e-07
-2.56131e-07
6.14185e-07