/*--------------------------------*- C++ -*----------------------------------*\
| =========                 |                                                 |
| \\      /  F ield         | OpenFOAM: The Open Source CFD Toolbox           |
|  \\    /   O peration     | Version:  2306                                  |
|   \\  /    A nd           | Website:  www.openfoam.com                      |
|    \\/     M anipulation  |                                                 |
\*---------------------------------------------------------------------------*/
FoamFile
{
    version     2.0;
    format      ascii;
    arch        "LSB;label=32;scalar=64";
    class       volVectorField;
    location    "600";
    object      momentError;
}
// * * * * * * * * * * * * * * * * * * * * * * * * * * * * * * * * * * * * * //

dimensions      [0 1 -2 0 0 0 0];

internalField   nonuniform List<vector> 
10720
(
(7.89219e-05 -0.000195345 -6.95743e-15)
(6.65973e-05 -0.000219785 2.41135e-14)
(4.9672e-05 -0.000243463 -4.72326e-14)
(1.13712e-05 -0.000215729 1.778e-14)
(-7.90747e-06 -0.000213876 1.10239e-13)
(-2.36362e-05 -0.00020419 -1.75099e-13)
(-4.29019e-05 -0.000225199 8.99985e-14)
(-6.83514e-05 -0.000236383 -1.11069e-13)
(-9.82895e-05 -0.000239642 -2.54631e-13)
(-0.000119769 -0.000214826 3.44118e-13)
(-0.000127818 -0.000184042 1.24149e-13)
(-0.000128292 -0.000159271 -2.28811e-13)
(-0.000121526 -0.000133307 -3.34526e-13)
(-0.000119215 -0.000115525 -5.72036e-14)
(-0.000124592 -0.000106161 -1.39768e-13)
(-0.000135649 -0.000101323 -3.10395e-13)
(-0.000186886 -0.000112837 -1.46757e-13)
(-0.000322429 -0.000149217 8.32707e-13)
(-0.000271508 -0.000126524 4.23308e-13)
(-0.000816155 -0.000305873 -5.95091e-13)
(-0.0018675 -0.00056334 1.05315e-13)
(-0.00227948 -0.000811763 1.53274e-13)
(-0.00304308 -0.00116123 -6.74722e-14)
(-0.0127434 -0.00188688 -1.51587e-13)
(-0.0249166 -0.00401447 3.57145e-14)
(-0.0182742 -0.00487617 -2.35016e-15)
(-0.00305354 -0.0033118 4.155e-14)
(0.0051827 -0.000678154 -1.64627e-14)
(0.00578741 0.000939662 4.39622e-14)
(0.00337302 0.00105882 1.54496e-13)
(-9.7439e-05 0.000559216 3.0306e-14)
(-0.00105603 0.000170185 -1.28626e-13)
(-0.000278504 -3.78825e-05 -7.91984e-15)
(-8.94024e-05 -3.91855e-05 -2.15705e-13)
(-0.000300613 0.000128849 -2.82319e-13)
(-0.000621528 0.0013195 1.15494e-13)
(0.000761766 0.0115814 -1.13954e-14)
(0.052441 0.0722284 -4.54e-16)
(1.09065 -0.120057 -6.74683e-14)
(9.41578e-05 -0.000189339 -1.0766e-14)
(0.000105742 -0.000135794 2.65582e-14)
(0.000119093 -9.49383e-05 1.73222e-15)
(0.000107083 -4.45143e-05 3.61656e-14)
(0.000100685 -2.06803e-05 -3.28851e-14)
(3.41117e-05 5.70695e-05 -9.40224e-14)
(1.60802e-06 7.89306e-05 -1.07345e-13)
(-8.58504e-05 0.000145426 2.99402e-14)
(-9.78266e-05 8.26195e-05 -7.52055e-14)
(-5.1781e-05 2.02033e-05 9.5795e-14)
(-9.65118e-06 -2.97143e-05 -6.00386e-14)
(4.05557e-05 -5.21221e-05 -1.46125e-13)
(5.84608e-05 -5.12836e-05 -1.64675e-13)
(6.63353e-05 -4.50844e-05 1.32091e-14)
(6.61269e-05 -3.71215e-05 1.33035e-13)
(6.23379e-05 -2.96341e-05 3.99406e-14)
(5.70667e-05 -2.34797e-05 -5.0307e-14)
(5.11543e-05 -1.82675e-05 -3.5475e-14)
(4.49721e-05 -1.44362e-05 -2.1818e-14)
(3.89841e-05 -1.09764e-05 3.90399e-14)
(3.27395e-05 -8.86678e-06 1.72961e-14)
(2.71091e-05 -6.89022e-06 2.50514e-14)
(2.17603e-05 -6.88483e-06 -3.38378e-14)
(2.06529e-05 -7.43127e-06 -2.46551e-14)
(2.37493e-05 -7.31338e-06 1.8184e-14)
(2.79314e-05 -6.73589e-06 1.24074e-14)
(3.32859e-05 -5.26988e-06 6.93017e-15)
(3.82846e-05 -5.13235e-06 -1.46248e-15)
(3.74762e-05 -2.39747e-06 -2.8451e-16)
(2.82029e-05 -5.93764e-06 2.30613e-16)
(2.75432e-05 -1.90195e-06 -4.51366e-16)
(3.69188e-05 -1.30247e-06 -1.86755e-15)
(4.3411e-05 -1.5944e-07 -1.26035e-15)
(4.22145e-05 -1.05598e-06 -3.83959e-15)
(8.20701e-05 1.88233e-06 -2.90603e-15)
(5.86085e-05 -3.36432e-07 1.26139e-15)
(0.000124148 -7.08648e-06 -2.16472e-15)
(0.000299589 -0.000133486 -1.10575e-14)
(0.00213717 -0.00125696 -2.14939e-14)
(0.000101449 -0.00019341 -1.31424e-14)
(8.90234e-05 -0.00021064 5.8845e-15)
(6.44093e-05 -0.0002256 7.81391e-15)
(2.96183e-05 -0.000208178 -3.36621e-14)
(9.58705e-07 -0.000197675 2.10325e-14)
(-5.26596e-06 -0.00020236 8.03965e-14)
(-3.41597e-05 -0.000220056 1.03894e-13)
(-5.38075e-05 -0.000231342 1.00638e-13)
(-8.04399e-05 -0.000230928 -3.9878e-15)
(-9.72292e-05 -0.000207955 1.90681e-13)
(-0.000102574 -0.000174181 -2.0886e-13)
(-9.83381e-05 -0.000143011 -1.19528e-13)
(-9.6079e-05 -0.000125539 4.48618e-13)
(-9.21241e-05 -0.000111344 1.28258e-13)
(-0.000105656 -9.38287e-05 -1.19187e-13)
(-0.000103847 -7.93529e-05 -1.78005e-14)
(-0.000128637 -6.24804e-05 3.42058e-13)
(-0.000253573 -3.63935e-05 -1.53339e-13)
(0.000477313 -0.000259726 -4.91943e-13)
(0.0069396 -0.0016607 1.88438e-13)
(0.0121886 -0.00356924 2.35437e-13)
(-0.0010013 0.000559437 4.67743e-14)
(-0.0582691 -0.0214938 -1.30899e-13)
(-0.0269755 -0.0023658 1.92538e-13)
(0.0143848 -0.00180581 -4.19945e-14)
(0.0576685 0.0018667 -7.04618e-14)
(0.0499952 0.0038987 -3.01944e-14)
(0.0137936 0.00308062 5.59786e-15)
(0.00173167 0.00268213 -1.50042e-14)
(0.00453424 0.00222216 -1.58861e-14)
(0.00165145 0.000809122 -2.03963e-14)
(0.000995255 -0.000146462 3.52768e-14)
(0.000717113 -0.000277619 -1.88219e-13)
(0.00029192 -0.000151969 -2.24045e-13)
(-0.000161954 1.28469e-05 1.62303e-13)
(-0.000903912 0.00044647 -3.94941e-14)
(-0.00165989 0.00232313 3.30534e-14)
(-0.0321341 0.0143184 -1.41197e-14)
(-0.892591 0.108502 -3.85081e-14)
(0.000110293 -0.000174849 -4.63885e-15)
(0.000131223 -0.000140375 1.24099e-13)
(0.000140031 -9.98273e-05 -7.98397e-15)
(0.000142311 -5.72282e-05 -1.29075e-13)
(0.000125168 -1.3439e-05 -2.56851e-14)
(8.56811e-05 3.22333e-05 1.27347e-13)
(4.74454e-05 5.84445e-05 1.11416e-13)
(-7.98194e-06 7.52295e-05 5.95854e-14)
(-3.14533e-05 3.20361e-05 -8.25881e-14)
(-1.90886e-05 -1.11101e-05 -1.06483e-14)
(4.72369e-06 -4.37599e-05 1.01897e-13)
(3.37389e-05 -5.47486e-05 -5.20992e-15)
(5.0315e-05 -5.31508e-05 1.22903e-14)
(5.87038e-05 -4.66109e-05 -2.47923e-14)
(6.05251e-05 -3.86594e-05 -3.2588e-14)
(5.83858e-05 -3.10741e-05 1.41526e-14)
(5.44957e-05 -2.44406e-05 1.70869e-14)
(4.94547e-05 -1.90164e-05 -5.80437e-14)
(4.40537e-05 -1.45822e-05 2.69297e-14)
(3.83502e-05 -1.11642e-05 1.78451e-14)
(3.27505e-05 -8.25042e-06 1.46789e-14)
(2.73146e-05 -6.39437e-06 3.19093e-14)
(2.29819e-05 -5.14533e-06 4.1782e-14)
(2.19149e-05 -6.13122e-06 1.76494e-14)
(2.46828e-05 -6.02987e-06 -1.51654e-14)
(2.85743e-05 -5.78865e-06 8.16091e-16)
(3.34992e-05 -4.96059e-06 -5.68206e-15)
(3.89918e-05 -3.8882e-06 -2.08584e-15)
(3.77523e-05 -2.01016e-06 3.93334e-16)
(3.23343e-05 8.44731e-07 -3.86169e-17)
(4.56531e-05 -3.80064e-06 2.82906e-16)
(5.00746e-05 5.02056e-07 6.14069e-16)
(5.6035e-05 2.50444e-06 1.84953e-15)
(7.12884e-05 4.27635e-06 2.35467e-15)
(6.15699e-05 2.33422e-06 7.65761e-16)
(0.000103006 4.52316e-07 -1.55107e-15)
(0.000172848 2.46677e-06 -6.65568e-17)
(0.000350563 1.70203e-05 3.77998e-15)
(0.0015332 0.00021272 9.20411e-15)
(7.43256e-05 -0.000176227 -5.07372e-15)
(6.34148e-05 -0.000184908 -8.20206e-16)
(3.76366e-05 -0.000187979 -5.83697e-15)
(5.55581e-06 -0.000179826 1.55515e-14)
(-1.10459e-05 -0.000172615 3.91319e-15)
(-2.24418e-05 -0.000185415 -3.37372e-14)
(-3.99134e-05 -0.000198688 -1.07609e-13)
(-6.08546e-05 -0.000211476 -9.54175e-14)
(-8.36967e-05 -0.000203053 -1.11322e-13)
(-0.000100017 -0.000182333 1.10097e-14)
(-0.000106645 -0.000155626 2.64052e-13)
(-0.0001062 -0.00013179 7.0621e-14)
(-0.00010483 -0.000112035 -9.9311e-14)
(-0.000102576 -9.88293e-05 -2.41054e-13)
(-9.07169e-05 -9.54318e-05 1.10245e-13)
(-8.34348e-05 -9.33456e-05 1.45922e-13)
(-7.97893e-05 -0.000117813 -9.42423e-14)
(-5.51797e-06 -2.01584e-05 -1.89374e-13)
(-0.000785697 0.00178163 3.17157e-13)
(-0.00741501 0.00730859 -9.48695e-14)
(-0.00755217 0.0093019 -1.19588e-13)
(0.000938625 -0.00025881 1.78557e-13)
(0.0961911 0.0519758 7.39145e-14)
(0.000996658 0.000834695 -3.35243e-15)
(0.0183657 0.000854016 -3.30819e-14)
(0.0315293 0.0014239 3.56705e-15)
(-0.0228252 -0.0030538 -3.06193e-14)
(-0.00873767 -0.00258648 2.10693e-14)
(-0.00435503 0.000794588 -3.31774e-14)
(-0.00112545 0.00155181 -7.21047e-14)
(0.00151512 -0.000126224 6.96156e-14)
(0.00751077 -0.00076862 3.08428e-14)
(0.00375855 -0.000635809 -1.21841e-13)
(0.000901873 -0.000310841 7.82226e-14)
(-0.000488171 -3.22557e-06 1.65121e-14)
(-0.00132902 0.000341644 -3.61652e-14)
(-0.0030398 0.00131002 -9.98043e-14)
(-0.0163924 0.00204565 2.77746e-14)
(-0.112718 0.00973132 9.91175e-15)
(9.80852e-05 -0.000153457 2.9218e-14)
(0.000111685 -0.000128494 -2.76869e-14)
(0.000123993 -9.47491e-05 -9.83431e-14)
(0.000124406 -6.28048e-05 4.48519e-14)
(0.000111304 -2.66214e-05 2.05984e-14)
(8.77644e-05 4.77023e-06 -6.4571e-14)
(5.76115e-05 2.5075e-05 1.35491e-14)
(2.52959e-05 2.97954e-05 -1.17648e-13)
(7.38442e-06 3.69531e-06 -7.91933e-14)
(8.13187e-06 -2.15053e-05 -8.81236e-14)
(2.17024e-05 -4.02105e-05 9.75412e-14)
(3.83875e-05 -4.76248e-05 1.4533e-14)
(5.03406e-05 -4.74193e-05 -1.36542e-14)
(5.67087e-05 -4.30946e-05 -8.08997e-14)
(5.81639e-05 -3.70764e-05 -5.80885e-14)
(5.63107e-05 -3.05633e-05 3.78567e-14)
(5.28147e-05 -2.45334e-05 -2.13741e-14)
(4.82719e-05 -1.93263e-05 -4.39724e-14)
(4.31939e-05 -1.50752e-05 -4.00354e-15)
(3.7808e-05 -1.1526e-05 -4.02395e-14)
(3.2402e-05 -9.04521e-06 -4.30003e-14)
(2.71588e-05 -7.54429e-06 -8.43255e-14)
(2.29259e-05 -7.83295e-06 -6.39435e-14)
(2.17587e-05 -9.42956e-06 -1.79986e-14)
(2.41272e-05 -9.61858e-06 3.95038e-15)
(2.78251e-05 -8.72334e-06 -1.1475e-15)
(3.23035e-05 -7.1563e-06 -1.05286e-14)
(3.74448e-05 -5.45761e-06 4.47389e-15)
(3.65231e-05 -1.95711e-06 5.81762e-16)
(3.09381e-05 -4.73735e-06 -1.8133e-16)
(3.61467e-05 -2.06815e-06 -9.44018e-18)
(4.29137e-05 -6.42321e-07 -5.34146e-16)
(4.83755e-05 -7.73091e-07 -9.83104e-16)
(5.43263e-05 4.73926e-06 -1.46472e-15)
(8.23505e-05 -9.12097e-06 1.86787e-15)
(0.000109992 -7.63308e-05 3.78956e-17)
(0.000234427 -2.94474e-05 1.44772e-14)
(0.000254204 -1.29173e-05 8.75016e-15)
(0.00121616 0.000234332 -1.03382e-13)
(6.47437e-05 -0.000148032 7.92674e-15)
(4.85229e-05 -0.000168424 -2.34387e-15)
(2.81422e-05 -0.000165616 6.65921e-17)
(1.87954e-06 -0.000162974 -7.13004e-15)
(-7.02218e-06 -0.000162848 1.99583e-15)
(-2.14915e-05 -0.000176757 3.58143e-14)
(-3.78089e-05 -0.000193187 5.84657e-14)
(-5.82204e-05 -0.000195576 5.46315e-14)
(-7.85023e-05 -0.000187215 -1.33388e-13)
(-9.29408e-05 -0.000168856 -1.11642e-13)
(-9.88666e-05 -0.000144749 1.41518e-13)
(-0.000100573 -0.000123609 2.56582e-13)
(-9.8661e-05 -0.000106738 1.35702e-13)
(-9.61237e-05 -9.48994e-05 -4.72148e-13)
(-9.70953e-05 -8.31177e-05 -1.62162e-13)
(-0.000117349 -6.43305e-05 3.85911e-13)
(-0.000130162 -4.81652e-05 8.39269e-14)
(-0.000192172 3.44989e-05 -1.2427e-13)
(-0.000263394 -0.000151639 -2.28419e-13)
(-0.00056126 -0.00265904 1.97907e-13)
(-0.00468086 -0.00637268 4.36137e-14)
(3.4265e-05 0.00158961 -2.22445e-13)
(-0.0476651 -0.0237658 1.65592e-13)
(0.00300635 0.00179066 -1.14161e-13)
(0.00237659 8.12611e-05 -3.71921e-14)
(0.0219658 -0.00428104 3.5666e-14)
(0.105743 -0.0166238 -4.5605e-14)
(-0.0375872 4.87618e-05 1.00992e-14)
(-0.0745995 0.00668864 1.36621e-14)
(-0.0873409 0.00773861 2.11224e-14)
(-0.00293352 -0.00351557 -9.0439e-15)
(-0.000967532 -0.000295386 2.55661e-14)
(0.00313583 -0.000913948 2.07241e-13)
(0.00101037 -0.000272076 5.34688e-14)
(-0.00118024 2.14405e-05 -7.58561e-14)
(-0.0016755 0.000273834 -1.16595e-13)
(-0.00197974 0.00065067 1.66337e-14)
(-0.00660445 -0.000249806 -2.82966e-14)
(-0.0330365 0.00904809 4.56587e-14)
(8.63321e-05 -0.00013443 1.88164e-14)
(9.87813e-05 -0.000118278 -3.68743e-14)
(0.000108812 -9.3793e-05 -4.04088e-15)
(0.000107131 -6.80566e-05 -3.37243e-14)
(9.91096e-05 -3.88031e-05 -2.08222e-14)
(8.14183e-05 -1.41183e-05 7.34768e-14)
(5.98722e-05 5.0218e-06 -1.8417e-13)
(3.71637e-05 6.94828e-06 1.69127e-13)
(2.74161e-05 -1.04556e-05 2.01465e-15)
(2.59216e-05 -2.57284e-05 -1.20416e-13)
(3.33448e-05 -3.81834e-05 -7.02475e-14)
(4.27785e-05 -4.40184e-05 -1.98383e-14)
(5.07281e-05 -4.46367e-05 5.95862e-14)
(5.50962e-05 -4.15842e-05 1.29281e-13)
(5.59724e-05 -3.63879e-05 2.11142e-14)
(5.42025e-05 -3.04165e-05 -4.73379e-14)
(5.10675e-05 -2.46244e-05 2.21983e-14)
(4.69891e-05 -1.94577e-05 5.00097e-14)
(4.22848e-05 -1.52932e-05 -3.67786e-15)
(3.7238e-05 -1.17498e-05 -7.78288e-15)
(3.21271e-05 -9.35491e-06 -2.14375e-14)
(2.72315e-05 -7.85147e-06 5.28071e-14)
(2.33214e-05 -8.05828e-06 3.09354e-14)
(2.21728e-05 -9.45414e-06 -1.07667e-14)
(2.41502e-05 -9.76059e-06 -1.69122e-14)
(2.76312e-05 -8.94337e-06 -6.96415e-15)
(3.20217e-05 -7.45275e-06 1.26255e-14)
(3.69521e-05 -5.84886e-06 -8.91383e-16)
(3.61135e-05 -2.33712e-06 -5.13494e-16)
(3.13282e-05 -2.31605e-06 2.01664e-16)
(3.56963e-05 -4.86927e-06 -3.98012e-17)
(4.45894e-05 5.22417e-06 -3.66988e-17)
(5.37446e-05 2.29404e-05 2.74261e-16)
(2.07518e-05 -0.00011797 5.11421e-16)
(-0.000635472 -0.00228743 -3.23459e-15)
(-0.000411161 -0.00181104 7.59218e-15)
(-2.27784e-06 -0.000255673 -1.28909e-14)
(0.000373837 0.000686 -2.99126e-14)
(0.00112893 0.000191412 -1.08645e-16)
(5.46989e-05 -0.000130228 -4.04106e-15)
(3.48261e-05 -0.0001437 4.77979e-15)
(1.3766e-05 -0.000147458 5.65068e-17)
(-3.80218e-06 -0.000147045 -4.17632e-15)
(-1.30476e-05 -0.000151991 -2.88317e-14)
(-2.54542e-05 -0.000165317 3.46357e-14)
(-4.39154e-05 -0.000174685 1.2634e-14)
(-6.3521e-05 -0.000173791 -7.01525e-14)
(-8.13809e-05 -0.000164259 -5.8231e-14)
(-9.45264e-05 -0.000146846 -1.21381e-13)
(-0.000100765 -0.000125662 1.74614e-14)
(-0.000103056 -0.000107111 -1.32355e-13)
(-0.000102268 -9.15079e-05 8.04609e-15)
(-0.000101386 -7.90531e-05 3.54352e-13)
(-0.000100499 -6.81648e-05 -2.34206e-13)
(-9.90276e-05 -6.20148e-05 -1.67665e-13)
(-9.90877e-05 -5.79305e-05 1.0158e-13)
(-0.000105301 -3.73258e-05 -1.31966e-13)
(-0.000119851 6.5547e-06 8.48919e-14)
(-0.000143211 4.26587e-05 -1.4397e-13)
(-0.000360496 -8.34435e-05 -1.61817e-13)
(-0.000196902 0.000283969 1.83267e-13)
(0.0010855 0.000931537 -4.0535e-14)
(0.00104252 4.02187e-05 8.9687e-14)
(-0.00770332 -0.00121767 5.67613e-14)
(-0.0351576 0.00369747 6.28391e-15)
(-0.081161 0.0152546 1.08856e-13)
(0.0243244 0.00196699 -2.1158e-14)
(0.0290397 -0.00678046 2.24975e-14)
(0.0117054 -0.00299195 -5.58288e-14)
(0.0067057 0.00244725 -1.55437e-13)
(-0.0060305 -0.00240637 1.29468e-15)
(0.00421239 -0.000167949 1.40172e-13)
(0.00124652 8.1684e-06 -3.31471e-14)
(-0.00102892 0.000131019 -1.04852e-13)
(-0.00249655 0.000220852 1.18028e-13)
(-0.00153774 0.00032208 -3.96436e-14)
(-0.00366126 -0.000750922 -1.662e-14)
(-0.0196107 0.00936499 -5.31817e-16)
(6.60917e-05 -0.000120131 2.02826e-14)
(7.99842e-05 -0.000109685 1.43635e-14)
(8.59857e-05 -9.23948e-05 -3.19923e-14)
(8.88516e-05 -7.04102e-05 7.88748e-14)
(8.36636e-05 -4.67663e-05 1.86885e-13)
(7.31972e-05 -2.62398e-05 -6.87532e-14)
(5.95975e-05 -1.02916e-05 -7.24484e-14)
(4.47318e-05 -9.18573e-06 1.5044e-13)
(3.81263e-05 -1.93609e-05 1.26935e-13)
(3.69788e-05 -2.84693e-05 3.56481e-14)
(4.12883e-05 -3.62627e-05 -5.19379e-14)
(4.70727e-05 -4.03657e-05 5.9181e-14)
(5.20014e-05 -4.09738e-05 4.54279e-14)
(5.46392e-05 -3.8586e-05 -3.9819e-15)
(5.46316e-05 -3.42595e-05 -9.37211e-14)
(5.26336e-05 -2.89833e-05 3.96395e-15)
(4.9624e-05 -2.39088e-05 3.73007e-15)
(4.57869e-05 -1.92962e-05 2.06859e-16)
(4.14018e-05 -1.54881e-05 1.51383e-14)
(3.66195e-05 -1.22666e-05 -5.43058e-15)
(3.17868e-05 -1.02297e-05 1.23011e-14)
(2.7171e-05 -9.08142e-06 -2.67244e-14)
(2.34697e-05 -9.78923e-06 -1.53651e-14)
(2.22141e-05 -1.13178e-05 1.55018e-14)
(2.38235e-05 -1.19721e-05 2.09531e-14)
(2.70882e-05 -1.10553e-05 1.25528e-15)
(3.1459e-05 -9.25979e-06 -1.23696e-15)
(3.63163e-05 -6.82733e-06 -3.26001e-15)
(3.57906e-05 -2.77241e-06 6.54295e-16)
(3.12965e-05 -4.29329e-06 -1.04594e-16)
(3.50666e-05 -6.40993e-06 -5.30613e-16)
(4.18236e-05 -1.0228e-05 -2.81108e-17)
(4.33018e-05 -2.86408e-05 7.81004e-17)
(3.34241e-05 0.000237569 -6.98482e-17)
(0.000284505 0.00339649 -9.27968e-16)
(0.000168402 0.00262104 -6.88105e-16)
(0.000212578 0.000280217 1.03204e-14)
(0.000374821 -0.000744209 -1.0869e-14)
(0.000955742 0.000285835 5.48362e-15)
(4.10414e-05 -0.00011744 1.93828e-15)
(2.61874e-05 -0.000124917 5.06788e-16)
(8.24794e-06 -0.000131137 3.1625e-15)
(-5.70285e-06 -0.000138107 -2.45879e-15)
(-1.41538e-05 -0.000142975 -1.08436e-15)
(-2.73672e-05 -0.000153952 1.63382e-14)
(-4.55011e-05 -0.000160353 7.60516e-15)
(-6.32118e-05 -0.000156639 4.04774e-14)
(-7.94807e-05 -0.000148097 6.79655e-14)
(-9.12059e-05 -0.000132375 -3.20433e-14)
(-9.74245e-05 -0.000114084 -7.79475e-15)
(-0.000100371 -9.78518e-05 7.50088e-14)
(-0.000100876 -8.36878e-05 -1.45507e-13)
(-9.97674e-05 -7.1481e-05 -2.89385e-13)
(-9.90298e-05 -5.99805e-05 1.75229e-13)
(-0.000100173 -4.80351e-05 2.68355e-13)
(-0.000113671 -2.22192e-05 -3.55849e-13)
(-0.000124637 8.01298e-06 6.0668e-14)
(-0.000132185 2.73614e-05 1.11899e-13)
(-0.000170918 9.54485e-06 -1.12965e-13)
(-0.000289055 5.99477e-05 8.56213e-14)
(-0.000318971 0.000461191 -8.73359e-14)
(0.000356821 0.000958407 -1.69252e-13)
(0.00114925 9.08643e-05 -5.03161e-14)
(0.000442329 -0.00195465 -1.16204e-13)
(-1.76419e-05 -0.00247029 5.63294e-14)
(-0.000255965 0.000792035 -1.62126e-14)
(0.00883806 0.00301028 -1.09018e-14)
(0.0164656 0.00130817 2.13895e-14)
(0.0370065 -0.00475377 4.25748e-14)
(-0.0177192 0.000501912 3.28556e-14)
(0.00141443 -0.00157429 -4.52676e-14)
(-0.00190377 4.14347e-05 -1.16435e-13)
(0.00176499 0.000101184 -1.48663e-13)
(0.0007359 -1.98679e-05 3.37784e-14)
(-0.000978262 -0.000458712 7.32787e-14)
(-0.00112822 0.000250612 8.46272e-14)
(-0.00325002 -0.000739474 3.84848e-14)
(-0.0164371 0.00991998 2.85625e-14)
(5.20975e-05 -0.000109852 8.59492e-15)
(6.14806e-05 -0.00010365 -2.0693e-14)
(6.73521e-05 -8.94857e-05 1.04909e-14)
(7.06231e-05 -7.08483e-05 -5.83378e-15)
(6.98779e-05 -5.18115e-05 4.6817e-15)
(6.56403e-05 -3.24196e-05 -7.8182e-14)
(5.77524e-05 -2.06443e-05 -2.9426e-14)
(4.87673e-05 -1.96257e-05 -3.50566e-14)
(4.45679e-05 -2.4669e-05 2.74176e-14)
(4.38884e-05 -3.0002e-05 1.35735e-13)
(4.67169e-05 -3.47172e-05 -3.0359e-14)
(5.05122e-05 -3.74952e-05 -5.88494e-14)
(5.34223e-05 -3.78563e-05 2.50168e-15)
(5.45914e-05 -3.58627e-05 -5.12986e-14)
(5.36988e-05 -3.22256e-05 1.70031e-14)
(5.13374e-05 -2.76536e-05 2.54112e-14)
(4.83105e-05 -2.3222e-05 3.93182e-14)
(4.4667e-05 -1.91604e-05 1.5049e-14)
(4.05181e-05 -1.56705e-05 -1.77031e-14)
(3.59964e-05 -1.27568e-05 2.27257e-14)
(3.1484e-05 -1.07974e-05 2.51827e-14)
(2.71729e-05 -9.86692e-06 1.82594e-14)
(2.37808e-05 -1.04767e-05 3.81566e-15)
(2.24429e-05 -1.18807e-05 -1.44098e-14)
(2.37259e-05 -1.24951e-05 1.18018e-14)
(2.66747e-05 -1.17971e-05 3.28036e-15)
(3.09439e-05 -9.91951e-06 -1.13711e-14)
(3.56563e-05 -7.48431e-06 1.22343e-15)
(3.5452e-05 -3.25012e-06 -1.18455e-16)
(3.14003e-05 -3.89939e-06 2.05608e-16)
(3.46537e-05 -4.61259e-06 6.67325e-16)
(4.10592e-05 1.08951e-07 -1.6057e-16)
(4.66463e-05 4.16123e-06 -2.51358e-16)
(8.19517e-05 -6.58215e-05 5.63597e-16)
(0.000453489 -0.00112017 1.395e-15)
(0.000404325 -0.000885122 -1.19134e-14)
(0.00013526 1.08395e-05 3.46404e-15)
(0.000165655 0.000164556 4.41785e-14)
(0.00129336 -0.000471577 3.1055e-14)
(2.61311e-05 -0.000105302 3.09102e-15)
(1.61752e-05 -0.00011413 5.82453e-16)
(3.70372e-06 -0.000120058 -1.1264e-15)
(-8.24421e-06 -0.000128705 4.16964e-15)
(-1.70647e-05 -0.000134686 -8.69021e-15)
(-2.98179e-05 -0.000142094 -1.09433e-15)
(-4.71988e-05 -0.000144005 2.35996e-14)
(-6.31189e-05 -0.000140652 -1.11468e-14)
(-7.79121e-05 -0.000132018 -3.96143e-14)
(-8.88576e-05 -0.000117854 2.65385e-14)
(-9.51683e-05 -0.000101573 -6.07786e-14)
(-9.92978e-05 -8.68281e-05 -1.50861e-13)
(-0.000100501 -7.37355e-05 1.06604e-13)
(-9.98445e-05 -6.13041e-05 3.77167e-13)
(-9.93958e-05 -4.88932e-05 -1.38921e-14)
(-9.90317e-05 -3.61303e-05 -4.01369e-13)
(-9.92394e-05 -2.35101e-05 3.32534e-13)
(-0.000104349 -6.20795e-06 2.3337e-13)
(-0.000113052 1.32105e-05 1.24569e-13)
(-0.000130591 2.26163e-05 5.87363e-14)
(-0.000196308 6.85433e-05 -2.88418e-14)
(-0.000187758 0.000371507 1.61936e-13)
(0.000339107 0.000821635 1.11967e-13)
(0.00104185 0.000300411 -1.01888e-14)
(0.000407625 -0.00127135 2.14258e-13)
(-0.00214233 -0.00171859 -6.5706e-14)
(-0.00287117 3.87644e-05 -7.65331e-15)
(-0.00148164 0.00217929 5.6772e-15)
(0.00140554 0.00209938 -2.01423e-14)
(0.000944257 0.000680537 -2.08165e-14)
(-0.000139573 -0.000545479 -1.52566e-14)
(-0.00172422 -0.000870399 4.77752e-14)
(-0.00215966 -0.000134075 -2.27678e-14)
(0.000388926 0.000112923 -1.27986e-13)
(0.003422 -0.000399536 -2.07578e-14)
(0.0237042 -0.00766113 -1.01837e-13)
(-0.00733783 0.00262785 -5.77943e-14)
(-0.00300738 -0.00128097 6.50702e-15)
(-0.0126314 0.00919194 -2.58425e-14)
(3.76438e-05 -0.000101306 -9.66503e-15)
(4.53293e-05 -9.70723e-05 1.2194e-14)
(5.24417e-05 -8.55578e-05 -2.61343e-14)
(5.74811e-05 -6.83765e-05 -3.94504e-15)
(5.93403e-05 -4.9665e-05 7.38142e-15)
(5.80049e-05 -3.5295e-05 1.10946e-14)
(5.39161e-05 -2.60762e-05 8.0639e-14)
(4.99075e-05 -2.57258e-05 -1.01462e-13)
(4.78065e-05 -2.80623e-05 -3.28009e-14)
(4.80506e-05 -3.08331e-05 -3.11479e-14)
(5.03129e-05 -3.35132e-05 1.17307e-13)
(5.30142e-05 -3.52007e-05 -4.64459e-14)
(5.47395e-05 -3.50798e-05 -4.56716e-15)
(5.47656e-05 -3.31973e-05 1.85391e-14)
(5.31513e-05 -2.98496e-05 1.77852e-14)
(5.04125e-05 -2.58738e-05 1.20879e-14)
(4.73167e-05 -2.20355e-05 -7.68257e-14)
(4.37489e-05 -1.85383e-05 -2.81418e-14)
(3.97743e-05 -1.5397e-05 3.58171e-14)
(3.54797e-05 -1.28372e-05 1.42873e-15)
(3.12549e-05 -1.09987e-05 3.63862e-14)
(2.72516e-05 -1.03147e-05 -1.03903e-14)
(2.40761e-05 -1.08934e-05 1.50663e-15)
(2.26856e-05 -1.23172e-05 2.42355e-14)
(2.36012e-05 -1.30866e-05 -2.0363e-14)
(2.62876e-05 -1.26996e-05 -6.98989e-15)
(3.03353e-05 -1.10351e-05 6.58226e-15)
(3.49649e-05 -8.326e-06 2.19798e-15)
(3.50189e-05 -3.98521e-06 -1.15821e-18)
(3.14826e-05 -4.28915e-06 -2.57143e-16)
(3.45876e-05 -4.85348e-06 6.37739e-16)
(4.16955e-05 -9.90264e-07 7.498e-17)
(4.8448e-05 -4.32704e-07 -1.08083e-15)
(5.79477e-05 5.10171e-06 5.42562e-17)
(7.7922e-05 3.02966e-05 -3.16313e-15)
(0.000111208 0.000105174 7.24377e-15)
(8.88383e-05 -6.65606e-07 -1.54301e-15)
(0.000211703 -4.80341e-05 -2.47432e-15)
(0.000691121 0.000421345 -4.22936e-14)
(1.91062e-05 -9.73049e-05 1.40114e-15)
(1.17929e-05 -0.000107623 1.51054e-15)
(4.36662e-07 -0.000113757 -9.49557e-16)
(-1.10091e-05 -0.00012085 -1.91882e-15)
(-1.875e-05 -0.000126072 -3.8028e-15)
(-3.23708e-05 -0.000132978 1.65054e-14)
(-4.76682e-05 -0.000133318 1.38751e-14)
(-6.20739e-05 -0.00012789 -5.19116e-14)
(-7.51005e-05 -0.000119081 2.17311e-14)
(-8.50257e-05 -0.000106291 1.11285e-13)
(-9.18217e-05 -9.11392e-05 4.63177e-14)
(-9.65026e-05 -7.8253e-05 2.13134e-14)
(-9.85934e-05 -6.60491e-05 -1.87882e-13)
(-9.83672e-05 -5.39689e-05 -4.29856e-13)
(-9.7318e-05 -4.17151e-05 -3.04037e-13)
(-9.6124e-05 -2.87882e-05 1.20067e-13)
(-9.63229e-05 -1.36227e-05 -7.38523e-14)
(-0.000104263 9.03854e-06 -3.77116e-13)
(-0.000112956 3.12427e-05 -1.94584e-13)
(-0.000127347 5.64118e-05 1.60889e-13)
(-0.000166196 0.00011274 1.60969e-13)
(-0.000129237 0.000339331 -9.3345e-14)
(0.00027841 0.000622787 -3.83134e-14)
(0.00077471 0.000179555 2.39902e-15)
(0.00027134 -0.00102924 -6.09654e-14)
(-0.00121012 -0.00140659 6.32925e-14)
(-0.0021994 -1.63285e-05 7.21979e-15)
(-0.0014526 0.0016035 4.32085e-15)
(0.00064823 0.00168056 -4.41507e-15)
(0.00222143 0.000388775 5.21819e-14)
(0.00106059 -0.000619346 3.49629e-14)
(-0.000265299 -0.000706691 -3.44609e-15)
(-0.00132052 -0.000202099 1.13111e-13)
(-0.000698902 0.000329779 7.80716e-14)
(0.000531687 0.00222791 -4.0453e-14)
(-0.0132168 0.0020463 6.94173e-14)
(-0.00335784 -0.0017222 5.85341e-14)
(-0.00186139 4.04387e-05 -3.50454e-14)
(-0.00729073 0.00821377 -2.77325e-14)
(2.77372e-05 -9.23211e-05 7.39128e-15)
(3.62803e-05 -8.9887e-05 -1.20441e-14)
(4.39527e-05 -7.73897e-05 3.26935e-15)
(5.08827e-05 -6.22796e-05 6.10928e-14)
(5.20222e-05 -5.03115e-05 3.14461e-15)
(5.15216e-05 -3.66713e-05 1.01651e-13)
(4.99233e-05 -2.98009e-05 1.36656e-13)
(4.88656e-05 -2.96869e-05 -5.29997e-14)
(4.8897e-05 -2.99475e-05 -7.25299e-14)
(5.01019e-05 -3.11282e-05 -5.54113e-14)
(5.24677e-05 -3.25498e-05 -1.02164e-13)
(5.47201e-05 -3.33018e-05 -5.52872e-15)
(5.57072e-05 -3.26935e-05 -4.30501e-14)
(5.50139e-05 -3.06584e-05 5.78123e-14)
(5.28008e-05 -2.75385e-05 1.93966e-14)
(4.97555e-05 -2.40203e-05 -3.07512e-14)
(4.65607e-05 -2.07762e-05 -3.26307e-15)
(4.30088e-05 -1.77624e-05 -2.54406e-14)
(3.91251e-05 -1.50179e-05 2.79092e-15)
(3.50244e-05 -1.27098e-05 -1.77681e-14)
(3.10362e-05 -1.11216e-05 -3.338e-14)
(2.73583e-05 -1.0535e-05 1.47958e-14)
(2.4386e-05 -1.1125e-05 -2.76257e-14)
(2.29827e-05 -1.24182e-05 -1.00665e-14)
(2.35728e-05 -1.33463e-05 6.28576e-15)
(2.59697e-05 -1.31746e-05 3.97123e-15)
(2.97339e-05 -1.18438e-05 1.56324e-15)
(3.4206e-05 -9.04666e-06 -1.03508e-15)
(3.45115e-05 -4.78767e-06 -4.35144e-16)
(3.14817e-05 -4.36575e-06 -7.72645e-17)
(3.42976e-05 -4.90384e-06 -1.03052e-15)
(4.11874e-05 -1.55976e-06 5.53559e-16)
(4.80131e-05 -2.75702e-07 3.06436e-15)
(5.59288e-05 3.74259e-06 5.125e-17)
(6.99012e-05 -6.30359e-07 2.4981e-15)
(7.74468e-05 -3.03129e-07 -3.42321e-15)
(0.000127016 -2.20798e-05 -6.46723e-15)
(0.000231093 5.76202e-05 3.78681e-15)
(0.000300871 0.000598465 -2.25907e-14)
(1.68504e-05 -8.91646e-05 2.41731e-15)
(9.79154e-06 -9.92807e-05 4.02435e-15)
(1.79319e-07 -0.000108821 -1.76074e-16)
(-1.20461e-05 -0.000112712 2.33676e-19)
(-2.09431e-05 -0.000113394 -2.54025e-15)
(-3.27149e-05 -0.000122697 -6.73419e-15)
(-4.69218e-05 -0.000122026 -4.93856e-15)
(-6.09556e-05 -0.000118575 -5.23682e-14)
(-7.27988e-05 -0.000110155 -1.00714e-15)
(-8.13249e-05 -9.66518e-05 1.92803e-14)
(-8.79067e-05 -8.22969e-05 -2.32914e-14)
(-9.4165e-05 -7.00333e-05 1.41246e-13)
(-9.64494e-05 -5.89842e-05 1.49071e-13)
(-9.6482e-05 -4.73631e-05 2.6949e-14)
(-9.51765e-05 -3.51679e-05 2.76872e-13)
(-9.35459e-05 -2.21863e-05 -5.76107e-14)
(-9.19671e-05 -8.14102e-06 -7.29835e-16)
(-9.38028e-05 7.11824e-06 2.14469e-13)
(-0.000101441 2.83052e-05 9.99261e-14)
(-0.000109572 5.62771e-05 -2.94234e-14)
(-0.000124678 0.000107155 -1.21911e-13)
(-7.48012e-05 0.000256276 -1.15867e-14)
(0.000215166 0.0004169 -9.366e-14)
(0.000538115 7.26867e-05 -8.10383e-14)
(0.00015963 -0.00080086 4.88757e-14)
(-0.000931867 -0.0010527 -3.10924e-14)
(-0.00152199 6.65102e-07 -5.64898e-14)
(-0.000770822 0.00123047 6.45117e-15)
(0.000607441 0.00129484 -3.11526e-15)
(0.00128177 0.000343047 -3.83234e-15)
(0.000897846 -0.000521642 8.20604e-14)
(1.78271e-05 -0.000602898 -2.93313e-14)
(-0.000788536 -0.00021279 -3.90396e-14)
(-0.000976878 0.000189161 2.27058e-13)
(-0.0010272 0.000569734 3.70738e-14)
(-0.00861468 0.00538355 -8.2352e-14)
(0.00617931 -0.00278663 -1.57879e-14)
(-0.0139791 0.00946738 2.61612e-14)
(-0.00349935 0.00683934 -4.96357e-15)
(2.45685e-05 -8.49607e-05 -1.31444e-14)
(3.16436e-05 -8.08201e-05 -3.10177e-14)
(3.97546e-05 -7.08508e-05 5.06889e-14)
(4.13851e-05 -6.03208e-05 9.71644e-14)
(4.53069e-05 -4.75642e-05 6.43189e-14)
(4.65532e-05 -3.78316e-05 -1.65789e-13)
(4.66221e-05 -3.37186e-05 -1.14058e-13)
(4.68505e-05 -3.20765e-05 -3.87775e-14)
(4.83849e-05 -3.05952e-05 7.08572e-14)
(5.08161e-05 -3.08508e-05 7.3203e-14)
(5.34392e-05 -3.1529e-05 2.72944e-14)
(5.56597e-05 -3.16526e-05 2.50398e-14)
(5.62664e-05 -3.05616e-05 -2.67405e-14)
(5.51623e-05 -2.82507e-05 -8.73374e-14)
(5.25803e-05 -2.52304e-05 1.34148e-14)
(4.93543e-05 -2.21229e-05 2.7094e-14)
(4.60384e-05 -1.93677e-05 1.84378e-14)
(4.24584e-05 -1.67723e-05 5.10859e-14)
(3.86135e-05 -1.44219e-05 -2.84807e-14)
(3.46657e-05 -1.23381e-05 -2.12613e-14)
(3.09064e-05 -1.10011e-05 -1.53181e-14)
(2.74874e-05 -1.05138e-05 -3.15587e-15)
(2.47233e-05 -1.10864e-05 2.46382e-14)
(2.32698e-05 -1.22826e-05 1.6455e-14)
(2.36247e-05 -1.33138e-05 1.90875e-14)
(2.56828e-05 -1.34552e-05 6.47007e-15)
(2.91946e-05 -1.24347e-05 2.82497e-17)
(3.33931e-05 -9.86516e-06 2.21315e-15)
(3.39664e-05 -5.44655e-06 -3.08462e-16)
(3.13803e-05 -4.61447e-06 3.02124e-16)
(3.40252e-05 -4.76472e-06 -3.79826e-16)
(4.07528e-05 -1.4833e-06 3.18568e-17)
(4.79279e-05 -4.06929e-08 -1.76008e-15)
(5.61075e-05 2.88049e-06 4.24012e-16)
(6.8225e-05 4.54688e-06 4.6306e-15)
(8.04331e-05 1.34895e-05 -1.09983e-15)
(0.000128162 5.99937e-06 8.89008e-16)
(0.000251829 3.15352e-05 -8.14329e-15)
(0.000651512 0.000195785 7.93276e-15)
(1.54809e-05 -8.24494e-05 -2.94633e-15)
(9.31386e-06 -9.16141e-05 1.78893e-16)
(1.61292e-06 -0.000101431 -1.65406e-15)
(-1.00343e-05 -0.000107825 -1.5231e-15)
(-2.18009e-05 -0.000105969 9.00198e-15)
(-3.30357e-05 -0.00010483 -2.93907e-15)
(-4.52756e-05 -0.000109621 2.92743e-14)
(-5.84867e-05 -0.0001081 2.04787e-14)
(-6.85367e-05 -0.000101143 5.16009e-15)
(-7.81953e-05 -8.98511e-05 -1.70687e-15)
(-8.46494e-05 -7.50117e-05 7.12003e-15)
(-9.05399e-05 -6.38841e-05 -3.14154e-14)
(-9.434e-05 -5.38667e-05 -1.37085e-13)
(-9.39286e-05 -4.25516e-05 3.64127e-14)
(-9.24967e-05 -3.07352e-05 1.88141e-14)
(-8.99757e-05 -1.84483e-05 5.2527e-14)
(-8.74983e-05 -5.10838e-06 -4.53474e-16)
(-8.79264e-05 1.11415e-05 -9.40643e-14)
(-9.45127e-05 3.31113e-05 -1.38998e-13)
(-9.78374e-05 6.0859e-05 -1.19687e-13)
(-9.98618e-05 0.000104939 -6.96971e-14)
(-4.91394e-05 0.000203802 -5.64247e-14)
(0.000158994 0.000280082 1.91328e-14)
(0.000369406 -1.26532e-05 6.72243e-14)
(7.10306e-05 -0.000659609 -3.61853e-14)
(-0.000742592 -0.000822435 -1.37662e-14)
(-0.00116719 1.03383e-05 4.44593e-14)
(-0.000557792 0.000985973 2.1051e-15)
(0.000498921 0.00103609 2.45308e-14)
(0.000952534 0.000241883 -3.0576e-14)
(0.000564794 -0.000475712 -1.01144e-13)
(-7.66541e-05 -0.000541454 -5.51587e-14)
(-0.000557182 -0.000212337 3.49532e-14)
(-0.000732521 0.000117686 -1.50199e-14)
(-0.000454165 0.000258693 2.03723e-14)
(0.000955038 -0.000589924 3.04295e-14)
(-0.00125828 -0.000782112 5.40655e-15)
(-0.00279909 0.00062336 -1.68841e-14)
(0.000676548 0.00368042 4.25687e-14)
(2.14006e-05 -7.77251e-05 -2.40514e-14)
(2.8126e-05 -7.42637e-05 1.5062e-14)
(3.34633e-05 -6.73113e-05 4.42746e-14)
(3.67594e-05 -5.65875e-05 1.44969e-14)
(3.84821e-05 -4.50771e-05 1.02133e-13)