/*--------------------------------*- C++ -*----------------------------------*\
| =========                 |                                                 |
| \\      /  F ield         | OpenFOAM: The Open Source CFD Toolbox           |
|  \\    /   O peration     | Version:  2306                                  |
|   \\  /    A nd           | Website:  www.openfoam.com                      |
|    \\/     M anipulation  |                                                 |
\*---------------------------------------------------------------------------*/
FoamFile
{
    version     2.0;
    format      ascii;
    arch        "LSB;label=32;scalar=64";
    class       volScalarField;
    location    "600";
    object      turbulenceProperties:epsilon;
}
// * * * * * * * * * * * * * * * * * * * * * * * * * * * * * * * * * * * * * //

dimensions      [0 2 -3 0 0 0 0];

internalField   nonuniform List<scalar> 
1340
(
978.922
912.871
836.94
619.382
1.34803
1.59538
2.20744
4.09713
0.110647
0.177006
0.222093
0.549894
0.000864864
0.00493386
0.0189511
0.139796
3.45513e-05
7.74487e-05
0.000256358
0.0150685
2.29519e-06
9.62157e-06
5.13677e-05
0.00112339
3.18704e-08
6.60055e-10
8.80314e-13
2.66106e-05
2.6251e-07
1.3936e-07
1.1288e-09
1.90849e-07
4.56556e-07
5.24149e-07
5.97438e-07
3.95717e-10
3.23665e-07
3.14153e-07
8.75346e-07
1.3589e-07
3.31724e-07
3.28935e-07
6.58862e-07
1.03266e-06
2.85483e-07
2.91865e-07
4.81961e-07
1.23028e-06
2.6416e-07
2.71698e-07
4.08731e-07
1.03855e-06
2.35568e-07
2.39773e-07
3.50329e-07
8.40633e-07
2.11249e-07
2.12743e-07
2.99842e-07
6.83972e-07
1.8664e-07
1.85898e-07
2.53533e-07
5.5586e-07
1.63644e-07
1.61122e-07
2.12869e-07
4.48991e-07
1.41811e-07
1.37899e-07
1.77254e-07
3.60077e-07
1.21487e-07
1.16547e-07
1.46248e-07
2.86608e-07
1.02734e-07
9.70942e-08
1.19501e-07
2.26644e-07
8.5655e-08
7.9612e-08
9.6532e-08
1.77936e-07
7.02997e-08
6.41373e-08
7.7006e-08
1.38716e-07
5.66985e-08
5.06338e-08
6.0569e-08
1.07424e-07
4.48482e-08
3.90646e-08
4.68657e-08
8.25937e-08
3.47015e-08
2.93309e-08
3.56166e-08
6.30968e-08
2.61891e-08
2.13191e-08
2.65171e-08
4.78941e-08
1.92113e-08
1.48892e-08
1.92966e-08
3.61619e-08
1.36445e-08
9.87898e-09
1.36913e-08
2.71932e-08
9.34571e-09
6.11878e-09
9.46112e-09
2.04175e-08
6.16148e-09
3.43261e-09
6.37913e-09
1.53695e-08
3.9298e-09
1.64197e-09
4.23794e-09
1.16665e-08
2.48926e-09
5.79803e-10
2.84764e-09
9.0032e-09
1.68312e-09
8.70666e-11
2.04068e-09
7.13243e-09
1.36405e-09
1.98281e-11
1.67093e-09
5.8565e-09
1.3986e-09
2.51301e-10
1.61247e-09
5.01723e-09
1.66982e-09
6.73327e-10
1.76079e-09
4.49055e-09
2.07921e-09
1.19658e-09
2.0313e-09
4.17905e-09
2.54682e-09
1.75077e-09
2.35766e-09
4.00763e-09
4.81734e-09
3.01131e-09
2.28263e-09
2.69009e-09
3.91966e-09
4.96363e-09
3.42842e-09
2.75481e-09
2.99308e-09
3.87319e-09
5.07475e-09
3.7692e-09
3.14392e-09
3.2436e-09
3.8388e-09
5.12783e-09
4.01787e-09
3.43759e-09
3.42825e-09
3.79633e-09
5.11163e-09
4.16913e-09
3.63299e-09
3.54218e-09
3.73387e-09
5.02436e-09
4.22565e-09
3.73376e-09
3.586e-09
3.64514e-09
4.87098e-09
4.19599e-09
3.74867e-09
3.56461e-09
3.52796e-09
4.66062e-09
4.09224e-09
3.68965e-09
3.48648e-09
3.38415e-09
4.40483e-09
3.92819e-09
3.56958e-09
3.36068e-09
3.21694e-09
4.11616e-09
3.71826e-09
3.40217e-09
3.19738e-09
3.0308e-09
3.80627e-09
3.47576e-09
3.2002e-09
3.00651e-09
2.83124e-09
3.48581e-09
3.2126e-09
2.97475e-09
2.79669e-09
2.62287e-09
3.16339e-09
2.93889e-09
2.73568e-09
2.5757e-09
2.41034e-09
2.84576e-09
2.66231e-09
2.49052e-09
2.34971e-09
2.19735e-09
2.69391e-09
2.53796e-09
2.38907e-09
2.24539e-09
2.12369e-09
1.98692e-09
2.36714e-09
2.2438e-09
2.12386e-09
2.00498e-09
1.90168e-09
1.78166e-09
2.06354e-09
1.96658e-09
1.87073e-09
1.77349e-09
1.68727e-09
1.58393e-09
1.78508e-09
1.70935e-09
1.63342e-09
1.55472e-09
1.48393e-09
1.39639e-09
1.53373e-09
1.47495e-09
1.41528e-09
1.35222e-09
1.29494e-09
1.22175e-09
1.3108e-09
1.26543e-09
1.21883e-09
1.16868e-09
1.12288e-09
1.0623e-09
1.11602e-09
1.08111e-09
1.0449e-09
1.00525e-09
9.6898e-10
9.19282e-10
9.47069e-10
9.20261e-10
8.92214e-10
8.61067e-10
8.3259e-10
7.92225e-10
8.00096e-10
7.7956e-10
7.57956e-10
7.33676e-10
7.11567e-10
6.79233e-10
6.85757e-10
6.70949e-10
6.55287e-10
6.38784e-10
6.20101e-10
6.03246e-10
5.77806e-10
5.68015e-10
5.56783e-10
5.44949e-10
5.32525e-10
5.1841e-10
5.05905e-10
4.863e-10
4.64787e-10
4.56316e-10
4.47479e-10
4.38283e-10
4.27834e-10
4.18885e-10
4.04082e-10
3.75978e-10
3.6964e-10
3.63126e-10
3.56437e-10
3.48855e-10
3.42733e-10
3.31733e-10
3.01276e-10
2.96553e-10
2.91788e-10
2.86996e-10
2.8158e-10
2.77558e-10
2.69411e-10
2.40759e-10
2.37208e-10
2.33715e-10
2.30337e-10
2.26581e-10
2.24136e-10
2.18336e-10
1.95654e-10
1.92788e-10
1.90047e-10
1.87499e-10
1.84731e-10
1.83223e-10
1.79143e-10
1.62758e-10
1.60272e-10
1.57945e-10
1.5582e-10
1.5355e-10
1.52467e-10
1.49322e-10
1.35754e-10
1.33532e-10
1.31469e-10
1.29613e-10
1.2768e-10
1.26828e-10
1.24356e-10
1.12028e-10
1.10066e-10
1.08247e-10
1.06644e-10
1.05006e-10
1.04322e-10
1.02377e-10
9.27129e-11
9.06389e-11
8.87791e-11
8.71147e-11
8.5716e-11
8.44059e-11
8.40698e-11
8.32875e-11
7.32853e-11
7.1082e-11
6.90457e-11
6.71934e-11
6.55767e-11
6.4074e-11
6.30873e-11
6.15003e-11
5.20564e-11
5.0094e-11
4.84302e-11
4.70704e-11
4.60891e-11
4.54948e-11
4.62907e-11
4.81767e-11
2.8573e-11
2.58005e-11
2.33923e-11
2.13677e-11
1.97053e-11
1.83628e-11
1.73138e-11
1.58078e-11
1.82911e-11
1.7635e-11
1.74514e-11
1.77777e-11
1.88602e-11
2.08869e-11
2.61318e-11
3.49206e-11
2.27704e-11
2.25346e-11
2.22441e-11
2.1838e-11
2.15231e-11
2.28151e-11
3.16247e-11
4.2745e-11
1.6535e-10
1.77898e-10
1.89193e-10
1.99932e-10
2.12713e-10
2.32316e-10
2.84318e-10
3.31563e-10
5.83322e-10
5.8696e-10
5.89577e-10
5.91351e-10
5.92577e-10
5.9658e-10
6.20918e-10
5.63849e-10
2.12893e-09
2.13037e-09
2.12805e-09
2.12359e-09
2.11406e-09
2.1092e-09
2.07498e-09
1.78596e-09
38.7255
4.31155
0.464057
0.0822788
0.00852229
0.000370238
2.69187e-05
2.52941e-07
7.36183e-10
4.16051e-07
1.36932e-06
1.37449e-06
1.1331e-06
9.25617e-07
7.6152e-07
6.25651e-07
5.10932e-07
4.1469e-07
3.34728e-07
2.68634e-07
2.14453e-07
1.70343e-07
1.34682e-07
1.06058e-07
8.32208e-08
6.51351e-08
5.09065e-08
3.97842e-08
3.11486e-08
2.44887e-08
1.9387e-08
1.55053e-08
1.25692e-08
1.03623e-08
8.71172e-09
7.48021e-09
6.56099e-09
5.87049e-09
5.34401e-09
4.93257e-09
4.59906e-09
4.316e-09
4.06418e-09
3.82991e-09
3.60437e-09
3.38264e-09
3.1622e-09
2.94225e-09
2.72368e-09
2.5073e-09
2.29468e-09
2.087e-09
1.88535e-09
1.6909e-09
1.50491e-09
1.32917e-09
1.16572e-09
1.01643e-09
8.8225e-10
7.62679e-10
6.55972e-10
5.59828e-10
4.728e-10
3.94355e-10
3.25111e-10
2.65135e-10
2.15918e-10
1.77911e-10
1.48846e-10
1.24353e-10
1.02589e-10
8.40332e-11
6.16397e-11
5.03726e-11
1.52234e-11
4.153e-11
3.53865e-11
3.19768e-10
4.40103e-10
1.40815e-09
11.8471
2.14672
0.15501
0.00939293
0.000479946
2.39215e-05
2.95071e-06
3.1516e-12
2.25616e-09
3.05458e-07
4.6888e-07
4.43099e-07
3.91466e-07
3.48006e-07
3.10318e-07
2.75301e-07
2.4242e-07
2.11693e-07
1.83521e-07
1.57876e-07
1.34829e-07
1.14318e-07
9.62562e-08
8.05889e-08
6.7109e-08
5.56296e-08
4.59643e-08
3.79055e-08
3.12385e-08
2.57718e-08
2.13217e-08
1.77233e-08
1.4829e-08
1.25111e-08
1.06618e-08
9.18613e-09
8.00856e-09
7.06471e-09
6.30199e-09
5.67879e-09
5.16146e-09
4.72298e-09
4.34367e-09
4.00738e-09
3.7028e-09
3.4218e-09
3.15865e-09
2.90969e-09
2.67273e-09
2.44621e-09
2.22954e-09
2.02218e-09
1.82382e-09
1.63453e-09
1.45486e-09
1.28595e-09
1.12931e-09
9.86474e-10
8.58033e-10
7.43353e-10
6.407e-10
5.47923e-10
4.63715e-10
3.87691e-10
3.20506e-10
2.62156e-10
2.14088e-10
1.76695e-10
1.48118e-10
1.24061e-10
1.02511e-10
8.41512e-11
6.17103e-11
5.09557e-11
1.49414e-11
4.56947e-11
2.71223e-11
3.22148e-10
4.32131e-10
1.47344e-09
4.67929
0.917183
0.0458206
0.000790211
1.7744e-05
2.84849e-06
4.06167e-08
2.23648e-13
3.02983e-08
1.74377e-07
1.69738e-07
1.52845e-07
1.36575e-07
1.23802e-07
1.12631e-07
1.02295e-07
9.27607e-08
8.39196e-08
7.57029e-08
6.81874e-08
6.12474e-08
5.48658e-08
4.89744e-08
4.35955e-08
3.86811e-08
3.41901e-08
3.01201e-08
2.64575e-08
2.31734e-08
2.02553e-08
1.76812e-08
1.54278e-08
1.34708e-08
1.17828e-08
1.03365e-08
9.10204e-09
8.05296e-09
7.16204e-09
6.40471e-09
5.75846e-09
5.20405e-09
4.72381e-09
4.30385e-09
3.93189e-09
3.59843e-09
3.29611e-09
3.01883e-09
2.76252e-09
2.52379e-09
2.3002e-09
2.09001e-09
1.89171e-09
1.7042e-09
1.52678e-09
1.35948e-09
1.20293e-09
1.05816e-09
9.26334e-10
8.07749e-10
7.01651e-10
6.06344e-10
5.19878e-10
4.41121e-10
3.69827e-10
3.06702e-10
2.51717e-10
2.06207e-10
1.70606e-10
1.43465e-10
1.20689e-10
1.00057e-10
8.24344e-11
6.06705e-11
5.03447e-11
1.53305e-11
4.74921e-11
2.36393e-11
3.16901e-10
4.1497e-10
1.48075e-09
1.90031
0.289748
0.00651486
1.14488e-05
2.32751e-06
9.92028e-14
3.25618e-12
2.08471e-09
5.47858e-08
8.48376e-08
7.36638e-08
6.83108e-08
6.31982e-08
5.90113e-08
5.49357e-08
5.09438e-08
4.71529e-08
4.35387e-08
4.01139e-08
3.6935e-08
3.39456e-08
3.11781e-08
2.86012e-08
2.6203e-08
2.39821e-08
2.19181e-08
1.99971e-08
1.82148e-08
1.656e-08
1.50277e-08
1.3612e-08
1.23079e-08
1.11143e-08
1.00254e-08
9.03771e-09
8.14736e-09
7.34792e-09
6.63322e-09
5.99642e-09
5.42933e-09
4.92488e-09
4.47541e-09
4.0732e-09
3.71206e-09
3.38604e-09
3.09006e-09
2.8196e-09
2.57137e-09
2.34225e-09
2.12977e-09
1.93197e-09
1.74691e-09
1.57324e-09
1.40994e-09
1.2566e-09
1.11359e-09
9.81629e-10
8.61513e-10
7.53373e-10
6.56389e-10
5.68933e-10
4.89257e-10
4.16414e-10
3.50251e-10
2.91529e-10
2.40209e-10
1.97554e-10
1.64071e-10
1.38569e-10
1.17163e-10
9.75513e-11
8.07684e-11
5.97997e-11
4.99189e-11
1.62561e-11
4.88141e-11
2.21534e-11
3.10569e-10
3.94093e-10
1.45914e-09
0.601886
0.0484836
0.000126696
5.60649e-06
0
3.56194e-14
2.44866e-11
1.62772e-08
4.7229e-08
4.50181e-08
4.04439e-08
3.91033e-08
3.76371e-08
3.6373e-08
3.49634e-08
3.34848e-08
3.19467e-08
3.03347e-08
2.86951e-08
2.70339e-08
2.53566e-08
2.36937e-08
2.20708e-08
2.04805e-08
1.89492e-08
1.74957e-08
1.61105e-08
1.48079e-08
1.35896e-08
1.24535e-08
1.13989e-08
1.04215e-08
9.52095e-09
8.69034e-09
7.92663e-09
7.22769e-09
6.58719e-09
6.0028e-09
5.47008e-09
4.98489e-09
4.54433e-09
4.14385e-09
3.77927e-09
3.44779e-09
3.14555e-09
2.86941e-09
2.61639e-09
2.38407e-09
2.17005e-09
1.97219e-09
1.78871e-09
1.61767e-09
1.45775e-09
1.30787e-09
1.16743e-09
1.03666e-09
9.16103e-10
8.06316e-10
7.07299e-10
6.18218e-10
5.37556e-10
4.63757e-10
3.9604e-10
3.34331e-10
2.79429e-10
2.31274e-10
1.91063e-10
1.59372e-10
1.35235e-10
1.14916e-10
9.61085e-11
7.99862e-11
5.96376e-11
5.01775e-11
1.75669e-11
5.09573e-11
2.11065e-11
3.10845e-10
3.83368e-10
1.4564e-09
0.109471
0.00240313
1.18715e-06
2.80785e-07
6.16019e-17
4.49907e-14
5.11836e-09
2.77908e-08
3.21088e-08
2.77403e-08
2.64283e-08
2.59627e-08
2.53249e-08
2.46964e-08
2.39655e-08
2.32001e-08
2.23708e-08
2.14916e-08
2.05912e-08
1.96587e-08
1.8707e-08
1.77413e-08
1.6778e-08
1.58105e-08
1.48529e-08
1.39159e-08
1.2993e-08
1.21002e-08
1.12393e-08
1.04136e-08
9.62815e-09
8.88371e-09
8.18479e-09
7.52953e-09
6.91838e-09
6.35198e-09
5.82659e-09
5.34214e-09
4.89524e-09
4.48371e-09
4.10599e-09
3.75848e-09
3.43897e-09
3.14581e-09
2.87606e-09
2.62803e-09
2.39958e-09
2.18902e-09
1.99463e-09
1.8147e-09
1.64779e-09
1.49221e-09
1.34682e-09
1.2106e-09
1.08299e-09
9.64169e-10
8.54575e-10
7.54621e-10
6.64222e-10
5.82574e-10
5.08301e-10
4.40041e-10
3.77161e-10
3.19684e-10
2.68413e-10
2.23255e-10
1.8533e-10
1.55311e-10
1.32454e-10
1.13135e-10
9.50746e-11
7.95587e-11
5.97875e-11
5.0777e-11
1.91204e-11
5.36211e-11
1.99023e-11
3.13624e-10
0.00572087
1.41296e-06
2.56274e-07
6.76055e-10
2.81429e-12
1.62062e-09
1.48667e-08
1.95335e-08
1.7374e-08
1.60221e-08
1.60069e-08
1.59392e-08
1.57837e-08
1.55955e-08
1.53415e-08
1.5056e-08
1.47149e-08
1.43275e-08
1.39101e-08
1.34569e-08
1.29775e-08
1.24736e-08
1.19489e-08
1.14128e-08
1.08713e-08
1.0323e-08
9.77322e-09
9.2313e-09
8.69486e-09
8.16898e-09
7.65671e-09
7.15883e-09
6.67932e-09
6.21888e-09
5.77878e-09
5.36065e-09
4.9644e-09
4.5914e-09
4.24037e-09
3.91165e-09
3.6049e-09
3.31832e-09
3.05179e-09
2.80401e-09
2.57354e-09
2.35984e-09
2.16138e-09
1.97725e-09
1.80633e-09
1.6474e-09
1.49946e-09
1.36119e-09
1.23167e-09
1.11005e-09
9.95975e-10
8.89556e-10
7.91203e-10
7.0128e-10
6.19638e-10
5.45551e-10
4.778e-10
4.15229e-10
3.57335e-10
3.04238e-10
2.56741e-10
2.14699e-10
1.79163e-10
1.50921e-10
1.29437e-10
1.1118e-10
9.39404e-11
7.90886e-11
5.99679e-11
5.14866e-11
2.0876e-11
5.63907e-11
5.34196e-06
3.39022e-06
7.01168e-16
6.00115e-13
4.26331e-10
8.34274e-09
1.19755e-08
1.08316e-08
9.8854e-09
9.82318e-09
9.9793e-09
1.00145e-08
1.00181e-08
9.99021e-09
9.9243e-09
9.83037e-09
9.70086e-09
9.54057e-09
9.35506e-09
9.14266e-09
8.90813e-09
8.65377e-09
8.37921e-09
8.09152e-09
7.79426e-09
7.48483e-09
7.16897e-09
6.85066e-09
6.52886e-09
6.2075e-09
5.88822e-09
5.57151e-09
5.26045e-09
4.95567e-09
4.65801e-09
4.36917e-09
4.08956e-09
3.82051e-09
3.56207e-09
3.31499e-09
3.07977e-09
2.85612e-09
2.64455e-09
2.44467e-09
2.25622e-09
2.07931e-09
1.91313e-09
1.75751e-09
1.61182e-09
1.4754e-09
1.34761e-09
1.22756e-09
1.11457e-09
1.00804e-09
9.07769e-10
8.13931e-10
7.26899e-10
6.4702e-10
5.74148e-10
5.07647e-10
4.46463e-10
3.89648e-10
3.36839e-10
2.88211e-10
2.4458e-10
2.05737e-10
1.72678e-10
1.46312e-10
1.26266e-10
1.09116e-10
9.27589e-11
7.86169e-11
6.02239e-11
5.23343e-11
3.84452e-06
0
3.40925e-15
2.27872e-12
5.42607e-09
7.83625e-09
7.07182e-09
6.4366e-09
6.39295e-09
6.56813e-09
6.6906e-09
6.76215e-09
6.81645e-09
6.84432e-09
6.84745e-09
6.82599e-09
6.77943e-09
6.71166e-09
6.62282e-09
6.51358e-09
6.3861e-09
6.24341e-09
6.08737e-09
5.91745e-09
5.73873e-09
5.5518e-09
5.35736e-09
5.15796e-09
4.95459e-09
4.74907e-09
4.54161e-09
4.3335e-09
4.12705e-09
3.92122e-09
3.71777e-09
3.51788e-09
3.32135e-09
3.1294e-09
2.94239e-09
2.76068e-09
2.5849e-09
2.41541e-09
2.25235e-09
2.0961e-09
1.94679e-09
1.8047e-09
1.66959e-09
1.54169e-09
1.42075e-09
1.30651e-09
1.19864e-09
1.09654e-09
9.99856e-10
9.08182e-10
8.21433e-10
7.39862e-10
6.63851e-10
5.93706e-10
5.2934e-10
4.70216e-10
4.1545e-10
3.64285e-10
3.16495e-10
2.72295e-10
2.32496e-10
1.96832e-10
1.66254e-10
1.41791e-10
1.23184e-10
1.07136e-10
9.16828e-11
0
0
5.50221e-12
2.66482e-09
5.59501e-09
4.56182e-09
4.23591e-09
4.21625e-09
4.37002e-09
4.50981e-09
4.60582e-09
4.68623e-09
4.75239e-09
4.79927e-09
4.82907e-09
4.84279e-09
4.83791e-09
4.81625e-09
4.77921e-09
4.72691e-09
4.66071e-09
4.58192e-09
4.49243e-09
4.39212e-09
4.28382e-09
4.16855e-09
4.0462e-09
3.91911e-09
3.78795e-09
3.65386e-09
3.51651e-09
3.37763e-09
3.23849e-09
3.0978e-09
2.9576e-09
2.81819e-09
2.67955e-09
2.54269e-09
2.40767e-09
2.27498e-09
2.14507e-09
2.01817e-09
1.89467e-09
1.77481e-09
1.65884e-09
1.54717e-09
1.43977e-09
1.33698e-09
1.2388e-09
1.14517e-09
1.05597e-09
9.70856e-10
8.89648e-10
8.12082e-10
7.38234e-10
6.68349e-10
6.02828e-10
5.41972e-10
4.85728e-10
4.33676e-10
3.85103e-10
3.39428e-10
2.96529e-10
2.56668e-10
2.20627e-10
1.88087e-10
0
1.56402e-12
1.17917e-09
3.69491e-09
3.05728e-09
2.7474e-09
2.81259e-09
2.92641e-09
3.05037e-09
3.14313e-09
3.22211e-09
3.29286e-09
3.35169e-09
3.39879e-09
3.43318e-09
3.45655e-09
3.46749e-09
3.46573e-09
3.45358e-09
3.4307e-09
3.39812e-09
3.35623e-09
3.30627e-09
3.2488e-09
3.18517e-09
3.11577e-09
3.04084e-09
2.96204e-09
2.87945e-09
2.79381e-09
2.70521e-09
2.6145e-09
2.52234e-09
2.42836e-09
2.33359e-09
2.23816e-09
2.14222e-09
2.04644e-09
1.95073e-09
1.85557e-09
1.76133e-09
1.66809e-09
1.57628e-09
1.48607e-09
1.39776e-09
1.31175e-09
1.22808e-09
1.14716e-09
1.06906e-09
9.93847e-10
9.21546e-10
8.51953e-10
7.84995e-10
7.2053e-10
6.58692e-10
5.99737e-10
5.44057e-10
4.91943e-10
4.43382e-10
3.98062e-10
3.55429e-10
1.29833e-12
6.2131e-10
2.54618e-09
2.05801e-09
1.82856e-09
1.89605e-09
2.00161e-09
2.09396e-09
2.17446e-09
2.2423e-09
2.30512e-09
2.36122e-09
2.4089e-09
2.44891e-09
2.47942e-09
2.50224e-09
2.51656e-09
2.52181e-09
2.51996e-09
2.51044e-09
2.49414e-09
2.47119e-09
2.44281e-09
2.40907e-09
2.37085e-09
2.32861e-09
2.2824e-09
2.23334e-09
2.1814e-09
2.127e-09
2.07026e-09
2.01175e-09
1.95163e-09
1.88977e-09
1.82684e-09
1.76277e-09
1.6977e-09
1.63206e-09
1.56565e-09
1.49887e-09
1.43198e-09
1.36497e-09
1.29811e-09
1.23167e-09
1.16583e-09
1.10091e-09
1.03706e-09
9.74613e-10
9.1373e-10
8.54508e-10
7.97056e-10
7.41236e-10
6.87048e-10
6.34437e-10
6.6309e-10
1.35428e-09
1.47947e-09
1.22989e-09
1.3111e-09
1.39405e-09
1.46537e-09
1.52674e-09
1.58255e-09
1.63339e-09
1.68157e-09
1.72389e-09
1.76032e-09
1.79158e-09
1.81641e-09
1.83572e-09
1.84891e-09
1.85614e-09
1.8582e-09
1.85499e-09
1.84702e-09
1.83466e-09
1.81808e-09
1.79801e-09
1.77488e-09
1.74856e-09
1.71977e-09
1.6888e-09
1.65577e-09
1.62091e-09
1.58432e-09
1.54647e-09
1.50713e-09
1.4665e-09
1.42495e-09
1.38215e-09
1.33849e-09
1.29393e-09
1.24844e-09
1.20233e-09
1.15553e-09
1.10814e-09
)
;

boundaryField
{
    inlet
    {
        type            calculated;
        value           nonuniform List<scalar> 
13
(
2.22039e-08
2.28021e-08
2.33346e-08
2.38195e-08
2.42942e-08
2.47898e-08
2.54402e-08
2.56316e-08
2.51526e-08
2.487e-08
2.45024e-08
2.41872e-08
2.39314e-08
)
;
    }
    outlet
    {
        type            calculated;
        value           nonuniform List<scalar> 0();
    }
    walls
    {
        type            calculated;
        value           uniform 0;
    }
    frontAndBack
    {
        type            empty;
    }
    procBoundary2to1
    {
        type            processor;
        value           nonuniform List<scalar> 
84
(
1025.39
1.13459
0.059848
6.81351e-05
1.07836e-05
1.54788e-07
4.25044e-07
3.75346e-07
4.4779e-07
3.40773e-07
3.403e-07
3.0322e-07
2.82407e-07
2.5579e-07
2.32024e-07
2.08123e-07
1.85361e-07
1.63495e-07
1.42798e-07
1.23401e-07
1.05419e-07
8.89486e-08
7.40708e-08
6.08318e-08
4.92353e-08
3.92549e-08
3.08329e-08
2.38806e-08
1.82805e-08
1.3899e-08
1.05858e-08
8.18235e-09
6.53154e-09
5.48072e-09
4.88857e-09
4.62689e-09
4.58566e-09
4.67333e-09
4.67333e-09
7.57584e-09
7.2575e-09
6.97684e-09
6.70045e-09
6.40803e-09
6.08979e-09
5.74372e-09
5.37309e-09
4.98464e-09
4.58632e-09
4.18621e-09
3.79174e-09
3.40881e-09
3.04186e-09
3.04186e-09
2.85415e-09
2.49212e-09
2.16052e-09
1.85994e-09
1.5912e-09
1.35472e-09
1.1495e-09
9.72571e-10
8.1953e-10
8.1953e-10
6.9995e-10
5.7885e-10
4.73052e-10
3.82268e-10
3.06072e-10
2.44445e-10
1.98677e-10
1.65423e-10
1.38155e-10
1.14163e-10
1.14163e-10
9.49718e-11
7.56261e-11
5.43153e-11
3.16705e-11
1.94156e-11
2.30949e-11
1.51631e-10
5.78019e-10
2.12197e-09
)
;
    }
    procBoundary2to3
    {
        type            processor;
        value           nonuniform List<scalar> 
88
(
3.77902e-10
1.46189e-09
1.88298e-11
3.77902e-10
3.1628e-10
2.28791e-11
1.88298e-11
5.91617e-11
7.82577e-11
6.06481e-11
2.28791e-11
5.33824e-11
1.59971e-10
1.37408e-10
1.20224e-10
1.05262e-10
7.82577e-11
9.07251e-11
3.15056e-10
2.76912e-10
2.41283e-10
2.08917e-10
1.59971e-10
1.79442e-10
5.8353e-10
5.34584e-10
4.87967e-10
4.43949e-10
4.02554e-10
3.63567e-10
3.15056e-10
3.26571e-10
1.06033e-09
1.01228e-09
9.64069e-10
9.1594e-10
8.68163e-10
8.20887e-10
7.74317e-10
7.28595e-10
6.83807e-10
6.39904e-10
5.96873e-10
5.8353e-10
5.54698e-10
1.0772e-09
8.65547e-10
9.10982e-10
9.10613e-10
9.94938e-10
1.04181e-09
1.08897e-09
1.13089e-09
1.17127e-09
1.20902e-09
1.2438e-09
1.27451e-09
1.3012e-09
1.32466e-09
1.34348e-09
1.35823e-09
1.36896e-09
1.37581e-09
1.37901e-09
1.37861e-09
1.37486e-09
1.36817e-09
1.35877e-09
1.34687e-09
1.33268e-09
1.31654e-09
1.29871e-09
1.27917e-09
1.25831e-09
1.23608e-09
1.21269e-09
1.18824e-09
1.16273e-09
1.13631e-09
1.10898e-09
1.08072e-09
1.05171e-09
1.02177e-09
9.91009e-10
9.59545e-10
9.27257e-10
1.06033e-09
8.94252e-10
)
;
    }
    procBoundary2to6
    {
        type            processor;
        value           nonuniform List<scalar> 
13
(
59.5748
25.2752
10.5426
4.87401
2.10799
0.695744
0.125814
0.00583215
4.02798e-06
1.85494e-06
0
0
1.96843e-12
)
;
    }
}


// ************************************************************************* //
