/*--------------------------------*- C++ -*----------------------------------*\
| =========                 |                                                 |
| \\      /  F ield         | OpenFOAM: The Open Source CFD Toolbox           |
|  \\    /   O peration     | Version:  2306                                  |
|   \\  /    A nd           | Website:  www.openfoam.com                      |
|    \\/     M anipulation  |                                                 |
\*---------------------------------------------------------------------------*/
FoamFile
{
    version     2.0;
    format      ascii;
    arch        "LSB;label=32;scalar=64";
    class       volSymmTensorField;
    location    "850";
    object      turbulenceProperties:devReff;
}
// * * * * * * * * * * * * * * * * * * * * * * * * * * * * * * * * * * * * * //

dimensions      [0 2 -2 0 0 0 0];

internalField   nonuniform List<symmTensor> 
1340
(
(-3.53765 14.0109 1.02459e-15 3.50239 1.64291e-16 0.035263)
(-3.77532 13.2878 1.45055e-15 3.74323 2.66683e-16 0.0320883)
(-3.91954 12.4706 -2.90394e-16 3.88955 -3.67437e-17 0.0299971)
(-3.64023 10.0666 -4.55471e-15 3.63362 -7.84207e-16 0.00660727)
(-0.108449 0.415565 -4.90974e-16 0.133605 -8.61558e-17 -0.0251556)
(-0.128786 0.456189 -1.22519e-15 0.151576 -5.15123e-16 -0.0227895)
(-0.147323 0.552325 -2.52523e-15 0.174171 -3.46037e-18 -0.0268483)
(-0.207655 0.775776 -2.03917e-15 0.197453 1.35852e-15 0.0102021)
(-0.0113402 0.0929831 2.15621e-16 0.0108486 -1.74519e-17 0.000491601)
(-0.0190811 0.127614 -1.173e-15 0.0190412 2.10969e-16 3.98908e-05)
(-0.00964346 0.154101 2.94729e-15 0.0104764 5.32945e-16 -0.000832991)
(-0.0374652 0.261203 4.63717e-15 0.0294842 9.50712e-16 0.00798094)
(0.000888295 0.00334885 -1.74472e-16 -0.000948558 -2.66374e-17 6.02635e-05)
(0.00157577 0.0112213 7.42937e-16 -0.00205612 1.09884e-16 0.000480345)
(0.00672056 0.0279078 -4.86138e-16 -0.00721144 -1.68287e-16 0.000490883)
(-0.00282649 0.10449 -3.29616e-16 -0.00195373 -1.41019e-15 0.00478022)
(0.000569187 -0.000463125 -9.08104e-18 -0.000661167 3.6105e-18 9.19799e-05)
(0.000260057 -9.31395e-05 -1.27223e-17 -0.000281111 -1.05891e-17 2.10532e-05)
(0.000884002 0.000200495 5.28419e-17 -0.000863555 3.77387e-18 -2.04475e-05)
(0.00383547 0.0196985 -2.90399e-16 -0.00520792 5.22439e-17 0.00137245)
(1.65376e-06 -2.29183e-06 2.53943e-19 -6.2434e-07 2.26382e-20 -1.02942e-06)
(4.45797e-05 -2.40286e-05 -8.39797e-18 -3.30371e-05 -1.6613e-19 -1.15425e-05)
(0.000217537 -2.29808e-05 -1.55611e-17 -0.000189773 -5.06415e-18 -2.77647e-05)
(0.00097757 0.0020477 6.92222e-18 -0.00114345 4.73796e-17 0.000165878)
(3.8499e-06 -2.25908e-06 -2.27097e-19 -4.76804e-06 -2.86294e-20 9.18145e-07)
(3.90722e-06 -1.1194e-06 3.42337e-19 -4.63481e-06 8.94697e-20 7.27595e-07)
(5.49942e-06 -8.94698e-08 5.16166e-21 -5.81671e-06 7.66487e-20 3.17295e-07)
(3.31157e-05 4.7778e-05 2.68607e-18 -4.07914e-05 2.38638e-19 7.67575e-06)
(3.10016e-06 -3.35987e-06 3.34333e-19 -2.23431e-06 5.93122e-20 -8.65857e-07)
(3.47389e-06 -1.55384e-06 -1.3802e-19 -2.94392e-06 -5.88999e-20 -5.29966e-07)
(4.36925e-06 8.66241e-08 2.84029e-20 -3.91496e-06 6.75868e-21 -4.54284e-07)
(4.16985e-06 6.59361e-06 4.50454e-21 -4.77917e-06 -1.30233e-19 6.09316e-07)
(4.35294e-06 -3.06511e-06 -1.31521e-20 -4.74315e-06 -1.47483e-20 3.90212e-07)
(5.37652e-06 -1.54223e-06 8.75292e-20 -5.83388e-06 9.54257e-20 4.57368e-07)
(6.55162e-06 4.86452e-07 6.4143e-20 -6.59935e-06 -6.57265e-20 4.77275e-08)
(3.77971e-06 5.95157e-06 -3.40576e-20 -4.48986e-06 3.64167e-20 7.10145e-07)
(3.5896e-06 -3.07859e-06 1.0424e-19 -3.35544e-06 1.37884e-20 -2.34159e-07)
(4.43279e-06 -1.45389e-06 5.86154e-19 -4.34276e-06 2.21352e-21 -9.0033e-08)
(7.53349e-06 6.84988e-07 -5.34299e-19 -7.21986e-06 4.77539e-20 -3.1363e-07)
(3.56008e-06 5.83491e-06 1.46614e-19 -4.14707e-06 6.88135e-20 5.86989e-07)
(3.70603e-06 -2.87101e-06 1.09083e-20 -3.75556e-06 -2.17814e-20 4.95278e-08)
(4.47831e-06 -1.2576e-06 -6.68152e-19 -4.61424e-06 -1.05114e-19 1.35938e-07)
(6.53457e-06 7.93146e-07 7.56976e-19 -6.41369e-06 1.16402e-19 -1.20876e-07)
(4.42432e-06 7.32972e-06 2.79588e-19 -5.14726e-06 -1.06056e-19 7.22933e-07)
(3.42132e-06 -2.761e-06 -2.49201e-19 -3.35526e-06 -1.16842e-20 -6.60673e-08)
(4.24777e-06 -1.16957e-06 4.2417e-19 -4.28934e-06 6.24231e-20 4.15702e-08)
(5.67389e-06 8.46184e-07 -3.77194e-19 -5.53055e-06 -1.68066e-19 -1.43346e-07)
(4.49793e-06 7.58791e-06 -4.7362e-19 -5.19834e-06 -2.65256e-19 7.00411e-07)
(3.30233e-06 -2.61388e-06 2.87678e-19 -3.29017e-06 3.53397e-20 -1.21565e-08)
(4.09475e-06 -1.0457e-06 -5.92331e-19 -4.17202e-06 -7.87326e-20 7.72661e-08)
(5.20655e-06 9.25717e-07 -3.97434e-20 -5.10105e-06 6.34297e-20 -1.05501e-07)
(4.08243e-06 7.00101e-06 -7.57061e-19 -4.6957e-06 8.32221e-20 6.13272e-07)
(3.11116e-06 -2.48831e-06 -2.11276e-19 -3.08214e-06 -3.92933e-20 -2.90224e-08)
(3.86488e-06 -9.41916e-07 3.87207e-19 -3.92291e-06 1.19572e-19 5.80342e-08)
(4.79105e-06 9.89277e-07 6.08429e-20 -4.69433e-06 5.22611e-20 -9.6721e-08)
(3.63475e-06 6.35835e-06 4.44219e-19 -4.15589e-06 1.51943e-19 5.21139e-07)
(2.942e-06 -2.35549e-06 4.40526e-20 -2.92445e-06 1.95408e-20 -1.75488e-08)
(3.64896e-06 -8.41333e-07 1.68033e-19 -3.70914e-06 -3.69526e-20 6.01802e-08)
(4.39879e-06 1.03498e-06 3.1894e-19 -4.31988e-06 -2.06007e-20 -7.8902e-08)
(3.23605e-06 5.78074e-06 -2.18195e-19 -3.67933e-06 -1.3991e-19 4.43284e-07)
(2.75636e-06 -2.2257e-06 2.96355e-20 -2.73898e-06 2.02992e-23 -1.73868e-08)
(3.42032e-06 -7.51988e-07 -2.45471e-19 -3.47383e-06 -3.37405e-20 5.35147e-08)
(4.01409e-06 1.06156e-06 -4.20536e-19 -3.94752e-06 -1.08952e-19 -6.65667e-08)
(2.87038e-06 5.25138e-06 -2.48873e-19 -3.24473e-06 9.30957e-20 3.74354e-07)
(2.57029e-06 -2.09541e-06 -1.16126e-20 -2.55709e-06 3.87362e-21 -1.31929e-08)
(3.19073e-06 -6.70486e-07 1.32377e-19 -3.24029e-06 4.98321e-21 4.95582e-08)
(3.64714e-06 1.07168e-06 -1.72612e-19 -3.59306e-06 5.72305e-20 -5.4074e-08)
(2.53195e-06 4.75689e-06 5.95427e-19 -2.84583e-06 4.425e-20 3.13887e-07)
(2.37904e-06 -1.96638e-06 1.0888e-19 -2.36819e-06 -6.67963e-21 -1.0847e-08)
(2.95733e-06 -5.968e-07 -3.87643e-19 -3.00191e-06 -4.89064e-20 4.45803e-08)
(3.29744e-06 1.06759e-06 2.56779e-19 -3.25416e-06 6.97144e-20 -4.32809e-08)
(2.2179e-06 4.29616e-06 -4.57085e-19 -2.47823e-06 -4.38287e-20 2.60329e-07)
(2.18582e-06 -1.83827e-06 -3.02103e-19 -2.17764e-06 -3.04884e-20 -8.17894e-09)
(2.72293e-06 -5.30066e-07 9.334e-20 -2.76297e-06 6.49281e-20 4.00322e-08)
(2.96536e-06 1.05015e-06 1.91651e-19 -2.93121e-06 -2.47583e-20 -3.41434e-08)
(1.92787e-06 3.86779e-06 7.41154e-19 -2.14106e-06 9.23541e-20 2.13196e-07)
(1.99106e-06 -1.71189e-06 1.53065e-19 -1.98503e-06 3.2421e-20 -6.02793e-09)
(2.48854e-06 -4.70026e-07 3.01228e-19 -2.52399e-06 9.90082e-21 3.54537e-08)
(2.65142e-06 1.02138e-06 -1.85922e-19 -2.62542e-06 -5.0775e-20 -2.59943e-08)
(1.66225e-06 3.47244e-06 -4.449e-19 -1.83556e-06 -1.2951e-19 1.73311e-07)
(1.79625e-06 -1.58731e-06 -4.12623e-20 -1.79216e-06 -1.28602e-20 -4.08963e-09)
(2.25576e-06 -4.15827e-07 -2.29829e-19 -2.28683e-06 -4.54327e-20 3.10609e-08)
(2.35479e-06 9.83272e-07 -1.09341e-19 -2.33546e-06 1.81581e-20 -1.93314e-08)
(1.41907e-06 3.10832e-06 8.45756e-20 -1.55807e-06 6.03576e-20 1.38993e-07)
(1.60265e-06 -1.4647e-06 1.21939e-20 -1.60024e-06 9.28968e-21 -2.40615e-09)
(2.0263e-06 -3.66816e-07 3.52014e-20 -2.05335e-06 2.14223e-20 2.70502e-08)
(2.07584e-06 9.37066e-07 1.29479e-19 -2.0621e-06 3.83353e-20 -1.37379e-08)
(1.19766e-06 2.77432e-06 5.03062e-21 -1.30779e-06 -2.13606e-20 1.10133e-07)
(1.41156e-06 -1.34449e-06 8.6419e-20 -1.41056e-06 4.45037e-21 -1.00082e-09)
(1.80145e-06 -3.22261e-07 8.28044e-21 -1.82474e-06 -6.28609e-21 2.3292e-08)
(1.81399e-06 8.85336e-07 1.75186e-19 -1.80481e-06 -1.91628e-20 -9.18275e-09)
(9.96834e-07 2.46956e-06 -1.25449e-19 -1.08315e-06 -6.43096e-21 8.63145e-08)
(1.22438e-06 -1.22699e-06 -6.88255e-20 -1.22453e-06 -9.33363e-21 1.45941e-10)
(1.58282e-06 -2.81764e-07 -6.21795e-20 -1.60277e-06 2.10879e-21 1.9942e-08)
(1.56899e-06 8.28935e-07 -3.44924e-19 -1.56322e-06 -4.19039e-20 -5.76715e-09)
(8.15107e-07 2.19175e-06 7.04573e-20 -8.81705e-07 2.48628e-20 6.65981e-08)
(1.04242e-06 -1.11232e-06 4.92717e-20 -1.04345e-06 1.65932e-21 1.03166e-09)
(1.37165e-06 -2.44465e-07 1.37773e-19 -1.38859e-06 1.94092e-20 1.69417e-08)
(1.3406e-06 7.70177e-07 1.29108e-19 -1.3375e-06 5.78406e-20 -3.1017e-09)
(6.51483e-07 1.93991e-06 7.39134e-20 -7.02387e-07 9.96309e-21 5.09031e-08)
(8.67022e-07 -1.00071e-06 -1.27775e-19 -8.68748e-07 -9.96818e-21 1.72674e-09)
(1.16923e-06 -2.09895e-07 -6.17023e-21 -1.18352e-06 -4.41182e-21 1.42956e-08)
(1.12839e-06 7.1043e-07 2.3196e-19 -1.12718e-06 2.6211e-21 -1.2083e-09)
(5.04276e-07 1.71217e-06 1.19146e-19 -5.42607e-07 -1.35648e-20 3.8331e-08)
(6.99406e-07 -8.92421e-07 1.09755e-19 -7.01642e-07 1.86266e-20 2.2359e-09)
(9.76725e-07 -1.77413e-07 8.89235e-20 -9.88748e-07 8.12018e-21 1.20228e-08)
(9.32038e-07 6.51194e-07 -1.75661e-19 -9.32147e-07 -2.60882e-20 1.09166e-10)
(3.72361e-07 1.50713e-06 -2.81915e-19 -4.00985e-07 -2.52467e-20 2.8624e-08)
(5.40697e-07 -7.87666e-07 5.9409e-21 -5.43287e-07 -5.71503e-21 2.59012e-09)
(7.95063e-07 -1.46669e-07 -2.86937e-20 -8.05129e-07 -1.32558e-20 1.00658e-08)
(7.51102e-07 5.93698e-07 1.29011e-19 -7.52e-07 1.35676e-20 8.97945e-10)
(2.54289e-07 1.32316e-06 1.8415e-19 -2.75429e-07 2.41676e-20 2.11403e-08)
(3.91921e-07 -6.86634e-07 -7.75558e-21 -3.94696e-07 -2.43756e-21 2.77443e-09)
(6.25161e-07 -1.17068e-07 -8.50599e-20 -6.33565e-07 -1.05668e-20 8.40353e-09)
(5.85247e-07 5.39078e-07 -1.8978e-19 -5.86566e-07 -2.26693e-20 1.31951e-09)
(1.48911e-07 1.15882e-06 -2.27742e-19 -1.64448e-07 -3.67734e-20 1.55371e-08)
(2.54e-07 -5.89551e-07 -2.47674e-20 -2.56854e-07 -3.4592e-21 2.8544e-09)
(4.67703e-07 -8.83524e-08 -5.94842e-20 -4.74784e-07 -2.32478e-21 7.08041e-09)
(4.3405e-07 4.88226e-07 9.21497e-20 -4.35513e-07 2.18627e-20 1.46281e-09)
(5.50649e-08 1.0128e-06 -2.14748e-20 -6.64658e-08 2.49243e-20 1.14009e-08)
(1.276e-07 -4.96635e-07 -2.4429e-20 -1.30427e-07 -2.69875e-21 2.82695e-09)
(3.23081e-07 -6.02915e-08 -1.54928e-20 -3.28996e-07 5.54626e-21 5.91468e-09)
(2.97136e-07 4.41837e-07 8.34702e-21 -2.98586e-07 -2.92952e-21 1.4508e-09)
(-2.82462e-08 8.83693e-07 2.19987e-19 1.98191e-08 3.51403e-20 8.42715e-09)
(1.32999e-08 -4.08115e-07 -3.37203e-20 -1.60558e-08 -2.85174e-21 2.75593e-09)
(1.91748e-07 -3.26429e-08 8.0707e-20 -1.96722e-07 7.81026e-21 4.97397e-09)
(1.73995e-07 4.00369e-07 3.23556e-20 -1.75272e-07 -1.50693e-21 1.27625e-09)
(-1.01967e-07 7.70301e-07 2.20042e-19 9.5633e-08 1.76872e-22 6.33376e-09)
(-8.85676e-08 -3.24267e-07 -1.00075e-20 8.59353e-08 3.13654e-21 2.6323e-09)
(7.38266e-08 -5.3791e-09 -2.60072e-20 -7.8031e-08 -4.96496e-21 4.20442e-09)
(6.42233e-08 3.64053e-07 -7.73324e-20 -6.52806e-08 -9.60642e-21 1.05729e-09)
(-1.66846e-07 6.71416e-07 -1.91876e-19 1.6193e-07 -3.72774e-20 4.9163e-09)
(-1.77902e-07 -2.45307e-07 6.14667e-20 1.75427e-07 6.24762e-21 2.47475e-09)
(-3.06921e-08 2.15425e-08 3.60715e-20 2.71267e-08 -3.93125e-22 3.56537e-09)
(-3.26879e-08 3.33037e-07 5.41456e-22 3.18692e-08 8.64016e-21 8.18714e-10)
(-2.23544e-07 5.85892e-07 -1.38384e-19 2.19578e-07 -1.46854e-21 3.96566e-09)
(-2.54716e-07 -1.71459e-07 -1.30535e-20 2.52458e-07 -3.03446e-21 2.25862e-09)
(-1.21985e-07 4.80137e-08 -1.23222e-19 1.18947e-07 -1.11626e-20 3.03793e-09)
(-1.17248e-07 3.07186e-07 9.4237e-20 1.16655e-07 4.34031e-21 5.93218e-10)
(-2.72643e-07 5.12565e-07 6.6271e-20 2.69272e-07 7.80024e-21 3.37125e-09)
(-3.1928e-07 -1.02924e-07 2.1008e-20 3.17237e-07 1.88825e-21 2.04254e-09)
(-2.00382e-07 7.39421e-08 7.86788e-20 1.97786e-07 1.19674e-20 2.59515e-09)
(-1.90043e-07 2.86248e-07 -1.15964e-19 1.89663e-07 -1.35859e-20 3.80071e-10)
(-3.14639e-07 4.50342e-07 -1.2442e-19 3.11633e-07 -1.40238e-20 3.00636e-09)
(-3.7202e-07 -3.99025e-08 -1.97678e-20 3.70212e-07 -1.55964e-21 1.80793e-09)
(-2.66347e-07 9.91024e-08 -3.74715e-20 2.64116e-07 -6.80685e-21 2.23164e-09)
(-2.51654e-07 2.6988e-07 5.80297e-20 2.5144e-07 8.11732e-21 2.13179e-10)
(-3.4994e-07 3.9815e-07 3.72211e-20 3.47127e-07 1.5531e-20 2.81295e-09)
(-4.13528e-07 1.74986e-08 3.43798e-20 4.11951e-07 4.73739e-21 1.57747e-09)
(-3.20505e-07 1.2329e-07 9.31222e-21 3.18588e-07 9.19535e-22 1.91737e-09)
(-3.02741e-07 2.57589e-07 -7.3773e-20 3.02673e-07 -5.36592e-21 6.82996e-11)
(-3.78943e-07 3.54894e-07 1.72248e-19 3.76229e-07 1.4936e-20 2.71479e-09)
(-5.67888e-07 3.30372e-08 -2.34191e-20 5.66547e-07 -2.33124e-22 1.34034e-09)
(-4.44536e-07 6.91468e-08 1.01875e-20 4.43185e-07 -3.68127e-21 1.35089e-09)
(-3.63561e-07 1.46205e-07 -4.37158e-20 3.61921e-07 6.23772e-22 1.6406e-09)
(-3.43975e-07 2.48863e-07 1.26023e-19 3.44014e-07 1.61155e-20 -3.87917e-11)
(-4.01994e-07 3.1955e-07 -2.43412e-20 3.99309e-07 -8.43913e-21 2.68447e-09)
(-5.69093e-07 9.70394e-08 6.33608e-20 5.67966e-07 6.97469e-21 1.12679e-09)
(-4.65887e-07 1.15041e-07 -1.02757e-19 4.64747e-07 -1.06971e-20 1.14024e-09)
(-3.96314e-07 1.67638e-07 1.57093e-19 3.94896e-07 1.49676e-20 1.41826e-09)
(-3.76063e-07 2.43122e-07 1.01352e-20 3.76177e-07 -8.31091e-21 -1.13709e-10)
(-4.19427e-07 2.91092e-07 7.93713e-21 4.16739e-07 1.71403e-21 2.68883e-09)
(-5.63506e-07 1.51954e-07 -1.77905e-20 5.62571e-07 -4.64761e-21 9.35062e-10)
(-4.78509e-07 1.55186e-07 2.01567e-20 4.77564e-07 7.40264e-21 9.45717e-10)
(-4.19667e-07 1.8729e-07 -8.7263e-20 4.18458e-07 -1.49985e-20 1.209e-09)
(-3.99767e-07 2.39758e-07 -1.44364e-19 3.9995e-07 -1.37013e-20 -1.83304e-10)
(-4.3161e-07 2.6853e-07 -4.63623e-21 4.2891e-07 -3.61917e-21 2.6993e-09)
(-5.52103e-07 1.98183e-07 -2.51202e-20 5.5134e-07 -9.93643e-22 7.63633e-10)
(-4.83388e-07 1.89699e-07 6.07601e-20 4.82617e-07 7.39316e-21 7.71585e-10)
(-4.34532e-07 2.04971e-07 -1.68632e-20 4.33496e-07 2.49154e-21 1.0358e-09)
(-4.15827e-07 2.38233e-07 5.31764e-20 4.16037e-07 1.07955e-20 -2.09684e-10)
(-4.38867e-07 2.50974e-07 -9.15627e-20 4.36137e-07 -6.77589e-21 2.73033e-09)
(-5.35847e-07 2.36219e-07 4.06688e-20 5.35231e-07 5.3111e-21 6.15901e-10)
(-4.81535e-07 2.18742e-07 5.0087e-20 4.80918e-07 3.20065e-21 6.1694e-10)
(-4.41881e-07 2.20496e-07 4.80809e-20 4.40999e-07 4.12407e-21 8.819e-10)
(-4.2505e-07 2.37969e-07 1.50256e-20 4.2529e-07 1.81189e-21 -2.40016e-10)
(-4.41604e-07 2.37518e-07 8.89865e-20 4.38864e-07 1.31363e-20 2.73996e-09)
(-5.15678e-07 2.66635e-07 6.38492e-21 5.15189e-07 -5.39059e-22 4.89085e-10)
(-4.73953e-07 2.42533e-07 -1.39912e-20 4.73475e-07 -4.44261e-21 4.78158e-10)
(-4.42682e-07 2.33697e-07 -5.61109e-20 4.41939e-07 -6.41841e-21 7.43524e-10)
(-4.28211e-07 2.38472e-07 6.50033e-20 4.28474e-07 5.08774e-21 -2.63036e-10)
(-4.40211e-07 2.27382e-07 4.45809e-20 4.37473e-07 1.88284e-21 2.73822e-09)
(-4.92491e-07 2.90074e-07 -2.75461e-21 4.92105e-07 -1.01718e-22 3.85935e-10)
(-4.61619e-07 2.61396e-07 -6.13091e-20 4.61255e-07 -6.02477e-21 3.63487e-10)
(-4.37884e-07 2.44544e-07 3.90213e-20 4.37241e-07 5.15922e-21 6.42813e-10)
(-4.26073e-07 2.39313e-07 -4.75471e-20 4.26342e-07 -8.24785e-21 -2.68493e-10)
(-4.35081e-07 2.19851e-07 -1.68409e-20 4.32346e-07 -5.21924e-21 2.73503e-09)
(-4.67095e-07 3.07206e-07 1.30479e-20 4.66797e-07 1.34453e-21 2.97865e-10)
(-4.45472e-07 2.75653e-07 1.24218e-20 4.45202e-07 4.26292e-21 2.70408e-10)
(-4.28426e-07 2.52985e-07 -2.33894e-20 4.27885e-07 -3.58846e-21 5.40872e-10)
(-4.1943e-07 2.40117e-07 -5.34149e-20 4.19714e-07 -2.95083e-21 -2.83385e-10)
(-4.26678e-07 2.14277e-07 -9.81781e-20 4.23969e-07 -8.71749e-21 2.70884e-09)
(-4.4023e-07 3.18711e-07 -1.24732e-20 4.40006e-07 -1.33458e-21 2.23749e-10)
(-4.26379e-07 2.85668e-07 5.91595e-20 4.26189e-07 5.30439e-21 1.89987e-10)
(-4.15166e-07 2.59052e-07 -3.83013e-21 4.14708e-07 -4.00996e-24 4.57286e-10)
(-4.08999e-07 2.40572e-07 6.04275e-20 4.09292e-07 8.29396e-21 -2.93102e-10)
(-4.15429e-07 2.10104e-07 6.18484e-20 4.12758e-07 6.88384e-21 2.67134e-09)
(-4.12556e-07 3.25283e-07 1.93775e-20 4.12384e-07 3.16055e-21 1.71488e-10)
(-4.0512e-07 2.91876e-07 -4.61933e-20 4.04992e-07 -7.71301e-21 1.27908e-10)
(-3.98924e-07 2.62844e-07 -7.08048e-21 3.98527e-07 -2.87215e-22 3.97101e-10)
(-3.95473e-07 2.40465e-07 2.24381e-20 3.95765e-07 2.47927e-21 -2.915e-10)
(-4.01766e-07 2.06855e-07 -9.55389e-20 3.99134e-07 -1.14918e-20 2.63216e-09)
(-3.84629e-07 3.27543e-07 3.74882e-20 3.84505e-07 3.58336e-21 1.24384e-10)
(-3.82403e-07 2.94638e-07 -6.05445e-20 3.82329e-07 -5.83761e-21 7.42861e-11)
(-3.80442e-07 2.64443e-07 1.67504e-20 3.80105e-07 1.27726e-21 3.36329e-10)
(-3.79528e-07 2.39572e-07 6.41696e-20 3.79831e-07 7.10752e-21 -3.03453e-10)
(-3.86148e-07 2.04105e-07 1.02198e-20 3.83586e-07 2.63522e-21 2.56216e-09)
(-3.56904e-07 3.26121e-07 -2.13759e-20 3.56812e-07 -2.78684e-21 9.18509e-11)
(-3.58827e-07 2.94346e-07 2.72212e-21 3.58788e-07 2.02972e-21 3.93414e-11)
(-3.6036e-07 2.63965e-07 -3.56092e-20 3.60072e-07 -4.42987e-21 2.87487e-10)
(-3.61733e-07 2.37766e-07 2.35007e-20 3.62036e-07 1.86129e-23 -3.03668e-10)
(-3.6896e-07 2.01517e-07 -2.38792e-20 3.66464e-07 -3.45555e-21 2.49659e-09)
(-3.29756e-07 3.21525e-07 2.14779e-20 3.2969e-07 2.71425e-21 6.62556e-11)
(-3.34902e-07 2.9135e-07 3.25434e-20 3.34892e-07 2.74698e-21 1.03977e-11)
(-3.39255e-07 2.61544e-07 -2.21192e-21 3.39002e-07 1.78383e-21 2.52705e-10)
(-3.42624e-07 2.34926e-07 -6.98999e-20 3.42929e-07 -9.30812e-21 -3.058e-10)
(-3.50601e-07 1.98762e-07 -3.83702e-20 3.48184e-07 -3.61971e-21 2.41674e-09)
(-3.03468e-07 3.14214e-07 -8.35239e-21 3.03419e-07 -1.50917e-21 4.97099e-11)
(-3.11029e-07 2.85941e-07 -5.82715e-20 3.11044e-07 -7.48517e-21 -1.4912e-11)
(-3.17608e-07 2.57257e-07 7.8672e-20 3.17388e-07 9.60171e-21 2.20405e-10)
(-3.22661e-07 2.3094e-07 -5.8893e-20 3.22968e-07 -4.1253e-21 -3.07559e-10)
(-3.31415e-07 1.95563e-07 1.4899e-20 3.29088e-07 2.0428e-21 2.32722e-09)
(-2.66888e-07 3.30779e-07 5.03798e-21 2.6687e-07 1.64419e-22 1.85702e-11)
(-2.78238e-07 3.04591e-07 -1.18278e-20 2.78199e-07 -2.13201e-21 3.82523e-11)
(-2.87542e-07 2.78399e-07 -1.23661e-20 2.87572e-07 7.73232e-22 -2.92298e-11)
(-2.95807e-07 2.51228e-07 3.37067e-20 2.95609e-07 1.91443e-21 1.98607e-10)
(-3.02235e-07 2.25742e-07 7.80868e-20 3.02537e-07 1.07952e-20 -3.01804e-10)
(-3.11707e-07 1.91686e-07 -1.09027e-20 3.0948e-07 -1.80165e-21 2.22707e-09)
(-2.41867e-07 3.1661e-07 -1.31157e-20 2.41856e-07 -1.2331e-21 1.13809e-11)
(-2.54207e-07 2.93005e-07 -6.45812e-20 2.54182e-07 -7.3043e-21 2.55455e-11)
(-2.64703e-07 2.6897e-07 9.17128e-20 2.64741e-07 1.0338e-20 -3.86072e-11)
(-2.74176e-07 2.43565e-07 -4.5943e-20 2.74003e-07 -5.43476e-21 1.73385e-10)
(-2.81694e-07 2.19283e-07 5.9891e-20 2.8199e-07 5.52035e-21 -2.96696e-10)
(-2.91757e-07 1.86957e-07 -2.29428e-20 2.89643e-07 -2.21155e-21 2.11363e-09)
(-2.1862e-07 3.00996e-07 3.47242e-20 2.18613e-07 4.46281e-21 6.71829e-12)
(-2.31478e-07 2.7984e-07 1.53869e-20 2.31457e-07 2.50846e-21 2.07021e-11)
(-2.42708e-07 2.57956e-07 -4.62074e-20 2.42751e-07 -6.53824e-21 -4.30403e-11)
(-2.52985e-07 2.34464e-07 3.05185e-20 2.5283e-07 3.86258e-21 1.54955e-10)
(-2.61318e-07 2.11644e-07 -7.15467e-21 2.61595e-07 -1.94489e-21 -2.77049e-10)
(-2.71809e-07 1.81304e-07 1.7622e-20 2.69816e-07 2.32322e-21 1.9928e-09)
(-1.97122e-07 2.84379e-07 9.85142e-21 1.97117e-07 4.12043e-22 4.57864e-12)
(-2.1013e-07 2.6551e-07 -1.06236e-20 2.10116e-07 -9.91016e-22 1.40706e-11)
(-2.21726e-07 2.45728e-07 1.14433e-20 2.2177e-07 2.14026e-21 -4.43799e-11)
(-2.32473e-07 2.24194e-07 -2.79968e-20 2.32334e-07 -3.16071e-21 1.39447e-10)
(-2.41374e-07 2.02979e-07 -1.91715e-20 2.41638e-07 -2.25801e-21 -2.63683e-10)
(-2.52121e-07 1.74779e-07 -1.21456e-21 2.50262e-07 -1.02907e-22 1.85886e-09)
(-1.77353e-07 2.67255e-07 -3.7894e-20 1.77349e-07 -4.53183e-21 3.9455e-12)
(-1.90234e-07 2.50497e-07 4.30627e-20 1.90223e-07 5.79623e-21 1.04463e-11)
(-2.01903e-07 2.3272e-07 1.84284e-20 2.01949e-07 1.63056e-21 -4.61269e-11)
(-2.12845e-07 2.13132e-07 4.38724e-20 2.12721e-07 5.14076e-21 1.24135e-10)
(-2.22091e-07 1.936e-07 -1.07648e-20 2.22334e-07 -8.09749e-22 -2.42685e-10)
(-2.32926e-07 1.67596e-07 2.38924e-20 2.312e-07 2.25828e-21 1.72642e-09)
(-1.59291e-07 2.50117e-07 1.7837e-20 1.5929e-07 2.48232e-21 7.46808e-13)
(-1.7184e-07 2.3529e-07 4.74211e-20 1.71831e-07 5.09301e-21 8.78128e-12)
(-1.83354e-07 2.19399e-07 -4.05587e-20 1.83398e-07 -4.62104e-21 -4.38061e-11)
(-1.94266e-07 2.01694e-07 -3.6213e-20 1.94153e-07 -5.43219e-21 1.12592e-10)
(-2.03664e-07 1.83851e-07 1.53144e-20 2.03885e-07 1.82637e-21 -2.2057e-10)
(-2.14445e-07 1.60026e-07 -5.01069e-20 2.12854e-07 -5.48148e-21 1.59167e-09)
(-1.42888e-07 2.33354e-07 -6.89267e-21 1.42887e-07 -1.60159e-21 6.23251e-13)
(-1.5495e-07 2.20273e-07 -2.12568e-20 1.54942e-07 -2.47441e-21 8.24318e-12)
(-1.66139e-07 2.0613e-07 4.48647e-20 1.66181e-07 5.70541e-21 -4.15944e-11)
(-1.76851e-07 1.90213e-07 -6.42845e-20 1.76749e-07 -7.17466e-21 1.02784e-10)
(-1.86236e-07 1.74023e-07 -1.41784e-20 1.86439e-07 -1.86973e-21 -2.03451e-10)
(-1.96854e-07 1.52323e-07 6.55358e-20 1.95391e-07 7.69109e-21 1.46335e-09)
(-1.28041e-07 2.17124e-07 -7.24401e-20 1.28043e-07 -8.64765e-21 -1.87503e-12)
(-1.39513e-07 2.05612e-07 6.00093e-20 1.39506e-07 7.01282e-21 6.4972e-12)
(-1.50255e-07 1.93067e-07 -1.20718e-20 1.50295e-07 -1.55904e-21 -3.94804e-11)
(-1.60635e-07 1.78827e-07 1.28333e-20 1.60543e-07 2.23947e-21 9.24735e-11)
(-1.69868e-07 1.64228e-07 5.8672e-21 1.70053e-07 1.27056e-22 -1.85345e-10)
(-1.80233e-07 1.44578e-07 -4.97815e-20 1.78889e-07 -6.17606e-21 1.34436e-09)
(-1.1459e-07 2.01358e-07 2.2725e-20 1.14591e-07 3.21857e-21 -8.16258e-13)
(-1.25403e-07 1.91241e-07 -6.31316e-20 1.25398e-07 -8.12384e-21 5.59845e-12)
(-1.35616e-07 1.80145e-07 4.08466e-20 1.35652e-07 5.1661e-21 -3.61402e-11)
(-1.45568e-07 1.67458e-07 1.50174e-20 1.45484e-07 1.4588e-21 8.41443e-11)
(-1.54548e-07 1.54355e-07 -7.30855e-20 1.54718e-07 -8.8939e-21 -1.69791e-10)
(-1.64581e-07 1.3667e-07 3.30114e-20 1.63356e-07 4.45995e-21 1.22486e-09)
(-9.17901e-08 1.93848e-07 7.92807e-22 9.17884e-08 -3.72151e-22 1.63767e-12)
(-1.02338e-07 1.85838e-07 -1.494e-20 1.02339e-07 -1.80944e-21 -1.19265e-12)
(-1.12459e-07 1.76951e-07 1.10504e-20 1.12453e-07 1.99692e-21 6.06903e-12)
(-1.22091e-07 1.67156e-07 1.32637e-20 1.22122e-07 1.25165e-21 -3.07094e-11)
(-1.31549e-07 1.55893e-07 -3.14142e-20 1.31472e-07 -3.56074e-21 7.74159e-11)
(-1.40207e-07 1.4418e-07 -1.45034e-20 1.40356e-07 -1.49017e-21 -1.48699e-10)
(-1.49821e-07 1.28364e-07 1.81096e-20 1.48711e-07 1.72901e-21 1.11001e-09)
(-8.13532e-08 1.77431e-07 -7.07167e-20 8.13532e-08 -8.80602e-21 3.86943e-14)
(-9.112e-08 1.70421e-07 2.57987e-20 9.11233e-08 3.64601e-21 -3.35488e-12)
(-1.00542e-07 1.62616e-07 2.22584e-20 1.0054e-07 2.40774e-21 1.87681e-12)
(-1.09569e-07 1.53981e-07 -7.54536e-21 1.09602e-07 -1.29362e-21 -3.20925e-11)
(-1.18497e-07 1.44008e-07 4.44272e-20 1.18432e-07 5.90969e-21 6.40736e-11)
(-1.26791e-07 1.33569e-07 -4.56863e-20 1.26921e-07 -4.66748e-21 -1.29871e-10)
(-1.35902e-07 1.19497e-07 -2.3857e-20 1.34924e-07 -3.21615e-21 9.78602e-10)
(-7.18096e-08 1.61294e-07 -1.88482e-21 7.18035e-08 3.04132e-22 6.05455e-12)
(-8.08205e-08 1.55151e-07 4.9756e-20 8.08155e-08 5.99308e-21 4.94593e-12)
(-8.95481e-08 1.48299e-07 -3.89305e-20 8.95388e-08 -4.99042e-21 9.32876e-12)
(-9.79686e-08 1.40691e-07 -4.51146e-20 9.7986e-08 -5.49107e-21 -1.74526e-11)
(-1.06335e-07 1.31879e-07 3.6297e-20 1.06272e-07 4.49086e-21 6.26882e-11)
(-1.14252e-07 1.2259e-07 9.52908e-20 1.14343e-07 1.17858e-20 -9.08785e-11)
(-1.22782e-07 1.10126e-07 -3.28788e-20 1.21924e-07 -4.31007e-21 8.57692e-10)
(-6.31356e-08 1.45688e-07 1.74942e-20 6.31456e-08 2.03322e-21 -9.97535e-12)
(-7.14245e-08 1.403e-07 -2.23734e-21 7.14359e-08 -3.38175e-22 -1.13636e-11)
(-7.9484e-08 1.34279e-07 -4.11291e-21 7.94919e-08 -2.10239e-22 -7.87683e-12)
(-8.731e-08 1.27574e-07 -2.26134e-21 8.73377e-08 -1.2131e-22 -2.76897e-11)
(-9.5106e-08 1.19792e-07 6.36369e-20 9.50715e-08 7.34428e-21 3.44818e-11)
(-1.02639e-07 1.11529e-07 -1.04173e-20 1.02713e-07 -1.85609e-21 -7.33242e-11)
(-1.10538e-07 1.00506e-07 -8.86357e-20 1.09834e-07 -1.04467e-20 7.03488e-10)
(-5.52332e-08 1.30954e-07 -3.62444e-20 5.5221e-08 -4.53861e-21 1.22058e-11)
(-6.28532e-08 1.26224e-07 4.3534e-20 6.28376e-08 5.32202e-21 1.55397e-11)
(-7.02762e-08 1.20932e-07 1.10975e-20 7.02609e-08 1.68745e-21 1.52312e-11)
(-7.75275e-08 1.15022e-07 -2.37265e-20 7.75286e-08 -3.19954e-21 -1.14021e-12)
(-8.47618e-08 1.08151e-07 -3.12164e-20 8.47167e-08 -3.82193e-21 4.50718e-11)
(-9.19098e-08 1.00793e-07 1.12809e-20 9.19196e-08 1.22066e-21 -9.79598e-12)
(-9.91672e-08 9.10313e-08 8.61023e-21 9.8558e-08 1.95323e-21 6.09179e-10)
(-4.82381e-08 1.17521e-07 1.57331e-20 4.82552e-08 1.89994e-21 -1.71372e-11)
(-5.52315e-08 1.13355e-07 -2.51369e-20 5.52436e-08 -3.33828e-21 -1.20311e-11)
(-6.206e-08 1.08692e-07 6.46797e-20 6.20706e-08 7.75533e-21 -1.06186e-11)
(-6.87569e-08 1.0349e-07 -5.15463e-20 6.87812e-08 -6.22227e-21 -2.42471e-11)
(-7.54527e-08 9.7442e-08 7.22503e-20 7.54445e-08 8.89968e-21 8.13448e-12)
(-8.21799e-08 9.09299e-08 -3.94065e-20 8.2198e-08 -4.98518e-21 -1.8177e-11)
(-8.88567e-08 8.23376e-08 8.02098e-20 8.83943e-08 9.77991e-21 4.62391e-10)
(-4.28123e-08 1.06207e-07 -4.10615e-20 4.28273e-08 -5.52685e-21 -1.49836e-11)
(-4.92756e-08 1.02431e-07 -1.02849e-21 4.9294e-08 -2.76455e-23 -1.83399e-11)
(-5.56097e-08 9.8202e-08 -2.85726e-20 5.56288e-08 -3.67106e-21 -1.91831e-11)
(-6.18633e-08 9.34747e-08 -1.67172e-21 6.18875e-08 1.05232e-22 -2.41396e-11)
(-6.81127e-08 8.79803e-08 -1.24699e-20 6.81201e-08 -2.14641e-21 -7.41082e-12)
(-7.45033e-08 8.20211e-08 -2.06087e-20 7.45141e-08 -2.22746e-21 -1.08473e-11)
(-8.06733e-08 7.4323e-08 2.86903e-20 8.03397e-08 2.73767e-21 3.33681e-10)
(-3.84165e-08 9.712e-08 -5.95034e-20 3.84023e-08 -7.21144e-21 1.42121e-11)
(-4.44444e-08 9.36263e-08 -9.13277e-21 4.44344e-08 -9.65469e-22 9.96556e-12)
(-5.03588e-08 8.97161e-08 3.44987e-20 5.035e-08 4.37902e-21 8.79062e-12)
(-5.62178e-08 8.53341e-08 4.73189e-23 5.62091e-08 -1.32297e-22 8.74702e-12)
(-6.20595e-08 8.02444e-08 -2.99344e-20 6.20436e-08 -3.91351e-21 1.58762e-11)
(-6.8122e-08 7.46919e-08 2.9591e-21 6.80808e-08 1.27721e-21 4.12011e-11)
(-7.38072e-08 6.76734e-08 -4.49843e-20 7.35141e-08 -6.07433e-21 2.9313e-10)
(-3.42983e-08 8.8999e-08 8.51446e-21 3.42962e-08 1.49286e-21 2.094e-12)
(-3.99111e-08 8.57634e-08 2.60694e-20 3.99052e-08 3.25695e-21 5.87504e-12)
(-4.54297e-08 8.2137e-08 -2.02797e-20 4.54128e-08 -2.70104e-21 1.68842e-11)
(-5.08881e-08 7.8079e-08 -2.86008e-20 5.08701e-08 -3.76964e-21 1.79554e-11)
(-5.63411e-08 7.33637e-08 -5.4392e-20 5.6318e-08 -6.20981e-21 2.30724e-11)
(-6.20334e-08 6.821e-08 1.15405e-19 6.19877e-08 1.38464e-20 4.5723e-11)
(-6.72867e-08 6.17932e-08 -7.70068e-20 6.70808e-08 -8.72151e-21 2.0585e-10)
(-3.03167e-08 8.11602e-08 2.43554e-20 3.03384e-08 3.08576e-21 -2.173e-11)
(-3.5532e-08 7.81761e-08 -8.48818e-21 3.55633e-08 -1.25804e-21 -3.13733e-11)
(-4.06716e-08 7.48177e-08 7.80169e-21 4.07006e-08 1.0149e-21 -2.89919e-11)
(-4.57588e-08 7.10643e-08 -4.48231e-20 4.5791e-08 -5.56909e-21 -3.22019e-11)
(-5.08488e-08 6.66981e-08 6.79144e-20 5.08749e-08 8.58282e-21 -2.60881e-11)
(-5.61855e-08 6.19118e-08 -6.63613e-20 5.61786e-08 -8.48788e-21 6.86842e-12)
(-6.10193e-08 5.60734e-08 9.14018e-20 6.08788e-08 1.14354e-20 1.40561e-10)
(-2.14439e-08 7.58568e-08 3.31051e-20 2.13598e-08 4.21662e-21 8.41389e-11)
(-2.63359e-08 7.33618e-08 1.69851e-20 2.62461e-08 2.12667e-21 8.97379e-11)
(-3.11334e-08 7.05824e-08 -1.46093e-20 3.10448e-08 -1.92541e-21 8.85255e-11)
(-3.58637e-08 6.74784e-08 -1.31726e-20 3.57858e-08 -1.78622e-21 7.79409e-11)
(-4.05914e-08 6.40142e-08 -2.9176e-20 4.05275e-08 -3.34826e-21 6.38508e-11)
(-4.53422e-08 6.00028e-08 -2.90073e-20 4.53137e-08 -3.72702e-21 2.84522e-11)
(-5.0362e-08 5.56392e-08 7.50664e-20 5.03665e-08 9.60297e-21 -4.45815e-12)
(-5.50105e-08 5.04957e-08 -4.21744e-20 5.50785e-08 -5.49135e-21 -6.8015e-11)
(-1.81109e-08 6.76657e-08 -1.66504e-20 1.82974e-08 -2.04638e-21 -1.86462e-10)
(-2.25823e-08 6.51833e-08 2.80708e-20 2.27357e-08 3.27811e-21 -1.53459e-10)
(-2.69596e-08 6.24207e-08 -2.91219e-20 2.70557e-08 -3.376e-21 -9.60759e-11)
(-3.12408e-08 5.93675e-08 -2.57951e-20 3.12747e-08 -3.35558e-21 -3.39049e-11)
(-3.55197e-08 5.59757e-08 2.39644e-20 3.54683e-08 2.89561e-21 5.13497e-11)
(-3.98064e-08 5.20916e-08 4.78443e-20 3.96595e-08 6.43357e-21 1.46919e-10)
(-4.44371e-08 4.7619e-08 -8.71445e-21 4.40653e-08 -1.67138e-21 3.71741e-10)
(-4.82833e-08 4.26263e-08 2.20065e-20 4.76703e-08 3.02777e-21 6.12971e-10)
(-1.35181e-08 5.75015e-08 5.3806e-20 1.33675e-08 6.86869e-21 1.50624e-10)
(-1.76768e-08 5.5163e-08 -6.32494e-20 1.76864e-08 -8.24263e-21 -9.58158e-12)
(-2.18198e-08 5.25726e-08 7.3351e-20 2.20004e-08 9.43311e-21 -1.80573e-10)
(-2.59506e-08 4.96947e-08 -5.78797e-20 2.63152e-08 -7.22332e-21 -3.64594e-10)
(-3.01214e-08 4.64973e-08 -6.64339e-20 3.06809e-08 -8.50253e-21 -5.59532e-10)
(-3.42702e-08 4.29099e-08 9.55128e-20 3.51294e-08 1.20818e-20 -8.59178e-10)
(-3.86508e-08 3.93817e-08 -5.9341e-20 3.99703e-08 -7.53843e-21 -1.3195e-09)
(-4.30474e-08 3.56615e-08 4.67728e-20 4.51489e-08 5.74634e-21 -2.10151e-09)
(-8.1799e-09 4.30308e-08 8.04108e-21 7.36963e-09 7.72339e-22 8.10269e-10)
(-1.13874e-08 4.0103e-08 -5.62091e-20 1.01773e-08 -6.98294e-21 1.21009e-09)
(-1.44943e-08 3.70563e-08 3.66105e-20 1.28911e-08 4.2944e-21 1.60325e-09)
(-1.75559e-08 3.38759e-08 -9.86396e-21 1.55718e-08 -8.56416e-22 1.98416e-09)
(-2.07631e-08 3.03966e-08 -4.06736e-20 1.83379e-08 -4.8454e-21 2.42511e-09)
(-2.42045e-08 2.63434e-08 1.07684e-19 2.11749e-08 1.30545e-20 3.0296e-09)
(-2.86722e-08 2.03665e-08 -5.59584e-20 2.42733e-08 -6.5344e-21 4.39888e-09)
(-3.06152e-08 1.46108e-08 1.13092e-20 2.51902e-08 9.70822e-22 5.42501e-09)
(-5.72924e-09 3.32528e-08 -2.80912e-20 1.05646e-08 -3.50186e-21 -4.83532e-09)
(-9.93635e-09 3.0815e-08 -2.8495e-20 1.54939e-08 -3.41937e-21 -5.55751e-09)
(-1.41472e-08 2.80032e-08 -4.60939e-20 2.03526e-08 -5.98803e-21 -6.20537e-09)
(-1.82332e-08 2.48225e-08 7.92909e-20 2.50708e-08 9.90942e-21 -6.83763e-09)
(-2.20864e-08 2.15264e-08 1.32788e-20 2.96715e-08 1.80105e-21 -7.58512e-09)
(-2.50136e-08 1.85197e-08 -2.57173e-20 3.40402e-08 -3.48229e-21 -9.02666e-09)
(-2.75172e-08 1.82927e-08 6.68496e-20 3.91371e-08 8.38863e-21 -1.16199e-08)