/*--------------------------------*- C++ -*----------------------------------*\
| =========                 |                                                 |
| \\      /  F ield         | OpenFOAM: The Open Source CFD Toolbox           |
|  \\    /   O peration     | Version:  2306                                  |
|   \\  /    A nd           | Website:  www.openfoam.com                      |
|    \\/     M anipulation  |                                                 |
\*---------------------------------------------------------------------------*/
FoamFile
{
    version     2.0;
    format      ascii;
    arch        "LSB;label=32;scalar=64";
    class       volScalarField;
    location    "0.012";
    object      alphat;
}
// * * * * * * * * * * * * * * * * * * * * * * * * * * * * * * * * * * * * * //

dimensions      [1 -1 -1 0 0 0 0];

internalField   nonuniform List<scalar> 
20000
(
0.00044115749
0.001090032
0.0014305156
0.0015220754
0.0013054838
0.00063801567
1.4270596e-05
1.0773292e-08
8.8820913e-09
8.7677651e-09
8.7680589e-09
8.7198389e-09
8.7089162e-09
8.6872402e-09
8.6779447e-09
8.6675837e-09
8.6620264e-09
8.6582618e-09
8.6574511e-09
8.6590092e-09
8.6629656e-09
8.6690319e-09
8.6767112e-09
8.6853547e-09
8.6940281e-09
8.7017532e-09
8.7076229e-09
8.7109747e-09
8.7113661e-09
8.7090035e-09
8.70417e-09
8.6974466e-09
8.6894597e-09
8.6807826e-09
8.6716364e-09
8.6622798e-09
8.6530128e-09
8.6442587e-09
8.635991e-09
8.6280919e-09
8.6203e-09
8.6131471e-09
8.6073719e-09
8.6006299e-09
8.5946269e-09
8.5918226e-09
8.5916154e-09
8.5894021e-09
8.5832738e-09
8.5782724e-09
0.0004382547
0.0010753844
0.0014019382
0.0014776228
0.0012456712
0.00055622643
5.8095524e-06
9.9665315e-09
8.8789378e-09
8.7656852e-09
8.7677878e-09
8.7203082e-09
8.7101811e-09
8.6892508e-09
8.6805563e-09
8.6707989e-09
8.6657628e-09
8.6625076e-09
8.6621585e-09
8.6641452e-09
8.6684708e-09
8.6748295e-09
8.6826955e-09
8.6913857e-09
8.6999372e-09
8.7073529e-09
8.7127613e-09
8.7154773e-09
8.7151451e-09
8.7120673e-09
8.7065524e-09
8.699222e-09
8.690721e-09
8.6816578e-09
8.6722515e-09
8.6627111e-09
8.6532714e-09
8.6443714e-09
8.6360426e-09
8.6281451e-09
8.6203438e-09
8.6132444e-09
8.6074515e-09
8.600441e-09
8.5945213e-09
8.5919233e-09
8.5918678e-09
8.5893959e-09
8.5832146e-09
8.5782534e-09
0.00043569222
0.0010618055
0.0013744178
0.0014326399
0.0011833684
0.0004747019
2.1437729e-06
9.481803e-09
8.8762493e-09
8.7641148e-09
8.7669254e-09
8.7209754e-09
8.7115815e-09
8.6914763e-09
8.6833845e-09
8.6742692e-09
8.6697829e-09
8.6670782e-09
8.6672362e-09
8.669704e-09
8.674462e-09
8.6811808e-09
8.6893055e-09
8.6981113e-09
8.7065972e-09
8.7137475e-09
8.7187147e-09
8.720776e-09
8.7196971e-09
8.7158453e-09
8.7095832e-09
8.7015771e-09
8.6925019e-09
8.6829908e-09
8.6732798e-09
8.6635032e-09
8.6538431e-09
8.6447557e-09
8.6363226e-09
8.6283917e-09
8.620553e-09
8.6134888e-09
8.6076636e-09
8.6003732e-09
8.5945975e-09
8.5921294e-09
8.5920869e-09
8.5894137e-09
8.5831429e-09
8.5782663e-09
0.0004331663
0.0010484684
0.0013476951
0.0013894719
0.0011199631
0.00039879214
7.9284138e-07
9.1944116e-09
8.8742686e-09
8.7630306e-09
8.7669377e-09
8.7221515e-09
8.713475e-09
8.6941892e-09
8.6866839e-09
8.678205e-09
8.6742599e-09
8.6720966e-09
8.6727501e-09
8.6756856e-09
8.6808527e-09
8.6878985e-09
8.6962338e-09
8.7050912e-09
8.713432e-09
8.7202387e-09
8.7246681e-09
8.7259787e-09
8.7241149e-09
8.7194404e-09
8.7124098e-09
8.7037241e-09
8.6940832e-09
8.6841394e-09
8.6741328e-09
8.6641306e-09
8.6542713e-09
8.6450125e-09
8.6364847e-09
8.6285298e-09
8.6206683e-09
8.6136372e-09
8.6077952e-09
8.6002787e-09
8.5946313e-09
8.5922441e-09
8.5922305e-09
8.589529e-09
8.5830933e-09
8.5783018e-09
0.00043069762
0.0010351266
0.0013213247
0.0013454922
0.0010540579
0.00032754095
3.0616932e-07
9.0230312e-09
8.8740212e-09
8.7625091e-09
8.7672244e-09
8.7237832e-09
8.7157988e-09
8.6973358e-09
8.6904081e-09
8.6825697e-09
8.6791691e-09
8.677558e-09
8.6787154e-09
8.6821276e-09
8.6877108e-09
8.6950863e-09
8.7036251e-09
8.7125151e-09
8.7206781e-09
8.7271057e-09
8.7309346e-09
8.731436e-09
8.7287449e-09
8.7231977e-09
8.7153591e-09
8.7059624e-09
8.6957313e-09
8.6853375e-09
8.6750275e-09
8.6647971e-09
8.6547366e-09
8.6453021e-09
8.636672e-09
8.628685e-09
8.6207994e-09
8.6137921e-09
8.6079256e-09
8.6002217e-09
8.5947147e-09
8.5923917e-09
8.5923249e-09
8.5896546e-09
8.5830571e-09
8.5783367e-09
0.00042823095
0.0010214977
0.0012935164
0.0013006709
0.00098545055
0.00026123759
1.2963848e-07
8.9204765e-09
8.8735293e-09
8.7625261e-09
8.7681038e-09
8.7258983e-09
8.7185785e-09
8.7009418e-09
8.6945828e-09
8.6873849e-09
8.6845327e-09
8.6834739e-09
8.6851409e-09
8.6890323e-09
8.6950297e-09
8.7027238e-09
8.7114431e-09
8.7203256e-09
8.7282567e-09
8.7342483e-09
8.7373831e-09
8.7370306e-09
8.7334428e-09
8.7269807e-09
8.7183031e-09
8.7081778e-09
8.6973498e-09
8.6865024e-09
8.6758803e-09
8.6654187e-09
8.6551622e-09
8.6455601e-09
8.6368307e-09
8.6288109e-09
8.6209075e-09
8.6139185e-09
8.6080187e-09
8.600173e-09
8.5947609e-09
8.5925321e-09
8.5923813e-09
8.5897339e-09
8.583037e-09
8.5783613e-09
0.00042586066
0.0010081381
0.0012661344
0.0012559913
0.00091403445
0.0002012376
6.2456957e-08
8.8576419e-09
8.8747894e-09
8.7630851e-09
8.7694392e-09
8.7284903e-09
8.7218115e-09
8.7050064e-09
8.6992076e-09
8.6926557e-09
8.6903528e-09
8.689857e-09
8.692038e-09
8.6964112e-09
8.702821e-09
8.7108233e-09
8.7196998e-09
8.728535e-09
8.7361842e-09
8.7416789e-09
8.7440319e-09
8.7427845e-09
8.7382339e-09
8.7308158e-09
8.7212675e-09
8.7103921e-09
8.6989528e-09
8.6876445e-09
8.6767084e-09
8.6660171e-09
8.6555651e-09
8.6457987e-09
8.6369703e-09
8.6289175e-09
8.621003e-09
8.6140307e-09
8.6080811e-09
8.600137e-09
8.5948144e-09
8.5926774e-09
8.5924347e-09
8.5897871e-09
8.5830455e-09
8.578385e-09
0.00042356603
0.00099474684
0.0012386602
0.0012112123
0.00083989428
0.00014540945
3.4564306e-08
8.8196664e-09
8.8708062e-09
8.7641531e-09
8.7712768e-09
8.731563e-09
8.7255032e-09
8.7095362e-09
8.7042947e-09
8.6983908e-09
8.6966449e-09
8.6967143e-09
8.699418e-09
8.7042774e-09
8.7110977e-09
8.7193956e-09
8.7284019e-09
8.7371446e-09
8.7444606e-09
8.7493776e-09
8.7508577e-09
8.7486679e-09
8.7430887e-09
8.7346734e-09
8.724227e-09
8.7125871e-09
8.7005328e-09
8.6887629e-09
8.6775077e-09
8.6665808e-09
8.6559352e-09
8.646009e-09
8.6370813e-09
8.6289955e-09
8.621076e-09
8.614124e-09
8.608105e-09
8.6001073e-09
8.5948841e-09
8.5928225e-09
8.5924935e-09
8.5898143e-09
8.5830758e-09
8.5784052e-09
0.00042132796
0.00098113055
0.0012108
0.0011663594
0.00076339185
9.4909856e-05
2.2025546e-08
8.7964694e-09
8.8710218e-09
8.7657793e-09
8.7735243e-09
8.7351219e-09
8.7296625e-09
8.7145398e-09
8.7098495e-09
8.7046007e-09
8.7034141e-09
8.7040617e-09
8.7072927e-09
8.7126398e-09
8.7198652e-09
8.7284422e-09
8.7375452e-09
8.7461455e-09
8.7530734e-09
8.757321e-09
8.7578532e-09
8.7546616e-09
8.7479956e-09
8.7385435e-09
8.727173e-09
8.7147531e-09
8.7020756e-09
8.6898426e-09
8.67827e-09
8.6671103e-09
8.656274e-09
8.6461918e-09
8.637166e-09
8.6290453e-09
8.6211258e-09
8.6141979e-09
8.6080845e-09
8.6000802e-09
8.5949896e-09
8.5929692e-09
8.5925594e-09
8.5898155e-09
8.583086e-09
8.5784161e-09
0.00041909603
0.00096715669
0.0011817302
0.0011181561
0.00068517525
5.3464306e-05
1.5963187e-08
8.7827291e-09
8.8711309e-09
8.7679619e-09
8.7761398e-09
8.7391664e-09
8.7342945e-09
8.7200218e-09
8.7158832e-09
8.7112931e-09
8.7106766e-09
8.7119058e-09
8.7156744e-09
8.7215129e-09
8.7291384e-09
8.7379759e-09
8.7471378e-09
8.7555414e-09
8.7620173e-09
8.7654851e-09
8.7650203e-09
8.7607355e-09
8.7529311e-09
8.742405e-09
8.7300891e-09
8.7168809e-09
8.7035818e-09
8.6908899e-09
8.6789981e-09
8.6676015e-09
8.6565771e-09
8.6463458e-09
8.637224e-09
8.6290671e-09
8.6211532e-09
8.6142518e-09
8.6080025e-09
8.6000475e-09
8.5951082e-09
8.5931167e-09
8.5926282e-09
8.589799e-09
8.5830731e-09
8.5784161e-09
0.00041690719
0.00095304541
0.0011518612
0.0010706684
0.00060669071
2.5371574e-05
1.2872536e-08
8.774994e-09
8.8718485e-09
8.7706898e-09
8.7791498e-09
8.743695e-09
8.7394051e-09
8.725992e-09
8.7224041e-09
8.7184828e-09
8.7184408e-09
8.7202663e-09
8.7245761e-09
8.7309053e-09
8.7389214e-09
8.747995e-09
8.757172e-09
8.7653206e-09
8.7712704e-09
8.7738498e-09
8.7723306e-09
8.7668732e-09
8.7578797e-09
8.7462453e-09
8.7329642e-09
8.7189582e-09
8.7050344e-09
8.6918867e-09
8.6796815e-09
8.6680528e-09
8.6568452e-09
8.6464705e-09
8.6372548e-09
8.6290602e-09
8.6211576e-09
8.6142854e-09
8.6078868e-09
8.600005e-09
8.5952138e-09
8.5932613e-09
8.5927028e-09
8.5897677e-09
8.5830426e-09
8.5784029e-09
0.0004147557
0.00093892895
0.0011217333
0.0010232064
0.00052865295
1.0313858e-05
1.1202748e-08
8.7710554e-09
8.8730712e-09
8.7739785e-09
8.7828049e-09
8.748728e-09
8.7450078e-09
8.7324628e-09
8.7294302e-09
8.7261818e-09
8.7267267e-09
8.7291512e-09
8.7340119e-09
8.740833e-09
8.7492297e-09
8.7585116e-09
8.7676555e-09
8.7754903e-09
8.7808177e-09
8.782401e-09
8.7797617e-09
8.7730498e-09
8.7628165e-09
8.7500429e-09
8.7357822e-09
8.7209764e-09
8.7064352e-09
8.6928405e-09
8.6803233e-09
8.6684604e-09
8.6570742e-09
8.6465651e-09
8.6372581e-09
8.6290246e-09
8.6211389e-09
8.6142978e-09
8.6077511e-09
8.5999484e-09
8.5953015e-09
8.5933954e-09
8.5927818e-09
8.5897277e-09
8.5829924e-09
8.5783701e-09
0.00041266564
0.00092501741
0.0010924452
0.00097491262
0.0004521753
3.7823831e-06
1.0278548e-08
8.7696989e-09
8.874848e-09
8.7778526e-09
8.7873535e-09
8.7543025e-09
8.7511196e-09
8.7394511e-09
8.7369737e-09
8.7344078e-09
8.7355449e-09
8.7385831e-09
8.7439951e-09
8.7513036e-09
8.7600651e-09
8.7695199e-09
8.7785769e-09
8.7860306e-09
8.7906247e-09
8.7911224e-09
8.7872814e-09
8.7792443e-09
8.7677235e-09
8.7537839e-09
8.7385314e-09
8.7229235e-09
8.7077682e-09
8.6937344e-09
8.6809144e-09
8.6688234e-09
8.6572639e-09
8.6466278e-09
8.637233e-09
8.628961e-09
8.6210965e-09
8.6142887e-09
8.6075906e-09
8.5998763e-09
8.595374e-09
8.5935198e-09
8.5928617e-09
8.5896863e-09
8.5829292e-09
8.5783169e-09
0.00041051193
0.00091061633
0.0010621134
0.0009249338
0.0003794532
1.3374744e-06
9.7601627e-09
8.770111e-09
8.8772967e-09
8.7823346e-09
8.7926164e-09
8.7604425e-09
8.7577603e-09
8.7469731e-09
8.7450549e-09
8.7431763e-09
8.7449174e-09
8.7485686e-09
8.7545412e-09
8.7623343e-09
8.7714431e-09
8.7810304e-09
8.7899416e-09
8.7969354e-09
8.8006686e-09
8.8000108e-09
8.7948558e-09
8.7854271e-09
8.7725739e-09
8.757446e-09
8.7411958e-09
8.724791e-09
8.7090344e-09
8.6945745e-09
8.6814569e-09
8.6691372e-09
8.6574091e-09
8.6466578e-09
8.6371828e-09
8.6288737e-09
8.6210315e-09
8.6142596e-09
8.6074117e-09
8.5997973e-09
8.5954325e-09
8.5936345e-09
8.5929413e-09
8.5896452e-09
8.5828594e-09
8.5782529e-09
0.00040829754
0.00089590481
0.0010310073
0.00087264411
0.00031116743
4.8295079e-07
9.4678684e-09
8.7718822e-09
8.8798839e-09
8.7874262e-09
8.7980095e-09
8.7671379e-09
8.764944e-09
8.7550436e-09
8.753687e-09
8.7525029e-09
8.7548519e-09
8.759129e-09
8.7656619e-09
8.7739317e-09
8.7833615e-09
8.7930353e-09
8.8017323e-09
8.8081787e-09
8.8109169e-09
8.8090279e-09
8.80246e-09
8.7915764e-09
8.777351e-09
8.7610164e-09
8.743765e-09
8.7265683e-09
8.710219e-09
8.6953454e-09
8.6819429e-09
8.6694001e-09
8.6575093e-09
8.6466576e-09
8.6371129e-09
8.6287652e-09
8.6209477e-09
8.6142134e-09
8.6072156e-09
8.5997122e-09
8.5954776e-09
8.5937369e-09
8.5930205e-09
8.5895982e-09
8.5827827e-09
8.5781834e-09
0.00040604383
0.00088102346
0.00099918218
0.00081856268
0.00024677747
1.8848969e-07
9.3002641e-09
8.7747391e-09
8.8829119e-09
8.7931271e-09
8.8031458e-09
8.7743679e-09
8.772686e-09
8.7636747e-09
8.7628854e-09
8.7623998e-09
8.7653698e-09
8.7702777e-09
8.7773745e-09
8.7861123e-09
8.7958354e-09
8.8055431e-09
8.8139582e-09
8.8197398e-09
8.8213564e-09
8.8181452e-09
8.8100629e-09
8.7976601e-09
8.7820267e-09
8.764473e-09
8.7462233e-09
8.7282471e-09
8.7113231e-09
8.6960525e-09
8.6823725e-09
8.6696068e-09
8.6575643e-09
8.6466323e-09
8.6370233e-09
8.6286253e-09
8.6208465e-09
8.61415e-09
8.6070033e-09
8.5996227e-09
8.5955125e-09
8.593828e-09
8.5931002e-09
8.5895449e-09
8.582698e-09
8.578107e-09
0.00040378762
0.00086622786
0.00096675091
0.00076293268
0.00018641932
8.3426534e-08
9.2028796e-09
8.7785822e-09
8.8875086e-09
8.7994584e-09
8.8087224e-09
8.7821468e-09
8.7809965e-09
8.7728809e-09
8.7726609e-09
8.7728893e-09
8.7764878e-09
8.7820313e-09
8.7896905e-09
8.7988799e-09
8.808859e-09
8.8185393e-09
8.8265931e-09
8.8315728e-09
8.8319628e-09
8.8273182e-09
8.8176338e-09
8.803654e-09
8.7865834e-09
8.7678029e-09
8.748561e-09
8.7298181e-09
8.7123342e-09
8.6966832e-09
8.6827384e-09
8.6697595e-09
8.6575789e-09
8.6465738e-09
8.6368933e-09
8.6284463e-09
8.620711e-09
8.6140563e-09
8.6067744e-09
8.5995295e-09
8.5955396e-09
8.5939091e-09
8.5931817e-09
8.5894842e-09
8.5826051e-09
8.5780249e-09
0.0004016383
0.00085190183
0.00093442214
0.00070423716
0.00013227832
4.30147e-08
9.1459831e-09
8.7832667e-09
8.8921849e-09
8.8064374e-09
8.816222e-09
8.7905291e-09
8.7898832e-09
8.7826646e-09
8.7830324e-09
8.7839773e-09
8.7882189e-09
8.7944064e-09
8.8026279e-09
8.8122524e-09
8.8224449e-09
8.8320317e-09
8.8396308e-09
8.8436545e-09
8.8427251e-09
8.8365091e-09
8.8251369e-09
8.8095241e-09
8.7909925e-09
8.7709847e-09
8.7507633e-09
8.7312737e-09
8.7132532e-09
8.6972401e-09
8.6830388e-09
8.6698579e-09
8.657546e-09
8.646464e-09
8.6367359e-09
8.6282493e-09
8.6205448e-09
8.6139257e-09
8.6065271e-09
8.599433e-09
8.5955619e-09
8.5939832e-09
8.5932664e-09
8.5894148e-09
8.5825034e-09
8.5779378e-09
0.00039961488
0.00083806333
0.00090547988
0.00064273847
8.414779e-05
2.5798086e-08
9.1128057e-09
8.7887204e-09
8.8969331e-09
8.8140404e-09
8.8250494e-09
8.7995522e-09
8.7993448e-09
8.7930398e-09
8.794003e-09
8.7956897e-09
8.8005844e-09
8.8074196e-09
8.816197e-09
8.8262299e-09
8.8365828e-09
8.8460003e-09
8.8530335e-09
8.8559435e-09
8.85359e-09
8.8456797e-09
8.8325403e-09
8.8152483e-09
8.795239e-09
8.7740079e-09
8.7528227e-09
8.7326069e-09
8.7140702e-09
8.6977119e-09
8.6832721e-09
8.6699047e-09
8.6574422e-09
8.6463254e-09
8.6365612e-09
8.628026e-09
8.6203627e-09
8.6137732e-09
8.6062598e-09
8.5993334e-09
8.5955815e-09
8.5940532e-09
8.5933551e-09
8.5893352e-09
8.5823929e-09
8.5778456e-09
0.00039763032
0.00082390284
0.00087450552
0.00057807094
4.6045087e-05
1.7831605e-08
9.0939264e-09
8.7949299e-09
8.9025107e-09
8.8222712e-09
8.8336393e-09
8.8091682e-09
8.8093998e-09
8.8040182e-09
8.8056059e-09
8.8080374e-09
8.8136011e-09
8.8210902e-09
8.8304175e-09
8.8408296e-09
8.8512853e-09
8.8604536e-09
8.8667795e-09
8.8684226e-09
8.8645241e-09
8.8547928e-09
8.8398051e-09
8.8207915e-09
8.7992946e-09
8.7768516e-09
8.7547253e-09
8.7338111e-09
8.7147838e-09
8.6980993e-09
8.6834416e-09
8.6698876e-09
8.6572873e-09
8.6461491e-09
8.6363581e-09
8.6277774e-09
8.6201535e-09
8.6135951e-09
8.6059712e-09
8.5992305e-09
8.5956004e-09
8.5941219e-09
8.5934478e-09
8.5892436e-09
8.5822731e-09
8.5777476e-09
0.00039580277
0.0008099147
0.00084395824
0.00051134881
2.1372216e-05
1.3884327e-08
9.0837999e-09
8.8018964e-09
8.9088043e-09
8.8311022e-09
8.8416097e-09
8.8193506e-09
8.820069e-09
8.8156302e-09
8.8178517e-09
8.8210525e-09
8.8272933e-09
8.8354354e-09
8.8452971e-09
8.8560465e-09
8.8665357e-09
8.8753593e-09
8.8808069e-09
8.8810611e-09
8.8754633e-09
8.8638046e-09
8.8468983e-09
8.8261316e-09
8.8031452e-09
8.7795071e-09
8.756466e-09
8.7348807e-09
8.7153855e-09
8.6984001e-09
8.6835475e-09
8.6697839e-09
8.6570841e-09
8.6459312e-09
8.6361284e-09
8.6275041e-09
8.6199213e-09
8.6133892e-09
8.6056616e-09
8.5991239e-09
8.5956203e-09
8.5941916e-09
8.5935426e-09
8.5891381e-09
8.5821436e-09
8.5776436e-09
0.00039407737
0.00079589052
0.00081272251
0.00044351875
8.5495039e-06
1.1818568e-08
9.0790673e-09
8.8096023e-09
8.9155812e-09
8.8405677e-09
8.8500275e-09
8.8301278e-09
8.8313921e-09
8.8278975e-09
8.8307787e-09
8.8347485e-09
8.8416801e-09
8.8504761e-09
8.8608555e-09
8.8718956e-09
8.8823425e-09
8.8907087e-09
8.8950912e-09
8.8938354e-09
8.8863672e-09
8.8726723e-09
8.8537789e-09
8.8312335e-09
8.8067637e-09
8.7819557e-09
8.7580332e-09
8.7358083e-09
8.7158745e-09
8.6986217e-09
8.6835704e-09
8.6696207e-09
8.6568247e-09
8.6456702e-09
8.635868e-09
8.6272071e-09
8.6196673e-09
8.6131567e-09
8.6053328e-09
8.5990185e-09
8.5956442e-09
8.5942651e-09
8.5936364e-09
8.5890167e-09
8.5820039e-09
8.5775338e-09
0.00039232902
0.00078072434
0.00078065093
0.00037656037
3.1313792e-06
1.070147e-08
9.0776892e-09
8.8181532e-09
8.922946e-09
8.8507328e-09
8.8600441e-09
8.8415799e-09
8.8433863e-09
8.840849e-09
8.8443974e-09
8.8491604e-09
8.8567859e-09
8.8662282e-09
8.8770962e-09
8.8883659e-09
8.8986838e-09
8.9064525e-09
8.9095789e-09
8.9066739e-09
8.8971805e-09
8.8813506e-09
8.8604171e-09
8.83608e-09
8.8101409e-09
8.7841932e-09
8.7594236e-09
8.7365902e-09
8.7162538e-09
8.6987608e-09
8.6834902e-09
8.6693989e-09
8.6565106e-09
8.6453633e-09
8.6355748e-09
8.6268869e-09
8.6193938e-09
8.6128987e-09
8.6049884e-09
8.5989179e-09
8.5956762e-09
8.5943449e-09
8.5937241e-09
8.5888772e-09
8.5818536e-09
8.5774191e-09
0.00039045591
0.0007643622
0.00074719693
0.00031361091
1.1204927e-06
1.0078969e-08
9.0786498e-09
8.8275642e-09
8.9310595e-09
8.8616481e-09
8.8715889e-09
8.853767e-09
8.8560813e-09
8.8545038e-09
8.8587472e-09
8.8642992e-09
8.8726308e-09
8.8827129e-09
8.8940373e-09
8.9054722e-09
8.9155653e-09
8.9225629e-09
8.9242466e-09
8.9195346e-09
8.9078584e-09
8.8897934e-09
8.8667711e-09
8.8406365e-09
8.8132516e-09
8.7862023e-09
8.7606243e-09
8.7372241e-09
8.7165292e-09
8.6987845e-09
8.6833415e-09
8.6691096e-09
8.6561416e-09
8.6450096e-09
8.6352453e-09
8.6265436e-09
8.6191022e-09
8.6126128e-09
8.6046336e-09
8.5988245e-09
8.5957228e-09
8.5944327e-09
8.5938002e-09
8.588717e-09
8.5816924e-09
8.5773003e-09
0.00038836212
0.0007463839
0.00071122533
0.00025333836
4.1366019e-07
9.7260699e-09
9.0818203e-09
8.8378909e-09
8.9398388e-09
8.8733086e-09
8.88382e-09
8.8666985e-09
8.8694892e-09
8.868889e-09
8.8738354e-09
8.8802004e-09
8.889238e-09
8.8999419e-09
8.9116753e-09
8.9231962e-09
8.9329447e-09
8.9389608e-09
8.9390542e-09
8.9323311e-09
8.9183405e-09
8.8979561e-09
8.8728135e-09
8.8448893e-09
8.8160906e-09
8.7879801e-09
8.7616337e-09
8.7377173e-09
8.7166966e-09
8.6986933e-09
8.6831152e-09
8.6687544e-09
8.6557189e-09
8.6446079e-09
8.6348767e-09
8.6261763e-09
8.6187922e-09
8.612293e-09
8.6042752e-09
8.5987384e-09
8.595791e-09
8.5945288e-09
8.59386e-09
8.5885328e-09
8.5815202e-09
8.577179e-09
0.00038593705
0.00072640906
0.00066893171
0.00019585876
1.6735796e-07
9.5277481e-09
9.0866586e-09
8.8490697e-09
8.9493228e-09
8.8856991e-09
8.8961053e-09
8.8803487e-09
8.883643e-09
8.8840216e-09
8.8897005e-09
8.8968746e-09
8.906628e-09
8.9179355e-09
8.9300266e-09
8.9415456e-09
8.9508093e-09
8.95562e-09
8.9539582e-09
8.9450171e-09
8.928575e-09
8.9057906e-09
8.8785033e-09
8.8488066e-09
8.8186353e-09
8.78951e-09
8.7624497e-09
8.7380731e-09
8.7167143e-09
8.698527e-09
8.6828051e-09
8.6683321e-09
8.655244e-09
8.6441586e-09
8.6344663e-09
8.6257834e-09
8.6184596e-09
8.6119245e-09
8.6039238e-09
8.5986569e-09
8.5958861e-09
8.5946305e-09
8.5939019e-09
8.5883207e-09
8.581337e-09
8.5770563e-09
0.00038325084
0.00070513204
0.0006216311
0.00014248435
7.7327324e-08
9.4160372e-09
9.0916834e-09
8.8611346e-09
8.9594972e-09
8.8988048e-09
8.9083068e-09
8.8947017e-09
8.8985568e-09
8.8999316e-09
8.9063546e-09
8.9143637e-09
8.9248244e-09
8.9367019e-09
8.9490815e-09
8.9604924e-09
8.9690984e-09
8.9724647e-09
8.9688727e-09
8.9575128e-09
8.9384994e-09
8.9132565e-09
8.8838204e-09
8.852382e-09
8.8208836e-09
8.790794e-09
8.763087e-09
8.7382856e-09
8.7166082e-09
8.6982608e-09
8.6824127e-09
8.6678439e-09
8.6547179e-09
8.6436623e-09
8.6340132e-09
8.6253634e-09
8.6180982e-09
8.6114879e-09
8.6035911e-09
8.5985766e-09
8.5960014e-09
8.5947416e-09
8.5939252e-09
8.5880766e-09
8.5811433e-09
8.5769332e-09
0.00038036431
0.00068295845
0.00056947204
9.6170254e-05
4.1590709e-08
9.3538199e-09
9.0973897e-09
8.8741142e-09
8.9703994e-09
8.9126546e-09
8.9213439e-09
8.9097752e-09
8.9142645e-09
8.9166402e-09
8.9238416e-09
8.9326784e-09
8.9438481e-09
8.9562603e-09
8.9688546e-09
8.9800407e-09
8.9877698e-09
8.9894702e-09
8.983737e-09
8.9697668e-09
8.9480601e-09
8.9203073e-09
8.8887267e-09
8.8555861e-09
8.8228133e-09
8.7918282e-09
8.7635444e-09
8.7383017e-09
8.7164011e-09
8.6978957e-09
8.6819349e-09
8.6672904e-09
8.6541434e-09
8.6431204e-09
8.6335171e-09
8.6249148e-09
8.6176995e-09
8.6109796e-09
8.6032656e-09
8.5984855e-09
8.5961124e-09
8.5948751e-09
8.5939161e-09
8.5877971e-09
8.58094e-09
8.5768107e-09
0.0003772238
0.00065997762
0.00051636503
5.7895054e-05
2.5858817e-08
9.3203104e-09
9.1038127e-09
8.8880479e-09
8.9820303e-09
8.927278e-09
8.9359633e-09
8.925658e-09
8.9307881e-09
8.9341883e-09
8.9421814e-09
8.9518693e-09
8.9637222e-09
8.9766117e-09
8.9893257e-09
9.0001354e-09
9.0067259e-09
9.0065776e-09
8.9984395e-09
8.981691e-09
8.9571957e-09
8.926907e-09
8.8932075e-09
8.8584147e-09
8.8244287e-09
8.7926319e-09
8.7637952e-09
8.7381772e-09
8.7160759e-09
8.6974346e-09
8.6813749e-09
8.6666729e-09
8.6535214e-09
8.6425345e-09
8.6329794e-09
8.6244375e-09
8.6172573e-09
8.6104028e-09
8.6029294e-09
8.5983772e-09
8.5961979e-09
8.5950348e-09
8.593893e-09
8.5874796e-09
8.5807277e-09
8.5766897e-09
0.00037371675
0.00063489225
0.00046324438
2.9948405e-05
1.8333644e-08
9.3039795e-09
9.1109848e-09
8.903059e-09
8.9944229e-09
8.942714e-09
8.9520293e-09
8.9424256e-09
8.9481734e-09
8.9526092e-09
8.9614246e-09
8.9719433e-09
8.9844673e-09
8.9977723e-09
9.0105006e-09
9.0207567e-09
9.0259355e-09
9.0237172e-09
9.012926e-09
8.9932278e-09
8.9658534e-09
8.9330123e-09
8.897228e-09
8.8608417e-09
8.825725e-09
8.7931967e-09
8.7637982e-09
8.7379151e-09
8.7156324e-09
8.6968724e-09
8.6807309e-09
8.6659941e-09
8.6528548e-09
8.6419062e-09
8.632402e-09
8.6239328e-09
8.6167684e-09
8.6097564e-09
8.6025713e-09
8.5982628e-09
8.5962721e-09
8.5952029e-09
8.5938505e-09
8.5871233e-09
8.5805072e-09
8.5765709e-09
0.00037030179
0.00061037613
0.00040841184
1.334966e-05
1.4534984e-08
9.2980776e-09
9.118959e-09
8.9195035e-09
9.0075877e-09
8.9589929e-09
8.9687183e-09
8.960098e-09
8.9664597e-09
8.9719441e-09
8.9815883e-09
8.9929424e-09
9.0060954e-09
9.0197324e-09
9.0323423e-09
9.0418241e-09
9.0452986e-09
9.040779e-09
9.0270834e-09
9.004291e-09
8.9739783e-09
8.9385976e-09
8.9007815e-09
8.8628749e-09
8.8267274e-09
8.7934778e-09
8.7636389e-09
8.737508e-09
8.7150779e-09
8.6962172e-09
8.6800068e-09
8.6652556e-09
8.6521451e-09
8.6412372e-09
8.6317873e-09
8.6234036e-09
8.6162357e-09
8.6090446e-09
8.6021876e-09
8.5981536e-09
8.5963473e-09
8.5953721e-09
8.5937978e-09
8.58673e-09
8.5802781e-09
8.5764547e-09
0.00036715514
0.00058712276
0.0003529132
5.3061619e-06
1.2487279e-08
9.2985678e-09
9.1278122e-09
8.9381148e-09
9.0215969e-09
8.9761591e-09
8.9855411e-09
8.9786588e-09
8.9856946e-09
8.9922286e-09
9.0027182e-09
9.0148897e-09
9.0286263e-09
9.0425044e-09
9.0548484e-09
9.0632705e-09
9.064788e-09
9.0576758e-09
9.04085e-09
9.01482e-09
8.9815213e-09
8.9436227e-09
8.9038364e-09
8.8645059e-09
8.8274193e-09
8.7934602e-09
8.7632904e-09
8.7369547e-09
8.714406e-09
8.6954628e-09
8.6792031e-09
8.6644623e-09
8.6513956e-09
8.6405288e-09
8.6311373e-09
8.622853e-09
8.6156662e-09
8.6082808e-09
8.6017843e-09
8.598063e-09
8.5964266e-09
8.5955412e-09
8.5936882e-09
8.5863043e-09
8.5800404e-09
8.5763419e-09
0.00036421207
0.00056296441
0.00029710316
1.9750943e-06
1.1351983e-08
9.3031783e-09
9.1375571e-09
8.9578022e-09
9.0365362e-09
8.9942342e-09
9.0028389e-09
8.9981255e-09
9.0059137e-09
9.0135176e-09
9.0248529e-09
9.0378125e-09
9.0520634e-09
9.0660636e-09
9.0779455e-09
9.0849847e-09
9.0842984e-09
9.0742711e-09
9.0541077e-09
9.0247345e-09
8.9884368e-09
8.94807e-09
8.9063987e-09
8.8657633e-09
8.8277423e-09
8.7932466e-09
8.7627597e-09
8.7362635e-09
8.7136275e-09
8.6946182e-09
8.6783235e-09
8.663616e-09
8.6506088e-09
8.6397836e-09
8.630454e-09
8.6222825e-09
8.6150689e-09
8.6074893e-09
8.601374e-09
8.5979932e-09
8.5965109e-09
8.5957099e-09
8.5935177e-09
8.5858506e-09
8.5797954e-09
8.5762323e-09
0.00036171481
0.0005379881
0.00024178881
7.2825564e-07
1.0715462e-08
9.3105243e-09
9.1482083e-09
8.9785466e-09
9.0523956e-09
9.0132626e-09
9.0217e-09
9.0185782e-09
9.0271768e-09
9.035831e-09
9.0480189e-09
9.0617313e-09
9.0764191e-09
9.0904097e-09
9.1015975e-09
9.1069092e-09
9.1037419e-09
9.0904884e-09
9.0667878e-09
9.0339769e-09
8.9946803e-09
8.9519052e-09
8.9084584e-09
8.8666249e-09
8.8277136e-09
8.7927798e-09
8.7620435e-09
8.7354311e-09
8.7127349e-09
8.6936781e-09
8.6773706e-09
8.6627226e-09
8.6497883e-09
8.6390041e-09
8.629739e-09
8.6216901e-09
8.6144469e-09
8.6066975e-09
8.6009778e-09
8.5979432e-09
8.5966062e-09
8.5958786e-09
8.593273e-09
8.5853746e-09
8.5795444e-09
8.5761258e-09
0.00035986887
0.00051262021
0.00018810756
2.8386879e-07
1.0351596e-08
9.3197801e-09
9.1597533e-09
9.0002963e-09
9.0691615e-09
9.0332911e-09
9.0423307e-09
9.0401286e-09
9.049491e-09
9.0592273e-09
9.0722527e-09
9.0866619e-09
9.1016832e-09
9.1154944e-09
9.1256885e-09
9.128926e-09
9.1229606e-09
9.1061879e-09
9.0787743e-09
9.0424759e-09
9.0002178e-09
8.9551304e-09
8.9100489e-09
8.8670233e-09
8.8274295e-09
8.7920857e-09
8.7611531e-09
8.7344684e-09
8.711741e-09
8.6926517e-09
8.6763473e-09
8.6617835e-09
8.6489373e-09
8.6381952e-09
8.6289948e-09
8.6210687e-09
8.6137896e-09
8.6059323e-09
8.6006151e-09
8.5979257e-09
8.5967178e-09
8.596048e-09
8.5929361e-09
8.584884e-09
8.5792883e-09
8.5760218e-09
0.00035857755
0.00048591185
0.00013739305
1.2347469e-07
1.0136452e-08
9.3306277e-09
9.1722681e-09
9.0230601e-09
9.0869258e-09
9.0543725e-09
9.0638589e-09
9.0627893e-09
9.0729333e-09
9.0837222e-09
9.0975751e-09
9.1126185e-09
9.1278596e-09
9.1412906e-09
9.1501182e-09
9.1510004e-09
9.1418382e-09
9.1212825e-09
9.0900016e-09
9.0501805e-09
9.005013e-09
8.9577329e-09
8.9111413e-09
8.8670006e-09
8.8268255e-09
8.791158e-09
8.7600881e-09
8.7333709e-09
8.7106371e-09
8.6915347e-09
8.6752576e-09
8.6608042e-09
8.6480591e-09
8.637362e-09
8.628226e-09
8.6204062e-09
8.6130651e-09
8.6052175e-09
8.6002968e-09
8.5979318e-09
8.5968462e-09
8.596222e-09
8.5924905e-09
8.5843874e-09
8.5790277e-09
8.5759198e-09
0.00035743636
0.00045384946
9.1220051e-05
6.176922e-08
1.0006632e-08
9.3429463e-09
9.185806e-09
9.0469023e-09
9.1058284e-09
9.0765232e-09
9.085851e-09
9.0865508e-09
9.0975145e-09
9.1093774e-09
9.1240205e-09
9.1396059e-09
9.1549156e-09
9.1677028e-09
9.1747624e-09
9.1729514e-09
9.1602081e-09
9.1356247e-09
9.1003618e-09
9.0570325e-09
9.0090537e-09
8.9597423e-09
8.9116553e-09
8.8666431e-09
8.8259377e-09
8.7900141e-09
8.758861e-09
8.7321511e-09
8.7094365e-09
8.6903353e-09
8.6741027e-09
8.6597842e-09
8.647156e-09
8.6365109e-09
8.6274395e-09
8.6196899e-09
8.6122285e-09
8.6045713e-09
8.6000217e-09
8.5979498e-09
8.596991e-09
8.5963977e-09
8.5919311e-09
8.5838919e-09
8.5787634e-09
8.5758187e-09
0.00035644995
0.00041857553
5.4137023e-05
3.603902e-08
9.9261109e-09
9.3566879e-09
9.2004055e-09
9.0718776e-09
9.1261572e-09
9.0997534e-09
9.1089505e-09
9.1114912e-09
9.1233116e-09
9.136208e-09
9.1516059e-09
9.1676314e-09
9.1828336e-09
9.1946602e-09
9.1995346e-09
9.1946624e-09
9.1779624e-09
9.149129e-09
9.109796e-09
9.0629934e-09
9.0123295e-09
8.9611309e-09
8.9116551e-09
8.8658903e-09
8.8247599e-09
8.7886552e-09
8.7574718e-09
8.7308042e-09
8.7081305e-09
8.6890497e-09
8.6728861e-09
8.6587265e-09
8.6462283e-09
8.6356474e-09
8.6266454e-09
8.6189129e-09
8.6112805e-09
8.6039609e-09
8.5997754e-09
8.597969e-09
8.5971367e-09
8.5965378e-09
8.5912621e-09
8.5834006e-09
8.5784974e-09
8.5757179e-09
0.0003552029
0.000378366
2.87327e-05
2.4210119e-08
9.874645e-09
9.3718626e-09
9.2160678e-09
9.0979846e-09
9.1475779e-09
9.124067e-09
9.1336549e-09
9.1376655e-09
9.1503432e-09
9.1642818e-09
9.1803567e-09
9.1966836e-09
9.2115461e-09
9.2219869e-09
9.2242996e-09
9.2159089e-09
9.1949231e-09
9.1616427e-09
9.1182137e-09
9.0680312e-09
9.014863e-09
8.9618077e-09
8.9112282e-09
8.8647845e-09
8.8233159e-09
8.7870982e-09
8.7559347e-09
8.7293441e-09
8.7067333e-09
8.6876853e-09
8.6716071e-09
8.6576277e-09
8.6452748e-09
8.6347744e-09
8.6258539e-09
8.6180798e-09
8.6102366e-09
8.6033559e-09
8.59954e-09
8.5979786e-09
8.5972594e-09
8.5966475e-09
8.5905058e-09
8.5829093e-09
8.5782311e-09
8.5756188e-09
0.00035333045
0.00033377596
1.3427345e-05
1.8257551e-08
9.8406269e-09
9.3884646e-09
9.2327804e-09
9.1252656e-09
9.1702217e-09
9.1496055e-09
9.1594832e-09
9.1651205e-09
9.1787024e-09
9.1936048e-09
9.2102794e-09
9.2267472e-09
9.2409839e-09
9.2495753e-09
9.2489411e-09
9.2365545e-09
9.2109719e-09
9.173094e-09
9.1255691e-09
9.0721352e-09
9.0166287e-09
8.9618501e-09
8.9103117e-09
8.8633193e-09
8.8216078e-09
8.7853461e-09
8.7542498e-09
8.7277658e-09
8.7052364e-09
8.6862387e-09
8.6702671e-09
8.6564869e-09
8.6442911e-09
8.6338904e-09
8.6250715e-09
8.6172039e-09
8.6091328e-09
8.6027519e-09
8.5993014e-09
8.5979701e-09
8.5973416e-09
8.5966471e-09
8.5897005e-09
8.5824115e-09
8.5779672e-09
8.5755206e-09
0.00035036507
0.00028042685
5.8155872e-06
1.5106021e-08
9.817324e-09
9.4067448e-09
9.2506323e-09
9.1538831e-09
9.1941996e-09
9.176476e-09
9.1868293e-09
9.1939512e-09
9.2084069e-09
9.2242378e-09
9.2413784e-09
9.2577683e-09
9.2710066e-09
9.2772456e-09
9.2732146e-09
9.256377e-09
9.2259204e-09
9.1833474e-09
9.1318044e-09
9.0753112e-09
9.0175175e-09
8.9613499e-09
8.9089534e-09
8.8615247e-09
8.8196575e-09
8.7834165e-09
8.7524324e-09
8.7260843e-09
8.7036547e-09
8.6847166e-09
8.6688633e-09
8.6552977e-09
8.6432718e-09
8.6329891e-09
8.6242951e-09
8.6162946e-09
8.608023e-09
8.6021772e-09
8.599097e-09
8.5979393e-09
8.59739e-09
8.5966042e-09
8.588869e-09
8.5819132e-09
8.5777085e-09
8.5754225e-09
0.00034734536
0.00023156414
2.5516164e-06
1.3352949e-08
9.8011602e-09
9.4264347e-09
9.2698298e-09
9.1840696e-09
9.2196822e-09
9.2047814e-09
9.2156659e-09
9.2242097e-09
9.2395299e-09
9.2561627e-09
9.2736354e-09
9.2896926e-09
9.3014682e-09
9.3048882e-09
9.2969419e-09
9.2752333e-09
9.2396615e-09
9.1923508e-09
9.1369089e-09
9.0775429e-09
9.0176209e-09
8.9602434e-09
8.9071491e-09
8.8594037e-09
8.8174705e-09
8.7813137e-09
8.7504833e-09
8.724296e-09
8.7019819e-09
8.6831165e-09
8.6673947e-09
8.6540554e-09
8.64221e-09
8.6320602e-09
8.6235074e-09
8.615343e-09
8.6069799e-09
8.6016637e-09
8.598955e-09
8.5979038e-09
8.5974331e-09
8.5965407e-09
8.5880298e-09