/*--------------------------------*- C++ -*----------------------------------*\
| =========                 |                                                 |
| \\      /  F ield         | OpenFOAM: The Open Source CFD Toolbox           |
|  \\    /   O peration     | Version:  2306                                  |
|   \\  /    A nd           | Website:  www.openfoam.com                      |
|    \\/     M anipulation  |                                                 |
\*---------------------------------------------------------------------------*/
FoamFile
{
    version     2.0;
    format      ascii;
    arch        "LSB;label=32;scalar=64";
    class       volScalarField;
    location    "0.012";
    object      p;
}
// * * * * * * * * * * * * * * * * * * * * * * * * * * * * * * * * * * * * * //

dimensions      [1 -1 -2 0 0 0 0];

internalField   nonuniform List<scalar> 
20000
(
99707.752
99709.614
99711.53
99714.411
99718.327
99723.549
99730.137
99737.925
99747.27
99758.438
99771.547
99787.299
99805.54
99827.348
99852.418
99881.943
99915.606
99954.408
99997.95
100046.65
100099.66
100156.33
100214.81
100272.95
100327.68
100375.8
100414.28
100440.98
100454.4
100455.12
100444.51
100424.78
100398.37
100367.73
100334.67
100301.28
100268.57
100237.29
100207.76
100180.94
100156.22
100134.05
100118.25
100096.85
100075.6
100066.66
100073.04
100069.87
100045.8
100025.66
99720.73
99722.82
99724.785
99727.791
99731.922
99737.429
99744.38
99752.535
99762.254
99773.841
99787.388
99803.668
99822.465
99844.945
99870.741
99901.124
99935.72
99975.561
100020.2
100070.02
100124.11
100181.69
100240.81
100299.14
100353.46
100400.45
100437.17
100461.43
100471.9
100469.73
100456.28
100434.02
100405.52
100373.3
100339.11
100304.8
100271.32
100239.45
100209.54
100182.45
100157.44
100135.24
100119.24
100097.01
100076.07
100068.06
100073.58
100069.78
100045.66
100025.58
99735.852
99737.949
99740.022
99743.136
99747.432
99753.12
99760.276
99768.697
99778.725
99790.691
99804.654
99821.461
99840.832
99864.009
99890.57
99921.842
99957.408
99998.318
100044.08
100095.04
100150.21
100208.69
100268.4
100326.82
100380.59
100426.28
100461.05
100482.59
100490
100484.72
100468.31
100443.43
100412.78
100378.93
100343.59
100308.34
100274.06
100241.59
100211.3
100183.93
100158.65
100136.42
100120.2
100097.13
100076.63
100069.33
100074.09
100069.69
100045.53
100025.52
99752.253
99754.373
99756.55
99759.778
99764.248
99770.119
99777.501
99786.207
99796.578
99808.964
99823.378
99840.749
99860.725
99884.637
99911.996
99944.194
99980.766
100022.78
100069.7
100121.82
100178.08
100237.45
100297.69
100356.11
100409.16
100453.37
100485.95
100504.47
100508.67
100500.08
100480.55
100452.92
100420.04
100384.52
100348.01
100311.81
100276.72
100243.67
100212.99
100185.36
100159.8
100137.55
100121.09
100097.22
100077.29
100070.48
100074.57
100069.63
100045.38
100025.45
99770.046
99772.229
99774.527
99777.894
99782.575
99788.671
99796.325
99805.314
99816.016
99828.822
99843.687
99861.627
99882.22
99906.882
99935.064
99968.217
100005.83
100048.99
100097.1
100150.41
100207.76
100267.99
100328.69
100386.98
100439.15
100481.7
100511.8
100527.02
100527.84
100515.73
100492.93
100462.47
100427.29
100390.07
100352.36
100315.2
100279.32
100245.68
100214.63
100186.73
100160.92
100138.65
100121.92
100097.31
100078
100071.57
100075.02
100069.59
100045.24
100025.39
99789.386
99791.641
99794.067
99797.58
99802.485
99808.82
99816.748
99826.029
99837.059
99850.287
99865.604
99884.125
99905.345
99930.78
99959.81
99993.952
100032.65
100076.98
100126.31
100180.83
100239.28
100300.34
100361.43
100419.46
100470.55
100511.22
100538.52
100550.25
100547.44
100531.62
100505.43
100472.03
100434.49
100395.53
100356.62
100318.49
100281.82
100247.6
100216.2
100188.04
100162
100139.7
100122.68
100097.41
100078.73
100072.64
100075.48
100069.57
100045.09
100025.32
99810.342
99812.67
99815.219
99818.876
99824.003
99830.564
99838.743
99848.32
99859.68
99873.339
99889.119
99908.239
99930.111
99956.348
99986.263
100021.43
100061.25
100106.8
100157.39
100213.14
100272.68
100334.53
100395.92
100453.53
100503.34
100541.91
100566.04
100574.1
100567.4
100547.71
100517.99
100481.57
100441.62
100400.89
100360.76
100321.67
100284.19
100249.41
100217.67
100189.28
100163.03
100140.72
100123.34
100097.54
100079.48
100073.68
100075.97
100069.55
100044.94
100025.25
99832.741
99835.149
99837.813
99841.625
99846.988
99853.782
99862.223
99872.114
99883.822
99897.942
99914.215
99933.971
99956.531
99983.611
100014.45
100050.69
100091.67
100138.48
100190.37
100247.37
100307.99
100370.59
100432.17
100489.19
100537.51
100573.68
100594.3
100598.51
100587.66
100563.93
100530.56
100491.04
100448.63
100406.13
100364.78
100324.71
100286.44
100251.09
100219.04
100190.43
100163.99
100141.68
100123.91
100097.72
100080.25
100074.67
100076.49
100069.55
100044.79
100025.18
99856.426
99858.96
99861.744
99865.735
99871.365
99878.419
99887.155
99897.405
99909.499
99924.12
99940.92
99961.35
99984.635
100012.6
100044.41
100081.76
100123.96
100172.07
100225.3
100283.57
100345.26
100408.54
100470.19
100526.43
100573.05
100606.47
100623.25
100623.38
100608.14
100580.2
100543.08
100500.41
100455.51
100411.23
100368.65
100327.62
100288.54
100252.65
100220.29
100191.47
100164.86
100142.57
100124.34
100097.92
100081.04
100075.62
100077.04
100069.55
100044.66
100025.11
99881.643
99884.314
99887.23
99891.414
99897.325
99904.648
99913.684
99924.303
99936.791
99951.927
99969.272
99990.404
100014.45
100043.34
100076.17
100114.69
100158.16
100207.62
100262.22
100321.77
100384.51
100448.4
100509.98
100565.23
100609.91
100640.17
100652.89
100648.62
100628.76
100596.48
100555.51
100509.63
100462.23
100416.15
100372.37
100330.38
100290.5
100254.08
100221.43
100192.41
100165.65
100143.38
100124.54
100098.13
100081.79
100076.52
100077.6
100069.58
100044.53
100025.03
99908.515
99911.313
99914.344
99918.706
99924.881
99932.459
99941.781
99952.771
99965.662
99981.341
99999.262
100021.14
100045.99
100075.86
100109.77
100149.51
100194.31
100245.17
100301.17
100362.02
100425.78
100490.19
100551.53
100605.56
100648.01
100674.7
100683.14
100674.14
100649.46
100612.67
100567.79
100518.65
100468.74
100420.89
100375.91
100332.97
100292.3
100255.37
100222.44
100193.25
100166.36
100144.12
100124.6
100098.3
100082.5
100077.39
100078.18
100069.61
100044.41
100024.94
99936.518
99939.482
99942.666
99947.262
99953.759
99961.651
99971.322
99982.745
99996.091
100012.37
100030.92
100053.6
100079.31
100110.21
100145.26
100186.29
100232.47
100284.78
100342.22
100404.36
100469.1
100533.93
100594.85
100647.43
100687.29
100709.98
100713.88
100699.83
100670.14
100628.73
100579.85
100527.45
100475.03
100425.42
100379.26
100335.39
100293.94
100256.51
100223.33
100193.97
100166.97
100144.77
100124.56
100098.41
100083.14
100078.23
100078.76
100069.65
100044.27
100024.83
99966.307
99969.42
99972.734
99977.535
99984.299
99992.461
100002.48
100014.36
100028.19
100045.11
100064.32
100087.85
100114.47
100146.47
100182.71
100225.08
100272.69
100326.5
100385.4
100448.83
100514.5
100579.62
100639.9
100690.78
100727.64
100745.96
100745.02
100725.62
100690.72
100644.57
100591.65
100535.98
100481.07
100429.73
100382.42
100337.63
100295.42
100257.5
100224.09
100194.58
100167.5
100145.34
100124.43
100098.46
100083.73
100079.02
100079.35
100069.66
100044.1
100024.69
99997.619
100000.9
100004.36
100009.4
100016.45
100024.95
100035.35
100047.72
100062.06
100079.65
100099.57
100123.98
100151.56
100184.69
100222.17
100265.93
100315.04
100370.38
100430.77
100495.47
100562.01
100627.26
100686.68
100735.56
100768.93
100782.6
100776.4
100751.4
100711.1
100660.13
100603.13
100544.19
100486.82
100433.79
100385.35
100339.67
100296.71
100258.34
100224.73
100195.09
100167.94
100145.82
100124.23
100098.47
100084.25
100079.77
100079.92
100069.67
100043.91
100024.51
100030.57
100034.05
100037.7
100043.02
100050.44
100059.31
100070.1
100082.96
100097.82
100116.09
100136.72
100162.05
100190.62
100224.93
100263.72
100308.92
100359.56
100416.48
100478.38
100544.34
100611.64
100676.86
100735.15
100781.7
100811.06
100819.78
100807.93
100777.06
100731.2
100675.32
100614.24
100552.06
100492.27
100437.58
100388.06
100341.5
100297.82
100259.03
100225.25
100195.51
100168.3
100146.23
100123.96
100098.46
100084.72
100080.47
100080.49
100069.65
100043.67
100024.3
100065.46
100069.13
100072.94
100078.54
100086.29
100095.52
100106.68
100120.06
100135.44
100154.44
100175.82
100202.11
100231.72
100267.26
100307.39
100354.09
100406.33
100464.86
100528.28
100595.46
100663.42
100728.39
100785.3
100829.08
100853.94
100857.38
100839.47
100802.49
100750.93
100690.08
100624.92
100559.54
100497.38
100441.09
100390.52
100343.1
100298.74
100259.59
100225.67
100195.8
100168.6
100146.57
100123.63
100098.43
100085.15
100081.11
100081.06
100069.6
100043.41
100024.06
100101.95
100105.86
100109.86
100115.78
100123.91
100133.53
100145.12
100159.05
100175.01
100194.77
100216.93
100244.22
100274.9
100311.71
100353.25
100401.5
100455.39
100515.57
100580.51
100648.86
100717.36
100781.85
100837.07
100877.57
100897.5
100895.23
100870.91
100827.57
100770.18
100704.34
100635.12
100566.59
100502.13
100444.31
100392.72
100344.49
100299.49
100259.99
100225.91
100195.93
100168.78
100146.81
100123.24
100098.38
100085.54
100081.72
100081.63
100069.52
100043.11
100023.8
100140.54
100144.67
100148.84
100155.08
100163.58
100173.56
100185.58
100200.06
100216.57
100237.11
100260.07
100288.38
100320.19
100358.32
100401.34
100451.2
100506.8
100568.66
100635.13
100704.59
100773.45
100837.21
100890.4
100927.04
100941.66
100933.17
100902.1
100852.19
100788.88
100718.03
100644.8
100573.19
100506.51
100447.21
100394.65
100345.65
100300.06
100260.19
100225.99
100195.95
100168.85
100146.92
100122.8
100098.33
100085.92
100082.28
100082.21
100069.4
100042.76
100023.5
100180.9
100185.27
100189.65
100196.23
100205.12
100215.47
100227.91
100242.97
100260.06
100281.41
100305.21
100334.61
100367.61
100407.14
100451.71
100503.25
100560.62
100624.2
100692.18
100762.67
100831.7
100894.44
100945.18
100977.34
100986.26
100971.05
100932.92
100876.24
100806.93
100731.09
100653.91
100579.31
100510.49
100449.79
100396.3
100346.59
100300.36
100260.23
100225.95
100195.86
100168.85
100146.95
100122.28
100098.26
100086.28
100082.83
100082.81
100069.23
100042.38
100023.19
100222.84
100227.48
100232.08
100239.05
100248.33
100259.08
100271.98
100287.68
100305.4
100327.64
100352.35
100382.92
100417.2
100458.21
100504.42
100557.73
100616.92
100682.25
100751.72
100823.11
100892.1
100953.51
101001.27
101028.36
101031.13
101008.72
100963.21
100899.6
100824.25
100743.46
100662.41
100584.93
100514.06
100452.02
100397.69
100347.29
100300.45
100260.12
100225.78
100195.65
100168.77
100146.9
100121.69
100098.19
100086.63
100083.37
100083.41
100069.01
100041.96
100022.84
100266.49
100271.38
100276.22
100283.55
100293.22
100304.42
100317.82
100334.23
100352.64
100375.85
100401.57
100433.39
100469.04
100511.63
100559.56
100614.71
100675.79
100742.88
100813.8
100885.95
100954.63
101014.35
101058.52
101080.02
101076.08
101046.01
100992.83
100922.16
100840.75
100755.07
100670.26
100590.01
100517.2
100453.9
100398.8
100347.65
100300.36
100259.85
100225.47
100195.31
100168.6
100146.75
100121.01
100098.11
100086.98
100083.91
100084.03
100068.73
100041.49
100022.47
100311.62
100316.82
100321.94
100329.68
100339.81
100351.54
100365.51
100382.74
100401.92
100426.18
100452.98
100486.14
100523.25
100567.5
100617.23
100674.29
100737.29
100806.15
100878.44
100951.17
101019.25
101076.86
101116.74
101132.17
101120.88
101082.75
101021.64
100943.8
100856.35
100765.87
100677.43
100594.53
100519.89
100455.46
100399.6
100347.75
100300.07
100259.42
100225.01
100194.85
100168.34
100146.51
100120.23
100098.03
100087.35
100084.45
100084.63
100068.39
100040.98
100022.07
100359.02
100364.5
100369.9
100377.97
100388.56
100400.86
100415.4
100433.47
100453.46
100478.83
100506.77
100541.31
100579.95
100625.91
100677.53
100736.54
100801.5
100872.12
100945.69
101018.79
101085.95
101140.94
101175.78
101184.62
101165.37
101118.76
101049.49
100964.42
100870.98
100775.82
100683.89
100598.47
100522.14
100456.69
100399.99
100347.61
100299.57
100258.83
100224.41
100194.27
100168
100146.15
100119.35
100097.97
100087.75
100085.02
100085.21
100067.96
100040.42
100021.65
100408.25
100414.09
100419.86
100428.38
100439.56
100452.5
100467.64
100486.59
100507.4
100533.9
100563.02
100599
100639.22
100686.97
100740.52
100801.55
100868.51
100940.86
101015.58
101088.79
101154.65
101206.39
101235.46
101237.13
101209.32
101153.85
101076.23
100983.91
100884.58
100784.88
100689.61
100601.83
100523.97
100457.49
100400.08
100347.2
100298.86
100258.08
100223.66
100193.56
100167.56
100145.66
100118.39
100097.94
100088.2
100085.62
100085.75
100067.45
100039.82
100021.21
100460
100466.19
100472.36
100481.34
100493.06
100506.61
100522.31
100542.15
100563.79
100591.46
100621.79
100659.27
100701.14
100750.74
100806.31
100869.41
100938.38
101012.41
101088.12
101161.16
101225.28
101273
101295.7
101289.45
101252.52
101187.85
101101.74
101002.18
100897.07
100793.01
100694.56
100604.61
100525.37
100457.83
100399.87
100346.53
100297.95
100257.16
100222.77
100192.73
100167.03
100145
100117.34
100097.94
100088.74
100086.24
100086.21
100066.84
100039.16
100020.75
100514.03
100520.57
100527.16
100536.59
100548.81
100563.03
100579.31
100600.1
100622.62
100651.51
100683.13
100722.17
100765.78
100817.31
100874.98
100940.19
101011.19
101086.82
101163.33
101235.85
101297.71
101340.57
101356.27
101341.33
101294.75
101220.57
101125.88
101019.15
100908.42
100800.16
100698.73
100606.84
100526.22
100457.85
100399.32
100345.59
100296.84
100256.09
100221.73
100191.77
100166.38
100144.11
100116.27
100097.95
100089.39
100086.89
100086.61
100066.11
100038.46
100020.28
100570.1
100577.06
100584.14
100594.07
100606.8
100621.76
100638.67
100660.47
100683.93
100714.11
100747.1
100787.78
100833.23
100886.77
100946.61
101014
101087.02
101164.15
101241.19
101312.81
101371.79
101408.88
101416.91
101392.5
101335.79
101251.83
101148.52
101034.73
100918.56
100806.32
100702.17
100608.5
100526.54
100457.48
100398.44
100344.38
100295.54
100254.86
100220.54
100190.69
100165.6
100142.93
100115.21
100097.96
100090.12
100087.58
100086.93
100065.24
100037.71
100019.81
100628.57
100635.92
100643.5
100653.9
100667.12
100682.88
100700.45
100723.32
100747.78
100779.33
100813.78
100856.19
100903.57
100959.22
101021.32
101090.92
101165.94
101244.42
101321.71
101391.98
101447.28
101477.73
101477.33
101442.71
101375.4
101281.47
101169.56
101048.86
100927.46
100811.48
100704.89
100609.42
100526.46
100456.73
100397.23
100342.92
100294.05
100253.48
100219.21
100189.49
100164.67
100141.46
100114.16
100097.93
100090.83
100088.35
100087.11
100064.23
100036.92
100019.34
100689.24
100697.04
100705.15
100716.07
100729.8
100746.44
100764.71
100788.71
100814.25
100847.24
100883.24
100927.48
100976.91
101034.78
101099.21
101171.05
101248.01
101327.66
101404.86
101473.23
101523.9
101546.98
101537.19
101491.68
101413.37
101309.32
101188.88
101061.47
100935.08
100815.68
100706.8
100609.74
100525.91
100455.59
100395.69
100341.19
100292.38
100251.94
100217.73
100188.16
100163.58
100139.75
100113.07
100097.83
100091.44
100089.22
100087.24
100063.05
100036.09
100018.87
100752.2
100760.48
100769.17
100780.66
100794.91
100812.47
100831.5
100856.71
100883.4
100917.93
100955.61
101001.8
101053.39
101113.56
101180.4
101254.51
101333.31
101413.88
101490.58
101556.39
101601.4
101616.31
101596.15
101539.13
101449.45
101335.24
101206.41
101072.5
100941.43
100818.95
100707.76
100609.5
100524.9
100454.05
100393.81
100339.21
100290.52
100250.25
100216.1
100186.7
100162.31
100137.83
100111.94
100097.68
100092
100090.13
100087.29
100061.71
100035.21
100018.4
100817.49
100826.28
100835.55
100847.66
100862.46
100881.02
100900.87
100927.4
100955.36
100991.56
101031.04
101079.29
101133.17
101195.73
101265.02
101341.37
101421.89
101503.07
101578.79
101641.25
101679.51
101685.38
101653.9
101584.77
101483.46
101359.08
101222.04
101081.93
100946.56
100821.1
100707.99
100608.68
100523.43
100452.13
100391.6
100336.99
100288.49
100248.4
100214.34
100185.12
100160.85
100135.7
100110.76
100097.53
100092.56
100091.05
100087.3
100060.22
100034.31
100017.95
100885.15
100894.5
100904.35
100917.16
100932.58
100952.28
100973.06
101001.05
101030.39
101068.36
101109.76
101160.16
101216.4
101281.43
101353.21
101431.74
101513.77
101595.23
101669.39
101727.47
101757.99
101753.76
101710.09
101628.31
101515.17
101380.73
101235.71
101089.75
100950.46
100822.1
100707.5
100607.29
100521.5
100449.83
100389.06
100334.53
100286.29
100246.39
100212.45
100183.43
100159.21
100133.39
100109.58
100097.42
100093.13
100091.96
100087.08
100058.58
100033.36
100017.5
100955.69
100965.63
100976.06
100989.73
101005.83
101026.74
101048.47
101077.96
101108.75
101148.54
101191.93
101244.56
101303.25
101370.79
101445.06
101525.69
101609
101690.29
101762.2
101814.74
101836.56
101821.06
101764.38
101669.48
101544.42
101400.06
101247.38
101096.02
100952.93
100822.2
100706.26
100605.33
100519.13
100447.14
100386.21
100331.84
100283.92
100244.24
100210.42
100181.62
100157.37
100130.93
100108.42
100097.37
100093.72
100092.87
100086.62
100056.81
100032.38
100017.07
101029.28
101039.88
101050.98
101065.67
101082.41
101104.56
101127.24
101158.26
101190.54
101232.22
101277.69
101332.63
101393.85
101463.96
101540.7
101623.29
101707.56
101788.17
101856.99
101902.69
101914.81
101886.84
101816.4
101708.01
101571.04
101416.98
101257.05
101100.73
100953.99
100821.35
100704.3
100602.82
100516.32
100444.08
100383.05
100328.93
100281.39
100241.93
100208.28
100179.7
100155.32
100128.36
100107.34
100097.38
100094.36
100093.77
100085.86
100054.94
100031.37
100016.64
101106.04
101117.36
101129.18
101144.89
101162.23
101185.7
101209.4
101242.02
101275.89
101319.53
101367.18
101424.52
101488.35
101561.04
101640.22
101724.58
101809.44
101888.77
101953.42
101990.99
101992.25
101950.69
101865.79
101743.66
101594.86
101431.44
101264.77
101103.62
100953.92
100819.56
100701.62
100599.77
100513.09
100440.65
100379.58
100325.81
100278.69
100239.47
100206.02
100177.66
100153.03
100125.72
100106.36
100097.54
100095.06
100094.68
100084.73
100053
100030.34
100016.23
101186.03
101198.14
101210.65
101227.42
101245.4
101270.27
101295.05
101329.36
101364.91
101410.62
101460.56
101520.37
101586.88
101662.18
101743.71
101829.59
101914.59
101991.88
102051.04
102079.35
102068.34
102012.17
101912.2
101776.2
101615.75
101443.42
101270.52
101104.81
100952.62
100816.84
100698.26
100596.21
100509.44
100436.87
100375.82
100322.48
100275.84
100236.87
100203.66
100175.49
100150.41
100123.1
100105.52
100097.84
100095.81
100095.61
100083.15
100051.03
100029.28
100015.81
101269.41
101282.36
101295.54
101313.44
101332.08
101358.42
101384.36
101420.45
101457.78
101505.64
101557.97
101620.33
101689.59
101767.5
101851.25
101938.33
102022.91
102097.24
102149.43
102167.28
102142.57
102070.81
101955.32
101805.41
101633.64
101452.96
101274.01
101104.53
100950.14
100813.24
100694.24
100592.14
100505.38
100432.74
100371.78
100318.95
100272.82
100234.13
100201.21
100173.18
100147.36
100120.63
100104.8
100098.23
100096.62
100096.56
100081.11
100049.05
100028.21
100015.4
101356.12
101370.04
101383.88
101403.03
101422.4
101450.3
101477.49
101515.43
101554.64
101604.72
101659.55
101724.56
101796.62
101877.11
101962.9
102050.79
102134.27
102204.49
102248.17
102254.21
102214.38
102126.18
101994.81
101831.12
101648.5
101460.06
101275.4
101102.73
100946.5
100808.78
100689.58
100587.6
100500.94
100428.28
100367.48
100315.22
100269.64
100231.25
100198.67
100170.72
100143.95
100118.28
100104.16
100098.67
100097.42
100097.39
100078.61
100047.07
100027.13
100014.99
101446.43
101461.44
101475.97
101496.42
101516.56
101546.07
101574.52
101614.38
101655.56
101707.99
101765.46
101833.23
101908.16
101991.16
102078.72
102166.92
102248.47
102313.11
102346.83
102339.47
102283.24
102177.83
102030.4
101853.19
101660.34
101464.37
101274.95
101099.44
100941.75
100803.5
100684.32
100582.59
100496.12
100423.5
100362.91
100311.29
100266.29
100228.24
100196.06
100168.09
100140.31
100116.02
100103.55
100099.09
100098.14
100098.12
100075.73
100045.09
100026.04
100014.58
101540.34
101556.63
101571.79
101593.52
101614.42
101645.61
101675.41
101717.34
101760.7
101815.65
101875.95
101946.59
102024.39
102109.76
102198.72
102286.6
102365.18
102422.53
102444.87
102422.37
102348.55
102225.35
102061.83
101871.57
101669.15
101466.1
101272.6
101094.71
100935.93
100797.43
100678.47
100577.14
100490.95
100418.43
100358.1
100307.17
100262.78
100225.12
100193.37
100165.31
100136.56
100113.88
100102.91
100099.42
100098.7
100098.43
100072.62
100043.08
100024.96
100014.17
101637.62
101655.33
101670.87
101693.97
101715.79
101748.98
101780.4
101824.66
101870.46
101928.11
101991.35
102064.9
102145.5
102232.98
102322.88
102409.66
102483.97
102532.2
102541.58
102502.24
102409.77
102268.33
102088.92
101886.25
101674.56
101465.52
101268.4
101088.59
100929.09
100790.62
100672.08
100571.26
100485.45
100413.07
100353.05
100302.85
100259.11
100221.89
100190.61
100162.34
100132.86
100111.97
100102.36
100099.63
100099.16
100098.56
100069.37
100041.07
100023.9
100013.76
101738.55
101757.66
101773.62
101798.63
101821.55
101857.02
101890.28
101936.98
101985.35
102045.72
102111.95
102188.36
102271.61
102360.88
102451.11
102535.83
102604.2
102641.56
102636.14
102578.37
102466.32
102306.44
102111.54
101897.19
101676.78
101462.59
101262.41
101081.17
100921.29
100783.11
100665.17
100564.99
100479.63
100407.46
100347.79
100298.32
100255.28
100218.55
100187.76
100159.08
100129.34
100110.36
100102.02
100099.78
100099.61
100098.65
100066.05
100039.08
100022.87
100013.35
101844.13
101864.82
101881.74
101908.98
101932.87
101970.55
102005.59
102054.69
102105.63
102168.73
102237.94
102317.13
102402.81
102493.41
102583.26
102664.7
102725.16
102749.96
102727.67
102650.04
102517.69
102339.4
102129.65
101904.01
101676.13
101457.36
101254.73
101072.48
100912.58
100774.94
100657.77
100558.34
100473.51
100401.61
100342.32
100293.6
100251.28
100215.13
100184.77
100155.41
100126.17
100109
100101.91
100100.07
100100.17
100098.02
100062.77
100037.15
100021.87
100012.94
101955.59
101977.98
101995.71
102024.74
102049.59
102089.48
102126.33
102177.84
102231.43
102297.28
102369.46
102451.33
102539.13
102630.52
102719.06
102795.7
102846.12
102856.49
102815.29
102716.53
102563.39
102367.01
102143.19
101906.89
101672.56
101449.94
101245.42
101062.62
100903.01
100766.14
100649.91
100551.34
100467.13
100395.54
100336.66
100288.69
100247.12
100211.61
100181.62
100151.41
100123.29
100107.87
100101.91
100100.55
100100.82
100096.27
100059.6
100035.3
100020.88
100012.55
102071.88
102096.18
102114.56
102145.77
102171.58
102213.8
102252.6
102306.57
102362.93
102431.58
102506.71
102591.06
102680.59
102772.06
102858.14
102928.06
102966.36
102960.1
102898.12
102777.13
102603.04
102389.15
102151.73
101906.22
101666.17
101440.41
101234.57
101051.64
100892.63
100756.75
100641.61
100544.01
100460.5
100389.29
100330.82
100283.57
100242.8
100208
100178.25
100147.15
100120.66
100107.01
100102.13
100101.17
100101.56
100093.27
100056.58
100033.48
100019.92
100012.17
102193.74
102219.95
102238.85
102272.31
102299.08
102343.73
102384.66
102441.14
102500.36
102571.85
102649.84
102736.39
102827.12
102917.79
102999.94
103060.83
103084.99
103059.67
102975.22
102831.21
102636.32
102405.71
102155.42
101901.94
101657.07
101428.9
101222.28
101039.61
100881.49
100746.82
100632.91
100536.37
100453.65
100382.87
100324.82
100278.26
100238.33
100204.27
100174.6
100142.72
100118.27
100106.42
100102.53
100101.88
100102.26
100089.23
100053.63
100031.69
100018.99
100011.8
102320.52
102348.75
102368.11
102404.16
102432.06
102479.41
102522.86
102581.96
102644.04
102718.29
102798.99
102887.35
102978.56
103067.32
103143.71
103193.08
103200.84
103154.09
103045.69
102878.2
102663.02
102416.22
102154.73
101894.18
101645.39
101415.51
101208.64
101026.61
100869.65
100736.37
100623.83
100528.44
100446.6
100376.31
100318.67
100272.76
100233.7
100200.4
100170.55
100138.22
100116.13
100106.08
100103.09
100102.65
100102.63
100084.72
100050.65
100029.95
100018.11
100011.46
102452.44
102483.07
102502.96
102541.95
102571.12
102621.21
102667.41
102729.3
102794.23
102871.05
102954.19
103043.86
103134.68
103220.09
103288.37
103323.83
103312.54
103242.19
103108.66
102917.66
102682.93
102420.83
102149.58
101883.07
101631.27
101400.37
101193.73
101012.7
100857.15
100725.44
100614.39
100520.25
100439.38
100369.63
100312.4
100267.08
100228.92
100196.32
100165.88
100133.85
100114.22
100105.89
100103.68
100103.47
100102.76
100080.04
100047.7
100028.28
100017.27
100011.13
102591.09
102624.43
102644.62
102686.77
102717.26
102769.81
102818.33
102883.05
102951.03
103030.28
103115.49
103205.77
103295.07
103375.3
103432.72
103451.85
103418.65
103322.8
103163.38
102949.24
102695.53
102420
102140.14
101868.8
101614.86
101383.58
101177.64
100997.95
100844.05
100714.07
100604.63
100511.82
100432
100362.85
100306
100261.22
100223.99
100191.96
100160.5
100129.75
100112.51
100105.72
100104.15
100104.18
100102.78
100075.34
100044.84
100026.7
100016.49
100010.82
102736.95
102773.39
102793.65
102838.97
102870.56
102925.7
102976.5
103043.58
103114.63
103196.12
103282.85
103372.84
103459.12
103531.83
103575.48
103575.52
103517.74
103394.81
103209.21
102972.6
102700.95
102413.68
102126.59
101851.55
101596.32
101365.27
101160.47
100982.41
100830.37
100702.28
100594.56
100503.17
100424.49
100355.98
100299.5
100255.19
100218.91
100187.22
100154.52
100125.87
100110.96
100105.51
100104.38
100104.62
100102.64
100070.76
100042.13
100025.24
100015.76
100010.53
102889.75
102929.81
102949.65
102998.48
103031.32
103088.78
103142.18
103211.55
103285.34
103368.65
103456.12
103544.58
103625.93
103688.13
103715.37
103693.02
103608.31
103457.19
103245.6
102987.09
102699.66
102402.08
102109.14
101831.5
101575.79
101345.55
101142.29
100966.14
100816.16
100690.1
100584.21
100494.32
100416.85
100349.03
100292.9
100249.01
100213.63
100181.97
100148.15
100122.15
100109.53
100105.26
100104.45
100104.81
100102.13
100066.42
100039.63
100023.86
100015.06
100010.26
103049.66
103093.51
103112.68
103164.96
103199.2
103258.91
103315.33
103387.19
103463.32
103547.74
103634.89
103720.23
103794.18
103842.67
103850.43
103802.54
103688.92
103509.07
103272.07
102992.94
102691.63
102385.42
102088.03
101808.85
101553.42
101324.53
101123.18
100949.21
100801.46
100677.56
100573.6
100485.29
100409.11
100342.02
100286.22
100242.69
100208.12
100176.06
100141.68
100118.58
100108.17
100104.97
100104.38
100104.87
100100.46
100062.46
100037.29
100022.54
100014.41
100010.02
103217.52
103264.63
103282.98
103338.55
103374.82
103436.94
103496.5
103570.32
103648.4
103733.07
103818.5
103898.65
103962.09
103993.72
103978.47
103902.23
103758.25
103549.66
103287.76
102990.5
102677.09
102363.96
102063.51
101783.81
101529.37
101302.31
101103.2
100931.64
100786.31
100664.67
100562.74
100476.09
100401.25
100334.94
100279.47
100236.25
100202.31
100169.31
100135.5
100115.23
100106.75
100104.45
100104.01
100104.39
100096.89
100058.84
100035.03
100021.28
100013.8
100009.8
103393.67
103443.82
103461.6
103519.65
103559.02
103623.81
103686.06
103761.18
103840.31
103924.03
104005.94
104078.25
104127.61
104139.04
104097.18
103990.24
103815.09
103578.14
103293.09
102979.78
102656.32
102338.02
102035.83
101756.55
101503.78
101278.99
101082.44
100913.5
100770.72
100651.47
100551.65
100466.74
100393.29
100327.81
100272.66
100229.71
100196.1
100161.79
100129.79
100112.17
100105.29
100103.63
100103.3
100103.46
100091.85
100055.19
100032.81
100020.09
100013.24
100009.6
103578.2
103631.88
103650.5
103710.65
103752.69
103819.04
103883.62
103959.42
104038.42
104119.61
104195.67
104256.81
104288.52
104275.91
104204.2
104064.81
103858.28
103593.61
103288.2
102961.06
102629.67
102307.92
102005.26
101727.29
101476.76
101254.66
101060.94
100894.82
100754.73
100637.97
100540.36
100457.26
100385.22
100320.61
100265.81
100223.09
100189.42
100153.82
100124.48
100109.44
100103.94
100102.75
100102.62
100102.49
100086.06
100051.51
100030.7
100018.99
100012.73
100009.42
103771.15
103828.14
103848.45
103911.47
103955.73
104022.51
104088.72
104164.27
104241.69
104318.33
104385.62
104431.7
104442.06
104401.43
104297.2
104124.29
103886.57
103596.65
103273.18
102934.7
102597.54
102273.98
101972.02
101696.17
101448.45
101229.4
101038.75
100875.63
100738.37
100624.18
100528.87
100447.65
100377.03
100313.35
100258.92
100216.39
100182.17
100145.73
100119.55
100106.95
100102.76
100101.97
100102.04
100101.65
100080.23
100047.99
100028.73
100017.98
100012.26
100009.26
103974.05
104034.04
104055.31
104119.53
104166.62
104233.66
104300.53
104374.63
104448.62
104518.1
104572.92
104600.01
104584.81
104512.65
104373.92
104167.15
103899.49
103587.12
103248.36
102901.15
102560.32
102236.52
101936.38
101663.38
101418.95
101203.27
101015.93
100855.96
100721.64
100610.13
100517.2
100437.94
100368.7
100306
100251.98
100209.54
100174.16
100137.9
100115.02
100104.67
100101.65
100101.3
100101.58
100100.91
100074.65
100044.69
100026.92
100017.05
100011.82
100009.12
104186.29
104248.58
104271.32
104336.09
104385.05
104451.64
104517.96
104588.9
104657.05
104716.03
104754.12
104758.14
104713.13
104606.55
104432.12
104191.75
103897.19
103565.22
103214.21
102860.9
102518.44
102195.88
101898.54
101629.07
101388.35
101176.35
100992.5
100835.83
100704.57
100595.83
100505.35
100428.11
100360.2
100298.55
100244.97
100202.42
100165.26
100130.71
100110.94
100102.64
100100.45
100100.9
100101.37
100100.09
100069.45
100041.66
100025.27
100016.19
100011.42
100008.99
104407.29
104471.63
104495.9
104560.11
104609.95
104675.02
104739.24
104804.81
104863.94
104908.22
104925.37
104901.71
104823.23
104680.14
104469.59
104198.04
103879.51
103531.37
103171.29
102814.47
102472.33
102152.34
101858.71
101593.35
101356.75
101148.67
100968.5
100815.26
100687.17
100581.29
100493.35
100418.18
100351.52
100290.95
100237.82
100194.88
100155.86
100124.02
100107.25
100100.8
100099.33
100100.51