/*--------------------------------*- C++ -*----------------------------------*\
| =========                 |                                                 |
| \\      /  F ield         | OpenFOAM: The Open Source CFD Toolbox           |
|  \\    /   O peration     | Version:  2306                                  |
|   \\  /    A nd           | Website:  www.openfoam.com                      |
|    \\/     M anipulation  |                                                 |
\*---------------------------------------------------------------------------*/
FoamFile
{
    version     2.0;
    format      ascii;
    arch        "LSB;label=32;scalar=64";
    class       surfaceScalarField;
    location    "0.012";
    object      phi;
}
// * * * * * * * * * * * * * * * * * * * * * * * * * * * * * * * * * * * * * //

dimensions      [1 0 -1 0 0 0 0];

oriented        oriented;

internalField   nonuniform List<scalar> 
39600
(
-1.7110376e-05
-0.0031800242
0.0031971213
-3.8365877e-05
-0.0045435205
0.0045647582
-6.3606942e-05
-0.0060090463
0.0060342779
-9.376782e-05
-0.0077737031
0.0078038535
-0.00013233393
-0.0099278172
0.0099663725
-0.00019812529
-0.012501664
0.012567449
-0.00032041572
-0.015205465
0.015327759
-0.00047232685
-0.01821104
0.018362962
-0.00065408713
-0.02178405
0.021965826
-0.000871734
-0.026074428
0.026292098
-0.0011325586
-0.031189299
0.031450148
-0.0014457154
-0.037314024
0.03762721
-0.0018218679
-0.044621772
0.044997957
-0.002274385
-0.053356273
0.053808829
-0.0028189463
-0.063776369
0.06432098
-0.0034754424
-0.076212667
0.076869221
-0.0042672321
-0.091038839
0.091830701
-0.0052232928
-0.10871106
0.10966719
-0.0063782008
-0.12976091
0.13091591
-0.0077750524
-0.15482591
0.15622287
-0.0094641445
-0.18466374
0.18635295
-0.011506015
-0.22018408
0.22222609
-0.013971205
-0.26248597
0.26495129
-0.01694036
-0.31290684
0.31587609
-0.020504453
-0.3730879
0.37665199
-0.024763063
-0.44504872
0.44930714
-0.02982894
-0.53126844
0.53633384
-0.035825516
-0.634772
0.64076753
-0.042883121
-0.75924785
0.76630388
-0.051182616
-0.90908886
0.91738569
-0.060919931
-1.0895576
1.0992911
-0.072334862
-1.3069118
1.3183223
-0.085709449
-1.5685984
1.5819676
-0.10136872
-1.8834432
1.8990967
-0.11967752
-2.2619559
2.280258
-0.14102517
-2.7166757
2.738019
-0.16581027
-3.2627119
3.2874923
-0.19440874
-3.9180346
3.9466218
-0.22711134
-4.7040671
4.7367491
-0.26404439
-5.6464405
5.6833477
-0.30506982
-6.7762144
6.8172076
-0.34959178
-8.1306004
8.1751012
-0.39629825
-9.7538232
9.8004678
-0.44254697
-11.701794
11.747877
-0.48436566
-14.039354
14.081034
-0.51490056
-16.84075
16.871366
-0.52227728
-20.203155
20.210953
-0.49172052
-24.251917
24.221182
-0.39723458
-29.118808
29.02366
-34.970431
34.772776
-1.6014998e-05
-0.0031641087
-3.6700216e-05
-0.0045229168
-6.1839741e-05
-0.0059839688
-9.2385201e-05
-0.0077432067
-0.00013156013
-0.0098886749
-0.00019973595
-0.012433505
-0.00031978461
-0.015085418
-0.00046644149
-0.018064368
-0.0006427828
-0.021607698
-0.00085458757
-0.025862603
-0.0011091379
-0.030934728
-0.0014153256
-0.037007807
-0.0017835203
-0.044253543
-0.0022269932
-0.052912756
-0.0027610727
-0.06324224
-0.0034054114
-0.075568266
-0.0041829663
-0.090261217
-0.0051228245
-0.10777111
-0.0062593723
-0.12862426
-0.0076348765
-0.15345029
-0.0092996666
-0.18299882
-0.01131409
-0.21816953
-0.013747787
-0.26005214
-0.016680896
-0.30997365
-0.020202382
-0.36956642
-0.024410211
-0.44084108
-0.029414407
-0.52626474
-0.035331699
-0.62885566
-0.042295117
-0.75228601
-0.050476423
-0.9009101
-0.060068389
-1.0799692
-0.071306267
-1.2956784
-0.084467975
-1.5554418
-0.099872881
-1.8680438
-0.11788291
-2.2439515
-0.13888633
-2.6956768
-0.16327895
-3.2383241
-0.19143725
-3.889887
-0.22366102
-4.671863
-0.2600945
-5.6100322
-0.30062367
-6.735717
-0.34470274
-8.0865409
-0.3910991
-9.7074878
-0.43729661
-11.655764
-0.47953822
-13.997243
-0.5110854
-16.80912
-0.52074911
-20.193116
-0.49413291
-24.278713
-0.40631427
-29.207283
-35.15739
-1.5495673e-05
-0.0031486598
-3.5098911e-05
-0.0045033494
-5.88648e-05
-0.0059602333
-8.7726918e-05
-0.0077143624
-0.00012459636
-0.0098518253
-0.00019302419
-0.012365086
-0.00031359181
-0.01496485
-0.00045765597
-0.017920295
-0.00063067394
-0.02143467
-0.00083843252
-0.025654823
-0.0010879805
-0.030685159
-0.0013881951
-0.036707563
-0.0017492574
-0.043892447
-0.0021843952
-0.052477576
-0.0027087519
-0.062717831
-0.0033418034
-0.074935154
-0.0041064353
-0.089496508
-0.0050313798
-0.10684608
-0.0061509389
-0.1275046
-0.0075073451
-0.15209376
-0.0091507453
-0.18135527
-0.011140641
-0.21617947
-0.013547024
-0.25764558
-0.016448315
-0.30707222
-0.019932183
-0.3660825
-0.024094513
-0.43667888
-0.029042867
-0.52131685
-0.034887244
-0.62301225
-0.041763215
-0.74541172
-0.049833335
-0.89284262
-0.059288483
-1.0705177
-0.07035991
-1.2846111
-0.083321163
-1.5424847
-0.098488252
-1.8528805
-0.11621951
-2.2262242
-0.13689931
-2.6750012
-0.16092631
-3.2143025
-0.18867782
-3.8621459
-0.22046253
-4.6400969
-0.25644009
-5.5740789
-0.29652794
-6.6956602
-0.34022192
-8.0428652
-0.38637802
-9.6613958
-0.43261272
-11.609698
-0.47533622
-13.954622
-0.5080098
-16.776376
-0.52002978
-20.180757
-0.4975001
-24.301417
-0.41644114
-29.288992
-35.33356
-1.4925735e-05
-0.0031337985
-3.3752564e-05
-0.0044845716
-5.6539373e-05
-0.005937486
-8.4268169e-05
-0.0076866639
-0.00011952639
-0.0098165879
-0.00018871502
-0.012295903
-0.00030773486
-0.014845824
-0.00044874076
-0.017779271
-0.00061813389
-0.021265266
-0.00082168116
-0.025451257
-0.0010662585
-0.030440563
-0.0013607012
-0.03641309
-0.0017150008
-0.043538115
-0.0021422506
-0.052050282
-0.0026574528
-0.062202579
-0.0032799462
-0.074312593
-0.0040324688
-0.088743912
-0.0049434289
-0.10593502
-0.0060474553
-0.12640046
-0.0073860511
-0.15075504
-0.0090096832
-0.1797315
-0.010977825
-0.21421118
-0.013359189
-0.25526407
-0.016232032
-0.30419928
-0.019682097
-0.36263242
-0.0238038
-0.43255736
-0.028700185
-0.51642097
-0.034476853
-0.61723658
-0.041271385
-0.73861889
-0.049237375
-0.8848793
-0.058564501
-1.0611943
-0.069479834
-1.2737001
-0.08225366
-1.5297151
-0.097197769
-1.83794
-0.11466987
-2.2087557
-0.13505089
-2.6546242
-0.1587412
-3.1906177
-0.1861179
-3.8347793
-0.21750181
-4.6087306
-0.25306926
-5.5385347
-0.29276694
-6.6559925
-0.33614218
-7.9995073
-0.38212464
-9.6154805
-0.42848098
-11.563508
-0.47176726
-13.911422
-0.50568213
-16.74239
-0.5201872
-20.165938
-0.50183273
-24.319963
-0.42761843
-29.363851
-35.498868
-1.4280466e-05
-0.0031195338
-3.2224219e-05
-0.0044666421
-5.384789e-05
-0.0059158744
-8.0274731e-05
-0.0076602447
-0.00011396802
-0.0097829106
-0.00018397395
-0.012225903
-0.00029957344
-0.014730229
-0.00043795159
-0.017640888
-0.00060416762
-0.021099041
-0.000803956
-0.02525145
-0.0010440389
-0.030200462
-0.0013332097
-0.036123892
-0.0016812468
-0.043190046
-0.0021012208
-0.051630265
-0.0026078995
-0.061695845
-0.0032205735
-0.073699853
-0.0039618083
-0.088002592
-0.0048601871
-0.10503655
-0.0059496887
-0.12531085
-0.0072725458
-0.14943204
-0.0088786278
-0.17812526
-0.010827271
-0.21226235
-0.013186949
-0.2529042
-0.016034721
-0.30135136
-0.019455103
-0.35921197
-0.023540823
-0.42847177
-0.02839017
-0.5115721
-0.03410499
-0.6115228
-0.040823719
-0.73190196
-0.048693335
-0.87701251
-0.057900983
-1.0519904
-0.068671359
-1.2629339
-0.081270947
-1.517119
-0.096009453
-1.8232036
-0.1132396
-2.1915277
-0.13334547
-2.6345222
-0.15672581
-3.1672434
-0.18376301
-3.8077519
-0.21478559
-4.5777245
-0.24999106
-5.5033516
-0.28935436
-6.616658
-0.3324725
-7.9564056
-0.37835783
-9.5696669
-0.42491539
-11.517116
-0.46885288
-13.867553
-0.50411901
-16.707039
-0.52119918
-20.148569
-0.50713352
-24.334225
-0.43990689
-29.431719
-35.653184
-1.3824601e-05
-0.0031058098
-3.1040559e-05
-0.0044495067
-5.165998e-05
-0.0058953191
-7.6991798e-05
-0.0076349657
-0.00010951918
-0.0097504216
-0.00018060757
-0.012154833
-0.00029360982
-0.014617233
-0.00042947357
-0.017505016
-0.00059265583
-0.020935856
-0.00078888556
-0.025055208
-0.0010247278
-0.029964604
-0.0013088961
-0.035839697
-0.0016510695
-0.04284784
-0.0020641934
-0.051217096
-0.0025629453
-0.061197041
-0.0031665192
-0.073096208
-0.0038973862
-0.087271647
-0.0047841945
-0.10414964
-0.0058608768
-0.12423405
-0.0071695897
-0.1481232
-0.0087600989
-0.1765346
-0.010691967
-0.21033033
-0.013033042
-0.25056298
-0.015859671
-0.29852462
-0.019254302
-0.35581732
-0.023308487
-0.42441776
-0.028113974
-0.50676715
-0.033775451
-0.60586235
-0.040423631
-0.72525561
-0.048204112
-0.86923487
-0.057301411
-1.042897
-0.067937451
-1.2523022
-0.080376165
-1.5046838
-0.094924592
-1.8086571
-0.11193359
-2.1745204
-0.13179026
-2.6146693
-0.15489045
-3.1441495
-0.18162112
-3.781031
-0.21232296
-4.5470383
-0.24721107
-5.4684849
-0.286298
-6.5775988
-0.32922516
-7.9134941
-0.37508659
-9.5238816
-0.42193056
-11.470434
-0.46660916
-13.822927
-0.50334487
-16.670205
-0.52313374
-20.128504
-0.5134953
-24.344062
-0.45335354
-29.492497
-35.796428
-1.3295043e-05
-0.003092569
-2.9732468e-05
-0.0044331124
-4.9263136e-05
-0.0058758272
-7.3444962e-05
-0.0076108091
-0.00010515674
-0.0097187446
-0.000177335
-0.012082673
-0.0002886341
-0.01450595
-0.00042208347
-0.017371572
-0.00058235597
-0.020775584
-0.00077519003
-0.024862361
-0.0010069646
-0.029732815
-0.001286431
-0.035560204
-0.0016230501
-0.042511187
-0.0020297658
-0.050810336
-0.0025211537
-0.060705596
-0.0031163488
-0.072500945
-0.0038377517
-0.086550154
-0.0047140422
-0.10327325
-0.0057794232
-0.12316855
-0.0070757605
-0.14682671
-0.008653337
-0.17495685
-0.010571004
-0.20841246
-0.01289676
-0.24823701
-0.015705679
-0.29571552
-0.019079084
-0.35244381
-0.023106139
-0.42039082
-0.027873027
-0.50200076
-0.033487022
-0.60024942
-0.040070604
-0.71867395
-0.047769745
-0.86153871
-0.056765597
-1.0339051
-0.067278319
-1.2417936
-0.079570062
-1.4923949
-0.093945544
-1.794282
-0.1107552
-2.1577109
-0.13038387
-2.5950444
-0.15323163
-3.1213089
-0.17969326
-3.7545792
-0.21011579
-4.5166308
-0.24473802
-5.4338835
-0.28360309
-6.5387603
-0.32640507
-7.8707069
-0.37232056
-9.4780498
-0.41953608
-11.423373
-0.46505397
-13.777446
-0.50337781
-16.631775
-0.52600044
-20.105613
-0.52090505
-24.349356
-0.46799257
-29.546041
-35.928449
-1.2882161e-05
-0.0030797645
-2.8570792e-05
-0.0044174788
-4.6995665e-05
-0.0058574584
-6.9923288e-05
-0.0075879261
-0.00010117647
-0.0096875341
-0.0001749274
-0.012008941
-0.0002841907
-0.014396699
-0.00041528482
-0.017240473
-0.00057270605
-0.020618163
-0.00076225327
-0.024672803
-0.00099013653
-0.029504917
-0.0012651079
-0.035285205
-0.0015965181
-0.042179743
-0.0019972909
-0.050409515
-0.0024819108
-0.060220922
-0.0030694909
-0.07191329
-0.0037826452
-0.085836917
-0.0046496039
-0.10240617
-0.0057050033
-0.12211302
-0.0069909093
-0.14554066
-0.0085575499
-0.17339005
-0.010464241
-0.20650559
-0.012778133
-0.24592294
-0.01557322
-0.2929203
-0.0189302
-0.34908677
-0.022934083
-0.4163871
-0.027667776
-0.49726761
-0.033239499
-0.59467876
-0.039765454
-0.71214994
-0.047390425
-0.85391675
-0.056294344
-1.0250052
-0.066695317
-1.2313969
-0.07885362
-1.4802394
-0.093072055
-1.7800636
-0.10970183
-2.1410809
-0.1291295
-2.5756204
-0.15175818
-3.0986878
-0.1779835
-3.7283639
-0.20816835
-4.4864606
-0.242575
-5.3994975
-0.28127713
-6.5000847
-0.32402429
-7.8279741
-0.37007138
-9.4320971
-0.41775053
-11.375839
-0.46420936
-13.731015
-0.50424342
-16.591633
-0.5298099
-20.079788
-0.5294326
-24.349933
-0.48388307
-29.592214
-36.049131
-1.230882e-05
-0.0030675215
-2.7150365e-05
-0.0044026851
-4.4336309e-05
-0.0058403135
-6.5772225e-05
-0.007566511
-9.6790951e-05
-0.009656548
-0.0001725071
-0.011933235
-0.00027977458
-0.014289446
-0.00040853889
-0.01711171
-0.00056324407
-0.020463457
-0.00074967335
-0.024486358
-0.00097391764
-0.029280658
-0.0012447355
-0.035014358
-0.0015713584
-0.041853085
-0.0019667162
-0.05001411
-0.0024451928
-0.059742385
-0.0030259914
-0.071332419
-0.0037315368
-0.085131274
-0.0045907627
-0.10154684
-0.0056377798
-0.12106587
-0.0069153698
-0.14426291
-0.0084737287
-0.17183149
-0.010372152
-0.20460694
-0.012677459
-0.24361739
-0.015462989
-0.29013455
-0.018807905
-0.3457417
-0.022793231
-0.41240188
-0.027499078
-0.49256226
-0.03303403
-0.58914494
-0.039508878
-0.70567717
-0.047067699
-0.84636113
-0.055888817
-1.0161883
-0.066189568
-1.2211003
-0.078228795
-1.4682022
-0.092309427
-1.7659814
-0.10878015
-2.1246083
-0.12803258
-2.5563716
-0.1504697
-3.0762591
-0.17649608
-3.7023477
-0.20648928
-4.4564814
-0.24072811
-5.365279
-0.27932992
-6.4615096
-0.32209216
-7.7852262
-0.36835086
-9.3859506
-0.4165834
-11.327742
-0.46409114
-13.683531
-0.50596358
-16.549651
-0.53460762
-20.050894
-0.53908834
-24.345654
-0.50107133
-29.630849
-36.158323
-1.1788184e-05
-0.0030558232
-2.5855798e-05
-0.0043886776
-4.1890581e-05
-0.0058243433
-6.18737e-05
-0.0075465744
-9.3307592e-05
-0.0096251609
-0.00017105656
-0.0118555
-0.00027653836
-0.014183978
-0.00040329296
-0.016984948
-0.00055556608
-0.020311185
-0.00073921994
-0.024302691
-0.00096017231
-0.029059689
-0.001227228
-0.034747271
-0.0015494991
-0.041530777
-0.0019399306
-0.049623626
-0.0024129613
-0.059269295
-0.0029877567
-0.070757543
-0.0036870205
-0.08443192
-0.0045395057
-0.10069423
-0.0055800202
-0.12002521
-0.006851226
-0.14299154
-0.0084038995
-0.17027863
-0.010297174
-0.20271346
-0.012597568
-0.24131679
-0.015377384
-0.28735456
-0.018714789
-0.34240418
-0.022684868
-0.40843196
-0.027370939
-0.48787669
-0.032873567
-0.58364345
-0.039303822
-0.69924899
-0.046804347
-0.83886382
-0.055552424
-1.0074445
-0.065764675
-1.2108923
-0.077699362
-1.4562695
-0.091658383
-1.7520205
-0.10799325
-2.1082711
-0.12709385
-2.5372746
-0.14937264
-3.0539894
-0.1752385
-3.6764921
-0.20508255
-4.4266509
-0.23920941
-5.3311722
-0.27776855
-6.4229772
-0.32061893
-7.7423904
-0.36716699
-9.3395258
-0.4160537
-11.278992
-0.46472359
-13.634885
-0.50856336
-16.505703
-0.54043833
-20.018779
-0.54992864
-24.336368
-0.519591
-29.661799
-36.25584
-1.1498131e-05
-0.0030443998
-2.5008007e-05
-0.0043752164
-4.0082611e-05
-0.0058093151
-5.8693817e-05
-0.0075279816
-9.1333827e-05
-0.0095925564
-0.00017120012
-0.011775639
-0.00027507425
-0.014080118
-0.00039998724
-0.016860032
-0.00054999715
-0.020161172
-0.00073103811
-0.024121629
-0.00094892938
-0.028841779
-0.0012125151
-0.034483651
-0.0015308616
-0.04121239
-0.0019169445
-0.04923749
-0.0023852008
-0.058800972
-0.0029549205
-0.070187743
-0.0036488905
-0.083737843
-0.004496165
-0.099846836
-0.0055318757
-0.11898935
-0.0067989387
-0.14172428
-0.0083484772
-0.16872886
-0.010239793
-0.20082188
-0.012539011
-0.23901728
-0.01531752
-0.28457579
-0.018651467
-0.33907002
-0.022611497
-0.40447202
-0.02728275
-0.48320593
-0.032758889
-0.57816852
-0.03915141
-0.69285871
-0.046601549
-0.8314171
-0.055286454
-0.998764
-0.065422227
-1.2007608
-0.077267291
-1.4444258
-0.09112355
-1.7381607
-0.10734422
-2.0920466
-0.12632216
-2.5183005
-0.1484735
-3.0318481
-0.17421722
-3.6507589
-0.20395569
-4.3969254
-0.2380241
-5.2971234
-0.27660753
-6.3844205
-0.31961706
-7.6993956
-0.3665443
-9.2927276
-0.41618021
-11.2295
-0.46612653
-13.584966
-0.51207336
-16.459645
-0.54731237
-19.983304
-0.5619869
-24.321904
-0.53953499
-29.684858
-36.341538
-1.0763109e-05
-0.0030337053
-2.3338938e-05
-0.0043626752
-3.7195015e-05
-0.0057955094
-5.3998206e-05
-0.0075112114
-8.7945821e-05
-0.0095586457
-0.00016971479
-0.011693874
-0.00027187746
-0.013977963
-0.00039490095
-0.016736993
-0.00054274972
-0.020013319
-0.00072138688
-0.023942972
-0.00093649657
-0.028626649
-0.0011970124
-0.034223098
-0.0015119073
-0.040897453
-0.001894248
-0.048855091
-0.0023585258
-0.058336628
-0.0029241057
-0.069622075
-0.0036140597
-0.083047787
-0.0044575838
-0.099003165
-0.0054903869
-0.11795639
-0.0067556196
-0.14045886
-0.0083050185
-0.16717925
-0.010197646
-0.19892901
-0.012499545
-0.23671513
-0.015281237
-0.28179387
-0.018616154
-0.33573494
-0.022571013
-0.40051731
-0.027232395
-0.47854506
-0.032688025
-0.57271411
-0.03904968
-0.6864993
-0.046457746
-0.8240125
-0.055089246
-0.99013702
-0.065161163
-1.1906933
-0.076931734
-1.4326565
-0.09070381
-1.7243847
-0.1068316
-2.0759144
-0.12571485
-2.499421
-0.14777185
-3.0098018
-0.17343057
-3.6251109
-0.20311401
-4.3672543
-0.23717738
-5.2630795
-0.27584963
-6.345775
-0.31909757
-7.6561626
-0.36649326
-9.2454636
-0.41698108
-11.179159
-0.46832571
-13.533655
-0.51651663
-16.411343
-0.55528605
-19.944303
-0.57530748
-24.30211
-0.56091274
-29.699877
-36.415202
-1.0480974e-05
-0.0030232761
-2.2608427e-05
-0.0043505747
-3.5717882e-05
-0.0057824312
-5.1050628e-05
-0.0074958847
-8.6954773e-05
-0.0095227636
-0.00017068327
-0.011610138
-0.00027147407
-0.013877179
-0.00039299881
-0.016615459
-0.00053899706
-0.019867314
-0.0007155924
-0.023766352
-0.00092833906
-0.02841388
-0.0011862444
-0.033965153
-0.001498283
-0.040585368
-0.0018775592
-0.048475754
-0.0023386567
-0.057875455
-0.0029011364
-0.069059502
-0.0035882753
-0.082360527
-0.0044297414
-0.098161563
-0.0054613227
-0.11692463
-0.0067272043
-0.13919276
-0.0082791495
-0.16562704
-0.010176739
-0.19703111
-0.012485096
-0.23440642
-0.015274859
-0.27900379
-0.018614472
-0.33239506
-0.022569805
-0.39656204
-0.027226094
-0.4738893
-0.03266723
-0.56727431
-0.039004673
-0.68016431
-0.046379038
-0.81664184
-0.054967732
-0.98155309
-0.064988375
-1.180677
-0.076700202
-1.4209452
-0.090407381
-1.7106719
-0.10646647
-2.0598495
-0.12528181
-2.4806098
-0.14727875
-2.9878166
-0.1728954
-3.599505
-0.20256844
-4.337593
-0.2366859
-5.228981
-0.27551263
-6.3069748
-0.319078
-7.6126123
-0.36703392
-9.197638
-0.41847975
-11.127858
-0.4713453
-13.480829
-0.52192645
-16.360655
-0.56436932
-19.901634
-0.58994365
-24.276776
-0.58380194
-29.706664
-36.476646
-1.0151873e-05
-0.0030132114
-2.1802772e-05
-0.0043389745
-3.4285209e-05
-0.0057700119
-4.8189017e-05
-0.0074820256
-8.6071009e-05
-0.0094849211
-0.00016893822
-0.011527275
-0.00026853521
-0.013777592
-0.0003886882
-0.016495289
-0.0005331564
-0.019722841
-0.00070803879
-0.023591446
-0.00091885656
-0.028203037
-0.0011746735
-0.033709293
-0.0014844471
-0.040275545
-0.0018613572
-0.048098776
-0.0023201736
-0.05741656
-0.0028805853
-0.06849899
-0.0035662429
-0.081674757
-0.0044071913
-0.097320467
-0.0054399089
-0.11589173
-0.0067087828
-0.13792367
-0.0082664124
-0.16406916
-0.01017236
-0.19512488
-0.012491703
-0.23208678
-0.015293291
-0.2762019
-0.018641406
-0.32904677
-0.022604408
-0.39259914
-0.0272597
-0.46923454
-0.032692455
-0.56184289
-0.039012734
-0.67384649
-0.046361809
-0.80929651
-0.054918233
-0.9730015
-0.064900846
-1.1706988
-0.076569976
-1.4092765
-0.090231643
-1.6970041
-0.10624607
-2.0438285
-0.12502257
-2.4618375
-0.14699479
-2.965857
-0.17260753
-3.5739032
-0.20232282
-4.3078888
-0.23654993
-5.1947727
-0.27560258
-6.2679485
-0.31956549
-7.5686645
-0.36817953
-9.1491517
-0.42069098
-11.075493
-0.47520812
-13.426357
-0.52832921
-16.307432
-0.57463103
-19.855113
-0.60592926
-24.245735
-0.60826694
-29.704994
-36.525666
-9.6400752e-06
-0.0030036421
-2.0738909e-05
-0.0043279153
-3.2595728e-05
-0.0057581987
-4.5173189e-05
-0.0074694612
-8.5373003e-05
-0.0094447488
-0.00016640022
-0.011446245
-0.00026508864
-0.013678912
-0.0003843403
-0.016376025
-0.00052758352
-0.019579588
-0.00070120117
-0.023417797
-0.00091051076
-0.027993699
-0.0011647081
-0.033455049
-0.0014727885
-0.039967407
-0.0018480591
-0.047723435
-0.0023054266
-0.056959105
-0.0028648556
-0.067939469
-0.0035503915
-0.080989103
-0.0043924531
-0.096478249
-0.0054282451
-0.11485574
-0.0067031049
-0.13664856
-0.0082696151
-0.16250234
-0.010187615
-0.19320651
-0.012521763
-0.22975223
-0.015339901
-0.27338335
-0.018701478
-0.32568491
-0.022676438
-0.38862422
-0.027336367
-0.46457517
-0.032766353
-0.55641437
-0.039076871
-0.66753864
-0.046409476
-0.80196791
-0.0549445
-0.96447156
-0.064902348
-1.1607455
-0.076545426
-1.3976332
-0.090181892
-1.68336
-0.10617568
-2.0278271
-0.12494469
-2.4430734
-0.14692518
-2.9438904
-0.17257908
-3.5482603
-0.20238451
-4.2780938
-0.23678375
-5.1603922
-0.2761325
-6.2286261
-0.32057871
-7.5242334
-0.36994895
-9.0999051
-0.42363792
-11.021946
-0.47993948
-13.370104
-0.53576069
-16.251517
-0.58608094
-19.804578
-0.62332018
-24.208779
-0.6343418
-29.694664
-36.561997
-9.4159518e-06
-0.0029942928
-2.0230886e-05
-0.004317128
-3.1834028e-05
-0.0057466453
-4.3587506e-05
-0.0074577382
-8.6555755e-05
-0.0094018082
-0.00016728048
-0.011365512
-0.00026520714
-0.013580986
-0.00038361062
-0.016257595
-0.00052584733
-0.019437339
-0.00069838449
-0.02324523
-0.0009065037
-0.027785547
-0.0011595159
-0.033201983
-0.0014664493
-0.039660417
-0.0018407599
-0.047349045
-0.0022975904
-0.056502193
-0.0028571687
-0.067379774
-0.0035439764
-0.080302159
-0.0043890377
-0.09563302
-0.0054302456
-0.11381432
-0.0067134347
-0.13536512
-0.0082920922
-0.16092339
-0.010226155
-0.19127211
-0.012579827
-0.2273982
-0.015418321
-0.27054448
-0.018798103
-0.32230493
-0.022789878
-0.3846325
-0.027459464
-0.45990616
-0.03289318
-0.55098213
-0.039200792
-0.66123372
-0.046526168
-0.7946466
-0.055050775
-0.95595215
-0.064997814
-1.150803
-0.076631968
-1.3859986
-0.090264257
-1.6697193
-0.10626397
-2.011819
-0.1250522
-2.4242903
-0.14707968
-2.9218777
-0.17281853
-3.5225327
-0.20276655
-4.2481557
-0.23739945
-5.1257777
-0.27711756
-6.1889345
-0.32213055
-7.4792358
-0.37236187
-9.0497932
-0.427346
-10.967096
-0.48557147
-13.311926
-0.5442512
-16.192753
-0.59877156
-19.749845
-0.64216153
-24.165697
-0.66212949
-29.675412
-36.585388
-8.8697656e-06
-0.0029854758
-1.9091916e-05
-0.0043069273
-3.0238461e-05
-0.0057355298
-4.1096585e-05
-0.0074468802
-8.6619316e-05
-0.0093562992
-0.00016706677
-0.011285049
-0.00026424619
-0.013483808
-0.00038192548
-0.016139896
-0.00052334113
-0.019295907
-0.00069509573
-0.023073437
-0.00090242275
-0.027578186
-0.0011547076
-0.032949645
-0.0014611089
-0.039353949
-0.0018351801
-0.046974895
-0.0022923738
-0.056044894
-0.0028532276
-0.066818808
-0.0035427898
-0.079612455
-0.0043926529
-0.094782972
-0.0054416881
-0.11276505
-0.0067361372
-0.13407038
-0.0083304134
-0.15932875
-0.01028442
-0.18931767
-0.012662254
-0.22501989
-0.015524945
-0.26768132
-0.018928634
-0.31890091
-0.022941133
-0.38062001
-0.027626268
-0.45522166
-0.033069386
-0.54554065
-0.039381903
-0.65492416
-0.046708895
-0.78732397
-0.055234956
-0.94743157
-0.065185495
-1.1408572
-0.076828202
-1.3743549
-0.090477549
-1.6560603
-0.10650811
-1.9957792
-0.12534922
-2.4054554
-0.14746107
-2.8997818
-0.17332743
-3.4966772
-0.20347305
-4.218019
-0.23840304
-5.090866
-0.27856485
-6.1487981
-0.32423744
-7.4335796
-0.37543413
-8.9987119
-0.43183381
-10.910818
-0.4921272
-13.251677
-0.55383703
-16.130966
-0.61276183
-19.690708
-0.66250891
-24.116286
-0.69163829
-29.647024
-36.595542
-8.7256181e-06
-0.0029768397
-1.8630356e-05
-0.0042970671
-2.960333e-05
-0.0057246205
-4.0316793e-05
-0.0074362062
-8.8727618e-05
-0.0093079184
-0.00016912435
-0.011204646
-0.00026588544
-0.013387047
-0.00038321457
-0.016022538
-0.00052416913
-0.019154937
-0.00069549572
-0.022902075
-0.00090239993
-0.027371243
-0.001154416
-0.032697568
-0.0014608168
-0.039047484
-0.0018353763
-0.046600247
-0.0022938383
-0.055586338
-0.0028571623
-0.066255346
-0.0035510125
-0.078918445
-0.004407722
-0.093926067
-0.0054667531
-0.11170579
-0.0067757759
-0.13276107
-0.0083892026
-0.15771499
-0.010367279
-0.18733921
-0.01277322
-0.22261352
-0.015664127
-0.26479
-0.019098012
-0.31546676
-0.023135345
-0.37658271
-0.027840849
-0.45051678
-0.033299749
-0.54008339
-0.03962455
-0.64860232
-0.046962906
-0.77999003
-0.055502197
-0.93889786
-0.065471031
-1.1308931
-0.077140373
-1.3626844
-0.090829072
-1.6423613
-0.10691679
-1.9796816
-0.12584424
-2.3865344
-0.1480767
-2.8775663
-0.17412045
-3.4706441
-0.20451599
-4.1876323
-0.23980838
-5.0555922
-0.28049311
-6.1081388
-0.32691778
-7.3871724
-0.37918833
-8.9465543
-0.43712857
-10.852989
-0.49963857
-13.189206
-0.56455261
-16.065978
-0.62807508
-19.62697
-0.68443009
-24.060298
-0.72300617
-29.609214
-36.592185
-8.551967e-06
-0.0029683575
-1.8110713e-05
-0.0042875405
-2.8620886e-05
-0.0057141509
-3.9457231e-05
-0.0074253759
-9.0932175e-05
-0.0092564577
-0.00017123714
-0.011124325
-0.00026764791
-0.013290635
-0.00038471652
-0.015905445
-0.00052529738
-0.019014335
-0.000696377
-0.02273095
-0.00090314986
-0.027164429
-0.0011553038
-0.032445353
-0.0014622526
-0.038740461
-0.0018379915
-0.046224421
-0.0022987071
-0.0551255
-0.0028657877
-0.065688131
-0.0035655506
-0.078218515
-0.0044311464
-0.093060257
-0.0055030015
-0.11063366
-0.0068294762
-0.13143426
-0.008465921
-0.15607813
-0.010472094
-0.18533254
-0.012910853
-0.22017421
-0.015834677
-0.26186563
-0.019302698
-0.31199837
-0.02336986
-0.37251555
-0.028101155
-0.44578619
-0.033581954
-0.53460441
-0.039926915
-0.64226059
-0.04728646
-0.77263521
-0.055851221
-0.93033898
-0.065853618
-1.1208956
-0.077568364
-1.350968
-0.091319077
-1.6285991
-0.10749284
-1.9634975
-0.12653761
-2.3674969
-0.14893437
-2.855188
-0.17519776
-3.4443914
-0.20590341
-4.156935
-0.24162625
-5.019888
-0.28291392
-6.0668765
-0.33018261
-7.339922
-0.38364251
-8.8932068
-0.44325363
-10.793476
-0.50813566
-13.124353
-0.57643316
-15.997607
-0.64476542
-19.558419
-0.70795708
-23.997509
-0.75625225
-29.561711
-36.57501
-8.2810814e-06
-0.0029601413
-1.7330426e-05
-0.0042785098
-2.7064495e-05
-0.005704462
-3.847421e-05
-0.0074139884
-9.4506666e-05
-0.0092004388
-0.00017459058
-0.011044224
-0.00027060053
-0.013194617
-0.00038743702
-0.015788572
-0.00052780862
-0.01887394
-0.00069887351
-0.02255984
-0.00090584889
-0.026957408
-0.0011585363
-0.032192597
-0.0014666507
-0.038432274
-0.0018444075
-0.045846562
-0.0023084602
-0.054661332
-0.0028806462
-0.065115783
-0.003588105
-0.07751087
-0.0044647749
-0.092183363
-0.0055522585
-0.10954591
-0.0068997039
-0.13008648
-0.0085628075
-0.15441464
-0.010602065
-0.18329283
-0.013077521
-0.21769826
-0.016038528
-0.25890413
-0.019545055
-0.30849153
-0.023646822
-0.3684138
-0.028409124
-0.4410246
-0.033918393
-0.52909697
-0.040291562
-0.6358907
-0.047682462
-0.76524912
-0.056285412
-0.92174204
-0.066337123
-1.1108488
-0.078116529
-1.3391867
-0.091952855
-1.6147506
-0.10824009
-1.9471993
-0.12743702
-2.3483088
-0.15003649
-2.8326077
-0.17657337
-3.4178651
-0.20764485
-4.1258717
-0.24386706
-4.9836847
-0.28584102
-6.0249274
-0.3340524
-7.2917303
-0.38881661
-8.8385568
-0.45023723
-10.732141
-0.51764976
-13.056958
-0.58951812
-15.925663
-0.66287956
-19.484838
-0.73316822
-23.927661
-0.79146648
-29.504232
-36.543679
-8.3619114e-06
-0.0029518303
-1.7135817e-05
-0.0042697465
-2.6055641e-05
-0.0056955672
-3.8851345e-05
-0.0074011827
-9.9674201e-05
-0.0091396171
-0.00017973842
-0.010964135
-0.00027562419
-0.013098719
-0.00039247703
-0.015671686
-0.00053289106
-0.018733496
-0.00070426639
-0.022388412
-0.00091183748
-0.026749788
-0.001165679
-0.031938685
-0.0014756805
-0.038122183
-0.0018563968
-0.045465741
-0.0023249038
-0.054192683
-0.0029037213
-0.06453681
-0.0036207104
-0.076793686
-0.0045107898
-0.091293036
-0.0056166784
-0.1084397
-0.0069883713
-0.1287144
-0.0086823992
-0.15272013
-0.010758993
-0.18121565
-0.013274626
-0.21518202
-0.01627915
-0.25589895
-0.019827857
-0.30494242
-0.023968673
-0.36427298
-0.028767375
-0.43622671
-0.034311475
-0.52355494
-0.040720983
-0.62948478
-0.048153761
-0.75782152
-0.056808225
-0.91309392
-0.066925381
-1.1007368
-0.078789587
-1.3273204
-0.092735791
-1.6007915
-0.10916686
-1.930757
-0.12854998
-2.3289361
-0.15139478
-2.8097832
-0.17825457
-3.3910157
-0.20975323
-4.0943812
-0.24654704
-4.9469102
-0.28929038
-5.9822085
-0.33854756
-7.2424944
-0.39473541
-8.7824873
-0.45810331
-10.668846
-0.52821646
-12.98685
-0.60384789
-15.849949
-0.68246661
-19.406002
-0.76011827
-23.850494
-0.82871456
-29.436481
-36.49785
-8.2308643e-06
-0.0029436822
-1.6585022e-05
-0.0042614211
-2.4287869e-05
-0.0056879175
-3.8829753e-05
-0.007386663
-0.00010331196
-0.0090751438
-0.00018337032
-0.010884056
-0.00027920693
-0.01300287
-0.00039628147
-0.01555457
-0.00053711059
-0.018592638
-0.00070924055
-0.022216231
-0.00091802451
-0.026540948
-0.0011736782
-0.03168295
-0.0014864296
-0.037809343
-0.0018711036
-0.045080951
-0.0023454344
-0.053718222
-0.0029324085
-0.063949648
-0.003660939
-0.076064941
-0.0045669761
-0.090386741
-0.0056943186
-0.10731205
-0.0070939665
-0.12731437
-0.0088229269
-0.15099071
-0.010941249
-0.1790968
-0.013501238
-0.21262145
-0.016554421
-0.25284519
-0.020148857
-0.30134762
-0.024333727
-0.36008812
-0.029173742
-0.43138751
-0.03475937
-0.51797137
-0.041214091
-0.62303367
-0.04869939
-0.75034146
-0.057418821
-0.90438095
-0.067618371
-1.0905425
-0.079588068
-1.3153483
-0.093669165
-1.5866968
-0.11027177
-1.9141433
-0.12988111
-2.3093378
-0.15301427
-2.7866713
-0.18024622
-3.3637939
-0.21223439
-4.0624012
-0.24967419
-4.9094902
-0.29327795
-5.9386287
-0.34368231
-7.1921134
-0.40141879
-8.724875
-0.46688283
-10.603443
-0.53986687
-12.913853
-0.61946072
-15.770263
-0.70357713
-19.32168
-0.78886142
-23.765741
-0.86808501
-29.358129
-36.437145
-8.8642959e-06
-0.0029348824
-1.7520799e-05
-0.0042527833
-2.4507953e-05
-0.0056809628
-4.1566189e-05
-0.0073695925
-0.00010790484
-0.0090088047
-0.00018849011
-0.010803445
-0.00028479425
-0.012906552
-0.00040263983
-0.015436686
-0.00054437817
-0.018450863
-0.00071786435
-0.022042683
-0.00092851554
-0.026330237
-0.0011867396
-0.031424644
-0.0015031393
-0.037492845
-0.0018928676
-0.044691107
-0.0023742421
-0.053236686
-0.0029710686
-0.063352641
-0.0037131917
-0.075322591
-0.0046377463
-0.089461898
-0.0057896309
-0.1061598
-0.0072211284
-0.12588242
-0.0089893396
-0.14922194
-0.011153613
-0.17693187
-0.013762482
-0.21001185
-0.016868172
-0.2497388
-0.020512849
-0.29770249
-0.024745875
-0.3558551
-0.029632959
-0.42650136
-0.035266983
-0.51233965
-0.041775365
-0.61652924
-0.049324775
-0.74279766
-0.05812347
-0.89558906
-0.068422944
-1.0802485
-0.080519317
-1.3032494
-0.094760586
-1.5724416
-0.11156903
-1.8973243
-0.1314387
-2.2894806
-0.15490442
-2.7632275
-0.18256457
-3.3361437
-0.21510566
-4.0298686
-0.25326572
-4.8713506
-0.29781941
-5.894099
-0.34947745
-7.1404825
-0.40889207
-8.6655909
-0.47660425