/*--------------------------------*- C++ -*----------------------------------*\
| =========                 |                                                 |
| \\      /  F ield         | OpenFOAM: The Open Source CFD Toolbox           |
|  \\    /   O peration     | Version:  2306                                  |
|   \\  /    A nd           | Website:  www.openfoam.com                      |
|    \\/     M anipulation  |                                                 |
\*---------------------------------------------------------------------------*/
FoamFile
{
    version     2.0;
    format      ascii;
    arch        "LSB;label=32;scalar=64";
    class       volScalarField;
    location    "0.012";
    object      yPlus;
}
// * * * * * * * * * * * * * * * * * * * * * * * * * * * * * * * * * * * * * //

dimensions      [0 0 0 0 0 0 0];

internalField   uniform 0;

boundaryField
{
    upper
    {
        type            calculated;
        value           nonuniform List<scalar> 
150
(
52.822131
52.787148
52.781827
52.777502
52.784151
52.800729
52.826463
52.860941
52.904216
52.956328
53.016546
53.085923
53.165479
53.252634
53.350266
53.45752
53.572616
53.697371
53.831292
53.976917
54.131957
54.294711
54.466516
54.643547
54.826777
55.00971
55.193989
55.381449
55.569643
55.762837
55.962247
56.169873
56.384227
56.607223
56.84037
57.081581
57.329528
57.589865
57.863812
58.150053
58.446757
58.756904
59.082355
59.433109
59.802115
60.196978
60.606788
61.035099
61.466805
61.893858
62.308904
62.701103
63.072758
63.43394
63.810482
64.204737
64.592013
65.014216
65.479919
66.086876
66.892144
67.99751
69.61762
71.889848
74.541
77.332957
80.119744
82.669808
84.811843
86.333613
87.027927
86.648471
84.807819
81.043839
75.424727
16.503533
21.591513
23.011209
24.715875
26.05299
27.265179
28.329584
29.286539
30.151645
30.941013
31.666637
32.334978
32.953224
33.528113
34.06489
34.566564
35.039161
35.4859
35.910352
36.315445
36.703334
37.075743
37.433606
37.778554
38.111611
38.434892
38.749287
39.058491
39.369297
39.696618
40.07053
40.390229
40.670931
40.944199
41.21296
41.478632
41.741838
42.003259
42.262539
42.519958
42.776137
43.030986
43.284374
43.538073
43.793322
44.049795
44.307658
44.566744
44.826247
45.087419
45.35099
45.615801
45.880969
46.148588
46.419074
46.693996
46.972575
47.252403
47.532691
47.816258
48.103713
48.393828
48.687946
48.985982
49.288674
49.598134
49.915013
50.238386
50.566767
50.900743
51.236671
51.573006
51.913344
52.267144
52.636859
)
;
    }
    lower
    {
        type            calculated;
        value           nonuniform List<scalar> 
150
(
58.138243
57.874985
57.63607
57.402811
57.179241
56.963788
56.756197
56.555781
56.362901
56.177696
55.999324
55.828481
55.665599
55.506975
55.354554
55.208101
55.067029
54.931664
54.798696
54.668384
54.540558
54.412159
54.279964
54.139479
53.992723
53.838085
53.680217
53.522457
53.364399
53.209202
53.060059
52.915666
52.769272
52.615596
52.450016
52.26584
52.055875
51.821135
51.561517
51.283341
50.997829
50.726305
50.455853
50.169495
49.853156
49.510259
49.126252
48.700396
48.228938
47.695455
47.097001
46.452904
45.807717
45.175725
44.50998
43.762157
42.877463
41.817974
40.545475
39.031316
37.223982
35.066413
32.448772
29.043676
24.626832
18.341845
12.08
3.7749619
13.966982
24.105384
35.315518
47.306819
58.93737
69.983692
79.325655
38.538576
41.819601
42.868916
43.968747
44.770056
45.460245
46.040682
46.548011
46.995023
47.393906
47.755133
48.084625
48.386297
48.665737
48.926659
49.171017
49.401873
49.620244
49.827237
50.02485
50.214134
50.396443
50.572351
50.743293
50.90874
51.06994
51.227457
51.382772
51.535529
51.685783
51.829383
51.969996
52.110459
52.249081
52.384803
52.518761
52.652546
52.785745
52.918976
53.051105
53.184303
53.31776
53.452336
53.588013
53.725863
53.864436
54.002454
54.141986
54.281949
54.421864
54.561279
54.696643
54.827559
54.959481
55.096665
55.238772
55.384537
55.532286
55.681594
55.832745
55.986017
56.140252
56.296339
56.452523
56.608647
56.764657
56.920136
57.075413
57.230478
57.388186
57.547583
57.706124
57.863551
58.022577
58.183688
)
;
    }
    inlet
    {
        type            calculated;
        value           uniform 0;
    }
    outlet
    {
        type            calculated;
        value           uniform 0;
    }
    back
    {
        type            empty;
    }
    front
    {
        type            empty;
    }
}


// ************************************************************************* //
