/*--------------------------------*- C++ -*----------------------------------*\
| =========                 |                                                 |
| \\      /  F ield         | OpenFOAM: The Open Source CFD Toolbox           |
|  \\    /   O peration     | Version:  2306                                  |
|   \\  /    A nd           | Website:  www.openfoam.com                      |
|    \\/     M anipulation  |                                                 |
\*---------------------------------------------------------------------------*/
FoamFile
{
    version     2.0;
    format      ascii;
    arch        "LSB;label=32;scalar=64";
    class       volVectorField;
    location    "550";
    object      momentError;
}
// * * * * * * * * * * * * * * * * * * * * * * * * * * * * * * * * * * * * * //

dimensions      [0 1 -2 0 0 0 0];

internalField   nonuniform List<vector> 
1340
(
(9.89313e-05 4.63282e-06 1.26138e-15)
(5.12767e-05 -2.10631e-05 -2.16473e-15)
(0.000349978 -0.000130682 -1.10575e-14)
(0.00215455 -0.00125352 -2.14939e-14)
(5.77714e-05 7.61683e-06 -1.55107e-15)
(0.000166542 1.0075e-05 -6.65105e-17)
(0.00032004 7.45912e-06 3.77994e-15)
(0.00158041 0.000220833 9.20409e-15)
(-2.16914e-05 6.48336e-05 3.81495e-17)
(9.18503e-05 4.70201e-05 1.4476e-14)
(0.000362722 4.46806e-06 8.74936e-15)
(0.00130503 0.000222373 -1.03383e-13)
(0.000942833 0.00290735 7.58395e-15)
(-0.000248123 -0.00164974 -1.28923e-14)
(0.000198948 -0.000277822 -2.99113e-14)
(0.0011747 0.000262956 -1.08682e-16)
(-0.000225005 -0.00387242 -6.95934e-16)
(1.6466e-05 0.00228303 1.03215e-14)
(0.00025015 0.000260084 -1.08856e-14)
(0.000973677 8.33187e-05 5.49108e-15)
(-0.000396497 0.000971742 -1.19015e-14)
(0.000469684 -0.000821442 3.46553e-15)
(0.000366462 -2.39135e-05 4.42003e-14)
(0.00126132 -0.000303315 3.10481e-14)
(0.000137749 9.43839e-05 7.24364e-15)
(0.000159315 0.000139297 -1.54395e-15)
(0.000222319 -2.04298e-06 -2.47775e-15)
(0.000704725 0.000384205 -4.22942e-14)
(7.66248e-05 4.70063e-05 -3.42307e-15)
(0.00011033 2.64978e-05 -6.4676e-15)
(0.000223642 5.5162e-05 3.78709e-15)
(0.000308415 0.000601201 -2.25905e-14)
(8.20684e-05 2.02029e-05 -1.09985e-15)
(0.00011864 1.78823e-05 8.89058e-16)
(0.000246852 3.4855e-05 -8.1433e-15)
(0.000657824 0.000195503 7.93274e-15)
(8.2162e-05 2.15174e-05 -4.81435e-16)
(0.000119009 1.70398e-05 -2.28725e-14)
(0.000239377 4.34171e-05 6.30176e-16)
(0.000534363 0.000246177 1.68675e-14)
(8.1805e-05 2.02571e-05 2.3358e-15)
(0.000119423 1.74141e-05 2.05435e-14)
(0.000233307 4.5281e-05 7.87459e-15)
(0.000480647 0.000234995 -7.15155e-14)
(8.12916e-05 2.05308e-05 7.27916e-15)
(0.000118879 1.94759e-05 -4.67782e-15)
(0.000223748 5.20037e-05 -2.28055e-14)
(0.000419061 0.000240378 4.09798e-14)
(8.07205e-05 2.05303e-05 -1.25875e-14)
(0.0001179 2.18451e-05 4.02362e-15)
(0.000213128 5.81333e-05 2.53906e-14)
(0.00036408 0.000241581 6.16967e-14)
(7.99693e-05 2.08171e-05 7.45339e-16)
(0.000116078 2.44253e-05 2.62386e-15)
(0.000201151 6.45134e-05 -1.32533e-14)
(0.000313744 0.000241971 -6.36306e-15)
(7.91029e-05 2.13859e-05 7.28476e-16)
(0.000113859 2.73187e-05 -6.64012e-15)
(0.000188572 7.05335e-05 -2.43986e-14)
(0.00026842 0.000239991 -2.48138e-14)
(7.79825e-05 2.20354e-05 -1.03633e-15)
(0.000110798 3.02561e-05 4.81786e-16)
(0.000175254 7.6059e-05 1.92374e-14)
(0.000227889 0.000236128 4.77233e-14)
(7.6679e-05 2.31165e-05 3.09243e-15)
(0.000107376 3.33829e-05 -4.24572e-15)
(0.000161809 8.08732e-05 1.71494e-14)
(0.000191939 0.000230228 -1.92929e-14)
(7.50487e-05 2.41796e-05 1.59438e-15)
(0.000103195 3.64297e-05 7.50061e-15)
(0.000148098 8.49433e-05 3.81849e-15)
(0.000160241 0.000222941 -9.95279e-15)
(7.32078e-05 2.53673e-05 5.65209e-15)
(9.87299e-05 3.94734e-05 1.59036e-14)
(0.000134629 8.81577e-05 -1.0118e-14)
(0.000132523 0.000214029 -3.12922e-14)
(7.10276e-05 2.65358e-05 -9.50889e-15)
(9.3593e-05 4.23742e-05 -1.78576e-14)
(0.000121292 9.06336e-05 -1.32471e-14)
(0.000108484 0.000204252 1.15003e-14)
(6.8574e-05 2.80743e-05 5.55269e-15)
(8.82222e-05 4.53587e-05 4.16689e-15)
(0.000108488 9.21783e-05 1.99645e-14)
(8.77404e-05 0.000193462 1.62226e-14)
(6.57009e-05 2.96499e-05 -2.00697e-15)
(8.23668e-05 4.81466e-05 2.88753e-15)
(9.61865e-05 9.30064e-05 -5.29574e-15)
(6.99671e-05 0.000182505 -1.26032e-14)
(6.26016e-05 3.12433e-05 -7.54189e-18)
(7.64748e-05 5.04738e-05 -3.65814e-15)
(8.45939e-05 9.30321e-05 -1.08326e-14)
(5.4775e-05 0.000171182 -2.18461e-15)
(5.91804e-05 3.27859e-05 1.01938e-16)
(7.02608e-05 5.2492e-05 1.74197e-15)
(7.36674e-05 9.25391e-05 1.4781e-14)
(4.20062e-05 0.000160039 1.78732e-14)
(5.55829e-05 3.42174e-05 2.43618e-15)
(6.41075e-05 5.41409e-05 -5.36338e-15)
(6.35894e-05 9.11889e-05 -4.542e-15)
(3.12392e-05 0.000148831 -1.11228e-14)
(5.17096e-05 3.56194e-05 -9.86196e-17)
(5.78147e-05 5.54185e-05 8.99573e-15)
(5.43378e-05 8.93509e-05 -1.18245e-14)
(2.23535e-05 0.000138078 -1.9616e-14)
(4.77311e-05 3.67759e-05 4.49178e-15)
(5.17991e-05 5.59612e-05 -1.1997e-14)
(4.59801e-05 8.67394e-05 -2.31781e-15)
(1.49563e-05 0.000127579 2.12687e-14)
(4.36425e-05 3.77423e-05 -8.96029e-15)
(4.58417e-05 5.60788e-05 2.83529e-15)
(3.84265e-05 8.37601e-05 1.39007e-15)
(9.01986e-06 0.000117581 -9.70509e-15)
(3.95797e-05 3.82773e-05 7.56007e-15)
(4.02781e-05 5.54734e-05 -1.63752e-16)
(3.17708e-05 8.00907e-05 7.08263e-15)
(4.19993e-06 0.000107891 1.40641e-14)
(3.55637e-05 3.85839e-05 -8.13958e-15)
(3.49193e-05 5.44777e-05 6.89115e-15)
(2.58677e-05 7.61846e-05 2.02216e-15)
(4.67429e-07 9.87442e-05 4.63223e-16)
(3.16783e-05 3.84775e-05 -1.756e-15)
(3.00395e-05 5.29111e-05 2.66431e-15)
(2.08036e-05 7.17887e-05 1.1059e-15)
(-2.46463e-06 9.00082e-05 -9.2728e-15)
(2.80027e-05 3.81714e-05 7.9058e-15)
(2.54655e-05 5.10608e-05 -1.50046e-15)
(1.6401e-05 6.73086e-05 -3.6796e-15)
(-4.63961e-06 8.18968e-05 -1.35902e-14)
(2.45544e-05 3.74407e-05 1.32755e-15)
(2.14424e-05 4.87716e-05 -1.19627e-16)
(1.27268e-05 6.26163e-05 1.74056e-15)
(-6.28166e-06 7.42442e-05 8.45883e-15)
(2.13776e-05 3.65803e-05 -6.34255e-15)
(1.7757e-05 4.63147e-05 -3.62231e-15)
(9.55024e-06 5.80655e-05 -1.62712e-15)
(-7.41425e-06 6.7234e-05 9.1375e-15)
(1.84496e-05 3.54626e-05 4.02123e-15)
(1.46127e-05 4.36536e-05 4.7781e-15)
(6.97252e-06 5.35137e-05 3.64606e-15)
(-8.20206e-06 6.07158e-05 -8.00829e-15)
(1.5838e-05 3.42156e-05 -2.96917e-15)
(1.17999e-05 4.10571e-05 -3.87351e-15)
(4.76574e-06 4.91865e-05 -2.11707e-15)
(-8.66838e-06 5.48273e-05 1.06789e-14)
(1.34469e-05 3.29033e-05 -1.86156e-15)
(9.50133e-06 3.82789e-05 2.96581e-15)
(3.0658e-06 4.50201e-05 1.36688e-15)
(-8.92754e-06 4.93817e-05 -3.06839e-15)
(1.15024e-05 3.10916e-05 -7.37777e-16)
(7.57241e-06 3.5567e-05 -3.03735e-15)
(1.56668e-06 4.12194e-05 3.66981e-15)
(-8.97441e-06 4.45066e-05 -2.85048e-15)
(1.15049e-05 2.52666e-05 4.84958e-15)
(9.34412e-06 2.86672e-05 -2.38795e-16)
(6.75976e-06 3.37778e-05 2.12461e-15)
(1.08721e-07 3.72738e-05 -1.46879e-15)
(-8.82987e-06 4.0111e-05 -8.22412e-15)
(1.00314e-05 2.39773e-05 -6.37954e-15)
(7.74104e-06 2.70474e-05 1.84021e-15)
(5.14506e-06 3.1186e-05 1.71776e-15)
(-7.80082e-07 3.39503e-05 -1.14235e-14)
(-8.62442e-06 3.61384e-05 1.80476e-15)
(8.67483e-06 2.26454e-05 1.45759e-15)
(6.34501e-06 2.5312e-05 -3.21839e-16)
(3.91889e-06 2.8739e-05 -8.76089e-16)
(-1.40565e-06 3.07962e-05 1.00865e-14)
(-8.31647e-06 3.24917e-05 6.41118e-15)
(7.48333e-06 2.1367e-05 8.91734e-16)
(5.08288e-06 2.36477e-05 -6.2266e-16)
(2.8304e-06 2.64382e-05 -2.18186e-15)
(-1.88858e-06 2.79464e-05 -7.18804e-17)
(-7.94234e-06 2.92461e-05 1.1348e-16)
(6.39632e-06 2.00494e-05 -3.5201e-15)
(4.1042e-06 2.19602e-05 -3.48854e-15)
(2.04938e-06 2.42193e-05 -3.82655e-15)
(-2.1746e-06 2.52834e-05 -2.07593e-15)
(-7.5081e-06 2.62711e-05 -2.49767e-15)
(5.48126e-06 1.87314e-05 -1.43803e-15)
(3.23393e-06 2.03059e-05 -4.1767e-16)
(1.34784e-06 2.21899e-05 3.37717e-15)
(-2.38231e-06 2.28876e-05 1.12257e-15)
(-7.05074e-06 2.36433e-05 -6.51177e-15)
(4.6593e-06 1.74093e-05 -4.27822e-15)
(2.56291e-06 1.87297e-05 3.39655e-15)
(8.79869e-07 2.02377e-05 1.87341e-15)
(-2.43098e-06 2.06669e-05 -1.79875e-15)
(-6.55764e-06 2.12436e-05 3.29875e-15)
(3.97902e-06 1.61075e-05 1.24486e-15)
(1.98903e-06 1.72141e-05 -1.67454e-15)
(4.71664e-07 1.84414e-05 -5.73276e-16)
(-2.46303e-06 1.86845e-05 2.40966e-15)
(-6.07601e-06 1.91393e-05 5.67523e-15)
(3.36948e-06 1.4857e-05 1.78145e-15)
(1.54525e-06 1.57422e-05 -1.43829e-15)
(2.20734e-07 1.67749e-05 -2.47509e-15)
(-2.38198e-06 1.68705e-05 -1.56042e-16)
(-5.5767e-06 1.72351e-05 -4.64046e-15)
(2.88639e-06 1.367e-05 -5.8294e-16)
(1.17695e-06 1.43545e-05 8.81666e-17)
(-1.70343e-08 1.52878e-05 3.19969e-15)
(-2.32048e-06 1.52621e-05 -1.99211e-15)
(-5.11749e-06 1.55787e-05 1.26535e-15)
(2.45433e-06 1.25823e-05 -2.2906e-15)
(8.74178e-07 1.31237e-05 1.52021e-16)
(-1.60475e-07 1.39221e-05 3.73117e-15)
(-2.16866e-06 1.38057e-05 -3.22275e-15)
(-4.64141e-06 1.40826e-05 -2.51727e-15)
(2.09652e-06 1.15845e-05 1.71922e-15)
(6.55934e-07 1.19897e-05 4.62768e-16)
(-2.61948e-07 1.26969e-05 7.62264e-16)
(-2.05544e-06 1.25164e-05 6.05317e-16)
(-4.2214e-06 1.27718e-05 -9.63451e-16)
(1.8126e-06 1.07172e-05 8.71184e-16)
(4.80121e-07 1.0936e-05 -2.2804e-15)
(-3.11255e-07 1.15806e-05 -1.95365e-15)
(-1.87108e-06 1.13479e-05 1.88924e-15)
(-3.77544e-06 1.1592e-05 4.57288e-15)
(1.61941e-06 9.76123e-06 -1.12014e-15)
(4.72736e-07 1.00932e-05 3.02928e-15)
(-3.55299e-07 1.0502e-05 9.01216e-17)
(-1.72942e-06 1.03128e-05 -2.19518e-15)
(-3.40364e-06 1.05479e-05 2.81492e-15)
(2.48501e-06 8.8061e-06 -2.12018e-15)
(1.29704e-06 8.8525e-06 3.54612e-16)
(7.33705e-07 9.68625e-06 1.34318e-15)
(-5.05791e-07 9.34395e-06 1.38529e-16)
(-1.52636e-06 9.39265e-06 -3.53598e-15)
(-2.9989e-06 9.60505e-06 -3.18207e-15)
(2.28294e-06 8.0688e-06 1.27129e-15)
(1.21624e-06 8.09433e-06 2.98484e-15)
(7.45763e-07 8.83031e-06 6.32693e-17)
(-4.7948e-07 8.47987e-06 -3.07457e-15)
(-1.37946e-06 8.54928e-06 9.15981e-16)
(-2.74221e-06 8.80808e-06 -2.43814e-15)
(2.16595e-06 7.33857e-06 -1.76698e-15)
(1.10824e-06 7.36978e-06 -2.28282e-15)
(5.96457e-07 8.00341e-06 1.03149e-15)
(-4.20364e-07 7.69161e-06 1.47179e-15)
(-1.27717e-06 7.77383e-06 -1.4304e-15)
(-2.42591e-06 8.07724e-06 2.62984e-16)
(1.88862e-06 6.62703e-06 7.03658e-16)
(1.02787e-06 6.66302e-06 -2.93924e-16)
(6.63663e-07 7.21402e-06 6.38972e-17)
(-4.06128e-07 6.97462e-06 -1.11179e-16)
(-1.18247e-06 7.06667e-06 1.74728e-15)
(-2.26962e-06 7.38053e-06 5.85365e-16)
(1.78714e-06 5.95823e-06 1.16528e-15)
(9.57012e-07 5.9911e-06 6.73154e-16)
(4.74061e-07 6.55271e-06 -2.22893e-15)
(-4.16525e-07 6.35204e-06 -1.42326e-15)
(-1.12471e-06 6.43297e-06 -1.08054e-15)
(-2.04322e-06 6.74776e-06 2.50072e-16)
(1.49867e-06 5.37087e-06 -1.37792e-15)
(7.62696e-07 5.49096e-06 -1.88535e-15)
(4.44745e-07 5.97276e-06 -1.11305e-15)
(-4.02368e-07 5.81879e-06 2.91326e-15)
(-1.03204e-06 5.86412e-06 3.96773e-16)
(-1.90288e-06 6.11561e-06 2.95015e-16)
(1.28344e-06 4.865e-06 -1.68284e-16)
(6.33449e-07 4.95893e-06 1.19804e-15)
(2.63986e-07 5.45212e-06 -6.80398e-16)
(-4.08389e-07 5.30788e-06 -5.54736e-16)
(-9.0838e-07 5.31608e-06 3.39658e-15)
(-1.66356e-06 5.55602e-06 -1.36974e-15)
(9.81937e-07 4.37502e-06 1.84824e-15)
(3.812e-07 4.51295e-06 1.39735e-15)
(1.98738e-07 4.91764e-06 -2.44651e-15)
(-3.02992e-07 4.76607e-06 7.58292e-16)
(-7.63088e-07 4.7841e-06 -9.80931e-16)
(-1.49887e-06 5.02146e-06 1.06873e-15)
(7.25262e-07 3.91817e-06 -1.24002e-15)
(3.08658e-07 4.0606e-06 7.98678e-16)
(1.56992e-07 4.32653e-06 1.74162e-15)
(-2.73885e-07 4.23845e-06 -2.73669e-15)
(-6.756e-07 4.30644e-06 1.41611e-15)
(-1.32715e-06 4.56719e-06 2.64389e-15)
(9.67857e-07 3.4259e-06 -4.96602e-16)
(4.79754e-07 3.48126e-06 4.3485e-16)
(3.64601e-07 3.84462e-06 3.70477e-16)
(3.55277e-08 3.75732e-06 -1.01377e-15)
(-2.44839e-07 3.83141e-06 1.37261e-16)
(-6.30117e-07 3.88922e-06 1.55232e-15)
(-1.26178e-06 4.21255e-06 5.71212e-17)
(7.3913e-07 3.1411e-06 1.46591e-15)
(3.47647e-07 3.17483e-06 1.99526e-15)
(3.31217e-07 3.49206e-06 -1.83373e-15)
(-1.90825e-08 3.42363e-06 -1.12616e-16)
(-2.8925e-07 3.49049e-06 -6.98137e-16)
(-6.50108e-07 3.58795e-06 -7.65335e-16)
(-1.16241e-06 3.87683e-06 2.45351e-15)
(6.21057e-07 2.86814e-06 -1.30465e-16)
(2.72598e-07 2.8802e-06 -1.01755e-15)
(1.79e-07 3.19796e-06 -1.21597e-15)
(-9.30485e-08 3.13343e-06 2.62866e-15)
(-3.36663e-07 3.21293e-06 1.13564e-15)
(-6.20751e-07 3.27623e-06 -3.14487e-15)
(-1.07221e-06 3.55128e-06 -2.31371e-15)
(4.45804e-07 2.6013e-06 6.42587e-16)
(1.38783e-07 2.61586e-06 -7.64172e-16)
(1.21353e-07 2.91648e-06 2.20354e-16)
(-1.6478e-07 2.8537e-06 5.32787e-16)
(-3.5469e-07 2.91731e-06 -1.09201e-15)
(-5.84798e-07 2.97222e-06 -2.18637e-15)
(-9.693e-07 3.22666e-06 2.5219e-15)
(3.71325e-07 2.38709e-06 2.81697e-15)
(5.73339e-08 2.36082e-06 5.83734e-17)
(-1.33156e-08 2.66587e-06 -1.85314e-15)
(-2.15489e-07 2.58101e-06 1.48385e-16)
(-3.59771e-07 2.62516e-06 1.29665e-15)
(-5.29309e-07 2.66583e-06 5.96327e-16)
(-8.51811e-07 2.90116e-06 -4.78346e-16)
(2.60124e-07 2.20629e-06 -3.40415e-16)
(-3.28352e-08 2.16779e-06 3.26187e-16)
(-3.79118e-08 2.41532e-06 -5.01151e-16)
(-2.30194e-07 2.30025e-06 -7.1907e-16)
(-3.24418e-07 2.32607e-06 4.86222e-16)
(-4.64213e-07 2.3573e-06 -1.13231e-15)
(-7.53253e-07 2.58024e-06 1.82911e-16)
(2.48076e-07 2.06591e-06 1.68646e-15)
(-2.69661e-08 1.98464e-06 8.0891e-16)
(-5.25445e-08 2.23172e-06 2.24122e-16)
(-1.96789e-07 2.08383e-06 6.99875e-16)
(-2.96795e-07 2.10283e-06 -5.75986e-17)
(-4.17397e-07 2.12416e-06 8.10117e-16)
(-6.70128e-07 2.32409e-06 -3.77383e-17)
(2.18178e-07 1.94357e-06 7.49272e-16)
(-2.48242e-08 1.88413e-06 1.82418e-15)
(-1.16449e-08 2.08918e-06 -5.75337e-16)
(-1.73716e-07 1.94209e-06 -1.08864e-15)
(-2.62751e-07 1.94535e-06 6.13589e-16)
(-3.86495e-07 1.98216e-06 4.7414e-16)
(-6.19462e-07 2.17246e-06 4.45048e-16)
(2.07897e-07 1.83142e-06 8.21054e-16)
(-7.97121e-09 1.76257e-06 -8.55038e-16)
(-1.25785e-08 1.95917e-06 -4.58445e-16)
(-1.40553e-07 1.82434e-06 7.71339e-16)
(-2.33823e-07 1.81617e-06 1.90994e-15)
(-3.48985e-07 1.85911e-06 -8.10401e-16)
(-5.6078e-07 2.04489e-06 -2.539e-15)
(1.72014e-07 1.70567e-06 -1.06435e-17)
(7.88968e-09 1.67599e-06 -5.17743e-16)
(1.09355e-08 1.78112e-06 1.24854e-17)
(-1.12441e-07 1.683e-06 7.25978e-16)
(-1.89583e-07 1.66676e-06 -1.38605e-16)
(-2.94574e-07 1.69865e-06 -4.51168e-16)
(-4.96197e-07 1.89292e-06 6.02239e-16)
(2.43662e-07 1.47796e-06 -1.4422e-15)
(1.01757e-07 1.44922e-06 -8.67093e-16)
(1.47974e-07 1.6251e-06 -5.64574e-17)
(-3.38253e-09 1.52428e-06 4.67229e-16)
(-6.77948e-08 1.51166e-06 4.40501e-16)
(-1.46652e-07 1.48591e-06 1.30018e-15)
(-2.37202e-07 1.51442e-06 -6.24635e-16)
(-4.2842e-07 1.70047e-06 -1.53134e-15)
(2.26596e-07 1.26126e-06 1.55501e-16)
(1.0781e-07 1.22209e-06 -3.97707e-17)
(1.16502e-07 1.39749e-06 -5.04325e-16)
(1.63075e-08 1.31737e-06 1.23246e-15)
(-4.15111e-08 1.31596e-06 3.81676e-16)
(-1.07729e-07 1.2967e-06 -1.26855e-15)
(-1.84509e-07 1.3251e-06 -6.36905e-16)
(-3.53112e-07 1.4886e-06 3.24235e-16)
(1.71435e-07 1.06223e-06 -9.35342e-16)
(7.59194e-08 1.04283e-06 4.77446e-18)
(1.17977e-07 1.19794e-06 3.80577e-16)
(1.70172e-08 1.13295e-06 -1.37287e-15)
(-2.64558e-08 1.13773e-06 2.70998e-15)
(-7.9048e-08 1.12515e-06 -3.04028e-16)
(-1.38315e-07 1.15502e-06 -1.15037e-15)
(-2.74375e-07 1.30434e-06 1.03809e-15)
(1.68675e-07 9.44016e-07 5.25165e-17)
(5.54252e-08 8.96174e-07 5.93262e-16)
(8.34538e-08 1.07267e-06 7.44866e-16)
(1.4293e-08 9.98624e-07 -1.08847e-15)
(-2.0166e-08 1.00798e-06 1.20605e-15)
(-6.09806e-08 9.98587e-07 -6.35081e-16)
(-1.04589e-07 1.029e-06 -1.4768e-15)
(-2.01227e-07 1.17564e-06 1.68978e-15)
(1.42933e-07 8.59711e-07 1.74299e-16)
(4.667e-08 8.18635e-07 6.63974e-16)
(8.45345e-08 9.94271e-07 1.31546e-15)
(6.77078e-09 9.24783e-07 -2.56969e-17)
(-2.01269e-08 9.35369e-07 -1.89747e-15)
(-5.17412e-08 9.28097e-07 5.56122e-16)
(-7.86129e-08 9.6127e-07 -5.48048e-16)
(-1.37376e-07 1.11708e-06 -3.61696e-16)
(1.27831e-07 8.00728e-07 -6.26371e-16)
(2.15526e-08 7.56173e-07 -9.79125e-16)
(3.76144e-08 9.33752e-07 3.07386e-16)
(-2.89244e-09 8.66484e-07 1.49009e-15)
(-2.19405e-08 8.75443e-07 2.82959e-16)
(-4.35852e-08 8.67241e-07 -5.88839e-16)
(-6.0184e-08 9.03055e-07 1.33251e-16)
(-9.65124e-08 1.06532e-06 8.44341e-16)
(8.72907e-08 7.62218e-07 1.59278e-15)
(1.82137e-08 7.3376e-07 4.65309e-16)
(4.41623e-08 9.09244e-07 -1.30971e-15)
(-4.23228e-09 8.40301e-07 1.39634e-16)
(-1.59662e-08 8.50306e-07 -9.35912e-16)
(-2.9347e-08 8.47557e-07 -3.36779e-16)
(-3.01155e-08 8.92563e-07 1.7406e-15)
(-4.82093e-08 1.02965e-06 -1.12693e-16)
(6.28908e-08 7.32613e-07 -1.05418e-15)
(-1.52247e-08 6.90809e-07 -4.73447e-16)
(-9.95601e-09 8.65612e-07 1.0052e-15)
(-1.7318e-08 7.85735e-07 -4.35872e-16)
(-2.1056e-08 7.9228e-07 -3.63243e-16)
(-2.25044e-08 7.86041e-07 1.22524e-15)
(-1.59654e-08 8.2818e-07 -8.84998e-17)
(-2.31646e-08 9.67971e-07 -8.54991e-16)
(4.05688e-08 8.19653e-07 -6.32218e-16)
(1.25382e-09 8.03102e-07 -1.25382e-15)
(-3.08167e-09 8.65514e-07 -6.62606e-16)
(-1.12067e-08 8.16836e-07 2.37662e-15)
(-9.72565e-09 8.1361e-07 -1.31034e-16)
(-3.72768e-09 8.10518e-07 -6.26945e-16)
(1.57797e-08 8.56637e-07 -8.63899e-16)
(6.11318e-08 1.00354e-06 -3.35963e-15)
(-0.0290974 -0.011801 -1.46527e-14)
(0.00549147 0.00327643 1.77522e-14)
(0.00304545 0.00354835 -9.39184e-14)
(0.00177713 0.00310543 1.65258e-14)
(0.000750534 0.00270996 3.686e-14)
(0.000555816 0.00237615 -1.78169e-14)
(0.000595719 0.00209633 -5.62092e-14)
(0.000423691 0.00166307 3.64426e-15)
(0.000353533 0.00161468 4.87593e-15)
(0.000297653 0.00141341 -2.55688e-14)
(0.000242125 0.00124079 -1.26923e-14)
(0.000196984 0.00108562 3.63806e-14)
(0.000158457 0.000948404 5.63704e-14)
(0.000125996 0.000827748 -3.54017e-14)
(9.85021e-05 0.000721468 2.21713e-14)
(7.55886e-05 0.000628959 9.8693e-15)
(5.63738e-05 0.000548053 -4.68483e-14)
(4.05803e-05 0.000478179 3.68869e-14)
(2.75393e-05 0.000417136 -5.08602e-14)
(1.70481e-05 0.000364666 3.0225e-14)
(8.51313e-06 0.000319349 -8.07054e-15)
(1.80583e-06 0.000280568 1.88468e-15)
(-3.50133e-06 0.000246803 1.0875e-14)
(-7.50954e-06 0.00021787 -9.95738e-15)
(-1.05852e-05 0.000192733 -2.99937e-15)
(-1.27741e-05 0.000171089 -4.26654e-15)
(-1.43409e-05 0.000152022 1.61463e-14)
(-1.52966e-05 0.00013539 -1.03338e-14)
(-1.587e-05 0.0001206 1.22514e-14)
(-1.60345e-05 0.000107584 2.20417e-15)
(-1.59902e-05 9.59434e-05 -1.40439e-14)
(-1.56833e-05 8.56524e-05 -1.23068e-14)
(-1.52787e-05 7.64239e-05 1.19067e-14)
(-1.47101e-05 6.82696e-05 8.64839e-15)
(-1.41269e-05 6.09405e-05 -2.95953e-15)
(-1.34386e-05 5.44638e-05 5.99333e-15)
(-1.27703e-05 4.8638e-05 -1.71106e-15)
(-1.20217e-05 4.35253e-05 -1.18977e-14)
(-1.13672e-05 3.88497e-05 3.52808e-15)
(-1.06127e-05 3.47373e-05 -2.02809e-16)
(-9.93292e-06 3.09899e-05 -7.94706e-16)
(-9.16988e-06 2.77067e-05 6.57844e-15)
(-8.50565e-06 2.47193e-05 -4.84522e-15)
(-7.76659e-06 2.21125e-05 -8.18253e-16)
(-7.14276e-06 1.97514e-05 7.70575e-16)
(-6.45447e-06 1.77064e-05 5.91778e-15)
(-5.88775e-06 1.58675e-05 -2.64768e-15)
(-5.26705e-06 1.42777e-05 5.59097e-15)
(-4.75867e-06 1.28483e-05 -1.04803e-15)
(-4.20891e-06 1.16022e-05 1.4838e-15)
(-3.7523e-06 1.0482e-05 1.41619e-15)
(-3.26473e-06 9.49712e-06 2.8897e-16)
(-2.86691e-06 8.68275e-06 1.53612e-15)
(-2.48891e-06 7.98674e-06 1.8666e-15)
(-2.17449e-06 7.3567e-06 -1.04594e-15)
(-1.91287e-06 6.77192e-06 -3.69644e-16)
(-1.73271e-06 6.14999e-06 -1.36936e-15)
(-1.54847e-06 5.57337e-06 1.99271e-15)
(-1.42487e-06 4.97532e-06 -3.96588e-15)
(-1.26749e-06 4.5156e-06 1.23544e-15)
(-1.17435e-06 4.10264e-06 -4.683e-15)
(-1.06018e-06 3.75471e-06 -2.02103e-15)
(-9.52049e-07 3.45163e-06 1.71065e-16)
(-8.49443e-07 3.1345e-06 3.04079e-15)
(-7.42947e-07 2.82034e-06 3.48985e-15)
(-6.34857e-07 2.5257e-06 -7.68483e-16)
(-5.5552e-07 2.2301e-06 -2.94978e-15)
(-5.15635e-07 1.98016e-06 -1.35038e-15)
(-4.9387e-07 1.8362e-06 1.87342e-15)
(-4.60468e-07 1.6954e-06 5.28607e-15)
(-4.32777e-07 1.55471e-06 -2.3936e-15)
(-4.0475e-07 1.40126e-06 2.02682e-15)
(-3.6137e-07 1.22847e-06 -1.70056e-15)
(-2.93487e-07 1.06586e-06 -7.02326e-16)
(-2.18499e-07 9.66123e-07 -8.05718e-16)
(-1.27198e-07 9.35071e-07 3.81722e-15)
(-1.02879e-07 8.65249e-07 -3.98555e-16)
(-8.23023e-08 7.60222e-07 2.29187e-16)
(-8.06203e-08 6.86956e-07 8.96856e-16)
(1.30917e-07 7.87331e-07 9.78968e-15)
(-0.0203194 -0.00047241 3.87855e-15)
(-0.00366835 0.000359353 -4.31421e-15)
(-0.00174451 0.000532763 1.90313e-14)
(-0.0011761 0.000818348 -3.98163e-15)
(-0.000946065 0.00111353 -6.10732e-15)
(-0.00093312 0.000642746 1.92079e-15)
(-0.000841919 0.00037049 1.03852e-14)
(-0.000702392 0.000687815 -6.26957e-16)
(-0.000620213 0.000643603 -7.38942e-16)
(-0.000544662 0.000603624 3.53053e-15)
(-0.000477035 0.000564782 3.86451e-15)
(-0.000416871 0.00052631 -7.55575e-15)
(-0.000363462 0.000488678 -1.0068e-14)
(-0.000315973 0.000451362 6.31443e-15)
(-0.00027419 0.000415286 -3.51212e-15)
(-0.000237355 0.000380191 -2.51106e-15)
(-0.000205263 0.000346692 7.90594e-15)
(-0.000177207 0.000314759 -6.1879e-15)
(-0.000153029 0.000284748 9.16809e-15)
(-0.000132046 0.000256751 -5.81931e-15)
(-0.000114087 0.000230937 1.02457e-15)
(-9.85453e-05 0.000207359 -1.89168e-16)
(-8.53164e-05 0.000185894 -1.44331e-15)
(-7.38891e-05 0.000166619 8.80392e-16)
(-6.41632e-05 0.000149232 8.80574e-16)
(-5.57448e-05 0.000133712 1.41203e-15)
(-4.85813e-05 0.000119774 -3.25467e-15)
(-4.23651e-05 0.00010732 2.13335e-15)
(-3.7074e-05 9.60776e-05 -2.63766e-15)
(-3.24727e-05 8.60062e-05 -1.36697e-16)
(-2.8556e-05 7.68981e-05 2.30037e-15)
(-2.51338e-05 6.87463e-05 2.41279e-15)
(-2.22161e-05 6.1365e-05 -2.59799e-15)
(-1.96543e-05 5.47895e-05 -1.28332e-15)
(-1.74589e-05 4.88339e-05 1.2967e-15)
(-1.55138e-05 4.35435e-05 -1.35364e-15)
(-1.38513e-05 3.87292e-05 1.47431e-16)
(-1.2309e-05 3.45629e-05 1.87521e-15)
(-1.09916e-05 3.07395e-05 -4.04034e-16)
(-9.80274e-06 2.7339e-05 4.42816e-16)
(-8.76035e-06 2.42446e-05 6.25546e-16)
(-7.79443e-06 2.15287e-05 -1.9269e-15)
(-6.94717e-06 1.90812e-05 9.36378e-16)
(-6.14769e-06 1.69459e-05 4.48741e-16)
(-5.45403e-06 1.50395e-05 -1.11699e-15)
(-4.79008e-06 1.33863e-05 -7.93065e-16)
(-4.22583e-06 1.19272e-05 8.67895e-17)
(-3.67359e-06 1.06557e-05 -2.06576e-16)
(-3.21373e-06 9.53153e-06 -3.61007e-16)
(-2.75337e-06 8.53427e-06 6.51159e-16)
(-2.38433e-06 7.64853e-06 -6.80031e-16)
(-1.99724e-06 6.89607e-06 1.20889e-15)
(-1.7148e-06 6.26046e-06 2.60172e-16)
(-1.35812e-06 5.75027e-06 -1.44142e-16)
(-1.11301e-06 5.29962e-06 4.27751e-16)
(-8.30452e-07 4.91244e-06 9.34446e-16)
(-6.7125e-07 4.48981e-06 2.08975e-16)
(-5.31466e-07 4.04658e-06 1.318e-16)
(-4.67988e-07 3.61989e-06 1.87783e-15)
(-4.40639e-07 3.21764e-06 -1.4144e-15)
(-3.77133e-07 2.90364e-06 -7.77813e-16)
(-3.16439e-07 2.62933e-06 -1.48485e-15)
(-2.57263e-07 2.37798e-06 -9.69567e-16)
(-1.8208e-07 2.13751e-06 -2.74757e-15)
(-1.20483e-07 1.8937e-06 -8.19281e-16)
(-7.19871e-08 1.66726e-06 -2.07358e-16)
(-4.15251e-08 1.46468e-06 6.6979e-16)
(-7.60899e-08 1.28242e-06 5.13568e-16)
(-1.02115e-07 1.13723e-06 -9.12844e-16)
(-1.11109e-07 1.01581e-06 -2.93811e-16)
(-1.13817e-07 8.97793e-07 8.62371e-16)
(-1.22786e-07 7.67139e-07 -3.37766e-16)
(-1.22645e-07 6.38408e-07 -5.07709e-16)
(-1.19366e-07 5.32429e-07 7.98411e-16)
(-1.06744e-07 4.61702e-07 5.88638e-17)
(-5.25153e-08 4.39641e-07 -5.37256e-16)
(-6.68792e-08 3.69316e-07 1.16849e-15)
(-9.16477e-08 2.8756e-07 -2.37686e-16)
(-1.21156e-07 2.09362e-07 -1.5325e-16)
(9.11068e-08 3.34358e-07 4.13602e-16)
(-0.00168749 -0.00103474 -1.25418e-16)
(-0.000700219 -0.00092709 -7.03002e-17)
(-0.000698833 -0.000849322 -8.54032e-17)
(-0.000678563 -0.000705675 1.09608e-16)
(-0.000667958 -0.000576073 -2.41341e-16)
(-0.000691603 -0.000519786 -1.69509e-16)
(-0.00062981 -0.000497434 1.61945e-17)
(-0.000597063 -0.000403008 -2.08807e-16)
(-0.000561151 -0.000316255 -2.3666e-16)
(-0.000522845 -0.000253606 1.07822e-16)
(-0.000485377 -0.000195647 -2.45492e-16)
(-0.000448522 -0.000144275 -2.05175e-16)
(-0.000412709 -9.91998e-05 1.78261e-16)
(-0.000378169 -6.05126e-05 3.57747e-16)
(-0.000345124 -2.76202e-05 -1.90616e-16)
(-0.000313723 -4.14058e-07 1.89431e-16)
(-0.00028411 2.19136e-05 9.73219e-17)
(-0.00025635 3.94794e-05 -1.28017e-17)
(-0.000230519 5.30568e-05 -3.79873e-17)
(-0.000206611 6.30653e-05 1.52374e-16)
(-0.000184628 7.01509e-05 7.16398e-16)
(-0.000164506 7.47504e-05 -3.43109e-17)
(-0.000146214 7.72044e-05 2.03551e-16)
(-0.00012965 7.80475e-05 8.66943e-17)
(-0.000114736 7.75312e-05 -1.12868e-16)
(-0.000101349 7.59897e-05 -1.89417e-16)
(-8.94087e-05 7.35765e-05 -4.93161e-16)
(-7.87764e-05 7.05516e-05 -8.84392e-18)
(-6.93659e-05 6.7042e-05 1.30339e-18)
(-6.10433e-05 6.32264e-05 1.85337e-16)
(-5.37263e-05 5.92028e-05 2.37433e-16)
(-4.72908e-05 5.5117e-05 -1.10044e-15)
(-4.16511e-05 5.10303e-05 -1.24156e-15)
(-3.67082e-05 4.70426e-05 -6.14912e-16)
(-3.23781e-05 4.31738e-05 2.37204e-16)
(-2.85895e-05 3.95083e-05 6.74068e-16)
(-2.52733e-05 3.59885e-05 1.85399e-18)
(-2.23713e-05 3.27282e-05 1.51627e-16)
(-1.97891e-05 2.96646e-05 4.91896e-16)
(-1.75275e-05 2.68573e-05 5.03398e-16)
(-1.55063e-05 2.4227e-05 4.43897e-17)
(-1.3739e-05 2.18645e-05 -2.36037e-16)
(-1.21441e-05 1.96796e-05 -1.62165e-16)
(-1.07507e-05 1.77431e-05 -7.96145e-16)
(-9.48555e-06 1.59795e-05 -1.40169e-15)
(-8.38343e-06 1.44313e-05 -6.92566e-16)
(-7.38249e-06 1.3038e-05 -2.66298e-16)
(-6.50967e-06 1.18126e-05 9.38565e-16)
(-5.72059e-06 1.07125e-05 1.38104e-15)
(-5.03002e-06 9.73165e-06 -3.26995e-17)
(-4.41921e-06 8.84219e-06 4.27576e-16)
(-3.8819e-06 8.05389e-06 -1.54517e-15)
(-3.39077e-06 7.379e-06 -1.20156e-15)
(-2.93497e-06 6.80911e-06 1.63415e-16)
(-2.48045e-06 6.35014e-06 -8.58537e-16)
(-2.09175e-06 5.92762e-06 -2.68481e-16)
(-1.71805e-06 5.53038e-06 -3.01898e-16)
(-1.45555e-06 5.0943e-06 6.05262e-16)
(-1.25946e-06 4.64371e-06 2.97677e-15)
(-1.12555e-06 4.20277e-06 5.485e-16)
(-1.01741e-06 3.79937e-06 3.30923e-15)
(-9.05609e-07 3.47164e-06 1.40988e-16)
(-7.80654e-07 3.17891e-06 3.43953e-16)
(-6.65877e-07 2.88767e-06 -1.47835e-15)
(-5.5872e-07 2.60387e-06 -2.43398e-16)
(-4.7086e-07 2.33556e-06 8.26617e-16)
(-4.05632e-07 2.09141e-06 -3.29699e-16)
(-3.79978e-07 1.88977e-06 6.27223e-16)
(-3.7505e-07 1.73064e-06 -2.15463e-16)
(-3.63056e-07 1.58285e-06 -6.75791e-16)
(-3.38526e-07 1.43808e-06 -9.31611e-16)
(-3.02029e-07 1.27032e-06 4.86598e-16)
(-2.63983e-07 1.08482e-06 1.62725e-15)
(-2.4034e-07 9.18648e-07 -1.57745e-15)
(-2.20069e-07 7.91205e-07 5.89786e-17)
(-1.26202e-07 7.51378e-07 -1.02051e-16)
(-1.38591e-07 6.97798e-07 -2.62294e-15)
(-1.58167e-07 6.61256e-07 2.06788e-15)
(-1.49768e-07 5.97007e-07 -2.08183e-17)
(3.46532e-08 7.17739e-07 -3.54632e-15)
(-0.000525237 -0.00028 2.70513e-17)
(-0.000298436 -0.000246166 -3.34757e-17)
(-0.000227833 -0.000246464 2.89633e-18)
(-0.000151934 -0.000199517 -6.76625e-17)
(-0.000157882 -0.00018719 2.68817e-17)
(-0.000166007 -0.000198261 1.93498e-17)
(-0.000175928 -0.000194947 -1.76142e-17)
(-0.000188939 -0.000196387 -1.54374e-17)
(-0.000196953 -0.000187138 -1.57896e-16)
(-0.000202328 -0.000178927 -7.8499e-18)
(-0.00020592 -0.000168368 1.3725e-16)
(-0.000207563 -0.000156101 -1.08978e-17)
(-0.000207284 -0.000142247 5.45837e-17)
(-0.000205214 -0.000127765 -1.59493e-17)
(-0.000201434 -0.000112611 -3.62449e-19)
(-0.000196147 -9.75297e-05 -1.82608e-16)
(-0.00018951 -8.24283e-05 -3.47e-16)
(-0.000181759 -6.79438e-05 -3.55224e-16)
(-0.00017307 -5.41448e-05 1.6675e-16)
(-0.000163697 -4.12731e-05 -2.76225e-17)
(-0.000153801 -2.94208e-05 5.20255e-16)
(-0.000143608 -1.85376e-05 -1.31798e-16)
(-0.000133259 -8.86783e-06 -3.68049e-16)
(-0.000122977 -3.05564e-07 2.92327e-16)
(-0.000112848 6.99299e-06 -5.09573e-17)
(-0.00010304 1.31848e-05 5.96139e-18)
(-9.36093e-05 1.82067e-05 -1.22718e-16)
(-8.46963e-05 2.21867e-05 -2.48838e-17)
(-7.63055e-05 2.50956e-05 4.52332e-17)
(-6.85232e-05 2.71058e-05 9.61547e-17)
(-6.13282e-05 2.82645e-05 4.51164e-16)
(-5.47582e-05 2.87514e-05 5.01556e-17)
(-4.87672e-05 2.86425e-05 3.2147e-16)
(-4.33566e-05 2.81022e-05 -2.00877e-16)
(-3.84725e-05 2.71798e-05 8.136e-18)
(-3.40957e-05 2.6025e-05 7.7893e-17)
(-3.01827e-05 2.46373e-05 -5.12883e-16)
(-2.66911e-05 2.31753e-05 -1.94809e-16)
(-2.35635e-05 2.16188e-05 4.20336e-16)
(-2.07886e-05 2.00806e-05 -7.0653e-17)
(-1.83177e-05 1.85177e-05 -1.78462e-16)
(-1.61363e-05 1.70445e-05 4.92077e-16)
(-1.41935e-05 1.56082e-05 6.30315e-16)
(-1.24866e-05 1.43031e-05 7.65247e-16)
(-1.09666e-05 1.30686e-05 4.0874e-16)
(-9.63877e-06 1.19706e-05 1.88719e-16)
(-8.45692e-06 1.09534e-05 9.26122e-16)
(-7.4271e-06 1.00523e-05 -1.86337e-16)
(-6.5131e-06 9.22224e-06 -1.83818e-16)
(-5.72091e-06 8.47402e-06 -1.60865e-15)
(-5.02529e-06 7.78453e-06 2.98976e-16)
(-4.42729e-06 7.14031e-06 1.84172e-15)
(-3.89032e-06 6.58602e-06 -1.68113e-15)
(-3.39851e-06 6.08721e-06 -2.64767e-16)
(-2.9342e-06 5.68553e-06 2.50059e-16)
(-2.47677e-06 5.3538e-06 -7.89675e-16)
(-2.0642e-06 5.03234e-06 2.91539e-16)
(-1.69719e-06 4.72563e-06 -1.46664e-15)
(-1.43671e-06 4.37206e-06 -1.69825e-15)
(-1.24896e-06 3.99499e-06 -1.53519e-16)
(-1.09624e-06 3.63668e-06 -1.69807e-15)
(-9.53931e-07 3.31472e-06 4.94808e-17)
(-8.23655e-07 3.03215e-06 -3.89779e-16)
(-6.93823e-07 2.76657e-06 3.97927e-15)
(-5.8386e-07 2.50014e-06 6.34464e-16)
(-5.03412e-07 2.24993e-06 -8.29912e-17)
(-4.33037e-07 2.02643e-06 5.68449e-16)
(-3.95231e-07 1.84272e-06 -3.03857e-16)
(-3.74666e-07 1.69311e-06 7.13127e-16)
(-3.53281e-07 1.54766e-06 2.04475e-15)
(-3.27025e-07 1.39624e-06 1.64684e-15)
(-2.89751e-07 1.22674e-06 1.23137e-15)
(-2.54691e-07 1.04924e-06 4.16477e-16)
(-2.40985e-07 8.90878e-07 4.68263e-17)
(-2.31764e-07 7.47181e-07 -2.15141e-18)
(-1.35129e-07 7.16363e-07 5.31754e-16)
(-1.4373e-07 6.98556e-07 -4.11481e-15)
(-1.55022e-07 6.74496e-07 -3.44172e-15)
(-1.2903e-07 5.93321e-07 5.97682e-17)
(-4.17173e-08 6.81387e-07 5.79027e-16)
(-0.000204297 -0.000162434 9.00402e-17)
(0.000203362 -7.88955e-05 4.69753e-17)
(-0.000319414 -0.000144134 -6.59889e-18)
(-3.89562e-05 -0.000183461 -3.38458e-17)
(-7.84559e-05 -0.000132267 -3.38911e-16)
(-8.9448e-05 -0.000134613 -9.01097e-17)
(-9.2697e-05 -0.000136071 1.41105e-16)
(-9.51806e-05 -0.000127658 -1.12344e-17)
(-9.7668e-05 -0.000124817 6.37685e-17)
(-9.99111e-05 -0.000123015 -8.90397e-17)
(-0.000102189 -0.000120266 -3.53526e-16)