/*--------------------------------*- C++ -*----------------------------------*\
| =========                 |                                                 |
| \\      /  F ield         | OpenFOAM: The Open Source CFD Toolbox           |
|  \\    /   O peration     | Version:  2306                                  |
|   \\  /    A nd           | Website:  www.openfoam.com                      |
|    \\/     M anipulation  |                                                 |
\*---------------------------------------------------------------------------*/
FoamFile
{
    version     2.0;
    format      ascii;
    arch        "LSB;label=32;scalar=64";
    class       volScalarField;
    location    "75";
    object      div(phi);
}
// * * * * * * * * * * * * * * * * * * * * * * * * * * * * * * * * * * * * * //

dimensions      [0 0 -1 0 0 0 0];

internalField   nonuniform List<scalar> 
1340
(
0.00025415
9.95591e-05
9.28748e-05
3.46695e-05
0.000200918
0.000415375
0.000141666
0.000141342
8.24781e-05
0.000198162
2.40143e-05
0.000236389
0.000180595
0.000112544
0.000125822
1.61387e-05
0.000141268
-7.48496e-05
0.000233903
9.27338e-05
0.000104889
5.12447e-05
0.000114092
-7.08753e-06
8.03492e-05
-4.69173e-05
0.000147377
0.000132153
6.9348e-05
7.64983e-05
-3.44779e-06
6.9051e-05
-5.11039e-06
5.88227e-05
-1.43827e-05
0.000158843
5.51584e-05
6.94846e-05
2.99685e-05
7.01022e-05
-1.44617e-05
4.49934e-05
-3.04525e-06
3.60251e-05
-1.75355e-05
9.01626e-05
8.81986e-05
4.68738e-05
4.68357e-05
-1.15687e-05
4.32399e-05
-1.1086e-05
3.78822e-05
-5.58483e-06
3.62986e-06
8.50083e-05
3.15829e-05
4.64252e-05
1.71763e-05
4.63889e-05
-1.48099e-05
3.01356e-05
-1.04542e-05
2.52331e-05
6.55618e-07
-1.53991e-05
5.91053e-05
6.75058e-05
3.11995e-05
3.10005e-05
-1.34065e-05
2.80434e-05
-1.43388e-05
2.69469e-05
-8.96911e-06
5.11396e-06
-1.06656e-06
7.10104e-05
2.16699e-05
3.26218e-05
1.23202e-05
3.19221e-05
-1.62856e-05
1.87769e-05
-1.39816e-05
1.99308e-05
3.91617e-07
2.43785e-06
-1.90868e-05
3.84008e-05
4.5756e-05
2.25644e-05
2.07653e-05
-1.30383e-05
1.79647e-05
-1.52005e-05
1.719e-05
-7.20313e-06
8.08776e-06
-7.58336e-08
5.42159e-06
3.72208e-05
1.24019e-05
2.27747e-05
7.85027e-06
2.33464e-05
-1.47018e-05
1.01249e-05
-1.23712e-05
1.49841e-05
3.69462e-06
6.34857e-06
-7.41976e-06
2.55812e-05
3.49841e-05
1.54017e-05
1.52694e-05
-1.15153e-05
1.15651e-05
-1.44028e-05
9.66452e-06
-4.20293e-06
9.92775e-06
3.56397e-06
7.98807e-06
-6.72938e-06
3.11613e-05
8.97216e-06
1.5932e-05
6.34671e-06
1.77735e-05
-1.35428e-05
4.64891e-06
-1.08652e-05
1.12095e-05
5.57136e-06
8.76646e-06
1.04519e-06
-1.81292e-06
1.76968e-05
2.12019e-05
1.14552e-05
1.14963e-05
-9.32624e-06
7.97482e-06
-1.27844e-05
4.94097e-06
-1.69541e-06
1.04429e-05
6.6384e-06
5.8469e-06
3.06923e-06
-8.66345e-06
1.1903e-05
4.90718e-06
1.03909e-05
4.57718e-06
1.48954e-05
-1.10671e-05
1.68158e-06
-8.73996e-06
8.66123e-06
7.31515e-06
9.89504e-06
4.27277e-06
-1.97979e-07
-2.55621e-06
1.32602e-05
1.33969e-05
7.88543e-06
9.87656e-06
-7.18465e-06
6.20105e-06
-1.14248e-05
2.37328e-06
-4.76394e-08
1.03305e-05
8.81512e-06
7.10073e-06
1.21961e-06
-3.96341e-06
5.41461e-06
3.7347e-06
7.99881e-06
5.55307e-06
1.32848e-05
-9.39208e-06
4.09925e-07
-7.51545e-06
7.10947e-06
8.24635e-06
1.05357e-05
5.65784e-06
7.04374e-08
-2.19117e-07
-2.25944e-05
8.99305e-06
5.32523e-06
6.57014e-06
9.22493e-06
-4.61976e-06
5.58676e-06
-9.73843e-06
1.24124e-06
1.13233e-06
1.04606e-05
9.76357e-06
6.41507e-06
3.81706e-06
-1.17942e-05
5.70456e-06
-2.88188e-06
7.81246e-07
5.76171e-06
5.6757e-06
1.26753e-05
-7.28271e-06
1.19354e-07
-6.24203e-06
6.50227e-06
8.71408e-06
1.02837e-05
6.54089e-06
1.0127e-06
1.66862e-06
-3.19055e-05
4.66047e-06
7.22424e-07
4.85168e-06
8.72635e-06
-3.14229e-06
5.38272e-06
-8.79564e-06
1.0191e-06
1.56576e-06
1.04671e-05
9.55147e-06
7.37325e-06
3.60441e-06
4.4625e-07
-1.41476e-05
-3.1532e-05
-3.57513e-06
3.58721e-06
5.64461e-06
6.20164e-06
1.17134e-05
-6.3525e-06
3.34039e-07
-5.65648e-06
6.43286e-06
8.51274e-06
1.00514e-05
7.37929e-06
8.11721e-06
-8.41832e-06
2.66696e-06
-4.48644e-05
1.09882e-06
6.46626e-06
8.4822e-06
-1.95169e-06
5.201e-06
-7.67911e-06
1.34175e-06
1.99823e-06
1.00991e-05
9.92304e-06
8.90977e-06
6.98409e-06
4.75498e-07
-1.20675e-05
4.02335e-06
-3.8379e-05
2.98655e-06
6.72199e-06
6.36038e-06
1.09781e-05
-5.20901e-06
7.68342e-07
-4.97063e-06
6.47461e-06
8.38473e-06
9.91974e-06
8.45343e-06
8.39926e-06
6.62886e-07
-9.3376e-06
-3.55322e-06
7.08591e-06
4.49779e-06
6.785e-06
8.61136e-06
-1.24106e-06
5.11115e-06
-7.26968e-06
1.88326e-06
1.61499e-06
9.58585e-06
9.28389e-06
1.12123e-05
7.76879e-06
1.52226e-06
-1.39899e-05
1.35631e-05
-2.178e-05
1.46148e-06
6.33053e-06
6.25699e-06
1.00344e-05
-4.82515e-06
1.3018e-06
-4.90196e-06
6.57535e-06
7.50529e-06
1.00923e-05
8.52362e-06
9.54357e-06
-9.83621e-06
4.73876e-06
-9.87582e-06
2.17649e-05
-2.25795e-05
2.26513e-06
6.69404e-06
8.17823e-06
-5.79203e-07
5.02665e-06
-6.52715e-06
2.44501e-06
1.42652e-06
9.05174e-06
8.95763e-06
1.21082e-05
2.31197e-06
1.30162e-06
-1.36076e-05
8.51122e-06
3.01038e-06
1.47395e-05
1.06863e-06
6.48078e-06
5.99132e-06
9.34573e-06
-4.07809e-06
1.79592e-06
-4.54539e-06
6.58584e-06
6.88455e-06
9.66239e-06
7.85656e-06
4.24591e-06
-6.25095e-06
-1.65896e-06
9.72458e-07
2.01682e-05
-1.97594e-05
2.53739e-06
6.33771e-06
7.94995e-06
-2.48356e-07
5.00754e-06
-6.29923e-06
2.92593e-06
7.26674e-07
8.34231e-06
8.31551e-06
1.06744e-05
3.87033e-06
-5.42457e-06
-2.56571e-06
7.01732e-06
4.04594e-06
2.11578e-05
-2.27642e-05
1.01718e-06
5.96879e-06
5.64676e-06
8.6129e-06
-3.85309e-06
2.25002e-06
-4.6197e-06
6.52257e-06
6.05728e-06
9.0334e-06
6.84124e-06
3.43293e-06
-3.12541e-06
-2.12344e-06
5.22705e-06
1.07164e-05
4.9797e-06
5.07742e-06
1.21982e-06
5.95488e-06
7.42693e-06
1.26396e-07
4.96207e-06
-5.66305e-06
3.27492e-06
5.50225e-07
7.71487e-06
7.70586e-06
1.0537e-05
4.26781e-06
-3.42945e-06
-1.25202e-06
8.43959e-06
5.09961e-06
2.20536e-05
-1.63595e-05
1.11997e-06
5.74395e-06
5.27515e-06
8.05816e-06
-3.26309e-06
2.58525e-06
-4.29965e-06
6.37749e-06
5.5226e-06
8.41185e-06
6.26353e-06
4.17873e-06
-9.04813e-07
3.97797e-08
5.81536e-06
1.69395e-05
5.71492e-06
1.64308e-05
-1.24047e-05
1.20623e-06
5.49158e-06
7.0332e-06
2.41819e-07
4.92812e-06
-5.46629e-06
3.50724e-06
-7.00143e-08
7.05718e-06
6.81604e-06
1.04526e-05
4.90755e-06
-1.72548e-06
4.08036e-07
7.89691e-06
9.5692e-06
1.57844e-05
3.16772e-06
1.05132e-05
1.20539e-06
5.24294e-06
4.86469e-06
7.47318e-06
-3.10303e-06
2.85409e-06
-4.36882e-06
6.1379e-06
4.73649e-06
7.81747e-06
5.52652e-06
4.1925e-06
8.59561e-08
3.18723e-07
3.93632e-06
1.65352e-05
3.93737e-06
2.34801e-05
-1.99467e-05
5.87279e-07
5.05482e-06
6.4806e-06
4.45842e-07
4.82925e-06
-4.88319e-06
3.60338e-06
-2.00204e-07
6.45775e-06
6.06811e-06
9.90217e-06
4.72938e-06
-1.93816e-06
-3.81957e-07
5.77639e-06
5.95775e-06
2.17013e-05
1.44398e-06
1.75373e-05
-1.24184e-05
1.22058e-06
4.85211e-06
4.47964e-06
6.96601e-06
-2.61237e-06
3.00125e-06
-4.04147e-06
5.80658e-06
4.2031e-06
7.09949e-06
4.56076e-06
3.40938e-06
-1.96174e-07
-7.01309e-07
1.91789e-06
1.32388e-05
6.18615e-06
1.5881e-05
2.26636e-06
8.79091e-06
4.85559e-07
4.58206e-06
6.01466e-06
4.50174e-07
4.71438e-06
-4.68133e-06
3.62188e-06
-7.22783e-07
5.75351e-06
5.07512e-06
8.86569e-06
4.06609e-06
-2.45772e-06
-1.10573e-06
4.39997e-06
2.45222e-06
2.14053e-05
9.05167e-07
2.01043e-05
3.19617e-06
1.16931e-06
4.37312e-06
4.05345e-06
6.42747e-06
-2.4822e-06
3.11837e-06
-4.05496e-06
5.41916e-06
3.42602e-06
6.20454e-06
3.47399e-06
2.50483e-06
-5.55924e-07
-1.19461e-06
3.61765e-07
1.208e-05
2.16995e-06
2.15318e-05
8.3159e-06
1.66286e-05
-8.8981e-07
2.01753e-07
4.13223e-06
5.46534e-06
5.6251e-07
4.55939e-06
-4.1217e-06
3.57313e-06
-7.79765e-07
5.07893e-06
4.29142e-06
7.7125e-06
3.25378e-06
-2.69638e-06
-1.49831e-06
3.95085e-06
1.95262e-07
1.98555e-05
3.32791e-06
1.86245e-05
1.5966e-07
1.30282e-05
1.04843e-06
3.90538e-06
3.67177e-06
5.94051e-06
-2.03354e-06
3.16694e-06
-3.66488e-06
4.99208e-06
2.94511e-06
5.29671e-06
2.47494e-06
1.77545e-06
-7.62688e-07
-1.21876e-06
-8.16296e-07
1.1403e-05
9.91823e-07
2.06618e-05
2.95888e-06
7.37824e-06
3.06727e-06
2.99083e-08
3.66776e-06
4.98894e-06
5.47282e-07
4.40565e-06
-3.85978e-06
3.4935e-06
-1.13401e-06
4.36968e-06
3.40776e-06
6.55995e-06
2.54708e-06
-2.61685e-06
-1.59965e-06
3.82276e-06
2.71647e-07
1.60319e-05
2.17386e-06
9.63802e-07
4.92903e-06
-7.35883e-06
9.02461e-07
3.46717e-06
3.26295e-06
5.44533e-06
-1.87938e-06
3.20404e-06
-3.56524e-06
4.5462e-06
2.29407e-06
4.43422e-06
1.64056e-06
1.2345e-06
-8.18866e-07
-6.88653e-07
-6.01827e-07
9.19332e-06
1.47357e-06
1.29827e-06
1.28736e-06
-2.40471e-06
6.89764e-06
-2.33819e-06
-8.75538e-08
3.24335e-06
4.48493e-06
6.34742e-07
4.22122e-06
-3.29396e-06
3.35978e-06
-1.06971e-06
3.76119e-06
2.81782e-06
5.59429e-06
2.04036e-06
-2.07749e-06
-1.21894e-06
3.788e-06
2.27521e-06
2.1872e-06
6.24107e-07
6.16934e-06
1.11415e-06
1.26423e-05
-4.11225e-07
7.36817e-07
3.02514e-06
2.92401e-06
4.98664e-06
-1.4438e-06
3.17161e-06
-3.09667e-06
4.08608e-06
1.96573e-06
3.73043e-06
1.0642e-06
1.04721e-06
-2.73453e-07
-4.70221e-07
1.37864e-06
6.23851e-07
3.21609e-06
6.52708e-06
2.00238e-06
1.63403e-05
2.21007e-06
1.21236e-05
-2.48468e-07
2.82802e-06
4.04189e-06
6.37247e-07
4.02042e-06
-2.96485e-06
3.18864e-06
-1.22205e-06
3.18496e-06
2.1945e-06
4.85455e-06
1.97325e-06
-1.72593e-06
9.74183e-08
6.36131e-07
2.68178e-06
5.77611e-06
1.20193e-06
2.02068e-05
1.26334e-06
2.042e-05
-7.64621e-06
5.9208e-07
2.67035e-06
2.57429e-06
4.51856e-06
-1.26673e-06
3.09852e-06
-2.89172e-06
3.62718e-06
1.50321e-06
3.16686e-06
6.95588e-07
1.04858e-06
3.29492e-07
3.33277e-07
7.18548e-07
3.12433e-06
1.62613e-06
1.25316e-05
2.03086e-07
2.20435e-05
9.11784e-07
1.63765e-05
-7.66686e-06
-2.55817e-07
2.46821e-06
3.59044e-06
7.06656e-07
3.76422e-06
-2.42805e-06
2.96455e-06
-1.05784e-06
2.72685e-06
1.82308e-06
4.27924e-06
1.93109e-06
-1.19632e-06
5.96187e-07
8.47084e-07
2.72676e-06
6.53947e-06
5.41035e-07
1.87219e-05
-2.82002e-07
1.45244e-05
1.41789e-06
6.72931e-06
4.47243e-07
2.30529e-06
2.30165e-06
4.05566e-06
-8.74522e-07
2.95046e-06
-2.40474e-06
3.187e-06
1.31375e-06
2.73563e-06
4.88651e-07
9.03131e-07
4.59832e-07
1.69798e-07
3.03872e-07
2.19164e-06
1.68179e-07
1.09339e-05
-3.14442e-06
1.93974e-05
-5.34885e-07
1.03746e-05
-3.96321e-06
-3.53207e-07
2.12432e-06
3.17941e-06
7.22425e-07
3.48363e-06
-2.08723e-06
2.73675e-06
-1.06815e-06
2.31397e-06
1.41904e-06
3.72354e-06
1.73245e-06
-1.21068e-06
2.36352e-07
2.10032e-07
1.58556e-06
5.6102e-06
-1.7835e-06
1.68721e-05
-3.27251e-06
1.33844e-05
-4.63298e-07
1.00507e-05
3.18694e-07
2.01667e-06
2.02052e-06
3.59351e-06
-6.95561e-07
2.79e-06
-2.14183e-06
2.7963e-06
1.00577e-06
2.35403e-06
2.83906e-07
7.50327e-07
5.62622e-07
3.50832e-07
4.9746e-07
2.3645e-06
-1.7597e-07
1.05154e-05
-4.57015e-06
1.82902e-05
-1.80911e-06
1.54849e-05
-5.88427e-06
-3.2103e-07
1.8233e-06
2.76902e-06
7.69953e-07
3.17649e-06
-1.60391e-06
2.50511e-06
-8.37559e-07
1.97957e-06
1.15502e-06
3.29097e-06
1.70151e-06
-7.24551e-07
6.94742e-07
9.43257e-07
2.12359e-06
5.97013e-06
-1.83217e-06
1.5858e-05
-4.49063e-06
1.78647e-05
-9.18731e-07
1.18804e-05
-7.13656e-06
1.85996e-07
1.69987e-06
1.78783e-06
3.14731e-06
-3.85805e-07
2.59123e-06
-1.665e-06
2.42709e-06
8.92156e-07
2.03252e-06
1.58634e-07
6.79357e-07
7.97444e-07
3.70399e-07
3.94641e-07
1.79987e-06
-1.11055e-06
8.84724e-06
-5.71831e-06
1.6657e-05
-3.50406e-06
1.10071e-05
-1.10645e-06
4.61606e-06
-3.96388e-07
1.51519e-06
2.35048e-06
7.20942e-07
2.86885e-06
-1.29492e-06
2.27422e-06
-8.13943e-07
1.65332e-06
8.77083e-07
2.86867e-06
1.53547e-06
-7.46308e-07
2.95027e-07
2.81484e-07
7.75622e-07
4.60061e-06
-3.79381e-06
1.36932e-05
-6.43849e-06
1.54044e-05
-2.81834e-06
6.07589e-06
-5.85535e-06
4.97169e-08
1.3894e-06
1.51875e-06
2.73285e-06
-2.84515e-07
2.41392e-06
-1.49108e-06
2.1383e-06
6.20579e-07
1.71498e-06
-1.09353e-08
4.64531e-07
8.22301e-07
2.39745e-07
2.77387e-07
1.46812e-06
-1.65014e-06
7.69054e-06
-6.61131e-06
1.46855e-05
-4.8073e-06
8.45626e-06
-3.23012e-06
3.29632e-06
-4.06899e-07
1.23139e-06
1.93083e-06
6.15001e-07
2.61261e-06
-1.00843e-06
2.13396e-06
-7.26241e-07
1.41444e-06
6.06469e-07
2.3595e-06
1.52263e-06
-5.4503e-07
5.37091e-07
6.28814e-07
9.87425e-07
4.30959e-06
-3.57223e-06
1.19267e-05
-6.20003e-06
1.25259e-05
-3.55091e-06
3.46472e-06
-5.96776e-06
-9.6621e-08
1.06596e-06
1.22291e-06
2.34866e-06
-2.87481e-07
2.26724e-06
-1.22165e-06
1.88787e-06
5.21007e-07
1.38461e-06
-1.06817e-07
1.65521e-07
9.1157e-07
3.62495e-07
2.44092e-07
8.54645e-07
-2.13503e-06
5.82489e-06
-6.42014e-06
1.10006e-05
-4.83893e-06
2.63716e-06
-4.20803e-06
-7.83965e-07
-4.41933e-07
9.35704e-07
1.44764e-06
2.84561e-07
2.28193e-06
-1.01888e-06
1.88968e-06
-6.97826e-07
1.05606e-06
2.51208e-07
1.8156e-06
8.36503e-07
2.5749e-07
-1.84985e-07
5.34869e-07
-3.06375e-07
2.9688e-06
-4.10357e-06
7.389e-06
-6.41245e-06
2.76473e-06
-5.7036e-06
3.2031e-07
-2.8299e-06
4.95793e-07
-1.74398e-07
7.40298e-07
9.20824e-07
1.79838e-06
-5.3882e-07
2.02025e-06
-1.26411e-06
1.39449e-06
3.23166e-07
1.05793e-06
-7.60033e-07
8.55282e-07
-3.06763e-07
1.54843e-06
-8.13266e-07
8.97701e-07
-2.52568e-06
1.63204e-06
-7.27873e-06
1.15385e-06
-7.40901e-06
4.53414e-06
-3.95594e-06
5.78345e-06
-2.45107e-06
-4.24771e-07
7.43028e-07
1.16975e-06
7.98662e-08
2.15664e-06
-1.05867e-06
1.44729e-06
-3.85121e-07
5.15365e-07
-1.95829e-07
1.70984e-06
3.55466e-08
1.26647e-06
-6.46808e-07
7.86053e-07
-2.2304e-07
6.7118e-07
-2.68412e-06
5.77764e-07
-5.55252e-06
4.32159e-06
-6.09633e-06
9.38618e-06
-2.19154e-06
6.22067e-06
-3.77589e-07
5.34692e-07
8.45577e-07
1.57873e-06
-5.67393e-07
1.72528e-06
-7.86167e-07
6.39405e-07
5.55943e-08
8.41279e-07
-9.03732e-07
9.3922e-07
3.93579e-09
7.84439e-07
-3.04108e-07
7.022e-07
-1.75858e-07
9.28631e-07
-1.31741e-06
2.29118e-06
-5.47328e-06
8.78505e-06
-4.0518e-06
6.88051e-06
-1.99015e-06
-4.9478e-07
3.81698e-07
7.40748e-07
-1.56389e-07
1.68786e-06
-8.18606e-07
8.96486e-07
-2.64261e-07
1.61076e-07
-5.5679e-07
1.3033e-06
4.61414e-07
1.32078e-07
-4.84586e-07
1.41497e-08
-6.16436e-07
3.8712e-07
-6.84505e-07
1.06986e-06
-4.53131e-06
6.92669e-06
-6.38324e-06
9.64909e-06
-1.08712e-06
6.34108e-06
-6.39506e-07
1.84673e-07
5.44337e-07
1.1162e-06
-6.28277e-07
1.32992e-06
-4.99237e-07
4.67002e-08
-1.27005e-07
7.62054e-07
-2.45973e-07
2.14146e-08
6.77474e-07
-6.65495e-07
-4.10318e-07
-5.87651e-07
-1.10066e-06
1.17704e-06
-2.6419e-06
6.41025e-06
-6.16341e-06
1.14285e-05
-2.57195e-06
6.63652e-06
-2.11135e-06
-8.20081e-07
7.0405e-08
2.91473e-07
-2.05932e-07
1.2588e-06
-5.35266e-07
4.19458e-07
1.61098e-08
-2.75626e-07
-5.66569e-07
5.79886e-07
1.18849e-06
-4.6118e-07
-3.13457e-08
-6.20344e-07
-9.78313e-07
-3.39434e-07
-1.57237e-06
2.7308e-06
-5.76317e-06
9.07422e-06
-5.85822e-06
8.33178e-06
-1.03003e-06
6.22654e-06
-7.2242e-07
-2.88664e-07
4.6872e-07
5.28526e-07
-3.37203e-07
1.02011e-06
6.56564e-08
-4.98808e-07
8.64069e-08
4.27571e-07
2.7852e-07
-3.31734e-08
1.13505e-06
-2.97424e-07
-5.25922e-07
-7.31264e-07
-1.01623e-06
-5.72562e-07
-4.72061e-06
4.23648e-06
-7.93545e-06
8.92919e-06
-2.08325e-06
5.32696e-06
-2.41694e-06
-1.09622e-06
3.11441e-08
-1.17157e-09
9.75649e-08
8.1993e-07
9.71225e-09
2.0618e-07
5.54169e-07
-7.76926e-07
-6.31941e-07
1.77091e-08
1.25031e-06
-1.35266e-07
3.33758e-07
-9.46595e-07
-7.23711e-07
-2.32561e-07
-1.2214e-06
2.60061e-06
-5.32547e-06
6.31157e-06
-5.30088e-06
4.30823e-06
-2.97817e-06
4.0241e-06
-8.22491e-07
-5.29362e-07
5.36966e-07
1.59323e-08
1.65934e-09
8.7096e-07
7.47962e-07
-8.08966e-07
5.1116e-07
1.13434e-07
7.19892e-07
5.27733e-07
8.61336e-07
-4.03061e-07
-5.3565e-07
-1.15748e-06
-5.98165e-07
-1.3728e-06
-3.63721e-06
3.808e-07
-7.99598e-06
2.10829e-06
-5.65618e-06
2.36071e-06
-2.72455e-06
4.25489e-06
-1.39392e-06
3.28084e-07
-3.2537e-07
2.72758e-07
4.92881e-07
5.35912e-07
2.23766e-08
1.00226e-06
-2.09743e-06
-1.08584e-06
-1.88501e-06
1.61804e-06
1.69485e-06
5.27677e-07
2.54986e-07
-3.79775e-07
-3.06194e-07
-8.91821e-07
-1.25535e-06
-5.76915e-06
-9.88465e-07
-7.76578e-06
3.31316e-06
-2.87438e-06
3.44639e-06
-1.82162e-06
1.02405e-06
-1.43541e-06
1.66487e-06
-1.19421e-06
1.52202e-07
6.63441e-07
1.28675e-06
-1.27502e-06
3.22894e-07
-2.50098e-06
2.55288e-06
2.87419e-06
3.08333e-06
3.41525e-06
1.80096e-06
2.01013e-06
6.88427e-07
1.035e-06
-7.92626e-07
6.24539e-07
-2.5216e-06
2.79065e-06
-4.66052e-06
1.89889e-06
-3.76048e-06
2.80514e-06
-3.3067e-06
1.93026e-06
-1.39141e-06
-1.2695e-07
-2.67552e-07
1.06211e-06
8.53091e-07
1.85173e-06
3.72844e-07
2.39365e-06
2.7322e-06
5.08508e-06
8.26955e-06
3.96914e-06
6.38573e-06
3.14924e-06
4.47705e-06
2.22491e-06
2.72764e-06
1.90488e-06
1.64828e-06
-1.6831e-06
-6.45009e-07
-2.54081e-06
5.00559e-07
4.89781e-07
1.99891e-06
-4.75479e-07
-2.92028e-07
-6.79586e-07
1.4532e-07
1.19683e-06
2.24274e-06
1.20103e-06
1.41591e-06
1.72158e-06
4.15342e-06
8.37753e-06
3.80944e-06
9.11832e-06
2.35162e-06
8.99878e-06
2.08977e-06
7.1358e-06
2.51046e-06
5.78829e-06
5.73083e-06
1.47163e-06
3.24247e-06
2.04378e-06
2.93382e-06
5.09794e-06
-5.45288e-07
-1.28884e-07
-1.94391e-07
-4.89528e-08
3.06006e-07
5.62945e-07
3.78502e-07
2.66313e-07
2.86079e-07
9.86634e-07
2.26139e-06
1.77492e-06
3.73331e-06
1.44815e-06
5.72151e-06
1.426e-06
7.46059e-06
1.89092e-06
8.54011e-06
7.68253e-06
7.41277e-06
1.38989e-05
6.31717e-06
1.04323e-05
5.35324e-06
1.35695e-05
)
;

boundaryField
{
    inlet
    {
        type            extrapolatedCalculated;
        value           nonuniform List<scalar> 
26
(
-5.45288e-07
-1.28884e-07
-1.94391e-07
-4.89528e-08
3.06006e-07
5.62945e-07
3.78502e-07
2.66313e-07
2.86079e-07
9.86634e-07
2.26139e-06
1.77492e-06
3.73331e-06
1.44815e-06
5.72151e-06
1.426e-06
7.46059e-06
1.89092e-06
8.54011e-06
7.68253e-06
7.41277e-06
1.38989e-05
6.31717e-06
1.04323e-05
5.35324e-06
1.35695e-05
)
;
    }
    outlet
    {
        type            extrapolatedCalculated;
        value           nonuniform List<scalar> 0();
    }
    walls
    {
        type            extrapolatedCalculated;
        value           nonuniform List<scalar> 0();
    }
    frontAndBack
    {
        type            empty;
    }
    procBoundary0to1
    {
        type            processor;
        value           nonuniform List<scalar> 
94
(
-0.000108498
0.000201189
0.000201189
0.000209506
0.000209506
0.000141132
0.000141132
8.67379e-05
8.67379e-05
3.46932e-05
3.46932e-05
-4.41288e-06
-3.16284e-07
-3.16284e-07
-6.99112e-06
-6.34823e-08
-6.34823e-08
2.5913e-07
-1.33378e-05
7.26238e-06
7.26238e-06
-7.09187e-07
1.67965e-06
1.67965e-06
-3.31896e-06
-6.95338e-06
-6.1059e-06
-6.1059e-06
-4.98092e-06
-5.95219e-05
2.84805e-06
2.84805e-06
-4.43159e-05
2.52796e-05
2.52796e-05
1.4916e-05
-1.36195e-05
3.96788e-05
3.96788e-05
2.39815e-05
-1.03005e-05
4.07259e-05
4.07259e-05
1.60866e-05
-7.93506e-06
2.85303e-05
2.85303e-05
1.89389e-05
-1.14405e-05
2.88742e-05
2.88742e-05
1.5417e-05
1.62923e-05
2.33913e-05
2.33913e-05
1.77099e-05
5.696e-06
6.51959e-06
1.23352e-05
1.23352e-05
6.43877e-06
1.14412e-05
1.24143e-06
2.33982e-05
2.33982e-05
1.28155e-05
2.24153e-06
9.41644e-06
2.17484e-07
1.63117e-05
1.63117e-05
8.68637e-06
-1.66491e-06
2.94722e-06
-3.82409e-06
3.34989e-07
-3.81214e-06
-3.81214e-06
-2.71661e-06
4.15163e-06
-2.74487e-07
5.53837e-06
6.84673e-07
5.55779e-06
7.38189e-07
5.44725e-06
-2.1392e-06
-2.1392e-06
-2.25278e-06
2.23801e-06
-2.58185e-06
4.03813e-07
7.94685e-06
1.82032e-05
)
;
    }
    procBoundary0to4
    {
        type            processor;
        value           nonuniform List<scalar> 
72
(
0.000368739
0.000278126
0.000233299
0.000252626
9.15387e-05
0.000151134
4.24981e-05
0.000121107
1.5252e-05
7.14084e-05
5.01848e-06
5.9223e-05
-2.78052e-06
3.44446e-05
-6.05019e-06
2.91357e-05
-1.06632e-05
1.78648e-05
-1.11198e-05
1.21015e-05
-7.52968e-06
5.754e-06
5.11087e-06
5.11087e-06
-3.23356e-07
-2.07869e-06
-1.29346e-06
-2.67717e-06
-2.59729e-06
-3.79411e-06
-3.21375e-06
-3.12672e-06
-3.74305e-06
-3.07652e-06
-3.75864e-06
-2.51474e-06
-3.81846e-06
-2.27396e-06
-3.57272e-06
-1.98242e-06
-3.4628e-06
-1.75612e-06
-3.15745e-06
-1.63339e-06
-2.96984e-06
-1.4381e-06
-2.65521e-06
-1.37995e-06
-2.41183e-06
-1.22672e-06
-2.11096e-06
-1.19321e-06
-1.8737e-06
-1.07982e-06
-1.6675e-06
-1.04344e-06
-1.49345e-06
-9.07792e-07
-1.14883e-06
-1.16214e-06
-9.22683e-07
-1.33642e-06
-8.14806e-07
-1.39799e-06
-9.09753e-07
-1.52603e-06
-9.99186e-07
-1.06416e-06
-1.5996e-06
1.26749e-06
-2.20645e-06
1.05578e-07
)
;
    }
    procBoundary0to5
    {
        type            processor;
        value           nonuniform List<scalar> 4(0.000164811 8.1089e-05 -5.46846e-05 0.000160467);
    }
}


// ************************************************************************* //
