/*--------------------------------*- C++ -*----------------------------------*\
| =========                 |                                                 |
| \\      /  F ield         | OpenFOAM: The Open Source CFD Toolbox           |
|  \\    /   O peration     | Version:  2306                                  |
|   \\  /    A nd           | Website:  www.openfoam.com                      |
|    \\/     M anipulation  |                                                 |
\*---------------------------------------------------------------------------*/
FoamFile
{
    version     2.0;
    format      ascii;
    arch        "LSB;label=32;scalar=64";
    class       volScalarField;
    location    "75";
    object      magR;
}
// * * * * * * * * * * * * * * * * * * * * * * * * * * * * * * * * * * * * * //

dimensions      [0 2 -2 0 0 0 0];

internalField   nonuniform List<scalar> 
1340
(
0.000514256
0.000508663
0.000502929
0.000495683
0.0004849
0.000435272
0.00043021
0.000425157
0.000419077
0.000410309
0.000401062
0.000370814
0.00036626
0.000361757
0.000356665
0.000349502
0.000342079
0.000333658
0.00031763
0.00031357
0.00030956
0.000305269
0.000299397
0.000293352
0.000286576
0.000278938
0.00027338
0.000269776
0.000266231
0.000262591
0.000257752
0.000252776
0.00024726
0.000241128
0.000234591
0.00023629
0.000233108
0.000229992
0.000226893
0.000222869
0.000218733
0.000214201
0.000209237
0.000204034
0.000198665
0.000204998
0.000202215
0.000199476
0.000196831
0.000193457
0.000189992
0.000186233
0.000182183
0.000178004
0.000173721
0.000178452
0.000176034
0.00017363
0.000171351
0.000168506
0.000165581
0.000162441
0.000159111
0.000155728
0.000152311
0.000148853
0.000155821
0.000153718
0.00015161
0.000149629
0.000147213
0.000144735
0.000142092
0.000139339
0.000136578
0.000133831
0.000131059
0.000136432
0.000134594
0.000132742
0.000131008
0.000128948
0.000126835
0.0001246
0.00012231
0.000120048
0.00011782
0.000115605
0.000113389
0.000119738
0.000118121
0.000116489
0.000114966
0.000113198
0.000111388
0.000109494
0.000107581
0.000105715
0.000103898
0.000102117
0.000100344
0.000105299
0.000103865
0.000102422
0.000101083
9.95557e-05
9.80004e-05
9.63916e-05
9.47876e-05
9.32427e-05
9.17565e-05
9.03201e-05
8.88857e-05
9.27559e-05
9.1479e-05
9.01957e-05
8.90182e-05
8.7694e-05
8.63553e-05
8.49851e-05
8.36359e-05
8.23514e-05
8.11301e-05
7.99625e-05
7.88204e-05
7.76778e-05
8.18253e-05
8.06812e-05
7.95407e-05
7.85065e-05
7.73524e-05
7.6194e-05
7.5024e-05
7.38824e-05
7.28116e-05
7.18047e-05
7.08528e-05
6.99346e-05
6.90106e-05
7.2273e-05
7.12456e-05
7.02375e-05
6.93278e-05
6.83177e-05
6.73103e-05
6.63055e-05
6.53346e-05
6.44348e-05
6.35996e-05
6.28202e-05
6.20794e-05
6.13412e-05
6.06001e-05
6.39097e-05
6.29888e-05
6.21011e-05
6.13005e-05
6.04121e-05
5.95308e-05
5.86606e-05
5.783e-05
5.70697e-05
5.63713e-05
5.57295e-05
5.51265e-05
5.4533e-05
5.39329e-05
5.65772e-05
5.57563e-05
5.49765e-05
5.42704e-05
5.34859e-05
5.27098e-05
5.19507e-05
5.12339e-05
5.05844e-05
4.99956e-05
4.9462e-05
4.89686e-05
4.84891e-05
4.79964e-05
5.01445e-05
4.94138e-05
4.87299e-05
4.81055e-05
4.74098e-05
4.67223e-05
4.60546e-05
4.54307e-05
4.48712e-05
4.43692e-05
4.39199e-05
4.35115e-05
4.31191e-05
4.27239e-05
4.23151e-05
4.44972e-05
4.38441e-05
4.32428e-05
4.26894e-05
4.20711e-05
4.14592e-05
4.08692e-05
4.03208e-05
3.98338e-05
3.94006e-05
3.90172e-05
3.86748e-05
3.83487e-05
3.80259e-05
3.76906e-05
3.95283e-05
3.89435e-05
3.84127e-05
3.79215e-05
3.73706e-05
3.68247e-05
3.63013e-05
3.58163e-05
3.53885e-05
3.50102e-05
3.46792e-05
3.43877e-05
3.41133e-05
3.38452e-05
3.35634e-05
3.51464e-05
3.46233e-05
3.41511e-05
3.37145e-05
3.32232e-05
3.27365e-05
3.22706e-05
3.18398e-05
3.14612e-05
3.11279e-05
3.08381e-05
3.05859e-05
3.03529e-05
3.01261e-05
2.98952e-05
2.96432e-05
3.12749e-05
3.08054e-05
3.03825e-05
2.99946e-05
2.95572e-05
2.91227e-05
2.87074e-05
2.83239e-05
2.79871e-05
2.76909e-05
2.74347e-05
2.72145e-05
2.70117e-05
2.68176e-05
2.66231e-05
2.64105e-05
2.74242e-05
2.70443e-05
2.66991e-05
2.63101e-05
2.59226e-05
2.55522e-05
2.52101e-05
2.49095e-05
2.46448e-05
2.44161e-05
2.42212e-05
2.40436e-05
2.38748e-05
2.37079e-05
2.35293e-05
2.33315e-05
2.44247e-05
2.4083e-05
2.37754e-05
2.34295e-05
2.30843e-05
2.27539e-05
2.24482e-05
2.21795e-05
2.1942e-05
2.17368e-05
2.15626e-05
2.1405e-05
2.12562e-05
2.11111e-05
2.09582e-05
2.0788e-05
2.17604e-05
2.14529e-05
2.11787e-05
2.08711e-05
2.05637e-05
2.02689e-05
1.99959e-05
1.97549e-05
1.9541e-05
1.9356e-05
1.91991e-05
1.9058e-05
1.8926e-05
1.87983e-05
1.8666e-05
1.85165e-05
1.9392e-05
1.91154e-05
1.8871e-05
1.85974e-05
1.83232e-05
1.80602e-05
1.78161e-05
1.75995e-05
1.74067e-05
1.7239e-05
1.7097e-05
1.69692e-05
1.68508e-05
1.67382e-05
1.66221e-05
1.64949e-05
1.63501e-05
1.72861e-05
1.70381e-05
1.682e-05
1.65762e-05
1.63315e-05
1.60964e-05
1.58776e-05
1.56829e-05
1.55083e-05
1.53559e-05
1.52263e-05
1.51104e-05
1.50033e-05
1.49026e-05
1.48e-05
1.4689e-05
1.4563e-05
1.54142e-05
1.51927e-05
1.4998e-05
1.47804e-05
1.45613e-05
1.43505e-05
1.4154e-05
1.39783e-05
1.38199e-05
1.36807e-05
1.3562e-05
1.34558e-05
1.3358e-05
1.32677e-05
1.31766e-05
1.30788e-05
1.29662e-05
1.3751e-05
1.35541e-05
1.33801e-05
1.31855e-05
1.29888e-05
1.27992e-05
1.26219e-05
1.24629e-05
1.23186e-05
1.21908e-05
1.20818e-05
1.19839e-05
1.18943e-05
1.18122e-05
1.17305e-05
1.16433e-05
1.15465e-05
1.14326e-05
1.22734e-05
1.20987e-05
1.19433e-05
1.17691e-05
1.15924e-05
1.14212e-05
1.12609e-05
1.11164e-05
1.09843e-05
1.08667e-05
1.07658e-05
1.06751e-05
1.05925e-05
1.05174e-05
1.04434e-05
1.03656e-05
1.02797e-05
1.01792e-05
1.096e-05
1.08051e-05
1.06662e-05
1.05106e-05
1.03518e-05
1.01974e-05
1.00521e-05
9.92033e-06
9.79904e-06
9.69045e-06
9.59674e-06
9.51244e-06
9.43563e-06
9.36645e-06
9.29885e-06
9.22869e-06
9.15258e-06
9.06187e-06
9.79087e-06
9.65291e-06
9.5293e-06
9.39075e-06
9.24859e-06
9.10964e-06
8.97809e-06
8.85793e-06
8.7464e-06
8.64574e-06
8.55846e-06
8.47986e-06
8.40846e-06
8.34438e-06
8.28262e-06
8.21932e-06
8.15073e-06
8.07154e-06
7.97723e-06
8.74833e-06
8.62502e-06
8.51521e-06
8.39256e-06
8.266e-06
8.14146e-06
8.02289e-06
7.9136e-06
7.81123e-06
7.7179e-06
7.63659e-06
7.56321e-06
7.49659e-06
7.43731e-06
7.3806e-06
7.32299e-06
7.26137e-06
7.19076e-06
7.10626e-06
7.817e-06
7.70691e-06
7.60956e-06
7.5016e-06
7.3895e-06
7.27855e-06
7.17231e-06
7.07337e-06
6.97961e-06
6.89339e-06
6.8177e-06
6.74932e-06
6.68729e-06
6.63239e-06
6.5804e-06
6.52805e-06
6.47264e-06
6.40944e-06
6.33249e-06
6.98441e-06
6.8866e-06
6.80044e-06
6.70579e-06
6.60691e-06
6.5086e-06
6.41394e-06
6.32491e-06
6.23957e-06
6.16017e-06
6.0899e-06
6.02627e-06
5.96866e-06
5.91813e-06
5.87068e-06
5.82337e-06
5.77388e-06
5.71708e-06
5.64986e-06
5.56929e-06
6.24018e-06
6.15372e-06
6.07787e-06
5.99501e-06
5.90805e-06
5.82133e-06
5.73749e-06
5.65785e-06
5.58043e-06
5.50754e-06
5.44265e-06
5.38364e-06
5.33041e-06
5.28401e-06
5.24099e-06
5.19858e-06
5.15445e-06
5.10413e-06
5.04403e-06
4.97222e-06
5.57532e-06
5.4993e-06
5.43283e-06
5.36051e-06
5.28427e-06
5.208e-06
5.13404e-06
5.06304e-06
4.99307e-06
4.92648e-06
4.86675e-06
4.8123e-06
4.76321e-06
4.72093e-06
4.68215e-06
4.64442e-06
4.60562e-06
4.56107e-06
4.50818e-06
4.44368e-06
4.9815e-06
4.91498e-06
4.85711e-06
4.79433e-06
4.72762e-06
4.66084e-06
4.59586e-06
4.53277e-06
4.46974e-06
4.40904e-06
4.3542e-06
4.30413e-06
4.25923e-06
4.22084e-06
4.18619e-06
4.15296e-06
4.11906e-06
4.0806e-06
4.0341e-06
3.97722e-06
3.90835e-06
4.45108e-06
4.39312e-06
4.34313e-06
4.28901e-06
4.23103e-06
4.17288e-06
4.11608e-06
4.06017e-06
4.00347e-06
3.94829e-06
3.89816e-06
3.85235e-06
3.81133e-06
3.77673e-06
3.74591e-06
3.7169e-06
3.68791e-06
3.65469e-06
3.61389e-06
3.56378e-06
3.503e-06
3.97708e-06
3.92673e-06
3.88402e-06
3.83787e-06
3.78788e-06
3.73769e-06
3.68841e-06
3.63907e-06
3.58822e-06
3.53823e-06
3.49254e-06
3.45076e-06
3.41358e-06
3.38249e-06
3.35528e-06
3.3302e-06
3.30534e-06
3.27708e-06
3.24174e-06
3.19804e-06
3.14431e-06
3.55322e-06
3.5097e-06
3.4737e-06
3.43481e-06
3.39217e-06
3.3494e-06
3.30709e-06
3.2638e-06
3.21841e-06
3.17335e-06
3.13203e-06
3.09419e-06
3.06056e-06
3.0328e-06
3.00887e-06
2.98718e-06
2.96637e-06
2.94206e-06
2.91162e-06
2.87415e-06
2.8274e-06
3.17397e-06
3.13661e-06
3.10676e-06
3.07443e-06
3.03856e-06
3.00275e-06
2.96687e-06
2.92923e-06
2.88902e-06
2.84874e-06
2.81167e-06
2.77769e-06
2.7476e-06
2.72289e-06
2.70187e-06
2.68334e-06
2.66519e-06
2.64435e-06
2.61897e-06
2.58719e-06
2.54759e-06
2.49733e-06
2.83453e-06
2.80274e-06
2.7784e-06
2.75198e-06
2.72236e-06
2.693e-06
2.66309e-06
2.63067e-06
2.59543e-06
2.55986e-06
2.52707e-06
2.49697e-06
2.47024e-06
2.44847e-06
2.43016e-06
2.41368e-06
2.39798e-06
2.38083e-06
2.35964e-06
2.33289e-06
2.29883e-06
2.25459e-06
2.53068e-06
2.50382e-06
2.48447e-06
2.46334e-06
2.43938e-06
2.41601e-06
2.39155e-06
2.36399e-06
2.33354e-06
2.30262e-06
2.27407e-06
2.2478e-06
2.22442e-06
2.20544e-06
2.18923e-06
2.17484e-06
2.16174e-06
2.1473e-06
2.12951e-06
2.10667e-06
2.07689e-06
2.03761e-06
2.25865e-06
2.23617e-06
2.22129e-06
2.20479e-06
2.18601e-06
2.16812e-06
2.14858e-06
2.12549e-06
2.09964e-06
2.07332e-06
2.04896e-06
2.02638e-06
2.00613e-06
1.98964e-06
1.97557e-06
1.96329e-06
1.95206e-06
1.93983e-06
1.92458e-06
1.90438e-06
1.87796e-06
1.84318e-06
2.01502e-06
1.99642e-06
1.98553e-06
1.97309e-06
1.95902e-06
1.94614e-06
1.93095e-06
1.91196e-06
1.89058e-06
1.86867e-06
1.84823e-06
1.82904e-06
1.8117e-06
1.79748e-06
1.78534e-06
1.77465e-06
1.76504e-06
1.75448e-06
1.74092e-06
1.72302e-06
1.69946e-06
1.66889e-06
1.63201e-06
1.79671e-06
1.78158e-06
1.77423e-06
1.76533e-06
1.7556e-06
1.74727e-06
1.73585e-06
1.72063e-06
1.70352e-06
1.68574e-06
1.66882e-06
1.65256e-06
1.63757e-06
1.62523e-06
1.61466e-06
1.60541e-06
1.59703e-06
1.58768e-06
1.5757e-06
1.5596e-06
1.53857e-06
1.51124e-06
1.47849e-06
1.60106e-06
1.589e-06
1.58484e-06
1.57901e-06
1.57327e-06
1.56901e-06
1.56083e-06
1.54912e-06
1.53611e-06
1.52201e-06
1.5079e-06
1.49384e-06
1.48065e-06
1.46971e-06
1.46036e-06
1.45221e-06
1.44494e-06
1.4368e-06
1.4261e-06
1.41183e-06
1.39306e-06
1.3686e-06
1.33939e-06
1.42575e-06
1.41643e-06
1.4151e-06
1.41191e-06
1.40989e-06
1.4092e-06
1.40373e-06
1.39534e-06
1.38623e-06
1.37517e-06
1.36306e-06
1.35043e-06
1.33834e-06
1.32832e-06
1.31991e-06
1.31283e-06
1.30663e-06
1.29969e-06
1.29055e-06
1.27801e-06
1.26136e-06
1.23986e-06
1.21413e-06
1.2686e-06
1.26178e-06
1.26298e-06
1.26209e-06
1.26354e-06
1.26588e-06
1.26261e-06
1.25746e-06
1.25199e-06
1.24316e-06
1.23214e-06
1.22024e-06
1.20886e-06
1.19954e-06
1.19197e-06
1.18584e-06
1.18077e-06
1.17519e-06
1.16759e-06
1.15703e-06
1.14293e-06
1.12434e-06
1.10188e-06
1.12769e-06
1.12317e-06
1.12664e-06
1.1278e-06
1.13253e-06
1.13732e-06
1.13582e-06
1.13386e-06
1.1316e-06
1.12407e-06
1.1134e-06
1.10194e-06
1.09117e-06
1.08256e-06
1.07584e-06
1.07076e-06
1.06685e-06
1.06263e-06
1.0568e-06
1.04835e-06
1.03673e-06
1.02101e-06
1.00212e-06
9.84076e-07
1.00137e-06
9.9897e-07
1.0045e-06
1.00751e-06
1.01533e-06
1.02194e-06
1.0219e-06
1.02316e-06
1.02352e-06
1.01621e-06
1.00545e-06
9.94608e-07
9.84842e-07
9.77212e-07
9.71469e-07
9.67341e-07
9.64455e-07
9.61479e-07
9.57125e-07
9.50647e-07
9.41374e-07
9.28584e-07
9.12999e-07
8.98168e-07
8.88282e-07
8.87871e-07
8.95179e-07
8.99793e-07
9.10506e-07
9.18254e-07
9.1955e-07
9.24133e-07
9.26374e-07
9.18317e-07
9.07512e-07
8.97952e-07
8.89738e-07
8.83351e-07
8.78537e-07
8.75152e-07
8.72888e-07
8.70615e-07
8.67339e-07
8.62249e-07
8.54913e-07
8.4465e-07
8.32075e-07
8.20214e-07
7.87036e-07
7.88406e-07
7.97162e-07
8.0323e-07
8.16579e-07
8.248e-07
8.2747e-07
8.35329e-07
8.38853e-07
8.29556e-07
8.19265e-07
8.11825e-07
8.0563e-07
8.0046e-07
7.96225e-07
7.92975e-07
7.90624e-07
7.88336e-07
7.85255e-07
7.80916e-07
7.74837e-07
7.66452e-07
7.56442e-07
7.47295e-07
6.96233e-07
6.99289e-07
7.09249e-07
7.16694e-07
7.32442e-07
7.40542e-07
7.44698e-07
7.55184e-07
7.59396e-07
7.4913e-07
7.4044e-07
7.35725e-07
7.31379e-07
7.26926e-07
7.22662e-07
7.18892e-07
7.15712e-07
7.1256e-07
7.09e-07
7.04579e-07
6.99081e-07
6.92024e-07
6.83997e-07
6.77131e-07
6.14823e-07
6.19422e-07
6.30362e-07
6.39231e-07
6.57156e-07
6.64855e-07
6.7084e-07
6.83051e-07
6.87252e-07
6.76139e-07
6.69769e-07
6.67692e-07
6.64409e-07
6.59911e-07
6.55143e-07
6.50527e-07
6.46199e-07
6.41895e-07
6.37283e-07
6.32371e-07
6.26875e-07
6.20559e-07
6.14206e-07
6.09447e-07
5.4191e-07
5.47789e-07
5.59361e-07
5.69689e-07
5.89438e-07
5.96797e-07
6.05168e-07
6.19519e-07
6.24167e-07
6.10193e-07
6.05085e-07
6.05084e-07
6.01924e-07
5.96729e-07
5.9139e-07
5.86191e-07
5.81064e-07
5.75656e-07
5.70103e-07
5.64321e-07
5.58441e-07
5.52742e-07
5.47679e-07
5.44657e-07
5.43924e-07
4.77501e-07
4.84217e-07
4.95609e-07
5.07107e-07
5.27637e-07
5.34408e-07
5.44678e-07
5.62143e-07
5.72303e-07
5.52261e-07
5.45332e-07
5.46984e-07
5.43985e-07
5.38082e-07
5.32376e-07
5.27006e-07
5.21401e-07
5.15314e-07
5.08713e-07
5.01929e-07
4.9565e-07
4.89948e-07
4.85405e-07
4.83063e-07
4.82838e-07
4.23954e-07
4.30903e-07
4.41271e-07
4.53234e-07
4.72553e-07
4.77476e-07
4.86408e-07
5.08012e-07
5.25303e-07
4.9933e-07
4.90418e-07
4.93882e-07
4.91678e-07
4.85662e-07
4.79965e-07
4.74788e-07
4.69314e-07
4.63021e-07
4.55958e-07
4.48757e-07
4.41928e-07
4.35779e-07
4.30754e-07
4.27681e-07
4.26786e-07
3.82126e-07
3.88767e-07
3.97761e-07
4.09146e-07
4.25525e-07
4.27335e-07
4.33742e-07
4.53556e-07
4.74459e-07
4.48329e-07
4.40564e-07
4.45658e-07
4.45119e-07
4.40326e-07
4.35544e-07
4.31371e-07
4.26956e-07
4.21637e-07
4.15398e-07
4.08653e-07
4.0197e-07
3.9567e-07
3.90015e-07
3.86044e-07
3.84342e-07
3.45458e-07
3.51592e-07
3.59054e-07
3.69657e-07
3.82802e-07
3.82021e-07
3.8735e-07
4.01681e-07
4.22494e-07
4.01279e-07
3.9604e-07
4.01765e-07
4.02753e-07
3.99469e-07
3.95816e-07
3.92742e-07
3.89613e-07
3.85686e-07
3.80717e-07
3.75082e-07
3.69187e-07
3.63289e-07
3.57797e-07
3.53712e-07
3.51762e-07
3.0894e-07
3.14542e-07
3.2061e-07
3.30796e-07
3.40684e-07
3.39024e-07
3.44108e-07
3.53403e-07
3.74652e-07
3.59157e-07
3.55761e-07
3.61041e-07
3.626e-07
3.60231e-07
3.57212e-07
3.54754e-07
3.52472e-07
3.49602e-07
3.45912e-07
3.41454e-07
3.36503e-07
3.31372e-07
3.26385e-07
3.22423e-07
3.20246e-07
2.739e-07
2.78808e-07
2.8362e-07
2.93479e-07
3.00077e-07
2.99196e-07
3.0375e-07
3.08984e-07
3.31326e-07
3.21424e-07
3.19639e-07
3.24307e-07
3.26115e-07
3.24325e-07
3.21535e-07
3.19202e-07
3.17296e-07
3.15264e-07
3.1278e-07
3.0966e-07
3.05996e-07
3.01938e-07
2.97779e-07
2.9416e-07
2.91751e-07
2.4037e-07
2.44403e-07
2.4813e-07
2.57576e-07
2.6103e-07
2.62797e-07
2.6577e-07
2.68995e-07
2.93578e-07
2.88602e-07
2.87852e-07
2.91859e-07
2.94081e-07
2.92928e-07
2.90194e-07
2.87284e-07
2.84659e-07
2.82282e-07
2.80067e-07
2.77832e-07
2.75337e-07
2.72575e-07
2.69392e-07
2.66126e-07
2.63318e-07
2.08858e-07
2.11797e-07
2.14478e-07
2.23013e-07
2.2366e-07
2.29706e-07
2.29422e-07
2.34005e-07
2.62298e-07
2.61454e-07
2.61154e-07
2.63826e-07
2.65435e-07
2.64623e-07
2.62652e-07
2.59889e-07
2.56356e-07
2.5234e-07
2.48444e-07
2.45021e-07
2.42223e-07
2.39706e-07
2.37e-07
2.33686e-07
2.29783e-07
1.80007e-07
1.81673e-07
1.83145e-07
1.8977e-07
1.87862e-07
1.98477e-07
1.92517e-07
2.03827e-07
2.37745e-07
2.39815e-07
2.40776e-07
2.41747e-07
2.39712e-07
2.351e-07
2.31117e-07
2.28394e-07
2.25843e-07
2.22307e-07
2.17603e-07
2.12497e-07
2.07614e-07
2.03343e-07
1.99646e-07
1.95575e-07
1.90672e-07
1.85232e-07
1.53529e-07
1.53661e-07
1.53657e-07
1.57437e-07
1.5366e-07
1.67476e-07
1.53521e-07
1.79806e-07
2.19834e-07
2.20476e-07
2.23344e-07
2.23966e-07
2.18527e-07
2.07763e-07
1.95685e-07
1.85332e-07
1.77809e-07
1.72416e-07
1.67866e-07
1.63282e-07
1.58341e-07
1.53493e-07
1.48689e-07
1.43163e-07
1.36597e-07
1.29823e-07
1.29164e-07
1.2717e-07
1.25028e-07
1.25661e-07
1.22087e-07
1.37908e-07
1.18368e-07
1.70323e-07
2.10618e-07
2.03038e-07
2.04125e-07
2.00342e-07
1.94834e-07
1.8883e-07
1.78216e-07
1.61444e-07
1.4229e-07
1.25754e-07
1.14832e-07
1.09821e-07
1.09437e-07
1.11892e-07
1.14414e-07
1.13097e-07
1.06732e-07
9.81886e-08
1.08918e-07
1.03466e-07
9.7107e-08
9.35954e-08
9.2613e-08
1.11085e-07
1.00366e-07
1.81662e-07
2.11862e-07
2.09077e-07
2.29637e-07
2.28683e-07
2.09443e-07
1.83182e-07
1.64335e-07
1.64316e-07
1.78837e-07
1.95919e-07
2.09392e-07
2.19413e-07
2.27583e-07
2.35657e-07
2.45479e-07
2.59965e-07
2.80938e-07
3.06448e-07
9.61902e-08
8.63393e-08
7.29518e-08
6.15165e-08
6.13521e-08
8.25672e-08
9.62763e-08
1.89975e-07
1.96466e-07
2.11163e-07
2.59558e-07
3.04745e-07
3.54873e-07
4.07933e-07
4.55323e-07
4.91866e-07
5.16132e-07
5.32181e-07
5.46172e-07
5.62487e-07
5.83103e-07
6.08403e-07
6.37048e-07
6.63422e-07
6.81247e-07
6.92518e-07
9.09729e-08
7.8646e-08
5.95575e-08
3.64559e-08
2.89803e-08
5.62107e-08
9.45052e-08
1.48042e-07
2.11905e-07
4.53027e-07
6.74376e-07
8.66723e-07
1.01378e-06
1.11533e-06
1.17942e-06
1.21972e-06
1.24894e-06
1.27577e-06
1.30269e-06
1.32871e-06
1.35205e-06
1.37232e-06
1.39115e-06
1.41386e-06
1.43785e-06
1.45745e-06
)
;

boundaryField
{
    inlet
    {
        type            calculated;
        value           nonuniform List<scalar> 
26
(
9.24243e-08
8.01546e-08
6.05544e-08
3.48538e-08
2.38703e-08
5.90707e-08
1.10284e-07
1.08063e-07
4.80523e-07
9.58608e-07
1.47976e-06
1.98342e-06
2.42766e-06
2.79819e-06
3.09161e-06
3.31909e-06
3.49511e-06
3.63435e-06
3.74979e-06
3.85167e-06
3.94755e-06
4.04543e-06
4.15429e-06
4.27995e-06
4.41117e-06
4.53285e-06
)
;
    }
    outlet
    {
        type            calculated;
        value           nonuniform List<scalar> 0();
    }
    walls
    {
        type            calculated;
        value           nonuniform List<scalar> 0();
    }
    frontAndBack
    {
        type            empty;
    }
    procBoundary0to1
    {
        type            processor;
        value           nonuniform List<scalar> 
94
(
0.000577503
0.000473187
0.000473187
0.000390548
0.000390548
0.000324108
0.000324108
0.000270721
0.000270721
0.000227835
0.000227835
0.000193165
0.000169399
0.000169399
0.000145351
0.000128295
0.000128295
0.00011115
9.85707e-05
8.74803e-05
8.74803e-05
7.65406e-05
6.81033e-05
6.81033e-05
5.98458e-05
5.33316e-05
4.75152e-05
4.75152e-05
4.19028e-05
3.73507e-05
3.32822e-05
3.32822e-05
2.93934e-05
2.61919e-05
2.61919e-05
2.31289e-05
2.06094e-05
1.83606e-05
1.83606e-05
1.61985e-05
1.44257e-05
1.2845e-05
1.2845e-05
1.13113e-05
1.00681e-05
8.96253e-06
8.96253e-06
7.87587e-06
7.01201e-06
6.24732e-06
6.24732e-06
5.48145e-06
4.89156e-06
4.36992e-06
4.36992e-06
3.83013e-06
3.43189e-06
3.0812e-06
2.77184e-06
2.77184e-06
2.43911e-06
2.20265e-06
1.99169e-06
1.80255e-06
1.80255e-06
1.59566e-06
1.44672e-06
1.31167e-06
1.18991e-06
1.08098e-06
1.08098e-06
9.69726e-07
8.86666e-07
8.11309e-07
7.40748e-07
6.72768e-07
6.07364e-07
6.07364e-07
5.43981e-07
4.83789e-07
4.27486e-07
3.84565e-07
3.51731e-07
3.19733e-07
2.90585e-07
2.61239e-07
2.25869e-07
2.25869e-07
1.79722e-07
1.24107e-07
9.02828e-08
3.32962e-07
7.01164e-07
1.47166e-06
)
;
    }
    procBoundary0to4
    {
        type            processor;
        value           nonuniform List<scalar> 
72
(
0.000518141
0.000439036
0.000374379
0.00032094
0.000276396
0.000239001
0.000207418
0.000180604
0.000157725
0.000138115
0.000121233
0.000106641
9.39714e-05
8.29341e-05
7.32867e-05
6.48347e-05
5.74183e-05
5.09008e-05
4.517e-05
4.01261e-05
3.56776e-05
3.17508e-05
2.78444e-05
2.78444e-05
2.48037e-05
2.2103e-05
1.97023e-05
1.75662e-05
1.56657e-05
1.39749e-05
1.24715e-05
1.11346e-05
9.94523e-06
8.88513e-06
7.93879e-06
7.0929e-06
6.33656e-06
5.66026e-06
5.05587e-06
4.51586e-06
4.03338e-06
3.60197e-06
3.216e-06
2.87057e-06
2.56143e-06
2.28464e-06
2.03681e-06
1.81482e-06
1.61597e-06
1.43778e-06
1.27808e-06
1.13493e-06
1.00663e-06
8.91693e-07
7.88781e-07
6.96554e-07
6.13917e-07
5.39973e-07
4.74923e-07
4.21271e-07
3.79562e-07
3.42971e-07
3.06505e-07
2.71661e-07
2.38499e-07
2.07518e-07
1.79268e-07
1.53698e-07
1.3086e-07
1.12822e-07
1.0249e-07
9.84456e-08
)
;
    }
    procBoundary0to5
    {
        type            processor;
        value           nonuniform List<scalar> 4(0.000612097 0.00060603 0.000599499 0.000590879);
    }
}


// ************************************************************************* //
