/*--------------------------------*- C++ -*----------------------------------*\
| =========                 |                                                 |
| \\      /  F ield         | OpenFOAM: The Open Source CFD Toolbox           |
|  \\    /   O peration     | Version:  2306                                  |
|   \\  /    A nd           | Website:  www.openfoam.com                      |
|    \\/     M anipulation  |                                                 |
\*---------------------------------------------------------------------------*/
FoamFile
{
    version     2.0;
    format      ascii;
    arch        "LSB;label=32;scalar=64";
    class       volVectorField;
    location    "75";
    object      momentError;
}
// * * * * * * * * * * * * * * * * * * * * * * * * * * * * * * * * * * * * * //

dimensions      [0 1 -2 0 0 0 0];

internalField   nonuniform List<vector> 
1340
(
(-0.209291 -1.82124 -4.09689e-15)
(-0.111172 -1.71636 -2.80977e-14)
(-0.022436 -1.55112 1.83593e-14)
(0.0637034 -1.32846 4.34308e-14)
(0.133073 -1.14242 -4.88124e-15)
(-0.202794 -1.62015 -6.78134e-15)
(-0.116391 -1.52988 1.04205e-14)
(-0.0371825 -1.38984 2.82854e-14)
(0.0412827 -1.19929 -3.9998e-14)
(0.105511 -1.03832 -3.99529e-14)
(0.157125 -0.980321 -2.70042e-14)
(-0.195469 -1.44614 2.99359e-15)
(-0.118749 -1.36797 5.96079e-15)
(-0.0478779 -1.24815 -1.56398e-14)
(0.023416 -1.08491 2.16634e-14)
(0.0813373 -0.961752 4.05371e-14)
(0.133054 -0.921224 3.06475e-15)
(0.201669 -0.922454 2.58569e-15)
(-0.187431 -1.29415 -2.65372e-15)
(-0.119154 -1.22628 -7.68505e-15)
(-0.0557709 -1.12332 3.06264e-15)
(0.00853392 -0.983124 -1.67484e-15)
(0.0614078 -0.888772 -2.55878e-14)
(0.111351 -0.861752 1.70827e-14)
(0.173611 -0.860399 -3.48366e-14)
(0.233199 -0.833058 5.8834e-15)
(-0.178817 -1.16099 -2.54183e-15)
(-0.117905 -1.1017 5.43532e-15)
(-0.0612635 -1.01299 6.76675e-15)
(-0.00324118 -0.892314 -1.77323e-14)
(0.0449188 -0.82018 -6.59686e-14)
(0.0923405 -0.803289 3.5883e-14)
(0.148703 -0.799887 -7.47392e-14)
(0.202567 -0.774552 1.67343e-14)
(0.251122 -0.739361 1.2735e-13)
(-0.169881 -1.04377 1.432e-15)
(-0.115313 -0.991904 3.52071e-16)
(-0.0646974 -0.91492 -1.48584e-14)
(-0.0125126 -0.810665 -5.50883e-15)
(0.0311541 -0.755866 1.35556e-15)
(0.075677 -0.746572 1.6465e-14)
(0.126629 -0.742244 4.68537e-15)
(0.175513 -0.718986 -6.78331e-14)
(0.219437 -0.687632 6.70298e-14)
(0.255092 -0.648645 3.27511e-14)
(-0.160655 -0.939902 1.43641e-15)
(-0.111726 -0.894468 -3.84568e-15)
(-0.066611 -0.827798 3.45312e-15)
(-0.0197272 -0.737398 2.15909e-14)
(0.0198078 -0.696204 5.03354e-14)
(0.0612304 -0.692617 -7.29835e-14)
(0.107239 -0.687684 5.70907e-14)
(0.1516 -0.666602 -3.47123e-14)
(0.19156 -0.638843 -6.53595e-14)
(0.223983 -0.604557 8.86973e-15)
(-0.151472 -0.847965 -2.69152e-15)
(-0.107656 -0.808008 -7.92016e-16)
(-0.0674285 -0.74988 -1.53243e-15)
(-0.0252355 -0.671303 1.54649e-14)
(0.0104635 -0.640669 3.13148e-15)
(0.048723 -0.641596 2.93975e-14)
(0.0902602 -0.636312 -1.75207e-14)
(0.130484 -0.617339 -3.9494e-14)
(0.16691 -0.592932 -3.0192e-14)
(0.19637 -0.562625 -5.95171e-14)
(0.219159 -0.527219 -1.55402e-14)
(-0.142511 -0.765828 1.99714e-16)
(-0.103293 -0.730747 -7.84092e-15)
(-0.0673799 -0.679864 3.92126e-15)
(-0.0294045 -0.611394 1.21495e-14)
(0.0027214 -0.588962 -1.36321e-14)
(0.0378226 -0.593531 -1.04702e-14)
(0.0754062 -0.588302 -1.65558e-14)
(0.111917 -0.571152 -1.86e-14)
(0.145018 -0.549757 2.5099e-14)
(0.17202 -0.52323 7.15379e-14)
(0.192821 -0.492244 -3.85354e-14)
(-0.133948 -0.692518 -8.27473e-16)
(-0.0987199 -0.661611 4.20827e-16)
(-0.0664982 -0.616837 -1.62988e-15)
(-0.0323624 -0.557062 -1.63085e-14)
(-0.00364295 -0.540838 1.08322e-14)
(0.0284013 -0.548253 -7.46863e-15)
(0.0623935 -0.543293 -3.67183e-15)
(0.095585 -0.52808 6.77765e-14)
(0.125694 -0.509357 8.69912e-15)
(0.150335 -0.486205 5.64714e-14)
(0.169312 -0.459007 6.4279e-14)
(0.186672 -0.436655 -3.3251e-14)
(-0.125714 -0.626626 1.09864e-16)
(-0.0940285 -0.599316 -7.48235e-15)
(-0.0650135 -0.559819 -8.25213e-15)
(-0.0345715 -0.508464 -1.11782e-14)
(-0.00869532 -0.496981 1.16276e-14)
(0.0203783 -0.50586 5.14231e-14)
(0.0510693 -0.501241 -2.88482e-15)
(0.0812168 -0.487851 2.25793e-14)
(0.108592 -0.471597 4.37522e-16)
(0.131058 -0.451513 -6.44592e-14)
(0.148449 -0.427749 -3.2324e-14)
(0.164444 -0.408965 4.94026e-14)
(-0.117868 -0.567295 5.42811e-16)
(-0.0894092 -0.543117 3.5748e-15)
(-0.0633006 -0.508181 1.08769e-14)
(-0.0363971 -0.465961 3.94304e-15)
(-0.0128349 -0.458045 9.31478e-16)
(0.0135128 -0.466198 -6.08364e-15)
(0.0412674 -0.462139 7.52299e-14)
(0.0686133 -0.450438 -4.0259e-16)
(0.0935313 -0.436499 -8.48089e-14)
(0.113957 -0.419111 -1.94902e-14)
(0.129849 -0.398396 8.25688e-15)
(0.14446 -0.382652 1.032e-14)
(-0.110432 -0.513534 5.42063e-16)
(-0.0848574 -0.492145 6.8768e-15)
(-0.0613995 -0.461294 -4.16913e-15)
(-0.0376252 -0.426735 2.97912e-14)
(-0.0161469 -0.421677 2.53455e-14)
(0.00763839 -0.429058 -1.15894e-15)
(0.032763 -0.425633 2.04749e-14)
(0.0575675 -0.415507 -3.07377e-14)
(0.080192 -0.403599 -2.48865e-14)
(0.0988022 -0.38872 -7.45935e-14)
(0.113297 -0.37088 4.55012e-14)
(0.126534 -0.357803 7.34035e-14)
(0.137887 -0.346889 -9.89889e-15)
(-0.103368 -0.464847 9.364e-16)
(-0.0803936 -0.445946 1.10967e-15)
(-0.0593017 -0.418759 -1.19261e-14)
(-0.0382514 -0.390477 3.36989e-15)
(-0.0187803 -0.387676 -4.47705e-15)
(0.00268728 -0.3945 -4.36362e-15)
(0.0253992 -0.391642 -6.56185e-14)
(0.0479108 -0.383017 4.02514e-14)
(0.0684635 -0.37298 1.68533e-14)
(0.0853582 -0.360265 1.34467e-14)
(0.0985758 -0.344971 -4.92763e-14)
(0.110642 -0.334362 2.94154e-15)
(0.121 -0.32597 -2.98141e-14)
(-0.0966094 -0.420644 7.3106e-16)
(-0.0759758 -0.403922 -2.66442e-15)
(-0.0570456 -0.379925 5.81363e-15)
(-0.0384351 -0.357015 -1.24362e-14)
(-0.0208089 -0.356059 -3.46843e-14)
(-0.00147682 -0.3623 -4.86886e-16)
(0.0190536 -0.359973 -2.64184e-15)
(0.0394554 -0.352668 -7.68634e-15)
(0.0581171 -0.344374 4.60896e-14)
(0.0734983 -0.333706 -1.70719e-14)
(0.0855126 -0.32067 -4.56148e-15)
(0.0965297 -0.312261 -7.61536e-15)
(0.105872 -0.306046 7.21251e-15)
(0.112984 -0.298161 -1.8367e-14)
(-0.0901276 -0.380499 -1.84191e-15)
(-0.0716862 -0.365821 -1.87852e-15)
(-0.0546989 -0.344699 1.19423e-14)
(-0.0382366 -0.326074 -1.30135e-14)
(-0.0223367 -0.326476 5.29196e-15)
(-0.00493959 -0.332288 -1.97475e-14)
(0.0135949 -0.330512 4.11311e-16)
(0.0320941 -0.324507 -1.9105e-14)
(0.049036 -0.317719 1.76377e-14)
(0.0629976 -0.308807 -1.66051e-14)
(0.0739314 -0.297805 2.7568e-16)
(0.0839356 -0.291333 3.77785e-15)
(0.092463 -0.287053 2.73267e-14)
(0.0990679 -0.281373 1.12829e-14)
(-0.084049 -0.344067 1.69657e-16)
(-0.0675121 -0.331199 8.69344e-16)
(-0.0522879 -0.312575 2.52882e-15)
(-0.0377707 -0.297587 2.27563e-15)
(-0.0234464 -0.299082 3.11265e-14)
(-0.00781013 -0.304491 4.36715e-15)
(0.00892645 -0.303176 -8.83256e-15)
(0.0256718 -0.298235 5.14367e-15)
(0.0410479 -0.29281 5.41706e-15)
(0.0537437 -0.285516 4.53988e-14)
(0.0636758 -0.276343 1.70818e-14)
(0.0727396 -0.271566 4.77118e-15)
(0.0804965 -0.268984 -4.29907e-14)
(0.0866069 -0.265256 1.42062e-14)
(-0.0782316 -0.31107 -5.64948e-16)
(-0.0634794 -0.299739 -3.51455e-15)
(-0.0498736 -0.283454 -7.63023e-15)
(-0.0371056 -0.271464 -3.00801e-15)
(-0.0242396 -0.273743 -1.28717e-14)
(-0.0101777 -0.278764 -8.50878e-16)
(0.00491236 -0.277903 5.34295e-14)
(0.0200896 -0.273912 1.28472e-14)
(0.0340318 -0.269645 -3.97385e-14)
(0.0455611 -0.263739 -7.28041e-15)
(0.0546062 -0.256201 4.79139e-15)
(0.0628077 -0.252902 2.02581e-14)
(0.0698898 -0.251831 -1.19455e-14)
(0.0753541 -0.249707 -2.30789e-14)
(0.0807195 -0.2492 4.21271e-14)
(-0.0727196 -0.281117 -1.58252e-15)
(-0.0596864 -0.271353 -9.97932e-16)
(-0.0475085 -0.257054 -9.1506e-16)
(-0.0362908 -0.247483 -1.24392e-15)
(-0.0247626 -0.250351 2.17728e-14)
(-0.0121462 -0.255028 -1.63945e-16)
(0.00146789 -0.254532 -4.04438e-15)
(0.0152023 -0.251385 1.0049e-14)
(0.0278573 -0.248137 2.95936e-14)
(0.0383412 -0.243447 -5.68336e-14)
(0.0465661 -0.237319 -2.9365e-14)
(0.0539944 -0.235299 -4.5491e-15)
(0.0604184 -0.235539 2.97456e-14)
(0.0654678 -0.234867 -1.47185e-14)
(0.0703736 -0.235888 -2.58669e-14)
(-0.0676076 -0.254227 9.85878e-17)
(-0.056124 -0.245615 -1.18915e-15)
(-0.0452405 -0.233079 1.78674e-15)
(-0.0353575 -0.225497 1.72724e-15)
(-0.0250584 -0.22876 2.0001e-14)
(-0.013749 -0.233134 -1.81281e-14)
(-0.00149295 -0.232977 -7.16931e-16)
(0.0109391 -0.230586 -2.09818e-14)
(0.0224141 -0.228208 -1.45327e-14)
(0.0319432 -0.224563 4.3161e-14)
(0.0394457 -0.219675 -2.3713e-14)
(0.0461869 -0.218745 -1.57145e-14)
(0.0519964 -0.220052 -1.34411e-14)
(0.0565985 -0.220636 2.72175e-14)
(0.0611511 -0.223027 1.67443e-14)
(-0.0628301 -0.229914 5.56978e-18)
(-0.0527348 -0.222439 2.76029e-15)
(-0.0430157 -0.211346 -8.05419e-15)
(-0.0343143 -0.205387 9.90836e-16)
(-0.0251222 -0.208948 -3.07476e-14)
(-0.015016 -0.213023 1.85979e-15)
(-0.00399875 -0.213156 3.79284e-15)
(0.0072232 -0.211419 -4.04241e-14)
(0.017621 -0.209794 8.52659e-15)
(0.0262895 -0.20707 -3.39503e-15)
(0.0331237 -0.203227 2.41434e-14)
(0.0392333 -0.203204 -5.08815e-16)
(0.0445221 -0.205419 -1.89655e-14)
(0.0487592 -0.207057 -2.01478e-14)
(0.0528046 -0.210524 4.58846e-15)
(0.0562262 -0.213399 1.51422e-14)
(-0.058555 -0.207912 1.01459e-15)
(-0.0495419 -0.201431 3.53451e-15)
(-0.0407871 -0.191634 -4.71966e-16)
(-0.0331202 -0.186977 7.27297e-16)
(-0.0249524 -0.1907 2.38699e-15)
(-0.0159405 -0.194544 -1.6045e-14)
(-0.00608408 -0.194933 1.25356e-14)
(0.00402536 -0.193778 1.54808e-14)
(0.0134158 -0.192838 -1.07109e-14)
(0.0212795 -0.190889 -5.06851e-15)
(0.0275162 -0.187971 2.5392e-15)
(0.033064 -0.188679 3.00651e-14)
(0.0378726 -0.191625 3.69074e-14)
(0.0417367 -0.194105 1.71478e-15)
(0.0454622 -0.198498 -1.11737e-14)
(0.048589 -0.202473 -2.16715e-14)
(-0.0464565 -0.182356 2.53292e-16)
(-0.0385551 -0.173673 -6.86494e-16)
(-0.0317916 -0.170101 1.30757e-14)
(-0.0245446 -0.173942 9.52405e-15)
(-0.0165401 -0.177572 7.8761e-15)
(-0.00774158 -0.178211 -6.57498e-15)
(0.00131818 -0.177567 3.88352e-14)
(0.0097705 -0.177195 -1.98777e-14)
(0.0168767 -0.175931 -1.23796e-14)
(0.0225343 -0.173804 -3.37378e-14)
(0.0275549 -0.175131 -1.90621e-14)
(0.0319276 -0.178645 -2.58729e-14)
(0.0355057 -0.181841 5.50248e-15)
(0.0389279 -0.186966 7.75633e-15)
(0.0417128 -0.191815 8.00891e-15)
(0.043606 -0.193976 -4.7003e-15)
(-0.0433896 -0.165058 4.64143e-15)
(-0.0362841 -0.157319 5.89701e-17)
(-0.0303344 -0.154663 -1.09411e-14)
(-0.0239221 -0.158549 -8.15464e-15)
(-0.0168171 -0.161992 4.89233e-15)
(-0.00898608 -0.162844 1.21776e-14)
(-0.000887729 -0.162651 -9.74011e-15)
(0.00667668 -0.16279 1.5556e-14)
(0.0130587 -0.162142 1.95889e-15)
(0.0181652 -0.160711 -7.3937e-15)
(0.0226864 -0.162549 4.18886e-16)
(0.0266263 -0.166502 4.02911e-15)
(0.0298682 -0.170219 -1.65584e-14)
(0.0330584 -0.17596 1.68335e-15)
(0.0356757 -0.18155 7.06239e-16)
(0.0375142 -0.184708 2.14536e-15)
(-0.040394 -0.149336 -5.40562e-16)
(-0.0340033 -0.142441 -6.63346e-15)
(-0.028785 -0.140522 -3.59723e-15)
(-0.0231128 -0.144425 2.15569e-14)
(-0.016813 -0.147687 -1.7036e-14)
(-0.00983801 -0.148716 1.22437e-14)
(-0.00262007 -0.148922 -9.70019e-15)
(0.004132 -0.149498 -1.39325e-14)
(0.00982737 -0.149369 1.18266e-14)
(0.014381 -0.148537 2.31604e-14)
(0.0183952 -0.150813 -1.47651e-14)
(0.0219313 -0.155149 1.84399e-14)
(0.0248894 -0.15931 1.31224e-14)
(0.0277669 -0.165493 -1.56455e-14)
(0.030217 -0.171689 -5.94703e-15)
(0.0320521 -0.175669 3.26447e-15)
(-0.0375031 -0.135012 -2.65434e-15)
(-0.0317749 -0.128898 3.67153e-15)
(-0.0271899 -0.12758 5.48647e-15)
(-0.0221825 -0.13142 -1.88759e-14)
(-0.0165813 -0.134518 2.47196e-14)
(-0.0103706 -0.135704 -3.8124e-15)
(-0.00391695 -0.136254 4.79528e-16)
(0.00209571 -0.137218 -4.74302e-15)
(0.0071571 -0.137549 -3.06344e-14)
(0.011192 -0.137268 1.62582e-14)
(0.0147249 -0.13992 7.24576e-15)
(0.0178238 -0.144531 -4.21402e-14)
(0.0204472 -0.149032 6.55975e-15)
(0.0230667 -0.155573 1.175e-14)
(0.0253713 -0.162268 -8.9543e-15)
(0.027069 -0.166871 -2.00732e-14)
(0.028595 -0.170376 -7.42467e-15)
(-0.0347782 -0.122033 2.88538e-15)
(-0.0296744 -0.116607 1.55698e-15)
(-0.0256297 -0.115762 -5.08017e-15)
(-0.0211979 -0.119515 8.83179e-15)
(-0.0162149 -0.122445 -1.02446e-14)
(-0.0106531 -0.123747 1.03425e-14)
(-0.00486913 -0.124568 -2.46496e-14)
(0.000511556 -0.125842 -9.71638e-16)
(0.00501482 -0.126582 2.18127e-14)
(0.00856341 -0.126763 -7.04882e-15)
(0.0116246 -0.129741 2.23486e-14)
(0.0143119 -0.134577 1.48023e-14)
(0.0166132 -0.139375 -5.83777e-15)
(0.0189033 -0.146159 2.44304e-14)
(0.0210097 -0.15322 1.29905e-14)
(0.0226859 -0.15837 2.98943e-15)
(0.0242509 -0.162576 -3.2853e-15)
(-0.0322734 -0.110235 3.77318e-16)
(-0.0277063 -0.105437 -8.27532e-15)
(-0.0241385 -0.104957 3.331e-15)
(-0.0202119 -0.10857 6.78414e-15)
(-0.0157653 -0.111338 -6.9929e-15)
(-0.0107729 -0.11273 -1.04528e-14)
(-0.00555432 -0.113801 5.74829e-15)
(-0.000709972 -0.115332 -2.40269e-14)
(0.00331877 -0.116384 1.83684e-15)
(0.00646023 -0.116976 3.85863e-14)
(0.00910401 -0.120213 6.62986e-16)
(0.0113804 -0.125231 -2.59411e-15)
(0.0133153 -0.13026 -1.10356e-14)
(0.0152997 -0.13726 -6.03598e-15)
(0.0171733 -0.144608 1.09288e-14)
(0.0187534 -0.150217 -2.418e-15)
(0.020341 -0.154991 6.86101e-16)
(-0.0299731 -0.0995624 5.14874e-17)
(-0.0258641 -0.0952811 3.92366e-15)
(-0.0227318 -0.0950822 2.20099e-15)
(-0.019252 -0.0985583 -1.27313e-14)
(-0.0152883 -0.101163 1.65821e-14)
(-0.0107913 -0.102618 4.83905e-15)
(-0.00606501 -0.103867 2.12165e-14)
(-0.00166126 -0.105607 3.34383e-14)
(0.00198885 -0.106934 -3.93542e-14)
(0.00479447 -0.107853 -3.6438e-14)
(0.00708679 -0.11128 2.24815e-15)
(0.00901505 -0.116435 3.68534e-15)
(0.0106317 -0.121657 -9.17604e-15)
(0.0122652 -0.128827 -1.81909e-14)
(0.0138668 -0.136404 6.48351e-15)
(0.0153248 -0.142406 9.61438e-16)
(0.0167817 -0.147647 -1.67066e-14)
(0.0180885 -0.15042 5.661e-15)
(-0.0278294 -0.0898921 -1.14711e-15)
(-0.0241478 -0.08609 6.17639e-15)
(-0.0214037 -0.0861069 -2.78938e-15)
(-0.0183356 -0.089399 4.58036e-15)
(-0.0147975 -0.0918413 -1.40198e-14)
(-0.0107567 -0.0933383 -1.3939e-14)
(-0.0064554 -0.0947326 1.44812e-14)
(-0.0024334 -0.0966249 1.29385e-14)
(0.000913792 -0.0981539 1.36207e-14)
(0.00347565 -0.0993502 -8.094e-15)
(0.0055133 -0.102921 -9.81044e-15)
(0.00715769 -0.108158 1.10915e-15)
(0.00848247 -0.113502 4.23585e-15)
(0.00982893 -0.120797 -8.41818e-15)
(0.0111528 -0.128554 -1.71365e-15)
(0.0124048 -0.134867 1.1188e-14)
(0.0137634 -0.14053 -3.20881e-15)
(0.0150638 -0.143842 -6.19095e-15)
(-0.0258395 -0.0811682 1.61857e-16)
(-0.0225589 -0.0777964 -2.65659e-15)
(-0.0201464 -0.0779571 5.6099e-15)
(-0.017448 -0.0810694 8.9429e-15)
(-0.0143007 -0.083334 1.98897e-15)
(-0.0106691 -0.0848388 -2.10661e-14)
(-0.00676683 -0.0863398 -2.53646e-14)
(-0.00307554 -0.0883472 5.81601e-15)
(2.2601e-05 -0.0900438 2.92271e-15)
(0.00239954 -0.0914374 2.44946e-14)
(0.00425706 -0.0950854 1.18057e-14)
(0.00572131 -0.10035 4.15136e-15)
(0.00686146 -0.105781 1.5591e-14)
(0.00794701 -0.113124 1.61754e-15)
(0.00901508 -0.120996 -1.05752e-14)
(0.0100541 -0.127575 -3.98287e-15)
(0.0112337 -0.133594 -1.68369e-15)
(0.0124902 -0.137407 1.35764e-14)
(-0.0240135 -0.0732899 4.11956e-15)
(-0.0210911 -0.0703758 -4.88462e-15)
(-0.0189498 -0.0706202 -2.98859e-15)
(-0.0165727 -0.0734855 -2.49183e-15)
(-0.0137746 -0.0755824 8.8116e-16)
(-0.0105238 -0.0770657 2.00094e-14)
(-0.0069918 -0.0786396 1.69019e-14)
(-0.00361456 -0.0807238 -2.69908e-15)
(-0.000740263 -0.0825368 4.40669e-15)
(0.00149969 -0.084099 -1.18993e-14)
(0.00324648 -0.0877751 -1.63228e-14)
(0.0045975 -0.0930054 -7.57361e-15)
(0.00561666 -0.0984412 1.13355e-15)
(0.00656848 -0.105782 3.87246e-15)
(0.00744484 -0.113709 -6.88912e-15)
(0.00827247 -0.120481 8.0265e-15)
(0.00930353 -0.126827 -4.44189e-15)
(0.0103664 -0.13104 -9.08268e-15)
(0.0114058 -0.132473 1.20172e-14)
(-0.0223269 -0.0662292 -3.88393e-16)
(-0.0197149 -0.0637333 3.96301e-15)
(-0.0178182 -0.0640303 -4.35505e-15)
(-0.015699 -0.0666234 1.97802e-15)
(-0.0132147 -0.0685402 -1.02778e-14)
(-0.0103108 -0.0699864 -8.40531e-15)
(-0.00713113 -0.071593 2.80269e-15)
(-0.00405005 -0.0737181 9.80446e-15)
(-0.0013869 -0.075616 2.57405e-15)
(0.000723374 -0.0772907 1.82359e-15)
(0.002387 -0.080957 -1.54016e-14)
(0.00369599 -0.0861081 -6.01692e-15)
(0.0046955 -0.0915132 4.98643e-15)
(0.00556805 -0.0987586 -2.19551e-15)
(0.00634994 -0.106665 1.21315e-14)
(0.00705298 -0.113557 9.39409e-15)
(0.00789845 -0.120117 6.03566e-15)
(0.00885403 -0.124683 -7.27958e-15)
(0.00980365 -0.126582 -1.02966e-14)
(-0.0207352 -0.0598796 -8.71849e-16)
(-0.0184134 -0.0577698 7.2753e-16)
(-0.0167282 -0.0581065 7.21934e-15)
(-0.0148422 -0.0604291 6.03142e-15)
(-0.0126291 -0.0621822 -4.56376e-15)
(-0.0100429 -0.0635662 -3.3015e-15)
(-0.0071814 -0.0651701 -1.06235e-14)
(-0.0043885 -0.0672995 2.97164e-15)
(-0.00193363 -0.0692411 -6.2503e-15)
(5.49661e-05 -0.0710005 1.21842e-14)
(0.00165315 -0.0746252 1.16097e-14)
(0.00293651 -0.0796498 4.50707e-15)
(0.00394566 -0.0849496 4.25056e-15)
(0.00485277 -0.0920564 9.83055e-15)
(0.00561362 -0.0998574 -3.91208e-15)
(0.00625346 -0.10678 -1.67891e-14)
(0.0070201 -0.113471 -3.96779e-15)
(0.00783686 -0.118308 1.45164e-14)
(0.00869631 -0.1206 1.62292e-15)
(-0.0192427 -0.0542004 1.647e-16)
(-0.0171912 -0.0524175 -1.66409e-15)
(-0.0156904 -0.0527803 2.58857e-15)
(-0.01401 -0.0548712 -3.12483e-15)
(-0.0120413 -0.0564617 4.2723e-15)
(-0.00973242 -0.057774 1.16323e-14)
(-0.00716716 -0.0593531 -4.26751e-15)
(-0.00463505 -0.061456 -1.12451e-14)
(-0.00238058 -0.0634082 -1.48062e-14)
(-0.00052319 -0.0652052 -1.06421e-17)
(0.000999592 -0.0687526 -3.07372e-15)
(0.00227602 -0.073626 -2.56192e-16)
(0.00333541 -0.0787828 8.04634e-15)
(0.00428568 -0.0856759 -1.14255e-14)
(0.00511258 -0.0933016 -3.24206e-15)
(0.00578894 -0.100175 5.96158e-15)
(0.00650887 -0.106909 -7.69391e-15)
(0.00730334 -0.111955 3.31311e-15)
(0.00802202 -0.11456 4.26342e-15)
(0.00866046 -0.114337 -9.0276e-15)
(-0.0178614 -0.0491181 -1.36023e-16)
(-0.0160357 -0.0476312 1.89183e-15)
(-0.0147073 -0.0480132 -6.07042e-15)
(-0.0132189 -0.0499022 -5.23542e-15)
(-0.0114664 -0.051355 -1.40475e-15)
(-0.00940623 -0.0525898 1.26387e-14)
(-0.00710089 -0.0541213 -5.47444e-15)
(-0.00480964 -0.0561701 -9.47015e-15)
(-0.00274405 -0.0580972 1.17423e-14)
(-0.0010126 -0.0599029 -5.13148e-15)
(0.000433 -0.0633434 9.30453e-15)
(0.00168022 -0.0680278 -7.71288e-15)
(0.00276877 -0.0729959 -1.03946e-15)
(0.00380822 -0.0796429 1.05026e-14)
(0.00472249 -0.087031 -1.55694e-14)
(0.00549874 -0.093777 -3.4415e-15)
(0.0063231 -0.100489 1.62762e-14)
(0.00710189 -0.105623 -7.19882e-16)
(0.00780742 -0.10849 -2.11039e-15)
(0.00839309 -0.108643 1.72595e-15)
(-0.0165633 -0.0445874 7.09531e-16)
(-0.014928 -0.0433289 -2.4478e-15)
(-0.0137685 -0.043737 -2.97571e-15)
(-0.0124547 -0.0454639 9.07838e-15)
(-0.0109041 -0.0467931 -8.54827e-15)
(-0.00906835 -0.0479622 -1.04776e-14)
(-0.0070013 -0.0494422 1.42084e-14)
(-0.00492219 -0.0514175 -4.93593e-15)
(-0.00302962 -0.053298 -4.81728e-15)
(-0.00142712 -0.0550747 -3.18054e-16)
(-7.06963e-05 -0.0583802 -3.07373e-15)
(0.0011452 -0.0628563 1.60901e-14)
(0.00225991 -0.0676151 7.74899e-16)
(0.00334533 -0.0739727 -4.40934e-15)
(0.0043742 -0.0810822 2.48583e-15)
(0.005287 -0.087645 -4.18102e-15)
(0.00622062 -0.0942361 1.41469e-15)
(0.00714567 -0.0994075 8.84877e-15)
(0.00789961 -0.102441 -2.80828e-15)
(0.00850371 -0.102915 -1.63287e-15)
(-0.0153109 -0.0405187 -2.96988e-16)
(-0.0138575 -0.0394758 2.06916e-16)
(-0.0128497 -0.0399126 1.40596e-15)
(-0.0117031 -0.0414968 -6.82299e-15)
(-0.0103366 -0.0427326 1.86285e-15)
(-0.00871131 -0.0438417 -1.55237e-14)
(-0.00685594 -0.0452642 7.5709e-15)
(-0.00497628 -0.0471632 2.15196e-14)
(-0.0032438 -0.0489755 -1.79784e-14)
(-0.00176161 -0.0507087 -1.61883e-14)
(-0.000494664 -0.0538595 -7.50731e-15)
(0.000663715 -0.0581051 -1.25424e-15)
(0.00176531 -0.0626238 4.50882e-15)
(0.00290003 -0.06868 3.19299e-15)
(0.0040083 -0.0754768 1.56203e-15)
(0.00506883 -0.0818064 -1.17191e-14)
(0.00620396 -0.0882323 -1.24513e-14)
(0.00725055 -0.0933622 5.63508e-15)
(0.00818352 -0.0965135 3.64102e-15)
(0.00884771 -0.0972108 -4.96322e-15)
(0.00926252 -0.0955762 3.41477e-15)
(-0.0140969 -0.0368633 1.58357e-16)
(-0.0128098 -0.0360083 3.83151e-16)
(-0.0119254 -0.036466 2.08934e-15)
(-0.0109271 -0.0379415 1.40679e-15)
(-0.00973158 -0.0390962 1.03767e-14)
(-0.00829654 -0.0401551 1.8294e-14)
(-0.00664273 -0.0415244 -1.95318e-14)
(-0.00494315 -0.0433413 1.05955e-14)
(-0.00336384 -0.0450843 9.28137e-15)
(-0.00200628 -0.0467562 6.03358e-15)
(-0.000839 -0.0497484 -1.86014e-15)
(0.000256741 -0.0537555 6.53234e-15)
(0.00133193 -0.0580322 8.21835e-16)
(0.00245361 -0.0637595 -2.78128e-15)
(0.00362895 -0.0702268 4.2742e-15)
(0.00480963 -0.0762884 -9.70819e-16)
(0.00610308 -0.0824835 5.34504e-16)
(0.00741556 -0.0875279 -3.65364e-15)
(0.00852106 -0.090711 -3.98236e-15)
(0.00931941 -0.0915382 6.20816e-15)
(0.00982316 -0.0901573 -2.6065e-15)
(-0.0129254 -0.0335447 6.57302e-16)
(-0.0117654 -0.0328646 -2.53031e-15)
(-0.0109814 -0.0333386 -1.39769e-15)
(-0.0101059 -0.0347171 2.55751e-15)
(-0.00905482 -0.0358079 -6.65745e-15)
(-0.00779022 -0.0368204 4.78302e-15)
(-0.00631702 -0.0381379 -7.30487e-15)
(-0.00479023 -0.0398762 -1.51553e-14)
(-0.00335945 -0.0415486 -1.9745e-15)
(-0.00212376 -0.043161 7.6e-15)
(-0.00105897 -0.0459952 8.20321e-15)
(-5.05285e-05 -0.0497686 2.8973e-15)
(0.000958436 -0.0537954 2.31452e-15)
(0.00205679 -0.0592043 -1.31289e-15)
(0.00323657 -0.065319 4.50296e-15)
(0.00450353 -0.0710892 -1.7527e-15)
(0.00596137 -0.0770353 2.74236e-15)
(0.00743191 -0.0819197 5.26697e-15)
(0.00878783 -0.0850569 -1.32321e-15)
(0.00978991 -0.085969 5.56534e-15)
(0.0104192 -0.0847287 -8.99339e-16)
(-0.0117876 -0.0305194 4.11798e-16)
(-0.0107199 -0.0299658 -4.85355e-16)
(-0.0100145 -0.030456 6.15662e-16)
(-0.00922792 -0.0317571 -2.16907e-15)
(-0.00829349 -0.0327886 -5.20302e-15)
(-0.00716874 -0.0337544 -1.57148e-14)
(-0.00585608 -0.0350171 1.6172e-14)
(-0.00448286 -0.0366806 -8.99098e-15)
(-0.0031934 -0.0382894 -3.47295e-16)
(-0.00208362 -0.0398439 6.78562e-15)
(-0.00112847 -0.04253 -1.38617e-14)
(-0.000209668 -0.0460856 -9.59077e-15)
(0.000721602 -0.0498815 -2.47627e-15)
(0.0017376 -0.0549688 2.59282e-15)
(0.00289378 -0.0607346 3.77962e-15)
(0.00418261 -0.0662011 -2.41189e-15)
(0.00571761 -0.0718673 -1.40973e-15)
(0.0073777 -0.0765679 5.16111e-15)
(0.00889599 -0.0795999 -3.79692e-16)
(0.0100795 -0.0804922 4.08022e-15)
(0.0108931 -0.079353 -8.308e-16)
(-0.0106787 -0.0277174 4.89563e-16)
(-0.00969595 -0.0272863 -6.90148e-16)
(-0.00904283 -0.0277886 6.319e-16)
(-0.00831649 -0.0290093 -5.0323e-16)
(-0.00746009 -0.0299827 5.9914e-15)
(-0.00644353 -0.0308978 7.31475e-15)
(-0.0052558 -0.0320997 -2.36524e-15)
(-0.00401715 -0.0336871 1.80204e-15)
(-0.00285411 -0.0352307 -2.37974e-15)
(-0.00185883 -0.0367361 -6.68221e-15)
(-0.00100526 -0.0392864 7.36366e-15)
(-0.000186543 -0.0426382 -2.4334e-16)
(0.000642768 -0.046213 -2.55923e-16)
(0.00157582 -0.0510041 -5.20362e-16)
(0.00265493 -0.0564324 -6.07342e-15)
(0.00391407 -0.0615959 2.44109e-15)
(0.00546826 -0.0669785 -3.0346e-15)
(0.00715555 -0.0714297 4.32069e-17)
(0.00879241 -0.0742973 4.93704e-15)
(0.0101571 -0.0751714 -4.48056e-15)
(0.0111339 -0.0741136 -1.39024e-15)
(0.0116792 -0.0709089 -2.08793e-15)
(-0.00962438 -0.0251276 -4.51268e-16)
(-0.00872056 -0.024803 -4.81488e-17)
(-0.00809614 -0.0253021 -1.85178e-15)
(-0.00740202 -0.0264437 -3.83866e-15)
(-0.0065945 -0.0273526 -5.6501e-16)
(-0.0056476 -0.0282099 -4.68487e-15)
(-0.00455308 -0.0293441 -6.69013e-15)
(-0.00341356 -0.0308524 2.95552e-15)
(-0.00235359 -0.0323341 2.23079e-15)
(-0.00145836 -0.033786 3.18643e-15)
(-0.000694233 -0.0362075 -5.38659e-15)
(4.24326e-05 -0.0393701 7.02882e-15)
(0.000783336 -0.0427441 -5.69072e-15)
(0.00161021 -0.0472466 -3.371e-15)
(0.00260508 -0.0523534 9.90478e-15)
(0.0037765 -0.0572296 -2.64262e-15)
(0.0052307 -0.0622949 1.64589e-15)
(0.00687613 -0.0664922 -1.39666e-15)
(0.00853262 -0.0692342 -4.71244e-16)
(0.0100262 -0.0700967 2.42368e-15)
(0.01123 -0.0691619 2.60959e-15)
(0.0120118 -0.0661978 -2.07887e-15)
(-0.00865643 -0.0227193 -1.11385e-15)
(-0.00781215 -0.0224879 8.2294e-16)
(-0.00720711 -0.0229696 1.16122e-16)
(-0.0065282 -0.0240261 2.68466e-15)
(-0.00574395 -0.0248678 -1.6665e-15)
(-0.00483862 -0.0256623 -3.97886e-17)
(-0.00380209 -0.0267295 7.94505e-15)
(-0.00273083 -0.0281582 8.38003e-15)
(-0.00174254 -0.0295748 3.7216e-16)
(-0.000917036 -0.0309748 1.07281e-14)
(-0.000213326 -0.033271 5.31099e-15)
(0.000456874 -0.0362473 -9.78315e-15)
(0.00112014 -0.0394194 2.93691e-16)
(0.00187969 -0.0436536 -3.83064e-15)
(0.00278506 -0.0484474 -1.27404e-15)
(0.00383477 -0.0530225 6.36015e-15)
(0.00514765 -0.057794 -1.09722e-14)
(0.00666732 -0.0617845 -1.4538e-15)
(0.00828247 -0.0644284 6.08906e-15)
(0.00983738 -0.0653339 8.52517e-16)
(0.0112071 -0.0645474 -1.02148e-15)
(0.0121813 -0.0617959 -2.96552e-15)
(-0.00778753 -0.0204837 1.30002e-17)
(-0.00699306 -0.0203084 3.76665e-16)
(-0.00640616 -0.0207685 2.13935e-15)
(-0.00573075 -0.0217403 5.38005e-15)
(-0.00495975 -0.0225131 2.22955e-15)
(-0.00407846 -0.0232494 3.88021e-15)
(-0.00307778 -0.0242519 4.17868e-16)
(-0.00204153 -0.0256088 -1.20277e-14)
(-0.0010919 -0.0269646 1.33046e-14)
(-0.000306429 -0.0283058 1.19802e-15)
(0.000365949 -0.0304729 2.63761e-16)
(0.00100822 -0.0332653 5.05688e-15)
(0.00163674 -0.0362415 2.7502e-15)
(0.00234776 -0.0401957 5.58287e-15)
(0.00319232 -0.0446746 4.77485e-15)
(0.00414112 -0.0489625 -4.59318e-15)
(0.00532322 -0.0534707 1.86332e-15)
(0.00670571 -0.0572726 6.11526e-15)
(0.00821176 -0.0598475 -3.0988e-15)
(0.0097542 -0.0608163 -3.32705e-15)
(0.0111566 -0.060159 9.65894e-16)
(0.0122066 -0.0576091 -2.64774e-15)
(-0.00701373 -0.0184066 3.73574e-16)
(-0.00627169 -0.0182888 -6.40881e-16)
(-0.00570041 -0.0187183 -1.98188e-15)
(-0.00503269 -0.0195948 -6.88465e-16)
(-0.00427449 -0.0202983 3.75477e-15)
(-0.00341714 -0.0209817 4.10789e-15)
(-0.0024389 -0.0219315 -7.84867e-15)
(-0.0014213 -0.0232267 -2.89917e-15)
(-0.000482695 -0.0245244 -1.73592e-14)
(0.000295771 -0.0258087 1.02565e-15)
(0.000971465 -0.0278444 1.77666e-15)
(0.00161296 -0.0304454 -2.15664e-15)
(0.00223556 -0.033212 -3.80678e-15)
(0.00295756 -0.0368849 4.4937e-15)
(0.00379257 -0.0410456 7.1518e-15)
(0.00469613 -0.0450492 -2.69394e-15)
(0.00579158 -0.0492814 -6.11835e-15)
(0.00706186 -0.0528885 3.33208e-15)
(0.00846275 -0.0553866 1.29119e-15)
(0.00985902 -0.0563735 -1.67084e-15)
(0.0111755 -0.0558466 1.09961e-15)
(0.012173 -0.0535117 2.60821e-15)
(0.0127235 -0.0495776 2.85323e-15)
(-0.00633942 -0.0165169 6.95548e-16)
(-0.00565777 -0.0164511 -1.7426e-15)
(-0.00510369 -0.0168402 -1.6134e-15)
(-0.00444967 -0.0176191 -9.96883e-16)
(-0.00371428 -0.0182504 1.3219e-15)
(-0.00288572 -0.0188877 -6.09289e-15)
(-0.00193223 -0.0197953 1.70629e-15)
(-0.000919907 -0.0210395 4.85537e-15)
(2.44977e-05 -0.0222861 6.08565e-15)
(0.000814837 -0.0235087 -9.03572e-15)
(0.00151418 -0.0254106 -6.87433e-16)
(0.0021878 -0.0278198 3.45039e-15)
(0.00284608 -0.0303716 -7.08206e-15)
(0.0036093 -0.0337476 1.94605e-16)
(0.00448782 -0.0375754 4.66288e-15)
(0.0054082 -0.0412729 -1.96493e-15)
(0.00650299 -0.0452014 -2.87513e-15)
(0.00771896 -0.0485769 -2.63297e-15)
(0.00899625 -0.0509397 4.67122e-15)
(0.0102674 -0.0519245 -7.51752e-16)
(0.0114065 -0.0515077 -4.15497e-15)
(0.012241 -0.0494001 4.54027e-15)
(0.0126924 -0.045807 -4.38336e-15)
(-0.0057454 -0.0147877 3.47737e-16)
(-0.00511753 -0.0147539 -6.2452e-16)
(-0.00460128 -0.0151011 1.36033e-15)
(-0.00398254 -0.0157944 4.14833e-15)
(-0.00328866 -0.0163718 -2.10185e-15)
(-0.00250464 -0.0169811 5.23879e-15)
(-0.0015801 -0.0178646 -2.42292e-15)
(-0.000571581 -0.0190661 -4.22438e-15)
(0.000388423 -0.0202641 8.53855e-15)
(0.00120462 -0.021427 1.11974e-14)
(0.00194175 -0.0231956 -8.71513e-15)
(0.0026557 -0.025412 -4.5902e-15)
(0.00336177 -0.0277409 -4.10865e-16)
(0.00420419 -0.0308166 6.74909e-15)
(0.00516479 -0.0342979 -9.80504e-16)
(0.00616531 -0.0376615 -8.23161e-15)
(0.00731929 -0.0412431 4.70798e-15)
(0.00855352 -0.0443322 3.19087e-15)
(0.00979554 -0.0465154 -9.36778e-16)
(0.0109225 -0.0474486 5.17803e-16)
(0.0118905 -0.0471106 -1.96746e-15)
(0.0125323 -0.0452389 -1.21345e-15)
(0.012791 -0.0420045 4.08785e-15)
(-0.00524378 -0.0132255 1.2464e-16)
(-0.00467832 -0.0132094 -1.6642e-16)
(-0.0042093 -0.0135207 2.50259e-15)
(-0.00363698 -0.0141404 -4.66554e-15)
(-0.00300309 -0.0146746 4.54501e-16)
(-0.00227972 -0.0152708 -4.25636e-15)
(-0.00139198 -0.0161393 -6.87155e-15)
(-0.000382084 -0.017303 -7.44009e-16)
(0.000599152 -0.0184526 -1.09338e-14)
(0.00144312 -0.0195539 -4.99111e-16)
(0.00221657 -0.0211951 2.43533e-15)
(0.00297803 -0.0232294 1.66762e-15)
(0.00374158 -0.025345 1.20143e-15)
(0.00465454 -0.0281187 -5.28782e-15)
(0.00570783 -0.0312476 -2.00057e-15)
(0.00681157 -0.0342563 -3.00039e-15)
(0.00809142 -0.0374613 6.21272e-15)
(0.00941891 -0.0402234 5.26997e-16)
(0.010687 -0.0421688 -1.07575e-15)
(0.0117901 -0.0430037 1.64459e-15)
(0.012625 -0.0427068 1.36968e-16)
(0.0130658 -0.041031 -5.14779e-16)
(0.0131075 -0.0381573 -2.79076e-15)
(-0.00481583 -0.0118181 -6.96555e-16)
(-0.00431773 -0.0118265 8.49063e-16)
(-0.00390526 -0.0121098 -2.27806e-15)
(-0.00339956 -0.012668 1.19788e-15)
(-0.00284428 -0.0131765 -4.76159e-16)
(-0.00219697 -0.0137688 4.63182e-15)
(-0.00134624 -0.0146191 5.48513e-17)
(-0.000333751 -0.015732 -5.59975e-15)
(0.000670941 -0.0168229 1.24407e-15)
(0.00154461 -0.017863 -5.58975e-15)
(0.00235249 -0.0193862 3.59663e-15)
(0.00314838 -0.0212517 6.74022e-15)
(0.00395262 -0.0231685 6.4609e-15)
(0.00492911 -0.0256644 -1.53678e-17)
(0.00605772 -0.0284552 -3.25678e-15)
(0.00726552 -0.03111 -4.15548e-15)
(0.0086741 -0.0339243 -1.11016e-15)
(0.010145 -0.0363297 4.99646e-15)
(0.0115415 -0.0380001 -4.45335e-16)
(0.0126865 -0.0386755 2.00345e-15)
(0.0134952 -0.0383511 1.49168e-15)
(0.0138146 -0.0368261 1.20423e-16)
(0.013655 -0.0342673 1.65849e-16)
(-0.00443535 -0.0105905 1.72878e-17)
(-0.00400416 -0.01063 -1.43456e-17)
(-0.00365252 -0.0108899 -1.24994e-15)
(-0.00322825 -0.0113997 5.36497e-15)
(-0.00276849 -0.011887 -2.13688e-16)