/*--------------------------------*- C++ -*----------------------------------*\
| =========                 |                                                 |
| \\      /  F ield         | OpenFOAM: The Open Source CFD Toolbox           |
|  \\    /   O peration     | Version:  2306                                  |
|   \\  /    A nd           | Website:  www.openfoam.com                      |
|    \\/     M anipulation  |                                                 |
\*---------------------------------------------------------------------------*/
FoamFile
{
    version     2.0;
    format      ascii;
    arch        "LSB;label=32;scalar=64";
    class       volScalarField;
    location    "75";
    object      p;
}
// * * * * * * * * * * * * * * * * * * * * * * * * * * * * * * * * * * * * * //

dimensions      [0 2 -2 0 0 0 0];

internalField   nonuniform List<scalar> 
1340
(
121.923
136.634
150.08
163.476
175.919
114.213
127.869
140.355
152.862
164.553
174.284
106.859
119.593
131.238
142.962
153.986
163.244
170.706
99.8896
111.806
122.711
133.732
144.159
152.98
160.178
165.264
93.3118
104.496
114.738
125.131
135.015
143.431
150.369
155.379
158.134
87.1212
97.646
107.29
117.112
126.498
134.536
141.221
146.138
148.962
149.8
81.3049
91.232
100.332
109.633
118.559
126.241
132.681
137.492
140.352
141.363
75.8497
85.2295
93.8338
102.654
111.153
118.5
124.701
129.396
132.268
133.409
133.031
70.7379
79.6146
87.7623
96.1381
104.237
111.268
117.238
121.809
124.671
125.911
125.732
65.9515
74.3627
82.0883
90.0511
97.7765
104.506
110.252
114.694
117.531
118.842
118.825
117.679
61.4721
69.4512
76.7842
84.3619
91.7354
98.1784
103.706
108.017
110.815
112.177
112.291
111.349
57.2824
64.8588
71.8249
79.0419
86.0839
92.2533
97.5706
101.748
104.499
105.893
106.113
105.343
53.3651
60.565
67.1872
74.0652
80.7931
86.7022
91.8157
95.8596
98.5554
99.9669
100.273
99.6492
98.3065
49.7042
56.5497
62.8505
69.4087
75.8388
81.4989
86.4158
90.3262
92.9608
94.3783
94.7541
94.2533
93.0805
46.2833
52.7961
58.7939
65.0504
71.1978
76.6205
81.3458
85.1245
87.6933
89.1088
89.5397
89.144
88.1178
86.6015
43.0879
49.287
54.9994
60.9702
66.8487
72.0433
76.5844
80.2328
82.734
84.1397
84.6139
84.308
83.4101
82.0576
40.104
46.0074
51.4498
57.1494
62.7711
67.7484
72.1109
75.6318
78.0634
79.4541
79.9624
79.7336
78.9479
77.7402
37.3192
42.9418
48.129
53.5713
58.9488
63.7169
67.9082
71.3035
73.6647
75.0357
75.5706
75.408
74.7214
73.6417
72.2493
34.7196
40.0775
45.0228
50.2207
55.3645
59.9332
63.9585
67.2318
69.5216
70.87
71.4252
71.3202
70.7211
69.7555
68.5028
32.2951
37.4016
42.1176
47.0826
52.0037
56.3806
60.2465
63.4006
65.6198
66.9427
67.5132
67.4581
66.9369
66.0739
64.9459
30.0338
34.9027
39.4005
44.1438
48.8519
53.0457
56.7574
59.7963
61.9449
63.241
63.8225
63.8112
63.3597
62.5881
61.573
60.3722
27.9277
32.5695
36.8602
41.3919
45.8968
49.9143
53.4784
56.4047
58.4849
59.7527
60.3419
60.3686
59.9796
59.2912
58.3773
57.2952
30.3923
34.4856
38.8151
43.1251
46.9748
50.396
53.2144
55.2269
56.4659
57.0601
57.1207
56.7881
56.1747
55.3526
54.3776
53.2687
28.3605
32.2659
36.4025
40.5265
44.2144
47.4993
50.2128
52.1598
53.3697
53.9671
54.0575
53.7758
53.2308
52.4921
51.614
50.6164
26.4654
30.1915
34.1437
38.0894
41.6231
44.7764
47.3893
49.2723
50.4537
51.0523
51.1697
50.9345
50.4515
49.7889
48.9992
48.1018
24.6979
28.253
32.0292
35.8046
39.1897
42.2173
44.7328
46.5546
47.7074
48.3063
48.448
48.2552
47.8295
47.2367
46.5267
45.7209
44.8236
23.0503
26.4422
30.0501
33.6621
36.9056
39.8117
42.2341
43.9959
45.1213
45.7197
45.8839
45.7301
45.357
44.8276
44.1912
43.4677
42.6643
21.515
24.7513
28.1981
31.654
34.761
37.5511
39.8831
41.5879
42.686
43.2834
43.468
43.3508
43.0264
42.5558
41.9861
41.3383
40.619
20.0852
23.1728
26.4655
29.7715
32.7484
35.4263
37.672
39.3209
40.3929
40.9888
41.1924
41.1091
40.83
40.4138
39.9057
39.3266
38.6843
37.9787
18.7539
21.6995
24.8451
28.0079
30.8592
33.4302
35.5919
37.1875
38.2337
38.8277
39.0487
38.9973
38.7604
38.3946
37.9434
37.4274
36.8547
36.227
17.5153
20.3253
23.33
26.3554
29.087
31.5546
33.6363
35.1795
36.2009
36.7923
37.0297
37.0079
36.8103
36.4916
36.093
35.6349
35.1263
34.5685
16.3632
19.0437
21.9138
24.8078
27.4241
29.7929
31.7969
33.2905
34.2871
34.8757
35.1277
35.1336
34.9729
34.6978
34.348
33.9436
33.4929
32.9996
32.4562
15.2923
17.849
20.5902
23.3581
25.8643
28.1377
30.0678
31.5126
32.4856
33.0707
33.3364
33.3677
33.2411
33.0066
32.7021
32.3469
31.9501
31.5147
31.036
14.2971
16.7356
19.3534
22.0008
24.4008
26.5834
28.4415
29.8401
30.7896
31.3711
31.6488
31.7038
31.6089
31.4119
31.1492
30.8397
30.4917
30.11
29.6892
13.3731
15.6985
18.1982
20.7295
23.0284
25.1229
26.9127
28.2659
29.193
29.7703
30.0593
30.1359
30.0701
29.9078
29.6835
29.4156
29.1133
28.7796
28.4125
28.0021
12.5153
14.7327
17.1193
19.5399
21.741
23.7518
25.4749
26.7851
27.6898
28.2629
28.5615
28.6582
28.6193
28.4887
28.2997
28.0702
27.8085
27.5196
27.2001
26.8434
11.7198
13.8338
16.112
18.4262
20.5343
22.4638
24.1236
25.3914
26.2748
26.843
27.1507
27.2654
27.251
27.1497
26.9928
26.7978
26.5741
26.3246
26.0494
25.7404
10.9819
12.9971
15.1719
17.3844
19.4026
21.2549
22.8528
24.0805
24.9425
25.5056
25.8208
25.9523
25.9606
25.8858
25.758
25.5948
25.4042
25.1918
24.9552
24.6898
24.3863
10.298
12.2188
14.2943
16.4092
18.342
20.1194
21.6587
22.8466
23.6881
24.2457
24.5679
24.7143
24.743
24.6925
24.5913
24.4561
24.2964
24.1156
23.9149
23.6881
23.4286
9.66402
11.4944
13.475
15.4969
17.3471
19.0534
20.5354
21.6858
22.5067
23.0586
23.3862
23.5464
23.594
23.5655
23.4882
23.3789
23.2457
23.0947
22.9247
22.733
22.5122
9.07649
10.8203
12.7099
14.6421
16.4138
18.0511
19.4788
20.592
21.3934
21.9392
22.272
22.4444
22.5089
22.5005
22.4451
22.3585
22.2501
22.1241
21.9824
21.8213
21.6346
8.53164
10.1926
11.9949
13.8415
15.5371
17.1088
18.4832
19.5614
20.3431
20.8827
21.2194
21.4032
21.4835
21.4935
21.4578
21.3923
21.3051
21.2024
21.085
20.9505
20.7939
20.6067
8.02648
9.60794
11.3265
13.0904
14.7134
16.221
17.5449
18.5881
19.3511
19.884
20.2245
20.4184
20.513
20.54
20.5226
20.4758
20.4085
20.3261
20.2303
20.1188
19.9881
19.8306
7.55799
9.0633
10.7015
12.386
13.9383
15.3846
16.6585
17.6685
18.4123
18.9386
19.2817
19.485
19.5929
19.6355
19.6349
19.6056
19.5563
19.4923
19.4152
19.3243
19.2157
19.085
7.12372
8.55588
10.1168
11.7246
13.2091
14.5951
15.8211
16.7976
17.523
18.042
18.3873
18.5988
18.7187
18.7757
18.7906
18.7775
18.7448
18.6973
18.6377
18.5644
18.4765
18.3681
6.72099
8.08315
9.56982
11.1038
12.5221
13.8503
15.0285
15.973
16.6792
17.1905
17.5368
17.7555
17.8864
17.9564
17.9855
17.9873
17.9697
17.9379
17.8936
17.8378
17.7673
17.6799
17.5671
6.34791
7.64287
9.05813
10.5207
11.8754
13.1467
14.2791
15.1909
15.8782
16.381
16.7276
16.9521
17.0923
17.1741
17.216
17.2313
17.2277
17.2099
17.1809
17.1396
17.0864
17.0167
16.9253
6.00231
7.23293
8.57963
9.9736
11.266
12.4828
13.5695
14.4499
15.1174
15.6111
15.9565
16.1857
16.3339
16.4257
16.4788
16.5061
16.5149
16.5103
16.4942
16.4681
16.4294
16.3769
16.304
5.68256
6.85143
8.13235
9.45993
10.6929
11.856
12.8988
13.7473
14.395
14.8786
15.2222
15.4544
15.6089
15.7091
15.7718
15.8093
15.8291
15.8356
15.8322
15.8182
15.7943
15.7568
15.7018
5.38666
6.4966
7.71454
8.97862
10.1536
11.2655
12.2646
13.0822
13.709
14.1819
14.5221
14.7563
14.9159
15.0228
15.0933
15.1392
15.1679
15.1844
15.1908
15.1891
15.1771
15.1542
15.1146
5.11319
6.16674
7.32444
8.52735
9.64734
10.7091
11.6663
12.4522
13.0578
13.5188
13.8552
14.0899
14.2528
14.3652
14.4421
14.4949
14.5308
14.5547
14.5701
14.577
14.5768
14.5657
14.5413
14.4973
4.86041
5.86011
6.96038
8.10501
9.17176
10.186
11.1011
11.8562
12.4389
12.8874
13.2186
13.4529
13.6184
13.7349
13.8169
13.8751
13.9166
13.9466
13.9678
13.9829
13.9904
13.9905
13.9784
13.9503
4.62692
5.57511
6.62062
7.70923
8.72562
9.69301
10.5674
11.2907
11.8502
12.2856
12.6111
12.8434
13.01
13.1301
13.2165
13.2794
13.3254
13.3594
13.3858
13.4051
13.4196
13.4269
13.4254
13.4099
4.41087
5.31016
6.30371
7.33888
8.30634
9.22872
10.0617
10.7539
11.288
11.7106
12.0295
12.2588
12.4257
12.5486
12.6391
12.7062
12.7561
12.7939
12.8228
12.8461
12.8636
12.8766
12.882
12.8768
4.21092
5.06363
6.00768
6.99131
7.91236
8.79002
9.58278
10.2427
10.7492
11.1589
11.4714
11.696
11.8619
11.9874
12.0821
12.1538
12.2079
12.249
12.281
12.3054
12.3254
12.3404
12.35
12.3509
4.02546
4.83361
5.73033
6.66414
7.53969
8.37398
9.12695
9.7564
10.2318
10.6292
10.9342
11.1525
11.316
11.4431
11.5418
11.6184
11.6774
11.723
11.7576
11.7845
11.8047
11.8206
11.8313
11.8349
3.85402
4.61896
5.46899
6.35304
7.1839
7.97371
8.68884
9.28901
9.73739
10.1257
10.421
10.6289
10.7875
10.9146
11.0163
11.0974
11.1621
11.2127
11.252
11.281
11.3025
11.3179
11.3275
11.3305
11.3287
3.69609
4.41907
5.22296
6.05683
6.84187
7.58561
8.26241
8.83229
9.25922
9.64999
9.9338
10.1256
10.2764
10.4024
10.5053
10.5901
10.6599
10.7169
10.7616
10.7953
10.8192
10.8345
10.8419
10.8421
10.8381
3.57442
4.26274
5.02869
5.81394
6.55118
7.23501
7.85014
8.34281
8.71557
9.17136
9.47656
9.66511
9.8183
9.95111
10.061
10.1525
10.2301
10.2955
10.3488
10.3902
10.4196
10.438
10.4464
10.4456
10.4405
3.47663
4.13528
4.86544
5.603
6.2881
6.90262
7.43892
7.83292
8.13502
8.68782
9.03907
9.2371
9.39982
9.54504
9.66532
9.76527
9.85138
9.92574
9.98839
10.0385
10.0758
10.1005
10.1132
10.1153
10.1112
3.37826
4.0069
4.70058
5.39032
6.02473
6.56975
7.03198
7.33092
7.56376
8.19517
8.59441
8.80278
8.97237
9.12762
9.25648
9.36297
9.45511
9.53655
9.6073
9.66639
9.71268
9.74576
9.76613
9.77388
9.77323
3.28051
3.87951
4.53658
5.17948
5.76379
6.24028
6.63106
6.83776
7.00328
7.69376
8.14031
8.36296
8.53856
8.70173
8.83815
8.94931
9.04563
9.13146
9.2087
9.27555
9.33087
9.37385
9.40354
9.41995
9.42498
3.18486
3.75479
4.37555
4.97271
5.5087
5.91583
6.2388
6.35007
6.45186
7.18345
7.67542
7.91586
8.09833
8.26926
8.41227
8.52763
8.62571
8.71393
8.79449
8.86707
8.93051
8.98298
9.02375
9.05067
9.06446
3.09271
3.63456
4.21953
4.77313
5.26093
5.59846
5.85456
5.86652
5.90454
6.66377
7.19751
7.4589
7.65013
7.82992
7.98127
8.10165
8.20126
8.28925
8.36987
8.44458
8.51263
8.5734
8.62449
8.66334
8.68774
3.00567
3.52063
4.07085
4.58249
5.02135
5.28605
5.47686
5.3795
5.35284
6.13306
6.70874
6.99191
7.19142
7.37879
7.53985
7.66888
7.77424
7.86457
7.94521
8.01913
8.08835
8.15272
8.21164
8.26109
8.29683
2.92433
3.41414
3.93118
4.40332
4.78981
4.97957
5.10386
4.88451
4.78207
5.58371
6.20843
6.5234
6.73431
6.92487
7.08627
7.21734
7.32702
7.42368
7.50992
7.58834
7.66028
7.72831
7.79286
7.85095
7.89848
7.93363
2.84848
3.31477
3.80127
4.23728
4.57141
4.69184
4.75324
4.38095
4.17956
4.99767
5.67675
6.03959
6.28909
6.50476
6.67317
6.79456
6.88755
6.96856
7.0456
7.1199
7.19198
7.26225
7.33049
7.39401
7.4491
7.49437
2.78014
3.22531
3.68428
4.08898
4.37409
4.44358
4.43932
3.8654
3.54012
4.37084
5.07574
5.46263
5.7513
6.02803
6.26613
6.44515
6.57087
6.65821
6.72367
6.77886
6.83155
6.88581
6.94336
7.00227
7.05573
7.10066
2.7301
3.15994
3.59694
3.96863
4.19977
4.21457
4.09155
3.25698
2.85062
3.75792
4.49552
4.85458
5.0763
5.27976
5.4825
5.68598
5.88665
6.07341
6.23594
6.36994
6.47735
6.56251
6.63348
6.70147
6.78139
6.86945
2.70909
3.13844
3.56098
3.89211
4.04179
3.9369
3.54355
2.42008
2.02694
3.14797
4.11319
4.69061
5.02161
5.16999
5.16585
5.06893
4.94618
4.84978
4.80363
4.80849
4.8564
4.93784
5.03517
5.1172
5.15008
5.1524
2.70227
3.14071
3.55827
3.85172
3.91409
3.64935
2.90598
1.53883
0.943908
2.00619
3.13913
4.21612
5.23368
6.18028
6.96919
7.55995
7.97065
8.21894
8.34254
8.38528
8.38359
8.36566
8.37364
8.47418
8.69887
8.95099
)
;

boundaryField
{
    inlet
    {
        type            freestreamPressure;
        freestreamValue uniform 0;
        value           nonuniform List<scalar> 
26
(
2.68911
3.12541
3.54094
3.83297
3.89503
3.63158
2.89183
1.53134
0.537206
1.14105
1.78425
2.39493
2.97139
3.50733
3.95373
4.28772
4.51966
4.65957
4.72883
4.75229
4.75058
4.73965
4.74334
4.7994
4.92577
5.0677
)
;
    }
    outlet
    {
        type            freestreamPressure;
        freestreamValue nonuniform List<scalar> 0();
        value           nonuniform List<scalar> 0();
    }
    walls
    {
        type            zeroGradient;
    }
    frontAndBack
    {
        type            empty;
    }
    procBoundary0to1
    {
        type            processor;
        value           nonuniform List<scalar> 
94
(
188.143
186.173
186.173
182.018
182.018
175.846
175.846
167.91
167.91
158.75
158.75
148.88
140.74
140.74
131.359
124.345
124.345
115.651
109.585
103.806
103.806
96.395
91.3787
91.3787
84.6831
80.3354
76.1923
76.1923
70.6099
67.0247
63.6142
63.6142
59.0058
56.0639
56.0639
52.0294
49.5022
47.1021
47.1021
43.8338
41.7783
39.8286
39.8286
37.2006
35.5346
33.9551
33.9551
31.8515
30.502
29.2211
29.2211
27.5374
26.4376
25.3886
25.3886
24.0325
23.1238
22.2518
21.4135
21.4135
20.3771
19.6366
18.9215
18.2327
18.2327
17.4228
16.8046
16.2055
15.6225
15.0546
15.0546
14.4353
13.9048
13.3804
12.8595
12.3432
11.8322
11.8322
11.3272
10.8369
10.4381
10.1088
9.77117
9.42554
9.06984
8.70106
8.31978
8.31978
7.95761
7.53108
7.13498
6.95753
5.15029
9.15307
)
;
    }
    procBoundary0to4
    {
        type            processor;
        value           nonuniform List<scalar> 
72
(
105.245
98.769
92.4948
86.479
80.7509
75.3247
70.2023
65.3796
60.8471
56.5951
52.6112
48.8823
45.3948
42.1358
39.0922
36.252
33.6031
31.1341
28.8342
26.6926
24.7008
22.8493
25.9659
25.9659
24.1404
22.4413
20.8614
19.3923
18.0276
16.7601
15.5843
14.4938
13.4836
12.5478
11.6821
10.8815
10.142
9.45896
8.82905
8.24805
7.71275
7.21925
6.76482
6.34596
5.96028
5.60493
5.27809
4.97734
4.70112
4.44731
4.21473
4.00146
3.80635
3.62758
3.46402
3.31385
3.17619
3.05059
2.93702
2.84951
2.78053
2.71146
2.64331
2.57686
2.51314
2.45287
2.39641
2.34379
2.29681
2.25954
2.23385
2.20853
)
;
    }
    procBoundary0to5
    {
        type            processor;
        value           nonuniform List<scalar> 4(129.929 145.86 160.423 174.838);
    }
}


// ************************************************************************* //
