/*--------------------------------*- C++ -*----------------------------------*\
| =========                 |                                                 |
| \\      /  F ield         | OpenFOAM: The Open Source CFD Toolbox           |
|  \\    /   O peration     | Version:  2306                                  |
|   \\  /    A nd           | Website:  www.openfoam.com                      |
|    \\/     M anipulation  |                                                 |
\*---------------------------------------------------------------------------*/
FoamFile
{
    version     2.0;
    format      ascii;
    arch        "LSB;label=32;scalar=64";
    class       surfaceScalarField;
    location    "75";
    object      phi;
}
// * * * * * * * * * * * * * * * * * * * * * * * * * * * * * * * * * * * * * //

dimensions      [0 3 -1 0 0 0 0];

oriented        oriented;

internalField   nonuniform List<scalar> 
2582
(
-0.141933
-0.243904
-0.11251
-0.245006
-0.0822538
-0.256521
-0.044174
-0.314174
-0.318402
-0.143046
-0.275335
-0.111976
-0.276076
-0.0801988
-0.288298
-0.0400434
-0.354329
-0.000510042
-0.357934
-0.368198
-0.144407
-0.30854
-0.111691
-0.308791
-0.0782002
-0.321789
-0.0358874
-0.396641
0.00574033
-0.399562
0.0480064
-0.410463
-0.421078
-0.146155
-0.343476
-0.111556
-0.34339
-0.0763729
-0.356971
-0.0317008
-0.441313
0.0121395
-0.443402
0.0566567
-0.45498
0.102155
-0.466576
-0.448091
-0.148101
-0.380346
-0.111697
-0.379794
-0.0745091
-0.394158
-0.0274331
-0.488388
0.0187824
-0.489617
0.0656522
-0.50185
0.113521
-0.514445
0.158909
-0.493478
-0.440296
-0.150305
-0.419301
-0.111901
-0.418197
-0.0728033
-0.433255
-0.0230795
-0.538112
0.0256393
-0.538335
0.0750153
-0.551226
0.125472
-0.564902
0.173198
-0.541204
0.214604
-0.481701
-0.422395
-0.152812
-0.460408
-0.112257
-0.458751
-0.071019
-0.474493
-0.0185759
-0.590555
0.0327828
-0.589694
0.0848258
-0.603268
0.137997
-0.618073
0.188255
-0.591462
0.231777
-0.525223
-0.459432
-0.155508
-0.503739
-0.112731
-0.501529
-0.0692735
-0.51795
-0.0139543
-0.645874
0.040243
-0.643891
0.0950863
-0.658112
0.151099
-0.674085
0.204083
-0.644446
0.24984
-0.57098
0.288744
-0.498336
-0.43334
-0.158485
-0.549465
-0.113364
-0.546648
-0.0675268
-0.563787
-0.00912455
-0.704275
0.0480007
-0.701016
0.105847
-0.715958
0.1649
-0.733139
0.220673
-0.700217
0.268874
-0.619181
0.309733
-0.539195
-0.467959
-0.161674
-0.597712
-0.114084
-0.594238
-0.0657417
-0.612129
-0.00411801
-0.765899
0.0561001
-0.761234
0.117104
-0.776962
0.179371
-0.795406
0.238175
-0.759021
0.288896
-0.669903
0.331864
-0.582163
0.368181
-0.504276
-0.421553
-0.165126
-0.648581
-0.114898
-0.644466
-0.0639229
-0.663103
0.00110772
-0.830929
0.0646318
-0.824758
0.128928
-0.841258
0.19458
-0.861058
0.256563
-0.821004
0.309991
-0.723331
0.3552
-0.627372
0.393357
-0.542433
-0.452196
-0.168746
-0.702287
-0.115812
-0.697399
-0.062053
-0.716862
0.00653182
-0.899514
0.0735486
-0.891774
0.141364
-0.909074
0.210596
-0.930289
0.275956
-0.886365
0.332233
-0.779607
0.379795
-0.674934
0.419881
-0.582519
-0.484337
-0.172688
-0.758908
-0.116829
-0.753257
-0.0601559
-0.773536
0.0122171
-0.971887
0.0828815
-0.962439
0.154437
-0.980629
0.227445
-1.0033
0.29633
-0.955249
0.355634
-0.838912
0.405711
-0.725012
0.447892
-0.6247
0.481585
-0.518031
-0.42973
-0.176856
-0.818606
-0.117889
-0.812223
-0.0581323
-0.833292
0.0181744
-1.04819
0.0927531
-1.03702
0.16819
-1.05607
0.245183
-1.08029
0.317825
-1.02789
0.380292
-0.901378
0.433044
-0.777764
0.47739
-0.669046
0.512792
-0.553432
-0.457723
-0.181264
-0.881585
-0.119124
-0.874362
-0.0560581
-0.896358
0.0244842
-1.12874
0.103113
-1.11565
0.182654
-1.13561
0.263837
-1.16147
0.340418
-1.10447
0.406302
-0.967262
0.461842
-0.833304
0.508535
-0.715738
0.545721
-0.590618
0.575063
-0.487065
-0.411895
-0.185923
-0.948052
-0.120343
-0.939942
-0.0539025
-0.962798
0.0310419
-1.21368
0.113976
-1.19858
0.197867
-1.2195
0.283512
-1.24712
0.364284
-1.18524
0.433702
-1.03668
0.492212
-0.891814
0.541342
-0.764867
0.580442
-0.629718
0.611212
-0.517835
-0.436719
-0.190876
-1.01813
-0.121737
-1.00908
-0.0516317
-1.0329
0.0379588
-1.30327
0.125426
-1.28605
0.213914
-1.30799
0.304211
-1.33742
0.389379
-1.27041
0.462583
-1.10988
0.524234
-0.953464
0.575964
-0.816598
0.617056
-0.67081
0.649377
-0.550157
-0.462727
-0.196101
-1.09201
-0.123181
-1.082
-0.0492685
-1.10682
0.045262
-1.3978
0.137496
-1.37828
0.23082
-1.40131
0.326052
-1.43265
0.415861
-1.36022
0.493016
-1.18704
0.557992
-1.01844
0.612452
-0.871057
0.655696
-0.714054
0.689598
-0.584059
0.716844
-0.489973
-0.412636
-0.201638
-1.16994
-0.124705
-1.15893
-0.0467501
-1.18477
0.0529273
-1.49748
0.150211
-1.47557
0.248632
-1.49973
0.349072
-1.53309
0.443782
-1.45493
0.525109
-1.26837
0.593562
-1.08689
0.650928
-0.928422
0.696486
-0.759611
0.73205
-0.619623
0.760594
-0.518517
-0.435337
-0.207435
-1.25213
-0.126335
-1.24003
-0.0441487
-1.26696
0.0609852
-1.60261
0.163605
-1.57818
0.267388
-1.60351
0.373323
-1.63903
0.473182
-1.55479
0.558925
-1.35411
0.631117
-1.15908
0.691562
-0.988867
0.739349
-0.807398
0.776905
-0.657179
0.806782
-0.548394
-0.459126
-0.213591
-1.3388
-0.128074
-1.32555
-0.0413664
-1.35366
0.0695254
-1.7135
0.177744
-1.6864
0.287186
-1.71296
0.398913
-1.75075
0.504192
-1.66007
0.594616
-1.44453
0.670629
-1.2351
0.734292
-1.05253
0.784836
-0.857942
0.824165
-0.696508
0.855492
-0.579721
0.880307
-0.483942
-0.413321
-0.220053
-0.12985
-1.41575
-0.0384698
-1.44504
0.0785057
-1.83048
0.192614
-1.80051
0.308054
-1.8284
0.425837
-1.86854
0.53692
-1.77115
0.632249
-1.53986
0.712344
-1.31519
0.779495
-1.11968
0.832444
-0.910891
0.873854
-0.737917
0.907009
-0.612877
0.932967
-0.5099
-0.434142
-0.131755
-1.51088
-0.0353586
-1.54144
0.0879542
-1.95379
0.208328
-1.92088
0.330053
-1.95012
0.454295
-1.99278
0.571366
-1.88822
0.67193
-1.64043
0.756444
-1.3997
0.827151
-1.19039
0.883037
-0.966776
0.92654
-0.78142
0.961095
-0.647431
0.988457
-0.537262
1.01013
-0.455815
-0.399864
-0.133763
-1.61118
-0.0321315
-1.64307
0.0979599
-2.08388
0.224888
-2.04781
0.353271
-2.0785
0.484296
-2.1238
0.607854
-2.01178
0.713745
-1.74632
0.802762
-1.48872
0.877274
-1.2649
0.936125
-1.02563
0.981971
-0.827265
1.01844
-0.683901
1.04701
-0.565831
1.06977
-0.478577
-0.418561
-0.135844
-1.71697
-0.0286754
-1.75024
0.108511
-2.22107
0.24237
-2.18167
0.377749
-2.21388
0.515918
-2.26197
0.646085
-2.14195
0.757882
-1.85811
0.851793
-1.58263
0.930279
-1.34338
0.99228
-1.08763
1.04054
-0.875528
1.07868
-0.722042
1.10872
-0.595871
1.13252
-0.502375
-0.438173
-0.138075
-1.82852
-0.02505
-1.86326
0.119623
-2.36574
0.260779
-2.32283
0.403554
-2.35666
0.549332
-2.40775
0.686576
-2.27919
0.804394
-1.97593
0.903369
-1.6816
0.98603
-1.42604
1.05141
-1.15301
1.10212
-0.926235
1.14248
-0.762405
1.1739
-0.627284
1.19895
-0.52743
1.21917
-0.458387
-0.407165
-0.140376
-1.94614
-0.0212025
-1.98244
0.131398
-2.51834
0.280263
-2.47169
0.430843
-2.50724
0.584439
-2.56135
0.729348
-2.4241
0.85346
-2.10004
0.957826
-1.78597
1.04503
-1.51325
1.11377
-1.22175
1.16731
-0.979773
1.20953
-0.804623
1.2427
-0.660459
1.26884
-0.553568
1.29016
-0.47971
-0.424742
-0.142795
-2.07019
-0.0171177
-2.10811
0.143779
-2.67923
0.300782
-2.62869
0.459536
-2.66599
0.621643
-2.72345
0.774312
-2.57677
0.905353
-2.23108
1.01538
-1.896
1.1072
-1.60507
1.17969
-1.29423
1.23586
-1.03594
1.28048
-0.849252
1.3152
-0.695176
1.34254
-0.580905
1.365
-0.502167
-0.443013
-0.145342
-2.20102
-0.0128522
-2.2406
0.15687
-2.84895
0.322425
-2.79425
0.489919
-2.83349
0.660796
-2.89433
0.821868
-2.73784
0.95995
-2.36916
1.07583
-2.01188
1.17277
-1.70201
1.24917
-1.37062
1.30836
-1.09513
1.35518
-0.896073
1.39172
-0.731717
1.42054
-0.609721
1.44379
-0.525416
1.46314
-0.462365
-0.41939
-0.148048
-2.33894
-0.00827927
-2.38037
0.170664
-3.0279
0.345287
-2.96887
0.5219
-3.0101
0.702036
-3.07447
0.871909
-2.90771
1.01757
-2.51482
1.13982
-2.13413
1.24201
-1.80419
1.32236
-1.45097
1.38487
-1.15764
1.43413
-0.945338
1.47253
-0.770121
1.50273
-0.639917
1.52715
-0.54983
1.54713
-0.482349
-0.436461
-0.150811
-2.48442
-0.00345346
-2.52773
0.185301
-3.21665
0.369433
-3.153
0.555628
-3.19629
0.745782
-3.26462
0.924816
-3.08675
1.07835
-2.66836
1.2073
-2.26308
1.31484
-1.91173
1.39969
-1.53583
1.46532
-1.22327
1.51723
-0.997241
1.55762
-0.810518
1.58936
-0.671654
1.61512
-0.575584
1.63609
-0.503323
-0.4541
-0.153759
-2.63782
0.0016665
-2.68315
0.200681
-3.41566
0.394912
-3.34723
0.59129
-3.39267
0.791664
-3.465
0.980669
-3.27575
1.1425
-2.83018
1.27847
-2.39905
1.39194
-2.0252
1.48122
-1.6251
1.5505
-1.29255
1.60505
-1.05179
1.64751
-0.852978
1.68091
-0.705062
1.70777
-0.60244
1.72965
-0.525203
1.74816
-0.472606
-0.439133
-0.156839
-2.79958
0.00703205
-2.84702
0.216982
-3.62561
0.421722
-3.55197
0.628883
-3.59983
0.84031
-3.67642
1.03944
-3.47489
1.21029
-3.00103
1.35342
-2.54219
1.47303
-2.1448
1.56726
-1.71933
1.64014
-1.36543
1.69776
-1.10941
1.7424
-0.897615
1.7774
-0.74007
1.80563
-0.630667
1.8287
-0.548272
1.84794
-0.491847
-0.455874
-0.160066
-2.97019
0.0127659
-3.01985
0.234144
-3.84699
0.45019
-3.76801
0.668645
-3.81829
0.891657
-3.89944
1.10161
-3.68484
1.28152
-3.18093
1.4328
-2.69347
1.55883
-2.27083
1.6581
-1.8186
1.73482
-1.44215
1.79544
-1.17003
1.84245
-0.944622
1.87932
-0.776949
1.90896
-0.660301
1.93298
-0.572292
1.95323
-0.512091
-0.473461
-0.163457
-3.1501
0.0188213
-3.20213
0.252286
-4.08045
0.480087
-3.99581
0.710491
-4.04869
0.945536
-4.13448
1.16706
-3.90636
1.35709
-3.37097
1.51632
-2.8527
1.6492
-2.40371
1.75382
-1.92322
1.83484
-1.52317
1.89849
-1.23368
1.94813
-0.99427
1.98666
-0.815472
2.01786
-0.691506
2.04323
-0.597654
2.06441
-0.533272
2.08274
-0.491794
-0.467916
-0.167017
-3.33982
0.0252074
-3.39435
0.27145
-4.32669
0.511695
-4.23606
0.754724
-4.29172
1.00273
-4.38248
1.23634
-4.13998
1.43649
-3.57111
1.60447
-3.02069
1.74468
-2.54391
1.85479
-2.03332
1.94017
-1.60854
2.00738
-1.30088
2.05946
-1.04635
2.10017
-0.85619
2.13285
-0.724178
2.15947
-0.624273
2.18159
-0.555393
2.2008
-0.511003
-0.485228
-0.170761
-3.53992
0.0319486
-3.59706
0.291681
-4.58642
0.545109
-4.48949
0.801321
-4.54793
1.06279
-4.64395
1.30922
-4.38641
1.52039
-3.78228
1.69751
-3.1978
1.84532
-2.69172
1.96154
-2.14954
2.05141
-1.69841
2.12215
-1.37162
2.17707
-1.10127
2.21988
-0.898999
2.25427
-0.758572
2.28207
-0.652062
2.30526
-0.578586
2.32542
-0.531158
-0.503426
-0.174675
-3.75094
0.0391262
-3.81086
0.313078
-4.86037
0.580242
-4.75665
0.850605
-4.8183
1.12641
-4.91975
1.38627
-4.64627
1.60897
-4.00498
1.79574
-3.38457
1.95152
-2.8475
2.07412
-2.27214
2.16873
-1.79302
2.24337
-1.44626
2.30107
-1.15897
2.34624
-0.944171
2.3823
-0.794633
2.41166
-0.681418
2.43598
-0.602905
2.45704
-0.552221
2.47591
-0.522297
-0.508205
-0.178812
-3.97347
0.0466629
-4.03633
0.33557
-5.14928
0.6174
-5.03848
0.902558
-5.10345
1.1935
-5.2107
1.46759
-4.92036
1.70249
-4.23988
1.89941
-3.58148
2.06363
-3.01173
2.19283
-2.40134
2.29268
-1.89288
2.37118
-1.52476
2.43194
-1.21973
2.47942
-0.991653
2.51753
-0.832742
2.54823
-0.712112
2.57382
-0.628497
2.59588
-0.574275
2.61579
-0.542209
-0.526859
-0.183141
-4.20821
0.0546751
-4.27415
0.35931
-5.45391
0.656768
-5.33593
0.957359
-5.40405
1.26435
-5.51769
1.5534
-5.20941
1.80101
-4.48749
2.00879
-3.78926
2.18198
-3.18492
2.3181
-2.53746
2.4233
-1.99807
2.50608
-1.60754
2.57019
-1.28384
2.62015
-1.04161
2.66011
-0.872703
2.69242
-0.744417
2.71931
-0.655385
2.74236
-0.597328
2.76323
-0.563075
-0.546487
-0.187682
-4.45577
0.063134
-4.52496
0.384487
-5.77526
0.698089
-5.64953
1.01515
-5.72111
1.3389
-5.84143
1.6438
-5.51432
1.90508
-4.74877
2.12407
-4.00824
2.30673
-3.36757
2.45023
-2.68096
2.56133
-2.10917
2.64844
-1.69466
2.71597
-1.35137
2.76853
-1.09417
2.81078
-0.914948
2.84463
-0.778262
2.87298
-0.683733
2.89729
-0.621639
2.91904
-0.584827
-0.566817
-0.192514
-4.71681
0.0720182
-4.78949
0.411012
-6.11425
0.74178
-5.9803
1.0764
-6.05573
1.41766
-6.18269
1.73937
-5.83603
2.01481
-5.0242
2.24597
-4.2394
2.43856
-3.56017
2.5899
-2.83229
2.70673
-2.22599
2.79876
-1.78669
2.86989
-1.4225
2.92527
-1.14955
2.96954
-0.959215
3.00532
-0.814046
3.0349
-0.713313
3.06042
-0.647152
3.08329
-0.607705
3.10488
-0.588404
-0.587888
-0.197515
-4.99221
0.0814859
-5.06849
0.439029
-6.47179
0.787795
-6.32906
1.1407
-6.40863
1.50096
-6.54295
1.84006
-6.17513
2.13079
-5.31492
2.37435
-4.48297
2.57749
-3.76331
2.73714
-2.99194
2.8604
-2.34925
2.95729
-1.88359
3.03218
-1.49738
3.09053
-1.2079
3.13727
-1.00595
3.17492
-0.851699
3.20604
-0.74443
3.23285
-0.673966
3.25693
-0.631781
3.27931
-0.610786
-0.610151
-0.202854
-5.28261
0.0914342
-5.36278
0.468618
-6.84897
0.836577
-6.69702
1.20883
-6.78089
1.58869
-6.9228
1.94649
-6.53294
2.25297
-5.6214
2.50994
-4.73994
2.72412
-3.97748
2.89241
-3.16023
3.02244
-2.47927
3.1245
-1.98565
3.20359
-1.57648
3.2651
-1.2694
3.31411
-1.05497
3.35378
-0.89137
3.38668
-0.777326
3.41478
-0.702061
3.44004
-0.657046
3.46361
-0.634349
-0.633525
-0.208447
-5.58891
0.101968
-5.67319
0.499802
-7.2468
0.887914
-7.08513
1.28056
-7.17353
1.68122
-7.32347
2.05873
-6.91044
2.38209
-5.94476
2.65312
-5.01097
2.87903
-4.2034
3.05646
-3.33765
3.19347
-2.61628
3.30127
-2.09345
3.38442
-1.65963
3.44924
-1.33422
3.50107
-1.10681
3.54266
-0.932954
3.57717
-0.811837
3.6069
-0.731786
3.6333
-0.683444
3.65823
-0.65927
-0.657857
-0.214288
-5.91202
0.113107
-6.00059
0.532681
-7.66638
0.942185
-7.49463
1.35638
-7.58773
1.77904
-7.74612
2.1771
-7.3085
2.51812
-6.28578
2.80416
-5.29701
3.04237
-4.44161
3.22952
-3.52481
3.37409
-2.76085
3.48749
-2.20685
3.57533
-1.74746
3.64358
-1.40247
3.69813
-1.16136
3.7421
-0.976919
3.77836
-0.848094
3.80952
-0.762945
3.83744
-0.711358
3.86347
-0.685307
3.88925
-0.68363
-0.702709
-0.220522
-6.25278
0.124791
-6.3459
0.567428
-8.10901
0.999371
-7.92657
1.43626
-8.02461
1.88215
-8.19201
2.30217
-7.72852
2.66185
-6.64546
2.96332
-5.59848
3.21469
-4.69297
3.41221
-3.72233
3.56444
-2.91308
3.68426
-2.32667
3.77678
-1.83999
3.8487
-1.47438
3.90616
-1.21882
3.9524
-1.02316
3.9907
-0.886388
4.02347
-0.795717
4.0528
-0.740686
4.08017
-0.712671
4.10711
-0.710565
-0.730867
-0.227013
-6.61222
0.137279
-6.71019
0.604042
-8.57577
1.05969
-8.38221
1.52053
-8.48546
1.99104
-8.66252
2.43402
-8.1715
2.81355
-7.02499
3.1316
-5.91653
3.39673
-4.95809
3.60487
-3.93046
3.76563
-3.07383
3.89181
-2.45286
3.9893
-1.93747
4.06525
-1.55033
4.12568
-1.27925
4.17447
-1.07195
4.21475
-0.926659
4.24928
-0.830249
4.28009
-0.771494
4.30888
-0.741459
4.3373
-0.738983
-0.760207
-0.233906
-6.99134
0.150263
-7.09435
0.642905
-9.06841
1.12345
-8.86276
1.6097
-8.9717
2.10585
-9.15867
2.57314
-8.63878
2.9735
-7.42536
3.30905
-6.25207
3.58862
-5.23767
3.80823
-4.15006
3.97774
-3.24334
4.11088
-2.58599
4.21369
-2.04029
4.29358
-1.63022
4.35741
-1.34308
4.4087
-1.12324
4.4512
-0.969165
4.48741
-0.866447
4.51997
-0.804057
4.55026
-0.771741
4.58007
-0.768796
-0.791111
-0.241121
-7.39124
0.164259
-7.49973
0.683597
-9.58774
1.19069
-9.36984
1.70352
-9.48454
2.22695
-9.68209
2.72003
-9.13187
3.14235
-7.84767
3.4964
-6.60613
3.79132
-5.53259
4.02288
-4.38162
4.20164
-3.4221
4.34197
-2.72633
4.45041
-2.14873
4.53467
-1.71448
4.60194
-1.41036
4.65589
-1.17718
4.70057
-1.01385
4.73885
-0.904732
4.77309
-0.838283
4.8049
-0.803556
4.83626
-0.800152
-0.823798
-0.248782
-7.81307
0.178689
-7.9272
0.726802
-10.1359
1.26166
-9.9047
1.80283
-10.0257
2.35498
-10.2342
2.8751
-9.65197
3.32049
-8.29307
3.69387
-6.9795
4.005
-5.84372
4.24931
-4.62592
4.43789
-3.61067
4.58586
-2.8743
4.70002
-2.26289
4.78885
-1.80331
4.85976
-1.48126
4.9168
-1.23422
4.96384
-1.06089
5.00425
-0.945139
5.04007
-0.874105
5.07372
-0.837195
5.10669
-0.833126
5.14092
-0.85802
-0.864561
-0.256827
-8.258
0.194176
-8.3782
0.772327
-10.714
1.33645
-10.4688
1.90735
-10.5966
2.49002
-10.8169
3.03856
-10.2005
3.50865
-8.76315
3.90254
-7.37338
4.2307
-6.17188
4.48835
-4.88358
4.68711
-3.80943
4.84308
-3.03027
4.96366
-2.38347
5.0573
-1.89695
5.13201
-1.55598
5.19196
-1.29417
5.24162
-1.11054
5.28397
-0.987491
5.32205
-0.912178
5.35718
-0.872323
5.39207
-0.868014
5.42805
-0.894
-0.901099
-0.265315
-8.72728
0.210345
-8.85386
0.82016
-11.3238
1.41556
-11.0642
2.01774
-11.1988
2.63233
-11.4315
3.21116
-10.7794
3.70701
-9.259
4.12258
-7.78895
4.46877
-6.51806
4.74043
-5.15523
4.95002
-4.01902
5.1146
-3.19485
5.24157
-2.51044
5.34029
-1.99567
5.41907
-1.63475
5.48246
-1.35755
5.53471
-1.1628
5.57944
-1.03221
5.61931
-0.952055
5.65649
-0.909501
5.69307
-0.904587
5.73112
-0.932047
-0.939659
-0.274198
-9.22244
0.227672
-9.35573
0.870968
-11.9671
1.49889
-11.6921
2.13425
-11.8341
2.78248
-12.0797
3.39321
-11.3901
3.91644
-9.78222
4.35483
-8.22735
4.71986
-6.88309
5.00652
-5.44189
5.22744
-4.23994
5.401
-3.36841
5.53499
-2.64443
5.63905
-2.09973
5.72202
-1.71772
5.78872
-1.42426
5.84386
-1.21793
5.89096
-1.07931
5.93308
-0.994166
5.97236
-0.948786
6.01095
-0.943167
6.05083
-0.971931
-0.980199
-0.283684
-9.74466
0.245603
-9.88501
0.92443
-12.6459
1.58691
-12.3546
2.25712
-12.5043
2.94113
-12.7637
3.58534
-12.0343
4.13729
-10.3342
4.59987
-8.68993
4.98487
-7.26808
5.28698
-5.744
5.52027
-4.47323
5.70318
-3.55132
5.84441
-2.78565
5.95416
-2.20948
6.0418
-1.80536
6.11208
-1.49453
6.17015
-1.27601
6.21987
-1.12903
6.26413
-1.03842
6.30541
-0.990063
6.34605
-0.983806
6.38823
-1.01411
-1.02301
-0.293732
-10.2955
0.264862
-10.4436
0.980727
-13.3618
1.6796
-13.0535
2.38666
-13.2114
3.10847
-13.4855
3.78815
-12.714
4.37057
-10.9166
4.85821
-9.17756
5.26441
-7.67428
5.58314
-6.06273
5.82895
-4.71904
6.02202
-3.74438
6.17109
-2.93472
6.28669
-2.32509
6.37898
-1.89765
6.45316
-1.56871
6.51448
-1.33732
6.56667
-1.18123
6.6139
-1.08565
6.65724
-1.0334
6.6996
-1.02617
6.7436
-1.05812
-1.06905
-0.30426
-10.8765
0.284706
-11.0326
1.04011
-14.1172
1.77756
-13.7909
2.52373
-13.9576
3.28488
-14.2467
4.00213
-13.4312
4.6166
-11.5311
5.13105
-9.69201
5.55929
-8.10252
5.8955
-6.39894
6.15489
-4.97842
6.35843
-3.94793
6.51583
-3.09211
6.63814
-2.4474
6.73448
-1.99398
6.81326
-1.6475
6.87697
-1.40103
6.93275
-1.237
6.98171
-1.13461
7.02792
-1.0796
7.07254
-1.07079
7.11958
-1.10516
7.16661
-1.11609
-1.0295
-0.315255
-11.4895
0.306173
-11.654
1.10299
-14.914
1.88089
-14.5688
2.66792
-14.7446
3.4713
-15.0501
4.22772
-14.1877
4.8761
-12.1794
5.41859
-10.2345
5.87037
-8.5543
6.22509
-6.75366
6.49882
-5.25215
6.71259
-4.16169
6.87786
-3.25739
7.00637
-2.57591
7.11062
-2.09823
7.19266
-1.72955
7.26125
-1.46961
7.31875
-1.29451
7.36998
-1.18584
7.41847
-1.1281
7.46672
-1.11903
7.51621
-1.15465
7.56585
-1.16572
-1.07564
-0.227916
-11.93
0.229828
-12.1117
0.860411
-15.5446
1.56113
-15.2695
2.4096
-15.5931
3.50427
-16.1447
4.87669
-15.5601
6.25645
-13.5592
6.15128
-10.1293
6.01883
-8.42185
5.90968
-6.6445
5.82441
-5.16689
5.75858
-4.09586
5.70964
-3.20845
5.67163
-2.53789
5.64289
-2.06949
5.62004
-1.7067
5.6035
-1.45308
5.58943
-1.28044
5.57765
-1.17407
5.56651
-1.11696
5.55833
-1.11086
5.55297
-1.14929
5.55048
-1.16323
-1.07679
-0.247685
-12.4148
0.256068
-12.6155
0.949879
-16.2384
1.72086
-16.0405
2.65475
-16.527
3.85997
-17.3499
5.37165
-17.0718
6.891
-15.0785
6.77361
-10.0119
6.62694
-8.27518
6.50626
-6.52383
6.41063
-5.07125
6.33803
-4.02326
6.2822
-3.15262
6.2427
-2.49839
6.21053
-2.03732
6.18627
-1.68244
6.16537
-1.43218
6.14929
-1.26436
6.13664
-1.16141
6.12584
-1.10616
6.11674
-1.10176
6.11062
-1.14317
6.10755
-1.16015
-1.07989
-0.269414
-12.9479
0.284687
-13.1696
1.04828
-17.002
1.89716
-16.8894
2.92509
-17.5549
4.25208
-18.6769
5.91639
-18.7361
7.58902
-16.7512
7.45664
-9.87954
7.29539
-8.11394
7.15955
-6.38798
7.05588
-4.96758
6.97578
-3.94316
6.91481
-3.09164
6.86908
-2.45266
6.83374
-2.00199
6.80704
-1.65573
6.78586
-1.411
6.76792
-1.24642
6.75327
-1.14677
6.7417
-1.09458
6.73058
-1.09064
6.72265
-1.13523
6.72043
-1.15793
-1.0826
-0.292547
-13.5344
0.31701
-13.7791
1.15719
-17.8422
2.09109
-17.8233
3.22267
-18.6865
4.68351
-20.1378
6.516
-20.5686
8.35852
-18.5937
8.21141
-9.73244
8.03067
-7.93319
7.88211
-6.23942
7.76611
-4.85159
7.67664
-3.85369
7.60971
-3.02472
7.55815
-2.40109
7.51998
-1.96382
7.48982
-1.62557
7.46728
-1.38847
7.44773
-1.22687
7.43126
-1.13029
7.41649
-1.07982
7.40741
-1.08154
7.39906
-1.12689
7.39542
-1.15428
-1.08512
-0.3179
-14.1793
0.352847
-14.4499
1.27708
-18.7664
2.30524
-18.8514
3.55042
-19.9317
5.15853
-21.7459
7.17541
-22.5854
9.20223
-20.6205
9.03916
-9.56938
8.83982
-7.73385
8.67589
-6.07548
8.54854
-4.72423
8.44785
-3.753
8.37429
-2.95115
8.31858
-2.34539
8.27665
-1.9219
8.24333
-1.59225
8.21589
-1.36103
8.19487
-1.20584
8.17681
-1.11224
8.16166
-1.06466
8.14963
-1.06952
8.13989
-1.11714
8.13759
-1.15198
-1.08638
-0.344984
-14.8889
0.392448
-15.1873
1.40969
-19.7836
2.54075
-19.9825
3.91123
-21.3021
5.68131
-23.5159
7.90236
-24.8065
10.1332
-22.8513
9.95089
-9.38708
9.72957
-7.51253
9.54801
-5.89392
9.40652
-4.58274
9.29798
-3.64446
9.21583
-2.869
9.15394
-2.2835
9.10612
-1.87408
9.06997
-1.55611
9.04168
-1.33274
9.01826
-1.18243
8.99751
-1.09148
8.98216
-1.04932
8.96619
-1.05355
8.9578
-1.10875
8.95325
-1.14742
-1.08924
-0.374865
-15.6692
0.436768
-15.999
1.55579
-20.9027
2.80024
-21.2269
4.3084
-22.8103
6.25616
-25.4637
8.70012
-27.2504
11.1541
-25.3053
10.953
-9.18593
10.7095
-7.26905
10.5081
-5.69254
10.3524
-4.42702
10.2318
-3.52386
10.1405
-2.77769
10.0742
-2.2172
10.0209
-1.82079
9.98094
-1.51618
9.94834
-1.30014
9.92141
-1.1555
9.90083
-1.0709
9.88167
-1.03015
9.86706
-1.03895
9.85647
-1.09815
9.85122
-1.14217
-1.09267
-0.40688
-16.5274
0.48569
-16.8915
1.71666
-22.1336
3.08581
-22.5961
4.74502
-24.4695
6.88886
-27.6075
9.57741
-29.939
12.2765
-28.0044
12.0557
-8.96518
11.7864
-6.99977
11.5644
-5.47054
11.392
-4.25454
11.259
-3.39093
11.1606
-2.67923
11.0841
-2.14072
11.0283
-1.76501
10.9824
-1.47028
10.947
-1.26471
10.9194
-1.12792
10.894
-1.04552
10.8738
-1.00999
10.857
-1.0221
10.8444
-1.08557
10.84
-1.13777
10.8429
-1.09561
-1.0104
-0.44171
-17.4713
0.539878
-17.8731
1.8939
-23.4877
3.40012
-24.1023
5.22554
-26.2949
7.58446
-29.9664
10.5403
-32.8948
13.5123
-30.9764
13.2685
-8.72146
12.9715
-6.70277
12.7281
-5.22716
12.5362
-4.06259
12.3904
-3.24511
12.279
-2.56785
12.1967
-2.05844
12.1326
-1.70089
12.085
-1.42268
12.0458
-1.22554
12.0127
-1.09479
11.9853
-1.01815
11.963
-0.987677
11.944
-1.00316
11.9309
-1.07245
11.9237
-1.13059
11.9277
-1.09959
-1.02224
-0.479368
-18.5094
0.600219
-18.9527
2.08938
-24.9768
3.74582
-25.7587
5.75358
-28.3027
8.34686
-32.5597
11.5996
-36.1475
14.8669
-34.2437
14.6026
-8.45717
14.2748
-6.375
14.006
-4.95834
13.7957
-3.85228
13.6325
-3.08187
13.5096
-2.44499
13.4177
-1.96651
13.3479
-1.63102
13.2924
-1.36723
13.2486
-1.18174
13.2143
-1.06042
13.184
-0.987922
13.1587
-0.962327
13.1393
-0.983761
13.1234
-1.05658
13.1163
-1.12347
13.119
-1.10234
-1.03394
-0.520419
-19.6509
0.666986
-20.1401
2.30447
-26.6143
4.12596
-27.5802
6.33359
-30.5103
9.18496
-35.411
12.7608
-39.7234
16.3569
-37.8397
16.0688
-8.16905
15.7098
-6.01604
15.4117
-4.66016
15.1793
-3.61988
14.9977
-2.9002
14.8621
-2.30937
14.7601
-1.86443
14.6808
-1.55176
14.6198
-1.30623
14.5724
-1.13433
14.5316
-1.0196
14.5001
-0.956359
14.4723
-0.93452
14.4481
-0.959616
14.4316
-1.04006
14.4251
-1.11703
14.427
-1.10422
-1.04834
-0.564478
-20.9058
0.740611
-21.4452
2.54096
-28.4147
4.54319
-29.5825
6.97061
-32.9377
10.106
-38.5465
14.0364
-43.6536
17.9958
-41.7991
17.6824
-7.85558
17.2904
-5.62404
16.9589
-4.32861
16.6987
-3.3595
16.497
-2.69851
16.3485
-2.16084
16.2364
-1.75233
16.1514
-1.46667
16.0869
-1.24174
16.0331
-1.08045
15.9908
-0.977278
15.9528
-0.918421
15.9219
-0.903555
15.896
-0.933698
15.8777
-1.02173
15.8701
-1.10948
15.8768
-1.11091
-1.0648
-0.611789
0.822865
2.80092
5.00105
7.66689
11.111
15.4349
19.7858
19.4559
19.0313
18.6716
18.3872
18.1644
17.9942
17.8683
17.7727
17.7004
17.6466
17.6031
17.57
17.5416
17.5202
17.5027
17.4933
17.496
)
;

boundaryField
{
    inlet
    {
        type            calculated;
        value           nonuniform List<scalar> 
26
(
-22.2856
-22.8798
-30.3927
-31.7826
-35.6036
-41.9905
-47.9776
-46.1499
-7.52566
-5.19945
-3.96892
-3.07502
-2.47563
-1.99066
-1.62639
-1.37109
-1.16935
-1.02669
-0.933774
-0.885248
-0.875094
-0.912291
-1.00422
-1.10005
-1.11357
-1.08074
)
;
    }
    outlet
    {
        type            calculated;
        value           nonuniform List<scalar> 0();
    }
    walls
    {
        type            calculated;
        value           nonuniform List<scalar> 0();
    }
    frontAndBack
    {
        type            empty;
        value           nonuniform List<scalar> 0();
    }
    procBoundary0to1
    {
        type            processor;
        value           nonuniform List<scalar> 
94
(
0.280819
-0.00659032
0.328002
0.0396862
0.377869
0.091215
0.404986
0.14526
0.400898
0.198307
0.387093
0.249906
0.268814
0.400349
0.321734
0.344352
0.392309
0.397425
0.424001
0.452022
0.402986
0.50833
0.540785
0.388166
0.598791
0.636036
0.675385
0.390995
0.738484
0.783295
0.83057
0.393331
0.900296
0.953786
0.381884
1.02811
1.08847
1.15213
0.390138
1.23619
1.30774
1.38327
0.403247
1.47928
1.5642
1.65373
0.422845
1.76445
1.86469
1.97081
0.451354
2.0993
2.21812
2.34362
0.490346
2.49377
2.63445
2.78286
2.93937
0.566773
3.126
3.30158
3.48698
3.68256
0.676198
3.91576
4.13527
4.36664
4.61098
4.86895
0.829714
5.17576
5.46459
5.76967
6.09137
6.43104
6.78964
0.985963
7.21015
7.61199
5.55163
6.11066
6.72315
7.39793
8.13885
8.95611
9.85465
0.999381
10.854
11.9395
13.1307
14.4414
15.8933
17.512
)
;
    }
    procBoundary0to4
    {
        type            processor;
        value           nonuniform List<scalar> 
72
(
0.171789
0.174479
0.177613
0.181091
0.184973
0.189261
0.19392
0.19884
0.204211
0.209922
0.215996
0.222452
0.229309
0.236554
0.244243
0.25239
0.260953
0.269984
0.279569
0.289628
0.300259
0.311454
-1.4302
0.226884
0.234066
0.241628
0.249631
0.257997
0.266837
0.276178
0.285969
0.296286
0.307158
0.318605
0.330674
0.343364
0.356745
0.370856
0.385695
0.401347
0.417872
0.435243
0.453562
0.47291
0.493258
0.514745
0.537398
0.561278
0.586459
0.613023
0.641023
0.670609
0.701758
0.734593
0.769364
0.805903
0.844523
0.885321
0.928272
0.6684
0.7325
0.802456
0.879022
0.962837
1.05456
1.15518
1.26507
1.38565
1.51743
1.66189
1.81939
1.99156
)
;
    }
    procBoundary0to5
    {
        type            processor;
        value           nonuniform List<scalar> 4(0.214048 0.215584 0.226266 0.276095);
    }
}


// ************************************************************************* //
