/*--------------------------------*- C++ -*----------------------------------*\
| =========                 |                                                 |
| \\      /  F ield         | OpenFOAM: The Open Source CFD Toolbox           |
|  \\    /   O peration     | Version:  2306                                  |
|   \\  /    A nd           | Website:  www.openfoam.com                      |
|    \\/     M anipulation  |                                                 |
\*---------------------------------------------------------------------------*/
FoamFile
{
    version     2.0;
    format      ascii;
    arch        "LSB;label=32;scalar=64";
    class       volScalarField;
    location    "75";
    object      turbulenceProperties:epsilon;
}
// * * * * * * * * * * * * * * * * * * * * * * * * * * * * * * * * * * * * * //

dimensions      [0 2 -3 0 0 0 0];

internalField   nonuniform List<scalar> 
1340
(
0.000149259
0.00014603
0.000142755
0.00013867
0.000132701
0.00010693
0.000104458
0.000102019
9.91213e-05
9.5016e-05
9.07817e-05
7.76052e-05
7.57117e-05
7.38619e-05
7.17972e-05
6.89415e-05
6.60441e-05
6.28326e-05
5.69411e-05
5.54957e-05
5.40858e-05
5.25969e-05
5.05924e-05
4.85698e-05
4.63519e-05
4.3914e-05
4.21818e-05
4.10777e-05
4.00054e-05
3.8919e-05
3.74974e-05
3.60635e-05
3.45066e-05
3.28162e-05
3.10608e-05
3.15129e-05
3.06705e-05
2.98562e-05
2.90569e-05
2.80351e-05
2.70043e-05
2.58968e-05
2.47103e-05
2.34964e-05
2.2276e-05
2.37194e-05
2.30801e-05
2.24591e-05
2.18673e-05
2.11238e-05
2.03741e-05
1.95759e-05
1.87336e-05
1.78839e-05
1.70335e-05
1.79743e-05
1.74905e-05
1.70161e-05
1.65722e-05
1.60263e-05
1.54749e-05
1.48936e-05
1.42892e-05
1.3688e-05
1.30938e-05
1.25059e-05
1.37043e-05
1.33369e-05
1.29735e-05
1.26367e-05
1.22319e-05
1.18235e-05
1.13957e-05
1.09585e-05
1.05285e-05
1.01093e-05
9.69479e-06
1.0506e-05
1.02246e-05
9.94515e-06
9.68698e-06
9.38466e-06
9.07967e-06
8.76257e-06
8.4436e-06
8.13414e-06
7.83502e-06
7.54316e-06
7.25681e-06
8.09211e-06
7.87499e-06
7.65881e-06
7.45975e-06
7.23211e-06
7.00263e-06
6.76663e-06
6.53232e-06
6.30765e-06
6.09275e-06
5.88573e-06
5.68307e-06
6.25799e-06
6.08872e-06
5.92066e-06
5.76683e-06
5.59391e-06
5.42051e-06
5.24403e-06
5.07099e-06
4.90706e-06
4.7519e-06
4.60431e-06
4.45923e-06
4.85589e-06
4.72311e-06
4.59154e-06
4.47245e-06
4.34035e-06
4.20884e-06
4.07635e-06
3.94796e-06
3.82763e-06
3.71496e-06
3.60881e-06
3.50647e-06
3.40555e-06
3.77887e-06
3.67396e-06
3.57086e-06
3.47861e-06
3.37707e-06
3.27667e-06
3.1768e-06
3.08086e-06
2.9922e-06
2.91001e-06
2.83337e-06
2.76041e-06
2.68796e-06
2.94812e-06
2.86494e-06
2.78448e-06
2.71282e-06
2.63432e-06
2.55719e-06
2.4814e-06
2.40925e-06
2.34334e-06
2.28297e-06
2.22736e-06
2.17513e-06
2.12371e-06
2.0727e-06
2.30535e-06
2.23943e-06
2.17678e-06
2.12102e-06
2.05998e-06
2.0003e-06
1.94224e-06
1.8876e-06
1.83829e-06
1.79356e-06
1.75294e-06
1.7152e-06
1.67846e-06
1.64172e-06
1.80675e-06
1.75473e-06
1.70601e-06
1.66247e-06
1.61474e-06
1.56821e-06
1.52336e-06
1.4816e-06
1.44426e-06
1.41082e-06
1.38085e-06
1.35343e-06
1.32705e-06
1.30021e-06
1.41929e-06
1.37825e-06
1.34037e-06
1.30624e-06
1.26873e-06
1.23219e-06
1.19722e-06
1.16499e-06
1.13647e-06
1.11117e-06
1.08877e-06
1.0686e-06
1.04941e-06
1.03026e-06
1.01063e-06
1.11763e-06
1.08506e-06
1.05551e-06
1.02866e-06
9.99081e-07
9.7023e-07
9.42814e-07
9.17677e-07
8.9564e-07
8.76255e-07
8.59281e-07
8.44258e-07
8.30069e-07
8.16148e-07
8.01814e-07
8.81961e-07
8.56057e-07
8.32873e-07
8.11709e-07
7.88298e-07
7.6544e-07
7.43839e-07
7.24095e-07
7.069e-07
6.91862e-07
6.7884e-07
6.67471e-07
6.56853e-07
6.46565e-07
6.35838e-07
6.97256e-07
6.76651e-07
6.58317e-07
6.41591e-07
6.23031e-07
6.04913e-07
5.87819e-07
5.72234e-07
5.58708e-07
5.4693e-07
5.36793e-07
5.28046e-07
5.20028e-07
5.12282e-07
5.04457e-07
4.95984e-07
5.52099e-07
5.35644e-07
5.21035e-07
5.07813e-07
4.93114e-07
4.78726e-07
4.65172e-07
4.52829e-07
4.42124e-07
4.32819e-07
4.24845e-07
4.18053e-07
4.11844e-07
4.05947e-07
4.00078e-07
3.93709e-07
4.24509e-07
4.12828e-07
4.02354e-07
3.90715e-07
3.79292e-07
3.68534e-07
3.58733e-07
3.50231e-07
3.4283e-07
3.36497e-07
3.31146e-07
3.26309e-07
3.21743e-07
3.17259e-07
3.12495e-07
3.07262e-07
3.36724e-07
3.27368e-07
3.19059e-07
3.09842e-07
3.00779e-07
2.92232e-07
2.84434e-07
2.77667e-07
2.71755e-07
2.66696e-07
2.62439e-07
2.58618e-07
2.55035e-07
2.51565e-07
2.47933e-07
2.43921e-07
2.67271e-07
2.59773e-07
2.53174e-07
2.45872e-07
2.38682e-07
2.31888e-07
2.25685e-07
2.20276e-07
2.15533e-07
2.11472e-07
2.08057e-07
2.05012e-07
2.02182e-07
1.99464e-07
1.96667e-07
1.93529e-07
2.12262e-07
2.06251e-07
2.0101e-07
1.95222e-07
1.89509e-07
1.84106e-07
1.79163e-07
1.74833e-07
1.71022e-07
1.67743e-07
1.64991e-07
1.62535e-07
1.60274e-07
1.58141e-07
1.55954e-07
1.53577e-07
1.50892e-07
1.68667e-07
1.63864e-07
1.59695e-07
1.55099e-07
1.50553e-07
1.46249e-07
1.42298e-07
1.38829e-07
1.35754e-07
1.33098e-07
1.30862e-07
1.28876e-07
1.27057e-07
1.25357e-07
1.23636e-07
1.2179e-07
1.19708e-07
1.34118e-07
1.30293e-07
1.26975e-07
1.23317e-07
1.19687e-07
1.16246e-07
1.13082e-07
1.10291e-07
1.07806e-07
1.05644e-07
1.03819e-07
1.02199e-07
1.00718e-07
9.93617e-08
9.80017e-08
9.65518e-08
9.48965e-08
1.0674e-07
1.03704e-07
1.01059e-07
9.81408e-08
9.52348e-08
9.24738e-08
8.99294e-08
8.76764e-08
8.56574e-08
8.3889e-08
8.2394e-08
8.10644e-08
7.98562e-08
7.87578e-08
7.76707e-08
7.6521e-08
7.52541e-08
7.37761e-08
8.50334e-08
8.26306e-08
8.05207e-08
7.819e-08
7.58586e-08
7.36353e-08
7.15816e-08
6.97558e-08
6.81076e-08
6.6656e-08
6.54238e-08
6.43261e-08
6.33337e-08
6.24379e-08
6.15627e-08
6.06482e-08
5.96475e-08
5.8486e-08
6.78075e-08
6.5904e-08
6.42211e-08
6.23611e-08
6.04913e-08
5.87e-08
5.70394e-08
5.55535e-08
5.42031e-08
5.30081e-08
5.19875e-08
5.10777e-08
5.02558e-08
4.95212e-08
4.88086e-08
4.80746e-08
4.72847e-08
4.63519e-08
5.41124e-08
5.25979e-08
5.12595e-08
4.978e-08
4.82846e-08
4.68448e-08
4.55017e-08
4.42919e-08
4.31835e-08
4.21951e-08
4.13474e-08
4.05912e-08
3.99102e-08
3.9304e-08
3.87241e-08
3.81341e-08
3.75001e-08
3.67747e-08
3.59203e-08
4.32015e-08
4.19922e-08
4.09297e-08
3.97593e-08
3.85694e-08
3.74162e-08
3.63345e-08
3.53514e-08
3.44427e-08
3.36247e-08
3.29198e-08
3.22901e-08
3.17236e-08
3.12238e-08
3.07492e-08
3.02708e-08
2.97634e-08
2.91872e-08
2.85051e-08
3.44927e-08
3.35279e-08
3.26863e-08
3.17655e-08
3.08233e-08
2.99048e-08
2.90383e-08
2.82429e-08
2.74992e-08
2.6824e-08
2.62382e-08
2.57145e-08
2.5244e-08
2.48311e-08
2.44432e-08
2.40558e-08
2.3649e-08
2.31893e-08
2.26357e-08
2.75363e-08
2.67706e-08
2.6105e-08
2.53833e-08
2.46403e-08
2.39125e-08
2.32221e-08
2.2582e-08
2.19768e-08
2.14211e-08
2.09353e-08
2.05001e-08
2.01099e-08
1.97709e-08
1.94551e-08
1.91427e-08
1.88187e-08
1.84501e-08
1.80187e-08
1.75084e-08
2.19808e-08
2.1376e-08
2.08524e-08
2.02876e-08
1.97033e-08
1.91292e-08
1.85822e-08
1.80699e-08
1.75788e-08
1.71227e-08
1.67215e-08
1.63609e-08
1.6039e-08
1.5761e-08
1.55054e-08
1.52555e-08
1.49976e-08
1.47061e-08
1.43617e-08
1.39557e-08
1.75466e-08
1.70714e-08
1.66613e-08
1.62206e-08
1.57625e-08
1.53108e-08
1.4879e-08
1.44703e-08
1.40731e-08
1.37003e-08
1.33701e-08
1.30726e-08
1.28073e-08
1.25809e-08
1.23751e-08
1.21764e-08
1.19738e-08
1.17433e-08
1.14725e-08
1.11465e-08
1.40079e-08
1.36364e-08
1.33172e-08
1.29752e-08
1.26166e-08
1.22627e-08
1.19232e-08
1.1598e-08
1.12778e-08
1.09735e-08
1.07022e-08
1.04575e-08
1.02404e-08
1.00567e-08
9.89224e-09
9.73581e-09
9.57751e-09
9.39949e-09
9.18645e-09
8.92923e-09
8.62263e-09
1.11837e-08
1.08944e-08
1.06478e-08
1.03842e-08
1.01054e-08
9.82953e-09
9.56377e-09
9.3057e-09
9.04761e-09
8.79991e-09
8.57786e-09
8.37741e-09
8.19993e-09
8.05173e-09
7.92084e-09
7.79864e-09
7.67746e-09
7.53973e-09
7.37236e-09
7.1693e-09
6.92685e-09
8.92855e-09
8.70392e-09
8.51565e-09
8.31452e-09
8.09938e-09
7.8862e-09
7.67962e-09
7.47555e-09
7.26811e-09
7.06698e-09
6.88564e-09
6.72186e-09
6.57777e-09
6.4585e-09
6.35502e-09
6.26036e-09
6.16723e-09
6.06219e-09
5.93217e-09
5.77327e-09
5.58093e-09
7.12681e-09
6.95332e-09
6.81144e-09
6.65979e-09
6.49553e-09
6.3328e-09
6.17382e-09
6.01326e-09
5.84717e-09
5.68458e-09
5.5375e-09
5.40449e-09
5.28764e-09
5.19215e-09
5.11054e-09
5.03713e-09
4.96717e-09
4.88608e-09
4.78548e-09
4.66311e-09
4.51263e-09
5.68664e-09
5.55358e-09
5.44839e-09
5.3356e-09
5.21186e-09
5.08977e-09
4.96888e-09
4.84361e-09
4.71156e-09
4.5811e-09
4.46265e-09
4.35543e-09
4.26157e-09
4.18527e-09
4.12089e-09
4.06454e-09
4.00973e-09
3.94726e-09
3.87184e-09
3.77844e-09
3.66365e-09
3.52054e-09
4.53537e-09
4.4342e-09
4.35754e-09
4.2751e-09
4.18357e-09
4.09384e-09
4.00343e-09
3.90659e-09
3.80261e-09
3.69911e-09
3.60496e-09
3.51959e-09
3.44463e-09
3.38416e-09
3.33375e-09
3.28868e-09
3.24601e-09
3.19976e-09
3.14304e-09
3.07217e-09
2.98312e-09
2.86941e-09
3.61511e-09
3.5388e-09
3.48432e-09
3.42533e-09
3.35903e-09
3.295e-09
3.22863e-09
3.15468e-09
3.07392e-09
2.99301e-09
2.91926e-09
2.85219e-09
2.79317e-09
2.74569e-09
2.7055e-09
2.67003e-09
2.63796e-09
2.60284e-09
2.55988e-09
2.50525e-09
2.43492e-09
2.34369e-09
2.87969e-09
2.82266e-09
2.78522e-09
2.74402e-09
2.69748e-09
2.65353e-09
2.60593e-09
2.55023e-09
2.48859e-09
2.42658e-09
2.36991e-09
2.31795e-09
2.27187e-09
2.23466e-09
2.20317e-09
2.17585e-09
2.15103e-09
2.12417e-09
2.0909e-09
2.04724e-09
1.99082e-09
1.91777e-09
2.29195e-09
2.24984e-09
2.22537e-09
2.19759e-09
2.16636e-09
2.138e-09
2.10475e-09
2.06357e-09
2.01769e-09
1.97119e-09
1.9283e-09
1.88848e-09
1.85283e-09
1.82386e-09
1.7993e-09
1.77781e-09
1.75862e-09
1.73763e-09
1.71087e-09
1.67587e-09
1.63036e-09
1.57222e-09
1.50349e-09
1.82223e-09
1.79167e-09
1.77692e-09
1.75915e-09
1.73983e-09
1.72336e-09
1.70092e-09
1.67124e-09
1.63817e-09
1.60416e-09
1.57211e-09
1.54163e-09
1.51378e-09
1.49105e-09
1.47172e-09
1.4549e-09
1.43974e-09
1.42294e-09
1.40154e-09
1.37305e-09
1.33626e-09
1.2892e-09
1.23394e-09
1.44698e-09
1.42527e-09
1.41782e-09
1.40742e-09
1.39721e-09
1.38967e-09
1.37522e-09
1.35466e-09
1.33202e-09
1.30767e-09
1.28355e-09
1.25973e-09
1.23757e-09
1.21934e-09
1.20387e-09
1.19048e-09
1.17858e-09
1.16534e-09
1.14804e-09
1.12519e-09
1.09547e-09
1.05733e-09
1.01267e-09
1.14744e-09
1.1325e-09
1.13038e-09
1.1253e-09
1.12208e-09
1.121e-09
1.11231e-09
1.09907e-09
1.08477e-09
1.06752e-09
1.04881e-09
1.02945e-09
1.0111e-09
9.96015e-10
9.83452e-10
9.72916e-10
9.63746e-10
9.53537e-10
9.40163e-10
9.21987e-10
8.98116e-10
8.67761e-10
8.32113e-10
9.08441e-10
8.98701e-10
9.00423e-10
8.99162e-10
9.01224e-10
9.04582e-10
8.99914e-10
8.92593e-10
8.84847e-10
8.72415e-10
8.57005e-10
8.40529e-10
8.24932e-10
8.12256e-10
8.02025e-10
7.93796e-10
7.87024e-10
7.796e-10
7.69544e-10
7.55691e-10
7.37382e-10
7.13581e-10
6.85357e-10
7.17842e-10
7.12099e-10
7.16505e-10
7.17987e-10
7.2403e-10
7.30175e-10
7.28249e-10
7.25749e-10
7.22856e-10
7.13263e-10
6.99786e-10
6.85452e-10
6.7212e-10
6.61547e-10
6.53364e-10
6.47202e-10
6.42481e-10
6.37409e-10
6.30434e-10
6.20389e-10
6.06714e-10
5.88452e-10
5.66873e-10
5.46645e-10
5.66023e-10
5.63319e-10
5.69579e-10
5.72996e-10
5.81935e-10
5.89543e-10
5.89494e-10
5.90959e-10
5.91366e-10
5.82949e-10
5.70672e-10
5.58426e-10
5.47511e-10
5.39059e-10
5.32739e-10
5.28219e-10
5.25071e-10
5.21834e-10
5.17117e-10
5.1014e-10
5.00235e-10
4.86733e-10
4.70531e-10
4.55367e-10
4.45399e-10
4.44988e-10
4.52347e-10
4.57025e-10
4.67977e-10
4.75979e-10
4.77328e-10
4.82099e-10
4.8444e-10
4.76048e-10
4.64908e-10
4.55162e-10
4.46871e-10
4.40476e-10
4.35686e-10
4.32334e-10
4.301e-10
4.27861e-10
4.24646e-10
4.19676e-10
4.12565e-10
4.02717e-10
3.90815e-10
3.79752e-10
3.49653e-10
3.50872e-10
3.58711e-10
3.64196e-10
3.76406e-10
3.84026e-10
3.86519e-10
3.93896e-10
3.97226e-10
3.88468e-10
3.78887e-10
3.72033e-10
3.66376e-10
3.61687e-10
3.57869e-10
3.54952e-10
3.52849e-10
3.50809e-10
3.48072e-10
3.44235e-10
3.38896e-10
3.316e-10
3.22995e-10
3.1523e-10
2.73626e-10
2.76034e-10
2.83955e-10
2.8995e-10
3.02835e-10
3.09573e-10
3.13059e-10
3.21938e-10
3.25538e-10
3.16794e-10
3.09484e-10
3.05553e-10
3.01951e-10
2.98284e-10
2.94795e-10
2.91726e-10
2.8915e-10
2.86608e-10
2.83751e-10
2.80222e-10
2.75866e-10
2.70324e-10
2.64088e-10
2.58813e-10
2.13377e-10
2.16582e-10
2.24302e-10
2.3066e-10
2.43779e-10
2.49527e-10
2.54041e-10
2.63374e-10
2.66622e-10
2.58067e-10
2.53225e-10
2.51655e-10
2.49185e-10
2.45821e-10
2.42281e-10
2.38877e-10
2.35709e-10
2.32579e-10
2.29248e-10
2.25728e-10
2.21821e-10
2.17373e-10
2.12944e-10
2.09657e-10
1.65769e-10
1.69386e-10
1.76619e-10
1.83203e-10
1.96126e-10
2.01057e-10
2.06737e-10
2.16659e-10
2.1992e-10
2.10181e-10
2.06675e-10
2.06672e-10
2.04518e-10
2.01001e-10
1.9742e-10
1.93963e-10
1.90585e-10
1.87053e-10
1.83461e-10
1.79758e-10
1.76031e-10
1.72457e-10
1.69311e-10
1.67447e-10
1.66997e-10
1.28706e-10
1.32352e-10
1.38654e-10
1.45163e-10
1.57156e-10
1.61217e-10
1.67474e-10
1.78386e-10
1.8489e-10
1.72166e-10
1.6787e-10
1.68888e-10
1.67039e-10
1.63433e-10
1.59984e-10
1.56772e-10
1.53455e-10
1.49892e-10
1.46076e-10
1.42205e-10
1.3867e-10
1.35497e-10
1.32996e-10
1.31715e-10
1.31592e-10
1.01458e-10
1.04812e-10
1.09917e-10
1.15959e-10
1.26056e-10
1.28697e-10
1.33558e-10
1.45684e-10
1.55769e-10
1.40744e-10
1.35763e-10
1.37687e-10
1.36459e-10
1.33139e-10
1.30034e-10
1.27243e-10
1.24325e-10
1.21013e-10
1.17349e-10
1.13671e-10
1.10238e-10
1.07191e-10
1.04734e-10
1.03244e-10
1.02812e-10
8.2426e-11
8.53162e-11
8.93099e-11
9.44962e-11
1.02215e-10
1.03087e-10
1.06202e-10
1.16125e-10
1.27075e-10
1.13462e-10
1.09564e-10
1.12111e-10
1.11839e-10
1.09442e-10
1.07077e-10
1.05035e-10
1.02896e-10
1.00347e-10
9.73993e-11
9.42614e-11
9.12035e-11
8.83673e-11
8.58593e-11
8.41198e-11
8.33793e-11
6.73662e-11
6.97801e-11
7.27738e-11
7.7136e-11
8.27203e-11
8.23838e-11
8.46983e-11
9.10806e-11
1.00764e-10
9.08971e-11
8.85364e-11
9.1114e-11
9.15618e-11
9.00736e-11
8.84333e-11
8.70648e-11
8.5683e-11
8.3964e-11
8.18141e-11
7.94101e-11
7.69333e-11
7.44947e-11
7.22597e-11
7.06191e-11
6.98423e-11
5.38767e-11
5.58484e-11
5.80244e-11
6.17706e-11
6.55192e-11
6.48828e-11
6.6843e-11
7.05021e-11
7.92372e-11
7.2816e-11
7.14427e-11
7.35783e-11
7.42144e-11
7.32471e-11
7.20241e-11
7.10364e-11
7.01252e-11
6.89878e-11
6.7539e-11
6.58094e-11
6.39142e-11
6.19801e-11
6.01285e-11
5.86778e-11
5.7888e-11
4.23485e-11
4.38798e-11
4.54079e-11
4.86201e-11
5.08314e-11
5.05334e-11
5.20834e-11
5.38931e-11
6.19713e-11
5.83199e-11
5.76711e-11
5.93672e-11
6.00306e-11
5.93728e-11
5.83553e-11
5.75115e-11
5.68265e-11
5.6101e-11
5.52205e-11
5.41241e-11
5.2851e-11
5.14582e-11
5.00503e-11
4.88411e-11
4.80446e-11
3.26148e-11
3.37185e-11
3.47549e-11
3.74519e-11
3.84634e-11
3.89861e-11
3.98729e-11
4.08456e-11
4.86557e-11
4.70175e-11
4.6771e-11
4.80816e-11
4.88161e-11
4.84335e-11
4.75336e-11
4.65848e-11
4.57374e-11
4.49767e-11
4.42736e-11
4.35698e-11
4.27906e-11
4.19364e-11
4.09624e-11
3.99754e-11
3.91363e-11
2.4624e-11
2.53218e-11
2.59672e-11
2.80752e-11
2.82386e-11
2.97862e-11
2.97124e-11
3.09106e-11
3.88405e-11
3.85881e-11
3.84974e-11
3.92886e-11
3.9769e-11
3.95257e-11
3.89389e-11
3.81239e-11
3.70943e-11
3.59411e-11
3.48397e-11
3.38862e-11
3.31168e-11
3.24322e-11
3.1704e-11
3.08233e-11
2.98024e-11
1.8291e-11
1.86311e-11
1.89344e-11
2.03291e-11
1.99226e-11
2.22377e-11
2.09222e-11
2.34521e-11
3.19098e-11
3.24653e-11
3.27242e-11
3.29878e-11
3.2435e-11
3.11984e-11
3.01499e-11
2.94434e-11
2.87893e-11
2.78949e-11
2.67267e-11
2.54873e-11
2.43293e-11
2.33385e-11
2.24976e-11
2.15894e-11
2.05202e-11
1.93659e-11
1.33058e-11
1.33286e-11
1.3328e-11
1.3992e-11
1.33288e-11
1.58337e-11
1.33047e-11
1.825e-11
2.72842e-11
2.74411e-11
2.81583e-11
2.83136e-11
2.69547e-11
2.43646e-11
2.16142e-11
1.93883e-11
1.78464e-11
1.678e-11
1.59056e-11
1.50486e-11
1.41514e-11
1.32981e-11
1.24785e-11
1.15683e-11
1.05314e-11
9.51267e-12
9.41764e-12
9.12919e-12
8.82419e-12
8.91391e-12
8.41413e-12
1.07365e-11
7.90984e-12
1.63758e-11
2.50467e-11
2.32714e-11
2.3521e-11
2.2656e-11
2.14292e-11
2.01327e-11
1.79343e-11
1.4716e-11
1.14291e-11
8.92594e-12
7.4429e-12
6.80831e-12
6.76166e-12
7.06926e-12
7.39216e-12
7.22387e-12
6.43534e-12
5.44893e-12
6.69676e-12
6.04309e-12
5.32313e-12
4.94512e-12
4.84191e-12
6.966e-12
5.68953e-12
1.86292e-11
2.53443e-11
2.46747e-11
2.97686e-11
2.95298e-11
2.47689e-11
1.89415e-11
1.52446e-11
1.52518e-11
1.80825e-11
2.17143e-11
2.48099e-11
2.72439e-11
2.93121e-11
3.14323e-11
3.41143e-11
3.82663e-11
4.46909e-11
5.31699e-11
5.22308e-12
4.20808e-12
3.00429e-12
2.13625e-12
2.12488e-12
3.84846e-12
5.23776e-12
2.03732e-11
2.17886e-11
2.51804e-11
3.80283e-11
5.24449e-11
7.11788e-11
9.41357e-11
1.17361e-10
1.37017e-10
1.50893e-10
1.60406e-10
1.68911e-10
1.79108e-10
1.92444e-10
2.09501e-10
2.29735e-10
2.49234e-10
2.62888e-10
2.71705e-10
4.672e-12
3.4918e-12
2.00263e-12
7.50482e-13
4.7419e-13
1.78366e-12
5.04174e-12
1.23761e-11
2.54482e-11
1.16377e-10
2.57752e-10
4.25654e-10
5.82295e-10
7.04703e-10
7.87831e-10
8.42312e-10
8.82809e-10
9.20778e-10
9.59742e-10
9.98267e-10
1.03358e-09
1.0649e-09
1.09464e-09
1.13109e-09
1.17009e-09
1.20226e-09
)
;

boundaryField
{
    inlet
    {
        type            calculated;
        value           nonuniform List<scalar> 
26
(
4.36236e-12
3.2814e-12
1.87314e-12
6.20634e-13
2.90994e-13
1.7846e-12
6.21831e-12
6.01779e-12
1.19248e-10
4.74432e-10
1.1296e-09
2.02854e-09
3.03832e-09
4.03559e-09
4.92484e-09
5.67439e-09
6.29011e-09
6.79925e-09
7.23658e-09
7.6345e-09
8.01973e-09
8.42417e-09
8.88702e-09
9.43673e-09
1.00266e-08
1.05877e-08
)
;
    }
    outlet
    {
        type            calculated;
        value           nonuniform List<scalar> 0();
    }
    walls
    {
        type            calculated;
        value           nonuniform List<scalar> 0();
    }
    frontAndBack
    {
        type            empty;
    }
    procBoundary0to1
    {
        type            processor;
        value           nonuniform List<scalar> 
94
(
0.000188226
0.000126368
0.000126368
8.60846e-05
8.60846e-05
5.92869e-05
5.92869e-05
4.13643e-05
4.13643e-05
2.92974e-05
2.92974e-05
2.10595e-05
1.61964e-05
1.61964e-05
1.19244e-05
9.29019e-06
9.29019e-06
6.97305e-06
5.48401e-06
4.31936e-06
4.31936e-06
3.30659e-06
2.61776e-06
2.61776e-06
2.02143e-06
1.60532e-06
1.27426e-06
1.27426e-06
9.91021e-07
7.87406e-07
6.25222e-07
6.25222e-07
4.87654e-07
3.87215e-07
3.87215e-07
3.01948e-07
2.39748e-07
1.90283e-07
1.90283e-07
1.48107e-07
1.17462e-07
9.31312e-08
9.31312e-08
7.22193e-08
5.72163e-08
4.5341e-08
4.5341e-08
3.50129e-08
2.77537e-08
2.20308e-08
2.20308e-08
1.69604e-08
1.35065e-08
1.07795e-08
1.07795e-08
8.28093e-09
6.64844e-09
5.35912e-09
4.33702e-09
4.33702e-09
3.3583e-09
2.73873e-09
2.23924e-09
1.83414e-09
1.83414e-09
1.43727e-09
1.18147e-09
9.71184e-10
7.99243e-10
6.59611e-10
6.59611e-10
5.30818e-10
4.43778e-10
3.7155e-10
3.0973e-10
2.55488e-10
2.08225e-10
2.08225e-10
1.67031e-10
1.3211e-10
1.03149e-10
8.34755e-11
6.98298e-11
5.77023e-11
4.76613e-11
3.85205e-11
2.87956e-11
2.87956e-11
1.82308e-11
8.69343e-12
4.61038e-12
6.27587e-11
2.78552e-10
1.22577e-09
)
;
    }
    procBoundary0to4
    {
        type            processor;
        value           nonuniform List<scalar> 
72
(
0.000151524
0.000108788
7.91044e-05
5.81335e-05
4.3117e-05
3.22396e-05
2.42825e-05
1.84102e-05
1.40414e-05
1.07668e-05
8.29547e-06
6.4186e-06
4.98403e-06
3.88197e-06
3.03136e-06
2.37252e-06
1.86082e-06
1.46239e-06
1.15166e-06
9.08833e-07
7.18491e-07
5.69034e-07
4.3762e-07
4.3762e-07
3.47257e-07
2.75753e-07
2.19105e-07
1.74174e-07
1.38528e-07
1.10242e-07
8.77995e-08
6.99862e-08
5.58326e-08
4.45636e-08
3.5576e-08
2.83984e-08
2.26649e-08
1.80851e-08
1.44292e-08
1.15115e-08
9.18314e-09
7.3237e-09
5.83825e-09
4.65142e-09
3.70349e-09
2.94635e-09
2.34179e-09
1.85915e-09
1.47406e-09
1.16689e-09
9.2207e-10
7.2708e-10
5.71985e-10
4.48825e-10
3.51204e-10
2.73878e-10
2.12749e-10
1.64585e-10
1.27319e-10
1.00178e-10
8.13234e-11
6.63993e-11
5.30306e-11
4.16588e-11
3.21088e-11
2.43089e-11
1.8141e-11
1.33351e-11
9.66653e-12
7.18541e-12
5.92963e-12
5.47097e-12
)
;
    }
    procBoundary0to5
    {
        type            processor;
        value           nonuniform List<scalar> 4(0.00021146 0.000207288 0.000202841 0.000197048);
    }
}


// ************************************************************************* //
