/*--------------------------------*- C++ -*----------------------------------*\
| =========                 |                                                 |
| \\      /  F ield         | OpenFOAM: The Open Source CFD Toolbox           |
|  \\    /   O peration     | Version:  2306                                  |
|   \\  /    A nd           | Website:  www.openfoam.com                      |
|    \\/     M anipulation  |                                                 |
\*---------------------------------------------------------------------------*/
FoamFile
{
    version     2.0;
    format      ascii;
    arch        "LSB;label=32;scalar=64";
    class       volScalarField;
    location    "425";
    object      p;
}
// * * * * * * * * * * * * * * * * * * * * * * * * * * * * * * * * * * * * * //

dimensions      [0 2 -2 0 0 0 0];

internalField   nonuniform List<scalar> 
1340
(
59.0959
33.2989
4.80113
56.8086
32.913
6.55079
-20.8099
-50.33
54.1364
31.9118
7.42793
-17.896
-45.2143
-73.7446
-102.82
51.2421
30.4983
7.67825
-15.8441
-41.2073
-67.6679
-94.6016
-122.08
48.2429
28.8229
7.48938
-14.4262
-38.042
-62.649
-87.6552
-113.166
-138.803
45.2194
26.9905
6.99482
-13.4799
-35.5263
-58.4623
-81.7315
-105.456
-129.289
42.2275
25.0773
6.29338
-12.8817
-33.5081
-54.932
-76.6278
-98.7276
-120.912
-143.016
39.304
23.1364
5.45744
-12.5388
-31.8742
-51.9258
-72.1898
-92.8082
-113.487
-134.081
-154.579
36.4747
21.2101
4.53989
-12.3782
-30.5378
-49.3355
-68.2944
-87.5584
-106.855
-126.058
-145.176
33.7575
19.3232
3.58314
-12.3487
-29.4286
-47.0785
-64.8408
-82.8653
-100.893
-118.815
-136.653
-154.274
31.1634
17.4966
2.61513
-12.4076
-28.4949
-45.088
-61.7526
-78.6374
-95.4982
-112.237
-128.889
-145.338
28.6979
15.7445
1.65917
-12.5239
-27.6938
-43.3129
-58.9656
-74.8
-90.5845
-106.233
-121.786
-137.145
-152.261
26.3645
14.075
0.731021
-12.6729
-26.9929
-41.71
-56.428
-71.2904
-86.0811
-100.721
-115.257
-129.602
-143.72
24.1629
12.4946
-0.157182
-12.8378
-26.3664
-40.2466
-54.0978
-68.0614
-81.9307
-95.6363
-109.228
-122.629
-135.815
-148.74
22.0923
11.0062
-0.997525
-13.0027
-25.7942
-38.8953
-51.9414
-65.0699
-78.0862
-90.9252
-103.64
-116.163
-128.477
-140.55
20.1503
9.61117
-1.78461
-13.1574
-25.2602
-37.6339
-49.93
-62.2824
-74.5055
-86.5394
-98.4393
-110.144
-121.646
-132.919
18.3335
8.30923
-2.51501
-13.2948
-24.7524
-36.4459
-48.0419
-59.6708
-71.1551
-82.4406
-93.5817
-104.525
-115.268
-125.792
-136.037
16.6373
7.09945
-3.18654
-13.4088
-24.2608
-35.3171
-46.2584
-57.2114
-68.0064
-78.5947
-89.0293
-99.2631
-109.298
-119.121
-128.681
15.0578
5.97904
-3.79806
-13.496
-23.7782
-34.236
-44.5647
-54.8851
-65.0367
-74.9743
-84.751
-94.3226
-103.696
-112.863
-121.78
13.5897
4.94579
-4.35014
-13.5537
-23.2996
-33.1943
-42.9477
-52.6757
-62.2256
-71.5547
-80.7171
-89.6718
-98.4276
-106.981
-115.296
-123.32
12.2281
3.99666
-4.8439
-13.5803
-22.8197
-32.1845
-41.397
-50.5691
-59.5552
-68.3159
-76.9039
-85.2823
-93.4615
-101.442
-109.191
-116.667
10.968
3.12798
-5.28063
-13.5754
-22.3365
-31.2013
-39.905
-48.5548
-57.0124
-65.2407
-73.2916
-81.1315
-88.7717
-96.2157
-103.436
-110.396
16.2959
9.8043
2.33629
-5.66242
-13.539
-21.8478
-30.2406
-38.4651
-46.624
-54.5851
-62.3147
-69.8627
-77.1987
-84.3351
-91.2777
-98.003
-104.479
-110.655
14.9204
8.73189
1.61785
-5.99148
-13.4718
-21.3521
-29.2988
-37.071
-44.7676
-52.2622
-59.5242
-66.6013
-73.4661
-80.1319
-86.6054
-92.8673
-98.89
-104.629
13.6456
7.74585
0.968807
-6.27026
-13.3744
-20.849
-28.3734
-35.719
-42.9795
-50.0355
-56.8583
-63.4941
-69.9176
-76.1432
-82.1786
-88.0071
-93.6052
-98.9338
12.4659
6.84124
0.385345
-6.50144
-13.2485
-20.3382
-27.4632
-34.4053
-41.2549
-47.8979
-54.3081
-60.5301
-66.5406
-72.3541
-77.9795
-83.4028
-88.6035
-93.5473
-98.1812
11.3756
6.0134
-0.136401
-6.68772
-13.0954
-19.8198
-26.5661
-33.127
-39.589
-45.8429
-51.8653
-57.6988
-63.3222
-68.7504
-73.9927
-79.0372
-83.8662
-88.4495
-92.74
10.3695
5.25771
-0.600187
-6.83198
-12.917
-19.2946
-25.682
-31.8823
-37.9779
-43.8654
-49.5228
-54.9918
-60.2523
-65.3196
-70.2036
-74.8943
-79.376
-83.6223
-87.591
9.44228
4.56975
-1.00966
-6.93681
-12.715
-18.7631
-24.8103
-30.6691
-36.4184
-41.9605
-47.2747
-52.4013
-57.3217
-62.0513
-66.6004
-70.9601
-75.1177
-79.0492
-82.7169
8.58922
3.94502
-1.36837
-7.00506
-12.4914
-18.2261
-23.9505
-29.486
-34.9084
-40.1245
-45.1158
-49.9206
-54.5221
-58.9357
-63.1716
-67.2224
-71.0773
-74.715
-78.1017
7.80555
3.37958
-1.67989
-7.03952
-12.248
-17.6849
-23.1027
-28.3321
-33.4452
-38.354
-43.041
-47.5436
-51.8461
-55.9638
-59.907
-63.6695
-67.242
-70.6058
-73.7304
-76.5788
7.08679
2.86939
-1.94751
-7.04286
-11.9868
-17.1405
-22.2672
-27.2067
-32.0273
-36.6459
-41.0467
-45.2653
-49.2873
-53.128
-56.7976
-60.2909
-63.6002
-66.7088
-69.5896
-72.2088
6.42863
2.41068
-2.17448
-7.01766
-11.7096
-16.594
-21.4443
-26.109
-30.6532
-34.998
-39.1291
-43.0807
-46.8398
-50.4211
-53.8351
-57.0774
-60.1414
-63.0125
-65.6664
-68.0728
5.82709
1.99974
-2.36382
-6.9665
-11.4183
-16.0465
-20.6345
-25.0388
-29.3213
-33.4076
-37.2848
-40.9856
-44.498
-47.8366
-51.0118
-54.0201
-56.8559
-59.5063
-61.9493
-64.1581
5.27824
1.63322
-2.51864
-6.89169
-11.1148
-15.4993
-19.8381
-23.9954
-28.0306
-31.873
-35.5111
-38.976
-42.2573
-45.3688
-48.321
-51.111
-53.7345
-56.1797
-58.4274
-60.453
4.77843
1.30782
-2.64174
-6.79559
-10.8009
-14.9533
-19.0556
-22.979
-26.7801
-30.3923
-33.805
-37.0484
-40.113
-43.0121
-45.7562
-48.3429
-50.769
-53.0238
-55.0903
-56.9466
-58.565
4.32417
1.02041
-2.73575
-6.68039
-10.4782
-14.4098
-18.2873
-21.989
-25.5688
-28.9636
-32.1643
-35.1996
-38.0608
-40.7614
-43.3113
-45.7088
-47.9515
-50.0298
-51.9287
-53.6285
-55.1047
3.91218
0.76804
-2.80329
-6.54823
-10.1483
-13.87
-17.534
-21.0255
-24.3958
-27.5856
-30.5866
-33.4263
-36.0972
-38.6121
-40.9808
-43.2022
-45.2744
-47.1894
-48.9333
-50.4891
-51.8344
3.53935
0.547907
-2.84672
-6.40108
-9.81269
-13.3346
-16.796
-20.0884
-23.2606
-26.2568
-29.0698
-31.7259
-34.2183
-36.5597
-38.7594
-40.8171
-42.7313
-44.4949
-46.0958
-47.5187
-48.7439
3.20276
0.357369
-2.86835
-6.24076
-9.47286
-12.8047
-16.0737
-19.1774
-22.1622
-24.9758
-27.6118
-30.0955
-32.4207
-34.5999
-36.6422
-38.5476
-40.3153
-41.939
-43.408
-44.7087
-45.8238
2.89958
0.193959
-2.87029
-6.06911
-9.13017
-12.2812
-15.3674
-18.2922
-21.0999
-23.7413
-26.2107
-28.5324
-30.7011
-32.7288
-34.6245
-36.3884
-38.0202
-39.5146
-40.862
-42.0506
-43.065
-43.8893
2.62724
0.0553086
-2.85457
-5.88771
-8.78585
-11.7649
-14.6775
-17.4329
-20.0732
-22.552
-24.8646
-27.0343
-29.0565
-30.9426
-32.7017
-34.3342
-35.8402
-37.2152
-38.4508
-39.5365
-40.4588
-41.2038
2.38326
-0.0607349
-2.82315
-5.69814
-8.44102
-11.2564
-14.0043
-16.5992
-19.081
-21.4065
-23.5717
-25.5987
-27.4837
-29.2377
-30.8696
-32.38
-33.7696
-35.0344
-36.1671
-37.1585
-37.9967
-38.67
2.16532
-0.156276
-2.77769
-5.50179
-8.09683
-10.7566
-13.348
-15.7908
-18.1229
-20.3038
-22.3302
-24.2233
-25.9798
-27.6105
-29.1239
-30.5211
-31.8029
-32.9661
-34.0043
-34.9092
-35.6709
-36.279
1.97127
-0.233237
-2.71991
-5.30004
-7.7542
-10.2659
-12.7089
-15.0075
-17.1981
-19.2425
-21.1383
-22.9056
-24.5419
-26.0575
-27.4607
-28.7528
-29.9349
-31.0044
-31.9557
-32.7818
-33.4737
-34.0229
1.79906
-0.293419
-2.65134
-5.09411
-7.41407
-9.78493
-12.0869
-14.2489
-16.3057
-18.2214
-19.9943
-21.6437
-23.1674
-24.5755
-25.8761
-27.0708
-28.1607
-29.1438
-30.0154
-30.7693
-31.3978
-31.8936
1.6468
-0.338517
-2.57341
-4.88508
-7.0772
-9.31416
-11.4822
-13.5149
-15.445
-17.2393
-18.8965
-20.4351
-21.8534
-23.1613
-24.3664
-25.4706
-26.4753
-27.3788
-28.1772
-28.8652
-29.4361
-29.8837
1.51272
-0.370124
-2.48746
-4.67405
-6.74442
-8.85394
-10.8948
-12.8049
-14.6153
-16.2949
-17.8432
-19.2779
-20.5975
-21.8116
-22.9279
-23.9481
-24.874
-25.7042
-26.4355
-27.0632
-27.5818
-27.9861
-28.275
1.39513
-0.389697
-2.39473
-4.46202
-6.41639
-8.40469
-10.3248
-12.1186
-13.8157
-15.3871
-16.8329
-18.1698
-19.3969
-20.5236
-21.5571
-22.4994
-23.3523
-24.115
-24.7847
-25.3575
-25.8285
-26.1936
-26.4525
1.29248
-0.398633
-2.29637
-4.24988
-6.09373
-7.96669
-9.77208
-11.4556
-13.0454
-14.5146
-15.8637
-17.1087
-18.2492
-19.2942
-20.2505
-21.1205
-21.9059
-22.6064
-23.2195
-23.7421
-24.1701
-24.4999
-24.7319
1.20332
-0.398235
-2.19351
-4.03848
-5.77705
-7.54026
-9.23659
-10.8155
-12.3036
-13.6763
-14.9342
-16.0927
-17.1519
-18.1205
-19.0049
-19.8076
-20.5305
-21.1736
-21.7348
-22.2116
-22.6004
-22.8985
-23.1065
1.12634
-0.389655
-2.08709
-3.82857
-5.46685
-7.12563
-8.71827
-10.1979
-11.5896
-12.8708
-14.0426
-15.1196
-16.1025
-16.9996
-17.8169
-18.557
-19.222
-19.8121
-20.3256
-20.7605
-21.1138
-21.3833
-21.5701
1.0603
-0.373914
-1.97802
-3.62073
-5.16345
-6.72281
-8.21684
-9.60227
-10.9024
-12.0972
-13.1874
-14.1876
-15.0988
-15.9288
-16.6834
-17.3651
-17.9763
-18.5174
-18.9871
-19.3837
-19.7047
-19.9485
-20.1164
1.00394
-0.352146
-1.86723
-3.41575
-4.86746
-6.33201
-7.73214
-9.02801
-10.241
-11.3539
-12.3669
-13.2944
-14.1386
-14.9059
-15.6015
-16.2285
-16.7897
-17.2854
-17.7147
-18.0762
-18.3679
-18.5885
-18.7396
0.956003
-0.325816
-1.75616
-3.21506
-4.57992
-5.9543
-7.2648
-8.47521
-9.60486
-10.6403
-11.5789
-12.4374
-13.2191
-13.9279
-14.568
-15.1437
-15.6583
-16.112
-16.504
-16.8333
-17.0983
-17.298
-17.4343
0.915576
-0.295633
-1.64543
-3.01919
-4.30153
-5.5903
-6.81533
-7.94442
-8.99434
-9.9569
-10.8223
-11.6139
-12.3373
-12.9914
-13.579
-14.1064
-14.5776
-14.9925
-15.3502
-15.65
-15.8908
-16.0719
-16.195
-16.2655
0.882772
-0.260771
-1.53342
-2.82592
-4.02973
-5.23701
-6.38122
-7.43347
-8.40808
-9.30106
-10.0963
-10.8263
-11.4958
-12.097
-12.6336
-13.1151
-13.5454
-13.9237
-14.2491
-14.5216
-14.7402
-14.9045
-15.0162
-15.08
0.85717
-0.221427
-1.41951
-2.63407
-3.76226
-4.89111
-5.95764
-6.93721
-7.84044
-8.66675
-9.3943
-10.0751
-10.6987
-11.2464
-11.7314
-12.1689
-12.5608
-12.9042
-13.1989
-13.4455
-13.6436
-13.7925
-13.8938
-13.952
0.838207
-0.189565
-1.32981
-2.47851
-3.53928
-4.59261
-5.57419
-6.46598
-7.26971
-8.00621
-8.60842
-9.27578
-9.90668
-10.4331
-10.8943
-11.3171
-11.6981
-12.0307
-12.3155
-12.5542
-12.7463
-12.8911
-12.9899
-13.0472
0.823809
-0.162124
-1.25309
-2.34414
-3.34213
-4.32023
-5.21348
-6.00705
-6.69356
-7.32092
-7.75823
-8.44633
-9.12042
-9.64777
-10.1041
-10.5314
-10.9196
-11.2577
-11.5467
-11.7893
-11.9853
-12.1336
-12.2359
-12.2964
0.811122
-0.132559
-1.17377
-2.20681
-3.14214
-4.04531
-4.85239
-5.55018
-6.12631
-6.64761
-6.93158
-7.62718
-8.33529
-8.86122
-9.30875
-9.73609
-10.1286
-10.4702
-10.7619
-11.0074
-11.2067
-11.3583
-11.4641
-11.5278
0.799918
-0.101503
-1.09285
-2.06818
-2.94144
-3.77056
-4.49419
-5.09856
-5.57181
-5.98599
-6.13411
-6.822
-7.55057
-8.07355
-8.51043
-8.93339
-9.32672
-9.66981
-9.96277
-10.2101
-10.4119
-10.5666
-10.6757
-10.7426
0.790289
-0.069273
-1.0111
-1.92956
-2.74192
-3.49853
-4.14181
-4.6553
-5.03318
-5.33779
-5.36913
-6.03445
-6.76764
-7.28434
-7.70912
-8.12396
-8.51442
-8.85685
-9.14969
-9.39769
-9.60128
-9.7589
-9.87135
-9.94251
0.782157
-0.0364705
-0.929908
-1.79283
-2.54611
-3.23236
-3.79896
-4.2246
-4.51425
-4.70597
-4.63858
-5.26684
-5.98768
-6.49328
-6.90459
-7.30805
-7.69193
-8.03129
-8.32273
-8.5707
-8.77568
-8.93569
-9.05074
-9.12436
0.775393
-0.00441488
-0.851679
-1.6614
-2.35767
-2.9761
-3.46933
-3.81003
-4.01728
-4.09256
-3.94338
-4.52052
-5.21213
-5.70053
-6.09617
-6.48503
-6.85876
-7.19228
-7.48056
-7.72766
-7.93442
-8.09896
-8.22162
-8.30593
0.769622
0.0252308
-0.779582
-1.53966
-2.18162
-2.73488
-3.15647
-3.41314
-3.54185
-3.49853
-3.28282
-3.79587
-4.44222
-4.90599
-5.2824
-5.6533
-6.01358
-6.3389
-6.62222
-6.86589
-7.06974
-7.2307
-7.34739
-7.42177
-7.46346
0.764522
0.0524857
-0.713727
-1.42888
-2.02092
-2.51387
-2.86638
-3.04122
-3.09568
-2.93158
-2.65646
-3.09222
-3.6792
-4.10982
-4.4619
-4.80976
-5.15154
-5.46639
-5.74796
-5.9979
-6.216
-6.4004
-6.55141
-6.67133
-6.76157
0.760495
0.0785657
-0.652216
-1.32717
-1.87571
-2.31753
-2.6096
-2.71527
-2.70437
-2.4086
-2.06498
-2.41185
-2.92491
-3.31138
-3.63502
-3.95652
-4.27027
-4.55662
-4.80952
-5.02944
-5.21381
-5.35569
-5.4487
-5.49296
-5.50842
0.75811
0.0963564
-0.608449
-1.25055
-1.76147
-2.15726
-2.3921
-2.43846
-2.35779
-1.90942
-1.49851
-1.76312
-2.18607
-2.50668
-2.79132
-3.09417
-3.40871
-3.71662
-4.01092
-4.2916
-4.55957
-4.81692
-5.06445
-5.29515
-5.48166
0.754987
0.0848935
-0.620867
-1.2479
-1.72581
-2.06354
-2.21215
-2.15952
-1.94134
-1.32315
-0.914271
-1.13951
-1.48471
-1.72083
-1.90559
-2.08548
-2.263
-2.43018
-2.58193
-2.71305
-2.81148
-2.85794
-2.83845
-2.76158
-2.69041
0.746354
0.0448289
-0.686112
-1.31868
-1.77356
-2.04866
-2.09073
-1.89571
-1.46824
-0.685379
-0.291212
-0.47098
-0.787264
-1.08493
-1.38561
-1.70001
-2.03089
-2.37984
-2.75172
-3.15536
-3.60295
-4.10076
-4.62562
-5.11821
-5.47286
)
;

boundaryField
{
    inlet
    {
        type            freestreamPressure;
        freestreamValue uniform 0;
        value           nonuniform List<scalar> 
25
(
0.74272
0.0446106
-0.682772
-1.31226
-1.76493
-2.03869
-2.08055
-1.88648
-1.4611
-0.682043
-0.125416
-0.202946
-0.339503
-0.468305
-0.598709
-0.735372
-0.879529
-1.03192
-1.19469
-1.37172
-1.56835
-1.78731
-2.01847
-2.23578
-2.39286
)
;
    }
    outlet
    {
        type            freestreamPressure;
        freestreamValue nonuniform List<scalar> 0();
        value           nonuniform List<scalar> 0();
    }
    walls
    {
        type            zeroGradient;
    }
    frontAndBack
    {
        type            empty;
    }
    procBoundary4to0
    {
        type            processor;
        value           nonuniform List<scalar> 
72
(
81.3075
77.3743
73.2593
69.0921
64.9588
60.9152
56.9984
53.2332
49.6336
46.2067
42.9561
39.881
36.9794
34.2474
31.6797
29.2701
27.0126
24.901
22.9283
21.0879
19.3734
17.7781
17.7781
22.3415
20.6898
19.1518
17.7208
16.3907
15.1555
14.0093
12.9468
11.9628
11.0524
10.2109
9.43379
8.71691
8.05622
7.44789
6.88837
6.37424
5.90226
5.46942
5.0729
4.70995
4.37809
4.07494
3.79824
3.54592
3.31601
3.10669
2.91624
2.74304
2.58565
2.44271
2.31285
2.19479
2.0875
1.99048
1.90322
1.83655
1.78257
1.72969
1.67805
1.62816
1.58065
1.53664
1.4969
1.46045
1.42718
1.40589
1.41158
1.43231
)
;
    }
    procBoundary4to5
    {
        type            processor;
        value           nonuniform List<scalar> 
95
(
60.7371
32.7456
1.78533
-24.8798
-24.8798
-56.8917
-81.1828
-81.1828
-112.645
-132.472
-132.472
-149.686
-149.686
-164.327
-153.033
-153.033
-165.006
-165.006
-174.801
-164.052
-164.052
-171.594
-161.521
-161.521
-167.058
-157.553
-157.553
-161.305
-152.296
-143.892
-143.892
-145.921
-137.909
-130.389
-130.389
-130.98
-123.802
-117.038
-117.038
-116.458
-110.018
-103.934
-103.934
-102.442
-96.6801
-91.2307
-86.0747
-81.1959
-81.1959
-79.1027
-74.5236
-70.193
-66.0978
-62.2256
-62.2256
-59.915
-56.3303
-52.9457
-49.7507
-46.7351
-46.7351
-44.5135
-41.7637
-39.1717
-36.7285
-34.4254
-32.254
-30.2064
-30.2064
-28.4547
-26.6113
-24.8724
-23.231
-21.6805
-20.2146
-18.8272
-17.5126
-17.5126
-16.2921
-15.1041
-13.9744
-13.0704
-12.323
-11.558
-10.7764
-9.98127
-9.16505
-8.35951
-8.35951
-7.48411
-6.82613
-5.5158
-5.61523
-2.65828
-5.68931
)
;
    }
}


// ************************************************************************* //
