/*--------------------------------*- C++ -*----------------------------------*\
| =========                 |                                                 |
| \\      /  F ield         | OpenFOAM: The Open Source CFD Toolbox           |
|  \\    /   O peration     | Version:  2306                                  |
|   \\  /    A nd           | Website:  www.openfoam.com                      |
|    \\/     M anipulation  |                                                 |
\*---------------------------------------------------------------------------*/
FoamFile
{
    version     2.0;
    format      ascii;
    arch        "LSB;label=32;scalar=64";
    class       volSymmTensorField;
    location    "425";
    object      turbulenceProperties:R;
}
// * * * * * * * * * * * * * * * * * * * * * * * * * * * * * * * * * * * * * //

dimensions      [0 2 -2 0 0 0 0];

internalField   nonuniform List<symmTensor> 
1340
(
(0.000370151 -3.47536e-05 1.29736e-21 0.00031604 2.96013e-22 0.000343123)
(0.000366573 -3.91668e-05 2.07288e-20 0.000324847 1.66684e-20 0.000345689)
(0.000361494 -4.24531e-05 -8.40644e-21 0.000333932 -6.41057e-21 0.000347715)
(0.000314288 -2.97429e-05 5.9839e-21 0.000268848 4.43282e-21 0.000291594)
(0.000311711 -3.34551e-05 -4.49119e-21 0.000276678 -3.51205e-21 0.000294188)
(0.000307965 -3.62439e-05 -1.32379e-20 0.000284826 -9.02148e-21 0.00029641)
(0.000303043 -3.78664e-05 8.88002e-20 0.000292576 6.47218e-20 0.000297826)
(0.000296862 -3.82695e-05 -2.05917e-20 0.000299931 -1.60073e-20 0.000298403)
(0.000268634 -2.56357e-05 2.53241e-21 0.000230263 1.97152e-21 0.000249465)
(0.000266781 -2.87771e-05 -1.00852e-20 0.000237237 -6.61436e-21 0.000252)
(0.000264007 -3.11534e-05 -4.46204e-20 0.000244545 -2.96938e-20 0.000254284)
(0.000260349 -3.25645e-05 -4.1403e-21 0.000251617 -4.32446e-21 0.000255989)
(0.000255727 -3.2969e-05 -6.43554e-21 0.000258465 -2.25855e-21 0.000257093)
(0.000250431 -3.2282e-05 5.79702e-20 0.000264615 3.69653e-20 0.000257527)
(0.000244549 -3.05263e-05 8.34708e-21 0.000269583 9.0595e-21 0.000257074)
(0.000230851 -2.22234e-05 -5.6701e-21 0.000198309 -3.03668e-21 0.000214592)
(0.000229507 -2.48944e-05 -3.37754e-20 0.000204518 -2.1323e-20 0.000217006)
(0.000227431 -2.69228e-05 1.34778e-20 0.000211056 9.30492e-21 0.000219251)
(0.000224677 -2.81422e-05 9.99363e-21 0.000217453 6.13105e-21 0.00022107)
(0.000221175 -2.8522e-05 4.07338e-20 0.000223741 2.52773e-20 0.000222457)
(0.000217172 -2.79912e-05 -5.8982e-20 0.000229531 -4.00516e-20 0.000223357)
(0.000212723 -2.65652e-05 7.58695e-20 0.000234406 3.84677e-20 0.000223573)
(0.000207884 -2.4286e-05 -1.96666e-19 0.000238182 -1.09153e-19 0.000223037)
(0.000199336 -1.93618e-05 9.67612e-21 0.000171629 5.78069e-21 0.000185491)
(0.00019836 -2.16434e-05 8.74269e-21 0.000177163 5.47863e-21 0.000187756)
(0.000196798 -2.33789e-05 2.87514e-21 0.000183012 2.28547e-21 0.000189912)
(0.000194714 -2.44306e-05 -4.85759e-21 0.000188786 -3.10187e-21 0.000191752)
(0.000192057 -2.47764e-05 3.66727e-20 0.000194537 1.94794e-20 0.000193295)
(0.000189019 -2.43552e-05 -3.14574e-20 0.000199921 -1.75998e-20 0.000194473)
(0.000185644 -2.31793e-05 -9.8241e-20 0.000204592 -5.68737e-20 0.000195123)
(0.00018198 -2.12813e-05 1.04985e-19 0.000208408 7.23195e-20 0.000195195)
(0.000178147 -1.87592e-05 3.48059e-20 0.000211136 2.19965e-20 0.000194648)
(0.000172838 -1.69417e-05 -1.6437e-21 0.000149172 -4.4295e-22 0.000161012)
(0.000172134 -1.88976e-05 -4.69256e-21 0.000154112 -2.29899e-21 0.000163118)
(0.000170944 -2.03847e-05 -1.88883e-20 0.000159337 -1.02025e-20 0.000165147)
(0.000169356 -2.12899e-05 8.9826e-21 0.000164538 3.96826e-21 0.000166948)
(0.000167334 -2.15969e-05 -2.84518e-20 0.000169774 -1.70365e-20 0.000168552)
(0.000165012 -2.1252e-05 6.64304e-20 0.000174729 3.81318e-20 0.000169874)
(0.000162445 -2.0268e-05 -3.78093e-21 0.00017913 6.57564e-21 0.000170791)
(0.000159669 -1.86719e-05 3.6668e-20 0.000182857 7.2609e-21 0.000171264)
(0.000156771 -1.65406e-05 2.87719e-20 0.000185709 7.32779e-21 0.000171245)
(0.000150416 -1.48802e-05 -2.01656e-20 0.000130144 -1.10622e-20 0.000140285)
(0.000149906 -1.65613e-05 3.08604e-20 0.000134553 1.63514e-20 0.000142226)
(0.000148994 -1.78382e-05 -2.30558e-20 0.000139224 -1.16079e-20 0.000144115)
(0.000147785 -1.86167e-05 1.30914e-20 0.000143909 4.82919e-21 0.000145847)
(0.000146237 -1.88834e-05 -7.65917e-20 0.000148654 -3.77407e-20 0.000147444)
(0.000144463 -1.85938e-05 4.2037e-20 0.000153196 1.89707e-20 0.000148832)
(0.00014251 -1.77597e-05 1.03936e-19 0.000157298 4.86937e-20 0.000149907)
(0.000140409 -1.64037e-05 -1.47596e-19 0.000160867 -7.57252e-20 0.000150639)
(0.000138229 -1.45887e-05 -7.24358e-20 0.00016373 -3.20389e-20 0.000150982)
(0.00013597 -1.23735e-05 6.09587e-20 0.00016575 2.48911e-20 0.000150863)
(0.000131328 -1.31125e-05 1.02809e-20 0.000113921 4.95396e-21 0.000122628)
(0.000130956 -1.45606e-05 5.34616e-21 0.000117856 3.03687e-21 0.000124403)
(0.000130257 -1.56594e-05 1.52235e-20 0.000122039 7.64688e-21 0.000126153)
(0.000129333 -1.63274e-05 -4.40855e-20 0.000126252 -2.17627e-20 0.000127792)
(0.000128143 -1.65552e-05 8.30393e-20 0.000130546 4.16571e-20 0.000129343)
(0.000126786 -1.63055e-05 -1.56991e-19 0.000134691 -7.5044e-20 0.000130741)
(0.000125304 -1.55903e-05 -6.51368e-20 0.000138486 -3.07285e-20 0.000131897)
(0.000123714 -1.44269e-05 8.33656e-20 0.000141849 4.86947e-20 0.000132782)
(0.000122077 -1.28694e-05 4.27368e-20 0.00014464 2.11368e-20 0.000133361)
(0.000120395 -1.09675e-05 -3.97164e-20 0.000146741 -2.42795e-20 0.00013357)
(0.000118675 -8.77153e-06 -1.11282e-20 0.00014807 -4.47086e-21 0.000133375)
(0.000114991 -1.15869e-05 -1.08081e-20 0.000100012 -4.7479e-21 0.000107504)
(0.000114718 -1.28379e-05 -8.21628e-21 0.000103527 -4.28058e-21 0.00010912)
(0.000114185 -1.37847e-05 2.65054e-20 0.000107278 1.2527e-20 0.000110736)
(0.000113471 -1.43568e-05 6.50574e-21 0.000111063 3.3282e-21 0.000112266)
(0.00011256 -1.45489e-05 3.82392e-20 0.000114946 1.75658e-20 0.000113752)
(0.000111521 -1.43284e-05 2.22196e-19 0.000118715 1.08015e-19 0.00011512)
(0.000110397 -1.37077e-05 3.83302e-20 0.000122203 1.75081e-20 0.000116302)
(0.000109201 -1.27019e-05 3.72243e-20 0.000125344 1.10113e-20 0.000117272)
(0.000107986 -1.13576e-05 -3.02634e-20 0.000128018 -1.41251e-20 0.000118004)
(0.000106746 -9.71433e-06 -2.64742e-20 0.000130124 -9.62344e-21 0.000118437)
(0.000105493 -7.81437e-06 -2.29406e-20 0.000131599 -8.98474e-21 0.000118547)
(0.00010094 -1.02639e-05 8.81789e-21 8.80266e-05 3.56738e-21 9.44848e-05)
(0.000100745 -1.13476e-05 2.84677e-20 9.11767e-05 1.27713e-20 9.59583e-05)
(0.000100332 -1.21633e-05 2.98063e-20 9.45353e-05 1.33499e-20 9.74378e-05)
(9.9786e-05 -1.26534e-05 -4.44024e-20 9.79418e-05 -2.08239e-20 9.88626e-05)
(9.90851e-05 -1.28125e-05 -7.43049e-20 0.000101445 -3.50808e-20 0.000100264)
(9.82944e-05 -1.26145e-05 -4.91495e-20 0.000104869 -2.79439e-20 0.000101583)
(9.74426e-05 -1.20701e-05 -5.11416e-20 0.00010806 -2.17019e-20 0.000102753)
(9.655e-05 -1.11939e-05 -2.95306e-20 0.000110973 -1.57265e-20 0.000103761)
(9.56557e-05 -1.00256e-05 4.88693e-20 0.0001135 2.27874e-20 0.000104579)
(9.47558e-05 -8.59881e-06 -2.2349e-21 0.000115557 -1.13561e-21 0.000105158)
(9.3856e-05 -6.9479e-06 9.31133e-21 0.000117089 4.74101e-21 0.000105474)
(9.2966e-05 -5.12128e-06 -2.54562e-20 0.000118033 -1.16371e-20 0.000105501)
(8.88053e-05 -9.11209e-06 -3.34166e-21 7.7658e-05 -1.09147e-21 8.32326e-05)
(8.86671e-05 -1.00518e-05 -2.71554e-20 8.04804e-05 -1.18485e-20 8.45722e-05)
(8.83482e-05 -1.07558e-05 -3.09497e-20 8.34937e-05 -1.38674e-20 8.59247e-05)
(8.7929e-05 -1.11745e-05 -6.07198e-21 8.65568e-05 -1.5512e-21 8.72417e-05)
(8.73931e-05 -1.13044e-05 2.37174e-20 8.972e-05 1.04311e-20 8.85553e-05)
(8.67897e-05 -1.11231e-05 -1.85538e-20 9.28206e-05 -7.40782e-21 8.98065e-05)
(8.61513e-05 -1.06416e-05 8.66312e-20 9.57346e-05 3.83525e-20 9.09436e-05)
(8.54913e-05 -9.87314e-06 -6.67258e-20 9.84179e-05 -2.73973e-20 9.19543e-05)
(8.48432e-05 -8.85228e-06 -8.85513e-21 0.000100781 -6.14224e-21 9.28132e-05)
(8.42037e-05 -7.60775e-06 -2.4391e-20 0.000102755 -4.31243e-21 9.348e-05)
(8.35785e-05 -6.168e-06 2.54616e-20 0.000104294 1.76273e-21 9.39367e-05)
(8.29736e-05 -4.57335e-06 -4.60921e-20 0.000105344 -1.02238e-20 9.41592e-05)
(7.82889e-05 -8.10496e-06 -1.67719e-20 6.86533e-05 -6.89544e-21 7.34715e-05)
(7.81909e-05 -8.921e-06 1.47084e-20 7.11833e-05 5.84426e-21 7.46856e-05)
(7.79442e-05 -9.52885e-06 -5.04642e-21 7.38883e-05 -1.93897e-21 7.59199e-05)
(7.76227e-05 -9.88609e-06 -1.11893e-20 7.66441e-05 -4.01109e-21 7.7132e-05)
(7.72137e-05 -9.99003e-06 -3.71876e-20 7.94972e-05 -1.5862e-20 7.83546e-05)
(7.67553e-05 -9.82171e-06 -2.95288e-20 8.23025e-05 -1.08883e-20 7.95302e-05)
(7.62811e-05 -9.3927e-06 3.82246e-20 8.49554e-05 1.51036e-20 8.06188e-05)
(7.58004e-05 -8.71442e-06 1.91777e-20 8.7418e-05 9.86801e-21 8.16092e-05)
(7.53412e-05 -7.81739e-06 -3.09859e-20 8.96129e-05 -1.17254e-20 8.24783e-05)
(7.4902e-05 -6.7268e-06 1.07393e-19 9.14835e-05 4.12406e-20 8.31935e-05)
(7.44863e-05 -5.46623e-06 -1.35678e-19 9.29915e-05 -5.12621e-20 8.37394e-05)
(7.40982e-05 -4.06899e-06 1.38569e-19 9.409e-05 5.08365e-20 8.40951e-05)
(7.37311e-05 -2.56557e-06 -1.19804e-19 9.47338e-05 -2.92895e-20 8.42333e-05)
(6.91407e-05 -7.22114e-06 -1.11076e-21 6.08038e-05 -4.48762e-22 6.49723e-05)
(6.90746e-05 -7.93092e-06 -2.05986e-20 6.30758e-05 -8.01774e-21 6.6074e-05)
(6.88818e-05 -8.45562e-06 3.85407e-21 6.55035e-05 1.81632e-21 6.71959e-05)
(6.86379e-05 -8.75998e-06 1.6237e-20 6.7985e-05 6.78886e-21 6.83098e-05)
(6.8326e-05 -8.84105e-06 1.42172e-20 7.05568e-05 6.28663e-21 6.94407e-05)
(6.79808e-05 -8.68345e-06 4.80555e-20 7.30936e-05 2.05646e-20 7.05382e-05)
(6.76337e-05 -8.29871e-06 7.5051e-20 7.55037e-05 2.60689e-20 7.1569e-05)
(6.72908e-05 -7.69683e-06 3.33138e-20 7.77556e-05 1.0162e-20 7.25228e-05)
(6.69767e-05 -6.90512e-06 -4.24691e-20 7.9783e-05 -1.20218e-20 7.33806e-05)
(6.66889e-05 -5.94539e-06 -1.7731e-21 8.15368e-05 -6.13117e-21 7.41134e-05)
(6.64316e-05 -4.83767e-06 6.11903e-21 8.29876e-05 1.41283e-20 7.471e-05)
(6.6209e-05 -3.61083e-06 -3.38156e-20 8.40959e-05 -2.15289e-20 7.5153e-05)
(6.6013e-05 -2.28814e-06 1.19992e-19 8.48222e-05 4.86666e-20 7.54184e-05)
(6.11607e-05 -6.44317e-06 4.51774e-21 5.39412e-05 1.95749e-21 5.75506e-05)
(6.11162e-05 -7.06096e-06 -3.49035e-20 5.59814e-05 -1.285e-20 5.85479e-05)
(6.09656e-05 -7.51423e-06 3.51334e-20 5.81634e-05 1.32395e-20 5.95675e-05)
(6.0782e-05 -7.77279e-06 -2.00282e-20 6.03977e-05 -7.84658e-21 6.05884e-05)
(6.05449e-05 -7.83394e-06 -1.88742e-20 6.27154e-05 -7.39401e-21 6.16296e-05)
(6.02888e-05 -7.68547e-06 5.23218e-20 6.50085e-05 1.85922e-20 6.26495e-05)
(6.00379e-05 -7.33803e-06 -6.91021e-20 6.71937e-05 -3.06325e-20 6.36162e-05)
(5.98017e-05 -6.80134e-06 -2.04013e-20 6.92482e-05 -7.28334e-21 6.45247e-05)
(5.95981e-05 -6.09961e-06 1.08439e-19 7.11116e-05 3.69162e-20 6.53555e-05)
(5.94271e-05 -5.25214e-06 -4.13266e-20 7.27455e-05 -1.55865e-20 6.60865e-05)
(5.92906e-05 -4.27582e-06 1.42956e-19 7.4124e-05 4.27486e-20 6.67073e-05)
(5.91928e-05 -3.19507e-06 -7.71079e-20 7.52152e-05 -2.31326e-20 6.72044e-05)
(5.91267e-05 -2.02947e-06 1.17772e-20 7.5985e-05 -1.2489e-20 6.75561e-05)
(5.90919e-05 -8.02602e-07 1.77362e-20 7.64077e-05 4.99322e-21 6.775e-05)
(5.41797e-05 -5.75643e-06 1.44376e-20 4.7924e-05 5.33118e-21 5.10515e-05)
(5.41506e-05 -6.29457e-06 -1.9707e-20 4.9757e-05 -6.78001e-21 5.19531e-05)
(5.40343e-05 -6.68623e-06 -4.67146e-21 5.17205e-05 -2.01659e-21 5.28799e-05)
(5.38952e-05 -6.905e-06 -3.28139e-20 5.37305e-05 -1.22921e-20 5.38117e-05)
(5.37172e-05 -6.94914e-06 -5.05539e-20 5.58204e-05 -1.69739e-20 5.47682e-05)
(5.35291e-05 -6.80844e-06 4.81775e-20 5.78908e-05 1.42574e-20 5.57109e-05)
(5.33541e-05 -6.49339e-06 -8.49243e-20 5.9871e-05 -2.83015e-20 5.66127e-05)
(5.31977e-05 -6.01259e-06 -3.98284e-20 6.17393e-05 -1.40417e-20 5.74684e-05)
(5.30786e-05 -5.38803e-06 -1.10409e-19 6.3447e-05 -3.95845e-20 5.82635e-05)
(5.29941e-05 -4.63676e-06 -3.0149e-20 6.49584e-05 -1.19689e-20 5.89767e-05)
(5.29485e-05 -3.77365e-06 -1.44036e-19 6.62555e-05 -5.53974e-20 5.96022e-05)
(5.29426e-05 -2.81959e-06 3.72596e-20 6.73082e-05 1.90623e-20 6.01258e-05)
(5.29732e-05 -1.79071e-06 -1.99549e-19 6.80924e-05 -5.55393e-20 6.05329e-05)
(5.3039e-05 -7.06234e-07 3.50357e-20 6.85842e-05 1.86948e-20 6.08115e-05)
(4.80575e-05 -5.14873e-06 -1.04549e-20 4.26346e-05 -3.53812e-21 4.53457e-05)
(4.80392e-05 -5.61776e-06 2.13974e-20 4.42824e-05 7.76389e-21 4.61602e-05)
(4.79503e-05 -5.95606e-06 3.78714e-21 4.60502e-05 1.0957e-21 4.70025e-05)
(4.78454e-05 -6.1406e-06 -6.9388e-20 4.78594e-05 -2.31943e-20 4.78512e-05)
(4.77136e-05 -6.17022e-06 7.81676e-20 4.97432e-05 2.72908e-20 4.87279e-05)
(4.75782e-05 -6.03646e-06 -1.08657e-19 5.16119e-05 -3.93013e-20 4.95958e-05)
(4.74605e-05 -5.74943e-06 9.40928e-20 5.34036e-05 3.43462e-20 5.04322e-05)
(4.73664e-05 -5.31718e-06 -1.58966e-20 5.51013e-05 -3.93384e-21 5.12336e-05)
(4.73103e-05 -4.75961e-06 8.38668e-20 5.66602e-05 3.11571e-20 5.19858e-05)
(4.72916e-05 -4.09186e-06 -6.37378e-20 5.80527e-05 -2.15434e-20 5.26722e-05)
(4.73126e-05 -3.32669e-06 -5.37777e-20 5.92629e-05 -5.71361e-21 5.32878e-05)
(4.73745e-05 -2.48171e-06 9.30371e-20 6.02666e-05 3.11013e-20 5.38209e-05)
(4.74755e-05 -1.5716e-06 1.61286e-19 6.10436e-05 5.76935e-20 5.42598e-05)
(4.76129e-05 -6.11527e-07 1.10284e-19 6.15725e-05 2.7371e-20 5.45927e-05)
(4.26769e-05 -4.60983e-06 1.04122e-20 3.79747e-05 3.44461e-21 4.03252e-05)
(4.26661e-05 -5.01882e-06 -1.05086e-20 3.94569e-05 -3.1886e-21 4.1061e-05)
(4.25973e-05 -5.3107e-06 6.76221e-21 4.10478e-05 2.28793e-21 4.18247e-05)
(4.25196e-05 -5.46583e-06 4.78077e-21 4.26776e-05 2.67587e-21 4.25975e-05)
(4.24229e-05 -5.48302e-06 -5.28285e-20 4.43749e-05 -1.87372e-20 4.33985e-05)
(4.23285e-05 -5.35563e-06 -6.0524e-20 4.6061e-05 -1.79698e-20 4.41955e-05)
(4.22541e-05 -5.09309e-06 -4.39831e-20 4.76803e-05 -1.49969e-20 4.49673e-05)
(4.22076e-05 -4.70336e-06 -1.33229e-20 4.92206e-05 -1.72983e-21 4.5714e-05)
(4.21985e-05 -4.20376e-06 4.0656e-21 5.06406e-05 1.5065e-21 4.64201e-05)
(4.22283e-05 -3.60846e-06 -1.02641e-21 5.19187e-05 2.15556e-21 4.70737e-05)
(4.22978e-05 -2.92849e-06 1.03406e-19 5.30404e-05 3.28637e-20 4.76692e-05)
(4.24094e-05 -2.17922e-06 1.92316e-20 5.39878e-05 -1.8854e-21 4.81986e-05)
(4.25593e-05 -1.3726e-06 -3.84e-20 5.47416e-05 -1.68395e-20 4.86507e-05)
(4.27478e-05 -5.21598e-07 -2.86622e-20 5.52865e-05 -1.43339e-20 4.9017e-05)
(4.29714e-05 3.557e-07 -1.55791e-19 5.56029e-05 -3.88628e-20 4.92873e-05)
(3.79381e-05 -4.13085e-06 1.40285e-20 3.38601e-05 4.4878e-21 3.58985e-05)
(3.79331e-05 -4.48767e-06 3.27913e-20 3.51946e-05 1.07432e-20 3.65634e-05)
(3.78793e-05 -4.73926e-06 -5.00739e-20 3.66264e-05 -1.56194e-20 3.72548e-05)
(3.78224e-05 -4.86904e-06 7.26176e-20 3.80944e-05 2.40217e-20 3.79573e-05)
(3.77531e-05 -4.87582e-06 1.22167e-20 3.9624e-05 4.84778e-21 3.86882e-05)
(3.76895e-05 -4.75429e-06 9.33988e-20 4.11439e-05 3.16888e-20 3.94175e-05)
(3.76491e-05 -4.51363e-06 7.17648e-20 4.26075e-05 2.19284e-20 4.01283e-05)
(3.76376e-05 -4.16115e-06 5.60735e-20 4.40022e-05 1.92357e-20 4.08198e-05)
(3.76639e-05 -3.71247e-06 8.56296e-20 4.52938e-05 2.33705e-20 4.14792e-05)
(3.77283e-05 -3.18049e-06 -3.74875e-20 4.64622e-05 -1.25099e-20 4.20954e-05)
(3.78323e-05 -2.57459e-06 -4.54406e-20 4.74974e-05 -1.93535e-20 4.26648e-05)
(3.79778e-05 -1.9084e-06 -6.01132e-20 4.83836e-05 -1.75336e-20 4.31809e-05)
(3.81621e-05 -1.19235e-06 7.33725e-20 4.91054e-05 1.92818e-20 4.36337e-05)
(3.83854e-05 -4.37205e-07 2.72411e-20 4.96504e-05 5.85922e-21 4.40178e-05)
(3.86443e-05 3.42216e-07 5.67258e-20 5.00009e-05 2.6423e-20 4.43228e-05)
(3.37568e-05 -3.70442e-06 -2.66966e-20 3.02202e-05 -8.15785e-21 3.1988e-05)
(3.37561e-05 -4.01581e-06 -2.73663e-21 3.14226e-05 -8.86473e-22 3.25889e-05)
(3.37134e-05 -4.23242e-06 8.27339e-20 3.27113e-05 2.60431e-20 3.32142e-05)
(3.36727e-05 -4.34039e-06 -1.68898e-21 3.40337e-05 -1.12318e-21 3.38521e-05)
(3.36249e-05 -4.33853e-06 -3.67138e-20 3.54122e-05 -1.11017e-20 3.45182e-05)
(3.35843e-05 -4.22247e-06 -1.1426e-20 3.6782e-05 -6.1049e-21 3.51838e-05)
(3.35699e-05 -4.0014e-06 -9.16124e-20 3.81041e-05 -2.95566e-20 3.5837e-05)
(3.35837e-05 -3.68166e-06 2.4386e-20 3.93651e-05 8.21293e-21 3.64743e-05)
(3.36357e-05 -3.27774e-06 -1.08669e-19 4.05379e-05 -3.3055e-20 3.70871e-05)
(3.37245e-05 -2.80106e-06 2.4182e-20 4.16033e-05 6.10772e-21 3.76641e-05)
(3.38525e-05 -2.26033e-06 -4.58129e-20 4.25543e-05 -1.08418e-20 3.82035e-05)
(3.40199e-05 -1.66707e-06 -9.05217e-21 4.33769e-05 -1.3899e-22 3.86984e-05)
(3.42264e-05 -1.03034e-06 -9.49524e-20 4.40604e-05 -3.29336e-20 3.91435e-05)
(3.44711e-05 -3.59435e-07 -4.95434e-20 4.4593e-05 -1.00356e-20 3.9532e-05)
(3.47513e-05 3.33162e-07 5.87951e-20 4.49603e-05 9.46565e-21 3.98558e-05)
(3.00619e-05 -3.32426e-06 5.22944e-21 2.69955e-05 1.62175e-21 2.8528e-05)
(3.00632e-05 -3.59585e-06 -3.35151e-20 2.8078e-05 -1.01152e-20 2.90703e-05)
(3.00295e-05 -3.78219e-06 -5.3045e-20 2.92389e-05 -1.65418e-20 2.96358e-05)
(3.00007e-05 -3.87137e-06 -1.10812e-20 3.04299e-05 -2.75854e-21 3.02144e-05)
(2.99687e-05 -3.86228e-06 5.08976e-20 3.16715e-05 1.53269e-20 3.08199e-05)
(2.99467e-05 -3.75163e-06 -5.89229e-20 3.29065e-05 -1.7303e-20 3.14271e-05)
(2.9951e-05 -3.5481e-06 -5.75478e-21 3.4099e-05 1.93158e-21 3.2025e-05)
(2.99834e-05 -3.25741e-06 1.06054e-19 3.52386e-05 2.86957e-20 3.2611e-05)
(3.00531e-05 -2.89314e-06 7.69682e-20 3.63009e-05 2.36212e-20 3.31774e-05)
(3.01587e-05 -2.4652e-06 -9.52162e-20 3.72705e-05 -2.8258e-20 3.37147e-05)
(3.03016e-05 -1.98156e-06 3.70698e-20 3.81406e-05 1.57594e-20 3.42213e-05)
(3.04833e-05 -1.45229e-06 2.28993e-20 3.89013e-05 6.79911e-21 3.46924e-05)
(3.07027e-05 -8.85524e-07 -7.21601e-20 3.95426e-05 -1.11984e-20 3.51227e-05)
(3.0959e-05 -2.88505e-07 7.44587e-20 4.00551e-05 2.03932e-20 3.5507e-05)
(3.12509e-05 3.27725e-07 -6.41231e-20 4.04273e-05 -2.11438e-20 3.58393e-05)
(3.15754e-05 9.52788e-07 5.73346e-20 4.0647e-05 1.74485e-20 3.6111e-05)
(2.67917e-05 -2.98479e-06 2.52553e-21 2.41335e-05 7.5002e-22 2.5462e-05)
(2.67937e-05 -3.22163e-06 7.00608e-22 2.51084e-05 3.3751e-22 2.59508e-05)
(2.6767e-05 -3.38168e-06 -1.71402e-20 2.61542e-05 -4.82056e-21 2.64621e-05)
(2.67476e-05 -3.45477e-06 1.47387e-20 2.72271e-05 4.58804e-21 2.69864e-05)
(2.67272e-05 -3.43977e-06 -3.66221e-20 2.83449e-05 -1.01806e-20 2.75359e-05)
(2.67193e-05 -3.33438e-06 7.86027e-20 2.9458e-05 2.36752e-20 2.80892e-05)
(2.67371e-05 -3.14667e-06 5.07e-20 3.05332e-05 1.13982e-20 2.86351e-05)
(2.67832e-05 -2.88202e-06 -1.7714e-19 3.15625e-05 -5.34787e-20 2.91727e-05)
(2.68646e-05 -2.55281e-06 1.83587e-20 3.25234e-05 7.22979e-21 2.96943e-05)
(2.69809e-05 -2.16801e-06 6.88956e-21 3.34041e-05 4.01439e-21 3.01925e-05)
(2.71328e-05 -1.73465e-06 9.11767e-20 3.41983e-05 2.2397e-20 3.06656e-05)
(2.73218e-05 -1.26194e-06 5.97028e-20 3.48979e-05 1.02967e-20 3.11099e-05)
(2.75463e-05 -7.56349e-07 1.09499e-19 3.54946e-05 3.29027e-20 3.15205e-05)
(2.78071e-05 -2.24835e-07 -3.32846e-20 3.59819e-05 -1.00031e-20 3.18944e-05)
(2.81019e-05 3.23697e-07 -3.76995e-20 3.63486e-05 -6.34974e-21 3.22252e-05)
(2.84294e-05 8.80318e-07 8.41123e-20 3.65863e-05 1.66378e-20 3.25077e-05)
(2.38932e-05 -2.68126e-06 7.50577e-21 2.15898e-05 2.08333e-21 2.27409e-05)
(2.38956e-05 -2.88777e-06 4.5625e-20 2.24682e-05 1.29427e-20 2.31816e-05)
(2.38738e-05 -3.02494e-06 3.05437e-21 2.341e-05 1.15876e-21 2.36433e-05)
(2.38613e-05 -3.08424e-06 4.25701e-20 2.43765e-05 1.24814e-20 2.41181e-05)
(2.38502e-05 -3.06454e-06 8.57293e-21 2.53834e-05 2.15441e-21 2.46166e-05)
(2.38523e-05 -2.9642e-06 -3.9896e-20 2.63857e-05 -1.30181e-20 2.51195e-05)
(2.38799e-05 -2.79088e-06 -8.67784e-20 2.73548e-05 -2.51734e-20 2.56173e-05)
(2.39353e-05 -2.54961e-06 -8.58277e-21 2.82836e-05 3.07416e-21 2.61094e-05)
(2.40241e-05 -2.25155e-06 7.15228e-20 2.9152e-05 2.0265e-20 2.65883e-05)
(2.41462e-05 -1.90502e-06 -3.97687e-20 2.995e-05 -1.12887e-20 2.70481e-05)
(2.43021e-05 -1.51614e-06 -6.5333e-20 3.06728e-05 -2.08362e-20 2.74875e-05)
(2.4493e-05 -1.09318e-06 -1.44417e-19 3.13136e-05 -3.78694e-20 2.79034e-05)
(2.47179e-05 -6.41932e-07 7.98484e-20 3.18658e-05 1.79026e-20 2.82919e-05)
(2.49772e-05 -1.68079e-07 8.52031e-20 3.2324e-05 1.72119e-20 2.86505e-05)
(2.52699e-05 3.2064e-07 -2.23667e-20 3.268e-05 -5.11735e-21 2.89749e-05)
(2.5594e-05 8.16506e-07 -1.49206e-20 3.29253e-05 -2.81772e-21 2.92596e-05)
(2.12892e-05 -2.19465e-06 -1.21164e-21 1.86448e-05 -4.24511e-22 1.99673e-05)
(2.13212e-05 -2.40959e-06 2.64542e-21 1.93263e-05 7.53278e-22 2.03232e-05)
(2.13232e-05 -2.58954e-06 -2.68986e-20 2.01175e-05 -7.48814e-21 2.07201e-05)
(2.13052e-05 -2.70688e-06 -1.99787e-20 2.0966e-05 -5.27565e-21 2.11368e-05)
(2.12977e-05 -2.75438e-06 5.12227e-20 2.18363e-05 1.36147e-20 2.15662e-05)
(2.12934e-05 -2.73095e-06 -7.8831e-20 2.27429e-05 -2.14798e-20 2.2018e-05)
(2.13027e-05 -2.63551e-06 2.39202e-21 2.36454e-05 1.67921e-21 2.24745e-05)
(2.1337e-05 -2.47531e-06 -2.05446e-20 2.45183e-05 -2.66753e-21 2.29276e-05)
(2.13983e-05 -2.25504e-06 5.36765e-20 2.53558e-05 1.41644e-20 2.3377e-05)
(2.1491e-05 -1.98483e-06 4.24342e-20 2.61394e-05 1.00846e-20 2.38155e-05)
(2.16154e-05 -1.67235e-06 4.92717e-20 2.68614e-05 1.40746e-20 2.42385e-05)
(2.17718e-05 -1.32298e-06 2.81704e-21 2.75178e-05 2.529e-22 2.46448e-05)
(2.1961e-05 -9.44226e-07 4.37607e-21 2.81026e-05 5.81167e-21 2.50319e-05)
(2.21825e-05 -5.40937e-07 -1.40859e-20 2.86113e-05 -7.00079e-21 2.53968e-05)
(2.24364e-05 -1.18097e-07 -9.77943e-20 2.90389e-05 -2.43696e-20 2.57376e-05)
(2.27219e-05 3.17507e-07 -3.9611e-21 2.93789e-05 3.56356e-21 2.60504e-05)
(2.30377e-05 7.59367e-07 9.48109e-20 2.96241e-05 1.84174e-20 2.63308e-05)
(2.33805e-05 1.19871e-06 9.92839e-21 2.9767e-05 -1.88171e-21 2.65738e-05)
(1.90085e-05 -1.97721e-06 3.4114e-21 1.66951e-05 9.06241e-22 1.78521e-05)
(1.90362e-05 -2.16617e-06 -1.78032e-20 1.73096e-05 -4.69248e-21 1.81723e-05)
(1.90373e-05 -2.32287e-06 -2.18594e-20 1.80222e-05 -5.74557e-21 1.85296e-05)
(1.90224e-05 -2.423e-06 1.72367e-20 1.87866e-05 4.76442e-21 1.89056e-05)
(1.90184e-05 -2.46045e-06 -3.41439e-20 1.95703e-05 -9.0776e-21 1.92937e-05)
(1.9019e-05 -2.43416e-06 5.28738e-20 2.03864e-05 1.50921e-20 1.97026e-05)
(1.90337e-05 -2.34355e-06 3.14945e-20 2.11988e-05 8.89394e-21 2.01166e-05)
(1.90724e-05 -2.19542e-06 9.21672e-20 2.19848e-05 2.42111e-20 2.05285e-05)
(1.91369e-05 -1.99413e-06 -7.85166e-20 2.2739e-05 -2.18874e-20 2.09379e-05)
(1.92312e-05 -1.74889e-06 -5.20109e-21 2.34459e-05 -1.68991e-21 2.13388e-05)
(1.93552e-05 -1.46676e-06 3.79182e-20 2.40982e-05 6.08283e-21 2.17268e-05)
(1.95092e-05 -1.15243e-06 -8.02776e-20 2.46929e-05 -1.86098e-20 2.21011e-05)
(1.96939e-05 -8.12715e-07 1.09228e-20 2.52252e-05 3.44703e-21 2.24597e-05)
(1.99089e-05 -4.51975e-07 3.66082e-21 2.56913e-05 2.40513e-21 2.28002e-05)
(2.01543e-05 -7.44832e-08 6.03476e-20 2.60876e-05 1.61769e-20 2.31208e-05)
(2.04298e-05 3.13914e-07 5.18413e-20 2.64087e-05 6.56136e-21 2.34192e-05)
(2.07341e-05 7.07923e-07 -9.14412e-20 2.66487e-05 -2.21297e-20 2.36912e-05)
(2.10648e-05 1.09963e-06 -5.08749e-20 2.68015e-05 -5.41324e-21 2.39331e-05)
(1.69804e-05 -1.78177e-06 -8.67489e-22 1.49567e-05 -4.28109e-22 1.59689e-05)
(1.7004e-05 -1.94786e-06 1.65974e-21 1.55107e-05 4.2673e-22 1.62568e-05)
(1.70041e-05 -2.08423e-06 7.73232e-21 1.61526e-05 2.19823e-21 1.65782e-05)
(1.69915e-05 -2.16944e-06 5.79101e-20 1.68412e-05 1.51544e-20 1.69173e-05)
(1.699e-05 -2.19833e-06 1.58216e-20 1.75468e-05 4.00309e-21 1.72678e-05)
(1.69941e-05 -2.16993e-06 2.25308e-20 1.82814e-05 4.84858e-21 1.76376e-05)
(1.70123e-05 -2.08399e-06 -1.30173e-20 1.90123e-05 -3.88717e-21 1.80126e-05)
(1.70537e-05 -1.94698e-06 1.52484e-20 1.97198e-05 5.16796e-21 1.83867e-05)
(1.71197e-05 -1.76287e-06 3.76101e-21 2.03988e-05 1.95585e-21 1.87591e-05)
(1.72137e-05 -1.54013e-06 -2.45134e-20 2.10359e-05 -7.55263e-21 1.9125e-05)
(1.73353e-05 -1.28509e-06 -7.21203e-20 2.16242e-05 -1.79919e-20 1.94798e-05)
(1.7485e-05 -1.00216e-06 6.9955e-20 2.2162e-05 2.04193e-20 1.98235e-05)
(1.76634e-05 -6.97311e-07 -9.0527e-21 2.26453e-05 -1.50545e-21 2.01544e-05)
(1.78699e-05 -3.74299e-07 3.71691e-20 2.3071e-05 5.83962e-21 2.04705e-05)
(1.81049e-05 -3.68091e-08 -4.97177e-20 2.34362e-05 -1.36291e-20 2.07705e-05)
(1.83679e-05 3.09754e-07 -1.03722e-19 2.37365e-05 -2.6567e-20 2.10523e-05)
(1.86583e-05 6.61068e-07 6.24537e-20 2.39673e-05 1.77569e-20 2.13127e-05)
(1.89738e-05 1.01031e-06 1.21902e-19 2.41233e-05 2.48021e-20 2.15486e-05)
(1.51753e-05 -1.60597e-06 -1.73471e-21 1.34053e-05 -3.20531e-22 1.42906e-05)
(1.5195e-05 -1.75193e-06 1.66903e-20 1.39047e-05 4.20658e-21 1.45493e-05)
(1.51941e-05 -1.87049e-06 1.36579e-20 1.44828e-05 3.46401e-21 1.48383e-05)
(1.51829e-05 -1.94275e-06 -2.73617e-20 1.51029e-05 -7.04663e-21 1.51438e-05)
(1.51833e-05 -1.96443e-06 -3.39762e-20 1.57383e-05 -9.08458e-21 1.54602e-05)
(1.51898e-05 -1.93452e-06 -7.48639e-20 1.63991e-05 -1.85021e-20 1.57944e-05)
(1.52101e-05 -1.85313e-06 -2.2867e-20 1.70567e-05 -3.95595e-21 1.61338e-05)
(1.52528e-05 -1.72635e-06 1.84423e-19 1.7693e-05 4.54102e-20 1.64729e-05)
(1.53189e-05 -1.55786e-06 1.81707e-20 1.83041e-05 1.52849e-21 1.68115e-05)
(1.54111e-05 -1.35538e-06 -2.52758e-20 1.88776e-05 -6.52557e-21 1.71445e-05)
(1.5529e-05 -1.12466e-06 -1.45077e-20 1.94078e-05 -5.97218e-22 1.74684e-05)
(1.5673e-05 -8.69652e-07 4.20577e-20 1.98934e-05 6.83497e-21 1.77833e-05)
(1.58437e-05 -5.95773e-07 3.62311e-20 2.03312e-05 7.57306e-21 1.80875e-05)
(1.60405e-05 -3.06433e-07 -6.87743e-20 2.07185e-05 -1.82311e-20 1.83795e-05)
(1.62636e-05 -4.81212e-09 2.54785e-20 2.10532e-05 6.78412e-21 1.86583e-05)
(1.65129e-05 3.04622e-07 -7.17618e-20 2.1332e-05 -1.16477e-20 1.89224e-05)
(1.67879e-05 6.17944e-07 -1.98426e-20 2.15512e-05 -2.14445e-21 1.91694e-05)
(1.70864e-05 9.29274e-07 -6.50513e-20 2.17058e-05 -1.23616e-20 1.93961e-05)
(1.74062e-05 1.23298e-06 6.07789e-20 2.17919e-05 1.66994e-21 1.95989e-05)
(1.35673e-05 -1.44774e-06 -4.55268e-21 1.20196e-05 -1.11549e-21 1.27937e-05)
(1.35833e-05 -1.57595e-06 -1.00334e-20 1.24696e-05 -2.44604e-21 1.3026e-05)
(1.35813e-05 -1.67893e-06 1.8865e-20 1.29902e-05 4.63789e-21 1.32856e-05)
(1.35713e-05 -1.73998e-06 1.96294e-20 1.35485e-05 5.01563e-21 1.35608e-05)
(1.35728e-05 -1.75557e-06 3.48715e-20 1.41205e-05 8.67354e-21 1.38461e-05)
(1.35809e-05 -1.72471e-06 7.46794e-20 1.47149e-05 1.92408e-20 1.41478e-05)
(1.36027e-05 -1.6478e-06 1.44844e-20 1.53063e-05 1.14019e-21 1.44548e-05)
(1.36457e-05 -1.53049e-06 -5.17475e-20 1.58787e-05 -1.51807e-20 1.47621e-05)
(1.37108e-05 -1.37623e-06 -7.45725e-20 1.64282e-05 -1.84634e-20 1.50695e-05)
(1.37998e-05 -1.19195e-06 -2.90352e-20 1.69438e-05 -3.36702e-21 1.53719e-05)
(1.39131e-05 -9.83117e-07 3.00065e-20 1.74211e-05 5.97241e-21 1.56671e-05)
(1.40506e-05 -7.5326e-07 -9.35315e-20 1.78589e-05 -2.22914e-20 1.59548e-05)
(1.42126e-05 -5.07021e-07 -1.17338e-22 1.82544e-05 -6.29843e-22 1.62336e-05)
(1.43987e-05 -2.47544e-07 -5.90166e-20 1.86058e-05 -1.02297e-20 1.65023e-05)
(1.46093e-05 2.23543e-08 -1.56141e-20 1.89115e-05 -5.8184e-21 1.67603e-05)
(1.4844e-05 2.98629e-07 1.33488e-20 1.91687e-05 4.70406e-21 1.70064e-05)
(1.51026e-05 5.78109e-07 1.08238e-19 1.93742e-05 2.50165e-20 1.72383e-05)
(1.53833e-05 8.5566e-07 1.26199e-19 1.95243e-05 2.41332e-20 1.74538e-05)
(1.5684e-05 1.12629e-06 -8.23707e-20 1.96155e-05 -1.53119e-20 1.76497e-05)
(1.21336e-05 -1.30522e-06 8.76544e-22 1.07807e-05 1.23943e-22 1.14574e-05)
(1.21462e-05 -1.41781e-06 7.15065e-21 1.11861e-05 1.72122e-21 1.16657e-05)
(1.21433e-05 -1.50715e-06 -3.66755e-20 1.16549e-05 -8.64402e-21 1.18989e-05)
(1.2134e-05 -1.5585e-06 2.44629e-20 1.21575e-05 5.45035e-21 1.21465e-05)
(1.21362e-05 -1.56897e-06 -6.01039e-20 1.26722e-05 -1.41862e-20 1.24037e-05)
(1.21453e-05 -1.53761e-06 5.47205e-20 1.32069e-05 1.15506e-20 1.26761e-05)
(1.21678e-05 -1.465e-06 -1.99476e-19 1.37387e-05 -4.77431e-20 1.29535e-05)
(1.22104e-05 -1.35647e-06 1.18867e-20 1.42533e-05 4.47173e-21 1.32318e-05)
(1.22733e-05 -1.21515e-06 -2.26412e-20 1.47468e-05 -3.24581e-21 1.35101e-05)
(1.2359e-05 -1.04749e-06 1.48782e-19 1.52103e-05 3.29964e-20 1.37848e-05)
(1.2467e-05 -8.58342e-07 -4.4693e-20 1.56396e-05 -1.18085e-20 1.40533e-05)
(1.25974e-05 -6.50907e-07 1.00812e-20 1.60338e-05 4.6812e-21 1.43157e-05)
(1.27503e-05 -4.29438e-07 -7.92385e-22 1.63905e-05 1.11525e-21 1.45705e-05)
(1.29253e-05 -1.96748e-07 4.16235e-20 1.67084e-05 1.14422e-20 1.48169e-05)
(1.3123e-05 4.48166e-08 -8.38798e-20 1.69865e-05 -1.85594e-20 1.50547e-05)
(1.33428e-05 2.91641e-07 -3.76996e-20 1.72224e-05 -5.33294e-21 1.52826e-05)
(1.35845e-05 5.40978e-07 4.7831e-20 1.74133e-05 6.17114e-21 1.54988e-05)
(1.38468e-05 7.88305e-07 -5.5676e-20 1.75566e-05 -1.62925e-20 1.57017e-05)
(1.4128e-05 1.0295e-06 8.38083e-20 1.76491e-05 1.6132e-20 1.58885e-05)
(1.08544e-05 -1.17677e-06 -2.19623e-21 9.67218e-06 -4.87826e-22 1.02635e-05)
(1.08641e-05 -1.27561e-06 -1.92227e-20 1.00373e-05 -4.43333e-21 1.04503e-05)
(1.08602e-05 -1.35302e-06 2.17426e-20 1.04594e-05 5.10854e-21 1.06597e-05)
(1.08514e-05 -1.39598e-06 -4.1393e-20 1.09117e-05 -9.51276e-21 1.08822e-05)
(1.0854e-05 -1.40221e-06 7.64512e-20 1.13749e-05 1.78813e-20 1.1114e-05)
(1.08636e-05 -1.37071e-06 -9.22472e-21 1.18557e-05 -2.96246e-21 1.13596e-05)
(1.08862e-05 -1.30229e-06 1.58628e-20 1.23337e-05 5.66702e-21 1.16102e-05)
(1.09277e-05 -1.20192e-06 1.28823e-20 1.2796e-05 3.35747e-21 1.18618e-05)
(1.09884e-05 -1.07246e-06 -2.49954e-20 1.32394e-05 -6.30088e-21 1.21138e-05)
(1.10701e-05 -9.19813e-07 -9.2644e-20 1.36558e-05 -2.09385e-20 1.23631e-05)
(1.11725e-05 -7.48387e-07 -1.16061e-20 1.40416e-05 -2.19247e-21 1.26071e-05)
(1.12954e-05 -5.6113e-07 7.71441e-21 1.43959e-05 2.92369e-21 1.28457e-05)
(1.14389e-05 -3.61861e-07 4.23517e-20 1.4717e-05 1.04557e-20 1.3078e-05)
(1.16028e-05 -1.53021e-07 7.12492e-20 1.5004e-05 1.57139e-20 1.33034e-05)
(1.17874e-05 6.32046e-08 -4.26969e-20 1.52562e-05 -7.60648e-21 1.35218e-05)
(1.19923e-05 2.83785e-07 4.61474e-20 1.54714e-05 1.32439e-20 1.37319e-05)
(1.22173e-05 5.06209e-07 3.09992e-21 1.56477e-05 -1.83481e-21 1.39324e-05)