/*--------------------------------*- C++ -*----------------------------------*\
| =========                 |                                                 |
| \\      /  F ield         | OpenFOAM: The Open Source CFD Toolbox           |
|  \\    /   O peration     | Version:  2306                                  |
|   \\  /    A nd           | Website:  www.openfoam.com                      |
|    \\/     M anipulation  |                                                 |
\*---------------------------------------------------------------------------*/
FoamFile
{
    version     2.0;
    format      ascii;
    arch        "LSB;label=32;scalar=64";
    class       volVectorField;
    location    "425";
    object      U;
}
// * * * * * * * * * * * * * * * * * * * * * * * * * * * * * * * * * * * * * //

dimensions      [0 1 -1 0 0 0 0];

internalField   nonuniform List<vector> 
1340
(
(18.5696 14.7731 -5.32976e-19)
(19.3777 15.468 1.84335e-17)
(20.2844 16.1307 -1.85449e-17)
(19.2327 14.0588 1.40835e-17)
(19.986 14.6961 -3.90053e-18)
(20.8283 15.3041 1.82317e-17)
(21.7225 15.8362 -9.96933e-17)
(22.7075 16.3086 1.14619e-17)
(19.8238 13.4103 1.20229e-17)
(20.5292 13.9963 -1.90872e-17)
(21.3156 14.555 -1.78545e-17)
(22.1462 15.0434 1.25252e-17)
(23.0596 15.4781 3.23899e-17)
(24.0292 15.8384 -1.42082e-16)
(25.0357 16.108 -5.8542e-17)
(20.3529 12.8178 -1.83013e-17)
(21.0158 13.3579 -5.35804e-17)
(21.7528 13.8722 9.37836e-18)
(22.5277 14.321 -3.23835e-18)
(23.378 14.7209 -9.5469e-17)
(24.2786 15.0532 1.9347e-16)
(25.2108 15.3032 -3.20926e-16)
(26.1788 15.4683 1.02747e-15)
(20.8285 12.2737 2.6886e-17)
(21.4536 12.7722 1.42215e-17)
(22.1466 13.2463 1.96715e-17)
(22.872 13.6588 3.29169e-17)
(23.6666 14.0268 -5.55737e-17)
(24.5059 14.3326 9.19297e-17)
(25.3724 14.5633 4.30726e-16)
(26.2708 14.7172 -5.73957e-16)
(27.1884 14.7878 -2.69483e-16)
(21.2577 11.7716 3.84399e-18)
(21.8486 12.2324 -5.91475e-19)
(22.5021 12.6697 -1.38554e-17)
(23.1832 13.0494 1.4601e-18)
(23.9279 13.3878 8.65759e-17)
(24.7125 13.6687 -1.90611e-16)
(25.5203 13.8808 -3.65092e-17)
(26.3563 14.023 -1.53801e-16)
(27.2089 14.0897 -1.78469e-16)
(21.6463 11.3063 -5.46191e-17)
(22.2061 11.7327 5.05442e-17)
(22.8236 12.1366 -1.33112e-18)
(23.4648 12.4861 4.56093e-18)
(24.1645 12.7971 1.61169e-16)
(24.9 13.0548 -9.25545e-17)
(25.655 13.2491 -4.56485e-16)
(26.435 13.3793 7.12009e-16)
(27.229 13.4408 4.93617e-16)
(28.0321 13.4298 -3.85641e-16)
(21.9991 10.8736 2.41812e-17)
(22.5303 11.2686 3.24945e-18)
(23.115 11.6419 6.90349e-18)
(23.7199 11.9637 3.33168e-17)
(24.3789 12.2494 -1.66928e-16)
(25.0698 12.4855 4.56028e-16)
(25.7771 12.6627 3.03208e-16)
(26.5063 12.7811 -4.36056e-16)
(27.2473 12.8366 -3.16744e-16)
(27.9957 12.8262 2.62548e-16)
(28.7518 12.7468 9.45771e-17)
(22.3201 10.4701 -2.15361e-17)
(22.8249 10.8363 -8.36902e-18)
(23.3794 11.1814 -1.85425e-18)
(23.9512 11.4777 -1.01403e-17)
(24.5729 11.74 -4.68069e-17)
(25.2232 11.9559 -6.65271e-16)
(25.8872 12.1171 -1.93099e-16)
(26.5704 12.2239 -1.6425e-16)
(27.2631 12.2731 1.61123e-16)
(27.9615 12.262 1.6102e-16)
(28.6667 12.1881 2.02743e-16)
(22.6129 10.0928 2.39347e-17)
(23.0932 10.4324 4.57968e-17)
(23.6198 10.7516 4.0019e-18)
(24.1611 11.0244 2.2378e-17)
(24.7485 11.2651 1.29371e-16)
(25.3617 11.4621 1.56268e-16)
(25.986 11.6082 1.99178e-16)
(26.6271 11.7038 1.8189e-16)
(27.2758 11.7464 -3.05757e-16)
(27.9286 11.7338 -1.97002e-17)
(28.5871 11.6638 -1.04062e-16)
(29.2468 11.5338 2.06618e-16)
(22.8803 9.73919 -5.2155e-18)
(23.3378 10.0543 -3.66544e-17)
(23.8384 10.3495 5.57859e-18)
(24.3515 10.6006 1.73805e-17)
(24.9074 10.8212 -5.29336e-17)
(25.4863 11.0007 5.74919e-17)
(26.0743 11.1326 -3.54732e-16)
(26.6768 11.2176 3.11634e-16)
(27.2851 11.2535 6.45104e-17)
(27.8961 11.2388 1.49207e-16)
(28.5116 11.1716 -1.46861e-16)
(29.1278 11.0496 3.20611e-16)
(23.1249 9.40704 -4.01783e-17)
(23.5611 9.69946 1.765e-17)
(24.0375 9.97244 -1.43051e-17)
(24.5243 10.2036 -4.34676e-18)
(25.051 10.4056 7.36621e-17)
(25.5983 10.5688 9.5918e-17)
(26.1528 10.6874 -1.39312e-16)
(26.7197 10.7623 -1.29277e-16)
(27.2909 10.7916 2.11431e-16)
(27.8635 10.7744 -7.55487e-16)
(28.4394 10.7089 1.09635e-15)
(29.0153 10.5935 -1.20748e-15)
(29.59 10.4248 1.08443e-15)
(23.3491 9.09452 9.70073e-20)
(23.7652 9.36591 -1.4217e-17)
(24.2188 9.61835 9.39617e-18)
(24.6812 9.83096 -8.91221e-18)
(25.1807 10.0157 -1.42529e-17)
(25.6986 10.1638 -1.35495e-16)
(26.222 10.2699 -2.85094e-16)
(26.7561 10.3352 -1.74078e-16)
(27.293 10.3583 2.16428e-16)
(27.8302 10.3383 5.33585e-17)
(28.3696 10.274 -1.11762e-16)
(28.9084 10.1638 4.20871e-16)
(29.4455 10.0051 -1.17304e-15)
(23.5546 8.80002 4.98062e-18)
(23.9518 9.05186 -4.36671e-17)
(24.3841 9.28527 -8.86856e-19)
(24.8236 9.48069 2.52964e-17)
(25.2976 9.64946 6.45986e-17)
(25.7882 9.78345 -1.36608e-16)
(26.2828 9.87798 3.1245e-16)
(26.7865 9.93425 1.3079e-16)
(27.2916 9.95124 -6.48185e-16)
(27.796 9.92835 3.15443e-16)
(28.3017 9.8647 -1.0491e-15)
(28.806 9.75894 6.25221e-16)
(29.3084 9.60876 5.36329e-17)
(29.8078 9.41134 -1.81511e-16)
(23.7433 8.52209 2.52923e-17)
(24.1225 8.75579 -1.59055e-17)
(24.5347 8.97152 2.83344e-18)
(24.9528 9.15098 4.74248e-17)
(25.403 9.30493 1.31615e-16)
(25.8679 9.42582 -1.1789e-16)
(26.3357 9.50956 3.37677e-16)
(26.811 9.55738 1.84962e-16)
(27.2868 9.56858 6.60731e-16)
(27.7608 9.54281 2.09145e-16)
(28.2351 9.4794 1.18732e-15)
(28.7074 9.3773 -4.11956e-16)
(29.1775 9.23449 1.93301e-15)
(29.6445 9.04842 -4.02866e-16)
(23.9166 8.25949 -1.81833e-17)
(24.2789 8.47632 1.7417e-17)
(24.672 8.67556 -1.01157e-17)
(25.0698 8.84025 9.03029e-17)
(25.4976 8.98042 -1.75454e-16)
(25.9386 9.08916 3.52413e-16)
(26.3813 9.16285 -3.81428e-16)
(26.8302 9.2028 7.7632e-17)
(27.2786 9.20854 -5.18371e-16)
(27.7243 9.17996 4.12069e-16)
(28.1696 9.11656 3.9956e-16)
(28.6122 9.01754 -7.37245e-16)
(29.0522 8.88112 -1.62964e-15)
(29.489 8.70506 -1.26797e-15)
(24.0758 8.01111 1.97296e-17)
(24.422 8.21224 -3.67121e-18)
(24.7971 8.39613 -1.00487e-17)
(25.1759 8.54709 -3.24177e-17)
(25.5826 8.67447 9.69931e-17)
(26.001 8.77192 1.68954e-16)
(26.4202 8.8363 1.82844e-16)
(26.8444 8.8689 6.23683e-17)
(27.2672 8.86953 -2.41458e-17)
(27.6866 8.83823 -8.90402e-18)
(28.1048 8.77467 -8.1729e-16)
(28.5198 8.6783 -1.68954e-16)
(28.9318 8.54753 4.11137e-16)
(29.3404 8.38041 3.1679e-16)
(29.7435 8.17468 1.83206e-15)
(24.2223 7.77598 2.30354e-17)
(24.5531 7.96245 2.22948e-17)
(24.9111 8.13206 1.60396e-17)
(25.2718 8.27027 -9.4343e-17)
(25.6586 8.38577 -1.91629e-17)
(26.0558 8.47275 -3.06543e-16)
(26.4528 8.5285 -3.08369e-16)
(26.8539 8.55429 -3.09872e-16)
(27.2528 8.55016 -5.52779e-16)
(27.6477 8.51629 1.96852e-16)
(28.0406 8.4525 3.6873e-16)
(28.4299 8.35839 5.66029e-16)
(28.8158 8.23266 -6.70735e-16)
(29.198 8.0735 -2.87274e-16)
(29.5749 7.87893 -7.75395e-16)
(24.357 7.55318 -4.66351e-17)
(24.6732 7.72598 -7.35408e-18)
(25.0149 7.88229 -3.21788e-17)
(25.3585 8.00865 -3.1736e-18)
(25.7264 8.11312 6.89159e-17)
(26.1036 8.19042 3.93769e-17)
(26.4798 8.23818 4.29368e-16)
(26.8592 8.25765 -1.44265e-16)
(27.2356 8.2491 6.35267e-16)
(27.6076 8.21284 -1.65369e-16)
(27.977 8.14876 3.16742e-16)
(28.3422 8.0567 8.62065e-18)
(28.7037 7.93549 9.52157e-16)
(29.0613 7.78354 6.01563e-16)
(29.4137 7.59909 -6.3044e-16)
(24.4809 7.34194 1.21133e-17)
(24.7832 7.50196 -8.75013e-18)
(25.1093 7.6459 3.57386e-17)
(25.4367 7.76124 2.19787e-17)
(25.7867 7.85547 -1.41661e-16)
(26.145 7.92381 1.89932e-16)
(26.5016 7.96418 9.98907e-18)
(26.8605 7.97785 -5.47558e-16)
(27.2159 7.96521 -5.36293e-16)
(27.5663 7.92675 6.39659e-16)
(27.9137 7.86242 -3.32871e-16)
(28.2565 7.77219 -2.54653e-16)
(28.5952 7.65509 6.6815e-16)
(28.9298 7.50968 -8.26234e-16)
(29.2592 7.33443 7.98266e-16)
(29.5818 7.12755 -7.94324e-16)
(24.595 7.14151 4.2715e-18)
(24.8838 7.28962 2.03145e-18)
(25.1952 7.42202 1.55799e-17)
(25.5071 7.52713 -1.14701e-17)
(25.8401 7.61188 9.85249e-17)
(26.1804 7.6719 -2.93528e-16)
(26.5185 7.70546 -2.68929e-16)
(26.8581 7.71379 9.72772e-16)
(27.1938 7.69743 -1.15087e-16)
(27.524 7.65695 -7.19676e-17)
(27.8507 7.59241 -7.05567e-16)
(28.1725 7.50388 -4.51295e-16)
(28.4899 7.39054 -1.12461e-15)
(28.8031 7.25114 3.13662e-16)
(29.111 7.08432 5.00853e-16)
(29.4122 6.88846 -1.09465e-15)
(24.6999 6.95126 1.20238e-17)
(24.976 7.08823 1.789e-17)
(25.2731 7.20987 4.58966e-18)
(25.5703 7.30548 -8.0221e-17)
(25.8872 7.38143 -3.78436e-17)
(26.2105 7.43378 1.40075e-16)
(26.531 7.46106 4.08588e-16)
(26.8525 7.46451 4.66554e-17)
(27.1695 7.44476 -4.83189e-16)
(27.4807 7.40248 2.69664e-16)
(27.7881 7.33777 5.28712e-16)
(28.0902 7.25085 1.35037e-15)
(28.3877 7.14101 -6.80737e-16)
(28.6808 7.00715 -9.19831e-16)
(28.9685 6.84808 2.35339e-16)
(29.2497 6.66233 2.0711e-16)
(24.5707 6.64063 -7.58603e-19)
(24.7964 6.77057 7.0934e-18)
(25.0602 6.89715 -9.53139e-18)
(25.3438 7.00877 1.9986e-17)
(25.627 7.09555 -9.86306e-17)
(25.9286 7.16335 2.0598e-16)
(26.2357 7.20862 -5.32659e-18)
(26.5396 7.23015 8.22082e-17)
(26.8438 7.22912 -2.83169e-16)
(27.1433 7.20631 -2.44819e-16)
(27.4367 7.16243 -3.56379e-16)
(27.7258 7.09766 -1.88565e-17)
(28.0095 7.01228 -6.83557e-17)
(28.2883 6.90572 1.52208e-16)
(28.5625 6.777 1.10767e-15)
(28.8314 6.6251 1.37904e-16)
(29.0939 6.44872 -1.21979e-15)
(29.3482 6.24661 -1.69332e-16)
(24.6693 6.47829 6.2938e-18)
(24.8851 6.59889 -2.18395e-17)
(25.1372 6.71578 3.06591e-18)
(25.4079 6.81807 -2.46499e-17)
(25.6777 6.89665 4.73358e-17)
(25.9646 6.9569 -1.44316e-16)
(26.2563 6.99564 -1.01663e-16)
(26.5445 7.01191 -4.5367e-16)
(26.8324 7.00682 4.12011e-16)
(27.1153 6.98126 4.26006e-17)
(27.3919 6.93598 -2.65083e-16)
(27.6639 6.87123 6.41101e-16)
(27.9303 6.78737 -9.72679e-17)
(28.1916 6.68391 -9.0789e-18)
(28.4482 6.56002 -6.58894e-16)
(28.6994 6.41478 -6.40002e-16)
(28.9443 6.24706 1.1478e-15)
(29.1813 6.05576 7.3485e-16)
(24.7603 6.32385 -2.71644e-18)
(24.9667 6.43573 1.01534e-18)
(25.2076 6.54356 7.20159e-18)
(25.4658 6.63715 -5.32223e-17)
(25.7228 6.70813 -2.9072e-17)
(25.9958 6.76142 -6.69409e-17)
(26.2728 6.79414 4.64335e-17)
(26.5461 6.80559 -1.03656e-16)
(26.8186 6.79682 -6.87553e-17)
(27.0858 6.7688 1.54865e-16)
(27.3465 6.72235 5.70215e-16)
(27.6025 6.65773 -5.82232e-16)
(27.8526 6.57538 5.05163e-17)
(28.0975 6.47488 -3.45167e-16)
(28.3375 6.35553 5.01647e-16)
(28.5721 6.21654 1.31902e-15)
(28.8005 6.05688 -7.56034e-16)
(29.0214 5.87559 -1.70472e-15)
(24.8444 6.17689 -3.84282e-18)
(25.0417 6.28062 1.73326e-17)
(25.2717 6.37999 -7.62519e-18)
(25.5181 6.46549 1.49717e-17)
(25.7628 6.52942 6.44702e-17)
(26.0225 6.57627 2.35232e-16)
(26.2856 6.60348 1.18808e-16)
(26.5446 6.61053 -9.04841e-16)
(26.8025 6.59844 -1.16559e-16)
(27.0549 6.56825 1.89284e-16)
(27.3007 6.52082 1.0378e-16)
(27.5415 6.45644 -3.25729e-16)
(27.7763 6.37559 -3.56158e-16)
(28.0058 6.27795 7.30107e-16)
(28.2303 6.1629 -2.96442e-16)
(28.4494 6.02977 8.20002e-16)
(28.6623 5.87766 2.34088e-16)
(28.868 5.70571 9.416e-16)
(29.0644 5.51338 -8.78329e-16)
(24.922 6.03703 -6.46776e-18)
(25.1106 6.13313 -7.22997e-18)
(25.3302 6.22461 -8.98095e-18)
(25.5652 6.30258 -3.03029e-17)
(25.7982 6.35998 -7.49498e-17)
(26.0451 6.40089 -2.64756e-16)
(26.295 6.42305 -5.77428e-17)
(26.5405 6.42611 2.87021e-16)
(26.7845 6.41104 4.54471e-16)
(27.0228 6.37895 1.68374e-16)
(27.2545 6.33073 -2.63679e-16)
(27.481 6.26669 7.72775e-16)
(27.7015 6.18736 7.83853e-19)
(27.9165 6.09249 5.50069e-16)
(28.1264 5.98155 1.85278e-16)
(28.3309 5.85394 -1.04836e-16)
(28.5294 5.7089 -1.36577e-15)
(28.7208 5.54568 -1.87799e-15)
(28.9034 5.36383 1.17562e-15)
(24.9936 5.90389 1.19165e-18)
(25.1738 5.99287 6.05005e-18)
(25.3835 6.07699 2.6458e-18)
(25.6075 6.14794 -3.79274e-17)
(25.8293 6.1993 1.1806e-16)
(26.0641 6.23475 -1.90991e-16)
(26.3012 6.25228 8.33519e-16)
(26.5339 6.25172 -3.18545e-17)
(26.7647 6.23398 1.47924e-16)
(26.9897 6.20025 -9.97436e-16)
(27.208 6.15145 3.23945e-16)
(27.4211 6.08785 -9.84295e-17)
(27.628 6.01007 -6.15833e-19)
(27.8294 5.91789 -4.57988e-16)
(28.0258 5.81088 9.06261e-16)
(28.2166 5.68852 5.04427e-16)
(28.4015 5.55014 -5.77434e-16)
(28.5795 5.39511 8.36174e-16)
(28.7491 5.22305 -1.2842e-15)
(25.0597 5.77714 -2.1044e-18)
(25.2318 5.85945 -1.12053e-17)
(25.4319 5.93671 7.99589e-19)
(25.6454 6.00116 5.08608e-17)
(25.8565 6.04693 -1.74282e-16)
(26.0796 6.07734 4.67033e-17)
(26.3047 6.09064 -6.42191e-17)
(26.5251 6.08681 -6.57189e-17)
(26.7434 6.06673 1.43058e-16)
(26.9558 6.03161 6.35415e-16)
(27.1615 5.98237 8.07486e-17)
(27.3618 5.91933 -6.00004e-17)
(27.556 5.84312 -3.59302e-16)
(27.7447 5.7536 -7.3926e-16)
(27.9282 5.65036 4.39705e-16)
(28.1062 5.53299 -5.74346e-16)
(28.2785 5.40091 -6.62648e-17)
(28.4439 5.25357 3.95607e-16)
(28.6014 5.09068 9.89064e-16)
(25.1207 5.65645 5.01571e-18)
(25.285 5.73254 6.63675e-18)
(25.4758 5.8034 2.15098e-18)
(25.6793 5.8618 -4.04495e-18)
(25.8801 5.90241 4.18122e-17)
(26.0921 5.9282 9.82954e-17)
(26.3056 5.93766 -5.65127e-17)
(26.5143 5.9309 -3.83736e-16)
(26.7207 5.90874 2.49134e-16)
(26.9212 5.87244 -9.46028e-16)
(27.1149 5.82295 5.32481e-16)
(27.3033 5.76058 -4.58332e-16)
(27.4855 5.68598 -3.59595e-16)
(27.6621 5.59905 -1.09991e-15)
(27.8336 5.49945 3.78203e-16)
(27.9997 5.38685 -1.06347e-15)
(28.16 5.26074 1.4343e-16)
(28.3138 5.12065 1.10986e-16)
(28.4598 4.96637 5.00451e-16)
(25.1769 5.54154 -5.3196e-18)
(25.3337 5.61181 1.11648e-18)
(25.5157 5.67671 2.44987e-18)
(25.7094 5.72951 -5.55311e-17)
(25.9004 5.76535 4.85347e-18)
(26.1017 5.78691 7.93667e-17)
(26.3042 5.79287 1.33896e-16)
(26.5018 5.78348 4.98345e-16)
(26.6969 5.75952 -7.29406e-16)
(26.8861 5.72227 3.38779e-16)
(27.0685 5.67268 -3.30038e-16)
(27.2455 5.61106 8.55256e-16)
(27.4164 5.5381 7.21196e-16)
(27.5817 5.45373 1.12847e-15)
(27.7419 5.35766 7.69191e-16)
(27.8968 5.24963 9.45727e-16)
(28.0459 5.12918 -2.35608e-16)
(28.1887 4.99595 1.13404e-16)
(28.3241 4.84977 -1.39026e-16)
(28.4505 4.69084 -3.90176e-16)
(25.2287 5.43212 -8.32925e-18)
(25.3783 5.49696 2.16145e-17)
(25.5517 5.55631 -2.32233e-18)
(25.7361 5.60391 3.61046e-17)
(25.9176 5.63536 1.37855e-16)
(26.1088 5.65304 -2.86693e-16)
(26.3008 5.65585 2.08354e-17)
(26.4878 5.64412 5.3728e-16)
(26.6721 5.6186 -1.31499e-16)
(26.8505 5.58059 -2.88236e-16)
(27.0222 5.53104 7.64954e-16)
(27.1885 5.47028 -2.50311e-16)
(27.3488 5.39898 -8.38024e-17)
(27.5035 5.31714 -7.55029e-16)
(27.6531 5.22449 3.2654e-16)
(27.7974 5.12084 -1.03817e-15)
(27.9361 5.00579 -1.04151e-15)
(28.0687 4.87905 5.98397e-16)
(28.1941 4.74052 -2.65168e-16)
(28.311 4.59042 -5.5482e-16)
(25.2764 5.32793 -5.23071e-18)
(25.419 5.3877 -1.9016e-18)
(25.5842 5.44189 -3.69711e-17)
(25.7597 5.48468 3.0032e-17)
(25.9322 5.51209 -6.40192e-17)
(26.1135 5.52623 2.88227e-16)
(26.2954 5.52618 2.70323e-17)
(26.4723 5.51238 -3.11943e-16)
(26.6465 5.48553 5.02099e-16)
(26.8146 5.44695 -6.93915e-16)
(26.9762 5.39758 -3.81252e-16)
(27.1324 5.33776 2.6395e-16)
(27.2826 5.26816 -3.86513e-16)
(27.4273 5.18882 -3.08927e-16)
(27.567 5.0995 -4.02209e-16)
(27.7015 5.00005 -1.7604e-16)
(27.8304 4.89016 2.3319e-16)
(27.9534 4.76957 -9.79887e-16)
(28.0695 4.63826 -1.13533e-17)
(28.1775 4.49648 2.49575e-16)
(25.3203 5.22872 -9.87325e-18)
(25.4562 5.28376 1.67649e-18)
(25.6135 5.33316 1.45679e-17)
(25.7804 5.37149 4.84378e-17)
(25.9442 5.39519 -1.70412e-16)
(26.1162 5.40611 7.69153e-17)
(26.2885 5.40349 -3.9367e-17)
(26.4558 5.38787 -5.41438e-16)
(26.6201 5.3599 3.53255e-16)
(26.7786 5.32091 3.05229e-16)
(26.9306 5.27186 4.87876e-16)
(27.0772 5.21305 -4.29737e-16)
(27.218 5.14518 -3.3726e-17)
(27.3533 5.0683 6.5666e-16)
(27.4837 4.98222 2.65232e-16)
(27.6088 4.88683 -5.32135e-16)
(27.7287 4.78187 3.69463e-16)
(27.8428 4.66714 1.40582e-15)
(27.9502 4.54264 -3.63539e-17)
(28.0499 4.40869 3.2293e-16)
(25.3607 5.13426 1.22449e-17)
(25.4901 5.1849 -5.50626e-18)
(25.6398 5.22983 -2.29031e-17)
(25.7984 5.26406 -4.09771e-17)
(25.9539 5.28435 1.51417e-16)
(26.1169 5.29233 9.49959e-17)
(26.28 5.28742 5.30537e-17)
(26.4381 5.2702 1.04448e-16)
(26.5932 5.24131 -5.85711e-16)
(26.7425 5.20208 -4.08024e-16)
(26.8854 5.15345 -4.11256e-16)
(27.023 5.09573 8.41945e-16)
(27.1549 5.02961 -2.18219e-16)
(27.2814 4.95517 -3.57215e-16)
(27.4029 4.87224 -9.0389e-16)
(27.5195 4.78077 6.98712e-16)
(27.6308 4.68051 5.09386e-16)
(27.7365 4.57135 -1.92431e-16)
(27.8359 4.45332 -7.77199e-16)
(27.9278 4.32675 2.60254e-16)
(25.3978 5.04433 -2.63138e-18)
(25.521 5.09087 -4.85131e-18)
(25.6633 5.13166 3.02539e-17)
(25.814 5.16209 -2.95416e-18)
(25.9615 5.17926 -3.73702e-17)
(26.116 5.18459 1.12115e-16)
(26.2703 5.17762 -5.97928e-16)
(26.4196 5.15903 5.73078e-17)
(26.5659 5.1294 1.85391e-16)
(26.7065 5.09007 5.07879e-16)
(26.8407 5.04196 3.33986e-16)
(26.9698 4.98539 -4.2488e-17)
(27.0932 4.92104 -6.9881e-16)
(27.2114 4.849 4.80428e-16)
(27.3248 4.76915 3.52391e-16)
(27.4332 4.68145 4.16331e-16)
(27.5366 4.58572 -3.79222e-16)
(27.6345 4.48185 -1.22571e-15)
(27.7263 4.36994 3.73206e-16)
(27.8112 4.25034 -6.01804e-17)
(27.8878 4.12391 -1.13193e-16)
(25.4319 4.95873 6.82788e-19)
(25.5491 5.00144 4.87541e-18)
(25.6844 5.0384 -4.64691e-18)
(25.8274 5.06532 6.85547e-18)
(25.9672 5.07964 -6.35692e-17)
(26.1135 5.08257 -3.58947e-17)
(26.2594 5.07378 1.79312e-16)
(26.4003 5.05401 -6.09427e-17)
(26.5382 5.0238 5.27189e-17)
(26.6705 4.9845 1.29608e-16)
(26.7966 4.93701 -1.29592e-16)
(26.9177 4.88164 -2.40138e-16)
(27.0331 4.81908 -1.71287e-16)
(27.1435 4.74942 -5.18819e-16)
(27.2492 4.67257 3.39186e-16)
(27.35 4.58851 4.64249e-16)
(27.446 4.49711 3.29402e-16)
(27.5367 4.39829 7.54726e-16)
(27.6215 4.29219 -2.34432e-16)
(27.6996 4.17916 3.55216e-16)
(27.7701 4.06008 -4.78249e-16)
(25.4632 4.87725 -4.263e-19)
(25.5746 4.9164 -3.7765e-18)
(25.7031 4.94981 3.91772e-18)
(25.8387 4.97351 1.87728e-17)
(25.9712 4.98522 -1.53585e-16)
(26.1096 4.98598 2.77028e-16)
(26.2474 4.97558 -2.47559e-16)
(26.3804 4.95481 1.92461e-16)
(26.5103 4.92419 5.70977e-17)
(26.6347 4.88503 1.17144e-16)
(26.7531 4.83825 1.55244e-16)
(26.8666 4.78413 8.0025e-16)
(26.9746 4.72336 -4.13608e-16)
(27.0776 4.65605 5.85521e-16)
(27.1761 4.58211 -8.6506e-16)
(27.2698 4.50158 -3.7746e-16)
(27.3588 4.41432 2.9406e-16)
(27.4427 4.32033 -9.83109e-16)
(27.5211 4.21972 4.70443e-16)
(27.5931 4.11291 -4.14946e-16)
(27.6578 4.00074 -2.90817e-16)
(25.4919 4.79971 -4.69653e-18)
(25.5978 4.83556 -7.69219e-19)
(25.7196 4.86568 2.07981e-17)
(25.8482 4.88641 1.00433e-16)
(25.9736 4.89575 -3.19957e-17)
(26.1044 4.89456 -1.40482e-16)
(26.2346 4.88275 6.87063e-16)
(26.36 4.86114 -3.85127e-16)
(26.4823 4.83024 -1.16319e-16)
(26.5992 4.79134 6.68914e-16)
(26.7103 4.74533 -1.32321e-15)
(26.8165 4.6925 1.53147e-15)
(26.9175 4.63353 -2.20477e-16)
(27.0137 4.56853 -4.07421e-16)
(27.1053 4.49743 -8.58195e-16)
(27.1925 4.42029 -1.71211e-16)
(27.275 4.33701 1.84252e-16)
(27.3526 4.24761 -5.92086e-16)
(27.4249 4.15223 1.11114e-15)
(27.4912 4.05129 -6.7418e-16)
(27.5506 3.94562 2.79809e-16)
(25.5182 4.72594 -1.28416e-18)
(25.6187 4.75871 3.29292e-18)
(25.7342 4.78579 -2.60102e-17)
(25.856 4.80379 -4.35706e-18)
(25.9745 4.81097 -5.92305e-17)
(26.0982 4.80804 -1.6664e-16)
(26.221 4.795 -5.21178e-16)
(26.3391 4.77272 1.36837e-16)
(26.4542 4.74165 -4.52238e-16)
(26.564 4.7031 -3.34159e-17)
(26.6682 4.65793 -5.91925e-16)
(26.7676 4.60642 -6.00834e-16)
(26.862 4.54925 1.09406e-15)
(26.9516 4.48651 6.05377e-16)
(27.037 4.41818 -1.5353e-16)
(27.1179 4.34432 1.23526e-15)
(27.1944 4.26486 5.55005e-16)
(27.2662 4.17983 3.95569e-16)
(27.3329 4.08942 -1.40861e-16)
(27.3939 3.99402 -4.89093e-16)
(27.4484 3.89447 7.07322e-17)
(25.5423 4.65576 2.32134e-19)
(25.6375 4.68568 -2.5571e-19)
(25.7469 4.70994 3.80695e-18)
(25.8622 4.72545 -5.88581e-17)
(25.9742 4.73067 -7.83223e-17)
(26.0909 4.72618 1.61817e-16)
(26.2067 4.71207 1.14881e-16)
(26.3179 4.68925 9.1792e-17)
(26.4261 4.65814 -1.03012e-16)
(26.5291 4.62002 -7.4199e-16)
(26.6268 4.57575 7.49033e-16)
(26.7198 4.52559 1.83625e-16)
(26.8079 4.47019 -8.37937e-16)
(26.8915 4.40969 -2.34097e-16)
(26.9709 4.34404 -1.96973e-16)
(27.046 4.27334 3.77742e-16)
(27.1169 4.19754 -7.55427e-16)
(27.1833 4.11669 4.09545e-16)
(27.2448 4.03097 3.49516e-16)
(27.3009 3.94081 1.23132e-16)
(27.3509 3.84702 3.68999e-16)
(27.3941 3.75111 2.97411e-16)
(25.5643 4.58902 -1.05956e-18)
(25.6545 4.61628 1.48831e-18)
(25.758 4.63796 1.6362e-17)
(25.867 4.65117 3.66613e-17)
(25.9727 4.65462 2.63217e-16)
(26.0828 4.64875 -2.97358e-17)
(26.1918 4.63373 -3.31856e-16)
(26.2964 4.61049 1.69488e-16)
(26.398 4.57943 3.09948e-16)
(26.4947 4.54182 4.64558e-16)
(26.5861 4.49849 7.84076e-16)
(26.6731 4.44969 9.63576e-16)
(26.7553 4.39606 -8.64739e-16)
(26.8332 4.33774 -4.22556e-17)
(26.907 4.27471 -5.2671e-16)
(26.9767 4.20705 -2.65111e-16)
(27.0424 4.13475 6.8647e-17)
(27.1037 4.05787 1.44265e-15)
(27.1604 3.97662 -1.13683e-15)
(27.212 3.89141 -5.79529e-16)
(27.2579 3.80303 4.95644e-16)
(27.2974 3.71294 -2.76477e-16)
(25.5844 4.52557 -1.51566e-18)
(25.6697 4.55037 -3.94138e-18)
(25.7676 4.56965 -2.01992e-17)
(25.8704 4.58077 -3.5588e-18)
(25.9702 4.58261 -2.77645e-17)
(26.0739 4.57552 1.29379e-16)
(26.1765 4.55972 1.74482e-16)
(26.2748 4.53618 1.33124e-16)
(26.3701 4.50527 -3.82284e-16)
(26.4607 4.46823 -2.02806e-16)
(26.5463 4.42587 -2.37062e-16)
(26.6275 4.37844 -3.16452e-16)
(26.7042 4.32657 1.05525e-15)
(26.7767 4.27038 -2.16178e-16)
(26.8453 4.20988 7.34605e-16)
(26.91 4.14516 -1.16054e-16)
(26.9708 4.07621 7.19806e-18)
(27.0274 4.00312 -9.50742e-16)
(27.0797 3.92609 1.58501e-15)
(27.1271 3.84555 -8.74129e-17)
(27.1692 3.76226 1.86149e-16)
(27.2053 3.67763 -1.84048e-16)
(25.6028 4.46525 2.23737e-18)
(25.6834 4.48777 -1.91712e-18)
(25.7757 4.50485 2.3818e-17)
(25.8727 4.51405 -6.60551e-17)
(25.9667 4.51445 1.02307e-16)
(26.0642 4.50628 -3.48838e-16)
(26.1607 4.48984 7.28726e-17)
(26.253 4.4661 -5.57355e-16)
(26.3424 4.43541 5.6415e-16)
(26.4272 4.399 -6.95617e-16)
(26.5072 4.35764 -4.45223e-16)
(26.583 4.31159 3.71223e-16)
(26.6545 4.26144 -7.31295e-16)
(26.722 4.20734 -3.60958e-16)
(26.7857 4.14928 -1.02024e-15)
(26.8457 4.08738 6.46329e-17)
(26.9019 4.02164 4.63484e-17)
(26.9542 3.95215 1.57964e-16)
(27.0024 3.87913 -4.37639e-16)
(27.046 3.803 -2.15387e-16)
(27.0846 3.72449 3.17477e-16)
(27.1176 3.64496 6.44728e-18)
(25.6195 4.40793 -7.28432e-19)
(25.6955 4.42834 -6.97379e-18)
(25.7826 4.44339 9.43868e-18)
(25.8739 4.45085 -2.92132e-17)
(25.9623 4.44995 -5.19894e-17)
(26.054 4.44083 1.86338e-18)
(26.1445 4.42386 -2.26696e-16)
(26.2311 4.40002 6.06441e-16)
(26.3148 4.36962 1.95602e-16)
(26.3942 4.33388 4.86998e-16)
(26.4689 4.29355 -3.89686e-16)
(26.5397 4.24887 4.0073e-16)
(26.6063 4.20042 -2.42336e-16)
(26.669 4.14835 1.56797e-15)
(26.7281 4.09265 3.56431e-16)
(26.7837 4.03346 5.75299e-16)
(26.8357 3.97078 5.47667e-17)
(26.884 3.90472 -5.04789e-16)
(26.9284 3.83549 3.92303e-16)
(26.9685 3.76351 4.47184e-18)
(27.0039 3.6895 -2.33168e-16)
(27.0341 3.61474 -2.25223e-16)
(25.6347 4.35348 -6.05575e-18)
(25.7063 4.37194 -3.2656e-18)
(25.7883 4.38512 5.11027e-17)
(25.8742 4.39099 1.16178e-16)
(25.9572 4.38893 1.82608e-17)
(26.0432 4.37899 -1.21147e-16)
(26.1281 4.3616 5.67587e-16)
(26.2092 4.33773 -5.9693e-16)
(26.2875 4.30769 -6.53162e-16)
(26.3617 4.27265 -2.4619e-16)
(26.4314 4.23336 5.50291e-16)
(26.4974 4.19004 8.08125e-17)
(26.5594 4.14326 5.00247e-16)
(26.6177 4.09316 -7.6967e-16)
(26.6725 4.03975 -9.49954e-16)
(26.724 3.98315 6.87338e-16)
(26.7721 3.92339 -1.30569e-15)
(26.8167 3.86058 3.6379e-16)
(26.8576 3.79495 -5.17977e-16)
(26.8944 3.72688 7.19495e-17)
(26.9268 3.65709 6.29049e-16)
(26.9544 3.58679 1.86325e-16)
(25.6484 4.30177 1.33398e-18)
(25.7158 4.31842 7.02677e-18)
(25.7929 4.32989 -6.27913e-17)
(25.8735 4.33432 -3.67964e-17)
(25.9514 4.33122 -1.04111e-16)
(26.032 4.32058 4.95388e-16)
(26.1115 4.30285 -1.01856e-16)
(26.1873 4.27903 -3.32019e-17)
(26.2605 4.2494 -9.86401e-17)
(26.3297 4.2151 7.93939e-16)
(26.3947 4.17686 -1.01814e-15)
(26.4562 4.13488 8.69546e-16)
(26.5138 4.08973 4.75415e-17)
(26.5679 4.04154 2.09869e-16)
(26.6188 3.99033 7.58974e-16)
(26.6665 3.93622 -5.3747e-16)
(26.7109 3.87924 1.005e-15)
(26.7521 3.81952 -1.01584e-16)
(26.7897 3.75727 -4.55182e-16)
(26.8236 3.69289 1.27115e-16)
(26.8533 3.62705 -2.04339e-16)
(26.8786 3.56092 5.78275e-16)
(25.6609 4.25269 -3.31686e-18)
(25.7242 4.26766 -1.02556e-17)
(25.7965 4.27756 2.98077e-17)
(25.872 4.28068 -9.40205e-17)
(25.9449 4.27666 -1.78679e-17)
(26.0203 4.26542 -1.19484e-17)
(26.0946 4.24745 -6.2177e-16)
(26.1654 4.22374 5.9095e-16)
(26.2337 4.19455 -3.89391e-16)
(26.2983 4.16102 -8.31756e-16)
(26.3588 4.12383 4.26835e-16)
(26.416 4.08318 -9.50854e-16)
(26.4695 4.03962 7.28848e-16)
(26.5198 3.99328 -3.60521e-16)
(26.5669 3.94418 -1.29524e-15)
(26.611 3.89244 5.5441e-16)
(26.6521 3.83812 -7.22582e-17)
(26.6901 3.78132 -1.8546e-16)
(26.7247 3.72227 -1.8244e-16)
(26.7558 3.66135 1.42509e-16)
(26.7831 3.59921 -4.22799e-16)
(26.8062 3.53697 2.3254e-17)
(26.8249 3.47606 -1.31715e-16)
(25.6723 4.20611 2.33989e-18)
(25.7315 4.21954 -4.73768e-18)
(25.7991 4.228 2.53321e-17)
(25.8698 4.22993 1.04807e-16)
(25.9379 4.22509 -2.41436e-16)
(26.0083 4.21335 -1.32919e-16)
(26.0776 4.19521 5.15273e-16)
(26.1437 4.17167 -5.42316e-16)
(26.2073 4.14298 1.01593e-15)
(26.2674 4.11022 -7.34031e-16)
(26.3238 4.07408 -9.21647e-17)
(26.3769 4.03473 -6.74436e-16)
(26.4266 3.99272 -6.49445e-16)
(26.4732 3.94816 4.02736e-16)
(26.5168 3.90109 -1.18876e-16)
(26.5576 3.85162 -8.8912e-16)
(26.5955 3.79981 -4.99104e-16)
(26.6305 3.74578 5.55945e-16)
(26.6624 3.68974 -1.94885e-17)
(26.691 3.63207 -4.2238e-16)
(26.716 3.5734 3.94508e-16)
(26.7372 3.51479 2.35416e-16)
(26.7543 3.45759 4.49713e-17)
(25.6825 4.16193 1.76463e-18)
(25.7379 4.17394 2.54802e-18)
(25.801 4.18108 7.22374e-18)
(25.8668 4.18194 -9.32184e-17)
(25.9303 4.17638 1.34277e-16)
(25.996 4.16422 1.25893e-16)
(26.0605 4.14599 -6.29482e-16)
(26.122 4.12267 3.53476e-16)
(26.1812 4.0945 -4.70203e-16)
(26.2371 4.06253 7.7788e-16)
(26.2894 4.02743 1.23914e-16)
(26.3387 3.98936 5.42236e-16)
(26.3848 3.94884 7.92271e-17)
(26.428 3.906 -5.0756e-16)
(26.4684 3.86086 8.79696e-16)
(26.5061 3.81356 9.91406e-17)
(26.5411 3.76413 -4.25205e-16)
(26.5733 3.71271 7.17735e-16)
(26.6027 3.65951 2.3292e-16)
(26.629 3.60489 -5.53949e-16)
(26.6519 3.54946 9.80872e-17)
(26.6713 3.49423 2.56457e-17)
(26.687 3.44048 2.25709e-17)
(25.6917 4.12005 5.14399e-19)
(25.7433 4.13074 2.09243e-18)
(25.802 4.13667 3.81105e-17)
(25.8633 4.13657 -1.01498e-16)
(25.9224 4.13039 -1.28915e-16)
(25.9834 4.11789 2.93269e-16)
(26.0434 4.09962 -8.97779e-17)
(26.1005 4.07657 4.67734e-16)
(26.1555 4.04894 4.96488e-16)
(26.2074 4.01778 -1.20084e-16)
(26.2559 3.9837 2.91317e-16)
(26.3016 3.94687 9.9314e-17)
(26.3443 3.9078 -4.8354e-16)
(26.3842 3.86661 7.86066e-16)
(26.4216 3.82333 -7.53077e-16)
(26.4564 3.77808 1.57404e-15)
(26.4887 3.73091 -7.14038e-16)
(26.5184 3.68195 -2.65114e-16)
(26.5454 3.63141 9.90051e-16)
(26.5695 3.57966 -1.14239e-16)
(26.5906 3.52725 4.5148e-17)
(26.6084 3.47516 -6.52123e-16)
(26.6227 3.4246 2.67169e-16)
(25.6999 4.08035 1.21193e-18)
(25.7479 4.08983 -3.01086e-18)
(25.8024 4.09466 -8.06511e-17)
(25.8592 4.0937 1.24804e-16)
(25.914 4.08698 7.3012e-17)
(25.9706 4.07421 1.11539e-16)
(26.0262 4.05597 -6.59245e-17)
(26.0791 4.03323 -7.84802e-17)
(26.1301 4.00617 -7.27036e-16)
(26.1782 3.97581 6.82107e-16)
(26.2231 3.94274 2.57853e-16)
(26.2654 3.90712 -4.06421e-17)
(26.3049 3.86945 -3.97276e-16)
(26.3418 3.82984 -5.26473e-16)
(26.3763 3.78832 8.91653e-16)
(26.4084 3.74502 -7.69266e-16)
(26.4382 3.69998 3.49735e-18)
(26.4656 3.65334 5.26088e-16)
(26.4904 3.6053 -2.02966e-16)
(26.5127 3.55621 5.37603e-16)
(26.532 3.50662 -3.41919e-16)
(26.5484 3.45745 -9.08084e-17)
(26.5615 3.40986 3.05715e-16)
(25.7073 4.04275 -3.98851e-18)
(25.7517 4.05111 8.51083e-18)
(25.8021 4.05495 2.38996e-17)
(25.8546 4.05321 4.94791e-17)
(25.9053 4.04604 -4.99279e-17)
(25.9575 4.03307 -1.50885e-16)
(26.009 4.01491 -2.70091e-17)
(26.058 3.99252 1.11798e-16)
(26.1051 3.96604 -4.60661e-17)
(26.1495 3.93648 -6.68767e-16)
(26.1911 3.9044 4.2959e-16)
(26.2302 3.86994 3.13229e-17)
(26.2667 3.83361 3.674e-16)
(26.3007 3.79552 7.56211e-16)
(26.3326 3.75568 -8.78546e-16)
(26.3622 3.71423 1.29305e-15)
(26.3896 3.6712 -2.00338e-16)
(26.4149 3.62674 4.86063e-16)
(26.4378 3.58105 -4.87849e-16)
(26.4583 3.53445 -7.18848e-16)
(26.4761 3.48748 3.91813e-16)
(26.4911 3.44102 4.02472e-16)
(26.5032 3.39616 -2.45668e-16)
(25.7139 4.00714 1.80835e-18)
(25.7548 4.01447 4.50588e-19)
(25.8012 4.01741 1.34644e-17)
(25.8496 4.01499 5.7669e-17)
(25.8962 4.00744 -2.07032e-16)
(25.9444 3.99434 2.85896e-16)
(25.9918 3.97631 -1.96681e-16)
(26.037 3.95431 -1.60797e-16)
(26.0805 3.92841 1.21562e-16)
(26.1215 3.89966 2.98054e-17)
(26.1598 3.86854 -1.1556e-15)
(26.1958 3.8352 1.03996e-15)
(26.2295 3.80015 -4.84541e-16)
(26.261 3.76352 7.19797e-16)
(26.2903 3.72529 -2.13779e-16)
(26.3177 3.68557 -6.09627e-16)
(26.343 3.64444 -2.87134e-16)
(26.3663 3.60203 2.26082e-16)
(26.3875 3.55852 2.66606e-16)
(26.4064 3.51425 -1.35607e-16)
(26.4228 3.46972 1.94595e-16)
(26.4366 3.42576 -4.40271e-16)
(26.4477 3.38343 -1.56143e-16)
(25.7197 3.97344 -2.27582e-18)
(25.7573 3.97983 6.22135e-20)
(25.7998 3.98195 -1.238e-17)
(25.8441 3.97894 -7.84834e-17)
(25.8869 3.97107 -3.85179e-18)
(25.9311 3.95789 -1.72237e-16)
(25.9747 3.94006 1.21656e-17)
(26.0162 3.91847 3.27731e-16)
(26.0562 3.89317 -2.05888e-16)
(26.094 3.86525 5.0308e-16)
(26.1292 3.83505 1.07291e-15)
(26.1624 3.80276 -1.54027e-15)
(26.1935 3.76897 3.6972e-16)
(26.2226 3.73374 -1.51236e-16)
(26.2497 3.69703 -6.77202e-17)
(26.275 3.65895 4.55304e-16)
(26.2984 3.6196 -3.3416e-16)
(26.3199 3.57909 1.41987e-16)
(26.3395 3.53762 -7.33408e-16)
(26.3569 3.4955 4.90382e-18)
(26.372 3.45322 8.47887e-17)
(26.3848 3.41158 1.69624e-16)
(26.3951 3.37158 -4.75757e-17)
(25.7249 3.94155 5.66984e-19)
(25.7591 3.94707 4.26898e-18)
(25.7979 3.94845 -3.34454e-18)
(25.8384 3.94493 2.71992e-16)
(25.8774 3.93683 -3.07246e-16)
(25.9178 3.92363 4.19627e-17)
(25.9578 3.90604 2.53747e-16)
(25.9957 3.88489 -1.70453e-16)
(26.0325 3.86019 3.51897e-17)
(26.067 3.83314 -7.70952e-16)
(26.0993 3.80381 -2.62826e-16)
(26.1299 3.77252 5.20688e-16)
(26.1587 3.73996 -8.01536e-16)
(26.1856 3.70609 3.63996e-16)