/*--------------------------------*- C++ -*----------------------------------*\
| =========                 |                                                 |
| \\      /  F ield         | OpenFOAM: The Open Source CFD Toolbox           |
|  \\    /   O peration     | Version:  2306                                  |
|   \\  /    A nd           | Website:  www.openfoam.com                      |
|    \\/     M anipulation  |                                                 |
\*---------------------------------------------------------------------------*/
FoamFile
{
    version     2.0;
    format      ascii;
    arch        "LSB;label=32;scalar=64";
    class       volScalarField;
    location    "25";
    object      magR;
}
// * * * * * * * * * * * * * * * * * * * * * * * * * * * * * * * * * * * * * //

dimensions      [0 2 -2 0 0 0 0];

internalField   nonuniform List<scalar> 
1340
(
68.9862
66.7247
64.2753
57.3729
2.26398
2.39334
2.66125
3.2711
0.669816
0.862038
0.959999
1.55815
0.0620314
0.131681
0.22075
0.566993
0.000685193
0.00419098
0.0077934
0.0699809
5.00564e-05
0.000629524
0.0011217
0.00173172
4.0216e-05
6.84787e-08
4.36177e-08
0.000755183
0.000111705
9.76348e-05
8.83635e-07
2.48243e-07
3.15835e-05
3.28802e-05
4.11074e-05
1.82196e-06
2.8486e-05
2.64039e-05
3.18134e-05
1.94494e-05
2.86075e-05
2.62709e-05
2.79856e-05
2.75143e-05
2.79939e-05
2.57476e-05
2.51878e-05
2.34125e-05
2.77552e-05
2.45748e-05
2.34246e-05
2.1746e-05
2.76267e-05
2.46479e-05
2.31267e-05
2.16206e-05
2.74521e-05
2.44989e-05
2.27035e-05
2.13425e-05
2.7149e-05
2.43558e-05
2.22691e-05
2.07345e-05
2.64724e-05
2.38864e-05
2.1678e-05
1.99139e-05
2.55299e-05
2.31174e-05
2.08895e-05
1.89475e-05
2.44496e-05
2.21622e-05
1.99467e-05
1.78762e-05
2.32769e-05
2.10686e-05
1.88985e-05
1.67614e-05
2.20714e-05
1.99178e-05
1.77815e-05
1.56115e-05
2.08004e-05
1.87184e-05
1.66233e-05
1.44487e-05
1.95155e-05
1.7505e-05
1.54491e-05
1.32906e-05
1.82486e-05
1.63071e-05
1.42934e-05
1.21478e-05
1.70413e-05
1.51722e-05
1.32089e-05
1.10768e-05
1.58393e-05
1.40709e-05
1.21857e-05
1.00901e-05
1.46374e-05
1.2978e-05
1.12044e-05
9.19005e-06
1.34477e-05
1.19004e-05
1.02597e-05
8.35325e-06
1.22956e-05
1.08542e-05
9.35657e-06
7.57926e-06
1.1175e-05
9.84166e-06
8.49144e-06
6.85072e-06
1.00917e-05
8.86363e-06
7.66158e-06
6.16138e-06
9.04392e-06
7.92311e-06
6.8553e-06
5.49117e-06
8.05592e-06
7.0334e-06
6.08308e-06
4.84086e-06
7.13127e-06
6.19086e-06
5.33329e-06
4.1886e-06
6.26432e-06
5.3864e-06
4.59678e-06
3.53121e-06
5.47299e-06
4.63909e-06
3.88866e-06
2.87543e-06
4.7844e-06
3.99006e-06
3.26691e-06
2.28378e-06
4.15907e-06
3.41922e-06
2.71719e-06
1.75295e-06
4.31737e-06
3.58552e-06
2.95611e-06
2.23825e-06
1.28046e-06
3.80833e-06
3.13782e-06
2.53874e-06
1.85649e-06
9.01489e-07
3.37074e-06
2.76809e-06
2.21969e-06
1.56594e-06
6.47251e-07
2.99873e-06
2.45989e-06
1.96486e-06
1.35799e-06
5.81597e-07
2.69566e-06
2.22219e-06
1.78498e-06
1.24396e-06
6.8586e-07
2.44455e-06
2.03912e-06
1.66429e-06
1.20349e-06
8.53928e-07
2.22475e-06
1.88522e-06
1.56817e-06
1.18905e-06
1.00488e-06
2.04133e-06
1.75954e-06
1.49382e-06
1.18821e-06
1.12675e-06
1.9047e-06
1.67259e-06
1.44889e-06
1.20164e-06
1.22064e-06
1.81714e-06
1.62511e-06
1.43406e-06
1.23348e-06
1.31208e-06
1.76063e-06
1.60392e-06
1.44005e-06
1.27733e-06
1.40063e-06
1.70487e-06
1.58056e-06
1.441e-06
1.31191e-06
1.47511e-06
1.62159e-06
1.53e-06
1.41687e-06
1.32099e-06
1.51609e-06
1.49479e-06
1.46444e-06
1.37935e-06
1.31146e-06
1.53175e-06
1.52911e-06
1.4149e-06
1.39546e-06
1.33647e-06
1.29124e-06
1.52528e-06
1.4428e-06
1.38165e-06
1.33339e-06
1.27929e-06
1.25105e-06
1.49763e-06
1.36602e-06
1.30585e-06
1.26537e-06
1.22492e-06
1.21011e-06
1.45795e-06
1.2867e-06
1.2397e-06
1.20419e-06
1.16771e-06
1.15757e-06
1.40197e-06
1.20588e-06
1.16244e-06
1.1321e-06
1.10407e-06
1.10094e-06
1.33881e-06
1.117e-06
1.08381e-06
1.0599e-06
1.03603e-06
1.03466e-06
1.26637e-06
1.04109e-06
1.00867e-06
9.86693e-07
9.6776e-07
9.68702e-07
1.19247e-06
9.69123e-07
9.44075e-07
9.28541e-07
9.10623e-07
9.08439e-07
1.11746e-06
8.94848e-07
8.89128e-07
8.79363e-07
8.59281e-07
8.51912e-07
1.04634e-06
8.81847e-07
8.38326e-07
8.23124e-07
8.23907e-07
8.04281e-07
7.91692e-07
9.74252e-07
8.18746e-07
7.97868e-07
7.66768e-07
7.61528e-07
7.40511e-07
7.30451e-07
9.00073e-07
7.67873e-07
7.45372e-07
7.12427e-07
7.063e-07
6.86241e-07
6.77086e-07
8.34646e-07
7.22117e-07
7.00474e-07
6.68739e-07
6.60781e-07
6.4185e-07
6.33651e-07
7.79291e-07
6.73429e-07
6.52884e-07
6.20777e-07
6.14896e-07
5.99743e-07
5.9472e-07
7.2841e-07
6.01381e-07
5.88026e-07
5.64768e-07
5.65175e-07
5.565e-07
5.54335e-07
6.78646e-07
5.31536e-07
5.243e-07
5.06289e-07
5.13775e-07
5.14062e-07
5.19504e-07
6.38715e-07
4.77967e-07
4.79425e-07
4.68298e-07
4.78214e-07
4.80767e-07
4.91316e-07
6.05562e-07
4.25472e-07
4.34981e-07
4.31353e-07
4.44848e-07
4.47272e-07
4.55658e-07
5.65931e-07
3.61179e-07
3.81919e-07
3.88964e-07
4.0612e-07
4.09086e-07
4.11798e-07
5.15344e-07
3.15663e-07
3.15452e-07
3.26344e-07
3.43764e-07
3.63534e-07
3.6994e-07
3.71221e-07
4.65523e-07
2.73631e-07
2.80057e-07
2.8182e-07
2.96719e-07
3.1807e-07
3.29382e-07
3.33659e-07
4.2014e-07
2.32935e-07
2.34523e-07
2.36903e-07
2.5038e-07
2.71368e-07
2.84892e-07
2.91807e-07
3.72702e-07
2.00485e-07
1.99155e-07
2.01275e-07
2.10903e-07
2.26444e-07
2.37109e-07
2.42163e-07
3.05111e-07
1.71567e-07
1.83398e-07
1.97063e-07
2.12549e-07
2.30405e-07
2.4434e-07
2.53472e-07
3.15341e-07
1.09438e-07
1.20908e-07
1.36609e-07
1.45637e-07
1.53196e-07
1.64662e-07
1.86874e-07
2.27662e-07
4.40599e-07
4.60197e-07
4.70192e-07
4.80953e-07
4.91974e-07
4.9913e-07
5.16011e-07
5.73259e-07
6.59571e-07
6.49709e-07
6.46551e-07
6.45166e-07
6.46814e-07
6.55822e-07
6.8647e-07
6.67368e-07
1.39467e-06
1.37843e-06
1.36009e-06
1.33728e-06
1.31196e-06
1.28278e-06
1.24594e-06
1.15059e-06
5.6038
1.11621
0.469841
0.11952
0.00928956
0.00175408
0
1.35778e-06
1.35815e-05
2.50382e-05
2.51903e-05
2.44432e-05
2.27414e-05
2.09825e-05
1.95529e-05
1.82318e-05
1.70072e-05
1.58767e-05
1.47999e-05
1.37525e-05
1.27171e-05
1.17091e-05
1.07276e-05
9.78856e-06
8.89994e-06
8.07818e-06
7.3373e-06
6.67219e-06
6.06112e-06
5.4878e-06
4.94285e-06
4.41262e-06
3.88504e-06
3.33735e-06
2.77142e-06
2.21412e-06
1.72053e-06
1.30325e-06
9.61485e-07
7.2162e-07
6.55824e-07
7.64346e-07
9.3579e-07
1.11225e-06
1.26171e-06
1.37981e-06
1.46963e-06
1.55834e-06
1.64202e-06
1.71005e-06
1.74197e-06
1.75124e-06
1.73675e-06
1.70769e-06
1.66184e-06
1.60262e-06
1.53277e-06
1.45603e-06
1.37619e-06
1.29631e-06
1.21825e-06
1.13936e-06
1.05899e-06
9.8406e-07
9.15835e-07
8.51873e-07
7.89802e-07
7.44242e-07
7.10389e-07
6.66785e-07
6.13931e-07
5.60161e-07
5.07185e-07
4.51169e-07
3.65544e-07
3.8015e-07
2.08694e-07
6.38632e-07
5.45295e-07
1.08293e-06
0.629308
0.252685
0.0629346
0.00626016
2.12516e-05
2.29795e-06
6.04985e-07
6.89307e-06
1.56603e-05
1.47343e-05
1.6022e-05
1.722e-05
1.60352e-05
1.49521e-05
1.42147e-05
1.35095e-05
1.28394e-05
1.22077e-05
1.15457e-05
1.08654e-05
1.01741e-05
9.50543e-06
8.84652e-06
8.20502e-06
7.56697e-06
6.95802e-06
6.37761e-06
5.83102e-06
5.3019e-06
4.80151e-06
4.32565e-06
3.87414e-06
3.42108e-06
2.95625e-06
2.49071e-06
2.05648e-06
1.67161e-06
1.36367e-06
1.1327e-06
9.72704e-07
9.19007e-07
9.65924e-07
1.06095e-06
1.16917e-06
1.268e-06
1.34542e-06
1.40984e-06
1.47746e-06
1.54355e-06
1.59124e-06
1.60958e-06
1.60602e-06
1.58455e-06
1.55396e-06
1.50918e-06
1.453e-06
1.38745e-06
1.31666e-06
1.24384e-06
1.17261e-06
1.10598e-06
1.03994e-06
9.72528e-07
9.07167e-07
8.45781e-07
7.84912e-07
7.24061e-07
6.79253e-07
6.49964e-07
6.10275e-07
5.64895e-07
5.18702e-07
4.72646e-07
4.24525e-07
3.42435e-07
3.75031e-07
1.60778e-07
6.57668e-07
4.92041e-07
1.15069e-06
0.0669851
0.0318457
0.00185742
0.00063823
9.54673e-09
1.18851e-07
1.88032e-06
1.86278e-05
1.48166e-05
1.30855e-05
1.55247e-05
1.55069e-05
1.35592e-05
1.24028e-05
1.16124e-05
1.08693e-05
1.01997e-05
9.62743e-06
9.05089e-06
8.47556e-06
7.93345e-06
7.45523e-06
6.99785e-06
6.54984e-06
6.10554e-06
5.67857e-06
5.25179e-06
4.82657e-06
4.39824e-06
3.99072e-06
3.60397e-06
3.24093e-06
2.87722e-06
2.51737e-06
2.17098e-06
1.86174e-06
1.5972e-06
1.39515e-06
1.24694e-06
1.15966e-06
1.14455e-06
1.18485e-06
1.25008e-06
1.31894e-06
1.37865e-06
1.42096e-06
1.45852e-06
1.4984e-06
1.53541e-06
1.55243e-06
1.54805e-06
1.52652e-06
1.49333e-06
1.45276e-06
1.40262e-06
1.3427e-06
1.27654e-06
1.20506e-06
1.13392e-06
1.06749e-06
1.00526e-06
9.45217e-07
8.87204e-07
8.30152e-07
7.75874e-07
7.21158e-07
6.65277e-07
6.2543e-07
6.00513e-07
5.62135e-07
5.20465e-07
4.78461e-07
4.36073e-07
3.93809e-07
3.22149e-07
3.64539e-07
1.63003e-07
6.43895e-07
4.54508e-07
1.15882e-06
0.0141385
0.000763884
0.000424804
0
0
1.07561e-06
1.3381e-05
2.08974e-05
1.42251e-05
1.51197e-05
1.71401e-05
1.59361e-05
1.41177e-05
1.31772e-05
1.24058e-05
1.16773e-05
1.09964e-05
1.03401e-05
9.68318e-06
9.05516e-06
8.44495e-06
7.87137e-06
7.3241e-06
6.80715e-06
6.30836e-06
5.83505e-06
5.3687e-06
4.90208e-06
4.44406e-06
4.01836e-06
3.6277e-06
3.27408e-06
2.94269e-06
2.64e-06
2.36269e-06
2.11811e-06
1.91183e-06
1.74716e-06
1.61698e-06
1.53872e-06
1.51178e-06
1.51633e-06
1.53478e-06
1.55299e-06
1.56226e-06
1.56003e-06
1.55845e-06
1.56116e-06
1.56103e-06
1.54586e-06
1.51743e-06
1.47868e-06
1.43306e-06
1.38254e-06
1.32556e-06
1.26189e-06
1.19337e-06
1.12334e-06
1.05362e-06
9.87505e-07
9.28607e-07
8.72578e-07
8.18693e-07
7.67884e-07
7.20393e-07
6.72237e-07
6.23882e-07
5.90744e-07
5.70092e-07
5.3499e-07
4.96264e-07
4.56381e-07
4.16648e-07
3.79855e-07
3.19839e-07
3.6639e-07
1.87126e-07
6.31081e-07
4.3063e-07
1.1362e-06
0.00227138
0.000436986
0
0
4.55013e-07
6.9967e-06
2.00044e-05
1.73637e-05
1.36121e-05
1.48896e-05
1.54272e-05
1.39459e-05
1.27786e-05
1.22146e-05
1.16926e-05
1.12455e-05
1.08108e-05
1.03694e-05
9.9274e-06
9.53056e-06
9.0993e-06
8.64097e-06
8.17807e-06
7.74244e-06
7.28964e-06
6.81587e-06
6.3282e-06
5.82723e-06
5.32856e-06
4.85575e-06
4.42076e-06
4.02858e-06
3.67418e-06
3.35449e-06
3.06388e-06
2.79548e-06
2.56111e-06
2.35759e-06
2.1854e-06
2.05944e-06
1.97845e-06
1.92069e-06
1.87412e-06
1.8279e-06
1.77663e-06
1.72144e-06
1.67248e-06
1.63196e-06
1.59197e-06
1.54429e-06
1.49141e-06
1.43602e-06
1.37824e-06
1.31897e-06
1.25654e-06
1.18979e-06
1.12094e-06
1.05007e-06
9.80537e-07
9.17604e-07
8.60339e-07
8.0662e-07
7.57649e-07
7.12607e-07
6.70943e-07
6.29871e-07
5.88113e-07
5.62641e-07
5.47218e-07
5.15424e-07
4.79351e-07
4.43143e-07
4.0803e-07
3.77956e-07
3.281e-07
3.74328e-07
2.1157e-07
6.2667e-07
4.18041e-07
1.11674e-06
0.00117821
0
0
5.48997e-08
9.05415e-07
2.18694e-05
2.61621e-05
2.11915e-05
1.67279e-05
1.49058e-05
1.32821e-05
1.16428e-05
1.05841e-05
1.00081e-05
9.65076e-06
9.4814e-06
9.41172e-06
9.3908e-06
9.37731e-06
9.33589e-06
9.23172e-06
9.06593e-06
8.84883e-06
8.58403e-06
8.26505e-06
7.88169e-06
7.45293e-06
6.97882e-06
6.48985e-06
6.00474e-06
5.54689e-06
5.11408e-06
4.7179e-06
4.34698e-06
3.996e-06
3.65803e-06
3.35207e-06
3.07202e-06
2.82577e-06
2.62665e-06
2.47088e-06
2.33567e-06
2.21448e-06
2.09857e-06
1.98474e-06
1.87552e-06
1.77891e-06
1.69477e-06
1.61501e-06
1.53554e-06
1.45878e-06
1.38619e-06
1.31659e-06
1.24995e-06
1.18331e-06
1.11405e-06
1.04376e-06
9.73523e-07
9.05214e-07
8.42098e-07
7.88667e-07
7.40243e-07
6.96337e-07
6.57141e-07
6.22683e-07
5.87552e-07
5.52961e-07
5.34759e-07
5.23986e-07
4.96428e-07
4.64196e-07
4.32416e-07
4.03667e-07
3.80534e-07
3.38622e-07
3.83349e-07
2.28626e-07
6.2578e-07
0
0
0
1.50783e-06
2.26381e-05
3.5357e-05
3.18304e-05
2.62937e-05
2.27318e-05
2.03508e-05
1.8278e-05
1.64532e-05
1.48293e-05
1.34603e-05
1.23521e-05
1.15109e-05
1.09029e-05
1.04882e-05
1.02133e-05
1.00254e-05
9.87817e-06
9.74793e-06
9.59558e-06
9.40273e-06
9.15774e-06
8.84122e-06
8.46673e-06
8.034e-06
7.57432e-06
7.0971e-06
6.62769e-06
6.16859e-06
5.72883e-06
5.29636e-06
4.87899e-06
4.46978e-06
4.08939e-06
3.73336e-06
3.41455e-06
3.13896e-06
2.90539e-06
2.69343e-06
2.49989e-06
2.31831e-06
2.14816e-06
1.99182e-06
1.85319e-06
1.73015e-06
1.61611e-06
1.50902e-06
1.41112e-06
1.32356e-06
1.24395e-06
1.17165e-06
1.10103e-06
1.03058e-06
9.61873e-07
8.91656e-07
8.22528e-07
7.63182e-07
7.14447e-07
6.70988e-07
6.33923e-07
6.01573e-07
5.73076e-07
5.43895e-07
5.1512e-07
5.04919e-07
5.00084e-07
4.76179e-07
4.47913e-07
4.22277e-07
4.0061e-07
3.8369e-07
3.46992e-07
3.89978e-07
0
0
1.1377e-06
1.56966e-05
3.36599e-05
2.94494e-05
2.52524e-05
2.23933e-05
2.05761e-05
1.91991e-05
1.81025e-05
1.71004e-05
1.61038e-05
1.51792e-05
1.4336e-05
1.35642e-05
1.28581e-05
1.22222e-05
1.16624e-05
1.11836e-05
1.07817e-05
1.04536e-05
1.01716e-05
9.91081e-06
9.64792e-06
9.35521e-06
9.02244e-06
8.64381e-06
8.22896e-06
7.78447e-06
7.32714e-06
6.85926e-06
6.39759e-06
5.93686e-06
5.48057e-06
5.03036e-06
4.60376e-06
4.19848e-06
3.82777e-06
3.49771e-06
3.20293e-06
2.92921e-06
2.67837e-06
2.44702e-06
2.23566e-06
2.04539e-06
1.87629e-06
1.72443e-06
1.58434e-06
1.45694e-06
1.34422e-06
1.24644e-06
1.16091e-06
1.08557e-06
1.01352e-06
9.4482e-07
8.7775e-07
8.09509e-07
7.43099e-07
6.86674e-07
6.42096e-07
6.05793e-07
5.74339e-07
5.48351e-07
5.2536e-07
5.01166e-07
4.78936e-07
4.7585e-07
4.75854e-07
4.558e-07
4.32285e-07
4.12946e-07
3.9675e-07
3.84098e-07
1.77938e-12
1.54637e-06
1.98455e-05
3.91054e-05
3.59628e-05
2.90986e-05
2.53548e-05
2.33335e-05
2.18591e-05
2.02333e-05
1.87904e-05
1.76879e-05
1.67732e-05
1.5995e-05
1.53317e-05
1.47686e-05
1.42672e-05
1.38163e-05
1.33679e-05
1.29243e-05
1.24706e-05
1.20276e-05
1.15665e-05
1.11021e-05
1.06323e-05
1.01769e-05
9.70425e-06
9.22443e-06
8.7285e-06
8.22982e-06
7.71947e-06
7.21304e-06
6.70516e-06
6.20455e-06
5.71303e-06
5.23935e-06
4.78969e-06
4.36883e-06
3.98141e-06
3.62715e-06
3.3025e-06
3.00015e-06
2.72137e-06
2.46559e-06
2.23481e-06
2.02828e-06
1.84247e-06
1.6735e-06
1.51884e-06
1.38053e-06
1.26056e-06
1.15933e-06
1.0733e-06
9.98624e-07
9.28955e-07
8.64209e-07
8.01955e-07
7.37395e-07
6.7493e-07
6.23866e-07
5.85631e-07
5.53116e-07
5.26113e-07
5.03686e-07
4.85458e-07
4.65097e-07
4.46691e-07
4.48834e-07
4.53631e-07
4.35439e-07
4.1479e-07
2.04049e-08
3.38357e-05
5.26692e-05
5.17827e-05
4.29064e-05
3.73344e-05
3.36495e-05
3.07848e-05
2.82045e-05
2.57843e-05
2.36982e-05
2.19328e-05
2.03769e-05
1.89846e-05
1.77557e-05
1.66729e-05
1.57133e-05
1.48592e-05
1.40944e-05
1.34106e-05
1.27854e-05
1.21996e-05
1.16283e-05
1.10782e-05
1.05428e-05
1.00241e-05
9.49773e-06
8.97968e-06
8.45666e-06
7.94067e-06
7.42069e-06
6.91617e-06
6.41882e-06
5.93994e-06
5.473e-06
5.03148e-06
4.6122e-06
4.22077e-06
3.85414e-06
3.51445e-06
3.1959e-06
2.89778e-06
2.62125e-06
2.36936e-06
2.14234e-06
1.93778e-06
1.75115e-06
1.57988e-06
1.42311e-06
1.28468e-06
1.16662e-06
1.06895e-06
9.87469e-07
9.16889e-07
8.528e-07
7.95381e-07
7.38545e-07
6.79353e-07
6.25596e-07
5.83988e-07
5.51068e-07
5.20194e-07
4.93272e-07
4.72775e-07
4.54628e-07
4.34045e-07
3.92175e-05
6.04672e-05
5.62343e-05
4.55162e-05
3.94415e-05
3.52742e-05
3.18316e-05
2.87665e-05
2.59128e-05
2.33706e-05
2.11929e-05
1.93102e-05
1.76785e-05
1.62661e-05
1.50594e-05
1.40087e-05
1.30936e-05
1.22944e-05
1.16108e-05
1.10104e-05
1.04845e-05
1.00023e-05
9.56306e-06
9.14713e-06
8.75316e-06
8.35923e-06
7.96625e-06
7.57506e-06
7.18009e-06
6.78118e-06
6.37883e-06
5.98358e-06
5.58627e-06
5.19538e-06
4.8119e-06
4.44551e-06
4.09486e-06
3.76663e-06
3.45675e-06
3.16543e-06
2.88731e-06
2.62475e-06
2.38269e-06
2.16258e-06
1.96156e-06
1.77671e-06
1.60418e-06
1.44389e-06
1.29791e-06
1.16964e-06
1.06124e-06
9.73727e-07
9.03014e-07
8.42793e-07
7.86988e-07
7.35434e-07
6.85257e-07
6.35645e-07
5.91723e-07
5.55155e-07
5.28639e-07
9.09365e-05
6.72139e-05
5.72756e-05
4.96512e-05
4.49011e-05
4.0538e-05
3.6733e-05
3.31685e-05
2.98161e-05
2.68363e-05
2.42533e-05
2.1959e-05
1.99354e-05
1.81407e-05
1.656e-05
1.5142e-05
1.3876e-05
1.27565e-05
1.17682e-05
1.08944e-05
1.01291e-05
9.45615e-06
8.86443e-06
8.33452e-06
7.85135e-06
7.39903e-06
6.97617e-06
6.56808e-06
6.17187e-06
5.78256e-06
5.40716e-06
5.04213e-06
4.68829e-06
4.34965e-06
4.02752e-06
3.72418e-06
3.4412e-06
3.17623e-06
2.92464e-06
2.69273e-06
2.47184e-06
2.2607e-06
2.06248e-06
1.87639e-06
1.70688e-06
1.54589e-06
1.39642e-06
1.25851e-06
1.1343e-06
1.02669e-06
9.38231e-07
8.6301e-07
7.98025e-07
7.57556e-07
8.82971e-05
8.3071e-05
6.57442e-05
5.85685e-05
5.24513e-05
4.6507e-05
4.13648e-05
3.6672e-05
3.24913e-05
2.88635e-05
2.5706e-05
2.29476e-05
2.0552e-05
1.84619e-05
1.66382e-05
1.50362e-05
1.36356e-05
1.24079e-05
1.13324e-05
1.03826e-05
9.54292e-06
8.79391e-06
8.12126e-06
7.51019e-06
6.94978e-06
6.43165e-06
5.95346e-06
5.50706e-06
5.09141e-06
4.70653e-06
4.35163e-06
4.02344e-06
3.7191e-06
3.43874e-06
3.17994e-06
2.94364e-06
2.72643e-06
2.52126e-06
2.3337e-06
2.13889e-06
1.94338e-06
1.80524e-06
)
;

boundaryField
{
    inlet
    {
        type            calculated;
        value           nonuniform List<scalar> 
13
(
4.7684e-06
4.77588e-06
4.77787e-06
4.7702e-06
4.75772e-06
4.74088e-06
4.72475e-06
4.6794e-06
4.612e-06
4.57928e-06
4.51683e-06
4.44225e-06
4.36656e-06
)
;
    }
    outlet
    {
        type            calculated;
        value           nonuniform List<scalar> 0();
    }
    walls
    {
        type            calculated;
        value           nonuniform List<scalar> 4(1.16008 1.11868 1.06424 0.925208);
    }
    frontAndBack
    {
        type            empty;
    }
    procBoundary2to1
    {
        type            processor;
        value           nonuniform List<scalar> 
84
(
70.8453
2.11745
0.496169
0.0272599
0.00771048
1.87081e-06
7.52684e-05
0.000113481
3.19862e-05
3.09857e-05
3.14754e-05
3.05925e-05
3.13536e-05
3.0897e-05
3.06071e-05
3.00475e-05
2.91466e-05
2.80422e-05
2.68461e-05
2.55908e-05
2.42982e-05
2.2941e-05
2.15665e-05
2.0217e-05
1.89123e-05
1.76033e-05
1.62959e-05
1.50178e-05
1.37836e-05
1.25824e-05
1.14128e-05
1.02753e-05
9.19903e-06
8.19696e-06
7.26374e-06
6.41544e-06
5.67509e-06
4.9899e-06
4.9899e-06
5.08364e-06
4.4844e-06
3.97195e-06
3.53541e-06
3.1701e-06
2.85715e-06
2.57482e-06
2.33607e-06
2.15049e-06
2.02243e-06
1.93109e-06
1.84387e-06
1.73767e-06
1.62469e-06
1.62469e-06
1.60218e-06
1.49779e-06
1.41399e-06
1.32409e-06
1.236e-06
1.14141e-06
1.06072e-06
9.9057e-07
9.30981e-07
9.30981e-07
8.89245e-07
8.22687e-07
7.69754e-07
7.22609e-07
6.68005e-07
5.90926e-07
5.13724e-07
4.57488e-07
4.05716e-07
3.54596e-07
3.54596e-07
3.02293e-07
2.64003e-07
2.28054e-07
1.95628e-07
1.57797e-07
9.68143e-08
4.18709e-07
6.62948e-07
1.41039e-06
)
;
    }
    procBoundary2to3
    {
        type            processor;
        value           nonuniform List<scalar> 
88
(
4.06129e-07
1.09983e-06
2.37978e-07
4.06129e-07
6.27149e-07
3.50844e-07
2.37978e-07
3.94071e-07
4.01042e-07
3.91629e-07
3.50844e-07
3.81796e-07
4.1738e-07
4.25535e-07
4.33436e-07
4.16558e-07
4.01042e-07
3.98329e-07
5.05052e-07
4.79528e-07
4.58694e-07
4.36789e-07
4.1738e-07
4.08832e-07
7.23364e-07
6.84338e-07
6.47869e-07
6.13116e-07
5.82601e-07
5.43948e-07
5.05052e-07
4.97221e-07
1.66393e-06
1.50847e-06
1.36912e-06
1.24704e-06
1.13504e-06
1.03679e-06
9.50801e-07
8.79525e-07
8.2255e-07
7.78283e-07
7.09586e-07
7.23364e-07
6.1211e-07
7.95397e-05
7.4923e-05
6.40962e-05
5.83421e-05
5.20259e-05
4.60294e-05
4.05687e-05
3.5492e-05
3.0941e-05
2.69451e-05
2.34401e-05
2.03943e-05
1.77591e-05
1.54939e-05
1.35554e-05
1.19085e-05
1.05143e-05
9.34785e-06
8.37285e-06
7.56337e-06
6.88283e-06
6.30587e-06
5.80309e-06
5.35166e-06
4.93137e-06
4.5342e-06
4.15929e-06
3.80367e-06
3.46631e-06
3.1503e-06
2.86137e-06
2.59815e-06
2.36406e-06
2.16035e-06
1.99029e-06
1.85124e-06
1.73892e-06
1.64524e-06
1.5546e-06
1.4743e-06
1.34089e-06
1.66393e-06
1.12906e-06
)
;
    }
    procBoundary2to6
    {
        type            processor;
        value           nonuniform List<scalar> 
13
(
12.4247
3.84162
1.00079
0.169124
0.0301209
0.0060419
0.0029524
0
0
2.33057e-09
1.87733e-06
9.7525e-05
7.86078e-05
)
;
    }
}


// ************************************************************************* //
