/*--------------------------------*- C++ -*----------------------------------*\
| =========                 |                                                 |
| \\      /  F ield         | OpenFOAM: The Open Source CFD Toolbox           |
|  \\    /   O peration     | Version:  2306                                  |
|   \\  /    A nd           | Website:  www.openfoam.com                      |
|    \\/     M anipulation  |                                                 |
\*---------------------------------------------------------------------------*/
FoamFile
{
    version     2.0;
    format      ascii;
    arch        "LSB;label=32;scalar=64";
    class       volScalarField;
    location    "25";
    object      nut;
}
// * * * * * * * * * * * * * * * * * * * * * * * * * * * * * * * * * * * * * //

dimensions      [0 2 -1 0 0 0 0];

internalField   nonuniform List<scalar> 
1340
(
0.115068
0.113329
0.111489
0.106696
0.0775462
0.0786243
0.0806446
0.0848638
0.0479151
0.0548242
0.0595813
0.0718448
0.0101935
0.0175054
0.0253526
0.043909
0.000136413
0.00111639
0.00208765
0.0126259
6.56149e-06
0.000259926
0.000515147
0.00109167
9.52219e-07
2.57488e-12
1.18508e-12
0.000256283
5.68156e-06
4.41915e-06
4.16137e-10
5.67096e-11
6.66691e-06
6.79377e-06
7.48444e-06
1.91109e-08
6.48708e-06
6.40656e-06
8.14882e-06
4.11605e-06
6.44203e-06
6.45419e-06
6.75259e-06
6.90559e-06
6.41338e-06
6.47237e-06
6.48216e-06
6.79628e-06
6.39433e-06
6.44604e-06
6.47304e-06
6.59244e-06
6.37523e-06
6.41837e-06
6.45831e-06
6.52186e-06
6.35724e-06
6.39593e-06
6.4337e-06
6.48856e-06
6.34e-06
6.37556e-06
6.4095e-06
6.46126e-06
6.32246e-06
6.35521e-06
6.38606e-06
6.43513e-06
6.30455e-06
6.33439e-06
6.36228e-06
6.40849e-06
6.28816e-06
6.31499e-06
6.3398e-06
6.38216e-06
6.274e-06
6.29807e-06
6.32008e-06
6.35799e-06
6.26154e-06
6.28334e-06
6.30313e-06
6.33701e-06
6.24932e-06
6.26929e-06
6.28736e-06
6.31823e-06
6.23725e-06
6.25553e-06
6.27198e-06
6.30035e-06
6.22628e-06
6.24285e-06
6.25759e-06
6.28331e-06
6.21668e-06
6.23175e-06
6.24493e-06
6.26795e-06
6.20718e-06
6.22105e-06
6.23301e-06
6.2539e-06
6.19768e-06
6.21034e-06
6.22108e-06
6.24021e-06
6.18921e-06
6.20067e-06
6.21009e-06
6.22715e-06
6.18198e-06
6.19252e-06
6.20089e-06
6.21583e-06
6.17532e-06
6.18521e-06
6.19297e-06
6.20632e-06
6.1686e-06
6.17796e-06
6.18537e-06
6.19779e-06
6.1617e-06
6.17051e-06
6.17753e-06
6.1893e-06
6.15532e-06
6.16353e-06
6.1701e-06
6.18108e-06
6.14959e-06
6.15731e-06
6.16351e-06
6.17374e-06
6.14375e-06
6.15101e-06
6.15695e-06
6.16672e-06
6.13809e-06
6.14485e-06
6.15043e-06
6.15969e-06
6.1332e-06
6.13951e-06
6.14478e-06
6.15348e-06
6.12855e-06
6.13455e-06
6.13937e-06
6.14746e-06
6.11836e-06
6.12397e-06
6.12925e-06
6.13366e-06
6.1413e-06
6.11474e-06
6.11984e-06
6.12461e-06
6.12886e-06
6.13624e-06
6.11135e-06
6.11607e-06
6.12047e-06
6.12454e-06
6.13178e-06
6.10786e-06
6.11221e-06
6.11624e-06
6.12003e-06
6.12705e-06
6.10488e-06
6.10889e-06
6.11256e-06
6.11605e-06
6.12269e-06
6.10221e-06
6.10593e-06
6.1093e-06
6.11255e-06
6.11893e-06
6.09929e-06
6.10269e-06
6.10576e-06
6.10881e-06
6.11502e-06
6.09666e-06
6.09974e-06
6.1025e-06
6.10533e-06
6.11127e-06
6.09469e-06
6.09752e-06
6.10002e-06
6.10267e-06
6.10834e-06
6.09289e-06
6.09546e-06
6.09772e-06
6.1002e-06
6.10571e-06
6.09092e-06
6.09318e-06
6.09513e-06
6.0974e-06
6.1027e-06
6.08915e-06
6.09107e-06
6.0927e-06
6.09471e-06
6.09966e-06
6.08797e-06
6.08963e-06
6.091e-06
6.09275e-06
6.09732e-06
6.08736e-06
6.08878e-06
6.08984e-06
6.0913e-06
6.09551e-06
6.08641e-06
6.08712e-06
6.08794e-06
6.08868e-06
6.09001e-06
6.09406e-06
6.08674e-06
6.08714e-06
6.08765e-06
6.08815e-06
6.08928e-06
6.09305e-06
6.08755e-06
6.08776e-06
6.08804e-06
6.08828e-06
6.08914e-06
6.09258e-06
6.08878e-06
6.08884e-06
6.08895e-06
6.08899e-06
6.08961e-06
6.09274e-06
6.09028e-06
6.09021e-06
6.09016e-06
6.09001e-06
6.09043e-06
6.0933e-06
6.09196e-06
6.09177e-06
6.09156e-06
6.09124e-06
6.09143e-06
6.09403e-06
6.09364e-06
6.09336e-06
6.09303e-06
6.09253e-06
6.09248e-06
6.09477e-06
6.09529e-06
6.09498e-06
6.09455e-06
6.09391e-06
6.09367e-06
6.09567e-06
6.09689e-06
6.09657e-06
6.0961e-06
6.0954e-06
6.09508e-06
6.09686e-06
6.09856e-06
6.09846e-06
6.09802e-06
6.09758e-06
6.09698e-06
6.09674e-06
6.09839e-06
6.09979e-06
6.09988e-06
6.09962e-06
6.09935e-06
6.09889e-06
6.09872e-06
6.10027e-06
6.10084e-06
6.10119e-06
6.1012e-06
6.10114e-06
6.10085e-06
6.10079e-06
6.10229e-06
6.10156e-06
6.10221e-06
6.10253e-06
6.10274e-06
6.10267e-06
6.10277e-06
6.10425e-06
6.10204e-06
6.10296e-06
6.10354e-06
6.10399e-06
6.10416e-06
6.10446e-06
6.10601e-06
6.10254e-06
6.10365e-06
6.10444e-06
6.1051e-06
6.10549e-06
6.10598e-06
6.10756e-06
6.10313e-06
6.10445e-06
6.10545e-06
6.10636e-06
6.10706e-06
6.10789e-06
6.10977e-06
6.10253e-06
6.10393e-06
6.10508e-06
6.10619e-06
6.10717e-06
6.10829e-06
6.11063e-06
6.10109e-06
6.10239e-06
6.10347e-06
6.10457e-06
6.10556e-06
6.10668e-06
6.10914e-06
6.0998e-06
6.10092e-06
6.1019e-06
6.10297e-06
6.10403e-06
6.10512e-06
6.10752e-06
6.09771e-06
6.09867e-06
6.0995e-06
6.10039e-06
6.10153e-06
6.10271e-06
6.10385e-06
6.10612e-06
6.09758e-06
6.09846e-06
6.09926e-06
6.10017e-06
6.10134e-06
6.10258e-06
6.10375e-06
6.10589e-06
6.09918e-06
6.10009e-06
6.10094e-06
6.10191e-06
6.10312e-06
6.10443e-06
6.10564e-06
6.10773e-06
6.10252e-06
6.10345e-06
6.10429e-06
6.10522e-06
6.10642e-06
6.10772e-06
6.1089e-06
6.11101e-06
6.10483e-06
6.10546e-06
6.10599e-06
6.10659e-06
6.10745e-06
6.1084e-06
6.10921e-06
6.111e-06
6.10159e-06
6.10164e-06
6.10155e-06
6.10152e-06
6.1017e-06
6.10193e-06
6.10195e-06
6.103e-06
6.09485e-06
6.0949e-06
6.09483e-06
6.09478e-06
6.09487e-06
6.09509e-06
6.09549e-06
6.09587e-06
6.0985e-06
6.09967e-06
6.10083e-06
6.10191e-06
6.10281e-06
6.10367e-06
6.10485e-06
6.10491e-06
6.09189e-06
6.09186e-06
6.09175e-06
6.09152e-06
6.09112e-06
6.09062e-06
6.09008e-06
6.08915e-06
0.0811703
0.0573042
0.0382147
0.0176956
0.0036078
0.000875367
0
4.53203e-09
1.34641e-06
6.07917e-06
6.98877e-06
6.73946e-06
6.61207e-06
6.5605e-06
6.52645e-06
6.4953e-06
6.46489e-06
6.43478e-06
6.40626e-06
6.38072e-06
6.35831e-06
6.33787e-06
6.31848e-06
6.30031e-06
6.28381e-06
6.26847e-06
6.25358e-06
6.23961e-06
6.22749e-06
6.21716e-06
6.20774e-06
6.19849e-06
6.18969e-06
6.18179e-06
6.17427e-06
6.16694e-06
6.16032e-06
6.15381e-06
6.14755e-06
6.14242e-06
6.13775e-06
6.13287e-06
6.12843e-06
6.12448e-06
6.12034e-06
6.11643e-06
6.11333e-06
6.11041e-06
6.1071e-06
6.10384e-06
6.10132e-06
6.09932e-06
6.09767e-06
6.09644e-06
6.09578e-06
6.09576e-06
6.0961e-06
6.09655e-06
6.09696e-06
6.09757e-06
6.09851e-06
6.09984e-06
6.10154e-06
6.10343e-06
6.10528e-06
6.10699e-06
6.10864e-06
6.11108e-06
6.11226e-06
6.11102e-06
6.10956e-06
6.10825e-06
6.10813e-06
6.11008e-06
6.11332e-06
6.11286e-06
6.10425e-06
6.09607e-06
6.10353e-06
6.08811e-06
0.0526793
0.0301001
0.0139901
0.00352586
4.83875e-06
1.79301e-08
1.14831e-09
3.79009e-07
5.89319e-06
6.87462e-06
6.92888e-06
6.70872e-06
6.6409e-06
6.59663e-06
6.55891e-06
6.52281e-06
6.48779e-06
6.45451e-06
6.42432e-06
6.39775e-06
6.37409e-06
6.35217e-06
6.33157e-06
6.31258e-06
6.29522e-06
6.27883e-06
6.26308e-06
6.2486e-06
6.23606e-06
6.22509e-06
6.21481e-06
6.20478e-06
6.19539e-06
6.18688e-06
6.17878e-06
6.17104e-06
6.16395e-06
6.15701e-06
6.15055e-06
6.14516e-06
6.14014e-06
6.13507e-06
6.13051e-06
6.12636e-06
6.12206e-06
6.11813e-06
6.11495e-06
6.11182e-06
6.10834e-06
6.10506e-06
6.10252e-06
6.10045e-06
6.09869e-06
6.09736e-06
6.09665e-06
6.09657e-06
6.09679e-06
6.09706e-06
6.09729e-06
6.09774e-06
6.09856e-06
6.09979e-06
6.10144e-06
6.1033e-06
6.10513e-06
6.10684e-06
6.10865e-06
6.11128e-06
6.11269e-06
6.11173e-06
6.11051e-06
6.1094e-06
6.1095e-06
6.11162e-06
6.11483e-06
6.11397e-06
6.10491e-06
6.096e-06
6.1024e-06
6.08748e-06
0.0293723
0.0112883
0.00262633
0.000687447
4.13485e-13
4.44579e-11
1.67664e-08
4.75497e-06
7.71003e-06
6.91109e-06
6.86519e-06
6.71178e-06
6.66699e-06
6.62139e-06
6.57926e-06
6.53865e-06
6.50009e-06
6.46478e-06
6.43361e-06
6.40615e-06
6.38129e-06
6.35814e-06
6.3367e-06
6.31713e-06
6.29911e-06
6.28201e-06
6.26584e-06
6.25129e-06
6.23863e-06
6.22726e-06
6.21642e-06
6.20594e-06
6.19621e-06
6.1873e-06
6.17882e-06
6.17084e-06
6.16343e-06
6.1562e-06
6.14954e-06
6.1439e-06
6.13858e-06
6.13337e-06
6.12871e-06
6.1244e-06
6.12012e-06
6.11639e-06
6.11331e-06
6.11021e-06
6.10685e-06
6.10378e-06
6.10143e-06
6.09949e-06
6.09782e-06
6.09658e-06
6.09594e-06
6.09584e-06
6.096e-06
6.09617e-06
6.0963e-06
6.09669e-06
6.09745e-06
6.09865e-06
6.10028e-06
6.10212e-06
6.10396e-06
6.10575e-06
6.10777e-06
6.11048e-06
6.11206e-06
6.11141e-06
6.11047e-06
6.10964e-06
6.11006e-06
6.11238e-06
6.11552e-06
6.11425e-06
6.10488e-06
6.09591e-06
6.10183e-06
6.08717e-06
0.0111326
0.00161429
0.000426865
0
0
5.03774e-09
1.4595e-06
9.10615e-06
7.30712e-06
6.8666e-06
6.82696e-06
6.72333e-06
6.68149e-06
6.63278e-06
6.58716e-06
6.5437e-06
6.50357e-06
6.46781e-06
6.43646e-06
6.40845e-06
6.38272e-06
6.35885e-06
6.33701e-06
6.31712e-06
6.29865e-06
6.28117e-06
6.26498e-06
6.25061e-06
6.23798e-06
6.22639e-06
6.21524e-06
6.20459e-06
6.19475e-06
6.18567e-06
6.17705e-06
6.16898e-06
6.16136e-06
6.15395e-06
6.14718e-06
6.14136e-06
6.13582e-06
6.1305e-06
6.12573e-06
6.12129e-06
6.11706e-06
6.11351e-06
6.11053e-06
6.10752e-06
6.10434e-06
6.10153e-06
6.09939e-06
6.09764e-06
6.09614e-06
6.09506e-06
6.09453e-06
6.09446e-06
6.09459e-06
6.09473e-06
6.09486e-06
6.09525e-06
6.09602e-06
6.0972e-06
6.09881e-06
6.10062e-06
6.10243e-06
6.10427e-06
6.10641e-06
6.1091e-06
6.11074e-06
6.11037e-06
6.10972e-06
6.10919e-06
6.10991e-06
6.1124e-06
6.11541e-06
6.11377e-06
6.10436e-06
6.09639e-06
6.10183e-06
6.08706e-06
0.000941828
0.000244963
0
0
1.33112e-09
4.33669e-07
6.73943e-06
9.00917e-06
6.89572e-06
6.88992e-06
6.82558e-06
6.7473e-06
6.69911e-06
6.64608e-06
6.59691e-06
6.55134e-06
6.5105e-06
6.47464e-06
6.44293e-06
6.41413e-06
6.38752e-06
6.36305e-06
6.3408e-06
6.32041e-06
6.30136e-06
6.2835e-06
6.26724e-06
6.25287e-06
6.24004e-06
6.22804e-06
6.21653e-06
6.20567e-06
6.19566e-06
6.18637e-06
6.17759e-06
6.16934e-06
6.16144e-06
6.1538e-06
6.14693e-06
6.1409e-06
6.13511e-06
6.12961e-06
6.12465e-06
6.12e-06
6.11571e-06
6.11217e-06
6.10913e-06
6.10603e-06
6.10286e-06
6.10013e-06
6.09799e-06
6.0962e-06
6.09468e-06
6.0936e-06
6.09307e-06
6.09299e-06
6.09308e-06
6.09319e-06
6.09333e-06
6.09374e-06
6.09451e-06
6.09569e-06
6.09726e-06
6.09902e-06
6.1008e-06
6.10264e-06
6.10481e-06
6.10745e-06
6.10911e-06
6.10897e-06
6.10857e-06
6.10833e-06
6.10931e-06
6.11191e-06
6.11477e-06
6.1128e-06
6.10359e-06
6.09723e-06
6.1021e-06
6.08691e-06
0.000495635
0
0
2.01583e-11
7.15795e-09
5.46922e-06
9.30973e-06
7.76213e-06
6.86434e-06
6.95369e-06
6.86114e-06
6.7882e-06
6.72921e-06
6.67017e-06
6.61678e-06
6.56902e-06
6.52717e-06
6.49051e-06
6.45764e-06
6.42756e-06
6.39991e-06
6.37469e-06
6.35173e-06
6.33051e-06
6.31065e-06
6.29226e-06
6.27571e-06
6.26099e-06
6.24759e-06
6.23492e-06
6.22285e-06
6.21157e-06
6.20119e-06
6.19151e-06
6.18238e-06
6.17372e-06
6.16537e-06
6.15744e-06
6.15038e-06
6.14402e-06
6.13788e-06
6.13208e-06
6.12679e-06
6.12182e-06
6.11734e-06
6.11362e-06
6.11031e-06
6.10692e-06
6.10356e-06
6.10069e-06
6.09832e-06
6.09625e-06
6.09452e-06
6.09328e-06
6.09258e-06
6.09232e-06
6.09221e-06
6.09214e-06
6.09219e-06
6.09252e-06
6.09322e-06
6.09431e-06
6.09577e-06
6.09744e-06
6.09916e-06
6.10097e-06
6.10319e-06
6.10582e-06
6.10749e-06
6.10749e-06
6.1073e-06
6.10731e-06
6.10849e-06
6.11116e-06
6.11385e-06
6.11162e-06
6.10274e-06
6.09812e-06
0
0
0
1.38808e-08
3.68818e-06
9.63854e-06
8.56973e-06
7.21268e-06
7.01968e-06
7.02883e-06
6.91984e-06
6.83928e-06
6.76809e-06
6.70181e-06
6.64366e-06
6.59312e-06
6.54937e-06
6.5109e-06
6.47625e-06
6.44468e-06
6.41599e-06
6.38997e-06
6.36617e-06
6.34407e-06
6.32353e-06
6.30476e-06
6.28794e-06
6.27278e-06
6.25872e-06
6.24538e-06
6.23277e-06
6.22106e-06
6.21024e-06
6.20011e-06
6.19051e-06
6.18134e-06
6.17252e-06
6.1643e-06
6.15698e-06
6.15021e-06
6.14364e-06
6.13746e-06
6.13176e-06
6.1264e-06
6.12162e-06
6.11758e-06
6.11385e-06
6.11003e-06
6.10635e-06
6.10317e-06
6.10043e-06
6.09797e-06
6.09593e-06
6.09445e-06
6.09347e-06
6.09287e-06
6.09241e-06
6.09201e-06
6.09179e-06
6.09188e-06
6.09238e-06
6.09333e-06
6.09465e-06
6.09619e-06
6.09777e-06
6.09951e-06
6.10176e-06
6.1044e-06
6.10602e-06
6.10611e-06
6.10607e-06
6.10628e-06
6.10761e-06
6.11033e-06
6.11287e-06
6.11042e-06
0
0
6.23505e-09
1.65845e-06
9.9388e-06
9.18181e-06
7.73655e-06
7.20824e-06
7.17811e-06
7.09795e-06
6.9792e-06
6.8865e-06
6.80418e-06
6.73105e-06
6.66839e-06
6.61475e-06
6.56846e-06
6.52769e-06
6.49117e-06
6.45834e-06
6.42885e-06
6.40221e-06
6.37781e-06
6.35527e-06
6.3346e-06
6.31594e-06
6.29916e-06
6.28381e-06
6.2694e-06
6.25573e-06
6.24289e-06
6.23099e-06
6.21993e-06
6.20949e-06
6.19954e-06
6.19e-06
6.1809e-06
6.17253e-06
6.16499e-06
6.15784e-06
6.1509e-06
6.14437e-06
6.13828e-06
6.13255e-06
6.12746e-06
6.12302e-06
6.1188e-06
6.11453e-06
6.11048e-06
6.10692e-06
6.10375e-06
6.10088e-06
6.09852e-06
6.09672e-06
6.0954e-06
6.0944e-06
6.09354e-06
6.09276e-06
6.0922e-06
6.09199e-06
6.09222e-06
6.09294e-06
6.09405e-06
6.09537e-06
6.09676e-06
6.09836e-06
6.10058e-06
6.10319e-06
6.10474e-06
6.10487e-06
6.10496e-06
6.10532e-06
6.10677e-06
6.10955e-06
6.89303e-21
7.78969e-09
2.02744e-06
9.38697e-06
9.99729e-06
8.22126e-06
7.56093e-06
7.38148e-06
7.30811e-06
7.17588e-06
7.04597e-06
6.93922e-06
6.84566e-06
6.76453e-06
6.69581e-06
6.63708e-06
6.58641e-06
6.54191e-06
6.50262e-06
6.46783e-06
6.43699e-06
6.40932e-06
6.38423e-06
6.36146e-06
6.34099e-06
6.32269e-06
6.30617e-06
6.29089e-06
6.27651e-06
6.26294e-06
6.25028e-06
6.23854e-06
6.22755e-06
6.21712e-06
6.2071e-06
6.1975e-06
6.18844e-06
6.18015e-06
6.17252e-06
6.16517e-06
6.15802e-06
6.15129e-06
6.14492e-06
6.13895e-06
6.13359e-06
6.12879e-06
6.12413e-06
6.11945e-06
6.11507e-06
6.11115e-06
6.10758e-06
6.10435e-06
6.10169e-06
6.0996e-06
6.09793e-06
6.09653e-06
6.09526e-06
6.0941e-06
6.09318e-06
6.09264e-06
6.09256e-06
6.09299e-06
6.09385e-06
6.0949e-06
6.09606e-06
6.09751e-06
6.09967e-06
6.10222e-06
6.10367e-06
6.10382e-06
6.10402e-06
7.70693e-13
3.21357e-06
9.50245e-06
1.05725e-05
8.79765e-06
7.97695e-06
7.6987e-06
7.55891e-06
7.42411e-06
7.26422e-06
7.12198e-06
7.00155e-06
6.8967e-06
6.80645e-06
6.72979e-06
6.66388e-06
6.6069e-06
6.55713e-06
6.51375e-06
6.4758e-06
6.44254e-06
6.41307e-06
6.38689e-06
6.36369e-06
6.34327e-06
6.32515e-06
6.30877e-06
6.29361e-06
6.27944e-06
6.26623e-06
6.25399e-06
6.24263e-06
6.23196e-06
6.22178e-06
6.21197e-06
6.20261e-06
6.19387e-06
6.18585e-06
6.17831e-06
6.17094e-06
6.1638e-06
6.15704e-06
6.1506e-06
6.14452e-06
6.13902e-06
6.13395e-06
6.12895e-06
6.124e-06
6.11938e-06
6.11518e-06
6.11131e-06
6.10784e-06
6.10494e-06
6.10255e-06
6.10054e-06
6.0988e-06
6.09716e-06
6.09565e-06
6.0944e-06
6.09356e-06
6.09322e-06
6.09338e-06
6.09395e-06
6.09473e-06
6.09565e-06
6.09696e-06
4.13771e-06
1.06266e-05
1.07982e-05
9.32725e-06
8.44616e-06
8.11206e-06
7.89555e-06
7.7231e-06
7.54543e-06
7.36726e-06
7.21247e-06
7.07902e-06
6.96244e-06
6.86195e-06
6.77545e-06
6.70054e-06
6.63546e-06
6.57889e-06
6.52987e-06
6.48735e-06
6.4504e-06
6.41819e-06
6.39018e-06
6.36589e-06
6.3448e-06
6.32621e-06
6.30946e-06
6.2941e-06
6.27998e-06
6.267e-06
6.25509e-06
6.24408e-06
6.23374e-06
6.22385e-06
6.21436e-06
6.20539e-06
6.1971e-06
6.18944e-06
6.1821e-06
6.17488e-06
6.16783e-06
6.16108e-06
6.15467e-06
6.14865e-06
6.14309e-06
6.13786e-06
6.13268e-06
6.1276e-06
6.12286e-06
6.1185e-06
6.11446e-06
6.11085e-06
6.10785e-06
6.10531e-06
6.10302e-06
6.10096e-06
6.09902e-06
6.09723e-06
6.09572e-06
6.09463e-06
6.09413e-06
1.14979e-05
1.11796e-05
9.80251e-06
9.00576e-06
8.63192e-06
8.35567e-06
8.12379e-06
7.91783e-06
7.70875e-06
7.51298e-06
7.34251e-06
7.19308e-06
7.06177e-06
6.9475e-06
6.84785e-06
6.76081e-06
6.68481e-06
6.61875e-06
6.56153e-06
6.51209e-06
6.46942e-06
6.43271e-06
6.40127e-06
6.37435e-06
6.35114e-06
6.33075e-06
6.31256e-06
6.29618e-06
6.28141e-06
6.26808e-06
6.25601e-06
6.24494e-06
6.2346e-06
6.22477e-06
6.21545e-06
6.20678e-06
6.19884e-06
6.19141e-06
6.18421e-06
6.17716e-06
6.17045e-06
6.16395e-06
6.15748e-06
6.15145e-06
6.14593e-06
6.14062e-06
6.13535e-06
6.13024e-06
6.12548e-06
6.12105e-06
6.11694e-06
6.11329e-06
6.11024e-06
6.10773e-06
1.10811e-05
1.01626e-05
9.53829e-06
9.18489e-06
8.8801e-06
8.60029e-06
8.36007e-06
8.12771e-06
7.89792e-06
7.6886e-06
7.50277e-06
7.33721e-06
7.19009e-06
7.06045e-06
6.94582e-06
6.84497e-06
6.75633e-06
6.67915e-06
6.61204e-06
6.55412e-06
6.5042e-06
6.46152e-06
6.42504e-06
6.39385e-06
6.36686e-06
6.34322e-06
6.32231e-06
6.30378e-06
6.28736e-06
6.27276e-06
6.25971e-06
6.24786e-06
6.23691e-06
6.22664e-06
6.2171e-06
6.20837e-06
6.2004e-06
6.19289e-06
6.18556e-06
6.17844e-06
6.17179e-06
6.16576e-06
)
;

boundaryField
{
    inlet
    {
        type            freestream;
        freestreamValue uniform 1e-05;
        value           uniform 1e-05;
    }
    outlet
    {
        type            freestream;
        freestreamValue nonuniform List<scalar> 0();
        value           nonuniform List<scalar> 0();
    }
    walls
    {
        type            nutUSpaldingWallFunction;
        value           nonuniform List<scalar> 4(0.00290333 0.00285551 0.00279147 0.00261789);
    }
    frontAndBack
    {
        type            empty;
    }
    procBoundary2to1
    {
        type            processor;
        value           nonuniform List<scalar> 
84
(
0.11647
0.0761867
0.0397219
0.00528245
0.0012411
1.32975e-08
4.07116e-06
6.39009e-06
6.46598e-06
6.38551e-06
6.3951e-06
6.37564e-06
6.35866e-06
6.3414e-06
6.32601e-06
6.31116e-06
6.29578e-06
6.28014e-06
6.26607e-06
6.25398e-06
6.24317e-06
6.23233e-06
6.22161e-06
6.21194e-06
6.20342e-06
6.19482e-06
6.18619e-06
6.17855e-06
6.17195e-06
6.16577e-06
6.15952e-06
6.15316e-06
6.14731e-06
6.14204e-06
6.13666e-06
6.13147e-06
6.12699e-06
6.12254e-06
6.12254e-06
6.11381e-06
6.11047e-06
6.10741e-06
6.10427e-06
6.10159e-06
6.09919e-06
6.09658e-06
6.09423e-06
6.09248e-06
6.09091e-06
6.08925e-06
6.08777e-06
6.08681e-06
6.08635e-06
6.08635e-06
6.08601e-06
6.08654e-06
6.08751e-06
6.08887e-06
6.09048e-06
6.09223e-06
6.09395e-06
6.09557e-06
6.09707e-06
6.09707e-06
6.09849e-06
6.09947e-06
6.10026e-06
6.10071e-06
6.10093e-06
6.10129e-06
6.1017e-06
6.10108e-06
6.09978e-06
6.09864e-06
6.09864e-06
6.09684e-06
6.09679e-06
6.09838e-06
6.10168e-06
6.10424e-06
6.10156e-06
6.09477e-06
6.09725e-06
6.0918e-06
)
;
    }
    procBoundary2to3
    {
        type            processor;
        value           nonuniform List<scalar> 
88
(
6.10231e-06
6.08657e-06
6.10192e-06
6.10231e-06
6.09887e-06
6.11196e-06
6.10192e-06
6.1093e-06
6.10453e-06
6.10605e-06
6.11196e-06
6.10885e-06
6.09906e-06
6.10154e-06
6.10287e-06
6.10299e-06
6.10453e-06
6.10323e-06
6.09415e-06
6.09442e-06
6.09491e-06
6.09555e-06
6.09906e-06
6.09663e-06
6.1055e-06
6.10318e-06
6.10098e-06
6.09895e-06
6.09721e-06
6.09589e-06
6.09415e-06
6.09511e-06
6.15998e-06
6.15406e-06
6.14847e-06
6.1431e-06
6.13779e-06
6.13267e-06
6.12789e-06
6.12342e-06
6.11926e-06
6.11557e-06
6.11241e-06
6.1055e-06
6.10969e-06
1.02575e-05
1.00252e-05
9.75101e-06
9.46391e-06
9.17854e-06
8.92528e-06
8.6811e-06
8.42943e-06
8.18396e-06
7.95734e-06
7.75057e-06
7.562e-06
7.39179e-06
7.23874e-06
7.10194e-06
6.98023e-06
6.87298e-06
6.77901e-06
6.69735e-06
6.62668e-06
6.56595e-06
6.51389e-06
6.46936e-06
6.43101e-06
6.39775e-06
6.36866e-06
6.3432e-06
6.3209e-06
6.30142e-06
6.28431e-06
6.26918e-06
6.25559e-06
6.24319e-06
6.23181e-06
6.22145e-06
6.21213e-06
6.20367e-06
6.19573e-06
6.18803e-06
6.1807e-06
6.17377e-06
6.15998e-06
6.16743e-06
)
;
    }
    procBoundary2to6
    {
        type            processor;
        value           nonuniform List<scalar> 
13
(
0.0970078
0.0885671
0.0673388
0.0420776
0.016925
0.00202836
0.000963842
0
0
9.05749e-15
6.76271e-09
6.76964e-06
1.21555e-05
)
;
    }
}


// ************************************************************************* //
