/*--------------------------------*- C++ -*----------------------------------*\
| =========                 |                                                 |
| \\      /  F ield         | OpenFOAM: The Open Source CFD Toolbox           |
|  \\    /   O peration     | Version:  2306                                  |
|   \\  /    A nd           | Website:  www.openfoam.com                      |
|    \\/     M anipulation  |                                                 |
\*---------------------------------------------------------------------------*/
FoamFile
{
    version     2.0;
    format      ascii;
    arch        "LSB;label=32;scalar=64";
    class       volScalarField;
    location    "25";
    object      turbulenceProperties:L;
}
// * * * * * * * * * * * * * * * * * * * * * * * * * * * * * * * * * * * * * //

dimensions      [0 1 0 0 0 0 0];

internalField   nonuniform List<scalar> 
1340
(
0.0561082
0.0561889
0.05632
0.0570487
0.208715
0.205791
0.200182
0.189959
0.237045
0.23894
0.245958
0.232888
0.164999
0.194535
0.217778
0.235714
0.0231128
0.0694326
0.0953915
0.192721
0.0329111
0.0421928
0.0616655
0.106015
0.0397216
4.52262
6.22364
0.037831
0.0219695
0.0234863
0.66814
1.61684
0.0414806
0.0406613
0.0364727
0.289177
0.0436572
0.0453251
0.0416612
0.0526786
0.0435583
0.0454514
0.0440922
0.0445075
0.0440209
0.0458996
0.0463989
0.0482109
0.0442186
0.0469975
0.0481291
0.0499799
0.0443191
0.0469274
0.0484481
0.0501197
0.0444568
0.0470669
0.048897
0.0504427
0.0447012
0.0472016
0.0493689
0.0511733
0.0452655
0.0476592
0.0500337
0.0522125
0.0460901
0.0484414
0.0509648
0.0535223
0.0470944
0.0494704
0.0521508
0.0550972
0.0482634
0.0507347
0.0535735
0.0568948
0.0495616
0.0521768
0.055227
0.0589482
0.0510512
0.0538196
0.057115
0.0612699
0.0527026
0.0556509
0.0592422
0.063879
0.0544992
0.057656
0.0615874
0.0668119
0.0563947
0.0597709
0.0640629
0.0699634
0.0584934
0.0620635
0.0666951
0.0733005
0.0608454
0.0646213
0.0695514
0.0768022
0.0634781
0.0674814
0.0726801
0.0805533
0.0663838
0.0706565
0.0761041
0.0845625
0.069631
0.0742004
0.0798845
0.0889417
0.0732714
0.0781848
0.0840969
0.0937814
0.0773976
0.0826927
0.088902
0.0993354
0.0820045
0.0877648
0.0943731
0.105793
0.087157
0.0935441
0.100786
0.113727
0.0929908
0.100284
0.108557
0.123856
0.0994847
0.108058
0.118026
0.137249
0.106402
0.116514
0.128766
0.153997
0.114118
0.125862
0.141189
0.175761
0.112004
0.122905
0.13536
0.155559
0.205626
0.119253
0.13138
0.146061
0.170803
0.245023
0.126756
0.139877
0.156204
0.185973
0.289108
0.134387
0.148379
0.166022
0.199702
0.304987
0.141739
0.156111
0.174184
0.208653
0.280919
0.148839
0.162967
0.180388
0.21213
0.251797
0.156017
0.169486
0.185831
0.213412
0.232126
0.162874
0.175433
0.190397
0.213484
0.219214
0.168613
0.179933
0.193325
0.212286
0.210615
0.172628
0.182543
0.194322
0.209529
0.203146
0.175375
0.183744
0.193918
0.205901
0.196624
0.178219
0.185096
0.193853
0.203168
0.191597
0.182738
0.188129
0.195496
0.202468
0.18899
0.19033
0.192293
0.198136
0.203201
0.188021
0.188181
0.195629
0.196988
0.201289
0.204786
0.18842
0.193728
0.197969
0.201521
0.205738
0.208048
0.19015
0.199099
0.203634
0.206867
0.210254
0.211537
0.192721
0.205146
0.208998
0.212057
0.215344
0.216286
0.196531
0.211909
0.215833
0.218705
0.221464
0.221779
0.201114
0.22018
0.223526
0.226032
0.228621
0.228773
0.206786
0.228068
0.231704
0.234269
0.236549
0.236434
0.213097
0.236385
0.2395
0.241495
0.243858
0.244151
0.220133
0.246001
0.246791
0.248157
0.251039
0.252122
0.227493
0.247808
0.25416
0.256496
0.256373
0.259482
0.261537
0.23576
0.257181
0.260524
0.265756
0.266668
0.270425
0.272281
0.245283
0.265563
0.269543
0.275706
0.2769
0.280917
0.282809
0.254717
0.273846
0.278046
0.284569
0.28628
0.290471
0.292344
0.263611
0.283571
0.287999
0.295356
0.296769
0.300496
0.301763
0.272665
0.300077
0.303465
0.309654
0.309547
0.311953
0.312562
0.282489
0.319184
0.321377
0.327046
0.32466
0.324573
0.32287
0.291189
0.336591
0.336074
0.340045
0.336509
0.335619
0.331998
0.299055
0.356752
0.352822
0.354304
0.348896
0.347953
0.344737
0.309347
0.387208
0.376537
0.37311
0.365151
0.363828
0.362627
0.324172
0.414184
0.414323
0.407343
0.396885
0.385946
0.382591
0.381926
0.341076
0.444852
0.439725
0.438345
0.427194
0.412608
0.40546
0.402843
0.359022
0.482138
0.480517
0.478101
0.465055
0.44671
0.435975
0.430764
0.381186
0.519696
0.521438
0.518691
0.506718
0.489025
0.477901
0.472878
0.421304
0.561799
0.543382
0.524207
0.504751
0.484798
0.470761
0.46217
0.414392
0.702529
0.668488
0.629011
0.609259
0.594087
0.5731
0.538037
0.487432
0.350415
0.342883
0.339231
0.335422
0.331643
0.329232
0.323747
0.307195
0.286214
0.288376
0.289075
0.289376
0.288989
0.286954
0.280429
0.284395
0.19692
0.198079
0.199411
0.201102
0.203024
0.205293
0.208263
0.216725
0.138868
0.219417
0.225596
0.207022
0.151601
0.0836907
0
0.400234
0.0664819
0.0464789
0.0465184
0.047161
0.0488692
0.0508719
0.0526963
0.0545687
0.0564953
0.0584677
0.0605524
0.0628115
0.065314
0.0680628
0.0711038
0.0744317
0.0780549
0.0819248
0.0859574
0.0901359
0.0945663
0.0993789
0.104709
0.110815
0.118093
0.127407
0.139802
0.156398
0.1774
0.203795
0.237204
0.273711
0.287116
0.266054
0.24051
0.22063
0.207157
0.198093
0.191944
0.186403
0.181595
0.177948
0.176311
0.175844
0.176576
0.178072
0.180512
0.183817
0.187959
0.192849
0.198364
0.204384
0.210831
0.218009
0.226131
0.234583
0.243166
0.252132
0.261855
0.269756
0.276112
0.284996
0.297009
0.310935
0.326769
0.346461
0.384911
0.377425
0.509196
0.291108
0.314711
0.223494
0.268776
0.242264
0.225414
0.17976
0.0503507
0.259519
0.71139
0.104845
0.0587491
0.0608073
0.058321
0.0561913
0.0582154
0.0602786
0.0618141
0.0633989
0.0650245
0.0666781
0.0685561
0.0706639
0.0730195
0.0755389
0.0782962
0.0812943
0.0846478
0.0882703
0.0921959
0.0964174
0.101112
0.106247
0.111935
0.118274
0.125857
0.135385
0.147489
0.162308
0.180017
0.199295
0.218655
0.23594
0.242734
0.236774
0.225929
0.215221
0.206661
0.200623
0.195982
0.191445
0.187302
0.184475
0.183421
0.183624
0.184864
0.186674
0.189424
0.193051
0.197559
0.2028
0.208651
0.214896
0.221275
0.228193
0.235969
0.244323
0.253036
0.262667
0.273485
0.282367
0.288662
0.297899
0.309632
0.323121
0.338493
0.357156
0.397672
0.379964
0.580289
0.286882
0.331482
0.216875
0.457953
0.255984
0.246062
0.109989
13.5766
2.40804
0.289272
0.0537707
0.0608921
0.0645197
0.0592142
0.0592048
0.0633042
0.0661781
0.0683822
0.0706709
0.0729446
0.0750726
0.0774195
0.079998
0.0826804
0.0852855
0.0880231
0.0909791
0.0942272
0.0977021
0.101592
0.105971
0.11101
0.116539
0.122631
0.129313
0.137239
0.146715
0.157981
0.170591
0.18417
0.197045
0.208414
0.216106
0.217525
0.213795
0.208143
0.202635
0.198195
0.195218
0.192684
0.190102
0.187797
0.186765
0.187028
0.188343
0.190425
0.193066
0.196487
0.200823
0.205962
0.211982
0.218529
0.225226
0.232093
0.239352
0.247054
0.255403
0.264188
0.274029
0.285309
0.294264
0.300311
0.310392
0.322578
0.336437
0.352405
0.370828
0.410008
0.385403
0.576306
0.289942
0.344861
0.216115
0.374156
0.232316
0.0842428
0
0
0.443807
0.0665904
0.051727
0.0619974
0.059996
0.0563342
0.0583953
0.0620312
0.0641932
0.0661466
0.0681673
0.0702365
0.0724227
0.0748322
0.0773779
0.0801198
0.0829834
0.0860245
0.0892285
0.092687
0.0963716
0.100469
0.105143
0.110429
0.116132
0.122224
0.128654
0.135702
0.143266
0.151436
0.159936
0.168338
0.176086
0.183029
0.187619
0.18928
0.188994
0.187852
0.186745
0.186186
0.186315
0.186407
0.186244
0.186251
0.187162
0.188906
0.191366
0.194388
0.197908
0.202118
0.207155
0.213018
0.219558
0.226705
0.234171
0.241483
0.249116
0.257184
0.265557
0.274173
0.283825
0.294622
0.302778
0.308217
0.318168
0.330348
0.344479
0.360529
0.377584
0.411492
0.384439
0.537869
0.29287
0.354184
0.218242
0.0797534
0.0483142
0
0
0.805309
0.102622
0.0521557
0.0567503
0.0632772
0.0604866
0.0593965
0.0624464
0.0652196
0.0666902
0.0681463
0.0694737
0.070845
0.0723276
0.0739125
0.0754289
0.0771902
0.0792063
0.0814135
0.0836693
0.0862261
0.0891707
0.0925415
0.0964368
0.100848
0.105643
0.110718
0.11598
0.121442
0.127095
0.132983
0.139217
0.145444
0.151587
0.157441
0.16218
0.165463
0.167929
0.17
0.172132
0.174595
0.177369
0.179944
0.182163
0.184435
0.18726
0.19055
0.19419
0.198218
0.202623
0.207595
0.21334
0.219794
0.22709
0.235003
0.242928
0.250883
0.259102
0.267346
0.275666
0.284098
0.293216
0.303449
0.310246
0.314591
0.324149
0.336124
0.349586
0.364317
0.378533
0.406281
0.380344
0.50585
0.293897
0.35941
0.220127
0.0586127
0
0
3.90399
0.463092
0.0496742
0.0463148
0.0509331
0.0570638
0.060488
0.0640528
0.0683907
0.0717108
0.073725
0.0750576
0.0757065
0.0759702
0.076041
0.0760839
0.0762421
0.0766622
0.0773522
0.0782887
0.0794811
0.0809951
0.0829369
0.0852853
0.0881314
0.0913885
0.0950056
0.0988459
0.102941
0.107173
0.111648
0.116446
0.121703
0.127133
0.132798
0.13846
0.143609
0.148063
0.152285
0.156394
0.160652
0.165192
0.169932
0.174483
0.17876
0.183119
0.187796
0.192672
0.197651
0.202807
0.208142
0.213922
0.22047
0.227773
0.235847
0.244584
0.253585
0.262035
0.27047
0.278868
0.287066
0.294903
0.303593
0.312946
0.318231
0.321488
0.330291
0.341565
0.353894
0.36628
0.377249
0.39992
0.375843
0.486626
0.294105
0
0
0
0.330636
0.0489388
0.0399321
0.0417623
0.0455796
0.0489789
0.0517714
0.0545986
0.0575243
0.0605745
0.0635648
0.0663414
0.0687117
0.0705921
0.0719657
0.0729193
0.0735911
0.0741292
0.0746149
0.0751975
0.0759577
0.0769605
0.07832
0.0800281
0.0821503
0.0846021
0.087396
0.090434
0.0937351
0.0972625
0.101152
0.105386
0.110102
0.115105
0.120466
0.125961
0.131371
0.136546
0.141814
0.147199
0.152852
0.158787
0.164899
0.170953
0.176925
0.183058
0.18944
0.1959
0.202273
0.208643
0.214981
0.221767
0.229219
0.237264
0.246429
0.256577
0.266369
0.275306
0.284083
0.292272
0.30003
0.307401
0.315541
0.324237
0.327499
0.32908
0.337239
0.347717
0.358116
0.367673
0.375694
0.395066
0.372635
0
0
0.420255
0.0609568
0.0410346
0.0436143
0.0466485
0.0493917
0.0515191
0.0533089
0.0548613
0.0564169
0.0581126
0.0598362
0.0615544
0.0632689
0.0649737
0.0666362
0.0682123
0.0696544
0.0709388
0.0720416
0.0730315
0.0739832
0.074981
0.0761412
0.0775287
0.0792045
0.0811723
0.0834534
0.0860142
0.0888955
0.0920432
0.0955442
0.0994383
0.103789
0.108488
0.1136
0.11897
0.124454
0.130051
0.135989
0.142211
0.148778
0.155649
0.162724
0.169896
0.177216
0.184882
0.192792
0.200709
0.208429
0.215966
0.223331
0.231129
0.23938
0.248355
0.258612
0.269923
0.280799
0.290387
0.298966
0.307048
0.314244
0.321051
0.328713
0.336259
0.337351
0.337351
0.344693
0.353944
0.362138
0.369456
0.375494
0.000314325
0.350658
0.0535448
0.0379086
0.0397075
0.0435953
0.0465206
0.04845
0.0500395
0.0519743
0.0538961
0.0555203
0.0569874
0.0583338
0.0595623
0.0606698
0.0617118
0.0626982
0.0637303
0.064806
0.065967
0.0671654
0.0684863
0.0699
0.0714239
0.0730013
0.0747549
0.0766714
0.0788161
0.0811655
0.083802
0.0866904
0.0899101
0.0934633
0.0973971
0.101701
0.106364
0.111365
0.116654
0.122214
0.128076
0.13437
0.14108
0.148213
0.155673
0.163402
0.171439
0.179881
0.188813
0.198041
0.207245
0.216098
0.224585
0.232824
0.241391
0.250265
0.259794
0.270928
0.283192
0.294561
0.304033
0.31285
0.320788
0.327861
0.333968
0.341209
0.348176
0.347349
0.345509
0.352656
0.361329
9.41644
0.0401721
0.0326997
0.0332443
0.0360441
0.0384357
0.0404199
0.0422264
0.044083
0.0460657
0.048015
0.0498798
0.0517227
0.0535629
0.0553658
0.0571181
0.0588213
0.0604747
0.0620819
0.0636345
0.0651624
0.0667003
0.0683123
0.0699817
0.0717312
0.0735593
0.0755661
0.0777114
0.0800746
0.0826315
0.0854738
0.0885328
0.091895
0.0955236
0.0995109
0.103781
0.108391
0.113301
0.118562
0.124154
0.130189
0.136716
0.14374
0.15118
0.158982
0.167156
0.175831
0.185109
0.195032
0.205265
0.215394
0.225012
0.234104
0.24294
0.251897
0.260826
0.270674
0.282221
0.294102
0.304407
0.313378
0.322559
0.33126
0.33838
0.345082
0.353184
0.037109
0.0307825
0.0319635
0.0351325
0.0375113
0.0395802
0.0416098
0.0437253
0.0460229
0.0484134
0.0507977
0.0531795
0.055547
0.05788
0.0601298
0.0623227
0.0644454
0.0664908
0.0684063
0.0702344
0.0719634
0.0736681
0.0753326
0.0770189
0.0787266
0.0805543
0.0825117
0.08461
0.0869009
0.0894154
0.0921874
0.0951786
0.0985003
0.102133
0.10612
0.110401
0.115024
0.119925
0.125178
0.130804
0.136951
0.143629
0.150739
0.158216
0.166115
0.174533
0.18367
0.193588
0.204176
0.215074
0.225784
0.235705
0.244754
0.253344
0.262171
0.271205
0.280962
0.291727
0.302367
0.312177
0.31992
0.0252639
0.0293288
0.0314288
0.0335604
0.0351988
0.0369762
0.0387853
0.0407634
0.0429397
0.0452093
0.04751
0.0498896
0.0523242
0.0548194
0.0573478
0.0599479
0.0626009
0.0652709
0.0679399
0.0705975
0.0732037
0.0757529
0.0782311
0.0806715
0.0831093
0.0856052
0.0881549
0.0908457
0.0937102
0.0968074
0.100106
0.10366
0.107495
0.111594
0.115964
0.120586
0.125438
0.130557
0.136048
0.141776
0.147966
0.154711
0.161966
0.169796
0.178017
0.187047
0.196794
0.207288
0.218336
0.22949
0.240062
0.250307
0.260303
0.267167
0.0255554
0.026156
0.0292708
0.0309336
0.032618
0.0345749
0.0366034
0.0388179
0.041182
0.0436395
0.0461932
0.0488463
0.0515745
0.0543797
0.0572498
0.0601934
0.0631831
0.0662118
0.069262
0.0723421
0.0754415
0.0785741
0.0817503
0.084999
0.0883482
0.0918268
0.0954323
0.0992136
0.103173
0.107297
0.111574
0.116024
0.120664
0.125472
0.130464
0.135584
0.140868
0.146473
0.15223
0.159
0.166797
0.173044
)
;

boundaryField
{
    inlet
    {
        type            calculated;
        value           nonuniform List<scalar> 
13
(
0.115927
0.115837
0.115813
0.115905
0.116052
0.116247
0.116428
0.116996
0.117883
0.118331
0.119148
0.120138
0.12117
)
;
    }
    outlet
    {
        type            calculated;
        value           nonuniform List<scalar> 0();
    }
    walls
    {
        type            calculated;
        value           uniform 0;
    }
    frontAndBack
    {
        type            empty;
    }
    procBoundary2to1
    {
        type            processor;
        value           nonuniform List<scalar> 
84
(
0.0560419
0.212042
0.228385
0.128912
0.0568063
0.298408
0.0267771
0.0218454
0.0411981
0.0418471
0.0415227
0.0421113
0.0415992
0.0419026
0.0420978
0.0424853
0.0431342
0.0439726
0.0449391
0.0460261
0.0472327
0.0486079
0.0501311
0.0517755
0.05353
0.0554828
0.057664
0.060066
0.0626962
0.0656195
0.0688982
0.0726101
0.0767388
0.0812926
0.0863553
0.0918859
0.0976943
0.104185
0.104185
0.103217
0.109895
0.116768
0.123766
0.130702
0.137673
0.145023
0.152252
0.158685
0.163631
0.167456
0.17137
0.176528
0.182562
0.182562
0.18384
0.190138
0.195692
0.202228
0.209311
0.217813
0.225947
0.233812
0.24118
0.24118
0.246775
0.256563
0.265237
0.273751
0.28472
0.302721
0.324673
0.344048
0.365341
0.390788
0.390788
0.42323
0.452868
0.487248
0.5261
0.58579
0.746836
0.359442
0.285484
0.195817
)
;
    }
    procBoundary2to3
    {
        type            processor;
        value           nonuniform List<scalar> 
88
(
0.364614
0.221806
0.476977
0.364614
0.293782
0.39289
0.476977
0.370695
0.367471
0.371862
0.39289
0.376623
0.360179
0.35672
0.353458
0.360553
0.367471
0.368716
0.327321
0.335941
0.343504
0.352034
0.360179
0.363896
0.273415
0.281119
0.288937
0.297026
0.304718
0.315374
0.327321
0.329879
0.180228
0.189281
0.19867
0.208161
0.218185
0.22829
0.238395
0.247879
0.256336
0.263545
0.276035
0.273415
0.297232
0.0267568
0.0275197
0.0296954
0.0310582
0.0328217
0.0348321
0.0370401
0.0395342
0.042275
0.0452372
0.0484412
0.0518758
0.0555387
0.0594113
0.0634727
0.0676785
0.0719894
0.0763158
0.0806077
0.084786
0.0888563
0.0928125
0.0967322
0.100714
0.104903
0.109387
0.114198
0.119404
0.125065
0.131172
0.137618
0.144399
0.151354
0.158298
0.164887
0.170932
0.176332
0.181255
0.186437
0.191426
0.200719
0.180228
0.218734
)
;
    }
    procBoundary2to6
    {
        type            processor;
        value           nonuniform List<scalar> 
13
(
0.111447
0.182999
0.272608
0.413918
0.391734
0.105681
0.0718028
0
0
11.4668
0.323877
0.0236114
0.0273328
)
;
    }
}


// ************************************************************************* //
