/*--------------------------------*- C++ -*----------------------------------*\
| =========                 |                                                 |
| \\      /  F ield         | OpenFOAM: The Open Source CFD Toolbox           |
|  \\    /   O peration     | Version:  2306                                  |
|   \\  /    A nd           | Website:  www.openfoam.com                      |
|    \\/     M anipulation  |                                                 |
\*---------------------------------------------------------------------------*/
FoamFile
{
    version     2.0;
    format      ascii;
    arch        "LSB;label=32;scalar=64";
    class       volSymmTensorField;
    location    "25";
    object      turbulenceProperties:R;
}
// * * * * * * * * * * * * * * * * * * * * * * * * * * * * * * * * * * * * * //

dimensions      [0 2 -2 0 0 0 0];

internalField   nonuniform List<symmTensor> 
1340
(
(33.2319 16.305 1.29066e-15 41.5208 -7.68764e-17 37.4038)
(31.6939 15.6529 1.79516e-15 40.5843 7.90687e-17 36.2017)
(30.1201 14.9608 -3.36807e-16 39.4708 -8.20412e-17 34.907)
(26.2936 13.1573 -6.03652e-15 35.8076 -1.0199e-15 31.1749)
(1.13158 0.544693 -6.3116e-16 1.30333 1.07544e-16 1.24623)
(1.19467 0.575025 -1.67301e-15 1.36256 5.50131e-16 1.33528)
(1.32778 0.639612 -2.86178e-15 1.52096 -6.93749e-16 1.47911)
(1.60402 0.779268 -1.94236e-15 1.86987 -5.27049e-16 1.84832)
(0.347835 0.162067 2.53386e-16 0.365818 2.44159e-16 0.375912)
(0.455762 0.205964 -1.24463e-15 0.450964 -1.00598e-15 0.497171)
(0.52652 0.22551 3.77434e-15 0.476602 4.47619e-16 0.561709)
(0.804396 0.371549 5.85123e-15 0.833094 9.02834e-16 0.900353)
(0.0384251 0.0114746 -2.76528e-16 0.024558 -1.75741e-18 0.038794)
(0.0800412 0.025555 1.09082e-15 0.0539067 1.12152e-16 0.0819832)
(0.135694 0.0436719 -6.97686e-16 0.0901432 -6.41799e-18 0.135563)
(0.318015 0.129757 -7.26404e-16 0.270159 1.09642e-16 0.337178)
(0.000474844 -2.03725e-05 -6.41685e-19 0.000220104 -1.64542e-18 0.00044129)
(0.00296924 -5.91421e-05 -2.52665e-17 0.00124837 2.17568e-17 0.00268001)
(0.00567382 0.000167686 7.18754e-17 0.00226744 1.21422e-17 0.00483191)
(0.0452218 0.0128217 -2.9051e-16 0.0266522 -5.17098e-17 0.0425815)
(2.85204e-05 -2.00647e-06 1.68999e-19 3.10778e-05 3.70879e-20 2.68021e-05)
(0.000348424 -8.25095e-05 -1.36177e-17 0.000435654 -4.2702e-18 0.000267377)
(0.00072313 -0.000169994 -2.0271e-17 0.000671416 -5.76347e-20 0.00047614)
(0.00135105 0.000171699 9.34373e-18 0.000633922 -1.79942e-18 0.000844218)
(2.29013e-05 -5.33616e-07 -2.04414e-20 2.41048e-05 -1.1717e-21 2.26107e-05)
(3.95354e-08 -1.44896e-12 1.02775e-25 3.95387e-08 -8.8227e-27 3.95345e-08)
(2.51825e-08 -6.44365e-13 3.47726e-27 2.51836e-08 -6.21528e-27 2.51819e-08)
(0.000442051 -5.33148e-05 1.0762e-17 0.000524304 1.54029e-18 0.000307104)
(6.18843e-05 -2.72708e-06 1.36714e-19 7.07287e-05 -9.27428e-21 6.0258e-05)
(5.45221e-05 -2.08118e-06 -5.90764e-20 6.11368e-05 1.76513e-20 5.30426e-05)
(5.10058e-07 -1.86879e-10 1.42221e-24 5.10578e-07 1.30424e-25 5.09864e-07)
(1.43316e-07 -9.6909e-12 -1.36672e-25 1.43364e-07 9.09615e-26 1.43289e-07)
(1.91062e-05 -2.02833e-06 -8.41207e-21 1.79935e-05 1.97903e-20 1.73342e-05)
(1.98586e-05 -1.85399e-06 5.30152e-20 1.90899e-05 -4.89004e-20 1.77607e-05)
(2.49648e-05 -1.83181e-06 2.37448e-20 2.41787e-05 3.02634e-20 2.18004e-05)
(1.05483e-06 1.89354e-10 -5.70051e-23 1.05415e-06 -2.10861e-23 1.04674e-06)
(1.75791e-05 -1.79495e-06 4.96357e-20 1.55886e-05 4.49624e-21 1.59054e-05)
(1.6534e-05 -1.45006e-06 2.41173e-19 1.43457e-05 8.02255e-20 1.46215e-05)
(2.05674e-05 -1.38395e-06 -2.4348e-19 1.68676e-05 -7.05463e-20 1.73414e-05)
(1.23061e-05 3.72622e-07 6.98152e-20 1.057e-05 6.50593e-21 1.07162e-05)
(1.76658e-05 -1.80122e-06 -2.56481e-21 1.55827e-05 2.51154e-20 1.60312e-05)
(1.64964e-05 -1.43865e-06 -2.91259e-19 1.41626e-05 -2.52745e-20 1.46051e-05)
(1.80592e-05 -1.03125e-06 3.3722e-19 1.46359e-05 4.27953e-20 1.55153e-05)
(1.7918e-05 7.40565e-07 1.23465e-19 1.4035e-05 2.92234e-20 1.54241e-05)
(1.71022e-05 -1.78894e-06 -9.97318e-20 1.56228e-05 -3.02183e-20 1.55146e-05)
(1.59342e-05 -1.43563e-06 1.85634e-19 1.43726e-05 1.72116e-20 1.40836e-05)
(1.59866e-05 -9.7658e-07 -1.87304e-19 1.3793e-05 7.36066e-21 1.36639e-05)
(1.52182e-05 6.21571e-07 -2.33541e-19 1.22189e-05 -1.5891e-20 1.29027e-05)
(1.72879e-05 -1.64297e-06 1.1534e-19 1.47521e-05 1.0565e-20 1.57625e-05)
(1.55488e-05 -1.26066e-06 -2.61694e-19 1.30089e-05 -3.07867e-20 1.37747e-05)
(1.50835e-05 -8.01769e-07 -1.02828e-20 1.23892e-05 -2.07455e-20 1.29005e-05)
(1.4108e-05 5.8929e-07 -3.17794e-19 1.13593e-05 -5.90367e-20 1.20051e-05)
(1.72561e-05 -1.56656e-06 -9.07449e-20 1.45315e-05 4.28893e-21 1.57921e-05)
(1.56754e-05 -1.15059e-06 1.80858e-19 1.27978e-05 -1.85142e-20 1.39774e-05)
(1.4991e-05 -6.56426e-07 3.17745e-20 1.19042e-05 -8.76285e-21 1.2944e-05)
(1.40264e-05 6.05685e-07 2.03411e-19 1.11305e-05 2.15263e-20 1.20867e-05)
(1.71665e-05 -1.50593e-06 2.37765e-20 1.43477e-05 -1.12968e-20 1.57651e-05)
(1.56015e-05 -1.07598e-06 6.69539e-20 1.26124e-05 4.17665e-20 1.39786e-05)
(1.47309e-05 -5.64861e-07 1.26982e-19 1.15591e-05 3.50509e-20 1.2814e-05)
(1.38331e-05 5.93735e-07 -1.08886e-19 1.08936e-05 -4.12082e-21 1.20321e-05)
(1.69848e-05 -1.44731e-06 8.91516e-21 1.41237e-05 4.19446e-21 1.56497e-05)
(1.55163e-05 -1.01029e-06 -1.10861e-19 1.24589e-05 -1.1916e-20 1.39707e-05)
(1.44435e-05 -4.96555e-07 -1.86803e-19 1.12594e-05 -8.68319e-21 1.26503e-05)
(1.34282e-05 5.5842e-07 -9.13522e-20 1.05283e-05 -2.59047e-20 1.17531e-05)
(1.65574e-05 -1.39283e-06 -1.41156e-21 1.37457e-05 -3.85641e-21 1.5291e-05)
(1.52133e-05 -9.55817e-07 5.35157e-20 1.21777e-05 1.16482e-20 1.37474e-05)
(1.40474e-05 -4.45967e-07 -6.07504e-20 1.09145e-05 -3.08061e-20 1.23727e-05)
(1.28894e-05 5.113e-07 2.55824e-19 1.00746e-05 3.87523e-20 1.13317e-05)
(1.59588e-05 -1.3373e-06 4.17202e-20 1.32484e-05 1.81071e-20 1.47646e-05)
(1.47171e-05 -9.04978e-07 -1.63201e-19 1.17647e-05 -1.89175e-20 1.33332e-05)
(1.35234e-05 -4.04571e-07 1.13761e-19 1.04904e-05 3.90918e-21 1.1963e-05)
(1.22581e-05 4.62316e-07 -1.97053e-19 9.56058e-06 -2.93687e-20 1.08128e-05)
(1.52699e-05 -1.28535e-06 -1.26686e-19 1.26931e-05 -1.62834e-20 1.4149e-05)
(1.41001e-05 -8.61466e-07 5.23108e-20 1.12714e-05 -2.03838e-20 1.27993e-05)
(1.29009e-05 -3.74789e-07 8.1683e-20 1.00028e-05 2.43531e-20 1.14499e-05)
(1.15615e-05 4.12328e-07 3.13859e-19 9.00245e-06 4.13388e-20 1.02228e-05)
(1.45199e-05 -1.23695e-06 6.70253e-20 1.20997e-05 -3.8391e-21 1.34731e-05)
(1.3394e-05 -8.24324e-07 1.19479e-19 1.07181e-05 2.69519e-20 1.21757e-05)
(1.22124e-05 -3.54762e-07 -8.92066e-20 9.47113e-06 -2.9368e-21 1.08654e-05)
(1.08389e-05 3.62077e-07 -1.93893e-19 8.42718e-06 -1.52031e-20 9.60121e-06)
(1.37471e-05 -1.19142e-06 -1.87312e-20 1.1495e-05 3.87265e-21 1.27747e-05)
(1.265e-05 -7.92799e-07 -9.9359e-20 1.0142e-05 -2.6222e-21 1.15143e-05)
(1.14812e-05 -3.4299e-07 -3.89668e-20 8.91099e-06 -1.3835e-20 1.02333e-05)
(1.00963e-05 3.10334e-07 4.15684e-20 7.83784e-06 -1.59789e-21 8.95304e-06)
(1.29329e-05 -1.14377e-06 5.73262e-21 1.08588e-05 -3.90632e-21 1.2036e-05)
(1.18754e-05 -7.6154e-07 1.82315e-20 9.54341e-06 -5.95933e-21 1.0822e-05)
(1.07251e-05 -3.34512e-07 5.63697e-20 8.33343e-06 2.50936e-22 9.57274e-06)
(9.34659e-06 2.60319e-07 -1.46548e-21 7.24524e-06 3.10193e-21 8.29316e-06)
(1.2111e-05 -1.09356e-06 3.617e-20 1.0214e-05 6.64415e-21 1.129e-05)
(1.10919e-05 -7.29977e-07 3.40822e-21 8.93817e-06 3.56726e-21 1.01211e-05)
(9.95985e-06 -3.27159e-07 6.73967e-20 7.74964e-06 1.94063e-20 8.89978e-06)
(8.60027e-06 2.13893e-07 -5.31228e-20 6.65812e-06 -7.79222e-21 7.63244e-06)
(1.13008e-05 -1.04256e-06 -2.97965e-20 9.57693e-06 -1.92951e-21 1.05551e-05)
(1.03182e-05 -6.99666e-07 -2.76e-20 8.34178e-06 -6.58327e-21 9.42827e-06)
(9.20703e-06 -3.21518e-07 -1.42012e-19 7.17632e-06 -1.61154e-20 8.23567e-06)
(7.86371e-06 1.7138e-07 3.44129e-20 6.081e-06 1.40213e-21 6.97815e-06)
(1.05284e-05 -9.92714e-07 2.22755e-20 8.96877e-06 3.65431e-21 9.85648e-06)
(9.58351e-06 -6.71463e-07 5.82938e-20 7.77704e-06 4.99076e-21 8.77315e-06)
(8.49945e-06 -3.17713e-07 5.73069e-20 6.63867e-06 -5.26773e-21 7.61311e-06)
(7.17274e-06 1.32086e-07 2.93583e-20 5.54064e-06 3.08477e-21 6.36505e-06)
(9.76068e-06 -9.40883e-07 -5.33316e-20 8.36145e-06 -6.9891e-21 9.16123e-06)
(8.87071e-06 -6.42506e-07 9.11148e-22 7.22821e-06 1.81295e-21 8.13805e-06)
(7.83105e-06 -3.13865e-07 9.40242e-20 6.13139e-06 1.72809e-20 7.02681e-06)
(6.5346e-06 9.68314e-08 4.38905e-20 5.0428e-06 9.81026e-21 5.80181e-06)
(8.99415e-06 -8.87713e-07 4.83454e-20 7.75395e-06 1.8174e-21 8.46522e-06)
(8.16403e-06 -6.12164e-07 3.3061e-20 6.6831e-06 4.14924e-21 7.50759e-06)
(7.18995e-06 -3.07863e-07 -7.62383e-20 5.64426e-06 -6.8602e-21 6.465e-06)
(5.95063e-06 6.70117e-08 -1.13062e-19 4.58887e-06 -1.42167e-20 5.28964e-06)
(8.23545e-06 -8.34702e-07 -2.59263e-22 7.15411e-06 2.73509e-21 7.77451e-06)
(7.46764e-06 -5.81597e-07 -1.15242e-20 6.14618e-06 2.1222e-21 6.88484e-06)
(6.57271e-06 -3.01024e-07 5.46204e-20 5.1754e-06 6.10448e-21 5.92403e-06)
(5.40618e-06 4.22522e-08 7.42696e-20 4.16727e-06 7.91925e-21 4.81458e-06)
(7.50107e-06 -7.81951e-07 -2.66175e-21 6.57335e-06 2.42503e-22 7.10519e-06)
(6.79158e-06 -5.51124e-07 -3.67189e-20 5.62539e-06 -3.71507e-21 6.27983e-06)
(5.98249e-06 -2.94026e-07 -7.86638e-20 4.72768e-06 -8.18859e-21 5.40661e-06)
(4.90154e-06 2.096e-08 -9.19393e-20 3.77774e-06 -8.17904e-21 4.37584e-06)
(6.78922e-06 -7.27155e-07 -1.2532e-20 6.00493e-06 -1.10281e-21 6.45533e-06)
(6.13849e-06 -5.18599e-07 -2.24492e-20 5.11954e-06 -3.80861e-21 5.69469e-06)
(5.41716e-06 -2.85416e-07 3.91408e-20 4.29854e-06 1.273e-21 4.91106e-06)
(4.42562e-06 2.93945e-09 -6.65536e-21 3.41168e-06 -5.60921e-21 3.96316e-06)
(6.10451e-06 -6.69931e-07 -1.02006e-20 5.44953e-06 -1.10555e-21 5.82948e-06)
(5.50965e-06 -4.83077e-07 -5.15237e-21 4.62766e-06 -2.56142e-21 5.13086e-06)
(4.8757e-06 -2.73584e-07 4.98703e-21 3.88573e-06 1.51237e-21 4.43608e-06)
(3.9748e-06 -1.13465e-08 8.99498e-20 3.06614e-06 7.87735e-21 3.5724e-06)
(5.44586e-06 -6.1089e-07 -1.1733e-20 4.90678e-06 -1.46903e-21 5.22611e-06)
(4.90725e-06 -4.45011e-07 3.32255e-20 4.15127e-06 3.73467e-21 4.58972e-06)
(4.3509e-06 -2.58559e-07 1.35265e-20 3.4835e-06 2.52469e-21 3.97446e-06)
(3.53642e-06 -2.15662e-08 8.56767e-20 2.73104e-06 1.35342e-20 3.19174e-06)
(4.82667e-06 -5.53036e-07 -3.78922e-21 4.39231e-06 -1.53192e-21 4.658e-06)
(4.33829e-06 -4.07165e-07 -1.14067e-20 3.69961e-06 -4.91515e-22 4.0779e-06)
(3.84913e-06 -2.42447e-07 -3.26631e-20 3.0982e-06 -3.19107e-21 3.53152e-06)
(3.11156e-06 -2.91554e-08 -7.81193e-20 2.40677e-06 -5.49811e-21 2.82097e-06)
(4.24731e-06 -4.9803e-07 2.41321e-20 3.91189e-06 2.4956e-21 4.1251e-06)
(3.79957e-06 -3.71179e-07 1.34898e-20 3.27358e-06 2.28809e-21 3.59141e-06)
(3.3625e-06 -2.26789e-07 -3.75938e-22 2.72546e-06 -1.85115e-21 3.09945e-06)
(2.6866e-06 -3.584e-08 -5.3993e-20 2.08258e-06 -8.12688e-21 2.4468e-06)
(3.70409e-06 -4.45371e-07 -5.52208e-21 3.46304e-06 -8.14678e-23 3.62381e-06)
(3.28538e-06 -3.36101e-07 -4.81994e-20 2.86833e-06 -5.37598e-21 3.12511e-06)
(2.8856e-06 -2.10569e-07 3.88347e-20 2.36046e-06 5.1939e-21 2.67269e-06)
(2.25993e-06 -4.11297e-08 2.57297e-20 1.75678e-06 2.57714e-21 2.067e-06)
(3.20757e-06 -3.95883e-07 8.5505e-21 3.05562e-06 9.05469e-22 3.16464e-06)
(2.80728e-06 -3.0264e-07 3.05153e-20 2.4941e-06 2.28517e-21 2.69009e-06)
(2.42744e-06 -1.94191e-07 -4.81256e-20 2.01105e-06 -4.74291e-21 2.26042e-06)
(1.83552e-06 -4.46863e-08 -4.85382e-20 1.43248e-06 -4.96766e-21 1.68612e-06)
(2.77554e-06 -3.50437e-07 -8.49072e-21 2.70099e-06 -9.30991e-22 2.76514e-06)
(2.39146e-06 -2.71153e-07 -1.44474e-20 2.16899e-06 -8.75714e-22 2.31299e-06)
(2.02441e-06 -1.7782e-07 2.39561e-20 1.70466e-06 2.06114e-21 1.89878e-06)
(1.45225e-06 -4.64093e-08 1.55184e-20 1.14045e-06 -2.19059e-22 1.34227e-06)
(2.39046e-06 -3.05295e-07 1.38937e-20 2.36519e-06 1.21213e-21 2.40895e-06)
(2.0269e-06 -2.39944e-07 2.79435e-21 1.88024e-06 2.36514e-22 1.98301e-06)
(1.66775e-06 -1.60391e-07 -2.78758e-20 1.43326e-06 -3.26446e-21 1.57988e-06)
(1.10751e-06 -4.5135e-08 6.84717e-20 8.78774e-07 7.73898e-21 1.03437e-06)
(2.37904e-06 -3.03782e-07 -8.56329e-21 2.568e-06 -1.20726e-21 2.49012e-06)
(2.03477e-06 -2.62806e-07 3.54404e-21 2.06443e-06 1.14544e-21 2.07741e-06)
(1.72721e-06 -2.13386e-07 -1.58849e-20 1.65058e-06 -2.44817e-21 1.71459e-06)
(1.35523e-06 -1.43626e-07 5.03128e-20 1.19891e-06 4.7559e-21 1.30171e-06)
(7.99999e-07 -4.21377e-08 -1.12444e-20 6.46904e-07 -2.29985e-22 7.5996e-07)
(2.07381e-06 -2.58973e-07 2.38931e-20 2.28931e-06 2.36281e-21 2.19719e-06)
(1.75021e-06 -2.26321e-07 -3.97814e-20 1.84141e-06 -4.12401e-21 1.81368e-06)
(1.45785e-06 -1.86151e-07 6.29745e-20 1.44396e-06 6.77498e-21 1.47158e-06)
(1.10345e-06 -1.28282e-07 1.92383e-21 1.01534e-06 1.66299e-21 1.07941e-06)
(5.50088e-07 -3.99049e-08 3.14228e-21 4.64664e-07 1.76749e-22 5.39433e-07)
(1.81287e-06 -2.18494e-07 -7.02266e-21 2.04801e-06 -3.17878e-22 1.94565e-06)
(1.51993e-06 -1.93218e-07 7.71609e-21 1.64778e-06 6.41618e-24 1.60073e-06)
(1.25062e-06 -1.61825e-07 -3.62738e-20 1.28653e-06 -2.85496e-21 1.28664e-06)
(9.08773e-07 -1.13455e-07 -5.61229e-20 8.78753e-07 -6.09776e-21 9.10139e-07)
(3.75547e-07 -3.68339e-08 -1.19717e-21 3.50125e-07 2.74799e-22 3.90638e-07)
(1.59197e-06 -1.81677e-07 -9.3998e-21 1.84234e-06 -1.17759e-21 1.73141e-06)
(1.3283e-06 -1.62576e-07 2.40627e-20 1.48625e-06 2.42866e-21 1.42298e-06)
(1.08427e-06 -1.38777e-07 -6.39661e-21 1.16123e-06 -1.27857e-21 1.13932e-06)
(7.65531e-07 -9.87553e-08 2.08951e-20 7.84654e-07 1.43632e-21 7.89247e-07)
(3.12506e-07 -3.23936e-08 -3.60525e-20 3.39673e-07 -4.14689e-21 3.50883e-07)
(1.41267e-06 -1.4891e-07 1.62234e-20 1.67451e-06 1.57076e-21 1.55648e-06)
(1.17978e-06 -1.35208e-07 1.95561e-20 1.3626e-06 2.34807e-21 1.28568e-06)
(9.64133e-07 -1.18273e-07 1.85641e-20 1.07584e-06 2.05435e-21 1.03498e-06)
(6.79969e-07 -8.57741e-08 6.17672e-21 7.40621e-07 6.74026e-22 7.2238e-07)
(3.50908e-07 -2.81999e-08 3.50612e-20 4.22541e-07 3.20399e-21 4.08823e-07)
(1.26558e-06 -1.19556e-07 2.18248e-21 1.53412e-06 3.66073e-22 1.41139e-06)
(1.06579e-06 -1.10772e-07 -6.19387e-21 1.26735e-06 -3.2721e-22 1.17957e-06)
(8.81359e-07 -1.00012e-07 -2.14476e-20 1.02103e-06 -2.17634e-21 9.64642e-07)
(6.40004e-07 -7.4209e-08 2.59974e-20 7.35072e-07 2.95576e-21 6.98167e-07)
(4.29251e-07 -2.4316e-08 1.65767e-20 5.38148e-07 2.13187e-21 5.04133e-07)
(1.13897e-06 -9.25757e-08 -1.95941e-21 1.40859e-06 -2.14807e-22 1.28492e-06)
(9.71406e-07 -8.77824e-08 -2.36392e-20 1.18534e-06 -2.57232e-21 1.09087e-06)
(8.15968e-07 -8.2242e-08 1.54315e-20 9.76363e-07 1.52149e-21 9.09146e-07)
(6.18704e-07 -6.24751e-08 -1.92551e-20 7.39977e-07 -1.70018e-21 6.89687e-07)
(5.01791e-07 -1.94533e-08 -6.57195e-21 6.39156e-07 -3.11562e-22 5.90527e-07)
(1.03544e-06 -6.92202e-08 5.35021e-21 1.30151e-06 5.6958e-22 1.17957e-06)
(8.96279e-07 -6.75377e-08 4.75497e-21 1.11623e-06 2.55152e-22 1.01861e-06)
(7.66468e-07 -6.62036e-08 -9.68173e-21 9.4046e-07 -9.17002e-22 8.66486e-07)
(6.08671e-07 -5.15005e-08 -2.10664e-20 7.48679e-07 -2.53508e-21 6.89598e-07)
(5.60957e-07 -1.41207e-08 -3.78563e-20 7.19227e-07 -4.20483e-21 6.61211e-07)
(9.59657e-07 -5.00026e-08 -4.34745e-21 1.22102e-06 -4.70122e-22 1.10048e-06)
(8.44813e-07 -5.05474e-08 2.30408e-20 1.06837e-06 2.555e-21 9.68164e-07)
(7.35704e-07 -5.24713e-08 -1.45029e-21 9.19974e-07 -1.98055e-22 8.40327e-07)
(6.0915e-07 -4.19508e-08 2.41111e-20 7.63591e-07 2.40326e-21 6.97344e-07)
(6.06944e-07 -9.35002e-09 2.36998e-20 7.8061e-07 2.45278e-21 7.15584e-07)
(9.11684e-07 -3.35414e-08 7.34461e-21 1.17037e-06 7.43544e-22 1.04823e-06)
(8.16398e-07 -3.5852e-08 -1.83181e-20 1.04415e-06 -1.80796e-21 9.38975e-07)
(7.23063e-07 -4.03546e-08 -2.28627e-21 9.17351e-07 -2.68877e-22 8.30012e-07)
(6.21144e-07 -3.3144e-08 8.22814e-21 7.89443e-07 9.15013e-22 7.14305e-07)
(6.52234e-07 -4.75843e-09 -3.7348e-20 8.40899e-07 -3.87866e-21 7.67459e-07)
(8.81587e-07 -1.87742e-08 1.4058e-20 1.13803e-06 1.56563e-21 1.01332e-06)
(8.03448e-07 -2.23148e-08 -2.35942e-20 1.03521e-06 -2.62576e-21 9.24323e-07)
(7.22911e-07 -2.87021e-08 7.23125e-21 9.26752e-07 8.04247e-22 8.31033e-07)
(6.40761e-07 -2.40812e-08 2.48966e-20 8.22324e-07 2.70631e-21 7.3731e-07)
(6.96669e-07 4.36797e-10 3.8791e-21 8.99933e-07 2.81217e-22 8.16409e-07)
(8.53254e-07 -5.93935e-09 -8.13895e-21 1.10399e-06 -8.72569e-22 9.79636e-07)
(7.90973e-07 -1.0551e-08 1.08111e-21 1.02273e-06 3.54525e-23 9.09035e-07)
(7.21928e-07 -1.83534e-08 -1.37513e-20 9.30867e-07 -1.47853e-21 8.29531e-07)
(6.57084e-07 -1.57035e-08 8.99041e-21 8.47681e-07 1.13166e-21 7.55185e-07)
(7.34528e-07 5.6845e-09 -9.43271e-21 9.49465e-07 -9.75205e-22 8.5724e-07)
(8.11513e-07 4.31264e-09 8.61574e-21 1.05009e-06 9.43532e-22 9.31821e-07)
(7.65383e-07 -9.35138e-10 1.24302e-20 9.90637e-07 1.39926e-21 8.79618e-07)
(7.08959e-07 -9.46422e-09 -1.28906e-21 9.16698e-07 -2.16122e-22 8.151e-07)
(6.61054e-07 -8.29288e-09 -2.73612e-20 8.54873e-07 -2.94666e-21 7.59658e-07)
(7.55729e-07 1.04239e-08 -1.44074e-20 9.76505e-07 -1.61425e-21 8.79558e-07)
(7.47583e-07 1.27983e-08 -3.66817e-21 9.6595e-07 -3.98545e-22 8.61476e-07)
(7.32509e-07 6.41813e-09 -2.21307e-20 9.4769e-07 -2.43282e-21 8.42505e-07)
(6.89815e-07 -2.51423e-09 3.05139e-20 8.92812e-07 3.36477e-21 7.93505e-07)
(6.56172e-07 -2.49429e-09 -2.29191e-20 8.49226e-07 -2.63263e-21 7.53763e-07)
(7.64252e-07 1.42805e-08 5.87253e-21 9.86748e-07 5.92212e-22 8.87749e-07)
(7.67751e-07 2.62897e-08 1.70559e-21 9.86557e-07 1.85028e-22 8.79812e-07)
(7.08637e-07 1.90482e-08 -4.68464e-21 9.13214e-07 -5.37933e-22 8.15534e-07)
(6.98056e-07 9.70462e-09 -4.44111e-21 9.02493e-07 -5.10279e-22 8.03326e-07)
(6.68285e-07 2.494e-09 1.3367e-20 8.64936e-07 1.53818e-21 7.69038e-07)
(6.46071e-07 1.92113e-09 3.01334e-20 8.36156e-07 3.29611e-21 7.42103e-07)
(7.61628e-07 1.70325e-08 -4.62419e-21 9.82549e-07 -4.91915e-22 8.83404e-07)
(7.25397e-07 2.94957e-08 -5.23019e-21 9.29328e-07 -5.89825e-22 8.30716e-07)
(6.93353e-07 2.23406e-08 -2.44173e-20 8.91725e-07 -2.76277e-21 7.95017e-07)
(6.67532e-07 1.34524e-08 3.54712e-20 8.61904e-07 3.99665e-21 7.67519e-07)
(6.39928e-07 5.84615e-09 -1.79102e-20 8.27867e-07 -1.99657e-21 7.35959e-07)
(6.2619e-07 4.46498e-09 2.31546e-20 8.10175e-07 2.62913e-21 7.18739e-07)
(7.48263e-07 1.82234e-08 -9.07017e-21 9.64838e-07 -1.017e-21 8.66849e-07)
(6.87912e-07 3.11325e-08 1.33855e-20 8.79061e-07 1.54272e-21 7.86192e-07)
(6.56184e-07 2.37085e-08 5.60011e-21 8.42472e-07 6.37332e-22 7.50862e-07)
(6.34036e-07 1.49006e-08 -1.78285e-20 8.17895e-07 -2.01958e-21 7.27842e-07)
(6.13057e-07 7.59727e-09 1.19579e-20 7.92738e-07 1.34772e-21 7.04309e-07)
(6.05891e-07 5.95891e-09 -2.89412e-21 7.83667e-07 -3.07756e-22 6.95031e-07)
(7.28736e-07 1.88085e-08 6.85097e-21 9.3928e-07 7.65564e-22 8.43571e-07)
(6.48993e-07 3.15019e-08 3.82114e-21 8.27629e-07 4.13806e-22 7.39891e-07)
(6.23628e-07 2.44211e-08 -4.07709e-21 7.99491e-07 -4.52418e-22 7.12439e-07)
(6.03806e-07 1.5984e-08 4.37022e-21 7.7818e-07 5.13423e-22 6.92401e-07)
(5.84667e-07 8.7462e-09 -1.09321e-20 7.55694e-07 -1.2299e-21 6.71189e-07)
(5.79792e-07 6.81231e-09 -7.29566e-21 7.49692e-07 -8.28071e-22 6.64589e-07)
(7.00975e-07 1.87989e-08 -3.86014e-22 9.03245e-07 -3.63156e-23 8.10922e-07)
(6.09025e-07 3.15592e-08 -1.44009e-20 7.74977e-07 -1.66943e-21 6.93291e-07)
(5.85375e-07 2.46333e-08 1.68224e-20 7.49301e-07 1.98616e-21 6.67784e-07)
(5.68043e-07 1.64369e-08 7.07605e-21 7.31462e-07 7.99126e-22 6.50697e-07)
(5.52989e-07 9.32695e-09 1.68013e-20 7.14483e-07 1.92687e-21 6.34443e-07)
(5.51506e-07 7.21652e-09 -4.1994e-21 7.1298e-07 -4.65628e-22 6.32039e-07)
(6.69575e-07 1.87738e-08 9.20756e-21 8.62449e-07 1.02735e-21 7.74306e-07)
(5.6486e-07 3.09746e-08 6.92415e-21 7.17238e-07 8.30512e-22 6.42083e-07)
(5.46104e-07 2.43146e-08 1.80091e-20 6.98122e-07 2.07979e-21 6.22776e-07)
(5.31877e-07 1.64619e-08 -1.59155e-20 6.84429e-07 -1.82926e-21 6.09523e-07)
(5.18859e-07 9.59029e-09 -1.3822e-20 6.70201e-07 -1.64091e-21 5.95645e-07)
(5.18271e-07 7.63524e-09 5.86855e-21 6.69873e-07 6.68697e-22 5.94195e-07)
(6.33511e-07 1.88476e-08 -1.92525e-20 8.15486e-07 -2.19345e-21 7.32556e-07)
(5.2718e-07 3.03465e-08 -2.77478e-21 6.67994e-07 -3.8313e-22 5.98235e-07)
(5.0867e-07 2.38064e-08 -8.00995e-21 6.49395e-07 -9.14659e-22 5.79496e-07)
(4.95305e-07 1.61858e-08 1.7137e-20 6.36952e-07 2.01342e-21 5.67454e-07)
(4.84587e-07 9.62761e-09 -2.49141e-20 6.25776e-07 -2.88452e-21 5.56735e-07)
(4.8504e-07 7.76742e-09 -5.05623e-21 6.26848e-07 -6.10748e-22 5.56831e-07)
(5.9667e-07 1.90592e-08 2.52452e-20 7.67357e-07 2.90443e-21 6.90227e-07)
(4.91704e-07 2.95448e-08 -2.76569e-20 6.21657e-07 -3.26835e-21 5.56078e-07)
(4.76687e-07 2.31895e-08 2.3241e-20 6.0779e-07 2.71557e-21 5.41814e-07)
(4.66322e-07 1.6102e-08 -4.77784e-21 5.9923e-07 -5.63906e-22 5.33982e-07)
(4.55942e-07 9.94969e-09 5.0377e-21 5.88529e-07 6.28591e-22 5.24201e-07)
(4.54759e-07 8.1108e-09 2.06042e-21 5.87546e-07 1.86174e-22 5.22604e-07)
(5.59239e-07 1.89847e-08 -1.90824e-20 7.18549e-07 -2.21161e-21 6.47258e-07)
(4.55026e-07 2.93781e-08 8.56585e-21 5.73038e-07 1.05237e-21 5.13424e-07)
(4.49558e-07 2.29814e-08 -2.42215e-20 5.72203e-07 -2.91817e-21 5.09876e-07)
(4.42034e-07 1.66013e-08 1.59201e-20 5.6724e-07 1.90864e-21 5.05542e-07)
(4.30392e-07 1.04575e-08 5.44353e-21 5.55178e-07 6.16326e-22 4.94658e-07)
(4.26504e-07 8.50771e-09 -2.80519e-20 5.50798e-07 -3.31679e-21 4.90229e-07)
(5.23825e-07 1.86416e-08 1.30626e-20 6.72564e-07 1.57887e-21 6.0613e-07)
(4.52633e-07 3.46392e-08 2.26362e-22 5.62355e-07 -3.23234e-23 5.04118e-07)
(4.27593e-07 2.93365e-08 -5.70916e-21 5.36244e-07 -6.7441e-22 4.80288e-07)
(4.16329e-07 2.16063e-08 4.33657e-21 5.29631e-07 5.82684e-22 4.71976e-07)
(4.14488e-07 1.69495e-08 4.96351e-21 5.31033e-07 5.63708e-22 4.73765e-07)
(4.03016e-07 1.10745e-08 -1.21271e-20 5.19358e-07 -1.41315e-21 4.63107e-07)
(3.96426e-07 8.81715e-09 -5.43852e-21 5.11676e-07 -6.40947e-22 4.55692e-07)
(4.87945e-07 1.82989e-08 7.04547e-21 6.25946e-07 8.07688e-22 5.64446e-07)
(4.21539e-07 3.37577e-08 -2.70646e-20 5.21248e-07 -3.29336e-21 4.67623e-07)
(4.08012e-07 2.89377e-08 1.01174e-20 5.10196e-07 1.28569e-21 4.56229e-07)
(3.88554e-07 2.18925e-08 8.45224e-21 4.92696e-07 9.79826e-22 4.39603e-07)
(3.83592e-07 1.72552e-08 -2.85653e-21 4.90354e-07 -3.84704e-22 4.37881e-07)
(3.71262e-07 1.13526e-08 1.70014e-20 4.77925e-07 2.09089e-21 4.26439e-07)
(3.65822e-07 8.97113e-09 -1.76528e-20 4.71891e-07 -2.00765e-21 4.20585e-07)
(4.50906e-07 1.77687e-08 -9.03469e-21 5.77833e-07 -1.11185e-21 5.21816e-07)
(3.96778e-07 3.32099e-08 -6.42434e-22 4.87986e-07 -9.08906e-24 4.38018e-07)
(3.82451e-07 2.8619e-08 1.89941e-20 4.7594e-07 2.29078e-21 4.25622e-07)
(3.6196e-07 2.18414e-08 -1.51371e-20 4.57373e-07 -1.86328e-21 4.07913e-07)
(3.56398e-07 1.73076e-08 -1.71499e-20 4.54565e-07 -2.06765e-21 4.05725e-07)
(3.44394e-07 1.16346e-08 1.42265e-20 4.42776e-07 1.73407e-21 3.94966e-07)
(3.39306e-07 9.45334e-09 3.64405e-20 4.37233e-07 4.40104e-21 3.89827e-07)
(4.18327e-07 1.73474e-08 -1.2818e-20 5.35499e-07 -1.58902e-21 4.8402e-07)
(3.74876e-07 3.27216e-08 6.75438e-21 4.58092e-07 8.08788e-22 4.11012e-07)
(3.60954e-07 2.85049e-08 -8.98923e-22 4.46546e-07 -1.15034e-22 3.99185e-07)
(3.41023e-07 2.21672e-08 -1.56734e-21 4.28874e-07 -1.52226e-22 3.82099e-07)
(3.34356e-07 1.7676e-08 -7.3865e-22 4.25092e-07 -6.81354e-23 3.78827e-07)
(3.22722e-07 1.21795e-08 2.43719e-20 4.14134e-07 2.89294e-21 3.68806e-07)
(3.17953e-07 9.97388e-09 -4.2824e-21 4.09179e-07 -5.87896e-22 3.64408e-07)
(3.90882e-07 1.68596e-08 -3.39263e-20 5.00018e-07 -4.04209e-21 4.51574e-07)
(3.51309e-07 3.21801e-08 -1.36888e-20 4.25976e-07 -1.69678e-21 3.82834e-07)
(3.38274e-07 2.83948e-08 1.67516e-20 4.15193e-07 2.04919e-21 3.71255e-07)
(3.18055e-07 2.22502e-08 4.13992e-21 3.97595e-07 5.55412e-22 3.53741e-07)
(3.12237e-07 1.79395e-08 -9.17119e-21 3.95363e-07 -1.1657e-21 3.51638e-07)
(3.02308e-07 1.27611e-08 -1.19024e-20 3.86939e-07 -1.44362e-21 3.43881e-07)
(2.98991e-07 1.05829e-08 4.37744e-21 3.84068e-07 5.08055e-22 3.41415e-07)
(3.65702e-07 1.63222e-08 3.35054e-21 4.67535e-07 5.31529e-22 4.2157e-07)
(3.14864e-07 2.98847e-08 5.98399e-21 3.79422e-07 7.31566e-22 3.4172e-07)
(3.05931e-07 2.68258e-08 -9.54401e-21 3.73105e-07 -1.21313e-21 3.33969e-07)
(2.9051e-07 2.15562e-08 2.47118e-20 3.61149e-07 3.00406e-21 3.21262e-07)
(2.87944e-07 1.77441e-08 -1.9721e-20 3.63096e-07 -2.40409e-21 3.22558e-07)
(2.81267e-07 1.30548e-08 2.76937e-20 3.58969e-07 3.39706e-21 3.18404e-07)
(2.79383e-07 1.10037e-08 -1.50955e-20 3.58052e-07 -1.86779e-21 3.17473e-07)
(3.41206e-07 1.59377e-08 3.07463e-20 4.35794e-07 3.7461e-21 3.92064e-07)
(2.77945e-07 2.59807e-08 -1.56627e-20 3.35769e-07 -2.01676e-21 3.0197e-07)
(2.72783e-07 2.35112e-08 -3.73166e-22 3.33102e-07 -2.94544e-23 2.97351e-07)
(2.60422e-07 1.85337e-08 -1.09375e-20 3.24417e-07 -1.37404e-21 2.87359e-07)
(2.61752e-07 1.5105e-08 -6.1327e-22 3.30808e-07 -2.44126e-23 2.92507e-07)
(2.59941e-07 1.08937e-08 -4.82651e-21 3.32317e-07 -6.92044e-22 2.9329e-07)
(2.62059e-07 9.04308e-09 -7.82907e-21 3.3631e-07 -9.12166e-22 2.96549e-07)
(3.21131e-07 1.35937e-08 1.0981e-20 4.11254e-07 1.21594e-21 3.67874e-07)
(2.49741e-07 2.27756e-08 -2.27476e-20 3.02545e-07 -2.81298e-21 2.71129e-07)
(2.49424e-07 2.07039e-08 -3.35167e-21 3.05346e-07 -3.85459e-22 2.71188e-07)
(2.41073e-07 1.62927e-08 1.32066e-20 3.00763e-07 1.6587e-21 2.64949e-07)
(2.43968e-07 1.32632e-08 -7.82714e-23 3.08548e-07 -3.22244e-23 2.71319e-07)
(2.43532e-07 9.32127e-09 -1.14581e-20 3.1141e-07 -1.45887e-21 2.73274e-07)
(2.48302e-07 7.3988e-09 1.14073e-21 3.18735e-07 3.07455e-22 2.79349e-07)
(3.04518e-07 1.10152e-08 -1.72361e-20 3.91068e-07 -2.21373e-21 3.4756e-07)
(2.22078e-07 2.02638e-08 3.33932e-21 2.6925e-07 4.84146e-22 2.41643e-07)
(2.26364e-07 1.87722e-08 9.91795e-21 2.77059e-07 1.24156e-21 2.45971e-07)
(2.22319e-07 1.5142e-08 -7.82847e-21 2.77003e-07 -1.00568e-21 2.43824e-07)
(2.27383e-07 1.27564e-08 -1.09793e-20 2.86932e-07 -1.40709e-21 2.52054e-07)
(2.27076e-07 9.38713e-09 -2.06023e-20 2.89637e-07 -2.46536e-21 2.53817e-07)
(2.30845e-07 7.62921e-09 4.40971e-20 2.95601e-07 5.39498e-21 2.58532e-07)
(2.85017e-07 1.07517e-08 -2.96204e-20 3.65627e-07 -3.52324e-21 3.24237e-07)
(1.87913e-07 1.71706e-08 9.31531e-21 2.28341e-07 1.1783e-21 2.05935e-07)
(1.98069e-07 1.59089e-08 -3.26737e-21 2.43605e-07 -4.4279e-22 2.16289e-07)
(2.00161e-07 1.3418e-08 2.93712e-21 2.4986e-07 3.75599e-22 2.20087e-07)
(2.07593e-07 1.18291e-08 -1.70482e-20 2.61842e-07 -2.13463e-21 2.30211e-07)
(2.07893e-07 9.14693e-09 2.59296e-20 2.64741e-07 3.26774e-21 2.32114e-07)
(2.0896e-07 7.5848e-09 -2.53507e-20 2.67034e-07 -3.2069e-21 2.33433e-07)
(2.5984e-07 1.04871e-08 3.49477e-20 3.32832e-07 4.37178e-21 2.95068e-07)
(1.62691e-07 1.4201e-08 1.25832e-20 1.99509e-07 1.60234e-21 1.8157e-07)
(1.6301e-07 1.40659e-08 6.41671e-21 1.99954e-07 8.11543e-22 1.80446e-07)
(1.67773e-07 1.20761e-08 -5.61235e-21 2.08955e-07 -7.26815e-22 1.85469e-07)
(1.76205e-07 1.12472e-08 -5.04433e-21 2.2102e-07 -6.61301e-22 1.94994e-07)
(1.85552e-07 1.03619e-08 -1.11488e-20 2.34414e-07 -1.35133e-21 2.06307e-07)
(1.88004e-07 8.2628e-09 -1.09677e-20 2.39409e-07 -1.39345e-21 2.09898e-07)
(1.88606e-07 6.83056e-09 2.86635e-20 2.40803e-07 3.64711e-21 2.10127e-07)
(2.34883e-07 9.4203e-09 -1.61948e-20 3.00803e-07 -2.07261e-21 2.66236e-07)
(1.39513e-07 1.06314e-08 -6.3204e-21 1.73595e-07 -7.90965e-22 1.58268e-07)
(1.43155e-07 1.04685e-08 1.06867e-20 1.78707e-07 1.31005e-21 1.60571e-07)
(1.43687e-07 8.89811e-09 -1.11631e-20 1.81064e-07 -1.36413e-21 1.60729e-07)
(1.51204e-07 8.3528e-09 -9.78333e-21 1.91286e-07 -1.26076e-21 1.6867e-07)
(1.61753e-07 7.84708e-09 9.21979e-21 2.05526e-07 1.14437e-21 1.80667e-07)
(1.67115e-07 6.28322e-09 1.82328e-20 2.13495e-07 2.3963e-21 1.86831e-07)
(1.69544e-07 5.05683e-09 -3.36589e-21 2.16779e-07 -5.41744e-22 1.88518e-07)
(2.11945e-07 7.46624e-09 8.44442e-21 2.71921e-07 1.12661e-21 2.39884e-07)
(1.17508e-07 6.99487e-09 2.04375e-20 1.4854e-07 2.61758e-21 1.35237e-07)
(1.18375e-07 6.44177e-09 -2.40908e-20 1.50402e-07 -3.11732e-21 1.3522e-07)
(1.19388e-07 4.97789e-09 2.79747e-20 1.52848e-07 3.5959e-21 1.35858e-07)
(1.26361e-07 4.57845e-09 -2.22131e-20 1.62021e-07 -2.81446e-21 1.42935e-07)
(1.3703e-07 4.38129e-09 -2.5197e-20 1.75877e-07 -3.23144e-21 1.5457e-07)
(1.43918e-07 3.27125e-09 3.64535e-20 1.85058e-07 4.65658e-21 1.61812e-07)
(1.47961e-07 2.22285e-09 -2.26936e-20 1.89952e-07 -2.90368e-21 1.64825e-07)
(1.87732e-07 4.68409e-09 1.78582e-20 2.41716e-07 2.24234e-21 2.12587e-07)
(1.00328e-07 3.67466e-09 3.02548e-21 1.28723e-07 3.39592e-22 1.16327e-07)
(9.95692e-08 2.60252e-09 -2.13939e-20 1.28365e-07 -2.71311e-21 1.15141e-07)
(1.00554e-07 6.92147e-10 1.39953e-20 1.30164e-07 1.72404e-21 1.16003e-07)
(1.05539e-07 9.9441e-11 -3.82691e-21 1.3663e-07 -4.11725e-22 1.21135e-07)
(1.13475e-07 -4.64375e-11 -1.54079e-20 1.46851e-07 -1.91251e-21 1.29749e-07)
(1.19119e-07 -9.24641e-10 4.10626e-20 1.53955e-07 5.14063e-21 1.35378e-07)
(1.22303e-07 -2.09773e-09 -2.14198e-20 1.57435e-07 -2.62553e-21 1.37441e-07)
(1.52826e-07 1.63289e-10 4.35964e-21 1.97819e-07 4.57928e-22 1.74942e-07)
(8.58284e-08 1.38527e-09 -1.07227e-20 1.10958e-07 -1.36231e-21 9.87582e-08)
(9.18294e-08 5.59577e-11 -1.08728e-20 1.18866e-07 -1.35712e-21 1.05229e-07)
(9.89475e-08 -2.00853e-09 -1.74807e-20 1.27704e-07 -2.2775e-21 1.12814e-07)
(1.07031e-07 -2.83131e-09 3.02715e-20 1.37779e-07 3.85874e-21 1.21335e-07)
(1.16237e-07 -3.10254e-09 4.97994e-21 1.49475e-07 6.64285e-22 1.31199e-07)
(1.23854e-07 -3.85186e-09 -9.76846e-21 1.58617e-07 -1.30269e-21 1.38468e-07)
(1.29612e-07 -4.17263e-09 2.5447e-20 1.64759e-07 3.25782e-21 1.42367e-07)
(1.5957e-07 -1.09137e-09 -3.84785e-20 2.05317e-07 -4.89905e-21 1.78381e-07)
(5.64011e-08 -1.93332e-09 1.4147e-20 6.52512e-08 1.80891e-21 6.73087e-08)
(6.23047e-08 -3.05537e-09 4.71056e-21 7.2355e-08 6.32782e-22 7.40473e-08)
(7.07451e-08 -4.72005e-09 -2.09821e-20 8.17367e-08 -2.6581e-21 8.32561e-08)
(7.52579e-08 -5.22879e-09 -1.43098e-20 8.75158e-08 -1.88725e-21 8.8503e-08)
(7.8675e-08 -5.23528e-09 5.54646e-21 9.27588e-08 7.60051e-22 9.28456e-08)