/*--------------------------------*- C++ -*----------------------------------*\
| =========                 |                                                 |
| \\      /  F ield         | OpenFOAM: The Open Source CFD Toolbox           |
|  \\    /   O peration     | Version:  2306                                  |
|   \\  /    A nd           | Website:  www.openfoam.com                      |
|    \\/     M anipulation  |                                                 |
\*---------------------------------------------------------------------------*/
FoamFile
{
    version     2.0;
    format      ascii;
    arch        "LSB;label=32;scalar=64";
    class       volScalarField;
    location    "700";
    object      magR;
}
// * * * * * * * * * * * * * * * * * * * * * * * * * * * * * * * * * * * * * //

dimensions      [0 2 -2 0 0 0 0];

internalField   nonuniform List<scalar> 
1340
(
59.2334
56.6214
53.5796
43.8855
1.7808
1.96131
2.36383
3.28791
0.383904
0.528985
0.63315
1.0807
0.0142232
0.0466633
0.117931
0.429293
0.00318469
0.00116481
0.00365605
0.0832104
5.37867e-07
0.000195126
0.000838971
0.009467
1.60094e-05
1.54436e-06
7.58723e-08
0.000275046
2.27241e-05
1.60767e-05
1.81332e-06
1.87823e-05
2.8436e-05
3.04398e-05
3.21101e-05
1.21333e-06
2.39838e-05
2.36124e-05
3.97022e-05
1.63778e-05
2.42477e-05
2.41276e-05
3.42566e-05
4.26722e-05
2.24913e-05
2.27384e-05
2.92272e-05
4.66831e-05
2.16339e-05
2.19411e-05
2.69065e-05
4.29084e-05
2.04295e-05
2.06115e-05
2.49122e-05
3.85949e-05
1.93463e-05
1.94147e-05
2.30486e-05
3.48103e-05
1.81846e-05
1.81484e-05
2.11943e-05
3.13812e-05
1.70275e-05
1.68958e-05
1.94204e-05
2.82038e-05
1.5851e-05
1.56308e-05
1.77215e-05
2.52574e-05
1.46712e-05
1.43698e-05
1.60971e-05
2.25339e-05
1.34914e-05
1.31159e-05
1.45508e-05
2.00385e-05
1.2319e-05
1.18765e-05
1.30778e-05
1.77552e-05
1.11603e-05
1.06599e-05
1.16805e-05
1.56768e-05
1.00227e-05
9.47152e-06
1.03592e-05
1.37958e-05
8.914e-06
8.31938e-06
9.11229e-06
1.20968e-05
7.84105e-06
7.20879e-06
7.94375e-06
1.05731e-05
6.81178e-06
6.14588e-06
6.85428e-06
9.21167e-06
5.83416e-06
5.13611e-06
5.84708e-06
8.00429e-06
4.91675e-06
4.18365e-06
4.92516e-06
6.94109e-06
4.06917e-06
3.29254e-06
4.0942e-06
6.01449e-06
3.30402e-06
2.4661e-06
3.36185e-06
5.21827e-06
2.63867e-06
1.70561e-06
2.74015e-06
4.54639e-06
2.10008e-06
1.01353e-06
2.24615e-06
3.99388e-06
1.72686e-06
3.92752e-07
1.90144e-06
3.5548e-06
1.55459e-06
1.87405e-07
1.72058e-06
3.22118e-06
1.57414e-06
6.67248e-07
1.69021e-06
2.98145e-06
1.72001e-06
1.09221e-06
1.76624e-06
2.82063e-06
1.91931e-06
1.45601e-06
1.89706e-06
2.72103e-06
2.12419e-06
1.7612e-06
2.04378e-06
2.66464e-06
2.92144e-06
2.30978e-06
2.011e-06
2.18312e-06
2.63523e-06
2.96546e-06
2.46456e-06
2.20922e-06
2.30278e-06
2.61956e-06
2.99847e-06
2.58415e-06
2.36009e-06
2.39721e-06
2.6079e-06
3.0141e-06
2.66802e-06
2.46785e-06
2.4645e-06
2.59343e-06
3.00933e-06
2.71777e-06
2.53702e-06
2.50511e-06
2.572e-06
2.98353e-06
2.73613e-06
2.57195e-06
2.52055e-06
2.54125e-06
2.93763e-06
2.7265e-06
2.57708e-06
2.51302e-06
2.50007e-06
2.87349e-06
2.69258e-06
2.5567e-06
2.48532e-06
2.44858e-06
2.79352e-06
2.63805e-06
2.51476e-06
2.44006e-06
2.38731e-06
2.70042e-06
2.56659e-06
2.45507e-06
2.38004e-06
2.31721e-06
2.59678e-06
2.48148e-06
2.38108e-06
2.3079e-06
2.23962e-06
2.48506e-06
2.38568e-06
2.29567e-06
2.22591e-06
2.15563e-06
2.36734e-06
2.28178e-06
2.20149e-06
2.13615e-06
2.06644e-06
2.24533e-06
2.17176e-06
2.10053e-06
2.04028e-06
1.97303e-06
2.1846e-06
2.12043e-06
2.05729e-06
1.99447e-06
1.93966e-06
1.87617e-06
2.04782e-06
1.99375e-06
1.93973e-06
1.88467e-06
1.83547e-06
1.77661e-06
1.91198e-06
1.86652e-06
1.82047e-06
1.77252e-06
1.7289e-06
1.67512e-06
1.77829e-06
1.74016e-06
1.70108e-06
1.65959e-06
1.62137e-06
1.57282e-06
1.64834e-06
1.61645e-06
1.58341e-06
1.54773e-06
1.5146e-06
1.47118e-06
1.52384e-06
1.49723e-06
1.46941e-06
1.43886e-06
1.41039e-06
1.37181e-06
1.40607e-06
1.3839e-06
1.36052e-06
1.33447e-06
1.31017e-06
1.27613e-06
1.29527e-06
1.2768e-06
1.2572e-06
1.23506e-06
1.21446e-06
1.18466e-06
1.19053e-06
1.17515e-06
1.15876e-06
1.14004e-06
1.12274e-06
1.09693e-06
1.10219e-06
1.09022e-06
1.07742e-06
1.06377e-06
1.0481e-06
1.03376e-06
1.01172e-06
1.00312e-06
9.93154e-07
9.82543e-07
9.71279e-07
9.5832e-07
9.46692e-07
9.28166e-07
9.0741e-07
8.99103e-07
8.90355e-07
8.81159e-07
8.70592e-07
8.61439e-07
8.4608e-07
8.16134e-07
8.09226e-07
8.02064e-07
7.94643e-07
7.86146e-07
7.79219e-07
7.66612e-07
7.30577e-07
7.24829e-07
7.18983e-07
7.13054e-07
7.06295e-07
7.01234e-07
6.90865e-07
6.53099e-07
6.48265e-07
6.43476e-07
6.38809e-07
6.3358e-07
6.30152e-07
6.21946e-07
5.88757e-07
5.84428e-07
5.8026e-07
5.76357e-07
5.72088e-07
5.69748e-07
5.63369e-07
5.36988e-07
5.32872e-07
5.2899e-07
5.25419e-07
5.2158e-07
5.19737e-07
5.14349e-07
4.90423e-07
4.86394e-07
4.82623e-07
4.79205e-07
4.75618e-07
4.74029e-07
4.69388e-07
4.45512e-07
4.41595e-07
4.37931e-07
4.34677e-07
4.31327e-07
4.29919e-07
4.25894e-07
4.05291e-07
4.00733e-07
3.96601e-07
3.92866e-07
3.897e-07
3.86711e-07
3.85941e-07
3.84141e-07
3.60336e-07
3.54878e-07
3.49759e-07
3.45036e-07
3.40861e-07
3.36933e-07
3.34329e-07
3.30097e-07
3.03697e-07
2.97918e-07
2.9293e-07
2.88788e-07
2.85763e-07
2.83915e-07
2.86387e-07
2.92162e-07
2.25002e-07
2.13807e-07
2.03583e-07
1.94573e-07
1.86849e-07
1.80368e-07
1.75127e-07
1.67323e-07
1.79998e-07
1.7673e-07
1.75799e-07
1.77426e-07
1.82739e-07
1.92287e-07
2.15047e-07
2.48571e-07
2.00564e-07
1.99485e-07
1.98159e-07
1.963e-07
1.94817e-07
2.00475e-07
2.35953e-07
2.74405e-07
5.40478e-07
5.60644e-07
5.78196e-07
5.9439e-07
6.13071e-07
6.40584e-07
7.08509e-07
7.65202e-07
1.01492e-06
1.01809e-06
1.02037e-06
1.02186e-06
1.02279e-06
1.02587e-06
1.04601e-06
9.96649e-07
1.93988e-06
1.94058e-06
1.93954e-06
1.93745e-06
1.93294e-06
1.93027e-06
1.9139e-06
1.77562e-06
12.8379
3.47082
0.920195
0.284592
0.0495859
0.00314686
0.000256868
1.86499e-05
1.60934e-06
2.76522e-05
4.91676e-05
4.93649e-05
4.48137e-05
4.04936e-05
3.67273e-05
3.32903e-05
3.00843e-05
2.71035e-05
2.43509e-05
2.18149e-05
1.94913e-05
1.73717e-05
1.54467e-05
1.37074e-05
1.21423e-05
1.07422e-05
9.49675e-06
8.39546e-06
7.42865e-06
6.58679e-06
5.86067e-06
5.24122e-06
4.71895e-06
4.28471e-06
3.92866e-06
3.64041e-06
3.4094e-06
3.225e-06
3.077e-06
2.95617e-06
2.85448e-06
2.76524e-06
2.68335e-06
2.60486e-06
2.527e-06
2.44803e-06
2.36692e-06
2.28311e-06
2.19667e-06
2.1076e-06
2.01625e-06
1.92284e-06
1.82759e-06
1.73077e-06
1.6328e-06
1.5345e-06
1.43705e-06
1.34187e-06
1.25016e-06
1.16236e-06
1.07798e-06
9.95859e-07
9.15191e-07
8.35834e-07
7.5892e-07
6.8536e-07
6.18491e-07
5.61428e-07
5.13528e-07
4.69383e-07
4.26335e-07
3.85857e-07
3.30472e-07
2.98746e-07
1.64204e-07
2.71146e-07
2.4977e-07
7.51915e-07
8.81319e-07
1.57784e-06
7.72679
2.50176
0.474474
0.0742296
0.00739815
4.94381e-06
5.86474e-07
1.26573e-07
2.40909e-06
2.32159e-05
2.88186e-05
2.80328e-05
2.63401e-05
2.48314e-05
2.34479e-05
2.20855e-05
2.07248e-05
1.93668e-05
1.80322e-05
1.67248e-05
1.54559e-05
1.42318e-05
1.30592e-05
1.19492e-05
1.09041e-05
9.92779e-06
9.02421e-06
8.19501e-06
7.4395e-06
6.75726e-06
6.14623e-06
5.60363e-06
5.1257e-06
4.70809e-06
4.34623e-06
4.03425e-06
3.76681e-06
3.53788e-06
3.34144e-06
3.17192e-06
3.02399e-06
2.89269e-06
2.77409e-06
2.66454e-06
2.56127e-06
2.46216e-06
2.36559e-06
2.27045e-06
2.17603e-06
2.08177e-06
1.98743e-06
1.89276e-06
1.79752e-06
1.70168e-06
1.60543e-06
1.50934e-06
1.41443e-06
1.32195e-06
1.23288e-06
1.14754e-06
1.06536e-06
9.85216e-07
9.06359e-07
8.28745e-07
7.53529e-07
6.81501e-07
6.15868e-07
5.59509e-07
5.12273e-07
4.68832e-07
4.26173e-07
3.86129e-07
3.30661e-07
3.00473e-07
1.6268e-07
2.84472e-07
2.18769e-07
7.55075e-07
8.74113e-07
1.61493e-06
4.87834
1.57869
0.213274
0.0137794
0.000520719
0.000108854
0
4.47641e-07
7.60372e-06
1.75452e-05
1.7352e-05
1.64612e-05
1.55557e-05
1.48092e-05
1.41252e-05
1.34615e-05
1.28188e-05
1.21927e-05
1.15805e-05
1.09907e-05
1.04165e-05
9.85897e-06
9.3147e-06
8.78836e-06
8.27827e-06
7.78291e-06
7.30503e-06
6.84651e-06
6.40752e-06
5.99054e-06
5.59696e-06
5.22816e-06
4.88533e-06
4.56901e-06
4.27941e-06
4.01574e-06
3.77724e-06
3.56217e-06
3.36857e-06
3.1941e-06
3.03644e-06
2.89294e-06
2.76135e-06
2.63932e-06
2.52492e-06
2.41652e-06
2.31264e-06
2.21228e-06
2.11453e-06
2.01869e-06
1.92424e-06
1.83068e-06
1.73757e-06
1.64464e-06
1.55191e-06
1.45981e-06
1.36915e-06
1.28102e-06
1.19621e-06
1.11489e-06
1.03641e-06
9.59672e-07
8.84003e-07
8.09428e-07
7.37126e-07
6.67795e-07
6.04426e-07
5.49784e-07
5.04164e-07
4.62416e-07
4.21042e-07
3.82171e-07
3.27865e-07
2.98667e-07
1.64788e-07
2.90017e-07
2.0421e-07
7.48913e-07
8.56566e-07
1.61888e-06
2.93892
0.79098
0.0572215
0.000554838
0.000124618
0
1.01179e-07
1.77639e-06
9.90674e-06
1.22735e-05
1.1428e-05
1.10033e-05
1.05815e-05
1.02249e-05
9.86564e-06
9.50049e-06
9.1402e-06
8.78294e-06
8.43043e-06
8.08949e-06
7.75521e-06
7.43235e-06
7.11856e-06
6.81358e-06
6.51842e-06
6.2316e-06
5.95226e-06
5.68081e-06
5.41661e-06
5.15992e-06
4.91086e-06
4.66971e-06
4.4375e-06
4.21451e-06
4.00153e-06
3.79932e-06
3.6081e-06
3.42814e-06
3.25943e-06
3.10148e-06
2.95388e-06
2.81586e-06
2.68634e-06
2.56448e-06
2.44927e-06
2.33977e-06
2.23503e-06
2.13438e-06
2.03706e-06
1.94247e-06
1.85006e-06
1.75922e-06
1.66948e-06
1.58045e-06
1.49203e-06
1.40456e-06
1.31871e-06
1.23539e-06
1.15525e-06
1.07833e-06
1.00392e-06
9.30982e-07
8.58891e-07
7.87715e-07
7.18661e-07
6.52353e-07
5.9161e-07
5.39153e-07
4.95487e-07
4.55613e-07
4.15737e-07
3.7829e-07
3.25504e-07
2.97401e-07
1.69691e-07
2.94019e-07
1.97606e-07
7.41318e-07
8.34508e-07
1.6068e-06
1.45367
0.251201
0.00346429
0.000361703
0
1.82782e-08
3.43693e-07
5.28954e-06
9.18236e-06
8.94326e-06
8.46507e-06
8.32451e-06
8.16611e-06
8.02782e-06
7.8707e-06
7.70243e-06
7.5234e-06
7.3311e-06
7.13019e-06
6.92071e-06
6.70257e-06
6.47905e-06
6.25323e-06
6.02374e-06
5.79418e-06
5.56753e-06
5.34258e-06
5.12206e-06
4.90682e-06
4.69725e-06
4.49396e-06
4.29697e-06
4.10712e-06
3.92388e-06
3.7475e-06
3.57847e-06
3.41623e-06
3.26117e-06
3.1131e-06
2.97183e-06
2.83746e-06
2.70954e-06
2.5876e-06
2.47152e-06
2.3607e-06
2.25469e-06
2.15299e-06
2.05517e-06
1.96075e-06
1.86923e-06
1.78015e-06
1.69289e-06
1.60703e-06
1.52217e-06
1.43812e-06
1.35517e-06
1.27393e-06
1.19516e-06
1.11937e-06
1.0465e-06
9.7585e-07
9.06396e-07
8.37617e-07
7.69605e-07
7.03591e-07
6.40106e-07
5.8181e-07
5.31378e-07
4.8949e-07
4.51224e-07
4.12652e-07
3.76454e-07
3.25063e-07
2.98171e-07
1.76401e-07
3.00404e-07
1.92821e-07
7.41615e-07
8.22949e-07
1.6052e-06
0.489066
0.0348894
0.00011279
2.68354e-05
1.31603e-11
2.46217e-10
3.09278e-06
7.02539e-06
7.57103e-06
7.0151e-06
6.84228e-06
6.78268e-06
6.69859e-06
6.61498e-06
6.51632e-06
6.4114e-06
6.29573e-06
6.17075e-06
6.04008e-06
5.90172e-06
5.75708e-06
5.60651e-06
5.45218e-06
5.29263e-06
5.12986e-06
4.96539e-06
4.79793e-06
4.63015e-06
4.46239e-06
4.29536e-06
4.13019e-06
3.96731e-06
3.80805e-06
3.65244e-06
3.50107e-06
3.35469e-06
3.21296e-06
3.07649e-06
2.94499e-06
2.81848e-06
2.69715e-06
2.58049e-06
2.46836e-06
2.3608e-06
2.25731e-06
2.15778e-06
2.06186e-06
1.96931e-06
1.87984e-06
1.79304e-06
1.70859e-06
1.62592e-06
1.54468e-06
1.46447e-06
1.38513e-06
1.30693e-06
1.23041e-06
1.15621e-06
1.08474e-06
1.01589e-06
9.48925e-07
8.82917e-07
8.1741e-07
7.52559e-07
6.89582e-07
6.28912e-07
5.73016e-07
5.24565e-07
4.84433e-07
4.47715e-07
4.10427e-07
3.75447e-07
3.25472e-07
2.99948e-07
1.84037e-07
3.08159e-07
1.87196e-07
7.44923e-07
0.0704898
0.000204047
2.58963e-05
1.247e-06
9.85299e-08
1.69792e-06
5.11082e-06
5.90785e-06
5.55756e-06
5.32822e-06
5.32541e-06
5.31446e-06
5.2884e-06
5.25679e-06
5.21375e-06
5.16498e-06
5.1061e-06
5.0384e-06
4.96445e-06
4.88288e-06
4.7951e-06
4.70109e-06
4.60113e-06
4.49672e-06
4.38875e-06
4.27664e-06
4.1612e-06
4.04419e-06
3.92492e-06
3.80438e-06
3.68317e-06
3.56141e-06
3.44006e-06
3.31938e-06
3.19976e-06
3.08183e-06
2.96574e-06
2.85214e-06
2.74095e-06
2.63256e-06
2.52722e-06
2.42469e-06
2.32527e-06
2.22887e-06
2.1353e-06
2.04472e-06
1.95685e-06
1.87164e-06
1.78891e-06
1.7084e-06
1.62988e-06
1.55291e-06
1.47717e-06
1.40234e-06
1.32832e-06
1.25534e-06
1.18391e-06
1.1146e-06
1.04771e-06
9.83078e-07
9.20014e-07
8.57664e-07
7.95636e-07
7.34155e-07
6.74423e-07
6.16744e-07
5.63403e-07
5.17099e-07
4.78883e-07
4.43829e-07
4.07972e-07
3.74337e-07
3.25963e-07
3.02037e-07
1.92303e-07
3.16022e-07
0.000731541
0.000290531
2.67054e-09
4.86294e-08
9.15606e-07
3.8605e-06
4.62977e-06
4.3921e-06
4.18745e-06
4.17171e-06
4.20517e-06
4.21261e-06
4.21333e-06
4.20744e-06
4.19349e-06
4.17356e-06
4.14594e-06
4.11152e-06
4.07133e-06
4.02483e-06
3.97285e-06
3.91571e-06
3.85308e-06
3.78635e-06
3.71615e-06
3.64163e-06
3.56396e-06
3.48394e-06
3.40112e-06
3.31636e-06
3.22995e-06
3.14188e-06
3.05291e-06
2.96315e-06
2.87278e-06
2.78228e-06
2.69178e-06
2.60173e-06
2.51218e-06
2.42349e-06
2.33592e-06
2.2495e-06
2.16457e-06
2.08116e-06
1.99933e-06
1.91934e-06
1.84104e-06
1.76458e-06
1.68985e-06
1.61675e-06
1.54515e-06
1.47471e-06
1.4052e-06
1.33635e-06
1.26814e-06
1.2008e-06
1.13478e-06
1.07061e-06
1.00851e-06
9.48311e-07
8.89333e-07
8.30826e-07
7.72482e-07
7.14557e-07
6.58259e-07
6.03735e-07
5.53113e-07
5.09143e-07
4.72982e-07
4.3969e-07
4.05398e-07
3.73219e-07
3.26659e-07
3.04514e-07
0.00032282
0
5.01967e-09
9.01743e-08
3.0931e-06
3.73583e-06
3.54735e-06
3.37961e-06
3.36626e-06
3.41169e-06
3.44344e-06
3.46176e-06
3.4756e-06
3.48265e-06
3.48339e-06
3.47789e-06
3.46598e-06
3.44858e-06
3.42566e-06
3.39727e-06
3.36384e-06
3.32603e-06
3.2842e-06
3.23803e-06
3.18874e-06
3.13637e-06
3.08096e-06
3.02307e-06
2.96287e-06
2.90077e-06
2.8367e-06
2.77094e-06
2.70413e-06
2.63583e-06
2.56654e-06
2.49658e-06
2.42584e-06
2.35469e-06
2.28325e-06
2.21162e-06
2.14004e-06
2.06869e-06
1.99764e-06
1.9271e-06
1.85718e-06
1.78812e-06
1.71988e-06
1.65269e-06
1.58654e-06
1.52141e-06
1.45724e-06
1.3938e-06
1.33092e-06
1.26844e-06
1.20633e-06
1.14486e-06
1.08445e-06
1.02555e-06
9.68362e-07
9.12681e-07
8.57889e-07
8.03332e-07
7.48792e-07
6.94547e-07
6.41792e-07
5.90526e-07
5.42728e-07
5.01216e-07
4.67175e-07
4.35683e-07
4.03041e-07
0
0
1.28245e-07
2.17621e-06
3.17342e-06
2.84775e-06
2.7406e-06
2.73392e-06
2.78324e-06
2.82732e-06
2.85717e-06
2.88196e-06
2.90219e-06
2.91641e-06
2.9254e-06
2.92951e-06
2.928e-06
2.92141e-06
2.91013e-06
2.89414e-06
2.87378e-06
2.84937e-06
2.82139e-06
2.7897e-06
2.75509e-06
2.71776e-06
2.67757e-06
2.63518e-06
2.5907e-06
2.54443e-06
2.49614e-06
2.44635e-06
2.39543e-06
2.34281e-06
2.28918e-06
2.23457e-06
2.17891e-06
2.12253e-06
2.0654e-06
2.00767e-06
1.9495e-06
1.89095e-06
1.83217e-06
1.77327e-06
1.71435e-06
1.65564e-06
1.59713e-06
1.53906e-06
1.48147e-06
1.42438e-06
1.36777e-06
1.31149e-06
1.25543e-06
1.19945e-06
1.14361e-06
1.08812e-06
1.0334e-06
9.79851e-07
9.27613e-07
8.76503e-07
8.25964e-07
7.75441e-07
7.2479e-07
6.74324e-07
6.25196e-07
5.7726e-07
0
7.01125e-08
1.44977e-06
2.58778e-06
2.33321e-06
2.20584e-06
2.23246e-06
2.27773e-06
2.32551e-06
2.36046e-06
2.38985e-06
2.41591e-06
2.43735e-06
2.45436e-06
2.46671e-06
2.47505e-06
2.47893e-06
2.47827e-06
2.47389e-06
2.46566e-06
2.4539e-06
2.43872e-06
2.42048e-06
2.39934e-06
2.37571e-06
2.34968e-06
2.32124e-06
2.29096e-06
2.25879e-06
2.22494e-06
2.18937e-06
2.15234e-06
2.11406e-06
2.0743e-06
2.03341e-06
1.9914e-06
1.94824e-06
1.90418e-06
1.85911e-06
1.8132e-06
1.76655e-06
1.71915e-06
1.67116e-06
1.62263e-06
1.57367e-06
1.52448e-06
1.47506e-06
1.42562e-06
1.37624e-06
1.32694e-06
1.27776e-06
1.22856e-06
1.17928e-06
1.12982e-06
1.08024e-06
1.03076e-06
9.81738e-07
9.33531e-07
8.86256e-07
8.39742e-07
7.93504e-07
6.36056e-08
1.05023e-06
2.14488e-06
1.91711e-06
1.79961e-06
1.83238e-06
1.88348e-06
1.92679e-06
1.96342e-06
1.99371e-06
2.0214e-06
2.04583e-06
2.06634e-06
2.0834e-06
2.0963e-06
2.10589e-06
2.11188e-06
2.11406e-06
2.11326e-06
2.10924e-06
2.10236e-06
2.09265e-06
2.08058e-06
2.06615e-06
2.04968e-06
2.03133e-06
2.01107e-06
1.98933e-06
1.96605e-06
1.94137e-06
1.9153e-06
1.88803e-06
1.8596e-06
1.82988e-06
1.79915e-06
1.76731e-06
1.73438e-06
1.70051e-06
1.66555e-06
1.62963e-06
1.59285e-06
1.55513e-06
1.51656e-06
1.47723e-06
1.4372e-06
1.3966e-06
1.35549e-06
1.31405e-06
1.27234e-06
1.23041e-06
1.18832e-06
1.14595e-06
1.10326e-06
1.06017e-06
1.02355e-06
1.55137e-06
1.62595e-06
1.47637e-06
1.52353e-06
1.57152e-06
1.61159e-06
1.64511e-06
1.67486e-06
1.70152e-06
1.72643e-06
1.74801e-06
1.76637e-06
1.78197e-06
1.79426e-06
1.80376e-06
1.8102e-06
1.81372e-06
1.81471e-06
1.81313e-06
1.80921e-06
1.80313e-06
1.79496e-06
1.78501e-06
1.77348e-06
1.76027e-06
1.74571e-06
1.72991e-06
1.7129e-06
1.69476e-06
1.67552e-06
1.65537e-06
1.63418e-06
1.61199e-06
1.58898e-06
1.56493e-06
1.54001e-06
1.51415e-06
1.48729e-06
1.45956e-06
1.43086e-06
1.40121e-06
)
;

boundaryField
{
    inlet
    {
        type            calculated;
        value           nonuniform List<scalar> 
13
(
6.56494e-06
6.65281e-06
6.73e-06
6.79931e-06
6.86615e-06
6.93446e-06
7.02314e-06
7.05013e-06
6.98789e-06
6.95151e-06
6.89966e-06
6.85421e-06
6.81748e-06
)
;
    }
    outlet
    {
        type            calculated;
        value           nonuniform List<scalar> 0();
    }
    walls
    {
        type            calculated;
        value           nonuniform List<scalar> 4(1.01147 0.960054 0.889622 0.707856);
    }
    frontAndBack
    {
        type            empty;
    }
    procBoundary2to1
    {
        type            processor;
        value           nonuniform List<scalar> 
84
(
61.0188
1.61011
0.250421
0.00264796
0.00160909
1.8105e-08
3.51627e-05
2.59991e-05
2.81786e-05
2.4577e-05
2.45542e-05
2.31781e-05
2.23687e-05
2.12884e-05
2.02753e-05
1.92026e-05
1.81221e-05
1.70197e-05
1.5906e-05
1.47863e-05
1.36666e-05
1.25536e-05
1.14557e-05
1.03816e-05
9.33982e-06
8.33963e-06
7.39106e-06
6.50463e-06
5.69106e-06
4.9624e-06
4.33073e-06
3.80748e-06
3.40178e-06
3.11614e-06
2.94298e-06
2.86313e-06
2.85034e-06
2.87745e-06
2.87745e-06
3.66361e-06
3.5858e-06
3.51578e-06
3.44543e-06
3.3694e-06
3.28466e-06
3.18996e-06
3.08532e-06
2.97169e-06
2.85048e-06
2.7233e-06
2.59181e-06
2.45745e-06
2.32141e-06
2.32141e-06
2.24863e-06
2.10118e-06
1.95639e-06
1.8152e-06
1.67894e-06
1.54916e-06
1.427e-06
1.31259e-06
1.2049e-06
1.2049e-06
1.11354e-06
1.01264e-06
9.15441e-07
8.22932e-07
7.36369e-07
6.58078e-07
5.93287e-07
5.41365e-07
4.9474e-07
4.49737e-07
4.49737e-07
4.10198e-07
3.66045e-07
3.10215e-07
2.36883e-07
1.85457e-07
2.02031e-07
5.17541e-07
1.01028e-06
1.93666e-06
)
;
    }
    procBoundary2to3
    {
        type            processor;
        value           nonuniform List<scalar> 
88
(
8.17022e-07
1.6082e-06
1.82046e-07
8.17022e-07
7.4807e-07
2.01321e-07
1.82046e-07
3.23698e-07
3.72366e-07
3.27808e-07
2.01321e-07
3.0755e-07
5.32374e-07
4.93409e-07
4.61529e-07
4.31857e-07
3.72366e-07
4.00931e-07
7.47084e-07
7.00405e-07
6.53802e-07
6.08381e-07
5.32374e-07
5.63839e-07
1.01674e-06
9.73159e-07
9.29756e-07
8.86825e-07
8.44467e-07
8.02534e-07
7.47084e-07
7.6061e-07
1.37064e-06
1.33922e-06
1.30694e-06
1.27389e-06
1.24022e-06
1.20597e-06
1.17126e-06
1.13615e-06
1.10067e-06
1.06474e-06
1.02831e-06
1.01674e-06
9.91311e-07
1.38353e-06
1.23471e-06
1.27065e-06
1.26995e-06
1.32742e-06
1.35847e-06
1.38904e-06
1.41561e-06
1.44067e-06
1.46373e-06
1.48465e-06
1.50289e-06
1.51856e-06
1.53219e-06
1.54304e-06
1.55149e-06
1.5576e-06
1.56149e-06
1.5633e-06
1.56306e-06
1.56093e-06
1.55712e-06
1.55175e-06
1.54493e-06
1.53676e-06
1.52742e-06
1.51704e-06
1.50557e-06
1.49323e-06
1.47998e-06
1.4659e-06
1.45104e-06
1.43537e-06
1.41896e-06
1.40179e-06
1.38381e-06
1.3651e-06
1.34552e-06
1.32511e-06
1.3039e-06
1.28176e-06
1.37064e-06
1.25874e-06
)
;
    }
    procBoundary2to6
    {
        type            processor;
        value           nonuniform List<scalar> 
13
(
18.5821
13.4745
8.78727
5.76347
3.49912
1.74495
0.577588
0.0766817
0.000659192
0.0001634
0
0
7.29736e-08
)
;
    }
}


// ************************************************************************* //
