/*--------------------------------*- C++ -*----------------------------------*\
| =========                 |                                                 |
| \\      /  F ield         | OpenFOAM: The Open Source CFD Toolbox           |
|  \\    /   O peration     | Version:  2306                                  |
|   \\  /    A nd           | Website:  www.openfoam.com                      |
|    \\/     M anipulation  |                                                 |
\*---------------------------------------------------------------------------*/
FoamFile
{
    version     2.0;
    format      ascii;
    arch        "LSB;label=32;scalar=64";
    class       volScalarField;
    location    "125";
    object      magR;
}
// * * * * * * * * * * * * * * * * * * * * * * * * * * * * * * * * * * * * * //

dimensions      [0 2 -2 0 0 0 0];

internalField   nonuniform List<scalar> 
1340
(
61.9011
59.0789
55.8584
45.7729
1.93456
2.1114
2.52212
3.47702
0.451254
0.607781
0.71034
1.20406
0.0203159
0.0608084
0.142951
0.492852
0.000439034
0.00128216
0.00490256
0.0986116
4.85568e-05
0.000222471
0.00113411
0.011948
1.40128e-05
1.4759e-06
0
0.00254164
2.60993e-05
1.53105e-05
1.65403e-06
0
3.17772e-05
3.34741e-05
2.99383e-05
1.0686e-06
2.62835e-05
2.56456e-05
4.17505e-05
1.43108e-05
2.70099e-05
2.63793e-05
3.66776e-05
4.18387e-05
2.49824e-05
2.47554e-05
3.09296e-05
4.7498e-05
2.42273e-05
2.40745e-05
2.84479e-05
4.37307e-05
2.29448e-05
2.26484e-05
2.63147e-05
3.92088e-05
2.18577e-05
2.14272e-05
2.4373e-05
3.52502e-05
2.064e-05
2.00926e-05
2.24165e-05
3.168e-05
1.94322e-05
1.87816e-05
2.0548e-05
2.83847e-05
1.81963e-05
1.74508e-05
1.87547e-05
2.53351e-05
1.69608e-05
1.61272e-05
1.704e-05
2.25171e-05
1.57243e-05
1.48121e-05
1.54069e-05
1.99355e-05
1.44924e-05
1.35113e-05
1.38492e-05
1.7572e-05
1.3269e-05
1.22314e-05
1.23699e-05
1.54213e-05
1.20654e-05
1.09796e-05
1.09685e-05
1.34753e-05
1.08926e-05
9.76744e-06
9.64305e-06
1.17161e-05
9.7564e-06
8.59892e-06
8.39508e-06
1.01343e-05
8.66128e-06
7.47896e-06
7.22495e-06
8.71636e-06
7.61761e-06
6.41424e-06
6.13346e-06
7.45398e-06
6.63438e-06
5.41102e-06
5.12067e-06
6.33547e-06
5.72035e-06
4.47462e-06
4.18709e-06
5.35129e-06
4.88164e-06
3.60907e-06
3.33457e-06
4.49579e-06
4.12698e-06
2.81781e-06
2.56602e-06
3.76621e-06
3.4682e-06
2.10975e-06
1.88673e-06
3.16172e-06
2.91975e-06
1.50042e-06
1.31109e-06
2.68228e-06
2.49491e-06
1.02757e-06
8.8352e-07
2.32839e-06
2.20471e-06
7.82603e-07
7.07803e-07
2.09696e-06
2.04867e-06
8.38263e-07
8.22782e-07
1.97513e-06
2.00763e-06
1.0696e-06
1.06804e-06
1.93823e-06
2.04519e-06
1.33609e-06
1.32704e-06
1.95741e-06
2.86561e-06
2.12512e-06
1.58316e-06
1.56091e-06
2.0066e-06
2.82215e-06
2.21742e-06
1.79449e-06
1.75852e-06
2.06581e-06
2.79625e-06
2.30352e-06
1.96584e-06
1.91808e-06
2.12253e-06
2.77539e-06
2.37335e-06
2.0976e-06
2.04052e-06
2.16875e-06
2.75088e-06
2.42156e-06
2.19215e-06
2.12853e-06
2.20057e-06
2.71744e-06
2.44648e-06
2.25273e-06
2.18514e-06
2.21603e-06
2.67252e-06
2.44852e-06
2.28302e-06
2.21375e-06
2.21505e-06
2.61514e-06
2.42927e-06
2.28684e-06
2.21785e-06
2.19827e-06
2.54551e-06
2.39079e-06
2.26762e-06
2.20057e-06
2.16694e-06
2.46498e-06
2.33598e-06
2.22923e-06
2.16531e-06
2.12266e-06
2.3752e-06
2.26748e-06
2.17492e-06
2.11511e-06
2.06746e-06
2.27764e-06
2.18763e-06
2.1075e-06
2.0524e-06
2.00263e-06
2.1738e-06
2.09873e-06
2.02953e-06
1.97949e-06
1.92983e-06
2.06549e-06
2.0028e-06
1.9433e-06
1.8985e-06
1.8504e-06
2.00867e-06
1.954e-06
1.90144e-06
1.85063e-06
1.81105e-06
1.76567e-06
1.88461e-06
1.8399e-06
1.79652e-06
1.75329e-06
1.71885e-06
1.67677e-06
1.76107e-06
1.72475e-06
1.68907e-06
1.65259e-06
1.62304e-06
1.58465e-06
1.63888e-06
1.60957e-06
1.58066e-06
1.55024e-06
1.52539e-06
1.49075e-06
1.51972e-06
1.4965e-06
1.47326e-06
1.44806e-06
1.42751e-06
1.39655e-06
1.40538e-06
1.38698e-06
1.3684e-06
1.34777e-06
1.33117e-06
1.30369e-06
1.29654e-06
1.2822e-06
1.2675e-06
1.25081e-06
1.23766e-06
1.21338e-06
1.19383e-06
1.18257e-06
1.17102e-06
1.15776e-06
1.1477e-06
1.12624e-06
1.09636e-06
1.08741e-06
1.07876e-06
1.06851e-06
1.06099e-06
1.04213e-06
1.00933e-06
1.00304e-06
9.96121e-07
9.89872e-07
9.82111e-07
9.76766e-07
9.60311e-07
9.17998e-07
9.13207e-07
9.08369e-07
9.04012e-07
8.98368e-07
8.94969e-07
8.8068e-07
8.30143e-07
8.2684e-07
8.23548e-07
8.20786e-07
8.16916e-07
8.15324e-07
8.03071e-07
7.46928e-07
7.44771e-07
7.42865e-07
7.41492e-07
7.39254e-07
7.39327e-07
7.28808e-07
6.68485e-07
6.67463e-07
6.6672e-07
6.66595e-07
6.65839e-07
6.67353e-07
6.58129e-07
5.96622e-07
5.96365e-07
5.96567e-07
5.97613e-07
5.98454e-07
6.01473e-07
5.93792e-07
5.32053e-07
5.32291e-07
5.33259e-07
5.35359e-07
5.37485e-07
5.42087e-07
5.36255e-07
4.81928e-07
4.82283e-07
4.83551e-07
4.86092e-07
4.88647e-07
4.93793e-07
4.88565e-07
4.41488e-07
4.41933e-07
4.43221e-07
4.45694e-07
4.48326e-07
4.53121e-07
4.48012e-07
4.0067e-07
4.00881e-07
4.02297e-07
4.04854e-07
4.07805e-07
4.12679e-07
4.08266e-07
3.59984e-07
3.5936e-07
3.59494e-07
3.60867e-07
3.6343e-07
3.66689e-07
3.71958e-07
3.69169e-07
3.18037e-07
3.16879e-07
3.16656e-07
3.17451e-07
3.19507e-07
3.2248e-07
3.27031e-07
3.23652e-07
2.64495e-07
2.63222e-07
2.63454e-07
2.65205e-07
2.687e-07
2.73778e-07
2.81656e-07
2.85807e-07
1.96692e-07
1.92112e-07
1.89422e-07
1.88834e-07
1.90675e-07
1.94678e-07
2.01123e-07
2.01265e-07
1.55969e-07
1.60453e-07
1.67585e-07
1.76972e-07
1.88789e-07
2.02256e-07
2.21304e-07
2.45783e-07
1.21222e-07
1.2064e-07
1.2043e-07
1.20911e-07
1.24189e-07
1.37636e-07
1.77559e-07
2.19005e-07
4.8154e-07
4.99302e-07
5.14853e-07
5.28737e-07
5.43362e-07
5.62486e-07
6.09623e-07
6.47563e-07
8.32746e-07
8.31688e-07
8.29972e-07
8.28123e-07
8.26848e-07
8.29868e-07
8.4966e-07
8.11371e-07
1.67179e-06
1.66679e-06
1.66031e-06
1.65287e-06
1.64333e-06
1.6348e-06
1.61647e-06
1.49209e-06
11.5814
3.32178
0.990177
0.324526
0.0589395
0.00422155
0.000836175
0
1.38355e-06
2.39392e-05
4.83714e-05
4.94451e-05
4.47963e-05
4.0277e-05
3.63507e-05
3.27919e-05
2.94898e-05
2.64314e-05
2.36149e-05
2.10256e-05
1.86607e-05
1.65104e-05
1.45657e-05
1.28133e-05
1.124e-05
9.83634e-06
8.59229e-06
7.49505e-06
6.53411e-06
5.70045e-06
4.98763e-06
4.38718e-06
3.89063e-06
3.48937e-06
3.1751e-06
2.9366e-06
2.76131e-06
2.63603e-06
2.54813e-06
2.48581e-06
2.43957e-06
2.40134e-06
2.36555e-06
2.32793e-06
2.28608e-06
2.23835e-06
2.18414e-06
2.12339e-06
2.05671e-06
1.98427e-06
1.90689e-06
1.8251e-06
1.73971e-06
1.65129e-06
1.56058e-06
1.46862e-06
1.37668e-06
1.28605e-06
1.19785e-06
1.11253e-06
1.03002e-06
9.49666e-07
8.71509e-07
7.95319e-07
7.22382e-07
6.52638e-07
5.89371e-07
5.33137e-07
4.8639e-07
4.45923e-07
4.06073e-07
3.67602e-07
3.21556e-07
2.89191e-07
2.02457e-07
2.67191e-07
2.02431e-07
6.42077e-07
7.00845e-07
1.33289e-06
6.58896
2.16884
0.4726
0.0836289
0.00871338
0.00168103
0
9.08172e-08
1.72106e-06
2.19267e-05
2.85588e-05
2.78657e-05
2.60604e-05
2.44389e-05
2.29623e-05
2.15255e-05
2.01029e-05
1.86924e-05
1.73131e-05
1.59693e-05
1.46729e-05
1.34291e-05
1.22451e-05
1.11296e-05
1.00848e-05
9.11455e-06
8.2223e-06
7.40789e-06
6.67026e-06
6.00904e-06
5.42312e-06
4.90896e-06
4.46273e-06
4.07971e-06
3.75578e-06
3.48428e-06
3.25898e-06
3.07294e-06
2.91947e-06
2.79198e-06
2.68462e-06
2.59157e-06
2.50843e-06
2.43115e-06
2.35695e-06
2.28352e-06
2.20938e-06
2.13371e-06
2.05608e-06
1.976e-06
1.89356e-06
1.80878e-06
1.72192e-06
1.6332e-06
1.54307e-06
1.4523e-06
1.36193e-06
1.27309e-06
1.18665e-06
1.10296e-06
1.02194e-06
9.43009e-07
8.66135e-07
7.91154e-07
7.19395e-07
6.50534e-07
5.88026e-07
5.32322e-07
4.86017e-07
4.45734e-07
4.05703e-07
3.67285e-07
3.20805e-07
2.9062e-07
2.00254e-07
2.81367e-07
1.64358e-07
6.52545e-07
6.76571e-07
1.3702e-06
3.12546
0.97579
0.164306
0.0147594
0.000592853
0.00012645
0
3.66289e-07
6.24571e-06
1.66683e-05
1.6788e-05
1.594e-05
1.50362e-05
1.42902e-05
1.36019e-05
1.29343e-05
1.2284e-05
1.1649e-05
1.10269e-05
1.0429e-05
9.8478e-06
9.28481e-06
8.73756e-06
8.2114e-06
7.7041e-06
7.2148e-06
6.74561e-06
6.29833e-06
5.87267e-06
5.4715e-06
5.09611e-06
4.74762e-06
4.42689e-06
4.13452e-06
3.87064e-06
3.63409e-06
3.42356e-06
3.23694e-06
3.07194e-06
2.92582e-06
2.79595e-06
2.67915e-06
2.57274e-06
2.474e-06
2.38085e-06
2.29138e-06
2.20412e-06
2.11817e-06
2.03277e-06
1.9472e-06
1.8612e-06
1.77451e-06
1.6871e-06
1.59893e-06
1.51019e-06
1.42148e-06
1.33361e-06
1.24746e-06
1.16374e-06
1.08271e-06
1.00413e-06
9.27537e-07
8.52942e-07
7.80135e-07
7.10522e-07
6.43551e-07
5.82708e-07
5.28654e-07
4.83925e-07
4.44778e-07
4.05448e-07
3.67889e-07
3.22163e-07
2.93703e-07
2.05438e-07
2.9052e-07
1.50123e-07
6.49683e-07
6.57932e-07
1.36819e-06
1.1675
0.168108
0.0135393
0.000701949
0.000159779
0
7.86658e-08
1.3646e-06
8.60198e-06
1.11271e-05
1.04402e-05
1.00689e-05
9.69335e-06
9.38473e-06
9.07034e-06
8.75116e-06
8.43446e-06
8.12051e-06
7.80894e-06
7.5072e-06
7.20927e-06
6.9205e-06
6.63749e-06
6.36098e-06
6.09097e-06
5.82751e-06
5.56917e-06
5.31731e-06
5.07101e-06
4.83173e-06
4.59933e-06
4.3748e-06
4.15891e-06
3.95268e-06
3.75665e-06
3.57176e-06
3.39799e-06
3.23562e-06
3.0845e-06
2.94411e-06
2.81386e-06
2.6927e-06
2.57923e-06
2.47232e-06
2.37081e-06
2.27342e-06
2.17924e-06
2.08759e-06
1.99778e-06
1.90912e-06
1.82131e-06
1.73394e-06
1.64688e-06
1.55995e-06
1.47315e-06
1.38695e-06
1.30194e-06
1.21883e-06
1.13816e-06
1.06e-06
9.84156e-07
9.1022e-07
8.38173e-07
7.67892e-07
7.00766e-07
6.36043e-07
5.77293e-07
5.25352e-07
4.82481e-07
4.44742e-07
4.06478e-07
3.70076e-07
3.25626e-07
2.98804e-07
2.14895e-07
2.98691e-07
1.50707e-07
6.43211e-07
6.39233e-07
1.35054e-06
2.278
0.441524
0.0014877
0.000247439
5.21581e-08
2.00039e-08
3.84926e-07
4.66296e-06
8.58409e-06
8.47222e-06
8.06584e-06
7.94797e-06
7.81411e-06
7.69854e-06
7.55993e-06
7.40703e-06
7.24096e-06
7.06088e-06
6.87055e-06
6.67047e-06
6.46165e-06
6.24827e-06
6.03212e-06
5.81283e-06
5.59337e-06
5.37745e-06
5.16307e-06
4.95324e-06
4.74825e-06
4.54913e-06
4.35575e-06
4.16869e-06
3.98822e-06
3.81452e-06
3.64732e-06
3.48745e-06
3.33409e-06
3.18791e-06
3.04855e-06
2.91603e-06
2.79027e-06
2.6708e-06
2.55687e-06
2.44822e-06
2.34407e-06
2.24376e-06
2.14678e-06
2.05268e-06
1.96099e-06
1.87111e-06
1.78282e-06
1.69569e-06
1.60958e-06
1.52421e-06
1.4395e-06
1.35582e-06
1.2736e-06
1.19339e-06
1.11553e-06
1.04006e-06
9.66756e-07
8.95253e-07
8.25654e-07
7.57777e-07
6.92998e-07
6.30444e-07
5.73655e-07
5.23671e-07
4.82496e-07
4.45888e-07
4.08483e-07
3.73169e-07
3.29969e-07
3.04715e-07
2.24885e-07
3.07296e-07
1.53162e-07
6.42344e-07
6.28596e-07
1.34342e-06
4.1378
1.7565
0.294805
0.00436887
8.66146e-05
1.30563e-05
2.15228e-06
7.64692e-06
7.7715e-06
7.25694e-06
7.09049e-06
7.03014e-06
6.94745e-06
6.86383e-06
6.76174e-06
6.65041e-06
6.5269e-06
6.39202e-06
6.24941e-06
6.09704e-06
5.93751e-06
5.77132e-06
5.60117e-06
5.42638e-06
5.24918e-06
5.07127e-06
4.89171e-06
4.71351e-06
4.53664e-06
4.36211e-06
4.19057e-06
4.0228e-06
3.85949e-06
3.70107e-06
3.54747e-06
3.39959e-06
3.25676e-06
3.11975e-06
2.98799e-06
2.86163e-06
2.74064e-06
2.62453e-06
2.51292e-06
2.40576e-06
2.30232e-06
2.20238e-06
2.10555e-06
2.01156e-06
1.92008e-06
1.83066e-06
1.74315e-06
1.65718e-06
1.57264e-06
1.48922e-06
1.40687e-06
1.32582e-06
1.24639e-06
1.16901e-06
1.09388e-06
1.021e-06
9.50104e-07
8.81047e-07
8.13807e-07
7.48256e-07
6.85821e-07
6.25345e-07
5.70421e-07
5.22297e-07
4.82665e-07
4.47058e-07
4.10494e-07
3.76131e-07
3.34137e-07
3.10408e-07
2.34434e-07
3.15722e-07
1.5386e-07
6.43727e-07
4.05836
2.2015
0.680948
0.0517608
0.00355769
0
4.54939e-07
7.43969e-06
6.10064e-06
5.88384e-06
5.87855e-06
5.86178e-06
5.8324e-06
5.79514e-06
5.74414e-06
5.68564e-06
5.61568e-06
5.53483e-06
5.44547e-06
5.34643e-06
5.23944e-06
5.12479e-06
5.00382e-06
4.87801e-06
4.74866e-06
4.61532e-06
4.47937e-06
4.3426e-06
4.20435e-06
4.06578e-06
3.92753e-06
3.79002e-06
3.65391e-06
3.51975e-06
3.38768e-06
3.25841e-06
3.1319e-06
3.00892e-06
2.88906e-06
2.77278e-06
2.66011e-06
2.55083e-06
2.44501e-06
2.34248e-06
2.24284e-06
2.14615e-06
2.05206e-06
1.96048e-06
1.87117e-06
1.78386e-06
1.69847e-06
1.61474e-06
1.53258e-06
1.45173e-06
1.37219e-06
1.29408e-06
1.21768e-06
1.14328e-06
1.07102e-06
1.0008e-06
9.3252e-07
8.65958e-07
8.0119e-07
7.38107e-07
6.78068e-07
6.19716e-07
5.66673e-07
5.20512e-07
4.82512e-07
4.47928e-07
4.12191e-07
3.78894e-07
3.38248e-07
3.16102e-07
2.43939e-07
3.2356e-07
2.59094
1.39628
0.466095
0.0442256
0.00292904
4.07803e-08
7.37214e-07
5.31414e-06
4.8043e-06
4.91593e-06
4.93108e-06
4.93468e-06
4.93041e-06
4.91608e-06
4.89171e-06
4.85977e-06
4.81833e-06
4.76818e-06
4.7103e-06
4.64451e-06
4.57198e-06
4.49343e-06
4.40932e-06
4.3207e-06
4.22846e-06
4.13201e-06
4.03285e-06
3.93139e-06
3.82737e-06
3.72169e-06
3.61481e-06
3.50681e-06
3.39837e-06
3.28991e-06
3.18146e-06
3.07369e-06
2.96667e-06
2.86097e-06
2.75646e-06
2.65355e-06
2.55239e-06
2.4531e-06
2.35584e-06
2.26059e-06
2.16727e-06
2.07607e-06
1.98676e-06
1.89941e-06
1.8139e-06
1.73011e-06
1.64804e-06
1.56755e-06
1.48859e-06
1.41098e-06
1.33476e-06
1.26001e-06
1.18694e-06
1.11577e-06
1.0466e-06
9.79284e-07
9.13742e-07
8.49917e-07
7.87792e-07
7.27287e-07
6.69762e-07
6.13611e-07
5.62651e-07
5.18565e-07
4.82154e-07
4.48664e-07
4.13961e-07
3.81761e-07
3.42509e-07
3.21944e-07
1.0786
0.471887
0.11423
0.00610889
2.75831e-05
4.09167e-06
2.60936e-06
5.47434e-06
4.21012e-06
4.48171e-06
4.43382e-06
4.43581e-06
4.42594e-06
4.41023e-06
4.38851e-06
4.36068e-06
4.32576e-06
4.28423e-06
4.23628e-06
4.18221e-06
4.12284e-06
4.05868e-06
3.99058e-06
3.91816e-06
3.84289e-06
3.76486e-06
3.6844e-06
3.6015e-06
3.51654e-06
3.42987e-06
3.34177e-06
3.25229e-06
3.16212e-06
3.07105e-06
2.97946e-06
2.88784e-06
2.79608e-06
2.70463e-06
2.61343e-06
2.52266e-06
2.43251e-06
2.34327e-06
2.25492e-06
2.16767e-06
2.08156e-06
1.99677e-06
1.91323e-06
1.83108e-06
1.75032e-06
1.67093e-06
1.593e-06
1.51645e-06
1.44131e-06
1.36747e-06
1.29499e-06
1.22393e-06
1.15444e-06
1.08679e-06
1.02083e-06
9.56606e-07
8.9405e-07
8.33084e-07
7.73742e-07
7.15997e-07
6.61052e-07
6.0727e-07
5.5842e-07
5.16402e-07
4.81718e-07
4.49337e-07
4.15705e-07
0.213091
0.0507294
0.00750187
0.00092038
5.22148e-05
9.12459e-06
2.01668e-06
5.69576e-06
4.18681e-06
4.44675e-06
4.32485e-06
4.29861e-06
4.2556e-06
4.21431e-06
4.17135e-06
4.12662e-06
4.0785e-06
4.02696e-06
3.97213e-06
3.91417e-06
3.85323e-06
3.78945e-06
3.7231e-06
3.65419e-06
3.58359e-06
3.51136e-06
3.43722e-06
3.36132e-06
3.28405e-06
3.2057e-06
3.12633e-06
3.04606e-06
2.96539e-06
2.88397e-06
2.80241e-06
2.72078e-06
2.639e-06
2.55735e-06
2.47565e-06
2.394e-06
2.3126e-06
2.23151e-06
2.15091e-06
2.07091e-06
1.99152e-06
1.91298e-06
1.83525e-06
1.75849e-06
1.68277e-06
1.60814e-06
1.53472e-06
1.46248e-06
1.39155e-06
1.32184e-06
1.25344e-06
1.18625e-06
1.1206e-06
1.05646e-06
9.93885e-07
9.32861e-07
8.7341e-07
8.15385e-07
7.58991e-07
7.04024e-07
6.51799e-07
6.00449e-07
0.0198602
0.00875125
0.00110452
0.000242746
2.1089e-08
2.72828e-07
4.59302e-06
5.21698e-06
4.54877e-06
4.60767e-06
4.45046e-06
4.3757e-06
4.28823e-06
4.20891e-06
4.1319e-06
4.05712e-06
3.98343e-06
3.91004e-06
3.83713e-06
3.76441e-06
3.6916e-06
3.61846e-06
3.54502e-06
3.47144e-06
3.39776e-06
3.32381e-06
3.24921e-06
3.17414e-06
3.09874e-06
3.02319e-06
2.94749e-06
2.87156e-06
2.79573e-06
2.72e-06
2.64452e-06
2.56931e-06
2.49428e-06
2.41952e-06
2.34471e-06
2.26995e-06
2.19543e-06
2.12117e-06
2.04723e-06
1.9735e-06
1.90019e-06
1.82742e-06
1.75514e-06
1.68361e-06
1.61288e-06
1.54305e-06
1.47424e-06
1.40652e-06
1.34e-06
1.27463e-06
1.21031e-06
1.14721e-06
1.08537e-06
1.02486e-06
9.65693e-07
9.07995e-07
8.51734e-07
0.00448031
4.18798e-05
1.39178e-05
0
2.78338e-08
4.91564e-07
6.87213e-06
4.96282e-06
4.92504e-06
4.75336e-06
4.5849e-06
4.45612e-06
4.32817e-06
4.21262e-06
4.10375e-06
4.00123e-06
3.90402e-06
3.81085e-06
3.72147e-06
3.63509e-06
3.55117e-06
3.46931e-06
3.38934e-06
3.31099e-06
3.23384e-06
3.15771e-06
3.08202e-06
3.00697e-06
2.93242e-06
2.85841e-06
2.78492e-06
2.71196e-06
2.63963e-06
2.56787e-06
2.49686e-06
2.42651e-06
2.35666e-06
2.28722e-06
2.21803e-06
2.14908e-06
2.08047e-06
2.01209e-06
1.94368e-06
1.87584e-06
1.8081e-06
1.74064e-06
1.67356e-06
1.60701e-06
1.54117e-06
1.47609e-06
1.41191e-06
1.34883e-06
1.28689e-06
1.22612e-06
7.65505e-05
4.73859e-09
0
0
3.28536e-07
5.14561e-06
6.25341e-06
5.17111e-06
5.14761e-06
4.8915e-06
4.7107e-06
4.54132e-06
4.38245e-06
4.237e-06
4.10104e-06
3.97404e-06
3.8548e-06
3.74254e-06
3.63633e-06
3.53541e-06
3.43914e-06
3.34714e-06
3.25879e-06
3.17366e-06
3.09126e-06
3.01093e-06
2.9325e-06
2.85581e-06
2.78057e-06
2.7067e-06
2.63422e-06
2.56301e-06
2.49298e-06
2.42417e-06
2.35667e-06
2.29007e-06
2.22438e-06
2.15926e-06
2.09455e-06
2.03048e-06
1.96719e-06
1.90555e-06
)
;

boundaryField
{
    inlet
    {
        type            calculated;
        value           nonuniform List<scalar> 
13
(
5.63925e-06
5.69519e-06
5.74144e-06
5.78038e-06
5.81658e-06
5.85263e-06
5.9051e-06
5.90409e-06
5.82287e-06
5.77435e-06
5.7103e-06
5.65053e-06
5.59897e-06
)
;
    }
    outlet
    {
        type            calculated;
        value           nonuniform List<scalar> 0();
    }
    walls
    {
        type            calculated;
        value           nonuniform List<scalar> 4(1.05053 0.996205 0.92287 0.7326);
    }
    frontAndBack
    {
        type            empty;
    }
    procBoundary2to1
    {
        type            processor;
        value           nonuniform List<scalar> 
84
(
63.8746
1.76641
0.302886
0.00457779
0.000641427
1.12806e-06
2.76565e-05
2.82793e-05
3.15339e-05
2.70104e-05
2.74628e-05
2.5873e-05
2.51728e-05
2.40312e-05
2.30132e-05
2.18864e-05
2.0752e-05
1.95879e-05
1.84148e-05
1.72318e-05
1.60433e-05
1.48535e-05
1.36747e-05
1.25195e-05
1.13933e-05
1.0301e-05
9.25443e-06
8.26484e-06
7.34046e-06
6.48785e-06
5.71434e-06
5.02916e-06
4.43985e-06
3.95041e-06
3.56222e-06
3.272e-06
3.07033e-06
2.94163e-06
2.94163e-06
3.64722e-06
3.48365e-06
3.35013e-06
3.23586e-06
3.13214e-06
3.03242e-06
2.93248e-06
2.82954e-06
2.72233e-06
2.61083e-06
2.49545e-06
2.37665e-06
2.25521e-06
2.13215e-06
2.13215e-06
2.06387e-06
1.92912e-06
1.79676e-06
1.66751e-06
1.54235e-06
1.423e-06
1.31025e-06
1.20432e-06
1.10436e-06
1.10436e-06
1.01538e-06
9.22673e-07
8.33557e-07
7.49272e-07
6.69924e-07
5.97403e-07
5.32436e-07
4.82215e-07
4.4185e-07
4.00938e-07
4.00938e-07
3.61405e-07
3.1999e-07
2.67062e-07
2.02823e-07
1.5425e-07
1.22631e-07
4.61241e-07
8.32678e-07
1.6746e-06
)
;
    }
    procBoundary2to3
    {
        type            processor;
        value           nonuniform List<scalar> 
88
(
6.21815e-07
1.34108e-06
1.54792e-07
6.21815e-07
6.44637e-07
2.53631e-07
1.54792e-07
3.30954e-07
3.84542e-07
3.4692e-07
2.53631e-07
3.2785e-07
5.53868e-07
5.14086e-07
4.80982e-07
4.49796e-07
3.84542e-07
4.17379e-07
7.96926e-07
7.43502e-07
6.91409e-07
6.42027e-07
5.53868e-07
5.9335e-07
1.16657e-06
1.10743e-06
1.04935e-06
9.92471e-07
9.36618e-07
8.82486e-07
7.96926e-07
8.29638e-07
1.84393e-06
1.78001e-06
1.71717e-06
1.65439e-06
1.59206e-06
1.53022e-06
1.46913e-06
1.40864e-06
1.34904e-06
1.29055e-06
1.23369e-06
1.16657e-06
1.17767e-06
0
0
6.1741e-13
2.49311e-07
3.92562e-06
6.67678e-06
5.69123e-06
5.40025e-06
5.21081e-06
4.96597e-06
4.76803e-06
4.57582e-06
4.39706e-06
4.23076e-06
4.07549e-06
3.92994e-06
3.79384e-06
3.6661e-06
3.54621e-06
3.43313e-06
3.32648e-06
3.22545e-06
3.12979e-06
3.03859e-06
2.95128e-06
2.86732e-06
2.78663e-06
2.70856e-06
2.633e-06
2.55968e-06
2.48861e-06
2.41939e-06
2.3519e-06
2.28616e-06
2.22203e-06
2.15927e-06
2.09779e-06
2.03668e-06
1.97481e-06
1.91517e-06
1.85833e-06
1.84393e-06
1.79888e-06
)
;
    }
    procBoundary2to6
    {
        type            processor;
        value           nonuniform List<scalar> 
13
(
15.6338
11.9692
6.65233
3.48893
4.96071
6.46129
5.83813
3.9751
1.98538
0.602097
0.0552239
0.0139647
0.000214812
)
;
    }
}


// ************************************************************************* //
