/*--------------------------------*- C++ -*----------------------------------*\
| =========                 |                                                 |
| \\      /  F ield         | OpenFOAM: The Open Source CFD Toolbox           |
|  \\    /   O peration     | Version:  2306                                  |
|   \\  /    A nd           | Website:  www.openfoam.com                      |
|    \\/     M anipulation  |                                                 |
\*---------------------------------------------------------------------------*/
FoamFile
{
    version     2.0;
    format      ascii;
    arch        "LSB;label=32;scalar=64";
    class       volScalarField;
    location    "125";
    object      nuTilda;
}
// * * * * * * * * * * * * * * * * * * * * * * * * * * * * * * * * * * * * * //

dimensions      [0 2 -1 0 0 0 0];

internalField   nonuniform List<scalar> 
1340
(
0.10902
0.106733
0.104183
0.094677
0.072528
0.0741045
0.0775526
0.080788
0.0425412
0.0498624
0.0563102
0.0658579
0.0081819
0.0149763
0.0241809
0.0419898
0.000222233
0.0008032
0.00215361
0.0152835
5.75795e-05
0.000190398
0.000561837
0.00287545
2.29906e-05
7.47093e-06
0
0.000688379
4.0559e-05
3.12088e-05
8.37822e-06
0
4.04832e-05
4.12184e-05
3.44865e-05
5.122e-06
4.03336e-05
3.98138e-05
4.46257e-05
1.97678e-05
4.02685e-05
3.96729e-05
4.22807e-05
3.57717e-05
4.01721e-05
4.00488e-05
4.04228e-05
4.02115e-05
4.01365e-05
4.01693e-05
4.00607e-05
4.04679e-05
4.01333e-05
4.01618e-05
4.01042e-05
4.02524e-05
4.01338e-05
4.01459e-05
4.01444e-05
4.01667e-05
4.01313e-05
4.01386e-05
4.01503e-05
4.01535e-05
4.01274e-05
4.01344e-05
4.01455e-05
4.01525e-05
4.01234e-05
4.01305e-05
4.01401e-05
4.01498e-05
4.01197e-05
4.01267e-05
4.01355e-05
4.01459e-05
4.01162e-05
4.0123e-05
4.01315e-05
4.01418e-05
4.01126e-05
4.01193e-05
4.01274e-05
4.01376e-05
4.01088e-05
4.01152e-05
4.01231e-05
4.01332e-05
4.0105e-05
4.01111e-05
4.01187e-05
4.01285e-05
4.01013e-05
4.01072e-05
4.01144e-05
4.01237e-05
4.00977e-05
4.01034e-05
4.01103e-05
4.01191e-05
4.00939e-05
4.00994e-05
4.0106e-05
4.01145e-05
4.00902e-05
4.00953e-05
4.01016e-05
4.01097e-05
4.00866e-05
4.00915e-05
4.00974e-05
4.0105e-05
4.00831e-05
4.00878e-05
4.00934e-05
4.01005e-05
4.00798e-05
4.00842e-05
4.00895e-05
4.00962e-05
4.00764e-05
4.00805e-05
4.00856e-05
4.00919e-05
4.0073e-05
4.00769e-05
4.00817e-05
4.00876e-05
4.00697e-05
4.00734e-05
4.00779e-05
4.00834e-05
4.00664e-05
4.00699e-05
4.00742e-05
4.00794e-05
4.00632e-05
4.00665e-05
4.00706e-05
4.00753e-05
4.00601e-05
4.00631e-05
4.00669e-05
4.00714e-05
4.0057e-05
4.00598e-05
4.00634e-05
4.00675e-05
4.00539e-05
4.00566e-05
4.006e-05
4.00638e-05
4.00488e-05
4.0051e-05
4.00535e-05
4.00566e-05
4.00601e-05
4.0046e-05
4.0048e-05
4.00504e-05
4.00534e-05
4.00566e-05
4.00433e-05
4.00452e-05
4.00474e-05
4.00502e-05
4.00532e-05
4.00406e-05
4.00424e-05
4.00444e-05
4.00471e-05
4.00498e-05
4.0038e-05
4.00397e-05
4.00416e-05
4.0044e-05
4.00466e-05
4.00354e-05
4.0037e-05
4.00387e-05
4.00411e-05
4.00434e-05
4.00329e-05
4.00343e-05
4.0036e-05
4.00382e-05
4.00403e-05
4.00304e-05
4.00318e-05
4.00333e-05
4.00353e-05
4.00373e-05
4.0028e-05
4.00293e-05
4.00307e-05
4.00326e-05
4.00344e-05
4.00256e-05
4.00268e-05
4.00281e-05
4.00299e-05
4.00315e-05
4.00232e-05
4.00243e-05
4.00255e-05
4.00272e-05
4.00287e-05
4.00209e-05
4.00219e-05
4.0023e-05
4.00245e-05
4.00259e-05
4.00186e-05
4.00196e-05
4.00206e-05
4.0022e-05
4.00233e-05
4.00165e-05
4.00174e-05
4.00183e-05
4.00197e-05
4.00208e-05
4.00141e-05
4.00147e-05
4.00155e-05
4.00164e-05
4.00176e-05
4.00186e-05
4.00128e-05
4.00134e-05
4.00141e-05
4.00149e-05
4.0016e-05
4.00169e-05
4.00121e-05
4.00127e-05
4.00133e-05
4.00141e-05
4.00151e-05
4.00159e-05
4.00121e-05
4.00127e-05
4.00133e-05
4.0014e-05
4.00149e-05
4.00156e-05
4.00127e-05
4.00133e-05
4.00139e-05
4.00145e-05
4.00155e-05
4.0016e-05
4.00137e-05
4.00142e-05
4.00149e-05
4.00155e-05
4.00164e-05
4.0017e-05
4.00148e-05
4.00153e-05
4.0016e-05
4.00166e-05
4.00175e-05
4.0018e-05
4.0016e-05
4.00166e-05
4.00172e-05
4.00178e-05
4.00186e-05
4.00192e-05
4.00175e-05
4.00181e-05
4.00187e-05
4.00193e-05
4.00201e-05
4.00206e-05
4.00192e-05
4.00197e-05
4.00203e-05
4.00209e-05
4.00215e-05
4.00223e-05
4.00227e-05
4.00224e-05
4.00229e-05
4.00235e-05
4.00241e-05
4.00247e-05
4.00255e-05
4.00259e-05
4.00266e-05
4.00272e-05
4.00278e-05
4.00284e-05
4.0029e-05
4.00298e-05
4.00302e-05
4.00316e-05
4.00323e-05
4.00329e-05
4.00336e-05
4.00342e-05
4.00351e-05
4.00354e-05
4.0037e-05
4.00377e-05
4.00384e-05
4.00391e-05
4.00398e-05
4.00407e-05
4.00411e-05
4.00426e-05
4.00434e-05
4.00441e-05
4.00448e-05
4.00455e-05
4.00464e-05
4.00469e-05
4.00473e-05
4.00482e-05
4.0049e-05
4.00499e-05
4.00507e-05
4.00518e-05
4.00524e-05
4.00502e-05
4.0051e-05
4.00519e-05
4.00529e-05
4.00538e-05
4.0055e-05
4.0056e-05
4.00519e-05
4.00527e-05
4.00535e-05
4.00544e-05
4.00554e-05
4.00565e-05
4.00575e-05
4.00531e-05
4.00539e-05
4.00547e-05
4.00556e-05
4.00565e-05
4.00576e-05
4.00586e-05
4.00536e-05
4.00543e-05
4.00551e-05
4.0056e-05
4.00568e-05
4.00577e-05
4.00589e-05
4.00598e-05
4.00561e-05
4.00571e-05
4.0058e-05
4.0059e-05
4.006e-05
4.00611e-05
4.00623e-05
4.00633e-05
4.00618e-05
4.00631e-05
4.00644e-05
4.00657e-05
4.00671e-05
4.00685e-05
4.00701e-05
4.00714e-05
4.00707e-05
4.00723e-05
4.00739e-05
4.00756e-05
4.00773e-05
4.00791e-05
4.00812e-05
4.0083e-05
4.00773e-05
4.00788e-05
4.00803e-05
4.00818e-05
4.00834e-05
4.00851e-05
4.0087e-05
4.00889e-05
4.00726e-05
4.00733e-05
4.0074e-05
4.00746e-05
4.00753e-05
4.00761e-05
4.00769e-05
4.00779e-05
4.00603e-05
4.00614e-05
4.00625e-05
4.00637e-05
4.0065e-05
4.00663e-05
4.00681e-05
4.00696e-05
4.00712e-05
4.00753e-05
4.00794e-05
4.00836e-05
4.00879e-05
4.00924e-05
4.00974e-05
4.0102e-05
4.00628e-05
4.00642e-05
4.00653e-05
4.00663e-05
4.0067e-05
4.00676e-05
4.00682e-05
4.00687e-05
0.118185
0.082888
0.0565261
0.0315042
0.00974201
0.0010165
0.00024057
0
5.82147e-06
2.5313e-05
3.82089e-05
4.0558e-05
4.04398e-05
4.02232e-05
4.01615e-05
4.01544e-05
4.01526e-05
4.01483e-05
4.01435e-05
4.01394e-05
4.01363e-05
4.01327e-05
4.01287e-05
4.01245e-05
4.01204e-05
4.01161e-05
4.01116e-05
4.01071e-05
4.01027e-05
4.00985e-05
4.00943e-05
4.00901e-05
4.00859e-05
4.00818e-05
4.00777e-05
4.00737e-05
4.00697e-05
4.00659e-05
4.00622e-05
4.00586e-05
4.00551e-05
4.00517e-05
4.00484e-05
4.00451e-05
4.00419e-05
4.00388e-05
4.00358e-05
4.00329e-05
4.003e-05
4.00271e-05
4.00244e-05
4.00219e-05
4.00196e-05
4.00179e-05
4.00168e-05
4.00165e-05
4.00169e-05
4.00178e-05
4.00188e-05
4.00199e-05
4.00213e-05
4.00234e-05
4.00266e-05
4.0031e-05
4.00362e-05
4.00419e-05
4.00477e-05
4.00533e-05
4.00568e-05
4.00582e-05
4.00593e-05
4.00605e-05
4.00642e-05
4.00726e-05
4.00844e-05
4.00897e-05
4.00781e-05
4.00711e-05
4.01048e-05
4.00694e-05
0.132018
0.0817533
0.0441811
0.0187642
0.0039548
0.000961611
0
2.05647e-06
9.17056e-06
3.39015e-05
4.00639e-05
4.06108e-05
4.03301e-05
4.01839e-05
4.0154e-05
4.01505e-05
4.01479e-05
4.01442e-05
4.01404e-05
4.01374e-05
4.01351e-05
4.01321e-05
4.01286e-05
4.01249e-05
4.01211e-05
4.0117e-05
4.01128e-05
4.01085e-05
4.01043e-05
4.01002e-05
4.00961e-05
4.00918e-05
4.00876e-05
4.00835e-05
4.00794e-05
4.00754e-05
4.00714e-05
4.00675e-05
4.00638e-05
4.00601e-05
4.00566e-05
4.00531e-05
4.00497e-05
4.00464e-05
4.00431e-05
4.004e-05
4.00369e-05
4.00339e-05
4.00309e-05
4.0028e-05
4.00252e-05
4.00226e-05
4.00204e-05
4.00186e-05
4.00175e-05
4.00172e-05
4.00176e-05
4.00184e-05
4.00194e-05
4.00205e-05
4.00219e-05
4.00241e-05
4.00273e-05
4.00317e-05
4.0037e-05
4.00426e-05
4.00484e-05
4.0054e-05
4.00574e-05
4.00587e-05
4.00597e-05
4.00609e-05
4.00648e-05
4.00735e-05
4.00855e-05
4.00901e-05
4.00782e-05
4.00725e-05
4.01065e-05
4.00698e-05
0.107918
0.0623033
0.0278849
0.00787262
0.000558979
0.000133757
0
5.48476e-06
2.32408e-05
3.95085e-05
4.06493e-05
4.04691e-05
4.02253e-05
4.01563e-05
4.01478e-05
4.01466e-05
4.01441e-05
4.01413e-05
4.01386e-05
4.01367e-05
4.01348e-05
4.01322e-05
4.01292e-05
4.01258e-05
4.01222e-05
4.01183e-05
4.01142e-05
4.01101e-05
4.01061e-05
4.0102e-05
4.00978e-05
4.00936e-05
4.00894e-05
4.00853e-05
4.00811e-05
4.0077e-05
4.0073e-05
4.00691e-05
4.00653e-05
4.00616e-05
4.0058e-05
4.00544e-05
4.0051e-05
4.00476e-05
4.00443e-05
4.00411e-05
4.00379e-05
4.00348e-05
4.00318e-05
4.00288e-05
4.0026e-05
4.00234e-05
4.00211e-05
4.00193e-05
4.00182e-05
4.00179e-05
4.00182e-05
4.00191e-05
4.002e-05
4.00211e-05
4.00225e-05
4.00247e-05
4.0028e-05
4.00325e-05
4.00378e-05
4.00434e-05
4.00492e-05
4.00547e-05
4.0058e-05
4.00592e-05
4.00601e-05
4.00614e-05
4.00655e-05
4.00746e-05
4.00865e-05
4.00904e-05
4.00782e-05
4.00742e-05
4.01083e-05
4.00702e-05
0.0653438
0.0210359
0.00659936
0.00115641
0.000287372
0
3.28693e-06
1.38766e-05
3.56258e-05
4.14017e-05
4.05214e-05
4.03118e-05
4.0161e-05
4.0145e-05
4.01447e-05
4.01441e-05
4.01421e-05
4.01402e-05
4.01386e-05
4.01373e-05
4.01357e-05
4.01333e-05
4.01305e-05
4.01273e-05
4.01238e-05
4.012e-05
4.0116e-05
4.0112e-05
4.0108e-05
4.01039e-05
4.00997e-05
4.00955e-05
4.00913e-05
4.00871e-05
4.00829e-05
4.00787e-05
4.00747e-05
4.00707e-05
4.00668e-05
4.00631e-05
4.00594e-05
4.00558e-05
4.00523e-05
4.00488e-05
4.00455e-05
4.00422e-05
4.0039e-05
4.00358e-05
4.00327e-05
4.00296e-05
4.00268e-05
4.00241e-05
4.00218e-05
4.002e-05
4.00189e-05
4.00186e-05
4.00189e-05
4.00197e-05
4.00207e-05
4.00217e-05
4.00231e-05
4.00254e-05
4.00288e-05
4.00333e-05
4.00386e-05
4.00442e-05
4.00501e-05
4.00555e-05
4.00586e-05
4.00597e-05
4.00605e-05
4.00619e-05
4.00663e-05
4.00757e-05
4.00877e-05
4.00908e-05
4.00783e-05
4.00761e-05
4.01101e-05
4.00706e-05
0.168782
0.0661499
0.00117853
0.000449349
3.05869e-06
1.93211e-06
8.46463e-06
2.99227e-05
4.12645e-05
4.11837e-05
4.02786e-05
4.0211e-05
4.01337e-05
4.01426e-05
4.0143e-05
4.01426e-05
4.01413e-05
4.01404e-05
4.01395e-05
4.01386e-05
4.01372e-05
4.0135e-05
4.01323e-05
4.01292e-05
4.01257e-05
4.0122e-05
4.0118e-05
4.01141e-05
4.01101e-05
4.0106e-05
4.01018e-05
4.00975e-05
4.00932e-05
4.0089e-05
4.00847e-05
4.00805e-05
4.00764e-05
4.00724e-05
4.00685e-05
4.00646e-05
4.00609e-05
4.00572e-05
4.00536e-05
4.00501e-05
4.00467e-05
4.00433e-05
4.00401e-05
4.00368e-05
4.00336e-05
4.00305e-05
4.00276e-05
4.00249e-05
4.00225e-05
4.00207e-05
4.00196e-05
4.00193e-05
4.00197e-05
4.00204e-05
4.00213e-05
4.00223e-05
4.00238e-05
4.00261e-05
4.00296e-05
4.00342e-05
4.00395e-05
4.00451e-05
4.00509e-05
4.00564e-05
4.00593e-05
4.00602e-05
4.0061e-05
4.00624e-05
4.00671e-05
4.00769e-05
4.00889e-05
4.00911e-05
4.00785e-05
4.00781e-05
4.01121e-05
4.00708e-05
0.370665
0.234131
0.0967776
0.0107844
0.000213081
5.63877e-05
2.15105e-05
4.15115e-05
4.19201e-05
4.05196e-05
4.01541e-05
4.01609e-05
4.01284e-05
4.01428e-05
4.0142e-05
4.01421e-05
4.01417e-05
4.01414e-05
4.01411e-05
4.01404e-05
4.01391e-05
4.0137e-05
4.01344e-05
4.01313e-05
4.01278e-05
4.01241e-05
4.01203e-05
4.01164e-05
4.01124e-05
4.01082e-05
4.01039e-05
4.00996e-05
4.00953e-05
4.00909e-05
4.00866e-05
4.00823e-05
4.00782e-05
4.00741e-05
4.00701e-05
4.00663e-05
4.00625e-05
4.00587e-05
4.00551e-05
4.00515e-05
4.0048e-05
4.00445e-05
4.00412e-05
4.00378e-05
4.00346e-05
4.00314e-05
4.00284e-05
4.00257e-05
4.00233e-05
4.00215e-05
4.00204e-05
4.00201e-05
4.00204e-05
4.00211e-05
4.0022e-05
4.0023e-05
4.00245e-05
4.00269e-05
4.00305e-05
4.00351e-05
4.00404e-05
4.0046e-05
4.00519e-05
4.00573e-05
4.006e-05
4.00608e-05
4.00615e-05
4.0063e-05
4.00681e-05
4.00782e-05
4.00901e-05
4.00915e-05
4.00787e-05
4.00803e-05
0.464053
0.333625
0.186944
0.0524048
0.0127327
0
1.09894e-05
4.56083e-05
4.09419e-05
4.0135e-05
4.01381e-05
4.01374e-05
4.01327e-05
4.01431e-05
4.01419e-05
4.01427e-05
4.0143e-05
4.01433e-05
4.01433e-05
4.01427e-05
4.01413e-05
4.01392e-05
4.01366e-05
4.01336e-05
4.01302e-05
4.01265e-05
4.01227e-05
4.01188e-05
4.01147e-05
4.01105e-05
4.01062e-05
4.01018e-05
4.00974e-05
4.0093e-05
4.00886e-05
4.00843e-05
4.008e-05
4.00759e-05
4.00719e-05
4.0068e-05
4.00641e-05
4.00603e-05
4.00565e-05
4.00529e-05
4.00493e-05
4.00458e-05
4.00424e-05
4.00389e-05
4.00356e-05
4.00324e-05
4.00293e-05
4.00266e-05
4.00242e-05
4.00223e-05
4.00213e-05
4.0021e-05
4.00213e-05
4.00219e-05
4.00227e-05
4.00238e-05
4.00253e-05
4.00278e-05
4.00314e-05
4.00361e-05
4.00415e-05
4.00471e-05
4.0053e-05
4.00582e-05
4.00607e-05
4.00614e-05
4.00621e-05
4.00638e-05
4.00691e-05
4.00797e-05
4.00914e-05
4.0092e-05
0.426538
0.312904
0.183618
0.057995
0.0141254
3.56835e-06
1.55015e-05
4.20771e-05
3.97906e-05
4.01379e-05
4.01405e-05
4.01307e-05
4.01391e-05
4.01437e-05
4.01433e-05
4.01448e-05
4.01455e-05
4.01461e-05
4.01461e-05
4.01454e-05
4.0144e-05
4.01419e-05
4.01393e-05
4.01362e-05
4.01327e-05
4.01291e-05
4.01253e-05
4.01214e-05
4.01173e-05
4.0113e-05
4.01086e-05
4.01042e-05
4.00997e-05
4.00952e-05
4.00907e-05
4.00863e-05
4.0082e-05
4.00778e-05
4.00738e-05
4.00697e-05
4.00658e-05
4.00619e-05
4.00581e-05
4.00544e-05
4.00507e-05
4.00471e-05
4.00436e-05
4.00401e-05
4.00367e-05
4.00334e-05
4.00303e-05
4.00275e-05
4.00251e-05
4.00232e-05
4.00222e-05
4.00219e-05
4.00221e-05
4.00228e-05
4.00235e-05
4.00246e-05
4.00261e-05
4.00287e-05
4.00324e-05
4.00372e-05
4.00426e-05
4.00482e-05
4.00541e-05
4.00593e-05
4.00616e-05
4.00621e-05
4.00627e-05
4.00646e-05
4.00703e-05
4.00813e-05
0.3162
0.217966
0.112659
0.0275906
0.00012798
3.82155e-05
3.05717e-05
4.4979e-05
3.90661e-05
4.03357e-05
4.01117e-05
4.01402e-05
4.01447e-05
4.01464e-05
4.01471e-05
4.01487e-05
4.01496e-05
4.015e-05
4.01498e-05
4.01489e-05
4.01473e-05
4.01451e-05
4.01423e-05
4.01392e-05
4.01357e-05
4.01321e-05
4.01283e-05
4.01242e-05
4.012e-05
4.01156e-05
4.01112e-05
4.01067e-05
4.01021e-05
4.00975e-05
4.00929e-05
4.00885e-05
4.00842e-05
4.00799e-05
4.00758e-05
4.00717e-05
4.00676e-05
4.00636e-05
4.00598e-05
4.00559e-05
4.00522e-05
4.00486e-05
4.00449e-05
4.00413e-05
4.00378e-05
4.00345e-05
4.00313e-05
4.00285e-05
4.0026e-05
4.00242e-05
4.00232e-05
4.00228e-05
4.00231e-05
4.00236e-05
4.00244e-05
4.00254e-05
4.00271e-05
4.00297e-05
4.00336e-05
4.00384e-05
4.00438e-05
4.00494e-05
4.00553e-05
4.00603e-05
4.00625e-05
4.00629e-05
4.00634e-05
0.180662
0.102959
0.0370075
0.00373649
0.000217244
5.91144e-05
2.63234e-05
4.57395e-05
3.89773e-05
4.04634e-05
4.00842e-05
4.01588e-05
4.01511e-05
4.01529e-05
4.01539e-05
4.0155e-05
4.01555e-05
4.01555e-05
4.01549e-05
4.01536e-05
4.01516e-05
4.01491e-05
4.01461e-05
4.01429e-05
4.01393e-05
4.01356e-05
4.01316e-05
4.01274e-05
4.01231e-05
4.01186e-05
4.0114e-05
4.01094e-05
4.01047e-05
4.01e-05
4.00954e-05
4.00909e-05
4.00864e-05
4.00821e-05
4.00779e-05
4.00737e-05
4.00696e-05
4.00655e-05
4.00615e-05
4.00576e-05
4.00538e-05
4.00501e-05
4.00463e-05
4.00426e-05
4.00391e-05
4.00357e-05
4.00324e-05
4.00295e-05
4.00271e-05
4.00253e-05
4.00242e-05
4.00239e-05
4.00241e-05
4.00246e-05
4.00253e-05
4.00264e-05
4.00281e-05
4.00309e-05
4.00348e-05
4.00397e-05
4.00451e-05
4.00507e-05
0.0642768
0.0239481
0.0032487
0.000839118
2.48044e-06
9.10686e-06
3.86938e-05
4.20748e-05
3.96089e-05
4.03801e-05
4.01018e-05
4.01761e-05
4.01617e-05
4.01638e-05
4.0164e-05
4.01641e-05
4.01637e-05
4.01629e-05
4.01615e-05
4.01596e-05
4.01571e-05
4.01541e-05
4.01509e-05
4.01473e-05
4.01436e-05
4.01396e-05
4.01355e-05
4.01311e-05
4.01266e-05
4.01219e-05
4.01172e-05
4.01124e-05
4.01076e-05
4.01028e-05
4.0098e-05
4.00934e-05
4.00889e-05
4.00845e-05
4.00802e-05
4.00759e-05
4.00716e-05
4.00675e-05
4.00634e-05
4.00594e-05
4.00555e-05
4.00516e-05
4.00478e-05
4.0044e-05
4.00404e-05
4.00369e-05
4.00336e-05
4.00307e-05
4.00282e-05
4.00264e-05
4.00254e-05
4.0025e-05
4.00252e-05
4.00256e-05
4.00263e-05
4.00274e-05
4.00292e-05
0.00869458
0.000111194
5.93895e-05
0
2.72346e-06
1.1691e-05
4.62717e-05
3.96353e-05
4.0257e-05
4.02362e-05
4.01534e-05
4.01904e-05
4.01779e-05
4.01787e-05
4.01774e-05
4.01761e-05
4.01744e-05
4.01724e-05
4.017e-05
4.01672e-05
4.0164e-05
4.01605e-05
4.01567e-05
4.01528e-05
4.01487e-05
4.01444e-05
4.01399e-05
4.01353e-05
4.01305e-05
4.01256e-05
4.01207e-05
4.01157e-05
4.01107e-05
4.01058e-05
4.0101e-05
4.00963e-05
4.00917e-05
4.00871e-05
4.00826e-05
4.00782e-05
4.00739e-05
4.00696e-05
4.00655e-05
4.00614e-05
4.00573e-05
4.00533e-05
4.00494e-05
4.00455e-05
4.00418e-05
4.00382e-05
4.00349e-05
4.00319e-05
4.00294e-05
4.00276e-05
0.000182513
9.90774e-07
0
0
9.09163e-06
3.76077e-05
4.28217e-05
3.95968e-05
4.04094e-05
4.01836e-05
4.02028e-05
4.02064e-05
4.01982e-05
4.01965e-05
4.01934e-05
4.01904e-05
4.01872e-05
4.01839e-05
4.01802e-05
4.01764e-05
4.01723e-05
4.01681e-05
4.01638e-05
4.01593e-05
4.01547e-05
4.015e-05
4.01451e-05
4.01401e-05
4.0135e-05
4.01298e-05
4.01246e-05
4.01194e-05
4.01143e-05
4.01092e-05
4.01042e-05
4.00994e-05
4.00946e-05
4.009e-05
4.00853e-05
4.00808e-05
4.00763e-05
4.0072e-05
)
;

boundaryField
{
    inlet
    {
        type            freestream;
        freestreamValue uniform 4e-05;
        value           uniform 4e-05;
    }
    outlet
    {
        type            freestream;
        freestreamValue nonuniform List<scalar> 0();
        value           nonuniform List<scalar> 0();
    }
    walls
    {
        type            fixedValue;
        value           uniform 0;
    }
    frontAndBack
    {
        type            empty;
    }
    procBoundary2to1
    {
        type            processor;
        value           nonuniform List<scalar> 
84
(
0.110553
0.0707086
0.034011
0.00373578
0.000273184
7.63799e-06
3.22239e-05
4.06818e-05
4.02196e-05
4.00985e-05
4.01096e-05
4.01263e-05
4.01334e-05
4.01316e-05
4.01283e-05
4.01246e-05
4.01208e-05
4.01171e-05
4.01136e-05
4.01103e-05
4.01069e-05
4.01033e-05
4.00997e-05
4.00963e-05
4.00929e-05
4.00894e-05
4.00858e-05
4.00824e-05
4.00792e-05
4.0076e-05
4.00728e-05
4.00696e-05
4.00665e-05
4.00635e-05
4.00604e-05
4.00574e-05
4.00545e-05
4.00516e-05
4.00516e-05
4.00469e-05
4.00442e-05
4.00416e-05
4.00391e-05
4.00365e-05
4.00341e-05
4.00316e-05
4.00292e-05
4.00269e-05
4.00246e-05
4.00223e-05
4.002e-05
4.00178e-05
4.00158e-05
4.00158e-05
4.00135e-05
4.00122e-05
4.00115e-05
4.00115e-05
4.00121e-05
4.00131e-05
4.00142e-05
4.00155e-05
4.0017e-05
4.0017e-05
4.00186e-05
4.00218e-05
4.00259e-05
4.00309e-05
4.00363e-05
4.00418e-05
4.00465e-05
4.00493e-05
4.0051e-05
4.00524e-05
4.00524e-05
4.00528e-05
4.00552e-05
4.00605e-05
4.0069e-05
4.00757e-05
4.00718e-05
4.00593e-05
4.00671e-05
4.00613e-05
)
;
    }
    procBoundary2to3
    {
        type            processor;
        value           nonuniform List<scalar> 
88
(
4.01141e-05
4.00709e-05
4.0079e-05
4.01141e-05
4.00828e-05
4.00928e-05
4.0079e-05
4.00924e-05
4.00655e-05
4.00717e-05
4.00928e-05
4.00831e-05
4.00566e-05
4.00615e-05
4.00634e-05
4.00637e-05
4.00655e-05
4.00642e-05
4.00321e-05
4.00362e-05
4.00411e-05
4.00465e-05
4.00566e-05
4.00522e-05
4.00266e-05
4.00262e-05
4.00263e-05
4.00267e-05
4.00274e-05
4.00285e-05
4.00321e-05
4.00304e-05
4.00677e-05
4.00634e-05
4.00593e-05
4.00551e-05
4.00511e-05
4.00471e-05
4.00432e-05
4.00396e-05
4.00362e-05
4.00332e-05
4.00307e-05
4.00266e-05
4.00289e-05
0
0
1.18637e-08
7.69651e-06
3.16024e-05
4.28855e-05
4.03171e-05
4.01469e-05
4.03243e-05
4.02116e-05
4.02355e-05
4.0226e-05
4.02197e-05
4.02153e-05
4.02103e-05
4.02056e-05
4.02009e-05
4.01961e-05
4.01913e-05
4.01864e-05
4.01815e-05
4.01765e-05
4.01715e-05
4.01665e-05
4.01613e-05
4.0156e-05
4.01507e-05
4.01453e-05
4.01398e-05
4.01343e-05
4.01289e-05
4.01234e-05
4.01181e-05
4.01129e-05
4.01077e-05
4.01027e-05
4.00978e-05
4.0093e-05
4.00882e-05
4.00835e-05
4.00789e-05
4.00677e-05
4.00743e-05
)
;
    }
    procBoundary2to6
    {
        type            processor;
        value           nonuniform List<scalar> 
13
(
0.148464
0.182505
0.156975
0.124667
0.2658
0.484662
0.57384
0.52687
0.407413
0.260857
0.119619
0.0281258
0.000448704
)
;
    }
}


// ************************************************************************* //
