/*--------------------------------*- C++ -*----------------------------------*\
| =========                 |                                                 |
| \\      /  F ield         | OpenFOAM: The Open Source CFD Toolbox           |
|  \\    /   O peration     | Version:  2306                                  |
|   \\  /    A nd           | Website:  www.openfoam.com                      |
|    \\/     M anipulation  |                                                 |
\*---------------------------------------------------------------------------*/
FoamFile
{
    version     2.0;
    format      ascii;
    arch        "LSB;label=32;scalar=64";
    class       volScalarField;
    location    "125";
    object      turbulenceProperties:epsilon;
}
// * * * * * * * * * * * * * * * * * * * * * * * * * * * * * * * * * * * * * //

dimensions      [0 2 -3 0 0 0 0];

internalField   nonuniform List<scalar> 
1340
(
1045.13
972.401
890.548
658.037
1.53522
1.78953
2.43993
4.44999
0.142334
0.220293
0.266457
0.654669
0.00150029
0.00734445
0.0251306
0.172071
2.59635e-05
6.09063e-05
0.000331926
0.0189332
1.17772e-06
7.86036e-06
6.83093e-05
0.00147757
1.01012e-07
6.70585e-10
0
0.000279898
3.84234e-07
1.30984e-07
8.91255e-10
0
5.69361e-07
6.30371e-07
5.06779e-07
2.9142e-10
3.89657e-07
3.71447e-07
9.65724e-07
9.94653e-08
4.11543e-07
3.93133e-07
7.53723e-07
9.91718e-07
3.52167e-07
3.45906e-07
5.39433e-07
1.273e-06
3.3123e-07
3.27041e-07
4.5678e-07
1.07831e-06
2.97092e-07
2.89445e-07
3.908e-07
8.67343e-07
2.69607e-07
2.59084e-07
3.3522e-07
7.01199e-07
2.40405e-07
2.2782e-07
2.83557e-07
5.66368e-07
2.13094e-07
1.99062e-07
2.38259e-07
4.54669e-07
1.86853e-07
1.71853e-07
1.98489e-07
3.62218e-07
1.62341e-07
1.46774e-07
1.63856e-07
2.86122e-07
1.39535e-07
1.23814e-07
1.33954e-07
2.24275e-07
1.1853e-07
1.03023e-07
1.08237e-07
1.7425e-07
9.93635e-08
8.44301e-08
8.63516e-08
1.34206e-07
8.21557e-08
6.80334e-08
6.7895e-08
1.02473e-07
6.6961e-08
5.38412e-08
5.24776e-08
7.74652e-08
5.37208e-08
4.17297e-08
3.97739e-08
5.79607e-08
4.23381e-08
3.15678e-08
2.94593e-08
4.28764e-08
3.27499e-08
2.32197e-08
2.1231e-08
3.13566e-08
2.48414e-08
1.65245e-08
1.47985e-08
2.26524e-08
1.84682e-08
1.13002e-08
9.89449e-09
1.61614e-08
1.34498e-08
7.3514e-09
6.27556e-09
1.14071e-08
9.61282e-09
4.48132e-09
3.71618e-09
8.00533e-09
6.78891e-09
2.51216e-09
2.00909e-09
5.64186e-09
4.81155e-09
1.27063e-09
9.70177e-10
4.06057e-09
3.51324e-09
5.95964e-10
4.40578e-10
3.05981e-09
2.74351e-09
3.45687e-10
2.8276e-10
2.4818e-09
2.36892e-09
3.9661e-10
3.82091e-10
2.20182e-09
2.27497e-09
6.45729e-10
6.43833e-10
2.12036e-09
2.36092e-09
1.00758e-09
9.93965e-10
2.16253e-09
4.63503e-09
2.54906e-09
1.41468e-09
1.37519e-09
2.27261e-09
4.49554e-09
2.77534e-09
1.8176e-09
1.74545e-09
2.40873e-09
4.41342e-09
2.99504e-09
2.1813e-09
2.07658e-09
2.54285e-09
4.34784e-09
3.17942e-09
2.48353e-09
2.35017e-09
2.65483e-09
4.27142e-09
3.30993e-09
2.71246e-09
2.55729e-09
2.73331e-09
4.16823e-09
3.37841e-09
2.86449e-09
2.69516e-09
2.77189e-09
4.0316e-09
3.38409e-09
2.94206e-09
2.76622e-09
2.76946e-09
3.86035e-09
3.33109e-09
2.95194e-09
2.77649e-09
2.72768e-09
3.65754e-09
3.22643e-09
2.90253e-09
2.7334e-09
2.65049e-09
3.4298e-09
3.0802e-09
2.8051e-09
2.64653e-09
2.54329e-09
3.18452e-09
2.90223e-09
2.67012e-09
2.52527e-09
2.41276e-09
2.9283e-09
2.70143e-09
2.50715e-09
2.37777e-09
2.26384e-09
2.6674e-09
2.48634e-09
2.32508e-09
2.21185e-09
2.10224e-09
2.40824e-09
2.26425e-09
2.13172e-09
2.03457e-09
1.93276e-09
2.27757e-09
2.15529e-09
2.04089e-09
1.93327e-09
1.85146e-09
1.75982e-09
2.00493e-09
1.91093e-09
1.82189e-09
1.73525e-09
1.66774e-09
1.58707e-09
1.7507e-09
1.67922e-09
1.61047e-09
1.54165e-09
1.48701e-09
1.41749e-09
1.51619e-09
1.46244e-09
1.41037e-09
1.35661e-09
1.31345e-09
1.25448e-09
1.30371e-09
1.26418e-09
1.22521e-09
1.18366e-09
1.1503e-09
1.10095e-09
1.11492e-09
1.08591e-09
1.057e-09
1.02539e-09
1.00028e-09
9.594e-10
9.48911e-10
9.28036e-10
9.06884e-10
8.83153e-10
8.64683e-10
8.31082e-10
8.04519e-10
7.8942e-10
7.7407e-10
7.56634e-10
7.43548e-10
7.15998e-10
6.78507e-10
6.67481e-10
6.56905e-10
6.44481e-10
6.35438e-10
6.13046e-10
5.75063e-10
5.67922e-10
5.60109e-10
5.53103e-10
5.44462e-10
5.38552e-10
5.20559e-10
4.75695e-10
4.70743e-10
4.65768e-10
4.6131e-10
4.55567e-10
4.52125e-10
4.37803e-10
3.88998e-10
3.85908e-10
3.82841e-10
3.80276e-10
3.76698e-10
3.75231e-10
3.64037e-10
3.14915e-10
3.13098e-10
3.11497e-10
3.10347e-10
3.08475e-10
3.08535e-10
2.99818e-10
2.52239e-10
2.51469e-10
2.50909e-10
2.50814e-10
2.50245e-10
2.51384e-10
2.44482e-10
2.00919e-10
2.00746e-10
2.00882e-10
2.01586e-10
2.02154e-10
2.04198e-10
1.99016e-10
1.59782e-10
1.59925e-10
1.60506e-10
1.61773e-10
1.6306e-10
1.65864e-10
1.62314e-10
1.31093e-10
1.31286e-10
1.31977e-10
1.33367e-10
1.34772e-10
1.37626e-10
1.34727e-10
1.10015e-10
1.10236e-10
1.1088e-10
1.1212e-10
1.13448e-10
1.15888e-10
1.13289e-10
9.0612e-11
9.07072e-11
9.1349e-11
9.25138e-11
9.3867e-11
9.61241e-11
9.40791e-11
7.31438e-11
7.28905e-11
7.29445e-11
7.35028e-11
7.45505e-11
7.58932e-11
7.80896e-11
7.69228e-11
5.70905e-11
5.66754e-11
5.65957e-11
5.68801e-11
5.76188e-11
5.86959e-11
6.03643e-11
5.91231e-11
3.94854e-11
3.91061e-11
3.91752e-11
3.96974e-11
4.07506e-11
4.23052e-11
4.47747e-11
4.61043e-11
2.18356e-11
2.08306e-11
2.02515e-11
2.0126e-11
2.05204e-11
2.13913e-11
2.28317e-11
2.28654e-11
1.37326e-11
1.45343e-11
1.58556e-11
1.76821e-11
2.01227e-11
2.3098e-11
2.76584e-11
3.41192e-11
8.33577e-12
8.26111e-12
8.23651e-12
8.30634e-12
8.7666e-12
1.07695e-11
1.79097e-11
2.72182e-11
1.31209e-10
1.41051e-10
1.49959e-10
1.58148e-10
1.67027e-10
1.79047e-10
2.10412e-10
2.37382e-10
3.92848e-10
3.91842e-10
3.90225e-10
3.8852e-10
3.87427e-10
3.90543e-10
4.09829e-10
3.73833e-10
1.58137e-09
1.57188e-09
1.55967e-09
1.5458e-09
1.52829e-09
1.51316e-09
1.48046e-09
1.26142e-09
33.756
3.95883
0.515981
0.0995244
0.0106374
0.00052442
8.72867e-05
0
5.20668e-10
3.0437e-07
1.32561e-06
1.37863e-06
1.13191e-06
9.15548e-07
7.45842e-07
6.06946e-07
4.90848e-07
3.94308e-07
3.14747e-07
2.49507e-07
1.96533e-07
1.53847e-07
1.19738e-07
9.26595e-08
7.13024e-08
5.46057e-08
4.16668e-08
3.17047e-08
2.40962e-08
1.83399e-08
1.40401e-08
1.08631e-08
8.54334e-09
6.87202e-09
5.68995e-09
4.86728e-09
4.30359e-09
3.92194e-09
3.66479e-09
3.48773e-09
3.35923e-09
3.25479e-09
3.15851e-09
3.05887e-09
2.9499e-09
2.82804e-09
2.69274e-09
2.54503e-09
2.38773e-09
2.22251e-09
2.05255e-09
1.88027e-09
1.70845e-09
1.53922e-09
1.37476e-09
1.21751e-09
1.06984e-09
9.33612e-10
8.09952e-10
6.98676e-10
5.98874e-10
5.09082e-10
4.28732e-10
3.57043e-10
2.94555e-10
2.4042e-10
1.96064e-10
1.60432e-10
1.33529e-10
1.12235e-10
9.3071e-11
7.62711e-11
5.83598e-11
4.72024e-11
2.31372e-11
4.03104e-11
2.3239e-11
2.33124e-10
2.78475e-10
1.00502e-09
9.77876
1.71123
0.150345
0.0111055
0.000574348
8.81222e-05
0
1.33443e-12
1.00877e-09
2.71509e-07
4.60445e-07
4.37689e-07
3.83097e-07
3.37027e-07
2.97546e-07
2.61472e-07
2.28051e-07
1.97172e-07
1.69149e-07
1.4391e-07
1.21494e-07
1.0177e-07
8.46168e-08
6.99024e-08
5.73949e-08
4.68827e-08
3.81534e-08
3.09699e-08
2.51097e-08
2.03784e-08
1.65983e-08
1.36003e-08
1.12403e-08
9.39372e-09
7.96129e-09
6.85195e-09
5.99454e-09
5.32973e-09
4.8107e-09
4.39976e-09
4.06792e-09
3.79087e-09
3.55158e-09
3.33613e-09
3.13562e-09
2.94332e-09
2.75532e-09
2.56982e-09
2.38624e-09
2.20401e-09
2.02396e-09
1.84678e-09
1.67368e-09
1.50568e-09
1.34407e-09
1.1906e-09
1.04703e-09
9.14894e-10
7.94872e-10
6.86701e-10
5.89523e-10
5.01967e-10
4.2346e-10
3.53312e-10
2.92122e-10
2.38871e-10
1.95169e-10
1.59941e-10
1.33325e-10
1.12139e-10
9.29015e-11
7.61396e-11
5.80874e-11
4.76698e-11
2.26354e-11
4.4695e-11
1.5314e-11
2.40586e-10
2.59014e-10
1.06083e-09
2.69161
0.454445
0.0287883
0.000822916
1.87068e-05
3.62126e-06
0
3.54274e-11
2.01426e-08
1.57045e-07
1.58856e-07
1.43289e-07
1.27588e-07
1.15264e-07
1.0443e-07
9.44298e-08
8.51731e-08
7.65939e-08
6.86301e-08
6.13881e-08
5.4735e-08
4.86545e-08
4.30874e-08
3.80539e-08
3.34969e-08
2.9377e-08
2.56803e-08
2.23877e-08
1.9464e-08
1.68957e-08
1.46569e-08
1.2721e-08
1.10604e-08
9.64779e-09
8.45567e-09
7.45379e-09
6.61525e-09
5.91376e-09
5.32628e-09
4.83169e-09
4.41231e-09
4.0514e-09
3.73598e-09
3.45477e-09
3.19954e-09
2.9636e-09
2.7422e-09
2.53253e-09
2.33245e-09
2.14024e-09
1.95537e-09
1.77746e-09
1.60667e-09
1.44313e-09
1.2874e-09
1.1406e-09
1.00394e-09
8.78423e-10
7.64476e-10
6.61715e-10
5.69151e-10
4.85631e-10
4.10657e-10
3.43538e-10
2.8496e-10
2.3377e-10
1.91654e-10
1.57745e-10
1.32179e-10
1.11659e-10
9.27844e-11
7.63901e-11
5.858e-11
4.86865e-11
2.3822e-11
4.7649e-11
1.27812e-11
2.38467e-10
2.44941e-10
1.05776e-09
0.62028
0.0399477
0.000825991
1.26852e-05
2.65444e-06
0
1.26566e-12
7.73862e-10
4.19175e-08
6.96158e-08
6.14553e-08
5.71939e-08
5.30265e-08
4.97045e-08
4.6429e-08
4.3218e-08
4.01461e-08
3.72126e-08
3.44117e-08
3.18036e-08
2.93294e-08
2.7027e-08
2.48619e-08
2.28338e-08
2.09367e-08
1.91649e-08
1.75035e-08
1.59563e-08
1.45125e-08
1.31754e-08
1.19385e-08
1.08015e-08
9.76178e-09
8.81775e-09
7.9649e-09
7.20028e-09
6.51678e-09
5.90892e-09
5.36989e-09
4.89226e-09
4.469e-09
4.09245e-09
3.75486e-09
3.45007e-09
3.17259e-09
2.91733e-09
2.68064e-09
2.45992e-09
2.25283e-09
2.05733e-09
1.87244e-09
1.69711e-09
1.53098e-09
1.37364e-09
1.22502e-09
1.08585e-09
9.56826e-10
8.38559e-10
7.31233e-10
6.34242e-10
5.4673e-10
4.67665e-10
3.96557e-10
3.32839e-10
2.77188e-10
2.28347e-10
1.88109e-10
1.5578e-10
1.31392e-10
1.1164e-10
9.32565e-11
7.73011e-11
5.9846e-11
5.03922e-11
2.60657e-11
5.03669e-11
1.28871e-11
2.33773e-10
2.31365e-10
1.03095e-09
0.914243
0.0876311
5.58454e-05
4.05416e-06
5.36754e-13
6.27548e-14
4.85134e-11
1.20545e-08
4.14427e-08
4.03806e-08
3.66998e-08
3.56416e-08
3.44583e-08
3.34459e-08
3.22525e-08
3.09611e-08
2.95886e-08
2.81352e-08
2.66389e-08
2.51099e-08
2.35624e-08
2.20319e-08
2.05341e-08
1.90683e-08
1.76557e-08
1.6319e-08
1.50439e-08
1.38461e-08
1.27238e-08
1.16792e-08
1.07074e-08
9.80761e-09
8.97691e-09
8.21206e-09
7.508e-09
6.86432e-09
6.27395e-09
5.73593e-09
5.24545e-09
4.79935e-09
4.39438e-09
4.02615e-09
3.69001e-09
3.3831e-09
3.10141e-09
2.84169e-09
2.60136e-09
2.37834e-09
2.17061e-09
1.97623e-09
1.79414e-09
1.62307e-09
1.46241e-09
1.3114e-09
1.16969e-09
1.03766e-09
9.15622e-10
8.03923e-10
7.02438e-10
6.1061e-10
5.27568e-10
4.52411e-10
3.84799e-10
3.24128e-10
2.71076e-10
2.24344e-10
1.85745e-10
1.54784e-10
1.31399e-10
1.12217e-10
9.41784e-11
7.85985e-11
6.14531e-11
5.24054e-11
2.85453e-11
5.33102e-11
1.3313e-11
2.33158e-10
2.23815e-10
1.02025e-09
1.37352
0.391846
0.0267039
5.263e-05
1.05272e-06
8.57124e-08
2.32548e-09
3.28595e-08
3.38877e-08
2.96878e-08
2.83698e-08
2.78884e-08
2.72385e-08
2.65858e-08
2.58008e-08
2.49582e-08
2.40398e-08
2.30564e-08
2.20391e-08
2.09775e-08
1.98942e-08
1.87962e-08
1.77043e-08
1.66168e-08
1.55493e-08
1.45133e-08
1.35039e-08
1.25381e-08
1.16149e-08
1.07385e-08
9.91068e-09
9.13311e-09
8.40671e-09
7.73081e-09
7.10253e-09
6.52281e-09
5.98626e-09
5.49324e-09
5.03907e-09
4.62196e-09
4.23941e-09
3.88785e-09
3.56425e-09
3.26677e-09
2.99191e-09
2.73782e-09
2.5024e-09
2.284e-09
2.08099e-09
1.89169e-09
1.71519e-09
1.55018e-09
1.39606e-09
1.25189e-09
1.11726e-09
9.92243e-10
8.76918e-10
7.71404e-10
6.75437e-10
5.88434e-10
5.09549e-10
4.38166e-10
3.73835e-10
3.16033e-10
2.6549e-10
2.20729e-10
1.83656e-10
1.53972e-10
1.31491e-10
1.12806e-10
9.51082e-11
7.98509e-11
6.30151e-11
5.43819e-11
3.10209e-11
5.6273e-11
1.34349e-11
2.34164e-10
1.05538
0.431974
0.0737554
0.00152025
2.9561e-05
0
7.69789e-11
3.04887e-08
2.09539e-08
1.95364e-08
1.95011e-08
1.93901e-08
1.91964e-08
1.89514e-08
1.86194e-08
1.8242e-08
1.77958e-08
1.72871e-08
1.67334e-08
1.61303e-08
1.54912e-08
1.48208e-08
1.41294e-08
1.34279e-08
1.27254e-08
1.20208e-08
1.13232e-08
1.06424e-08
9.97567e-09
9.32904e-09
8.70548e-09
8.10666e-09
7.53492e-09
6.99185e-09
6.47705e-09
5.99224e-09
5.53604e-09
5.10985e-09
4.7109e-09
4.33937e-09
3.99393e-09
3.67255e-09
3.37419e-09
3.09717e-09
2.8393e-09
2.5998e-09
2.37686e-09
2.16947e-09
1.97633e-09
1.79621e-09
1.62837e-09
1.4718e-09
1.32584e-09
1.18964e-09
1.06285e-09
9.453e-10
8.36971e-10
7.37816e-10
6.47497e-10
5.65379e-10
4.90861e-10
4.23286e-10
3.62332e-10
3.07517e-10
2.5952e-10
2.16773e-10
1.8125e-10
1.52922e-10
1.31408e-10
1.13245e-10
9.58957e-11
8.10282e-11
6.4575e-11
5.6395e-11
3.35868e-11
5.91007e-11
0.467989
0.185273
0.0351817
0.0010029
1.80647e-05
3.54379e-13
2.37662e-10
1.58354e-08
1.30361e-08
1.36373e-08
1.37214e-08
1.37418e-08
1.37178e-08
1.3638e-08
1.35031e-08
1.33273e-08
1.3101e-08
1.28296e-08
1.25201e-08
1.21728e-08
1.17956e-08
1.13938e-08
1.09713e-08
1.05348e-08
1.00899e-08
9.635e-09
9.17816e-09
8.72226e-09
8.26689e-09
7.81676e-09
7.37432e-09
6.94034e-09
6.51782e-09
6.10848e-09
5.71249e-09
5.33208e-09
4.96729e-09
4.61967e-09
4.28837e-09
3.9742e-09
3.67699e-09
3.39651e-09
3.13254e-09
2.88439e-09
2.65119e-09
2.43278e-09
2.22799e-09
2.03641e-09
1.8572e-09
1.68958e-09
1.53312e-09
1.38702e-09
1.25081e-09
1.12379e-09
1.00566e-09
8.9618e-10
7.95245e-10
7.02744e-10
6.18305e-10
5.41328e-10
4.7129e-10
4.07748e-10
3.50315e-10
2.98567e-10
2.53201e-10
2.12522e-10
1.78685e-10
1.51779e-10
1.31212e-10
1.13618e-10
9.67211e-11
8.22587e-11
6.62121e-11
5.84984e-11
0.109405
0.0303785
0.00344406
4.02201e-05
1.80295e-07
9.48147e-09
3.7903e-09
1.65694e-08
1.00259e-08
1.13286e-08
1.10944e-08
1.11036e-08
1.1054e-08
1.09757e-08
1.08678e-08
1.07304e-08
1.05592e-08
1.03574e-08
1.01269e-08
9.87003e-09
9.59181e-09
9.29566e-09
8.98637e-09
8.66325e-09
8.33369e-09
7.99876e-09
7.6606e-09
7.31982e-09
6.97862e-09
6.63894e-09
6.30232e-09
5.9694e-09
5.64306e-09
5.32275e-09
5.01008e-09
4.70673e-09
4.41244e-09
4.12857e-09
3.85488e-09
3.59177e-09
3.33968e-09
3.09916e-09
2.86991e-09
2.65213e-09
2.44563e-09
2.25048e-09
2.06612e-09
1.89252e-09
1.72928e-09
1.57597e-09
1.43242e-09
1.29805e-09
1.17261e-09
1.05556e-09
9.46627e-10
8.45594e-10
7.52299e-10
6.66712e-10
5.88229e-10
5.16546e-10
4.51195e-10
3.91756e-10
3.3793e-10
2.89368e-10
2.46657e-10
2.08152e-10
1.76008e-10
1.50515e-10
1.30975e-10
1.13958e-10
9.75375e-11
0.00747388
0.000743259
4.52267e-05
6.74158e-06
3.75122e-07
4.06662e-08
2.18508e-09
1.7856e-08
9.91678e-09
1.11486e-08
1.05565e-08
1.04268e-08
1.02194e-08
1.0022e-08
9.81867e-09
9.60921e-09
9.3864e-09
9.15069e-09
8.9032e-09
8.6453e-09
8.37826e-09
8.10325e-09
7.822e-09
7.53518e-09
7.24692e-09
6.9578e-09
6.66713e-09
6.37602e-09
6.08631e-09
5.79942e-09
5.51587e-09
5.23633e-09
4.96271e-09
4.694e-09
4.43229e-09
4.17789e-09
3.93057e-09
3.69114e-09
3.45911e-09
3.23472e-09
3.01852e-09
2.81059e-09
2.61125e-09
2.42063e-09
2.23863e-09
2.06556e-09
1.90112e-09
1.74543e-09
1.59837e-09
1.45975e-09
1.32952e-09
1.20731e-09
1.09305e-09
9.86281e-10
8.86846e-10
7.94317e-10
7.08837e-10
6.30011e-10
5.5759e-10
4.91219e-10
4.30602e-10
3.75286e-10
3.25166e-10
2.7977e-10
2.39799e-10
2.03501e-10
0.000182514
9.50927e-05
1.11666e-05
2.08834e-06
7.90254e-14
2.52634e-11
1.19398e-08
1.52618e-08
1.16911e-08
1.19729e-08
1.11781e-08
1.08037e-08
1.03764e-08
9.99604e-09
9.6336e-09
9.28804e-09
8.9537e-09
8.62686e-09
8.30815e-09
7.99629e-09
7.68997e-09
7.38836e-09
7.09154e-09
6.80027e-09
6.51474e-09
6.23433e-09
5.95768e-09
5.68564e-09
5.41877e-09
5.15784e-09
4.90282e-09
4.65354e-09
4.41107e-09
4.17538e-09
3.94691e-09
3.72563e-09
3.51126e-09
3.30397e-09
3.10286e-09
2.90818e-09
2.72038e-09
2.5395e-09
2.36555e-09
2.19827e-09
2.03799e-09
1.8849e-09
1.73878e-09
1.59995e-09
1.46836e-09
1.34397e-09
1.22679e-09
1.11668e-09
1.01356e-09
9.1709e-10
8.26863e-10
7.42904e-10
6.64964e-10
5.92889e-10
5.26404e-10
4.65379e-10
4.09492e-10
6.86609e-05
4.81106e-07
9.43283e-08
0
1.4424e-13
9.25902e-11
2.59065e-08
1.39155e-08
1.36836e-08
1.2747e-08
1.18621e-08
1.1204e-08
1.05702e-08
1.00133e-08
9.50244e-09
9.03365e-09
8.60006e-09
8.19452e-09
7.8147e-09
7.45615e-09
7.11592e-09
6.7917e-09
6.48228e-09
6.18612e-09
5.90123e-09
5.6267e-09
5.36029e-09
5.10246e-09
4.85265e-09
4.61085e-09
4.37687e-09
4.15059e-09
3.93219e-09
3.72134e-09
3.51841e-09
3.32299e-09
3.13446e-09
2.95252e-09
2.7766e-09
2.60669e-09
2.44294e-09
2.28502e-09
2.1323e-09
1.98608e-09
1.84523e-09
1.71013e-09
1.58087e-09
1.45767e-09
1.34068e-09
1.22986e-09
1.12524e-09
1.02695e-09
9.34807e-10
8.48606e-10
9.62753e-07
2.52173e-15
0
0
3.66036e-11
1.50031e-08
2.18597e-08
1.51094e-08
1.49422e-08
1.35005e-08
1.25203e-08
1.1636e-08
1.08364e-08
1.01291e-08
9.4895e-09
8.91095e-09
8.3843e-09
7.90315e-09
7.461e-09
7.05268e-09
6.67391e-09
6.32167e-09
5.99241e-09
5.68348e-09
5.39225e-09
5.11571e-09
4.85273e-09
4.60229e-09
4.36304e-09
4.13436e-09
3.91596e-09
3.70714e-09
3.50738e-09
3.31648e-09
3.13439e-09
2.95977e-09
2.79243e-09
2.63137e-09
2.47605e-09
2.32692e-09
2.18413e-09
2.04943e-09
)
;

boundaryField
{
    inlet
    {
        type            calculated;
        value           nonuniform List<scalar> 
13
(
1.63842e-08
1.67106e-08
1.69833e-08
1.72157e-08
1.74348e-08
1.76585e-08
1.79856e-08
1.79765e-08
1.74656e-08
1.71607e-08
1.6783e-08
1.64378e-08
1.61411e-08
)
;
    }
    outlet
    {
        type            calculated;
        value           nonuniform List<scalar> 0();
    }
    walls
    {
        type            calculated;
        value           uniform 0;
    }
    frontAndBack
    {
        type            empty;
    }
    procBoundary2to1
    {
        type            processor;
        value           nonuniform List<scalar> 
84
(
1097.39
1.31322
0.0802117
0.000166939
4.51551e-05
3.96055e-10
4.29556e-07
4.50932e-07
5.61102e-07
4.11759e-07
4.25642e-07
3.77769e-07
3.57591e-07
3.25895e-07
2.9887e-07
2.70322e-07
2.43029e-07
2.16531e-07
1.91371e-07
1.67576e-07
1.45258e-07
1.24512e-07
1.05536e-07
8.84587e-08
7.32597e-08
5.98864e-08
4.83365e-08
3.85522e-08
3.04109e-08
2.37569e-08
1.84299e-08
1.42753e-08
1.11259e-08
8.80815e-09
7.16221e-09
6.04275e-09
5.32084e-09
4.88415e-09
4.88415e-09
7.50833e-09
6.85e-09
6.33501e-09
5.91028e-09
5.53748e-09
5.19052e-09
4.85408e-09
4.51929e-09
4.18335e-09
3.84769e-09
3.51513e-09
3.18844e-09
2.87094e-09
2.56619e-09
2.56619e-09
2.40448e-09
2.10075e-09
1.82237e-09
1.56962e-09
1.34283e-09
1.14305e-09
9.69095e-10
8.18718e-10
6.88451e-10
6.88451e-10
5.81984e-10
4.80554e-10
3.92204e-10
3.16895e-10
2.53327e-10
2.01447e-10
1.60013e-10
1.3125e-10
1.10195e-10
9.07336e-11
9.07336e-11
7.37227e-11
5.77939e-11
4.02559e-11
2.32183e-11
1.34307e-11
8.52409e-12
1.20395e-10
3.92788e-10
1.58678e-09
)
;
    }
    procBoundary2to3
    {
        type            processor;
        value           nonuniform List<scalar> 
88
(
2.19045e-10
1.01675e-09
1.35969e-11
2.19045e-10
2.34828e-10
3.63083e-11
1.35969e-11
6.18319e-11
8.34615e-11
6.79284e-11
3.63083e-11
6.06641e-11
1.7315e-10
1.49168e-10
1.30575e-10
1.14191e-10
8.34615e-11
9.83244e-11
3.58486e-10
3.1203e-10
2.69833e-10
2.32663e-10
1.7315e-10
1.98717e-10
7.68182e-10
6.92273e-10
6.21559e-10
5.56002e-10
4.95182e-10
4.39598e-10
3.58486e-10
3.88521e-10
1.91904e-09
1.78832e-09
1.6643e-09
1.54484e-09
1.43065e-09
1.32169e-09
1.21827e-09
1.12002e-09
1.02726e-09
9.40122e-10
8.59108e-10
7.68182e-10
7.82867e-10
0
0
4.68462e-24
1.94182e-11
8.62681e-09
2.49127e-08
1.82694e-08
1.64564e-08
1.53149e-08
1.39137e-08
1.28258e-08
1.18129e-08
1.09081e-08
1.00988e-08
9.37119e-09
8.71391e-09
8.12093e-09
7.58336e-09
7.09557e-09
6.65035e-09
6.24364e-09
5.87023e-09
5.52727e-09
5.20992e-09
4.91489e-09
4.63927e-09
4.38189e-09
4.13988e-09
3.91217e-09
3.69738e-09
3.49497e-09
3.30329e-09
3.12161e-09
2.94957e-09
2.78645e-09
2.63131e-09
2.48363e-09
2.34106e-09
2.20103e-09
2.07012e-09
1.94909e-09
1.91904e-09
1.8264e-09
)
;
    }
    procBoundary2to6
    {
        type            processor;
        value           nonuniform List<scalar> 
13
(
48.956
23.3418
8.38293
2.90341
2.75302
2.5614
1.76618
0.891807
0.287692
0.0413248
0.000758346
0.000206291
3.06e-06
)
;
    }
}


// ************************************************************************* //
