/*--------------------------------*- C++ -*----------------------------------*\
| =========                 |                                                 |
| \\      /  F ield         | OpenFOAM: The Open Source CFD Toolbox           |
|  \\    /   O peration     | Version:  2306                                  |
|   \\  /    A nd           | Website:  www.openfoam.com                      |
|    \\/     M anipulation  |                                                 |
\*---------------------------------------------------------------------------*/
FoamFile
{
    version     2.0;
    format      ascii;
    arch        "LSB;label=32;scalar=64";
    class       volSymmTensorField;
    location    "125";
    object      turbulenceProperties:R;
}
// * * * * * * * * * * * * * * * * * * * * * * * * * * * * * * * * * * * * * //

dimensions      [0 2 -2 0 0 0 0];

internalField   nonuniform List<symmTensor> 
1340
(
(29.8496 14.6406 1.08268e-15 37.2063 1.35865e-16 33.582)
(28.0776 13.8631 1.52104e-15 35.9226 2.51118e-16 32.0493)
(26.1856 12.9997 -3.03649e-16 34.3262 -4.2822e-17 30.3019)
(21.0015 10.4953 -4.75563e-15 28.6044 -8.20535e-16 24.811)
(0.932702 0.452249 -5.24829e-16 1.19068 -6.25603e-17 1.02264)
(1.0069 0.491588 -1.3154e-15 1.30562 -4.1171e-16 1.12081)
(1.211 0.58964 -2.64551e-15 1.55142 -7.42041e-17 1.33878)
(1.66535 0.820532 -2.1081e-15 2.09166 1.26336e-15 1.89596)
(0.230556 0.109157 2.34342e-16 0.258474 1.18414e-17 0.244611)
(0.306579 0.146429 -1.24728e-15 0.352494 8.79975e-17 0.329049)
(0.372891 0.172762 3.17512e-15 0.39812 5.57564e-16 0.383853)
(0.608172 0.290612 4.92211e-15 0.689002 9.9643e-16 0.660492)
(0.0121391 0.00479932 -2.10875e-16 0.00972283 -2.83855e-17 0.0111703)
(0.0347094 0.0146501 8.68886e-16 0.030539 1.25053e-16 0.033631)
(0.0848004 0.0340018 -5.58265e-16 0.0695202 -1.70851e-16 0.0780928)
(0.262437 0.119945 -3.82856e-16 0.266709 -1.40354e-15 0.272255)
(0.000316099 -6.2836e-05 -1.17056e-18 0.000150592 7.36808e-20 0.000249514)
(0.000982247 -9.52657e-05 -1.43876e-17 0.000389312 -8.42639e-18 0.000713732)
(0.00382749 0.000318531 7.02903e-17 0.00152553 5.82507e-18 0.00261825)
(0.0576168 0.0234362 -3.30711e-16 0.047774 4.8724e-17 0.054988)
(3.12761e-05 -4.58457e-06 5.1655e-19 2.62099e-05 5.5353e-20 2.55063e-05)
(0.000170737 -2.46794e-05 -8.94736e-18 8.48725e-05 -5.15147e-19 0.000109183)
(0.000903612 -2.8944e-05 -2.03037e-17 0.0003644 -5.95485e-18 0.000578996)
(0.007693 0.00258145 9.73013e-18 0.00505655 5.29709e-17 0.00668394)
(8.36923e-06 -1.64228e-07 -1.56815e-20 7.73173e-06 -1.81906e-21 8.15352e-06)
(8.55734e-07 -1.07647e-09 3.06977e-22 8.4779e-07 6.72196e-23 8.52793e-07)
(0 -0 0 0 0 0)
(0.00172017 0.000475866 2.68239e-17 0.000960128 2.53934e-18 0.00145816)
(1.63433e-05 -1.46864e-06 1.40695e-19 1.40435e-05 2.03668e-20 1.45785e-05)
(9.50656e-06 -3.20328e-07 -2.7075e-20 8.24977e-06 -8.87092e-21 8.70477e-06)
(9.61179e-07 -2.64525e-11 4.03638e-23 9.49408e-07 9.03395e-24 9.54249e-07)
(0 0 0 0 -0 0)
(2.0125e-05 -1.30292e-06 -5.57464e-21 1.61746e-05 -2.79277e-21 1.84326e-05)
(2.15665e-05 -7.16421e-07 3.78857e-20 1.66391e-05 2.9905e-20 1.94298e-05)
(1.89184e-05 7.81227e-08 1.54842e-20 1.55194e-05 -1.34123e-20 1.7249e-05)
(6.17726e-07 1.15362e-09 -6.57044e-24 6.16041e-07 6.35064e-24 6.17098e-07)
(1.65951e-05 -1.30866e-06 4.1619e-20 1.37e-05 5.21793e-21 1.49769e-05)
(1.65071e-05 -6.43348e-07 2.24679e-19 1.29983e-05 8.50947e-21 1.46775e-05)
(2.76565e-05 2.02441e-07 -2.57848e-19 2.03501e-05 1.37346e-20 2.3749e-05)
(8.40826e-06 2.31369e-07 5.98836e-21 8.08645e-06 2.58568e-21 8.28273e-06)
(1.70834e-05 -1.22412e-06 3.58087e-21 1.39024e-05 -4.83705e-21 1.55376e-05)
(1.69455e-05 -5.626e-07 -2.53914e-19 1.32947e-05 -3.75497e-20 1.52097e-05)
(2.40068e-05 2.36958e-07 3.34309e-19 1.81183e-05 5.00671e-20 2.09888e-05)
(2.53994e-05 2.06696e-06 7.95231e-20 2.2525e-05 -2.66347e-20 2.42781e-05)
(1.57824e-05 -1.18149e-06 -9.67605e-20 1.29385e-05 -7.07582e-21 1.43121e-05)
(1.59475e-05 -5.48371e-07 1.64844e-19 1.24703e-05 2.28179e-20 1.42267e-05)
(2.00872e-05 2.3579e-07 -1.52086e-19 1.54877e-05 -5.92516e-20 1.76964e-05)
(2.91131e-05 2.8858e-06 -1.86334e-19 2.51592e-05 -9.56252e-20 2.75472e-05)
(1.53072e-05 -1.12299e-06 1.11507e-19 1.25173e-05 1.30259e-20 1.39085e-05)
(1.55149e-05 -5.06118e-07 -2.32152e-19 1.20991e-05 -2.9977e-20 1.38554e-05)
(1.84344e-05 2.60922e-07 -1.46948e-20 1.42765e-05 2.04255e-20 1.62942e-05)
(2.68129e-05 2.69523e-06 -2.99632e-19 2.31564e-05 2.59802e-20 2.53514e-05)
(1.44908e-05 -1.07717e-06 -8.25428e-20 1.18716e-05 -1.29329e-20 1.31615e-05)
(1.46022e-05 -4.68459e-07 1.52704e-19 1.13847e-05 3.96159e-20 1.30259e-05)
(1.70499e-05 2.84404e-07 2.40743e-20 1.32085e-05 1.75738e-20 1.50711e-05)
(2.40204e-05 2.40761e-06 1.75088e-19 2.0801e-05 5.58542e-20 2.27174e-05)
(1.38011e-05 -1.02654e-06 1.77003e-20 1.13064e-05 5.52677e-21 1.25438e-05)
(1.38158e-05 -4.29976e-07 6.50528e-20 1.07667e-05 -8.98326e-21 1.2327e-05)
(1.57861e-05 3.02205e-07 1.23503e-19 1.2234e-05 -4.44552e-21 1.39638e-05)
(2.15832e-05 2.16738e-06 -8.63156e-20 1.87252e-05 -5.00166e-20 2.04135e-05)
(1.30268e-05 -9.76323e-07 1.1201e-20 1.0683e-05 4.21599e-22 1.18439e-05)
(1.2958e-05 -3.95402e-07 -9.6285e-20 1.00952e-05 -1.27026e-20 1.15576e-05)
(1.45119e-05 3.12956e-07 -1.64584e-19 1.12566e-05 -3.88671e-20 1.28451e-05)
(1.93877e-05 1.9575e-06 -9.57675e-20 1.68482e-05 3.13424e-20 1.83361e-05)
(1.22587e-05 -9.24752e-07 -4.17828e-21 1.0062e-05 9.71471e-22 1.11525e-05)
(1.21141e-05 -3.62891e-07 5.13592e-20 9.43492e-06 2.68908e-21 1.08036e-05)
(1.32942e-05 3.18095e-07 -6.6218e-20 1.03234e-05 1.76398e-20 1.17775e-05)
(1.73615e-05 1.76405e-06 2.3218e-19 1.51138e-05 1.83168e-20 1.64201e-05)
(1.1472e-05 -8.73701e-07 4.20362e-20 9.42872e-06 -6.11294e-22 1.04438e-05)
(1.12569e-05 -3.33296e-07 -1.50949e-19 8.76589e-06 -1.85525e-20 1.00374e-05)
(1.21263e-05 3.17989e-07 1.00522e-19 9.42764e-06 2.47465e-20 1.07522e-05)
(1.54858e-05 1.58456e-06 -1.78304e-19 1.35084e-05 -1.75198e-20 1.46479e-05)
(1.06847e-05 -8.23212e-07 -1.17612e-19 8.79599e-06 -1.19295e-20 9.73543e-06)
(1.04036e-05 -3.06527e-07 3.75766e-20 8.10105e-06 2.07162e-20 9.27563e-06)
(1.10105e-05 3.12565e-07 7.46288e-20 8.57063e-06 -6.80902e-21 9.77136e-06)
(1.37524e-05 1.41798e-06 2.88619e-19 1.20241e-05 3.54577e-20 1.30112e-05)
(9.89629e-06 -7.73363e-07 5.9824e-20 8.16361e-06 1.07164e-20 9.02637e-06)
(9.55508e-06 -2.82343e-07 1.16562e-19 7.44107e-06 5.72486e-21 8.51876e-06)
(9.94879e-06 3.02636e-07 -7.32973e-20 7.75369e-06 -1.79873e-20 8.83696e-06)
(1.21645e-05 1.26451e-06 -1.73674e-19 1.0663e-05 -4.68473e-20 1.15131e-05)
(9.11035e-06 -7.24001e-07 -1.61668e-20 7.53416e-06 -4.02991e-21 8.31988e-06)
(8.71534e-06 -2.60243e-07 -8.96637e-20 6.78873e-06 -1.59182e-20 7.77019e-06)
(8.93701e-06 2.89168e-07 -4.19145e-20 6.97391e-06 5.30557e-21 7.94521e-06)
(1.07106e-05 1.12343e-06 3.33941e-20 9.4161e-06 2.12391e-20 1.01426e-05)
(8.32946e-06 -6.74999e-07 4.79815e-21 6.90941e-06 2.83091e-21 7.61808e-06)
(7.88869e-06 -2.39787e-07 1.40076e-20 6.14717e-06 6.90205e-21 7.03371e-06)
(7.97713e-06 2.72866e-07 5.0528e-20 6.23288e-06 1.34141e-20 7.09811e-06)
(9.38735e-06 9.94496e-07 1.65944e-21 8.28074e-06 -7.3357e-21 8.89629e-06)
(7.56083e-06 -6.2682e-07 3.35955e-20 6.29531e-06 2.11339e-21 6.92753e-06)
(7.07985e-06 -2.20879e-07 3.20127e-21 5.51997e-06 -1.87563e-21 6.31345e-06)
(7.06853e-06 2.54661e-07 6.75721e-20 5.53035e-06 -5.2294e-21 6.29527e-06)
(8.18966e-06 8.77398e-07 -4.88241e-20 7.25301e-06 -2.78462e-21 7.7696e-06)
(6.81135e-06 -5.79852e-07 -2.68435e-20 5.69754e-06 -3.36132e-21 6.25458e-06)
(6.29621e-06 -2.03642e-07 -2.42743e-20 4.9129e-06 1.97252e-22 5.61614e-06)
(6.21009e-06 2.3456e-07 -1.338e-19 4.8653e-06 -1.58219e-20 5.53553e-06)
(7.10672e-06 7.71022e-07 2.78021e-20 6.32344e-06 8.84931e-21 6.75181e-06)
(6.08481e-06 -5.34034e-07 1.92965e-20 5.11897e-06 8.80158e-22 5.60253e-06)
(5.54044e-06 -1.87734e-07 5.35597e-20 4.32793e-06 7.10743e-21 4.94402e-06)
(5.40258e-06 2.13414e-07 5.04262e-20 4.23864e-06 1.97655e-20 4.81999e-06)
(6.13271e-06 6.74807e-07 2.85793e-20 5.48705e-06 3.69633e-21 5.83748e-06)
(5.38424e-06 -4.89151e-07 -4.96081e-20 4.56167e-06 -4.01181e-21 4.97398e-06)
(4.81584e-06 -1.7269e-07 -2.07759e-21 3.76745e-06 -1.37584e-21 4.29989e-06)
(4.64599e-06 1.91992e-07 8.97821e-20 3.65076e-06 2.19544e-21 4.14883e-06)
(5.25914e-06 5.88059e-07 4.57585e-20 4.73712e-06 -4.10292e-21 5.01842e-06)
(4.71616e-06 -4.45509e-07 4.28463e-20 4.03103e-06 6.5187e-21 4.37489e-06)
(4.12672e-06 -1.58387e-07 3.41239e-20 3.23479e-06 3.13157e-21 3.68762e-06)
(3.94065e-06 1.70859e-07 -6.84111e-20 3.1022e-06 -9.59045e-21 3.52259e-06)
(4.48078e-06 5.10296e-07 -1.09025e-19 4.06952e-06 -9.8101e-21 4.28983e-06)
(4.08615e-06 -4.03311e-07 2.0264e-21 3.5318e-06 -1.71935e-21 3.81045e-06)
(3.47709e-06 -1.44829e-07 -1.10999e-20 2.73314e-06 -4.40023e-21 3.11079e-06)
(3.28646e-06 1.50333e-07 5.00942e-20 2.59307e-06 5.17138e-21 2.94131e-06)
(3.7904e-06 4.40756e-07 7.12192e-20 3.47827e-06 9.0108e-21 3.64473e-06)
(3.49969e-06 -3.62657e-07 -2.94039e-21 3.06855e-06 -8.12448e-22 3.28565e-06)
(2.87035e-06 -1.31847e-07 -3.3084e-20 2.26521e-06 -3.93427e-21 2.57243e-06)
(2.68355e-06 1.30772e-07 -7.35201e-20 2.12376e-06 -8.47691e-21 2.40536e-06)
(3.18208e-06 3.78742e-07 -8.80466e-20 2.95851e-06 -1.34092e-20 3.07751e-06)
(2.96062e-06 -3.23411e-07 -9.82259e-21 2.64444e-06 -1.27555e-21 2.80408e-06)
(2.30905e-06 -1.19157e-07 -2.28287e-20 1.83305e-06 -1.10193e-21 2.0749e-06)
(2.13283e-06 1.12647e-07 3.57761e-20 1.69546e-06 7.67741e-21 1.91585e-06)
(2.6521e-06 3.23757e-07 -8.1188e-21 2.50759e-06 8.31849e-21 2.58473e-06)
(2.47422e-06 -2.85596e-07 -9.46535e-21 2.26422e-06 -1.01235e-21 2.37073e-06)
(1.7953e-06 -1.06581e-07 -5.86991e-21 1.43859e-06 1.70696e-21 1.62008e-06)
(1.63577e-06 9.63584e-08 3.35896e-21 1.30997e-06 -9.07879e-22 1.47449e-06)
(2.19843e-06 2.75383e-07 8.50875e-20 2.12451e-06 1.27861e-20 2.16473e-06)
(2.04752e-06 -2.49346e-07 -1.28239e-20 1.93443e-06 -1.09488e-21 1.99243e-06)
(1.33443e-06 -9.40686e-08 3.12133e-20 1.0867e-06 2.97862e-21 1.21314e-06)
(1.19525e-06 8.20499e-08 1.25168e-20 9.70515e-07 -3.3654e-22 1.08432e-06)
(1.82025e-06 2.33155e-07 8.46812e-20 1.80925e-06 9.95767e-22 1.81688e-06)
(1.68897e-06 -2.14828e-07 -3.8261e-21 1.66319e-06 9.45023e-22 1.67744e-06)
(9.35412e-07 -8.16804e-08 -1.01156e-20 7.86286e-07 -1.74371e-21 8.62949e-07)
(8.19369e-07 6.97349e-08 -2.99635e-20 6.85477e-07 -3.55654e-21 7.53651e-07)
(1.51723e-06 1.96543e-07 -7.41227e-20 1.56217e-06 -1.33522e-20 1.5411e-06)
(1.40628e-06 -1.82042e-07 2.36346e-20 1.45806e-06 2.33453e-21 1.43344e-06)
(6.19923e-07 -6.93273e-08 1.38037e-20 5.58997e-07 4.25518e-23 5.91194e-07)
(5.33462e-07 5.95026e-08 1.58089e-22 4.80496e-07 2.84988e-21 5.08005e-07)
(1.28945e-06 1.6508e-07 -5.32206e-20 1.38385e-06 -1.07641e-21 1.33759e-06)
(1.20577e-06 -1.51055e-07 -5.04518e-21 1.32539e-06 -1.03986e-21 1.26673e-06)
(4.4038e-07 -5.70284e-08 -4.73481e-20 4.57424e-07 -4.25147e-21 4.50325e-07)
(3.96893e-07 5.13408e-08 3.63981e-20 4.15406e-07 1.88473e-21 4.06973e-07)
(1.13486e-06 1.38355e-07 2.5466e-20 1.27285e-06 2.89417e-21 1.20452e-06)
(1.08708e-06 -1.21965e-07 8.09803e-21 1.26495e-06 7.16193e-22 1.17706e-06)
(4.38453e-07 -4.48195e-08 3.0203e-20 5.2344e-07 4.28675e-21 4.82117e-07)
(4.31779e-07 4.5168e-08 -4.48054e-20 5.12695e-07 -5.04358e-21 4.72865e-07)
(1.04593e-06 1.15978e-07 -4.77921e-20 1.22197e-06 -5.21933e-21 1.13447e-06)
(1.03909e-06 -9.49498e-08 -7.65939e-21 1.26589e-06 -6.06282e-22 1.15341e-06)
(5.42246e-07 -3.2893e-08 -1.43643e-20 6.85467e-07 -2.40503e-21 6.1481e-07)
(5.45789e-07 4.07487e-08 2.23975e-20 6.80458e-07 2.95638e-21 6.13573e-07)
(1.00833e-06 9.74521e-08 1.43943e-20 1.21725e-06 5.37048e-21 1.11325e-06)
(1.04068e-06 -6.99629e-08 1.32352e-20 1.30752e-06 1.71473e-21 1.1749e-06)
(6.70834e-07 -2.1267e-08 3.50025e-21 8.6304e-07 3.32781e-22 7.67709e-07)
(6.71776e-07 3.79248e-08 -2.823e-20 8.52022e-07 -2.0941e-21 7.62186e-07)
(1.00538e-06 8.23522e-08 6.62342e-20 1.24223e-06 5.73039e-21 1.12425e-06)
(1.44567e-06 -6.86076e-08 -8.92405e-21 1.84483e-06 -1.73087e-22 1.64589e-06)
(1.07077e-06 -4.71359e-08 3.8639e-21 1.36928e-06 -1.17233e-21 1.22073e-06)
(7.9268e-07 -1.008e-08 -1.66498e-20 1.02504e-06 2.96441e-23 9.09469e-07)
(7.87187e-07 3.64954e-08 4.84456e-20 1.00528e-06 5.91147e-21 8.96386e-07)
(1.02198e-06 7.02889e-08 -9.50419e-21 1.28212e-06 -2.94293e-21 1.15251e-06)
(1.41642e-06 -4.01649e-08 2.42024e-20 1.82422e-06 2.56257e-21 1.6209e-06)
(1.11193e-06 -2.6495e-08 -3.93538e-20 1.4342e-06 -3.97963e-21 1.27367e-06)
(8.98079e-07 5.74702e-10 6.03746e-20 1.16241e-06 5.65509e-21 1.03076e-06)
(8.85377e-07 3.62299e-08 3.69127e-21 1.13411e-06 -2.74697e-21 1.00979e-06)
(1.04655e-06 6.08651e-08 3.04147e-21 1.32553e-06 6.06979e-22 1.18653e-06)
(1.40015e-06 -1.51977e-08 -6.82388e-21 1.8108e-06 -1.6118e-21 1.60597e-06)
(1.15309e-06 -7.9459e-09 7.71595e-21 1.49196e-06 2.53823e-21 1.32306e-06)
(9.84287e-07 1.0613e-08 -3.36452e-20 1.27305e-06 -5.3709e-21 1.12909e-06)
(9.65033e-07 3.69249e-08 -5.53045e-20 1.23775e-06 -5.17784e-21 1.10136e-06)
(1.07177e-06 5.37263e-08 -1.72279e-21 1.36542e-06 -1.23265e-21 1.21914e-06)
(1.38929e-06 6.462e-09 -9.57754e-21 1.79774e-06 -4.28541e-22 1.59395e-06)
(1.18811e-06 8.49617e-09 2.33012e-20 1.53718e-06 2.72078e-21 1.36312e-06)
(1.05119e-06 1.99597e-08 -6.4427e-21 1.3575e-06 7.62655e-22 1.20471e-06)
(1.02643e-06 3.83855e-08 2.03894e-20 1.31699e-06 3.83249e-21 1.17164e-06)
(1.09295e-06 4.85518e-08 -3.51079e-20 1.39729e-06 -2.64657e-21 1.24573e-06)
(1.37851e-06 2.4973e-08 1.55992e-20 1.78042e-06 1.93664e-21 1.57984e-06)
(1.21355e-06 2.28657e-08 1.91656e-20 1.56715e-06 1.27579e-21 1.39077e-06)
(1.09979e-06 2.85176e-08 1.83848e-20 1.41751e-06 1.57138e-21 1.25897e-06)
(1.07082e-06 4.03648e-08 5.78009e-21 1.3737e-06 6.75678e-22 1.22215e-06)
(1.10768e-06 4.49767e-08 3.41127e-20 1.41904e-06 4.78113e-21 1.26404e-06)
(1.36441e-06 4.0519e-08 2.41397e-21 1.75616e-06 -1.57697e-22 1.5606e-06)
(1.22807e-06 3.52277e-08 -5.42715e-21 1.58128e-06 -1.55071e-21 1.40505e-06)
(1.13162e-06 3.6213e-08 -2.14314e-20 1.45529e-06 -2.37073e-21 1.29374e-06)
(1.09966e-06 4.26671e-08 2.49337e-20 1.40989e-06 1.97439e-21 1.25466e-06)
(1.11475e-06 4.26978e-08 1.69875e-20 1.4297e-06 8.06811e-22 1.27297e-06)
(1.34519e-06 5.33243e-08 -1.13325e-21 1.72384e-06 -5.06394e-23 1.53478e-06)
(1.23154e-06 4.56772e-08 -2.34196e-20 1.5802e-06 -2.263e-21 1.40619e-06)
(1.1484e-06 4.30085e-08 1.49425e-20 1.4733e-06 1.89029e-21 1.31112e-06)
(1.11461e-06 4.51115e-08 -1.82553e-20 1.4278e-06 -2.97467e-21 1.27108e-06)
(1.11392e-06 4.14332e-08 -6.4528e-21 1.42936e-06 -1.82978e-21 1.27245e-06)
(1.31995e-06 6.36065e-08 5.00886e-21 1.68321e-06 5.02651e-22 1.50179e-06)
(1.2245e-06 5.43073e-08 4.74137e-21 1.56516e-06 1.48657e-21 1.3951e-06)
(1.152e-06 4.88636e-08 -8.99634e-21 1.47412e-06 -1.30581e-21 1.31329e-06)
(1.1174e-06 4.75419e-08 -2.04414e-20 1.42974e-06 -1.20694e-21 1.27342e-06)
(1.10544e-06 4.09307e-08 -3.75091e-20 1.41855e-06 -3.3243e-21 1.26285e-06)
(1.28854e-06 7.15933e-08 -4.71707e-21 1.6347e-06 -4.93715e-22 1.46178e-06)
(1.20783e-06 6.12276e-08 2.25968e-20 1.53769e-06 2.01544e-21 1.37298e-06)
(1.14406e-06 5.37652e-08 -1.46152e-21 1.46002e-06 -1.42303e-23 1.30222e-06)
(1.10955e-06 4.98168e-08 2.31491e-20 1.41776e-06 3.04462e-21 1.26348e-06)
(1.08985e-06 4.09574e-08 2.36064e-20 1.39813e-06 2.56405e-21 1.24488e-06)
(1.25145e-06 7.75636e-08 7.38021e-21 1.57933e-06 1.14547e-21 1.41551e-06)
(1.18286e-06 6.66229e-08 -1.76696e-20 1.49974e-06 -2.79262e-21 1.34148e-06)
(1.12648e-06 5.77743e-08 -2.66345e-21 1.43353e-06 -1.19752e-22 1.28016e-06)
(1.09276e-06 5.18876e-08 8.52789e-21 1.39407e-06 9.24613e-22 1.24323e-06)
(1.06792e-06 4.13651e-08 -3.65127e-20 1.36919e-06 -4.26587e-21 1.21948e-06)
(1.20941e-06 8.17463e-08 1.4255e-20 1.51829e-06 1.34707e-21 1.36394e-06)
(1.15084e-06 7.06102e-08 -2.31071e-20 1.45312e-06 -2.20798e-21 1.30212e-06)
(1.10086e-06 6.09023e-08 6.45697e-21 1.39681e-06 5.00307e-22 1.24896e-06)
(1.06851e-06 5.3655e-08 2.44921e-20 1.36069e-06 2.65955e-21 1.21439e-06)
(1.04063e-06 4.1989e-08 3.89387e-21 1.33308e-06 9.32885e-22 1.1878e-06)
(1.16307e-06 8.43382e-08 -8.13766e-21 1.45261e-06 -1.02552e-21 1.3079e-06)
(1.11287e-06 7.32986e-08 1.04294e-21 1.39941e-06 7.026e-22 1.25625e-06)
(1.06853e-06 6.31563e-08 -1.3576e-20 1.35173e-06 -1.64154e-21 1.21023e-06)
(1.03798e-06 5.5035e-08 8.95041e-21 1.31921e-06 9.16363e-23 1.17838e-06)
(1.0086e-06 4.26729e-08 -9.12652e-21 1.29065e-06 -1.26954e-21 1.15059e-06)
(1.11312e-06 8.55197e-08 8.2102e-21 1.38332e-06 1.00766e-21 1.24827e-06)
(1.07006e-06 7.48096e-08 1.23868e-20 1.34013e-06 1.05214e-21 1.20519e-06)
(1.03076e-06 6.45709e-08 -8.79917e-22 1.29997e-06 5.99101e-22 1.16545e-06)
(1.0023e-06 5.59594e-08 -2.66791e-20 1.27118e-06 -3.44199e-21 1.1365e-06)
(9.72603e-07 4.32641e-08 -1.45891e-20 1.24304e-06 -1.37727e-21 1.10878e-06)
(1.06047e-06 8.55119e-08 -3.22041e-21 1.31158e-06 -5.51814e-22 1.18608e-06)
(1.02339e-06 7.52693e-08 -2.21625e-20 1.27664e-06 -2.76752e-21 1.1501e-06)
(9.88648e-07 6.51866e-08 2.99822e-20 1.24306e-06 3.5732e-21 1.11593e-06)
(9.62481e-07 5.63951e-08 -2.2451e-20 1.21799e-06 -1.6286e-21 1.08999e-06)
(9.33295e-07 4.36652e-08 5.69605e-21 1.19113e-06 7.51521e-22 1.06316e-06)
(1.03967e-06 9.42632e-08 1.89855e-21 1.26713e-06 6.99618e-23 1.15345e-06)
(1.00574e-06 8.44507e-08 -4.51227e-21 1.23827e-06 -7.77662e-22 1.12207e-06)
(9.73671e-07 7.47999e-08 -4.67855e-21 1.20998e-06 2.28601e-22 1.09188e-06)
(9.43088e-07 6.50542e-08 1.28641e-20 1.1822e-06 7.79343e-22 1.06272e-06)
(9.19311e-07 5.63208e-08 2.97444e-20 1.16073e-06 3.98647e-21 1.03978e-06)
(8.91306e-07 4.37968e-08 -4.18635e-21 1.13583e-06 -6.63855e-22 1.0145e-06)
(9.78021e-07 9.14365e-08 -5.00273e-21 1.1863e-06 -4.694e-22 1.08221e-06)
(9.49222e-07 8.24624e-08 -2.45286e-20 1.16376e-06 -2.73321e-21 1.05654e-06)
(9.21792e-07 7.34912e-08 3.49086e-20 1.14137e-06 3.87917e-21 1.03163e-06)
(8.94936e-07 6.42145e-08 -1.75058e-20 1.11856e-06 -2.03191e-21 1.00682e-06)
(8.73602e-07 5.57161e-08 2.28059e-20 1.10055e-06 2.11476e-21 9.86833e-07)
(8.47166e-07 4.35834e-08 -8.75444e-21 1.07789e-06 -8.44651e-22 9.63435e-07)
(9.16106e-07 8.78796e-08 1.32066e-20 1.10634e-06 1.65958e-21 1.01129e-06)
(8.9173e-07 7.97301e-08 5.8247e-21 1.089e-06 9.16919e-22 9.9042e-07)
(8.68276e-07 7.14425e-08 -1.75829e-20 1.07149e-06 -2.41626e-21 9.6993e-07)
(8.44837e-07 6.27264e-08 1.16289e-20 1.05302e-06 1.4418e-21 9.48988e-07)
(8.25916e-07 5.45922e-08 -2.73838e-21 1.03821e-06 -6.95363e-22 9.31818e-07)
(8.01322e-07 4.29815e-08 6.71295e-21 1.01797e-06 8.64204e-22 9.10513e-07)
(8.54392e-07 8.3741e-08 3.74834e-21 1.02772e-06 1.73259e-22 9.41124e-07)
(8.33822e-07 7.63848e-08 -4.03789e-21 1.01465e-06 -3.77384e-22 9.24276e-07)
(8.13948e-07 6.88033e-08 4.34943e-21 1.00132e-06 7.80458e-22 9.07669e-07)
(7.93664e-07 6.07e-08 -1.06654e-20 9.86667e-07 -1.19014e-21 8.90211e-07)
(7.77126e-07 5.30139e-08 -7.2888e-21 9.74853e-07 -8.45838e-22 8.75742e-07)
(7.54484e-07 4.20163e-08 -4.55066e-22 9.5701e-07 -3.83847e-23 8.56561e-07)
(7.93838e-07 7.925e-08 -1.43895e-20 9.51421e-07 -1.69743e-21 8.72694e-07)
(7.76644e-07 7.26512e-08 1.63952e-20 9.41961e-07 2.16041e-21 8.59354e-07)
(7.59855e-07 6.57571e-08 7.00575e-21 9.32064e-07 6.28654e-22 8.46e-07)
(7.42367e-07 5.82862e-08 1.66787e-20 9.20617e-07 1.93334e-21 8.3153e-07)
(7.28083e-07 5.11078e-08 -4.10242e-21 9.11493e-07 -3.17864e-22 8.19537e-07)
(7.07405e-07 4.07723e-08 9.0914e-21 8.95942e-07 8.66619e-22 8.02436e-07)
(7.35454e-07 7.46065e-08 6.78529e-21 8.78493e-07 9.24419e-22 8.07049e-07)
(7.21019e-07 6.87002e-08 1.80051e-20 8.71804e-07 1.9287e-21 7.96467e-07)
(7.06843e-07 6.24613e-08 -1.54525e-20 8.64652e-07 -1.74529e-21 7.85781e-07)
(6.91866e-07 5.56212e-08 -1.37664e-20 8.55955e-07 -2.00913e-21 7.73933e-07)
(6.797e-07 4.89821e-08 5.82185e-21 8.49239e-07 6.8688e-22 7.64218e-07)
(6.60927e-07 3.93379e-08 -1.9059e-20 8.35808e-07 -2.07968e-21 7.49072e-07)
(6.79657e-07 6.99332e-08 -2.6326e-21 8.09287e-07 -5.82715e-22 7.44548e-07)
(6.67612e-07 6.46658e-08 -8.06746e-21 8.04876e-07 -9.29632e-22 7.36302e-07)
(6.55679e-07 5.90447e-08 1.70467e-20 7.99951e-07 2.13794e-21 7.27845e-07)
(6.42922e-07 5.28268e-08 -2.4466e-20 7.93551e-07 -2.71924e-21 7.18246e-07)
(6.32661e-07 4.67428e-08 -5.35093e-21 7.88887e-07 -6.97447e-22 7.10521e-07)
(6.15681e-07 3.77946e-08 2.49363e-20 7.77372e-07 2.90539e-21 6.97181e-07)
(6.26823e-07 6.53241e-08 -2.7511e-20 7.44156e-07 -3.25779e-21 6.85576e-07)
(6.16674e-07 6.06258e-08 2.2825e-20 7.414e-07 2.6515e-21 6.79093e-07)
(6.06622e-07 5.5579e-08 -4.601e-21 7.38211e-07 -5.85487e-22 6.72432e-07)
(5.95851e-07 4.99661e-08 4.89217e-21 7.33759e-07 8.26026e-22 6.64808e-07)
(5.87335e-07 4.44325e-08 2.21502e-21 7.30891e-07 6.18545e-23 6.58871e-07)
(5.71978e-07 3.61731e-08 -1.89315e-20 7.21026e-07 -2.32305e-21 6.4712e-07)
(5.76505e-07 6.07595e-08 8.61919e-21 6.82537e-07 1.19941e-21 6.29601e-07)
(5.67848e-07 5.65613e-08 -2.39874e-20 6.80947e-07 -3.05182e-21 6.24441e-07)
(5.59564e-07 5.20667e-08 1.5549e-20 6.79315e-07 1.94668e-21 6.19458e-07)
(5.50584e-07 4.70292e-08 5.67385e-21 6.76528e-07 5.5851e-22 6.13568e-07)
(5.43551e-07 4.20233e-08 -2.7786e-20 6.7508e-07 -3.35965e-21 6.09092e-07)
(5.29728e-07 3.44275e-08 1.25915e-20 6.6671e-07 1.67621e-21 5.98794e-07)
(5.35301e-07 5.96114e-08 2.93267e-22 6.23808e-07 -1.29591e-22 5.79617e-07)
(5.28128e-07 5.61909e-08 -5.67385e-21 6.23757e-07 -6.83159e-22 5.76011e-07)
(5.20839e-07 5.24756e-08 4.20903e-21 6.23119e-07 7.36264e-22 5.72013e-07)
(5.14049e-07 4.84719e-08 5.02574e-21 6.22725e-07 4.82134e-22 5.68432e-07)
(5.06601e-07 4.39617e-08 -1.19477e-20 6.21264e-07 -1.35427e-21 5.6397e-07)
(5.00879e-07 3.94483e-08 -5.49783e-21 6.20997e-07 -5.71972e-22 5.60752e-07)
(4.88518e-07 3.24945e-08 6.89285e-21 6.13973e-07 6.71029e-22 5.51791e-07)
(4.87431e-07 5.46416e-08 -2.68512e-20 5.66803e-07 -3.32383e-21 5.27156e-07)
(4.81357e-07 5.16124e-08 9.82313e-21 5.67371e-07 1.36734e-21 5.24409e-07)
(4.75445e-07 4.83372e-08 8.44596e-21 5.67737e-07 9.18011e-22 5.21621e-07)
(4.69896e-07 4.47676e-08 -2.86441e-21 5.68268e-07 -4.77753e-22 5.19133e-07)
(4.63794e-07 4.07375e-08 1.68782e-20 5.67891e-07 2.22061e-21 5.15888e-07)
(4.59276e-07 3.66749e-08 -1.73774e-20 5.68652e-07 -1.79847e-21 5.1379e-07)
(4.48276e-07 3.03278e-08 -9.05633e-21 5.62795e-07 -1.20648e-21 5.06031e-07)
(4.41195e-07 4.9721e-08 -7.06729e-22 5.1215e-07 1.00699e-22 4.76699e-07)
(4.36196e-07 4.70475e-08 1.88895e-20 5.13343e-07 2.27031e-21 4.74816e-07)
(4.31371e-07 4.41467e-08 -1.48128e-20 5.14395e-07 -1.88658e-21 4.72917e-07)
(4.26915e-07 4.09726e-08 -1.71232e-20 5.15662e-07 -2.07877e-21 4.71348e-07)
(4.21988e-07 3.73747e-08 1.38297e-20 5.16153e-07 1.70496e-21 4.69117e-07)
(4.18604e-07 3.37328e-08 3.62036e-20 5.17839e-07 4.46376e-21 4.68071e-07)
(4.08919e-07 2.79603e-08 -1.25222e-20 5.13045e-07 -1.62899e-21 4.61443e-07)
(3.97233e-07 4.49331e-08 6.65029e-21 4.60562e-07 7.73998e-22 4.28895e-07)
(3.93133e-07 4.25724e-08 -8.54646e-22 4.62182e-07 -1.27591e-22 4.27661e-07)
(3.89304e-07 4.00087e-08 -1.56091e-21 4.63828e-07 -8.91749e-23 4.26559e-07)
(3.85824e-07 3.71858e-08 -8.4395e-22 4.65712e-07 -4.83901e-23 4.2579e-07)
(3.81995e-07 3.39838e-08 2.4179e-20 4.6698e-07 2.80213e-21 4.24494e-07)
(3.79672e-07 3.07285e-08 -3.99533e-21 4.69495e-07 -6.89256e-22 4.24428e-07)
(3.71155e-07 2.54779e-08 -3.36828e-20 4.65568e-07 -3.98056e-21 4.18752e-07)
(3.55714e-07 4.03703e-08 -1.37412e-20 4.11985e-07 -1.71772e-21 3.83859e-07)
(3.52472e-07 3.82908e-08 1.65466e-20 4.14049e-07 2.02318e-21 3.83278e-07)
(3.49514e-07 3.60308e-08 4.20283e-21 4.16168e-07 6.29291e-22 3.82837e-07)
(3.46933e-07 3.35323e-08 -9.02586e-21 4.18592e-07 -1.20746e-21 3.82777e-07)
(3.44119e-07 3.06985e-08 -1.18538e-20 4.20549e-07 -1.45314e-21 3.82331e-07)
(3.4273e-07 2.77943e-08 4.29415e-21 4.23758e-07 4.71294e-22 3.83119e-07)
(3.3514e-07 2.3007e-08 3.28e-21 4.20423e-07 7.14701e-22 3.78154e-07)
(3.17568e-07 3.61038e-08 5.9714e-21 3.67615e-07 7.23739e-22 3.42579e-07)
(3.14991e-07 3.4268e-08 -9.53809e-21 3.69903e-07 -1.26005e-21 3.42427e-07)
(3.12775e-07 3.22747e-08 2.45669e-20 3.7237e-07 2.95619e-21 3.42522e-07)
(3.11048e-07 3.00795e-08 -1.95829e-20 3.75287e-07 -2.37035e-21 3.43133e-07)
(3.09307e-07 2.76049e-08 2.74599e-20 3.78009e-07 3.38872e-21 3.43601e-07)
(3.0891e-07 2.50658e-08 -1.49783e-20 3.81944e-07 -1.89281e-21 3.45264e-07)
(3.0238e-07 2.07539e-08 3.04918e-20 3.79354e-07 3.72835e-21 3.41151e-07)
(2.83005e-07 3.20701e-08 -1.55917e-20 3.28025e-07 -2.08798e-21 3.05502e-07)
(2.80897e-07 3.03937e-08 -3.89342e-22 3.30411e-07 -1.26029e-23 3.05633e-07)
(2.793e-07 2.8594e-08 -1.08568e-20 3.33143e-07 -1.39411e-21 3.06164e-07)
(2.78325e-07 2.66101e-08 -6.31913e-22 3.36517e-07 3.09365e-23 3.07383e-07)
(2.77456e-07 2.43759e-08 -4.74797e-21 3.39841e-07 -7.97535e-22 3.08591e-07)
(2.7805e-07 2.20782e-08 -7.8243e-21 3.44587e-07 -8.57744e-22 3.11177e-07)
(2.72748e-07 1.81235e-08 1.09046e-20 3.42939e-07 1.07325e-21 3.08081e-07)
(2.56253e-07 2.89978e-08 -2.26021e-20 2.97192e-07 -2.75222e-21 2.76738e-07)
(2.54376e-07 2.74421e-08 -3.45064e-21 2.99487e-07 -3.70979e-22 2.76933e-07)
(2.5309e-07 2.57781e-08 1.31088e-20 3.02244e-07 1.66524e-21 2.77644e-07)
(2.52505e-07 2.39499e-08 2.74722e-24 3.05737e-07 -4.75271e-23 2.79114e-07)
(2.52021e-07 2.18904e-08 -1.13778e-20 3.09168e-07 -1.4853e-21 2.80567e-07)
(2.53021e-07 1.97466e-08 1.12536e-21 3.1412e-07 4.55363e-22 2.8348e-07)
(2.48224e-07 1.60079e-08 -1.71043e-20 3.12694e-07 -2.30023e-21 2.80697e-07)
(2.34885e-07 2.66592e-08 3.24707e-21 2.72127e-07 5.55564e-22 2.53508e-07)
(2.33187e-07 2.52237e-08 9.89694e-21 2.74341e-07 1.24047e-21 2.53758e-07)
(2.3204e-07 2.36869e-08 -7.71597e-21 2.76978e-07 -1.02509e-21 2.54486e-07)
(2.31556e-07 2.20026e-08 -1.08753e-20 2.80292e-07 -1.43146e-21 2.55917e-07)
(2.31251e-07 2.01145e-08 -2.06366e-20 2.83641e-07 -2.38594e-21 2.57406e-07)
(2.32205e-07 1.81393e-08 4.38528e-20 2.88251e-07 5.30319e-21 2.60102e-07)
(2.27599e-07 1.46101e-08 -2.92975e-20 2.86792e-07 -3.36463e-21 2.57365e-07)
(2.1326e-07 2.42572e-08 9.25264e-21 2.46884e-07 1.17565e-21 2.30061e-07)
(2.11577e-07 2.29202e-08 -3.22764e-21 2.48816e-07 -4.72949e-22 2.30175e-07)
(2.10632e-07 2.15106e-08 2.95596e-21 2.51402e-07 3.85346e-22 2.30972e-07)
(2.10325e-07 1.99656e-08 -1.70151e-20 2.54637e-07 -2.12506e-21 2.3245e-07)
(2.10318e-07 1.82421e-08 2.5799e-20 2.58059e-07 3.2734e-21 2.34118e-07)
(2.11447e-07 1.64458e-08 -2.52141e-20 2.6259e-07 -3.23551e-21 2.36854e-07)
(2.07344e-07 1.31721e-08 3.4736e-20 2.61429e-07 4.36911e-21 2.34516e-07)
(1.93412e-07 2.2951e-08 1.25632e-20 2.19975e-07 1.60501e-21 2.06731e-07)
(1.91353e-07 2.18168e-08 6.44033e-21 2.21339e-07 8.1064e-22 2.06352e-07)
(1.8978e-07 2.05974e-08 -5.55354e-21 2.23071e-07 -7.31578e-22 2.06423e-07)
(1.88926e-07 1.92938e-08 -5.00629e-21 2.25504e-07 -6.76772e-22 2.07208e-07)
(1.88752e-07 1.78761e-08 -1.1085e-20 2.28617e-07 -1.29089e-21 2.08685e-07)
(1.89036e-07 1.63102e-08 -1.10003e-20 2.32109e-07 -1.41783e-21 2.10522e-07)
(1.90504e-07 1.46887e-08 2.85199e-20 2.36775e-07 3.66307e-21 2.13465e-07)
(1.87398e-07 1.1684e-08 -1.60421e-20 2.36525e-07 -2.09381e-21 2.12016e-07)
(1.70927e-07 2.02898e-08 -6.31742e-21 1.94359e-07 -7.82795e-22 1.82572e-07)
(1.68701e-07 1.92e-08 1.06561e-20 1.9526e-07 1.26093e-21 1.81902e-07)
(1.67059e-07 1.80388e-08 -1.10694e-20 1.96647e-07 -1.30211e-21 1.81774e-07)
(1.66023e-07 1.67913e-08 -9.78833e-21 1.98588e-07 -1.27649e-21 1.82238e-07)
(1.65704e-07 1.54409e-08 9.11667e-21 2.01245e-07 1.11311e-21 1.83439e-07)
(1.65965e-07 1.39726e-08 1.81706e-20 2.04404e-07 2.4437e-21 1.85141e-07)
(1.67143e-07 1.23912e-08 -3.31794e-21 2.0848e-07 -6.17422e-22 1.87727e-07)
(1.63901e-07 9.52726e-09 8.37133e-21 2.07629e-07 1.15107e-21 1.85999e-07)
(1.42169e-07 1.69325e-08 2.04207e-20 1.61469e-07 2.61978e-21 1.51986e-07)
(1.40011e-07 1.59044e-08 -2.40178e-20 1.62218e-07 -3.13965e-21 1.51201e-07)
(1.38732e-07 1.48188e-08 2.78629e-20 1.63821e-07 3.60016e-21 1.51278e-07)
(1.38323e-07 1.3654e-08 -2.20145e-20 1.66294e-07 -2.76925e-21 1.5223e-07)
(1.38897e-07 1.23973e-08 -2.5212e-20 1.69783e-07 -3.24482e-21 1.54188e-07)
(1.40426e-07 1.10556e-08 3.62944e-20 1.74184e-07 4.62404e-21 1.57005e-07)
(1.43583e-07 9.72542e-09 -2.25609e-20 1.80252e-07 -2.88575e-21 1.6135e-07)
(1.44559e-07 7.26048e-09 1.77768e-20 1.84095e-07 2.20878e-21 1.63683e-07)
(1.05292e-07 1.23666e-08 3.04721e-21 1.20421e-07 3.04251e-22 1.13111e-07)
(1.01511e-07 1.11972e-08 -2.13494e-20 1.18834e-07 -2.67584e-21 1.1059e-07)
(9.88646e-08 1.00171e-08 1.39184e-20 1.18293e-07 1.65839e-21 1.09146e-07)
(9.74332e-08 8.80879e-09 -3.76269e-21 1.18949e-07 -3.46241e-22 1.08908e-07)
(9.735e-08 7.52988e-09 -1.54361e-20 1.21029e-07 -1.86596e-21 1.10084e-07)
(9.84939e-08 6.14017e-09 4.09304e-20 1.24356e-07 5.02645e-21 1.12511e-07)
(1.00863e-07 4.26783e-09 -2.12896e-20 1.29115e-07 -2.53006e-21 1.16491e-07)
(1.00238e-07 1.38084e-09 4.30988e-21 1.29489e-07 3.9457e-22 1.16998e-07)
(8.33534e-08 9.0331e-09 -1.06784e-20 9.70631e-08 -1.34431e-21 8.82848e-08)
(8.45104e-08 8.04856e-09 -1.08322e-20 1.01272e-07 -1.31868e-21 9.06522e-08)
(8.72008e-08 6.97975e-09 -1.74989e-20 1.06967e-07 -2.28742e-21 9.45581e-08)
(9.12164e-08 5.81448e-09 3.01495e-20 1.13914e-07 3.8074e-21 9.97732e-08)
(9.66799e-08 4.61862e-09 5.0284e-21 1.22221e-07 6.83047e-22 1.06365e-07)
(1.03371e-07 3.54178e-09 -9.76682e-21 1.31409e-07 -1.32572e-21 1.13704e-07)
(1.13461e-07 3.25324e-09 2.5407e-20 1.43979e-07 3.22478e-21 1.23899e-07)
(1.26025e-07 1.92513e-09 -3.83342e-20 1.60192e-07 -4.81594e-21 1.37325e-07)
(7.12046e-08 3.03586e-09 1.41167e-20 6.33817e-08 1.79279e-21 7.47597e-08)
(7.02634e-08 2.38604e-09 4.74553e-21 6.34189e-08 6.46695e-22 7.47244e-08)
(6.95318e-08 1.83987e-09 -2.09063e-20 6.37219e-08 -2.60817e-21 7.48424e-08)
(6.90702e-08 1.32276e-09 -1.4308e-20 6.45464e-08 -1.89897e-21 7.53599e-08)
(6.99027e-08 6.04125e-10 5.50481e-21 6.71781e-08 7.69123e-22 7.76075e-08)
(7.59234e-08 -6.53264e-10 6.54655e-21 7.59362e-08 7.49069e-22 8.60937e-08)
(9.63515e-08 -3.92856e-09 -1.52873e-20 9.99517e-08 -1.9575e-21 1.10555e-07)
(1.19761e-07 -7.92982e-09 6.74575e-22 1.23084e-07 1.01822e-22 1.35443e-07)