/*--------------------------------*- C++ -*----------------------------------*\
| =========                 |                                                 |
| \\      /  F ield         | OpenFOAM: The Open Source CFD Toolbox           |
|  \\    /   O peration     | Version:  2306                                  |
|   \\  /    A nd           | Website:  www.openfoam.com                      |
|    \\/     M anipulation  |                                                 |
\*---------------------------------------------------------------------------*/
FoamFile
{
    version     2.0;
    format      ascii;
    arch        "LSB;label=32;scalar=64";
    class       volScalarField;
    location    "125";
    object      turbulenceProperties:nuEff;
}
// * * * * * * * * * * * * * * * * * * * * * * * * * * * * * * * * * * * * * //

dimensions      [0 2 -1 0 0 0 0];

internalField   nonuniform List<scalar> 
1340
(
0.10903
0.106743
0.104193
0.094687
0.072538
0.0741145
0.0775626
0.080798
0.0425512
0.0498724
0.0563202
0.0658679
0.0081919
0.0149863
0.0241909
0.0419998
0.000225215
0.000812646
0.00216353
0.0152935
3.00286e-05
0.000191012
0.000570705
0.00288541
1.0755e-05
1.00087e-05
1e-05
0.000697625
1.63729e-05
1.2443e-05
1.00137e-05
1e-05
1.6331e-05
1.6745e-05
1.35457e-05
1.00019e-05
1.62487e-05
1.5968e-05
1.88765e-05
1.04176e-05
1.62131e-05
1.58933e-05
1.7372e-05
1.40562e-05
1.61606e-05
1.60939e-05
1.62977e-05
1.6182e-05
1.61413e-05
1.61591e-05
1.61003e-05
1.63225e-05
1.61396e-05
1.61551e-05
1.61238e-05
1.62043e-05
1.61399e-05
1.61464e-05
1.61456e-05
1.61577e-05
1.61385e-05
1.61425e-05
1.61488e-05
1.61505e-05
1.61364e-05
1.61402e-05
1.61462e-05
1.615e-05
1.61342e-05
1.6138e-05
1.61433e-05
1.61485e-05
1.61322e-05
1.6136e-05
1.61408e-05
1.61464e-05
1.61303e-05
1.6134e-05
1.61386e-05
1.61442e-05
1.61284e-05
1.6132e-05
1.61364e-05
1.61419e-05
1.61263e-05
1.61298e-05
1.61341e-05
1.61395e-05
1.61242e-05
1.61276e-05
1.61317e-05
1.6137e-05
1.61223e-05
1.61255e-05
1.61293e-05
1.61344e-05
1.61203e-05
1.61234e-05
1.61271e-05
1.61319e-05
1.61183e-05
1.61212e-05
1.61248e-05
1.61294e-05
1.61162e-05
1.6119e-05
1.61224e-05
1.61268e-05
1.61143e-05
1.61169e-05
1.61201e-05
1.61243e-05
1.61124e-05
1.6115e-05
1.6118e-05
1.61218e-05
1.61106e-05
1.6113e-05
1.61159e-05
1.61195e-05
1.61088e-05
1.6111e-05
1.61138e-05
1.61172e-05
1.6107e-05
1.61091e-05
1.61117e-05
1.61149e-05
1.61052e-05
1.61072e-05
1.61096e-05
1.61126e-05
1.61034e-05
1.61053e-05
1.61076e-05
1.61104e-05
1.61017e-05
1.61035e-05
1.61056e-05
1.61082e-05
1.61e-05
1.61016e-05
1.61037e-05
1.61061e-05
1.60983e-05
1.60999e-05
1.61018e-05
1.6104e-05
1.60967e-05
1.60981e-05
1.60999e-05
1.6102e-05
1.60939e-05
1.60951e-05
1.60964e-05
1.60981e-05
1.61e-05
1.60924e-05
1.60935e-05
1.60948e-05
1.60964e-05
1.60981e-05
1.60909e-05
1.6092e-05
1.60931e-05
1.60947e-05
1.60963e-05
1.60895e-05
1.60905e-05
1.60916e-05
1.6093e-05
1.60945e-05
1.60881e-05
1.6089e-05
1.609e-05
1.60913e-05
1.60927e-05
1.60867e-05
1.60875e-05
1.60885e-05
1.60897e-05
1.6091e-05
1.60853e-05
1.60861e-05
1.6087e-05
1.60882e-05
1.60893e-05
1.6084e-05
1.60847e-05
1.60855e-05
1.60866e-05
1.60877e-05
1.60827e-05
1.60834e-05
1.60841e-05
1.60852e-05
1.60861e-05
1.60814e-05
1.6082e-05
1.60827e-05
1.60837e-05
1.60846e-05
1.60801e-05
1.60807e-05
1.60813e-05
1.60822e-05
1.60831e-05
1.60789e-05
1.60794e-05
1.608e-05
1.60808e-05
1.60816e-05
1.60776e-05
1.60781e-05
1.60787e-05
1.60795e-05
1.60802e-05
1.60765e-05
1.6077e-05
1.60775e-05
1.60782e-05
1.60788e-05
1.60752e-05
1.60756e-05
1.6076e-05
1.60764e-05
1.60771e-05
1.60777e-05
1.60745e-05
1.60748e-05
1.60752e-05
1.60756e-05
1.60762e-05
1.60767e-05
1.60741e-05
1.60744e-05
1.60748e-05
1.60752e-05
1.60757e-05
1.60762e-05
1.60741e-05
1.60744e-05
1.60748e-05
1.60751e-05
1.60757e-05
1.6076e-05
1.60745e-05
1.60748e-05
1.60751e-05
1.60755e-05
1.60759e-05
1.60763e-05
1.6075e-05
1.60753e-05
1.60756e-05
1.6076e-05
1.60764e-05
1.60767e-05
1.60756e-05
1.60759e-05
1.60762e-05
1.60766e-05
1.6077e-05
1.60773e-05
1.60762e-05
1.60765e-05
1.60769e-05
1.60772e-05
1.60777e-05
1.6078e-05
1.60771e-05
1.60774e-05
1.60777e-05
1.6078e-05
1.60784e-05
1.60787e-05
1.6078e-05
1.60783e-05
1.60786e-05
1.60789e-05
1.60792e-05
1.60796e-05
1.60798e-05
1.60797e-05
1.608e-05
1.60803e-05
1.60806e-05
1.60809e-05
1.60813e-05
1.60815e-05
1.60819e-05
1.60823e-05
1.60826e-05
1.60829e-05
1.60833e-05
1.60837e-05
1.60839e-05
1.60846e-05
1.6085e-05
1.60853e-05
1.60857e-05
1.60861e-05
1.60865e-05
1.60867e-05
1.60876e-05
1.60879e-05
1.60883e-05
1.60887e-05
1.60891e-05
1.60895e-05
1.60898e-05
1.60906e-05
1.6091e-05
1.60914e-05
1.60918e-05
1.60921e-05
1.60926e-05
1.60929e-05
1.60931e-05
1.60936e-05
1.6094e-05
1.60945e-05
1.6095e-05
1.60955e-05
1.60959e-05
1.60946e-05
1.60951e-05
1.60956e-05
1.60961e-05
1.60966e-05
1.60973e-05
1.60978e-05
1.60956e-05
1.6096e-05
1.60965e-05
1.60969e-05
1.60974e-05
1.60981e-05
1.60986e-05
1.60962e-05
1.60967e-05
1.60971e-05
1.60976e-05
1.60981e-05
1.60987e-05
1.60992e-05
1.60965e-05
1.60969e-05
1.60973e-05
1.60978e-05
1.60982e-05
1.60987e-05
1.60993e-05
1.60999e-05
1.60979e-05
1.60984e-05
1.60989e-05
1.60994e-05
1.60999e-05
1.61005e-05
1.61012e-05
1.61017e-05
1.61009e-05
1.61016e-05
1.61023e-05
1.6103e-05
1.61038e-05
1.61045e-05
1.61054e-05
1.61061e-05
1.61057e-05
1.61066e-05
1.61075e-05
1.61084e-05
1.61093e-05
1.61103e-05
1.61114e-05
1.61124e-05
1.61093e-05
1.61101e-05
1.61109e-05
1.61117e-05
1.61126e-05
1.61135e-05
1.61145e-05
1.61155e-05
1.61067e-05
1.61071e-05
1.61075e-05
1.61078e-05
1.61082e-05
1.61086e-05
1.61091e-05
1.61096e-05
1.61001e-05
1.61007e-05
1.61013e-05
1.61019e-05
1.61026e-05
1.61034e-05
1.61043e-05
1.61051e-05
1.6106e-05
1.61082e-05
1.61104e-05
1.61127e-05
1.6115e-05
1.61175e-05
1.61202e-05
1.61226e-05
1.61015e-05
1.61022e-05
1.61028e-05
1.61033e-05
1.61038e-05
1.61041e-05
1.61043e-05
1.61046e-05
0.118195
0.082898
0.0565361
0.0315142
0.00975201
0.00102616
0.00024454
1e-05
1.00032e-05
1.10974e-05
1.51521e-05
1.63724e-05
1.6307e-05
1.61884e-05
1.61549e-05
1.6151e-05
1.615e-05
1.61477e-05
1.61451e-05
1.61429e-05
1.61412e-05
1.61393e-05
1.61371e-05
1.61348e-05
1.61326e-05
1.61302e-05
1.61278e-05
1.61254e-05
1.6123e-05
1.61208e-05
1.61185e-05
1.61162e-05
1.61139e-05
1.61117e-05
1.61095e-05
1.61073e-05
1.61052e-05
1.61031e-05
1.61011e-05
1.60992e-05
1.60973e-05
1.60955e-05
1.60937e-05
1.60919e-05
1.60902e-05
1.60885e-05
1.60869e-05
1.60853e-05
1.60838e-05
1.60822e-05
1.60808e-05
1.60794e-05
1.60782e-05
1.60772e-05
1.60766e-05
1.60765e-05
1.60767e-05
1.60772e-05
1.60777e-05
1.60783e-05
1.60791e-05
1.60802e-05
1.6082e-05
1.60843e-05
1.60871e-05
1.60902e-05
1.60933e-05
1.60963e-05
1.60982e-05
1.6099e-05
1.60996e-05
1.61002e-05
1.61022e-05
1.61067e-05
1.61131e-05
1.6116e-05
1.61097e-05
1.61059e-05
1.61242e-05
1.6105e-05
0.132028
0.0817633
0.0441911
0.0187742
0.00396478
0.000971224
1e-05
1e-05
1.00197e-05
1.33283e-05
1.61021e-05
1.64017e-05
1.62468e-05
1.6167e-05
1.61508e-05
1.61489e-05
1.61475e-05
1.61455e-05
1.61434e-05
1.61418e-05
1.61405e-05
1.61389e-05
1.6137e-05
1.6135e-05
1.6133e-05
1.61308e-05
1.61285e-05
1.61261e-05
1.61239e-05
1.61217e-05
1.61194e-05
1.61171e-05
1.61149e-05
1.61126e-05
1.61104e-05
1.61082e-05
1.61061e-05
1.6104e-05
1.6102e-05
1.61e-05
1.60981e-05
1.60962e-05
1.60944e-05
1.60926e-05
1.60909e-05
1.60892e-05
1.60875e-05
1.60859e-05
1.60843e-05
1.60827e-05
1.60812e-05
1.60798e-05
1.60786e-05
1.60776e-05
1.6077e-05
1.60769e-05
1.60771e-05
1.60775e-05
1.60781e-05
1.60787e-05
1.60794e-05
1.60806e-05
1.60823e-05
1.60847e-05
1.60875e-05
1.60906e-05
1.60937e-05
1.60967e-05
1.60985e-05
1.60993e-05
1.60998e-05
1.61004e-05
1.61025e-05
1.61073e-05
1.61137e-05
1.61162e-05
1.61098e-05
1.61067e-05
1.61251e-05
1.61052e-05
0.107928
0.0623133
0.0278949
0.00788262
0.000567836
0.000126355
1e-05
1.00025e-05
1.07875e-05
1.58069e-05
1.64231e-05
1.63232e-05
1.61895e-05
1.6152e-05
1.61475e-05
1.61468e-05
1.61454e-05
1.61439e-05
1.61425e-05
1.61414e-05
1.61404e-05
1.6139e-05
1.61373e-05
1.61355e-05
1.61336e-05
1.61315e-05
1.61292e-05
1.6127e-05
1.61248e-05
1.61226e-05
1.61204e-05
1.61181e-05
1.61158e-05
1.61136e-05
1.61114e-05
1.61091e-05
1.6107e-05
1.61049e-05
1.61028e-05
1.61008e-05
1.60989e-05
1.6097e-05
1.60951e-05
1.60933e-05
1.60915e-05
1.60897e-05
1.60881e-05
1.60864e-05
1.60847e-05
1.60831e-05
1.60816e-05
1.60802e-05
1.6079e-05
1.6078e-05
1.60774e-05
1.60772e-05
1.60774e-05
1.60779e-05
1.60784e-05
1.6079e-05
1.60797e-05
1.60809e-05
1.60827e-05
1.60851e-05
1.6088e-05
1.6091e-05
1.60941e-05
1.60971e-05
1.60989e-05
1.60995e-05
1.61e-05
1.61007e-05
1.61029e-05
1.61078e-05
1.61143e-05
1.61164e-05
1.61098e-05
1.61076e-05
1.6126e-05
1.61055e-05
0.0653538
0.0210459
0.00660935
0.00116615
0.000293102
1e-05
1.00003e-05
1.01028e-05
1.39959e-05
1.68508e-05
1.63521e-05
1.62367e-05
1.61546e-05
1.61459e-05
1.61458e-05
1.61454e-05
1.61443e-05
1.61433e-05
1.61424e-05
1.61417e-05
1.61409e-05
1.61396e-05
1.61381e-05
1.61363e-05
1.61344e-05
1.61324e-05
1.61302e-05
1.6128e-05
1.61259e-05
1.61237e-05
1.61214e-05
1.61191e-05
1.61168e-05
1.61146e-05
1.61123e-05
1.61101e-05
1.61079e-05
1.61057e-05
1.61036e-05
1.61016e-05
1.60996e-05
1.60977e-05
1.60958e-05
1.60939e-05
1.60921e-05
1.60903e-05
1.60886e-05
1.60869e-05
1.60852e-05
1.60836e-05
1.6082e-05
1.60806e-05
1.60793e-05
1.60784e-05
1.60778e-05
1.60776e-05
1.60778e-05
1.60782e-05
1.60787e-05
1.60793e-05
1.60801e-05
1.60813e-05
1.60831e-05
1.60855e-05
1.60884e-05
1.60914e-05
1.60946e-05
1.60975e-05
1.60992e-05
1.60998e-05
1.61002e-05
1.6101e-05
1.61033e-05
1.61084e-05
1.61149e-05
1.61166e-05
1.61098e-05
1.61086e-05
1.6127e-05
1.61057e-05
0.168792
0.0661599
0.00118827
0.000457583
1.00002e-05
1e-05
1.00143e-05
1.20839e-05
1.67715e-05
1.67251e-05
1.62186e-05
1.61817e-05
1.61398e-05
1.61446e-05
1.61449e-05
1.61446e-05
1.61439e-05
1.61434e-05
1.61429e-05
1.61425e-05
1.61417e-05
1.61405e-05
1.6139e-05
1.61374e-05
1.61355e-05
1.61334e-05
1.61313e-05
1.61292e-05
1.6127e-05
1.61248e-05
1.61225e-05
1.61202e-05
1.61179e-05
1.61156e-05
1.61133e-05
1.6111e-05
1.61088e-05
1.61066e-05
1.61045e-05
1.61025e-05
1.61004e-05
1.60985e-05
1.60965e-05
1.60946e-05
1.60928e-05
1.6091e-05
1.60892e-05
1.60874e-05
1.60857e-05
1.6084e-05
1.60825e-05
1.6081e-05
1.60797e-05
1.60788e-05
1.60782e-05
1.6078e-05
1.60782e-05
1.60786e-05
1.60791e-05
1.60797e-05
1.60804e-05
1.60817e-05
1.60835e-05
1.6086e-05
1.60889e-05
1.60919e-05
1.60951e-05
1.6098e-05
1.60996e-05
1.61001e-05
1.61005e-05
1.61013e-05
1.61038e-05
1.61091e-05
1.61155e-05
1.61168e-05
1.61099e-05
1.61097e-05
1.61281e-05
1.61058e-05
0.370675
0.234141
0.0967876
0.0107944
0.000215479
2.88192e-05
1.0582e-05
1.69146e-05
1.71554e-05
1.63511e-05
1.61508e-05
1.61545e-05
1.61369e-05
1.61447e-05
1.61443e-05
1.61443e-05
1.61441e-05
1.6144e-05
1.61438e-05
1.61434e-05
1.61427e-05
1.61416e-05
1.61401e-05
1.61385e-05
1.61366e-05
1.61346e-05
1.61325e-05
1.61304e-05
1.61282e-05
1.6126e-05
1.61237e-05
1.61213e-05
1.6119e-05
1.61167e-05
1.61143e-05
1.6112e-05
1.61097e-05
1.61076e-05
1.61054e-05
1.61033e-05
1.61013e-05
1.60993e-05
1.60973e-05
1.60953e-05
1.60935e-05
1.60916e-05
1.60898e-05
1.6088e-05
1.60862e-05
1.60845e-05
1.60829e-05
1.60815e-05
1.60802e-05
1.60792e-05
1.60786e-05
1.60784e-05
1.60786e-05
1.6079e-05
1.60795e-05
1.608e-05
1.60808e-05
1.60821e-05
1.6084e-05
1.60865e-05
1.60894e-05
1.60924e-05
1.60956e-05
1.60985e-05
1.60999e-05
1.61004e-05
1.61008e-05
1.61016e-05
1.61043e-05
1.61098e-05
1.61162e-05
1.6117e-05
1.611e-05
1.61109e-05
0.464063
0.333635
0.186954
0.0524148
0.0127427
1e-05
1.00406e-05
1.95562e-05
1.65874e-05
1.61405e-05
1.61422e-05
1.61418e-05
1.61392e-05
1.61449e-05
1.61442e-05
1.61447e-05
1.61448e-05
1.6145e-05
1.6145e-05
1.61447e-05
1.61439e-05
1.61428e-05
1.61414e-05
1.61397e-05
1.61379e-05
1.61359e-05
1.61338e-05
1.61317e-05
1.61295e-05
1.61272e-05
1.61249e-05
1.61225e-05
1.61202e-05
1.61178e-05
1.61154e-05
1.6113e-05
1.61108e-05
1.61085e-05
1.61064e-05
1.61042e-05
1.61021e-05
1.61001e-05
1.60981e-05
1.60961e-05
1.60942e-05
1.60923e-05
1.60904e-05
1.60886e-05
1.60868e-05
1.60851e-05
1.60834e-05
1.60819e-05
1.60806e-05
1.60797e-05
1.60791e-05
1.60789e-05
1.60791e-05
1.60794e-05
1.60799e-05
1.60804e-05
1.60812e-05
1.60826e-05
1.60845e-05
1.60871e-05
1.60899e-05
1.6093e-05
1.60962e-05
1.6099e-05
1.61004e-05
1.61007e-05
1.61011e-05
1.6102e-05
1.61049e-05
1.61106e-05
1.61169e-05
1.61172e-05
0.426548
0.312914
0.183628
0.058005
0.0141354
1.00005e-05
1.01597e-05
1.72492e-05
1.59557e-05
1.61421e-05
1.61435e-05
1.61382e-05
1.61427e-05
1.61452e-05
1.6145e-05
1.61458e-05
1.61462e-05
1.61465e-05
1.61465e-05
1.61461e-05
1.61454e-05
1.61442e-05
1.61428e-05
1.61411e-05
1.61393e-05
1.61373e-05
1.61353e-05
1.61331e-05
1.61309e-05
1.61286e-05
1.61262e-05
1.61238e-05
1.61214e-05
1.61189e-05
1.61165e-05
1.61142e-05
1.61118e-05
1.61096e-05
1.61074e-05
1.61052e-05
1.61031e-05
1.6101e-05
1.60989e-05
1.60969e-05
1.60949e-05
1.6093e-05
1.60911e-05
1.60892e-05
1.60874e-05
1.60856e-05
1.60839e-05
1.60824e-05
1.60811e-05
1.60801e-05
1.60796e-05
1.60794e-05
1.60795e-05
1.60799e-05
1.60803e-05
1.60808e-05
1.60817e-05
1.60831e-05
1.60851e-05
1.60877e-05
1.60905e-05
1.60936e-05
1.60968e-05
1.60995e-05
1.61008e-05
1.61011e-05
1.61014e-05
1.61024e-05
1.61055e-05
1.61115e-05
0.31621
0.217976
0.112669
0.0276006
0.000119315
1.51553e-05
1.22602e-05
1.91176e-05
1.55784e-05
1.62498e-05
1.61279e-05
1.61433e-05
1.61458e-05
1.61467e-05
1.61471e-05
1.61479e-05
1.61484e-05
1.61486e-05
1.61485e-05
1.61481e-05
1.61472e-05
1.6146e-05
1.61445e-05
1.61428e-05
1.61409e-05
1.61389e-05
1.61369e-05
1.61347e-05
1.61324e-05
1.613e-05
1.61276e-05
1.61252e-05
1.61227e-05
1.61202e-05
1.61177e-05
1.61153e-05
1.6113e-05
1.61107e-05
1.61084e-05
1.61062e-05
1.61041e-05
1.61019e-05
1.60998e-05
1.60978e-05
1.60958e-05
1.60938e-05
1.60918e-05
1.60899e-05
1.6088e-05
1.60862e-05
1.60845e-05
1.6083e-05
1.60816e-05
1.60807e-05
1.60801e-05
1.60799e-05
1.608e-05
1.60804e-05
1.60808e-05
1.60813e-05
1.60822e-05
1.60836e-05
1.60857e-05
1.60883e-05
1.60912e-05
1.60942e-05
1.60974e-05
1.61001e-05
1.61013e-05
1.61015e-05
1.61018e-05
0.180672
0.102969
0.0370175
0.00374646
0.000219916
3.16331e-05
1.12765e-05
1.96492e-05
1.55332e-05
1.632e-05
1.6113e-05
1.61534e-05
1.61492e-05
1.61502e-05
1.61508e-05
1.61514e-05
1.61516e-05
1.61516e-05
1.61513e-05
1.61506e-05
1.61495e-05
1.61481e-05
1.61465e-05
1.61448e-05
1.61428e-05
1.61408e-05
1.61387e-05
1.61364e-05
1.6134e-05
1.61316e-05
1.61291e-05
1.61266e-05
1.61241e-05
1.61216e-05
1.61191e-05
1.61166e-05
1.61142e-05
1.61119e-05
1.61096e-05
1.61073e-05
1.61051e-05
1.61029e-05
1.61008e-05
1.60987e-05
1.60966e-05
1.60946e-05
1.60926e-05
1.60906e-05
1.60887e-05
1.60868e-05
1.60851e-05
1.60835e-05
1.60822e-05
1.60812e-05
1.60807e-05
1.60805e-05
1.60806e-05
1.60809e-05
1.60813e-05
1.60818e-05
1.60827e-05
1.60842e-05
1.60864e-05
1.6089e-05
1.60919e-05
1.60949e-05
0.0642868
0.0239581
0.00325867
0.00084861
1.00001e-05
1.00192e-05
1.53906e-05
1.72478e-05
1.58596e-05
1.62742e-05
1.61225e-05
1.61628e-05
1.6155e-05
1.61561e-05
1.61562e-05
1.61563e-05
1.61561e-05
1.61556e-05
1.61549e-05
1.61538e-05
1.61525e-05
1.61509e-05
1.61491e-05
1.61472e-05
1.61452e-05
1.6143e-05
1.61408e-05
1.61384e-05
1.61359e-05
1.61334e-05
1.61308e-05
1.61282e-05
1.61256e-05
1.6123e-05
1.61205e-05
1.6118e-05
1.61156e-05
1.61132e-05
1.61108e-05
1.61085e-05
1.61062e-05
1.6104e-05
1.61018e-05
1.60996e-05
1.60975e-05
1.60954e-05
1.60934e-05
1.60913e-05
1.60894e-05
1.60875e-05
1.60857e-05
1.60841e-05
1.60828e-05
1.60818e-05
1.60813e-05
1.60811e-05
1.60812e-05
1.60814e-05
1.60818e-05
1.60824e-05
1.60833e-05
0.00870458
9.82254e-05
3.19261e-05
1e-05
1.00002e-05
1.0052e-05
2.00314e-05
1.58735e-05
1.62068e-05
1.61955e-05
1.61505e-05
1.61705e-05
1.61638e-05
1.61642e-05
1.61635e-05
1.61628e-05
1.61619e-05
1.61608e-05
1.61595e-05
1.61579e-05
1.61562e-05
1.61543e-05
1.61523e-05
1.61502e-05
1.61479e-05
1.61456e-05
1.61432e-05
1.61407e-05
1.61381e-05
1.61354e-05
1.61327e-05
1.613e-05
1.61274e-05
1.61247e-05
1.61221e-05
1.61195e-05
1.6117e-05
1.61146e-05
1.61122e-05
1.61098e-05
1.61074e-05
1.61051e-05
1.61029e-05
1.61007e-05
1.60985e-05
1.60964e-05
1.60942e-05
1.60921e-05
1.60901e-05
1.60882e-05
1.60864e-05
1.60848e-05
1.60835e-05
1.60825e-05
0.000182366
1e-05
1e-05
1e-05
1.0019e-05
1.48658e-05
1.77044e-05
1.58533e-05
1.62903e-05
1.61669e-05
1.61773e-05
1.61793e-05
1.61748e-05
1.61739e-05
1.61722e-05
1.61705e-05
1.61688e-05
1.6167e-05
1.6165e-05
1.61629e-05
1.61607e-05
1.61584e-05
1.61561e-05
1.61537e-05
1.61512e-05
1.61486e-05
1.6146e-05
1.61433e-05
1.61405e-05
1.61377e-05
1.61349e-05
1.61321e-05
1.61293e-05
1.61265e-05
1.61238e-05
1.61212e-05
1.61186e-05
1.61161e-05
1.61136e-05
1.61112e-05
1.61088e-05
1.61064e-05
)
;

boundaryField
{
    inlet
    {
        type            calculated;
        value           uniform 2e-05;
    }
    outlet
    {
        type            calculated;
        value           nonuniform List<scalar> 0();
    }
    walls
    {
        type            calculated;
        value           nonuniform List<scalar> 4(0.00278509 0.00271854 0.00262587 0.00236267);
    }
    frontAndBack
    {
        type            empty;
    }
    procBoundary2to1
    {
        type            processor;
        value           nonuniform List<scalar> 
84
(
0.110563
0.0707186
0.034021
0.00374576
0.000278471
1.00095e-05
1.2755e-05
1.64412e-05
1.61864e-05
1.61207e-05
1.61268e-05
1.61358e-05
1.61396e-05
1.61386e-05
1.61369e-05
1.61349e-05
1.61328e-05
1.61308e-05
1.61289e-05
1.61271e-05
1.61253e-05
1.61233e-05
1.61214e-05
1.61196e-05
1.61177e-05
1.61158e-05
1.61139e-05
1.61121e-05
1.61103e-05
1.61086e-05
1.61069e-05
1.61052e-05
1.61035e-05
1.61018e-05
1.61002e-05
1.60986e-05
1.6097e-05
1.60954e-05
1.60954e-05
1.60929e-05
1.60914e-05
1.609e-05
1.60887e-05
1.60873e-05
1.6086e-05
1.60847e-05
1.60834e-05
1.60821e-05
1.60809e-05
1.60796e-05
1.60784e-05
1.60772e-05
1.60761e-05
1.60761e-05
1.60749e-05
1.60742e-05
1.60738e-05
1.60738e-05
1.60742e-05
1.60747e-05
1.60753e-05
1.6076e-05
1.60768e-05
1.60768e-05
1.60777e-05
1.60793e-05
1.60816e-05
1.60842e-05
1.60872e-05
1.60901e-05
1.60927e-05
1.60942e-05
1.60951e-05
1.60958e-05
1.60958e-05
1.6096e-05
1.60973e-05
1.61002e-05
1.61048e-05
1.61084e-05
1.61063e-05
1.60996e-05
1.61038e-05
1.61006e-05
)
;
    }
    procBoundary2to3
    {
        type            processor;
        value           nonuniform List<scalar> 
88
(
1.61292e-05
1.61058e-05
1.61102e-05
1.61292e-05
1.61122e-05
1.61177e-05
1.61102e-05
1.61174e-05
1.61029e-05
1.61063e-05
1.61177e-05
1.61124e-05
1.60981e-05
1.61008e-05
1.61018e-05
1.61019e-05
1.61029e-05
1.61022e-05
1.60849e-05
1.60871e-05
1.60898e-05
1.60927e-05
1.60981e-05
1.60957e-05
1.60819e-05
1.60817e-05
1.60818e-05
1.6082e-05
1.60824e-05
1.6083e-05
1.60849e-05
1.6084e-05
1.61041e-05
1.61018e-05
1.60996e-05
1.60973e-05
1.60951e-05
1.6093e-05
1.60909e-05
1.6089e-05
1.60871e-05
1.60855e-05
1.60842e-05
1.60819e-05
1.60832e-05
1e-05
1e-05
1e-05
1.00098e-05
1.2561e-05
1.77442e-05
1.62396e-05
1.61469e-05
1.62436e-05
1.61821e-05
1.61951e-05
1.61899e-05
1.61865e-05
1.61841e-05
1.61814e-05
1.61788e-05
1.61763e-05
1.61737e-05
1.6171e-05
1.61684e-05
1.61657e-05
1.6163e-05
1.61603e-05
1.61575e-05
1.61548e-05
1.61519e-05
1.6149e-05
1.61461e-05
1.61431e-05
1.61401e-05
1.61372e-05
1.61342e-05
1.61313e-05
1.61285e-05
1.61257e-05
1.6123e-05
1.61204e-05
1.61178e-05
1.61152e-05
1.61126e-05
1.61101e-05
1.61041e-05
1.61077e-05
)
;
    }
    procBoundary2to6
    {
        type            processor;
        value           nonuniform List<scalar> 
13
(
0.148474
0.182515
0.156985
0.124677
0.26581
0.484672
0.57385
0.52688
0.407423
0.260867
0.119629
0.0281358
0.000456933
)
;
    }
}


// ************************************************************************* //
