/*--------------------------------*- C++ -*----------------------------------*\
| =========                 |                                                 |
| \\      /  F ield         | OpenFOAM: The Open Source CFD Toolbox           |
|  \\    /   O peration     | Version:  2306                                  |
|   \\  /    A nd           | Website:  www.openfoam.com                      |
|    \\/     M anipulation  |                                                 |
\*---------------------------------------------------------------------------*/
FoamFile
{
    version     2.0;
    format      ascii;
    arch        "LSB;label=32;scalar=64";
    class       volScalarField;
    location    "675";
    object      nuTilda;
}
// * * * * * * * * * * * * * * * * * * * * * * * * * * * * * * * * * * * * * //

dimensions      [0 2 -1 0 0 0 0];

internalField   nonuniform List<scalar> 
1340
(
0.0869137
0.0784804
0.0690232
0.0538298
0.153837
0.148548
0.139892
0.147212
0.206322
0.20758
0.201627
0.212134
0.215348
0.231944
0.239195
0.255721
0.175038
0.217169
0.248055
0.278392
0.093235
0.160383
0.223981
0.278353
0.0214739
0.0782741
0.166181
0.252335
0.000849505
0.0170941
0.0903563
0.200102
0.000197333
0.0046377
0.0306293
0.13291
0
1.02238e-05
0.000472164
0.0724408
0
0
0.000806406
0.0333204
7.67627e-06
0
0.000287321
0.0131196
3.07336e-05
1.2395e-06
9.97532e-05
0.00434455
4.61031e-05
1.82314e-06
2.68121e-05
0.00111212
4.51987e-05
3.20216e-05
3.36701e-06
9.84852e-05
4.06498e-05
4.54679e-05
2.01353e-06
2.26844e-05
3.84339e-05
4.89743e-05
3.2311e-06
9.01834e-08
3.85249e-05
4.54687e-05
2.79263e-05
3.70356e-06
3.93833e-05
4.15249e-05
4.13718e-05
1.33641e-05
4.00155e-05
3.96357e-05
4.40484e-05
2.83646e-05
4.02346e-05
3.93637e-05
4.26142e-05
3.70398e-05
4.02178e-05
3.96692e-05
4.09926e-05
4.01603e-05
4.01454e-05
3.99562e-05
4.01917e-05
4.06391e-05
4.00961e-05
4.00856e-05
3.99891e-05
4.04014e-05
4.00777e-05
4.01105e-05
4.00118e-05
4.01803e-05
4.00754e-05
4.01e-05
4.0061e-05
4.0093e-05
4.00771e-05
4.00881e-05
4.00846e-05
4.00802e-05
4.00782e-05
4.00825e-05
4.00885e-05
4.00866e-05
4.00782e-05
4.00809e-05
4.00859e-05
4.0091e-05
4.00778e-05
4.00806e-05
4.00832e-05
4.00912e-05
4.00773e-05
4.00804e-05
4.00818e-05
4.00897e-05
4.00771e-05
4.008e-05
4.00811e-05
4.00883e-05
4.00769e-05
4.00797e-05
4.00807e-05
4.00872e-05
4.00755e-05
4.00769e-05
4.00794e-05
4.00804e-05
4.00863e-05
4.00756e-05
4.00769e-05
4.00793e-05
4.00801e-05
4.00857e-05
4.00758e-05
4.0077e-05
4.00792e-05
4.008e-05
4.00852e-05
4.0076e-05
4.00771e-05
4.00792e-05
4.00799e-05
4.00848e-05
4.00763e-05
4.00773e-05
4.00793e-05
4.00799e-05
4.00844e-05
4.00766e-05
4.00776e-05
4.00794e-05
4.008e-05
4.00842e-05
4.00769e-05
4.00779e-05
4.00796e-05
4.00801e-05
4.00841e-05
4.00773e-05
4.00782e-05
4.00799e-05
4.00804e-05
4.0084e-05
4.00776e-05
4.00785e-05
4.00801e-05
4.00806e-05
4.00841e-05
4.0078e-05
4.00789e-05
4.00804e-05
4.00809e-05
4.00842e-05
4.00784e-05
4.00792e-05
4.00807e-05
4.00812e-05
4.00843e-05
4.00787e-05
4.00796e-05
4.0081e-05
4.00815e-05
4.00845e-05
4.00781e-05
4.0079e-05
4.00799e-05
4.00813e-05
4.00819e-05
4.00847e-05
4.00783e-05
4.00792e-05
4.00801e-05
4.00815e-05
4.00822e-05
4.00848e-05
4.00784e-05
4.00794e-05
4.00803e-05
4.00817e-05
4.00824e-05
4.0085e-05
4.00785e-05
4.00795e-05
4.00805e-05
4.00818e-05
4.00826e-05
4.00851e-05
4.00785e-05
4.00795e-05
4.00805e-05
4.00819e-05
4.00827e-05
4.00852e-05
4.00783e-05
4.00793e-05
4.00804e-05
4.00818e-05
4.00827e-05
4.00852e-05
4.0078e-05
4.00791e-05
4.00802e-05
4.00816e-05
4.00826e-05
4.0085e-05
4.00776e-05
4.00787e-05
4.00798e-05
4.00813e-05
4.00824e-05
4.00847e-05
4.00769e-05
4.00781e-05
4.00793e-05
4.00808e-05
4.0082e-05
4.00843e-05
4.0075e-05
4.00761e-05
4.00773e-05
4.00786e-05
4.00801e-05
4.00814e-05
4.00837e-05
4.00739e-05
4.00751e-05
4.00763e-05
4.00776e-05
4.00792e-05
4.00806e-05
4.00829e-05
4.00726e-05
4.00738e-05
4.00751e-05
4.00765e-05
4.00781e-05
4.00796e-05
4.00819e-05
4.00711e-05
4.00724e-05
4.00737e-05
4.00751e-05
4.00768e-05
4.00783e-05
4.00806e-05
4.00694e-05
4.00707e-05
4.00721e-05
4.00735e-05
4.00752e-05
4.00768e-05
4.00791e-05
4.00674e-05
4.00687e-05
4.00702e-05
4.00717e-05
4.00734e-05
4.00751e-05
4.00774e-05
4.00649e-05
4.00663e-05
4.00678e-05
4.00694e-05
4.00712e-05
4.00731e-05
4.00754e-05
4.00602e-05
4.00617e-05
4.00632e-05
4.00649e-05
4.00666e-05
4.00685e-05
4.00705e-05
4.0073e-05
4.00561e-05
4.00577e-05
4.00593e-05
4.0061e-05
4.00629e-05
4.0065e-05
4.00671e-05
4.00698e-05
4.00515e-05
4.0053e-05
4.00546e-05
4.00564e-05
4.00583e-05
4.00605e-05
4.00628e-05
4.00656e-05
4.00466e-05
4.0048e-05
4.00496e-05
4.00513e-05
4.00532e-05
4.00553e-05
4.00577e-05
4.00606e-05
4.00416e-05
4.0043e-05
4.00445e-05
4.00461e-05
4.00478e-05
4.00499e-05
4.00522e-05
4.0055e-05
4.00367e-05
4.00381e-05
4.00395e-05
4.00411e-05
4.00427e-05
4.00447e-05
4.00468e-05
4.00494e-05
4.00321e-05
4.00335e-05
4.0035e-05
4.00365e-05
4.00383e-05
4.00402e-05
4.00423e-05
4.00447e-05
4.00261e-05
4.00273e-05
4.00287e-05
4.00302e-05
4.00318e-05
4.00335e-05
4.00355e-05
4.00376e-05
4.00401e-05
4.00211e-05
4.00222e-05
4.00235e-05
4.00248e-05
4.00263e-05
4.00279e-05
4.00298e-05
4.00319e-05
4.00344e-05
4.0016e-05
4.0017e-05
4.00181e-05
4.00192e-05
4.00205e-05
4.0022e-05
4.00236e-05
4.00255e-05
4.00278e-05
4.0011e-05
4.00118e-05
4.00127e-05
4.00137e-05
4.00148e-05
4.0016e-05
4.00175e-05
4.00191e-05
4.00212e-05
4.00066e-05
4.0007e-05
4.00075e-05
4.00081e-05
4.00088e-05
4.00097e-05
4.00108e-05
4.00121e-05
4.00137e-05
4.0007e-05
4.00068e-05
4.00066e-05
4.00064e-05
4.00064e-05
4.00065e-05
4.00068e-05
4.00073e-05
4.0008e-05
4.00122e-05
4.00119e-05
4.00116e-05
4.00112e-05
4.00108e-05
4.00104e-05
4.001e-05
4.00097e-05
4.00094e-05
4.00184e-05
4.00181e-05
4.00177e-05
4.00172e-05
4.00167e-05
4.00161e-05
4.00154e-05
4.00146e-05
4.00136e-05
4.00261e-05
4.00262e-05
4.00264e-05
4.00266e-05
4.00267e-05
4.00267e-05
4.00267e-05
4.00267e-05
4.00265e-05
4.00321e-05
4.00322e-05
4.0032e-05
4.00318e-05
4.00314e-05
4.0031e-05
4.00306e-05
4.00301e-05
4.00299e-05
4.00297e-05
4.00425e-05
4.00442e-05
4.0046e-05
4.0048e-05
4.005e-05
4.0052e-05
4.00541e-05
4.00563e-05
4.00589e-05
4.00614e-05
4.00602e-05
4.00605e-05
4.00607e-05
4.00608e-05
4.00608e-05
4.00607e-05
4.00609e-05
4.00614e-05
4.00623e-05
4.0063e-05
0.172961
0.215403
0.255584
0.30008
0.326414
0.329396
0.307323
0.258825
0.186623
0.105684
0.043895
0.0155132
0.00482336
0.00111884
7.2267e-05
1.63154e-05
0
1.61192e-06
7.63502e-06
2.55367e-05
3.60738e-05
4.00578e-05
4.07632e-05
4.05056e-05
4.02276e-05
4.0108e-05
4.00853e-05
4.00915e-05
4.00972e-05
4.00979e-05
4.0096e-05
4.0094e-05
4.00924e-05
4.00911e-05
4.00901e-05
4.00892e-05
4.00884e-05
4.00877e-05
4.00872e-05
4.00868e-05
4.00864e-05
4.00862e-05
4.0086e-05
4.00859e-05
4.00859e-05
4.00859e-05
4.00859e-05
4.00858e-05
4.00858e-05
4.00858e-05
4.00857e-05
4.00857e-05
4.00855e-05
4.00851e-05
4.00846e-05
4.00839e-05
4.00829e-05
4.00817e-05
4.00803e-05
4.00786e-05
4.00766e-05
4.00742e-05
4.00712e-05
4.00671e-05
4.00621e-05
4.00564e-05
4.00507e-05
4.0046e-05
4.00414e-05
4.00357e-05
4.0029e-05
4.00221e-05
4.00145e-05
4.00084e-05
4.00092e-05
4.00133e-05
4.00263e-05
4.00295e-05
4.0063e-05
4.00634e-05
0.213998
0.258737
0.288635
0.317016
0.345761
0.357733
0.345377
0.305885
0.23944
0.152988
0.068934
0.0208574
0.00565512
0.00140212
0.00011211
2.54566e-05
0
1.13258e-06
5.33081e-06
2.36316e-05
3.53837e-05
3.99268e-05
4.08089e-05
4.05638e-05
4.02574e-05
4.01172e-05
4.00873e-05
4.00927e-05
4.0099e-05
4.00998e-05
4.00977e-05
4.00954e-05
4.00935e-05
4.00922e-05
4.00911e-05
4.00901e-05
4.00893e-05
4.00886e-05
4.00881e-05
4.00876e-05
4.00872e-05
4.0087e-05
4.00868e-05
4.00867e-05
4.00866e-05
4.00866e-05
4.00865e-05
4.00865e-05
4.00865e-05
4.00864e-05
4.00864e-05
4.00864e-05
4.00862e-05
4.00859e-05
4.00854e-05
4.00847e-05
4.00838e-05
4.00826e-05
4.00812e-05
4.00795e-05
4.00776e-05
4.00752e-05
4.00722e-05
4.00681e-05
4.00631e-05
4.00573e-05
4.00516e-05
4.00468e-05
4.00422e-05
4.00365e-05
4.00297e-05
4.00227e-05
4.00151e-05
4.00086e-05
4.00091e-05
4.00132e-05
4.00261e-05
4.00294e-05
4.00641e-05
0.217823
0.269171
0.303802
0.326774
0.347902
0.366373
0.368528
0.346277
0.296135
0.21906
0.124827
0.0438967
0.00721157
0.000811179
0.000189308
0
0
3.50074e-07
1.63775e-06
1.98253e-05
3.38039e-05
3.96405e-05
4.08824e-05
4.06521e-05
4.03019e-05
4.01307e-05
4.00881e-05
4.00912e-05
4.00987e-05
4.01006e-05
4.00988e-05
4.00965e-05
4.00945e-05
4.00931e-05
4.00921e-05
4.00911e-05
4.00903e-05
4.00896e-05
4.0089e-05
4.00886e-05
4.00882e-05
4.00879e-05
4.00877e-05
4.00876e-05
4.00875e-05
4.00875e-05
4.00875e-05
4.00874e-05
4.00874e-05
4.00873e-05
4.00873e-05
4.00873e-05
4.00872e-05
4.00869e-05
4.00864e-05
4.00857e-05
4.00848e-05
4.00837e-05
4.00822e-05
4.00806e-05
4.00786e-05
4.00763e-05
4.00732e-05
4.00692e-05
4.00642e-05
4.00584e-05
4.00525e-05
4.00477e-05
4.0043e-05
4.00373e-05
4.00305e-05
4.00234e-05
4.00156e-05
4.00088e-05
4.0009e-05
4.00131e-05
4.00259e-05
4.00293e-05
0.202672
0.258535
0.300413
0.328236
0.34652
0.362703
0.374799
0.371351
0.344253
0.289372
0.207396
0.110565
0.0326032
0.000720229
0.000166236
0
0
0
3.32274e-06
1.53141e-05
3.08526e-05
3.86417e-05
4.0852e-05
4.08148e-05
4.0391e-05
4.01528e-05
4.00883e-05
4.00888e-05
4.00978e-05
4.01013e-05
4.01002e-05
4.00978e-05
4.00958e-05
4.00944e-05
4.00933e-05
4.00924e-05
4.00915e-05
4.00908e-05
4.00902e-05
4.00897e-05
4.00893e-05
4.0089e-05
4.00888e-05
4.00886e-05
4.00886e-05
4.00885e-05
4.00885e-05
4.00885e-05
4.00885e-05
4.00884e-05
4.00884e-05
4.00884e-05
4.00883e-05
4.0088e-05
4.00875e-05
4.00868e-05
4.00859e-05
4.00848e-05
4.00834e-05
4.00817e-05
4.00797e-05
4.00774e-05
4.00744e-05
4.00703e-05
4.00653e-05
4.00594e-05
4.00535e-05
4.00486e-05
4.00439e-05
4.00381e-05
4.00312e-05
4.0024e-05
4.00162e-05
4.00091e-05
4.00089e-05
4.00131e-05
4.00257e-05
0.172721
0.232714
0.281663
0.317718
0.341525
0.356922
0.369866
0.378296
0.372099
0.343189
0.286796
0.203229
0.106152
0.0281453
0.0072281
0
0
0
2.40378e-07
1.11869e-06
2.46934e-05
3.7436e-05
4.08167e-05
4.09511e-05
4.05338e-05
4.02146e-05
4.00921e-05
4.00824e-05
4.00957e-05
4.01018e-05
4.01016e-05
4.00995e-05
4.00974e-05
4.00958e-05
4.00947e-05
4.00937e-05
4.00929e-05
4.00921e-05
4.00915e-05
4.00909e-05
4.00905e-05
4.00902e-05
4.009e-05
4.00898e-05
4.00897e-05
4.00897e-05
4.00896e-05
4.00896e-05
4.00896e-05
4.00895e-05
4.00895e-05
4.00895e-05
4.00894e-05
4.00891e-05
4.00887e-05
4.0088e-05
4.00871e-05
4.0086e-05
4.00845e-05
4.00829e-05
4.00809e-05
4.00786e-05
4.00756e-05
4.00716e-05
4.00665e-05
4.00605e-05
4.00546e-05
4.00496e-05
4.00448e-05
4.0039e-05
4.00321e-05
4.00247e-05
4.00169e-05
4.00094e-05
4.00088e-05
4.0013e-05
0.130219
0.193691
0.249319
0.294155
0.327073
0.348797
0.362585
0.373394
0.379783
0.372517
0.34347
0.287293
0.204068
0.106387
0.029765
0.00772443
1.04437e-05
0
0
3.75497e-07
1.59193e-06
2.93159e-05
4.07072e-05
4.16625e-05
4.07055e-05
4.02761e-05
4.01271e-05
4.00817e-05
4.00888e-05
4.01018e-05
4.0104e-05
4.01014e-05
4.00989e-05
4.00973e-05
4.00962e-05
4.00952e-05
4.00943e-05
4.00935e-05
4.00928e-05
4.00923e-05
4.00918e-05
4.00915e-05
4.00912e-05
4.0091e-05
4.00909e-05
4.00909e-05
4.00908e-05
4.00908e-05
4.00908e-05
4.00907e-05
4.00907e-05
4.00907e-05
4.00906e-05
4.00903e-05
4.00899e-05
4.00893e-05
4.00884e-05
4.00872e-05
4.00858e-05
4.00841e-05
4.00822e-05
4.00798e-05
4.00768e-05
4.00728e-05
4.00678e-05
4.00617e-05
4.00557e-05
4.00506e-05
4.00458e-05
4.00399e-05
4.0033e-05
4.00254e-05
4.00175e-05
4.00097e-05
0.0788917
0.142589
0.203882
0.25708
0.299947
0.331567
0.352538
0.365593
0.374962
0.380289
0.373002
0.34488
0.290106
0.20799
0.111262
0.0348818
0.000420984
0.000130601
0
0
4.8045e-08
7.57986e-06
3.1195e-05
4.26428e-05
4.2101e-05
4.04177e-05
4.00563e-05
4.00876e-05
4.00912e-05
4.00923e-05
4.01016e-05
4.01044e-05
4.01016e-05
4.0099e-05
4.00977e-05
4.00967e-05
4.00958e-05
4.0095e-05
4.00943e-05
4.00937e-05
4.00932e-05
4.00928e-05
4.00925e-05
4.00923e-05
4.00922e-05
4.00921e-05
4.00921e-05
4.00921e-05
4.00921e-05
4.0092e-05
4.0092e-05
4.00919e-05
4.00919e-05
4.00916e-05
4.00912e-05
4.00906e-05
4.00897e-05
4.00885e-05
4.00871e-05
4.00854e-05
4.00835e-05
4.00811e-05
4.00782e-05
4.00742e-05
4.00691e-05
4.0063e-05
4.00569e-05
4.00517e-05
4.00469e-05
4.00409e-05
4.00339e-05
4.00262e-05
0.0299995
0.0828622
0.145792
0.206046
0.25848
0.300992
0.332661
0.353869
0.36686
0.37528
0.380186
0.373575
0.347111
0.294494
0.214327
0.119925
0.0402584
0.00134774
0.000407057
0
0
0
7.2426e-06
2.93325e-05
4.32926e-05
4.26354e-05
4.02735e-05
3.98771e-05
4.00826e-05
4.01325e-05
4.01064e-05
4.00993e-05
4.01021e-05
4.01017e-05
4.00997e-05
4.00983e-05
4.00974e-05
4.00966e-05
4.00958e-05
4.00952e-05
4.00946e-05
4.00942e-05
4.00939e-05
4.00937e-05
4.00935e-05
4.00935e-05
4.00934e-05
4.00934e-05
4.00934e-05
4.00933e-05
4.00933e-05
4.00933e-05
4.00932e-05
4.0093e-05
4.00925e-05
4.00919e-05
4.00911e-05
4.00899e-05
4.00885e-05
4.00868e-05
4.00848e-05
4.00825e-05
4.00796e-05
4.00756e-05
4.00705e-05
4.00644e-05
4.00581e-05
4.00528e-05
4.0048e-05
0.00322453
0.0283106
0.0794069
0.141505
0.201846
0.254859
0.298267
0.331033
0.353279
0.366756
0.37461
0.379503
0.374045
0.349782
0.299892
0.222843
0.129797
0.0472357
0.00386054
0.00108398
0
0
0
5.91986e-06
2.33997e-05
4.26039e-05
4.34245e-05
4.03316e-05
3.96098e-05
3.99716e-05
4.0148e-05
4.01285e-05
4.01028e-05
4.01005e-05
4.01015e-05
4.01005e-05
4.00992e-05
4.00983e-05
4.00975e-05
4.00968e-05
4.00962e-05
4.00957e-05
4.00954e-05
4.00951e-05
4.00949e-05
4.00948e-05
4.00948e-05
4.00948e-05
4.00948e-05
4.00947e-05
4.00947e-05
4.00946e-05
4.00946e-05
4.00944e-05
4.0094e-05
4.00934e-05
4.00925e-05
4.00914e-05
4.009e-05
4.00883e-05
4.00863e-05
4.0084e-05
4.0081e-05
4.00771e-05
4.0072e-05
4.00658e-05
0.000425109
0.00168205
0.0228224
0.0700118
0.130992
0.192187
0.246848
0.292187
0.32694
0.350942
0.365503
0.373516
0.378487
0.374351
0.352598
0.306003
0.232442
0.140699
0.055756
0.00776472
0.00211182
0
0
0
3.60214e-06
1.34002e-05
4.02424e-05
4.48459e-05
4.13003e-05
3.96784e-05
3.98543e-05
4.01156e-05
4.01374e-05
4.01079e-05
4.01005e-05
4.01015e-05
4.01012e-05
4.01002e-05
4.00992e-05
4.00985e-05
4.00978e-05
4.00973e-05
4.00969e-05
4.00966e-05
4.00964e-05
4.00963e-05
4.00962e-05
4.00962e-05
4.00962e-05
4.00962e-05
4.00961e-05
4.00961e-05
4.0096e-05
4.00958e-05
4.00955e-05
4.00949e-05
4.0094e-05
4.00929e-05
4.00915e-05
4.00898e-05
4.00878e-05
4.00855e-05
0
9.72256e-05
0.000345123
0.0164704
0.0571369
0.11558
0.177704
0.234736
0.282871
0.320432
0.346952
0.363382
0.372516
0.377526
0.374645
0.355499
0.312484
0.242416
0.152316
0.065507
0.0128737
0.00345275
0
0
0
7.22179e-07
1.36849e-06
3.29812e-05
4.39917e-05
4.20416e-05
3.9967e-05
3.98284e-05
4.00842e-05
4.01387e-05
4.01129e-05
4.01023e-05
4.01027e-05
4.01023e-05
4.01011e-05
4.01002e-05
4.00995e-05
4.0099e-05
4.00986e-05
4.00982e-05
4.0098e-05
4.00978e-05
4.00978e-05
4.00977e-05
4.00977e-05
4.00977e-05
4.00976e-05
4.00976e-05
4.00975e-05
4.00974e-05
4.0097e-05
4.00964e-05
4.00956e-05
0
0
3.39386e-06
0.00245406
0.00978084
0.0427858
0.0967935
0.159064
0.218719
0.270315
0.311452
0.341278
0.360386
0.371117
0.376365
0.374778
0.358326
0.318968
0.252514
0.164397
0.0761889
0.0193959
0.00511652
0
0
0
4.42025e-08
7.48787e-06
3.01734e-05
4.29404e-05
4.24247e-05
4.02084e-05
3.98216e-05
4.00559e-05
4.01356e-05
4.01135e-05
4.01017e-05
4.01032e-05
4.01038e-05
4.01027e-05
4.01016e-05
4.01008e-05
4.01003e-05
4.00999e-05
4.00996e-05
4.00995e-05
4.00994e-05
4.00993e-05
4.00993e-05
4.00993e-05
8.54709e-06
3.75359e-08
0
0
0.00119367
0.00467791
0.0287902
0.0763102
0.137212
0.199168
0.254605
0.299951
0.333766
0.35618
0.368979
0.374736
0.374525
0.360827
0.3252
0.26251
0.176661
0.0877932
0.0258265
0.00675881
3.02704e-05
0
0
0
6.46531e-06
2.57805e-05
4.17847e-05
4.28085e-05
4.04506e-05
3.98131e-05
4.004e-05
4.01506e-05
4.01245e-05
4.01028e-05
)
;

boundaryField
{
    inlet
    {
        type            freestream;
        freestreamValue uniform 4e-05;
        value           nonuniform List<scalar> 
11
(
4.00602e-05
4.00605e-05
4.00607e-05
4.00608e-05
4.00608e-05
4.00607e-05
4.00609e-05
4.00614e-05
4.00623e-05
4.0063e-05
4.00634e-05
)
;
    }
    outlet
    {
        type            freestream;
        freestreamValue nonuniform List<scalar> 0();
        value           nonuniform List<scalar> 0();
    }
    walls
    {
        type            fixedValue;
        value           uniform 0;
    }
    frontAndBack
    {
        type            empty;
    }
    procBoundary6to2
    {
        type            processor;
        value           nonuniform List<scalar> 
13
(
0.126619
0.149892
0.151243
0.135165
0.104386
0.0648408
0.02577
0.00295134
0.00080759
0
0
7.97981e-06
3.41947e-05
)
;
    }
    procBoundary6to3
    {
        type            processor;
        value           uniform 3.94354e-05;
    }
    procBoundary6to5
    {
        type            processor;
        value           nonuniform List<scalar> 
86
(
0.0927943
0.159338
0.203443
0.193221
0.124109
0.0380477
0.00164196
0.000399736
0
0
8.62445e-06
3.54082e-05
4.40293e-05
4.10438e-05
3.91624e-05
3.95179e-05
4.02231e-05
4.04466e-05
4.03254e-05
4.01569e-05
4.00676e-05
4.00498e-05
4.00607e-05
4.00728e-05
4.00783e-05
4.00789e-05
4.00778e-05
4.00767e-05
4.0076e-05
4.00757e-05
4.00755e-05
4.00754e-05
4.00754e-05
4.00754e-05
4.00742e-05
4.00744e-05
4.00746e-05
4.00749e-05
4.00752e-05
4.00756e-05
4.0076e-05
4.00764e-05
4.00767e-05
4.00771e-05
4.00775e-05
4.00778e-05
4.00778e-05
4.00773e-05
4.00775e-05
4.00776e-05
4.00776e-05
4.00776e-05
4.00774e-05
4.0077e-05
4.00765e-05
4.00758e-05
4.00758e-05
4.00739e-05
4.00728e-05
4.00715e-05
4.00699e-05
4.00682e-05
4.00661e-05
4.00635e-05
4.00635e-05
4.00589e-05
4.00547e-05
4.005e-05
4.00452e-05
4.00403e-05
4.00354e-05
4.00308e-05
4.00308e-05
4.00249e-05
4.00201e-05
4.00151e-05
4.00103e-05
4.00063e-05
4.00072e-05
4.00125e-05
4.00186e-05
4.00259e-05
4.00259e-05
4.00315e-05
4.00412e-05
4.00596e-05
)
;
    }
    procBoundary6to7
    {
        type            processor;
        value           nonuniform List<scalar> 
91
(
4.00638e-05
4.00638e-05
4.00652e-05
4.00652e-05
4.00292e-05
4.00292e-05
4.00255e-05
4.00087e-05
4.00255e-05
4.00129e-05
4.00182e-05
4.00087e-05
4.00101e-05
4.0042e-05
4.00349e-05
4.00182e-05
4.00271e-05
4.00594e-05
4.00541e-05
4.0042e-05
4.00492e-05
4.00826e-05
4.00787e-05
4.00736e-05
4.00594e-05
4.00673e-05
4.00945e-05
4.00931e-05
4.00914e-05
4.00894e-05
4.00826e-05
4.00871e-05
4.00992e-05
4.00992e-05
4.00991e-05
4.0099e-05
4.00986e-05
4.00981e-05
4.00945e-05
4.00973e-05
4.01021e-05
4.01035e-05
4.01032e-05
4.01027e-05
4.01023e-05
4.01018e-05
4.01014e-05
4.01012e-05
4.01011e-05
4.0101e-05
4.0101e-05
4.00992e-05
4.01009e-05
4.42341e-06
1.16845e-06
0
0
0.0001555
0.000456873
0.0161114
0.0551936
0.112664
0.176087
0.23551
0.285618
0.324075
0.350415
0.365813
0.372618
0.373749
0.362752
0.330896
0.272111
0.189034
0.099999
0.0322418
0.00112903
0.000353314
0
0
0
5.02729e-06
1.96665e-05
4.02326e-05
4.33299e-05
4.07112e-05
3.96967e-05
3.99348e-05
4.01371e-05
4.01021e-05
4.01376e-05
)
;
    }
}


// ************************************************************************* //
