/*--------------------------------*- C++ -*----------------------------------*\
| =========                 |                                                 |
| \\      /  F ield         | OpenFOAM: The Open Source CFD Toolbox           |
|  \\    /   O peration     | Version:  2306                                  |
|   \\  /    A nd           | Website:  www.openfoam.com                      |
|    \\/     M anipulation  |                                                 |
\*---------------------------------------------------------------------------*/
FoamFile
{
    version     2.0;
    format      ascii;
    arch        "LSB;label=32;scalar=64";
    class       volSymmTensorField;
    location    "350";
    object      turbulenceProperties:devReff;
}
// * * * * * * * * * * * * * * * * * * * * * * * * * * * * * * * * * * * * * //

dimensions      [0 2 -2 0 0 0 0];

internalField   nonuniform List<symmTensor> 
10720
(
(0.00163724 0.00425823 -9.4965e-22 -0.00177385 -2.23901e-20 0.000136608)
(0.00238869 0.00488053 -1.27818e-22 -0.00248664 1.40379e-19 9.79504e-05)
(0.00361134 0.00546118 -2.76442e-20 -0.00380858 -4.35029e-19 0.000197244)
(0.00524635 0.0062155 1.19077e-19 -0.00549236 8.78909e-19 0.000246003)
(0.00742554 0.00687407 -2.25936e-19 -0.0076942 -8.34309e-19 0.000268668)
(0.0104048 0.00726257 -1.72327e-19 -0.0107963 -4.50681e-19 0.000391477)
(0.0143002 0.00737527 3.26014e-19 -0.0147865 1.25261e-18 0.000486298)
(0.0191891 0.00685967 -8.31375e-19 -0.0197718 -2.26152e-18 0.000582632)
(0.0252409 0.00535206 -2.06525e-19 -0.0259876 6.04478e-19 0.00074662)
(0.0325668 0.00260652 6.13811e-19 -0.0334673 1.25957e-18 0.000900521)
(0.0413451 -0.001898 1.57989e-18 -0.0424366 5.77739e-19 0.00109156)
(0.0519632 -0.00873441 -3.55262e-18 -0.0532811 -3.29951e-18 0.0013179)
(0.0649621 -0.0188229 6.72839e-19 -0.0665554 8.68451e-19 0.00159328)
(0.0812524 -0.0337512 2.68652e-18 -0.0832073 1.27319e-18 0.00195493)
(0.102375 -0.0561724 -4.07769e-18 -0.104841 -6.36989e-18 0.0024664)
(0.130539 -0.0904098 -4.36556e-18 -0.133714 -2.58523e-18 0.00317472)
(0.169896 -0.14507 1.92143e-17 -0.174203 1.77916e-17 0.00430693)
(0.224299 -0.232441 1.78591e-17 -0.230179 3.37941e-17 0.00588081)
(0.310966 -0.388923 -3.53914e-17 -0.319582 -5.48623e-17 0.00861585)
(0.426464 -0.641762 -1.37625e-18 -0.438639 1.45548e-17 0.0121747)
(0.666949 -1.21441 -2.72263e-17 -0.686347 5.2061e-17 0.0193972)
(0.945623 -2.11454 -1.2467e-17 -0.971737 4.18975e-17 0.026114)
(1.7663 -5.13049 -1.43162e-16 -1.81844 -6.42355e-16 0.0521352)
(2.42856 -10.3111 3.3153e-16 -2.51186 5.59157e-16 0.0832949)
(1.52785 -11.6446 4.23949e-17 -1.56886 -7.12478e-16 0.0410013)
(0.526054 -11.2267 3.65739e-16 -0.514645 5.81244e-16 -0.0114089)
(-0.145936 -11.0441 -8.18602e-17 0.175675 -7.84345e-17 -0.029739)
(-0.664845 -11.228 2.74532e-16 0.689527 2.30572e-16 -0.0246822)
(-1.13605 -11.4419 7.29086e-16 1.15237 1.2087e-15 -0.0163173)
(-1.5714 -11.4539 4.00426e-16 1.57966 1.99802e-15 -0.00825379)
(-1.9575 -11.2389 -1.41144e-15 1.95573 -1.93183e-15 0.00177375)
(-2.27322 -10.8324 -4.74781e-16 2.26271 -7.26259e-16 0.0105083)
(-2.49331 -10.2192 -3.25837e-17 2.47836 -4.36829e-15 0.0149476)
(-2.60488 -9.41282 -2.58308e-15 2.58951 -7.30061e-15 0.0153721)
(-2.58904 -8.40489 1.00639e-15 2.57484 9.23302e-16 0.0142018)
(-2.43512 -7.22638 1.21985e-15 2.4241 1.14391e-15 0.0110128)
(-2.07379 -5.67277 -1.22399e-16 2.06035 -5.25071e-16 0.0134407)
(-1.58634 -4.17104 -1.51837e-15 1.58463 -2.44059e-17 0.00171076)
(-0.472466 -0.926413 -1.88631e-16 0.473258 -1.90291e-15 -0.000791841)
(0.000968085 0.0037134 2.39271e-21 -0.00101998 5.56026e-20 5.18909e-05)
(0.000549681 0.00319746 -3.57078e-21 -0.000639717 2.90585e-23 9.00354e-05)
(0.000179261 0.00261136 -1.95577e-20 -0.000226333 -1.37164e-19 4.70724e-05)
(-6.71529e-05 0.00208992 4.97072e-21 3.3021e-05 9.36147e-20 3.41319e-05)
(-0.000179349 0.00159705 3.92158e-21 0.000161059 -1.8263e-20 1.82904e-05)
(-0.0001727 0.00116731 -3.38485e-20 0.000173091 1.10813e-19 -3.91174e-07)
(-8.40975e-05 0.000835383 -2.02274e-19 0.0001082 1.62801e-19 -2.41023e-05)
(5.47094e-05 0.00063697 1.39727e-19 -1.70087e-05 -5.51793e-20 -3.77007e-05)
(0.000231282 0.000621221 2.26698e-19 -0.00020488 -1.14667e-19 -2.64017e-05)
(0.000471219 0.000742184 -1.54472e-19 -0.000467925 3.90518e-20 -3.29365e-06)
(0.000812251 0.00102671 -3.88372e-20 -0.000822894 1.83181e-19 1.06434e-05)
(0.00130627 0.00156628 2.49332e-19 -0.00132425 1.03727e-19 1.79815e-05)
(0.00202405 0.00252543 4.5946e-19 -0.00205422 -7.1535e-20 3.01662e-05)
(0.00305533 0.00413678 -8.12498e-21 -0.00310663 -2.58809e-19 5.12946e-05)
(0.00447268 0.00664408 -8.04743e-20 -0.00454761 -1.73495e-19 7.49344e-05)
(0.00629871 0.010337 2.68753e-20 -0.0064074 -5.81997e-20 0.000108696)
(0.00863848 0.0156339 -1.97128e-19 -0.00878422 6.7013e-19 0.000145743)
(0.0117393 0.023423 7.42361e-19 -0.0119375 2.75967e-19 0.00019816)
(0.016147 0.0354477 3.28015e-19 -0.0164154 -1.21852e-18 0.000268353)
(0.0226868 0.0549951 -1.32078e-18 -0.0230773 -3.4647e-19 0.000390514)
(0.0329383 0.0886107 -4.44061e-18 -0.0335292 -2.02935e-18 0.000590883)
(0.0490693 0.148518 -3.35492e-18 -0.0500486 -8.97288e-19 0.000979335)
(0.0756982 0.263733 6.22719e-18 -0.0774759 -5.7875e-19 0.00177768)
(0.116273 0.487734 -7.46608e-18 -0.119909 1.20799e-18 0.00363636)
(0.183227 0.97937 4.06921e-18 -0.191073 -7.22457e-18 0.00784562)
(0.277922 2.01748 -1.26405e-16 -0.294295 2.61496e-18 0.0163738)
(0.410017 4.53234 -7.83184e-17 -0.448488 1.23002e-17 0.0384716)
(0.421142 9.36849 6.59215e-17 -0.501445 8.25798e-19 0.0803035)
(0.00812295 13.2915 8.69817e-18 -0.112264 -1.25799e-19 0.104141)
(-0.628734 14.9594 6.28588e-17 0.530404 4.39565e-19 0.0983308)
(-1.26783 15.3983 -4.37175e-16 1.18558 -4.89702e-18 0.0822435)
(-1.8532 15.4182 1.57307e-16 1.78586 2.09264e-17 0.0673379)
(-2.37735 15.256 -1.88899e-15 2.32156 -1.53184e-16 0.0557945)
(-2.83312 14.956 -3.4585e-15 2.78622 -2.37039e-16 0.0469016)
(-3.21851 14.5338 1.05844e-15 3.17818 1.0837e-16 0.0403268)
(-3.5376 14.0107 1.02458e-15 3.50234 1.64292e-16 0.035263)
(-3.77527 13.2876 1.45053e-15 3.74318 2.66682e-16 0.0320883)
(-3.9195 12.4704 -2.90389e-16 3.8895 -3.67454e-17 0.0299969)
(-3.64019 10.0665 -4.55466e-15 3.63358 -7.84205e-16 0.00660782)
(0.000579439 -0.000460548 1.22812e-22 -0.000520052 4.00335e-21 -5.93866e-05)
(0.000492608 -0.000547375 2.90343e-20 -0.000425488 7.03559e-20 -6.71198e-05)
(0.000371415 -0.000622968 -2.69216e-20 -0.000291092 -4.74629e-20 -8.0323e-05)
(0.000250516 -0.000652194 -1.81352e-20 -0.000158582 -5.16569e-20 -9.19333e-05)
(0.000133144 -0.000645123 1.22273e-19 -3.25471e-05 2.37315e-19 -0.000100597)
(2.3135e-05 -0.000610496 4.76168e-20 8.61905e-05 7.38726e-20 -0.000109325)
(-6.02959e-05 -0.00055141 2.25816e-19 0.000177208 2.07454e-19 -0.000116912)
(-0.000116641 -0.000479013 -1.1671e-19 0.00023848 -2.24591e-20 -0.000121839)
(-0.000149306 -0.000404781 1.64901e-19 0.000274589 1.14265e-19 -0.000125283)
(-0.000158013 -0.000336005 -5.85697e-21 0.000285265 2.50113e-22 -0.000127251)
(-0.000150112 -0.00027831 -2.2301e-19 0.000277012 -1.90529e-19 -0.000126899)
(-0.000132661 -0.000239958 2.8718e-19 0.000258892 3.5751e-19 -0.000126231)
(-0.000110886 -0.000226137 1.76614e-19 0.000240759 8.87496e-20 -0.000129873)
(-8.62466e-05 -0.000245821 -3.68454e-20 0.000231122 1.99855e-20 -0.000144875)
(-4.85235e-05 -0.000344703 -2.26919e-19 0.00024149 3.7353e-20 -0.000192967)
(6.25871e-05 -0.00065883 4.77496e-19 0.000258282 5.46421e-19 -0.000320869)
(0.000455626 -0.00154902 8.55586e-19 0.000141946 -9.35538e-19 -0.000597572)
(0.00150315 -0.00355073 -4.42029e-18 -0.000499912 -5.72949e-18 -0.00100323)
(0.00420542 -0.00867526 5.0573e-19 -0.00253802 7.46339e-18 -0.0016674)
(0.0104792 -0.0211422 7.36652e-18 -0.00789758 -2.06874e-18 -0.00258164)
(0.0295541 -0.0626757 1.552e-17 -0.0251356 6.14999e-18 -0.0044185)
(0.0741112 -0.174765 -2.35696e-17 -0.0678939 -2.25748e-17 -0.00621722)
(0.195606 -0.54656 7.43756e-17 -0.187801 1.87787e-16 -0.00780417)
(0.504627 -1.7842 1.57948e-19 -0.501902 -1.54745e-16 -0.00272501)
(0.748161 -3.54282 -2.72973e-16 -0.771938 1.69519e-16 0.0237771)
(0.78925 -5.38964 -9.70706e-17 -0.843598 -6.5956e-16 0.0543485)
(0.603585 -7.14648 1.18465e-18 -0.675352 7.56704e-17 0.0717676)
(0.204462 -8.39391 -2.94544e-16 -0.279866 -4.44894e-16 0.075404)
(-0.295713 -8.63693 -4.93745e-16 0.229867 -2.83379e-15 0.0658459)
(-0.707446 -7.89846 -1.67036e-16 0.666372 -3.54817e-15 0.0410737)
(-0.931607 -6.69286 5.23064e-16 0.923314 4.8984e-15 0.00829344)
(-0.9986 -5.47892 -9.55426e-16 1.01682 -3.74462e-17 -0.018221)
(-0.984665 -4.49902 -7.18953e-15 1.01448 1.34222e-15 -0.0298175)
(-0.931038 -3.75408 8.77312e-15 0.960682 1.59556e-14 -0.0296446)
(-0.863982 -3.18687 -1.48882e-15 0.887991 -8.64123e-16 -0.0240094)
(-0.781689 -2.74384 3.42281e-15 0.802174 -4.99353e-15 -0.0204853)
(-0.730951 -2.43254 -1.5036e-15 0.744322 1.52311e-15 -0.0133711)
(-0.560394 -2.1372 3.2491e-15 0.595689 4.02289e-16 -0.0352951)
(-0.787407 -2.25544 5.3625e-15 0.698429 7.29106e-15 0.0889777)
(0.000645664 -0.00034503 9.37004e-21 -0.000595433 2.31799e-20 -5.02319e-05)
(0.000684433 -0.000224631 -1.27043e-20 -0.000637479 -9.60282e-20 -4.69542e-05)
(0.00069171 -7.64115e-05 -1.86434e-20 -0.000654676 -1.11231e-19 -3.70344e-05)
(0.000654268 8.66674e-05 -7.12302e-21 -0.00062768 1.6531e-19 -2.65883e-05)
(0.0005651 0.000235291 1.92376e-21 -0.000550975 4.34631e-20 -1.41255e-05)
(0.000429299 0.000348904 3.782e-20 -0.000425639 -1.45258e-19 -3.66036e-06)
(0.000271244 0.000405981 7.02673e-20 -0.000274656 -2.24666e-19 3.41223e-06)
(0.000131131 0.000406962 -3.17846e-19 -0.000140203 8.38759e-21 9.07182e-06)
(2.28835e-05 0.000374123 4.88711e-20 -3.33938e-05 2.16491e-19 1.05104e-05)
(-6.63055e-05 0.000316369 1.25263e-21 6.00781e-05 -1.29279e-19 6.22736e-06)
(-0.000121762 0.000243637 -8.32762e-20 0.00012318 -7.89564e-20 -1.41762e-06)
(-0.000141755 0.000176678 -6.00732e-20 0.000150076 -8.49844e-20 -8.32095e-06)
(-0.000139971 0.000124402 -1.12048e-20 0.000152776 1.86596e-20 -1.28054e-05)
(-0.00012757 8.66316e-05 3.75311e-20 0.000142838 1.00998e-19 -1.52679e-05)
(-0.000111046 6.08915e-05 6.47354e-20 0.000127503 2.50126e-20 -1.64571e-05)
(-9.41923e-05 4.40032e-05 -9.21258e-20 0.000110952 -4.70175e-21 -1.67595e-05)
(-7.86841e-05 3.33876e-05 8.2703e-20 9.51013e-05 8.5451e-21 -1.64172e-05)
(-6.53921e-05 2.6872e-05 -9.8478e-21 8.10459e-05 -2.88805e-20 -1.56537e-05)
(-5.43355e-05 2.27323e-05 -3.38101e-20 6.89945e-05 5.3792e-20 -1.46589e-05)
(-4.52868e-05 1.9963e-05 -2.57765e-20 5.89196e-05 2.8061e-20 -1.36328e-05)
(-3.79983e-05 1.79314e-05 -6.1998e-20 5.07313e-05 6.97546e-20 -1.2733e-05)
(-3.26731e-05 1.64679e-05 -8.7319e-20 4.49204e-05 4.5303e-20 -1.22473e-05)
(-2.919e-05 1.55172e-05 -1.25797e-19 4.16894e-05 1.08373e-20 -1.24994e-05)
(-2.68701e-05 1.54944e-05 5.61058e-20 4.05157e-05 5.32985e-21 -1.36456e-05)
(-2.46034e-05 1.72614e-05 -3.99435e-21 3.96874e-05 5.47836e-21 -1.5084e-05)
(-0.000235274 0.000213454 5.26615e-19 0.000404547 1.37791e-19 -0.000169273)
(-0.00119729 0.00135656 2.69619e-18 0.0021674 -1.9255e-19 -0.000970107)
(-0.00866793 0.0119919 1.08344e-18 0.0162487 -4.51642e-19 -0.00758076)
(-0.0262253 0.0459258 -7.54109e-19 0.0499561 1.03277e-19 -0.0237308)
(-0.0449428 0.102708 4.96421e-17 0.084996 2.01498e-18 -0.0400532)
(-0.057971 0.170667 4.02637e-16 0.105295 9.72545e-18 -0.0473242)
(-0.0659757 0.23523 2.39526e-16 0.111229 1.31159e-17 -0.0452529)
(-0.0730152 0.289369 1.76242e-15 0.112017 1.20946e-16 -0.0390022)
(-0.0819849 0.334926 2.54469e-15 0.114738 1.69323e-16 -0.0327527)
(-0.09415 0.375363 -5.70564e-16 0.122121 -9.71875e-17 -0.0279706)
(-0.108446 0.415552 -4.90963e-16 0.133601 -8.61576e-17 -0.0251547)
(-0.128782 0.456176 -1.22516e-15 0.15157 -5.1512e-16 -0.022788)
(-0.147319 0.552306 -2.52518e-15 0.174166 -3.44647e-18 -0.0268474)
(-0.207649 0.77574 -2.03912e-15 0.197449 1.35848e-15 0.0102)
(0.000333678 -0.000312824 1.72562e-21 -0.000360069 2.38706e-21 2.63903e-05)
(0.000258353 -0.000372298 -2.72957e-20 -0.000290231 -6.63229e-20 3.18777e-05)
(0.000160841 -0.000413574 -6.02126e-21 -0.00019797 -3.03219e-21 3.71292e-05)
(5.20574e-05 -0.000426375 2.27877e-20 -9.69339e-05 4.92253e-20 4.48766e-05)
(-5.44414e-05 -0.000413087 -7.20985e-20 3.55797e-06 -1.46648e-19 5.08834e-05)
(-0.000154801 -0.000372464 -8.20751e-20 9.79221e-05 -1.34518e-19 5.68789e-05)
(-0.000238964 -0.000308493 -1.6642e-19 0.000175449 -2.45985e-19 6.35147e-05)
(-0.000300018 -0.000230744 -1.34067e-20 0.000231148 -1.99255e-21 6.88708e-05)
(-0.000337784 -0.000145417 -7.30687e-20 0.000264319 -1.74019e-19 7.34645e-05)
(-0.000352982 -6.11027e-05 3.05795e-19 0.000275468 3.4798e-19 7.75136e-05)
(-0.000348673 1.65984e-05 -5.00783e-20 0.000268547 6.81133e-20 8.01258e-05)
(-0.000331397 8.39246e-05 3.41318e-20 0.00025036 2.1003e-20 8.10374e-05)
(-0.000307338 0.000139299 -2.33533e-19 0.000227525 -2.9723e-19 7.9813e-05)
(-0.000281394 0.000184879 1.50385e-19 0.000204167 -1.39612e-20 7.72271e-05)
(-0.00025411 0.000218811 4.36519e-20 0.000181622 1.35461e-19 7.24879e-05)
(-0.000223493 0.000237252 5.33225e-20 0.000158675 2.55922e-20 6.48174e-05)
(-0.000180041 0.000227926 -2.41563e-19 0.000128098 -1.40692e-19 5.1943e-05)
(-0.000148157 0.000217065 2.02446e-19 0.000106947 1.50908e-19 4.12104e-05)
(-9.77721e-05 0.000161435 4.84413e-20 7.25691e-05 6.34105e-22 2.5203e-05)
(-0.000155709 0.000280622 -3.6005e-19 0.000120449 -5.41729e-20 3.52602e-05)
(-7.249e-05 0.000138861 2.10738e-19 5.90326e-05 -8.276e-20 1.34575e-05)
(-0.000126555 0.000250039 1.39333e-20 0.000110046 2.38857e-19 1.65095e-05)
(-1.02027e-05 1.15986e-05 4.53216e-20 1.0898e-05 -6.69345e-20 -6.95319e-07)
(0.00134084 -0.004993 -2.43097e-18 -0.00108107 -2.59759e-18 -0.000259773)
(0.0122734 -0.0542623 4.48774e-18 -0.0104321 1.58482e-17 -0.00184128)
(0.0322688 -0.193778 -2.8614e-17 -0.0280917 7.8329e-18 -0.00417712)
(0.0536668 -0.494997 1.486e-17 -0.047589 1.15518e-18 -0.00607781)
(0.0639269 -1.11484 -1.43143e-17 -0.0566834 7.64116e-17 -0.00724343)
(0.0252864 -2.20375 -4.40924e-16 -0.0184688 2.46556e-16 -0.00681767)
(-0.120233 -3.63662 2.17269e-16 0.123428 3.53623e-16 -0.00319524)
(-0.387812 -4.9188 1.56466e-15 0.382598 -5.87192e-16 0.00521375)
(-0.692421 -5.52743 -2.76594e-15 0.677983 2.16324e-15 0.0144381)
(-0.906087 -5.36952 5.13821e-16 0.890337 9.33041e-15 0.0157495)
(-0.983509 -4.78874 -4.86389e-17 0.975108 -6.3692e-15 0.00840079)
(-0.965171 -4.12938 3.05802e-15 0.963699 -2.30106e-15 0.00147237)
(-0.87874 -3.52459 -1.43678e-14 0.88172 5.20189e-16 -0.00298018)
(-0.798777 -3.05413 4.95873e-15 0.797857 -1.6257e-15 0.000920614)
(-0.53157 -2.55689 5.13653e-15 0.547659 -1.52186e-15 -0.0160896)
(-0.844102 -2.8151 -1.00215e-14 0.826095 2.90313e-15 0.0180067)
(0.000395295 -0.00023682 -3.54218e-21 -0.000419383 -6.74284e-21 2.40886e-05)
(0.000435599 -0.000154367 -1.3428e-20 -0.000454972 -1.90037e-20 1.93734e-05)
(0.000460054 -5.3293e-05 5.56838e-20 -0.000474982 1.20068e-19 1.49275e-05)
(0.000454772 5.43685e-05 1.1446e-20 -0.000464217 -1.35497e-20 9.4446e-06)
(0.000415699 0.00016046 7.89629e-21 -0.000421165 -8.89574e-20 5.46524e-06)
(0.000342139 0.000248046 -2.46509e-20 -0.000344121 6.37185e-20 1.98168e-06)
(0.000244212 0.000303011 2.37472e-20 -0.000243905 1.44091e-19 -3.06681e-07)
(0.000141072 0.000319912 1.56348e-19 -0.000141819 1.6786e-19 7.46137e-07)
(4.81468e-05 0.000309278 5.31605e-20 -4.9608e-05 -1.3353e-19 1.46124e-06)
(-2.83364e-05 0.000273942 1.18455e-19 2.7281e-05 7.01977e-20 1.05542e-06)
(-7.8567e-05 0.00022141 -8.35362e-20 7.72381e-05 2.14684e-20 1.32889e-06)
(-0.000102659 0.000166976 -1.20585e-20 0.000100154 7.06337e-20 2.50537e-06)
(-0.000108699 0.000119372 5.25421e-21 0.000104635 -6.3456e-20 4.06353e-06)
(-0.000104074 8.10118e-05 1.13347e-19 9.8318e-05 -7.97975e-20 5.75651e-06)
(-9.40469e-05 5.20586e-05 8.56573e-21 8.68731e-05 -1.25388e-20 7.17383e-06)
(-8.20415e-05 3.10463e-05 -1.2664e-20 7.36785e-05 5.23594e-20 8.36302e-06)
(-7.02307e-05 1.64141e-05 8.1131e-20 6.10113e-05 -9.58444e-20 9.21935e-06)
(-5.97423e-05 6.31683e-06 1.31943e-20 4.99008e-05 1.15885e-20 9.84149e-06)
(-5.10644e-05 -7.60786e-07 9.35607e-20 4.08738e-05 -6.54195e-21 1.01906e-05)
(-4.3939e-05 -6.08651e-06 1.00024e-19 3.3495e-05 2.2414e-20 1.0444e-05)
(-3.80792e-05 -1.04071e-05 2.55851e-19 2.74947e-05 -3.37957e-20 1.05844e-05)
(-3.29307e-05 -1.44525e-05 3.31044e-19 2.21575e-05 -5.00787e-20 1.07732e-05)
(-2.77611e-05 -1.86717e-05 1.96865e-19 1.66914e-05 1.70582e-20 1.10697e-05)
(-2.10903e-05 -2.26155e-05 4.53306e-20 9.23737e-06 -9.27136e-21 1.18529e-05)
(-1.29591e-05 -2.48036e-05 -4.86225e-20 -2.3315e-07 2.34866e-20 1.31923e-05)
(-4.80999e-06 -2.40848e-05 1.81521e-19 -9.43626e-06 -2.95003e-20 1.42462e-05)
(2.16867e-06 -2.25524e-05 -4.88544e-20 -1.80213e-05 -4.75567e-21 1.58526e-05)
(5.47497e-06 -1.38329e-05 -3.13949e-20 -1.76533e-05 6.47328e-22 1.21783e-05)
(5.6219e-05 -7.33627e-05 2.76079e-20 -0.000143633 -8.68753e-22 8.74139e-05)
(0.000480948 -0.000275636 -1.43998e-18 -0.00111241 -5.45152e-20 0.00063146)
(0.00145021 0.000425378 -8.64936e-18 -0.00322047 -7.91993e-20 0.00177026)
(0.00231347 0.00468822 -5.48315e-17 -0.00521467 -3.18032e-18 0.00290119)
(0.00185836 0.0154455 -1.34322e-16 -0.00506983 -4.43703e-18 0.00321147)
(-0.000685962 0.0342875 -3.34057e-16 -0.00190584 -2.28768e-17 0.00259181)
(-0.00552523 0.060853 -8.55006e-16 0.00397973 -7.65288e-17 0.0015455)
(-0.0113209 0.0929659 2.15588e-16 0.0108135 -1.738e-17 0.000507407)
(-0.0190758 0.127605 -1.17297e-15 0.0190324 2.11059e-16 4.33427e-05)
(-0.00964281 0.154097 2.94728e-15 0.0104753 5.32907e-16 -0.000832471)
(-0.037464 0.261191 4.63709e-15 0.0294832 9.50682e-16 0.00798079)
(0.000306282 -0.000258236 9.51592e-21 -0.000296877 1.62793e-20 -9.40507e-06)
(0.000259299 -0.000306096 -1.32548e-20 -0.000248911 -2.38943e-20 -1.03875e-05)
(0.00019591 -0.000347423 -6.02803e-21 -0.000182636 -3.3208e-21 -1.32737e-05)
(0.000125021 -0.000374224 7.16087e-20 -0.000109142 1.04799e-19 -1.58795e-05)
(5.17696e-05 -0.000382645 4.55075e-20 -3.28877e-05 8.24895e-20 -1.88819e-05)
(-2.12996e-05 -0.000372952 5.77212e-20 4.36772e-05 1.10849e-19 -2.23776e-05)
(-8.66817e-05 -0.000347092 8.81575e-20 0.000112598 1.01994e-19 -2.59168e-05)
(-0.000139546 -0.00030809 -5.05833e-20 0.000169003 -7.85545e-20 -2.94567e-05)
(-0.000178423 -0.000260566 -1.80922e-19 0.000211689 -1.79253e-19 -3.32665e-05)
(-0.00020201 -0.000209915 2.34928e-19 0.000238702 1.32303e-19 -3.66913e-05)
(-0.00021158 -0.000160038 1.97571e-19 0.000251492 1.67327e-19 -3.99125e-05)
(-0.000209296 -0.000114101 2.5571e-19 0.000251826 1.22497e-19 -4.25307e-05)
(-0.00019773 -7.42116e-05 -4.20859e-19 0.000241976 -1.34783e-19 -4.42462e-05)
(-0.000179868 -4.1231e-05 -3.5808e-19 0.000224688 -2.40543e-19 -4.48201e-05)
(-0.000157746 -1.50501e-05 4.73836e-19 0.00020222 1.49038e-19 -4.4474e-05)
(-0.000133074 7.47375e-06 9.57368e-20 0.000175228 5.89567e-20 -4.21542e-05)
(-0.000107595 2.66299e-05 -7.09842e-20 0.000145735 7.3263e-21 -3.81403e-05)
(-8.46197e-05 4.29494e-05 -2.29713e-19 0.000117608 -1.50499e-19 -3.29887e-05)
(-6.13995e-05 5.415e-05 5.13006e-20 8.61839e-05 -1.9683e-20 -2.47843e-05)
(-4.61026e-05 6.27832e-05 2.14582e-19 6.32408e-05 6.62027e-20 -1.71383e-05)
(-3.83649e-05 7.14203e-05 -2.70716e-19 4.94163e-05 -7.78676e-20 -1.10514e-05)
(-4.07985e-05 9.48709e-05 1.45414e-19 4.9091e-05 2.07721e-20 -8.29247e-06)
(-3.74497e-05 0.0001124 -4.38708e-20 4.35199e-05 -9.51253e-21 -6.07023e-06)
(-0.000264184 0.00120196 -9.33198e-19 0.000315222 4.57664e-19 -5.10382e-05)
(-0.000611023 0.00658338 3.65571e-18 0.000890692 -1.16677e-18 -0.000279669)
(3.84444e-06 9.69187e-05 -5.63554e-20 6.08985e-07 7.47776e-20 -4.45342e-06)
(0.000233339 0.0012086 1.03694e-20 -0.000167356 -2.39038e-20 -6.59826e-05)
(0.00105439 0.00144016 1.9484e-18 -0.000882876 -6.91772e-19 -0.000171518)
(0.00476759 -0.0116251 7.08068e-18 -0.00420194 1.79197e-17 -0.000565643)
(0.0101229 -0.110328 2.72686e-17 -0.00886285 -1.23445e-16 -0.00126006)
(-0.00038709 -0.479856 -6.66247e-17 0.00258503 -3.97231e-16 -0.00219794)
(-0.076993 -1.3009 2.07886e-15 0.0796924 5.52065e-16 -0.00269939)
(-0.263852 -2.42614 2.97174e-15 0.264713 6.72847e-16 -0.000861712)
(-0.514511 -3.34607 -1.64369e-15 0.511086 -2.23488e-15 0.00342527)
(-0.715842 -3.7241 -7.33484e-15 0.709879 1.42226e-15 0.00596227)
(-0.793128 -3.65162 4.79437e-15 0.790596 4.89588e-15 0.00253147)
(-0.801467 -3.42157 -1.01692e-14 0.796786 -1.30346e-16 0.00468099)
(-0.573993 -3.02007 -1.30279e-14 0.584346 1.88178e-15 -0.0103531)
(-0.814852 -3.21318 9.21264e-15 0.78651 -3.43376e-15 0.0283425)
(0.000342228 -0.00019851 -1.46077e-20 -0.000335902 -2.97437e-20 -6.32599e-06)
(0.00036472 -0.000135341 -5.02312e-21 -0.000359234 2.03021e-20 -5.4866e-06)
(0.00037332 -5.72565e-05 4.83505e-20 -0.000370629 9.21931e-20 -2.69091e-06)
(0.000363939 2.51464e-05 -2.06927e-20 -0.000362619 -1.16444e-21 -1.32065e-06)
(0.000332422 0.000105536 1.80251e-20 -0.000332524 1.14224e-19 1.01788e-07)
(0.000278561 0.000174401 5.52672e-20 -0.000278841 -1.5796e-20 2.80024e-07)
(0.000208885 0.000222872 5.97634e-20 -0.000208629 -1.54985e-21 -2.56249e-07)
(0.000134101 0.000246334 -1.4749e-19 -0.000134131 -8.91367e-20 2.96535e-08)
(6.20918e-05 0.000246785 -8.05891e-20 -6.28965e-05 6.96663e-21 8.04687e-07)
(-4.74673e-07 0.000226461 1.33619e-19 -6.68511e-07 6.03095e-20 1.14318e-06)
(-4.601e-05 0.000192089 6.23717e-20 4.5018e-05 -5.11744e-21 9.91953e-07)
(-7.3644e-05 0.000153533 7.38467e-20 7.31293e-05 -4.55948e-20 5.14694e-07)
(-8.69224e-05 0.000117337 -1.14034e-19 8.7174e-05 -7.47544e-20 -2.51525e-07)
(-9.02492e-05 8.63971e-05 -1.41383e-19 9.13685e-05 2.66872e-20 -1.11924e-06)
(-8.73194e-05 6.1762e-05 1.2903e-20 8.93383e-05 3.73751e-20 -2.01898e-06)
(-8.1078e-05 4.30089e-05 4.37238e-20 8.39015e-05 -1.30123e-20 -2.82343e-06)
(-7.3584e-05 2.93025e-05 -1.07377e-19 7.71377e-05 -8.50436e-21 -3.55377e-06)
(-6.61117e-05 1.94568e-05 -4.12566e-21 7.02677e-05 -1.71005e-20 -4.15601e-06)
(-5.93568e-05 1.23052e-05 -4.12365e-20 6.40058e-05 -8.07283e-21 -4.64905e-06)
(-5.34508e-05 6.79549e-06 8.66486e-20 5.84361e-05 -4.99206e-20 -4.98527e-06)
(-4.8344e-05 2.25031e-06 -9.43787e-20 5.3592e-05 -3.27969e-20 -5.248e-06)
(-4.37602e-05 -1.9076e-06 -1.96267e-19 4.92024e-05 -2.31733e-20 -5.44225e-06)
(-3.92324e-05 -6.02074e-06 8.88698e-21 4.48496e-05 -2.97523e-20 -5.61724e-06)
(-3.40474e-05 -9.84469e-06 5.03121e-20 3.97789e-05 -2.86305e-20 -5.7315e-06)
(-2.84138e-05 -1.2248e-05 1.52478e-19 3.44234e-05 -1.06381e-20 -6.00964e-06)
(-2.34556e-05 -1.29979e-05 -1.42858e-19 3.00704e-05 -8.27695e-21 -6.6148e-06)
(-1.95445e-05 -1.28636e-05 -2.45768e-20 2.68441e-05 7.64557e-21 -7.29959e-06)
(-1.65194e-05 -1.23524e-05 1.4786e-20 2.44674e-05 1.29396e-21 -7.94793e-06)
(-1.36842e-05 -1.1435e-05 -6.83162e-21 2.188e-05 -2.74788e-22 -8.19577e-06)
(-1.08691e-05 -1.02009e-05 -9.94566e-21 1.87098e-05 4.84276e-22 -7.84068e-06)
(-7.46542e-06 -8.18851e-06 -1.60162e-20 1.38358e-05 -8.4515e-22 -6.37039e-06)
(-4.21155e-06 -5.7586e-06 4.61137e-20 8.61874e-06 1.33036e-21 -4.4072e-06)
(-3.0335e-05 -5.73367e-05 2.01194e-18 7.73772e-05 1.30868e-19 -4.70421e-05)
(-6.24281e-07 -4.59497e-05 1.88032e-17 0.000110334 1.74894e-18 -0.000109709)
(0.000235697 0.000599884 7.85103e-17 -0.000134671 1.03433e-17 -0.000101027)
(0.000879716 0.00332992 -1.7353e-16 -0.000935978 -2.64858e-17 5.62623e-05)
(0.00157564 0.0112326 7.43762e-16 -0.00205512 1.09988e-16 0.000479476)
(0.00672266 0.0279209 -4.86384e-16 -0.007213 -1.68336e-16 0.000490343)
(-0.0028283 0.104505 -3.29671e-16 -0.00195165 -1.41043e-15 0.00477995)
(0.000222633 -0.000196138 -1.35347e-20 -0.000225649 -2.01615e-20 3.01607e-06)
(0.000184146 -0.000231634 2.65866e-21 -0.000188507 4.23652e-21 4.36037e-06)
(0.00013444 -0.000261257 1.61108e-20 -0.000139275 1.74972e-20 4.83475e-06)
(7.79932e-05 -0.000279195 -9.8967e-20 -8.41584e-05 -1.40671e-19 6.16526e-06)
(1.8925e-05 -0.000283326 -7.24493e-20 -2.64747e-05 -8.4734e-20 7.54961e-06)
(-4.04503e-05 -0.000273076 1.69309e-19 3.16196e-05 2.02674e-19 8.83075e-06)
(-9.48438e-05 -0.000249166 -1.79758e-19 8.42767e-05 -2.23216e-19 1.05671e-05)
(-0.000140356 -0.00021379 -8.12642e-20 0.000127937 -5.40604e-20 1.24191e-05)
(-0.000174749 -0.000169936 -1.9319e-19 0.000160485 -1.4457e-19 1.42638e-05)
(-0.000196688 -0.000121816 -3.59991e-20 0.000180326 -6.55068e-20 1.63617e-05)
(-0.000206287 -7.28658e-05 2.41762e-20 0.000187831 -8.72411e-21 1.84559e-05)
(-0.000204711 -2.62591e-05 -1.32281e-19 0.000184167 -1.75443e-19 2.05436e-05)
(-0.000193977 1.54498e-05 4.3065e-19 0.00017145 2.94952e-19 2.25268e-05)
(-0.00017647 5.07428e-05 -1.41752e-19 0.000152272 -2.47901e-20 2.41974e-05)
(-0.000154509 7.94391e-05 -3.47397e-19 0.000128938 -1.51913e-19 2.55707e-05)
(-0.000130525 0.000100457 2.30341e-19 0.000104586 4.61007e-21 2.59383e-05)
(-0.000106122 0.000113126 -1.67343e-19 8.13102e-05 -9.65197e-20 2.48115e-05)
(-8.18123e-05 0.000118095 2.28719e-21 5.91263e-05 1.22272e-19 2.2686e-05)
(-5.91069e-05 0.000116974 -3.99253e-20 3.92171e-05 -3.13667e-20 1.98898e-05)
(-3.82925e-05 0.000108233 -2.78122e-19 2.21233e-05 -1.92159e-19 1.61692e-05)
(-2.2452e-05 9.58625e-05 2.006e-19 1.04588e-05 1.9474e-19 1.19932e-05)
(-1.08737e-05 7.07712e-05 3.70141e-21 4.14457e-06 -1.14127e-19 6.72913e-06)
(-6.77463e-06 6.98751e-05 3.84162e-20 2.14125e-06 1.17546e-20 4.63338e-06)
(-2.53037e-06 7.98644e-05 1.11648e-19 -1.20879e-06 -5.00152e-21 3.73916e-06)
(3.7649e-06 8.70197e-05 -3.76464e-20 -6.74198e-06 -1.19907e-20 2.97708e-06)
(9.47059e-06 8.92626e-05 1.26798e-19 -1.15646e-05 2.02495e-20 2.09402e-06)
(2.80727e-05 0.000196116 -1.52309e-20 -3.07566e-05 3.47812e-22 2.68384e-06)
(0.000265551 0.00162405 -2.58235e-19 -0.000276187 -1.59815e-19 1.06356e-05)
(0.00149852 0.0080201 2.62501e-20 -0.00151173 2.06926e-18 1.32069e-05)
(0.000947031 0.00415936 -1.21234e-17 -0.00093846 1.00096e-18 -8.57096e-06)
(0.00278138 0.00875989 -1.11109e-17 -0.0027346 1.85787e-18 -4.67786e-05)
(0.0106401 0.012069 2.79074e-17 -0.010411 -1.62873e-16 -0.000229131)
(0.018743 -0.0987508 5.7682e-16 -0.0179121 -7.07745e-16 -0.000830948)
(-0.0257192 -0.585069 -2.98484e-15 0.0277128 1.59107e-16 -0.00199361)
(-0.182399 -1.49137 4.83697e-15 0.184214 1.81722e-15 -0.00181491)
(-0.401001 -2.4007 -9.96482e-16 0.40171 4.27584e-16 -0.000709507)
(-0.58627 -2.96517 -1.7508e-15 0.582305 3.98637e-15 0.00396488)
(-0.525626 -3.08675 6.73215e-16 0.536263 2.44226e-16 -0.0106372)
(-0.773483 -3.40302 -1.72622e-14 0.735986 4.3129e-15 0.0374965)
(0.00025311 -0.000152913 8.63735e-21 -0.000256268 3.53154e-21 3.15787e-06)
(0.000274187 -0.000106581 -3.12483e-20 -0.00027596 -4.49348e-20 1.77313e-06)
(0.000285729 -4.96741e-05 3.99104e-21 -0.000287348 2.03321e-20 1.61937e-06)
(0.000283471 1.17635e-05 1.70403e-20 -0.000284295 -5.68551e-20 8.23779e-07)
(0.000264484 7.30875e-05 -1.38572e-19 -0.000265061 -1.99271e-19 5.7654e-07)
(0.000228066 0.000127519 -1.41944e-19 -0.000228074 7.28496e-20 8.71301e-09)
(0.000178339 0.00016859 1.98756e-19 -0.000178013 1.03197e-19 -3.25338e-07)
(0.000122708 0.000192329 -6.43085e-20 -0.000122588 -1.86811e-19 -1.19175e-07)
(6.67789e-05 0.000198832 -8.7821e-20 -6.69587e-05 2.49295e-20 1.79811e-07)
(1.59995e-05 0.000188957 -5.98875e-20 -1.63391e-05 -1.03997e-19 3.39645e-07)
(-2.36363e-05 0.000167066 2.09767e-20 2.33328e-05 3.16664e-20 3.03455e-07)
(-5.04722e-05 0.000139411 -3.93054e-20 5.01929e-05 -5.14083e-20 2.79215e-07)
(-6.58554e-05 0.000110992 -8.11776e-20 6.55249e-05 1.09213e-19 3.30437e-07)
(-7.23432e-05 8.47946e-05 8.6102e-20 7.18765e-05 5.05214e-20 4.6666e-07)
(-7.25482e-05 6.24387e-05 7.31686e-20 7.18746e-05 -3.36512e-20 6.73582e-07)
(-6.88987e-05 4.43355e-05 -1.50337e-20 6.79439e-05 -3.01154e-20 9.5481e-07)
(-6.32433e-05 3.02695e-05 4.36825e-20 6.19793e-05 9.73085e-21 1.26393e-06)
(-5.69276e-05 1.95725e-05 -6.47121e-20 5.53465e-05 1.65349e-20 1.58114e-06)
(-5.077e-05 1.14614e-05 4.58158e-20 4.88933e-05 -1.20434e-21 1.87671e-06)
(-4.51129e-05 5.13735e-06 -6.03064e-20 4.29608e-05 -2.81658e-20 2.15208e-06)
(-4.0023e-05 -2.19274e-08 5.81793e-20 3.76451e-05 4.86412e-21 2.3779e-06)
(-3.53189e-05 -4.52248e-06 7.79905e-20 3.27501e-05 1.70627e-20 2.56877e-06)
(-3.06281e-05 -8.6532e-06 -5.44198e-21 2.79084e-05 7.15697e-21 2.71965e-06)
(-2.5353e-05 -1.22583e-05 -1.46134e-19 2.24329e-05 6.83865e-23 2.92008e-06)
(-1.95043e-05 -1.45486e-05 -5.43771e-20 1.63517e-05 -2.32231e-20 3.15253e-06)
(-1.39169e-05 -1.52707e-05 -1.60214e-20 1.05763e-05 2.46935e-20 3.34065e-06)
(-9.03184e-06 -1.5018e-05 5.92781e-20 5.38576e-06 7.36555e-22 3.64608e-06)
(-4.81633e-06 -1.41931e-05 2.13757e-21 7.46194e-07 -4.87067e-22 4.07014e-06)
(-1.23742e-06 -1.31317e-05 -3.35566e-21 -3.3225e-06 2.86779e-22 4.55992e-06)
(1.63588e-06 -1.12933e-05 3.75534e-20 -6.35278e-06 1.73618e-22 4.7169e-06)
(4.36866e-06 -1.18019e-05 3.32639e-20 -1.00246e-05 1.07538e-21 5.65595e-06)
(3.23017e-06 -5.83801e-06 -8.99617e-20 -6.13164e-06 -4.97804e-21 2.90146e-06)
(1.18594e-05 -1.72166e-05 -7.62733e-19 -1.98363e-05 -5.91611e-20 7.97689e-06)
(8.60193e-05 -0.000108026 -1.05714e-18 -0.000127911 -1.29158e-19 4.18922e-05)
(0.000243478 -0.000265442 2.05501e-18 -0.000322268 2.19816e-20 7.87907e-05)
(0.000248919 -0.000202562 -3.97506e-18 -0.000288994 1.57818e-18 4.00749e-05)
(0.000435153 -0.000155774 -2.12938e-17 -0.000470287 -1.77299e-17 3.51341e-05)
(0.000881716 0.000199981 5.27085e-17 -0.000861286 3.76371e-18 -2.04301e-05)
(0.0038411 0.0197276 -2.90837e-16 -0.00521548 5.23244e-17 0.00137438)
(0.00018413 -0.000161023 1.18696e-20 -0.000183019 1.37888e-20 -1.11182e-06)
(0.000155878 -0.000189729 -2.98492e-20 -0.000154871 -3.5879e-20 -1.00723e-06)
(0.000118626 -0.00021495 -2.41047e-21 -0.000117021 -4.98732e-21 -1.60493e-06)
(7.60861e-05 -0.000232397 -1.2441e-20 -7.41942e-05 -6.48705e-21 -1.89192e-06)
(3.10318e-05 -0.00023998 9.86381e-20 -2.87624e-05 1.13522e-19 -2.26941e-06)
(-1.54557e-05 -0.000237323 7.56373e-20 1.84328e-05 6.24069e-20 -2.97709e-06)
(-5.93458e-05 -0.000224515 9.6114e-22 6.29638e-05 3.05e-20 -3.61797e-06)
(-9.76987e-05 -0.00020264 1.87634e-19 0.000102088 1.81809e-19 -4.3896e-06)
(-0.000128796 -0.000173561 -2.34327e-20 0.000134182 -3.12926e-21 -5.38621e-06)