/*--------------------------------*- C++ -*----------------------------------*\
| =========                 |                                                 |
| \\      /  F ield         | OpenFOAM: The Open Source CFD Toolbox           |
|  \\    /   O peration     | Version:  2306                                  |
|   \\  /    A nd           | Website:  www.openfoam.com                      |
|    \\/     M anipulation  |                                                 |
\*---------------------------------------------------------------------------*/
FoamFile
{
    version     2.0;
    format      ascii;
    arch        "LSB;label=32;scalar=64";
    class       volScalarField;
    location    "350";
    object      turbulenceProperties:epsilon;
}
// * * * * * * * * * * * * * * * * * * * * * * * * * * * * * * * * * * * * * //

dimensions      [0 2 -3 0 0 0 0];

internalField   nonuniform List<scalar> 
10720
(
0.259376
0.340108
0.453005
0.623614
0.840259
1.13493
1.5309
2.03511
2.68427
3.51475
4.57824
5.96486
7.80282
10.2917
13.772
18.7592
26.2382
37.3561
56.0471
83.0161
139.643
211.734
435.096
738.982
736.026
667.131
637.318
637.404
643.306
639.557
622.825
593.284
548.353
489.321
416.493
334.32
232.292
145.691
16.2567
0.194133
0.147075
0.100363
0.0666661
0.0405449
0.022173
0.0111794
0.00631243
0.00685198
0.0122561
0.0258932
0.054234
0.107177
0.197704
0.340166
0.553715
0.870373
1.35291
2.12182
3.40212
5.64663
9.71385
17.6442
33.2295
67.6635
140.846
318.964
663.234
945.008
1066.9
1100.16
1101.72
1088.11
1062.35
1025.36
978.901
912.853
836.925
619.374
0.007361
0.00727999
0.00711437
0.00670961
0.00610643
0.00544796
0.00471923
0.00396218
0.00327814
0.0026704
0.00214894
0.00182
0.00177279
0.00210517
0.00330787
0.00671219
0.0165637
0.0442154
0.138954
0.449549
1.75908
6.25748
23.5168
83.8162
166.338
234.983
278.251
285.021
250.958
193.144
135.866
91.9116
63.5083
45.7311
34.273
26.5042
21.7474
17.574
20.2089
0.00722737
0.00703172
0.00664122
0.00608285
0.00535941
0.00447599
0.0035413
0.00273959
0.00209105
0.0015342
0.00108414
0.000757371
0.000526733
0.000363731
0.000249048
0.000169135
0.000113323
7.46809e-05
4.72832e-05
2.75714e-05
1.3181e-05
4.21856e-06
4.01306e-07
6.84182e-09
5.57946e-08
0.00098657
0.00606481
0.0512799
0.170757
0.319772
0.466674
0.615371
0.773847
0.946755
1.13453
1.34796
1.59531
2.20732
4.09683
0.00330256
0.00325044
0.00310531
0.00288997
0.00267301
0.00244437
0.00222363
0.002034
0.00187761
0.00176051
0.0016724
0.0016226
0.00160881
0.00163563
0.00164585
0.00154857
0.00112242
0.000801009
1.12563e-07
0.00158886
7.28199e-05
0.00107857
1.45858e-06
0.0229407
0.512415
2.54109
7.87922
20.0529
42.2899
70.529
91.6015
94.2533
80.1177
60.6966
44.181
31.9731
23.9969
16.9436
20.498
0.00335437
0.00334634
0.00332876
0.00321154
0.0030085
0.00268239
0.00226331
0.0018282
0.00146533
0.00113388
0.000824626
0.000572004
0.000384989
0.000253525
0.00016561
0.000108237
7.1953e-05
4.93563e-05
3.55871e-05
2.70814e-05
2.18931e-05
1.88169e-05
1.72181e-05
1.63647e-05
1.63054e-05
1.61191e-05
1.82306e-05
6.37701e-06
0.000167536
0.000992256
0.00208839
0.00364248
0.00959099
0.0265224
0.0598394
0.110627
0.177005
0.222086
0.549854
0.00235415
0.00236391
0.00234023
0.00230143
0.00222237
0.00210724
0.00196801
0.00180085
0.00161888
0.0014289
0.00123797
0.00105128
0.000872822
0.000707463
0.000557551
0.000419261
0.000300403
0.000214629
0.0001259
6.35107e-05
2.54734e-06
9.3492e-06
8.9109e-08
0.00717497
0.0342134
7.8144e-05
0.00315279
0.00177845
0.0186383
0.447396
3.22214
11.6567
25.0463
35.4989
37.1901
32.4034
26.6048
19.7656
21.4781
0.0023039
0.00222881
0.00211346
0.0019786
0.00181579
0.00161319
0.00139181
0.00117419
0.000967257
0.000765355
0.000581483
0.000432005
0.000318384
0.000234344
0.000173355
0.000129295
9.78815e-05
7.55223e-05
5.96715e-05
4.81445e-05
3.96882e-05
3.32161e-05
2.79053e-05
2.28189e-05
1.81256e-05
1.46349e-05
1.22456e-05
1.06581e-05
8.8858e-06
6.83576e-06
3.86371e-06
1.53208e-06
2.28375e-05
1.51517e-05
6.81281e-05
0.000863196
0.00494333
0.0189489
0.139786
0.00132488
0.0013202
0.00129966
0.00126344
0.00120839
0.00113572
0.00105089
0.000956819
0.000858145
0.000761895
0.000671429
0.000590028
0.00052032
0.000462973
0.000417825
0.000381643
0.000345331
0.000301951
0.00025627
0.000195932
0.000137119
2.71947e-05
2.49298e-07
6.51657e-09
0
1.00562e-07
0.000619732
0.00710159
0.0348443
0.0159485
0.0248109
0.0158838
0.17018
2.42332
9.08919
16.9129
21.0191
19.7682
21.8304
0.00131803
0.00129945
0.00126284
0.00120533
0.0011265
0.0010194
0.000898265
0.00077673
0.000656874
0.000536866
0.000424856
0.000327924
0.000248304
0.000184956
0.000136055
9.92637e-05
7.22602e-05
5.28567e-05
3.91599e-05
2.95104e-05
2.27144e-05
1.78304e-05
1.41654e-05
1.10622e-05
8.30134e-06
6.10316e-06
4.59802e-06
3.68292e-06
3.31194e-06
2.83265e-06
4.17082e-06
2.07737e-07
8.5367e-06
5.12938e-05
0.000109902
7.94475e-05
9.20945e-05
0.000240975
0.0150724
0.000890143
0.000897751
0.000897026
0.000890632
0.00087322
0.000845368
0.00080877
0.000762651
0.00070884
0.000649707
0.0005867
0.000522192
0.000458417
0.000397
0.000339315
0.000284297
0.000229884
0.000180048
0.000138622
0.00010707
8.83821e-05
6.40668e-05
4.25168e-05
2.38833e-06
4.8547e-08
8.50969e-09
2.49464e-10
0
0
0.00145454
0.00631672
0.0338167
0.00570788
0.0421361
0.0465501
1.66291
7.52677
13.9968
19.8756
0.000874085
0.000852132
0.000820696
0.000780116
0.000729542
0.000665643
0.000595727
0.000525021
0.000453207
0.00037996
0.000310165
0.000247724
0.000194536
0.000150756
0.000115785
8.85984e-05
6.79177e-05
5.24557e-05
4.10276e-05
3.25774e-05
2.62692e-05
2.14134e-05
1.74701e-05
1.39444e-05
1.07035e-05
8.01566e-06
5.98792e-06
4.51784e-06
3.44436e-06
2.66249e-06
2.07262e-06
1.60319e-06
1.03379e-06
5.10022e-07
1.00013e-10
7.30345e-06
1.14995e-05
4.8498e-05
0.00111904
0.000582488
0.000587615
0.000588435
0.000585462
0.000576172
0.000560261
0.000538384
0.00051029
0.000476756
0.000439296
0.000399139
0.000357836
0.000317068
0.000278207
0.000242187
0.000210021
0.000182838
0.000159215
0.000136762
0.000114919
9.60935e-05
8.18946e-05
7.21606e-05
5.00991e-05
2.19457e-05
5.57178e-06
1.2471e-07
1.1961e-08
3.44263e-09
1.4762e-11
0
0
0.000429605
0.0178992
0.012618
0.033695
0.417136
4.90859
14.1156
0.000572963
0.000560188
0.00054186
0.000517121
0.000485888
0.000447238
0.000405718
0.000362764
0.000318241
0.000272768
0.00022875
0.000188189
0.000152263
0.000121391
9.56034e-05
7.46339e-05
5.79565e-05
4.49678e-05
3.50197e-05
2.74521e-05
2.16962e-05
1.72528e-05
1.3703e-05
1.06766e-05
8.02414e-06
5.8597e-06
4.23746e-06
3.07543e-06
2.24982e-06
1.6743e-06
1.29938e-06
1.081e-06
9.59035e-07
7.85266e-07
4.38927e-07
4.91392e-09
8.12115e-10
7.03173e-13
2.43583e-05
0.000400143
0.000405625
0.000408897
0.00041022
0.000407977
0.00040188
0.000392257
0.000378545
0.00036097
0.000340183
0.000316485
0.000290696
0.00026367
0.000236165
0.000208934
0.000182715
0.00015735
0.000132469
0.000109462
8.96631e-05
7.3722e-05
6.2332e-05
5.49657e-05
5.00362e-05
4.0918e-05
2.83866e-05
1.58634e-05
6.87812e-06
2.32388e-06
8.01273e-09
3.77342e-09
2.99778e-12
0
0
0.00113885
0.0241993
0.0273153
0.466511
6.39353
0.000391978
0.000382249
0.000369399
0.000352683
0.00033228
0.000307843
0.000282214
0.000255253
0.000226977
0.000198179
0.000169894
0.00014325
0.000118962
9.73989e-05
7.87702e-05
6.31191e-05
5.02583e-05
3.99321e-05
3.17896e-05
2.54266e-05
2.04518e-05
1.65104e-05
1.32881e-05
1.05114e-05
8.06642e-06
6.03465e-06
4.46244e-06
3.28958e-06
2.41524e-06
1.76311e-06
1.28429e-06
9.34501e-07
6.79105e-07
4.92976e-07
3.82775e-07
3.15725e-07
1.80149e-07
1.14259e-09
1.53707e-07
0.000278437
0.000282843
0.000286075
0.000288103
0.000288029
0.000285563
0.000280792
0.000273257
0.000263008
0.000250299
0.000235292
0.000218431
0.000200259
0.000181306
0.00016219
0.000143381
0.000125414
0.000108982
9.40638e-05
8.05667e-05
6.85863e-05
5.84805e-05
5.03999e-05
4.39751e-05
3.76098e-05
3.04121e-05
2.34345e-05
1.6976e-05
1.22047e-05
6.49299e-06
2.79518e-06
2.61811e-09
9.72514e-10
0
0
0
0.00986358
0.0254702
1.52663
0.000272456
0.000265612
0.000256897
0.000245548
0.000232055
0.000216274
0.000199886
0.000182488
0.000164172
0.000145562
0.000127128
0.000109458
9.29676e-05
7.79091e-05
6.44846e-05
5.28149e-05
4.28966e-05
3.46472e-05
2.7913e-05
2.24836e-05
1.81247e-05
1.45995e-05
1.16865e-05
9.19687e-06
7.04124e-06
5.25463e-06
3.86644e-06
2.8298e-06
2.06284e-06
1.49888e-06
1.09274e-06
8.11111e-07
6.24489e-07
5.0862e-07
4.46584e-07
4.53926e-07
5.26834e-07
5.92034e-07
3.89681e-10
0.000197885
0.000201528
0.000204592
0.000206979
0.000208094
0.000207806
0.000206076
0.000202545
0.000197202
0.000190116
0.000181278
0.000170905
0.00015927
0.000146664
0.000133446
0.000119958
0.000106602
9.34649e-05
8.07437e-05
6.90284e-05
5.88418e-05
5.03985e-05
4.35494e-05
3.76084e-05
3.17277e-05
2.56229e-05
2.00026e-05
1.56221e-05
1.26074e-05
1.04012e-05
8.48668e-06
4.55068e-06
7.65915e-07
3.48438e-09
0
0
1.70269e-05
0.00392639
0.192262
0.00019327
0.000188249
0.000182083
0.000174139
0.000164973
0.000154575
0.000143764
0.000132254
0.000120196
0.000107957
9.57651e-05
8.39365e-05
7.2685e-05
6.21583e-05
5.25277e-05
4.39153e-05
3.63679e-05
2.99036e-05
2.44668e-05
1.99593e-05
1.62492e-05
1.3185e-05
1.06167e-05
8.41552e-06
6.51121e-06
4.92236e-06
3.66877e-06
2.71551e-06
1.99774e-06
1.45965e-06
1.06226e-06
7.74685e-07
5.69353e-07
4.30122e-07
3.40738e-07
3.24139e-07
3.15521e-07
8.75661e-07
1.33806e-07
0.000142645
0.000145542
0.000148165
0.000150397
0.000151837
0.000152433
0.00015208
0.000150554
0.000147774
0.000143758
0.000138439
0.000131911
0.000124309
0.000115788
0.000106592
9.69717e-05
8.71776e-05
7.75167e-05
6.82582e-05
5.96011e-05
5.17924e-05
4.4957e-05
3.90669e-05
3.37486e-05
2.84395e-05
2.29861e-05
1.78927e-05
1.3824e-05
1.09378e-05
9.06118e-06
7.79615e-06
7.08126e-06
5.46409e-06
1.84985e-06
4.75846e-09
0
0
0.000846504
0.0276127
0.000139136
0.000135448
0.000131059
0.000125418
0.000119069
0.000112084
0.000104776
9.70004e-05
8.89354e-05
8.0769e-05
7.25943e-05
6.45916e-05
5.68743e-05
4.95186e-05
4.26274e-05
3.63018e-05
3.0601e-05
2.55692e-05
2.1214e-05
1.75e-05
1.43604e-05
1.17105e-05
9.45709e-06
7.51624e-06
5.84111e-06
4.43991e-06
3.32315e-06
2.465e-06
1.81501e-06
1.32709e-06
9.67407e-07
7.09285e-07
5.29681e-07
4.12131e-07
3.40256e-07
3.31712e-07
3.29082e-07
6.59067e-07
1.03025e-06
0.00010422
0.000106528
0.000108719
0.000110689
0.00011218
0.000113155
0.000113533
0.000113132
0.00011189
0.000109788
0.000106746
0.000102796
9.79868e-05
9.23975e-05
8.61588e-05
7.94258e-05
7.23817e-05
6.52439e-05
5.81262e-05
5.12341e-05
4.48795e-05
3.92369e-05
3.42873e-05
2.97709e-05
2.52878e-05
2.07037e-05
1.6355e-05
1.27387e-05
1.00303e-05
8.09066e-06
6.6712e-06
5.82473e-06
5.43196e-06
5.02564e-06
2.16949e-06
2.92409e-09
0
0.000103909
0.0083556
0.000101537
9.87771e-05
9.56028e-05
9.15427e-05
8.70701e-05
8.22755e-05
7.72381e-05
7.18964e-05
6.64193e-05
6.08846e-05
5.53402e-05
4.98803e-05
4.45571e-05
3.93978e-05
3.44747e-05
2.9853e-05
2.55784e-05
2.17038e-05
1.82536e-05
1.52333e-05
1.26195e-05
1.03678e-05
8.42162e-06
6.73096e-06
5.27011e-06
4.04135e-06
3.05085e-06
2.27961e-06
1.68897e-06
1.24141e-06
9.07846e-07
6.65253e-07
4.92779e-07
3.76316e-07
3.03182e-07
2.85449e-07
2.91864e-07
4.81981e-07
1.22974e-06
7.7e-05
7.88276e-05
8.06205e-05
8.22903e-05
8.36628e-05
8.47191e-05
8.54029e-05
8.55667e-05
8.51589e-05
8.4153e-05
8.24716e-05
8.01168e-05
7.70961e-05
7.34344e-05
6.92092e-05
6.45156e-05
5.94669e-05
5.42327e-05
4.89428e-05
4.37364e-05
3.88025e-05
3.42793e-05
3.01722e-05
2.63366e-05
2.25292e-05
1.86628e-05
1.49759e-05
1.18404e-05
9.41682e-06
7.5961e-06
6.19672e-06
5.14321e-06
4.46839e-06
4.21657e-06
4.62257e-06
1.21825e-06
1.33453e-13
3.12332e-05
0.00279199
7.49482e-05
7.28661e-05
7.05358e-05
6.75866e-05
6.43917e-05
6.10355e-05
5.75053e-05
5.3781e-05
5.00072e-05
4.62108e-05
4.24076e-05
3.86453e-05
3.49484e-05
3.13253e-05
2.78061e-05
2.44361e-05
2.12499e-05
1.82903e-05
1.55866e-05
1.31569e-05
1.10021e-05
9.10538e-06
7.43936e-06
5.97913e-06
4.71165e-06
3.63962e-06
2.76613e-06
2.07783e-06
1.54566e-06
1.13953e-06
8.35127e-07
6.12904e-07
4.55053e-07
3.48733e-07
2.82373e-07
2.64129e-07
2.71676e-07
4.08724e-07
1.03842e-06
5.74567e-05
5.88984e-05
6.03518e-05
6.17405e-05
6.29449e-05
6.39638e-05
6.47436e-05
6.51763e-05
6.52264e-05
6.48587e-05
6.40145e-05
6.26739e-05
6.08344e-05
5.8497e-05
5.5694e-05
5.24772e-05
4.89145e-05
4.51268e-05
4.12027e-05
3.72325e-05
3.33595e-05
2.97268e-05
2.63527e-05
2.31504e-05
1.99632e-05
1.6732e-05
1.36276e-05
1.09343e-05
8.80165e-06
7.16342e-06
5.88367e-06
4.8702e-06
4.09541e-06
3.56602e-06
3.45414e-06
5.01769e-06
2.7974e-09
5.70293e-07
0.00070008
5.5873e-05
5.42951e-05
5.25582e-05
5.03956e-05
4.80877e-05
4.56947e-05
4.318e-05
4.05565e-05
3.79207e-05
3.52832e-05
3.26449e-05
3.00331e-05
2.74515e-05
2.48944e-05
2.23802e-05
1.99296e-05
1.75639e-05
1.53174e-05
1.32168e-05
1.12829e-05
9.5257e-06
7.94643e-06
6.5363e-06
5.2879e-06
4.1974e-06
3.26796e-06
2.5027e-06
1.8922e-06
1.41507e-06
1.04778e-06
7.70231e-07
5.65934e-07
4.19364e-07
3.19329e-07
2.55759e-07
2.3554e-07
2.3975e-07
3.50314e-07
8.40587e-07
4.32447e-05
4.43789e-05
4.55519e-05
4.66881e-05
4.7714e-05
4.86363e-05
4.94005e-05
4.99351e-05
5.02132e-05
5.02004e-05
4.98514e-05
4.91462e-05
4.80664e-05
4.66031e-05
4.47646e-05
4.25809e-05
4.00938e-05
3.73722e-05
3.44958e-05
3.15257e-05
2.85442e-05
2.56739e-05
2.29401e-05
2.02949e-05
1.76462e-05
1.49583e-05
1.23528e-05
1.00471e-05
8.17586e-06
6.71166e-06
5.55573e-06
4.63874e-06
3.9037e-06
3.39517e-06
2.75802e-06
4.23405e-06
9.47441e-07
4.70018e-11
4.34227e-05
4.2014e-05
4.08104e-05
3.95041e-05
3.79006e-05
3.6216e-05
3.44828e-05
3.26696e-05
3.07992e-05
2.89374e-05
2.70842e-05
2.52369e-05
2.34062e-05
2.15906e-05
1.97801e-05
1.79792e-05
1.61996e-05
1.44513e-05
1.27556e-05
1.11342e-05
9.60705e-06
8.18956e-06
6.88991e-06
5.70938e-06
4.64964e-06
3.71638e-06
2.91546e-06
2.24918e-06
1.71115e-06
1.28609e-06
9.55981e-07
7.04573e-07
5.18193e-07
3.83672e-07
2.91294e-07
2.31995e-07
2.11223e-07
2.12722e-07
2.99826e-07
6.83942e-07
3.27934e-05
3.3689e-05
3.46305e-05
3.55534e-05
3.64152e-05
3.72176e-05
3.79203e-05
3.84701e-05
3.88472e-05
3.90239e-05
3.89622e-05
3.86425e-05
3.80484e-05
3.71631e-05
3.59904e-05
3.45372e-05
3.28263e-05
3.08954e-05
2.88097e-05
2.66014e-05
2.43215e-05
2.20685e-05
1.98743e-05
1.77158e-05
1.55364e-05
1.33169e-05
1.11457e-05
9.18651e-06
7.55614e-06
6.25349e-06
5.21123e-06
4.38121e-06
3.70994e-06
3.24933e-06
2.6967e-06
2.76486e-06
3.86938e-06
4.70017e-12
3.53315e-07
3.18364e-05
3.09083e-05
2.99189e-05
2.87192e-05
2.7478e-05
2.62056e-05
2.48821e-05
2.35341e-05
2.22038e-05
2.0888e-05
1.95812e-05
1.82893e-05
1.70052e-05
1.57165e-05
1.44246e-05
1.31305e-05
1.18405e-05
1.05665e-05
9.32373e-06
8.12821e-06
6.99455e-06
5.93453e-06
4.95515e-06
4.0651e-06
3.27344e-06
2.58788e-06
2.01125e-06
1.54004e-06
1.16363e-06
8.68549e-07
6.41895e-07
4.72496e-07
3.49227e-07
2.63747e-07
2.08097e-07
1.86618e-07
1.8588e-07
2.5352e-07
5.5584e-07
2.50329e-05
2.57424e-05
2.6495e-05
2.72434e-05
2.79575e-05
2.86406e-05
2.92618e-05
2.97818e-05
3.01831e-05
3.04466e-05
3.05422e-05
3.04528e-05
3.01656e-05
2.96617e-05
2.89358e-05
2.7988e-05
2.6828e-05
2.54761e-05
2.39781e-05
2.23555e-05
2.0636e-05
1.88887e-05
1.71483e-05
1.5407e-05
1.36313e-05
1.18114e-05
1.00134e-05
8.36051e-06
6.95116e-06
5.80027e-06
4.86555e-06
4.11181e-06
3.50501e-06
3.05008e-06
2.71818e-06
2.1214e-06
4.56928e-06
3.68076e-11
5.45213e-18
2.42882e-05
2.35691e-05
2.28113e-05
2.19071e-05
2.09842e-05
2.0039e-05
1.90628e-05
1.80819e-05
1.71217e-05
1.61777e-05
1.52453e-05
1.43249e-05
1.34095e-05
1.24887e-05
1.15585e-05
1.0618e-05
9.66709e-06
8.71362e-06
7.76602e-06
6.83678e-06
5.93801e-06
5.08092e-06
4.27549e-06
3.53356e-06
2.86697e-06
2.28368e-06
1.78787e-06
1.37786e-06
1.0466e-06
7.84383e-07
5.81194e-07
4.28039e-07
3.15717e-07
2.37144e-07
1.85338e-07
1.63625e-07
1.61107e-07
2.12858e-07
4.48976e-07
1.92222e-05
1.97844e-05
2.0385e-05
2.09914e-05
2.15771e-05
2.21519e-05
2.26871e-05
2.31555e-05
2.35441e-05
2.38381e-05
2.40134e-05
2.40585e-05
2.39577e-05
2.36966e-05
2.32681e-05
2.26674e-05
2.18979e-05
2.09666e-05
1.99039e-05
1.87244e-05
1.74425e-05
1.61005e-05
1.47349e-05
1.33462e-05
1.19136e-05
1.04335e-05
8.95517e-06
7.5714e-06
6.36361e-06
5.35531e-06
4.52363e-06
3.84211e-06
3.29497e-06
2.85166e-06
2.61139e-06
2.00521e-06
3.36031e-06
4.71333e-07
8.05877e-11
1.86398e-05
1.80804e-05
1.74959e-05
1.6809e-05
1.61174e-05
1.54077e-05
1.46811e-05
1.39601e-05
1.326e-05
1.25761e-05
1.19046e-05
1.12442e-05
1.05877e-05
9.92549e-06
9.25354e-06
8.56836e-06
7.86787e-06
7.15564e-06
6.43646e-06
5.71811e-06
5.01073e-06
4.32443e-06
3.66857e-06
3.05481e-06
2.49646e-06
2.00359e-06
1.58013e-06
1.22571e-06
9.36042e-07
7.04393e-07
5.23228e-07
3.8543e-07
2.83532e-07
2.11562e-07
1.63474e-07
1.41794e-07
1.37886e-07
1.77246e-07
3.60067e-07
1.48378e-05
1.52827e-05
1.57641e-05
1.62524e-05
1.67325e-05
1.72103e-05
1.76655e-05
1.80746e-05
1.84316e-05
1.87228e-05
1.89306e-05
1.90446e-05
1.90543e-05
1.89458e-05
1.87135e-05
1.8349e-05
1.78515e-05
1.72235e-05
1.648e-05
1.56334e-05
1.4689e-05
1.36697e-05
1.26108e-05
1.15161e-05
1.03721e-05
9.17804e-06
7.9713e-06
6.82182e-06
5.79579e-06
4.92026e-06
4.18619e-06
3.57554e-06
3.08101e-06
2.67197e-06
2.42337e-06
2.03146e-06
2.2853e-06
2.01502e-06
2.20232e-08
1.43805e-05
1.39432e-05
1.34897e-05
1.29651e-05
1.24413e-05
1.19046e-05
1.1359e-05
1.08245e-05
1.0309e-05
9.80938e-06
9.32154e-06
8.84343e-06
8.36921e-06
7.89027e-06
7.40252e-06
6.90231e-06
6.38608e-06
5.85465e-06
5.31053e-06
4.75872e-06
4.20545e-06
3.659e-06
3.12823e-06
2.62499e-06
2.16175e-06
1.74805e-06
1.38851e-06
1.08398e-06
8.32193e-07
6.28727e-07
4.68079e-07
3.44736e-07
2.52768e-07
1.8717e-07
1.4278e-07
1.21472e-07
1.16536e-07
1.46242e-07
2.86601e-07
1.15066e-05
1.18596e-05
1.22449e-05
1.26386e-05
1.303e-05
1.34254e-05
1.38069e-05
1.41589e-05
1.44756e-05
1.4747e-05
1.49597e-05
1.51063e-05
1.51779e-05
1.5164e-05
1.50571e-05
1.48507e-05
1.45408e-05
1.41271e-05
1.36145e-05
1.30152e-05
1.23289e-05
1.15649e-05
1.07527e-05
9.89903e-06
8.99455e-06
8.03974e-06
7.06246e-06
6.11522e-06
5.2511e-06
4.4976e-06
3.85474e-06
3.31262e-06
2.86584e-06
2.50019e-06
2.22972e-06
2.00279e-06
1.78778e-06
2.30663e-06
4.97506e-07
1.11466e-05
1.08031e-05
1.04497e-05
1.00471e-05
9.64613e-06
9.23756e-06
8.82511e-06
8.42487e-06
8.04215e-06
7.67374e-06
7.31628e-06
6.96754e-06
6.6223e-06
6.27406e-06
5.91853e-06
5.55199e-06
5.17107e-06
4.77501e-06
4.36414e-06
3.94141e-06
3.51138e-06
3.0797e-06
2.65343e-06
2.24341e-06
1.86139e-06
1.51623e-06
1.21286e-06
9.52869e-07
7.35404e-07
5.5776e-07
4.16106e-07
3.06275e-07
2.23675e-07
1.64156e-07
1.23386e-07
1.02721e-07
9.70855e-08
1.19497e-07
2.26641e-07
8.96015e-06
9.2411e-06
9.54938e-06
9.86674e-06
1.01852e-05
1.05106e-05
1.08279e-05
1.11265e-05
1.14017e-05
1.16456e-05
1.18485e-05
1.20046e-05
1.21067e-05
1.21465e-05
1.21181e-05
1.20151e-05
1.18326e-05
1.15687e-05
1.1224e-05
1.08081e-05
1.03166e-05
9.75155e-06
9.13603e-06
8.47773e-06
7.77014e-06
7.01332e-06
6.22817e-06
5.45387e-06
4.73249e-06
4.08987e-06
3.53153e-06
3.05414e-06
2.65284e-06
2.32707e-06
2.05652e-06
1.89222e-06
1.60554e-06
1.87917e-06
1.24983e-06
8.67607e-06
8.40525e-06
8.12896e-06
7.81826e-06
7.50907e-06
7.19562e-06
6.88172e-06
6.57994e-06
6.29337e-06
6.01941e-06
5.75493e-06
5.49817e-06
5.24521e-06
4.99025e-06
4.72986e-06
4.46033e-06
4.17847e-06
3.88316e-06
3.57366e-06
3.25102e-06
2.91781e-06
2.57859e-06
2.23879e-06
1.90706e-06
1.59371e-06
1.30748e-06
1.05316e-06
8.32604e-07
6.45923e-07
4.91723e-07
3.67495e-07
2.70198e-07
1.96379e-07
1.42635e-07
1.05406e-07
8.56442e-08
7.96048e-08
9.6529e-08
1.77934e-07
7.00302e-06
7.22679e-06
7.47415e-06
7.72943e-06
7.9886e-06
8.25514e-06
8.51787e-06
8.76875e-06
9.00414e-06
9.21822e-06
9.40327e-06
9.5553e-06
9.66893e-06
9.73729e-06
9.75625e-06
9.7193e-06
9.62236e-06
9.46261e-06
9.23772e-06
8.95424e-06
8.60739e-06
8.1958e-06
7.73535e-06
7.23342e-06
6.68603e-06
6.09209e-06
5.46668e-06
4.83914e-06
4.24233e-06
3.69922e-06
3.21853e-06
2.8013e-06
2.44429e-06
2.15233e-06
1.89983e-06
1.74225e-06
1.51407e-06
1.48913e-06
1.45829e-06
6.77867e-06
6.56407e-06
6.3472e-06
6.10621e-06
5.86645e-06
5.6246e-06
5.38416e-06
5.15478e-06
4.93841e-06
4.73274e-06
4.53579e-06
4.34551e-06
4.15851e-06
3.97044e-06
3.77842e-06
3.57951e-06
3.37053e-06
3.14994e-06
2.91673e-06
2.67101e-06
2.41414e-06
2.14874e-06
1.87905e-06
1.61216e-06
1.35703e-06
1.12123e-06
9.09228e-07
7.232e-07
5.63858e-07
4.30752e-07
3.22394e-07
2.36668e-07
1.71019e-07
1.22731e-07
8.89372e-08
7.02907e-08
6.41315e-08
7.7004e-08
1.38716e-07
5.49152e-06
5.67013e-06
5.86843e-06
6.07407e-06
6.28468e-06
6.50242e-06
6.71921e-06
6.92823e-06
7.12762e-06
7.31222e-06
7.47677e-06
7.61792e-06
7.73182e-06
7.81298e-06
7.85791e-06
7.86175e-06
7.82044e-06
7.73098e-06
7.59022e-06
7.40181e-06
7.16202e-06
6.86747e-06
6.52774e-06
6.14982e-06
5.73105e-06
5.26949e-06
4.77573e-06
4.27162e-06
3.78235e-06
3.32768e-06
2.91749e-06
2.55557e-06
2.24087e-06
1.97882e-06
1.75085e-06
1.58847e-06
1.41833e-06
1.25601e-06
1.31556e-06
5.31398e-06
5.14362e-06
4.97269e-06
4.78479e-06
4.59784e-06
4.41035e-06
4.22486e-06
4.04941e-06
3.88484e-06
3.72931e-06
3.58112e-06
3.43885e-06
3.29956e-06
3.16005e-06
3.01782e-06
2.8701e-06
2.71453e-06
2.54958e-06
2.37381e-06
2.18682e-06
1.98922e-06
1.78251e-06
1.56958e-06
1.35609e-06
1.14943e-06
9.56257e-07
7.80453e-07
6.2442e-07
4.89201e-07
3.74964e-07
2.80964e-07
2.05816e-07
1.47715e-07
1.04548e-07
7.40611e-08
5.66911e-08
5.06292e-08
6.05677e-08
1.07424e-07
4.31916e-06
4.46181e-06
4.62085e-06
4.7868e-06
4.95743e-06
5.13516e-06
5.31326e-06
5.48677e-06
5.65392e-06
5.81134e-06
5.95451e-06
6.08153e-06
6.18882e-06
6.27296e-06
6.33086e-06
6.35842e-06
6.35244e-06
6.3097e-06
6.22738e-06
6.10675e-06
5.94499e-06
5.73858e-06
5.4916e-06
5.21084e-06
4.89398e-06
4.53887e-06
4.15267e-06
3.75137e-06
3.35391e-06
2.97688e-06
2.63002e-06
2.31869e-06
2.04352e-06
1.8094e-06
1.60522e-06
1.44398e-06
1.30292e-06
1.11217e-06
1.11362e-06
4.17807e-06
4.04297e-06
3.90765e-06
3.76056e-06
3.61416e-06
3.46801e-06
3.32419e-06
3.18892e-06
3.06279e-06
2.94423e-06
2.83206e-06
2.7249e-06
2.62046e-06
2.51602e-06
2.40974e-06
2.29956e-06
2.18336e-06
2.05966e-06
1.92707e-06
1.78492e-06
1.63325e-06
1.47275e-06
1.30532e-06
1.13527e-06
9.68641e-07
8.11046e-07
6.66164e-07
5.36001e-07
4.21882e-07
3.24374e-07
2.43253e-07
1.77708e-07
1.2655e-07
8.81602e-08
6.08236e-08
4.4842e-08
3.90609e-08
4.6865e-08
8.25947e-08
3.40616e-06
3.5202e-06
3.64782e-06
3.78185e-06
3.92005e-06
4.06493e-06
4.21087e-06
4.35416e-06
4.49369e-06
4.62651e-06
4.74955e-06
4.86122e-06
4.95893e-06
5.04016e-06
5.10223e-06
5.14241e-06
5.15765e-06
5.14518e-06
5.10254e-06
5.02917e-06
4.92386e-06
4.78228e-06
4.60557e-06
4.39978e-06
4.16333e-06
3.89329e-06
3.59426e-06
3.27776e-06
2.95795e-06
2.64813e-06
2.35753e-06
2.09193e-06
1.8532e-06
1.64571e-06
1.46292e-06
1.30973e-06
1.17958e-06
1.0007e-06
9.44041e-07
3.29383e-06
3.18644e-06
3.07901e-06
2.96349e-06
2.84842e-06
2.73387e-06
2.62188e-06
2.51706e-06
2.4197e-06
2.32869e-06
2.24303e-06
2.16155e-06
2.08248e-06
2.00389e-06
1.92413e-06
1.84141e-06
1.75416e-06
1.6611e-06
1.56096e-06
1.4528e-06
1.33644e-06
1.21208e-06
1.08091e-06
9.46065e-07
8.12402e-07
6.84466e-07
5.65586e-07
4.5754e-07
3.6173e-07
2.7891e-07
2.09255e-07
1.52378e-07
1.07552e-07
7.35913e-08
4.92285e-08
3.46964e-08
2.93281e-08
3.56163e-08
6.30981e-08
2.69249e-06
2.7839e-06
2.88641e-06
2.99452e-06
3.10652e-06
3.22438e-06
3.34378e-06
3.46166e-06
3.57759e-06
3.68889e-06
3.79354e-06
3.89013e-06
3.97704e-06
4.05196e-06
4.11326e-06
4.15871e-06
4.18576e-06
4.19216e-06
4.17562e-06
4.13485e-06
4.06941e-06
3.97542e-06
3.8516e-06
3.70335e-06
3.52913e-06
3.326e-06
3.09667e-06
2.84936e-06
2.59453e-06
2.34241e-06
2.10114e-06
1.87646e-06
1.67102e-06
1.48842e-06
1.32527e-06
1.18337e-06
1.05898e-06
8.98376e-07
8.10002e-07
2.60311e-06
2.51751e-06
2.43195e-06
2.341e-06
2.25023e-06
2.16009e-06
2.07251e-06
1.99076e-06
1.91519e-06
1.84483e-06
1.77897e-06
1.71659e-06
1.65632e-06
1.59663e-06
1.5363e-06
1.47393e-06
1.40813e-06
1.3378e-06
1.26195e-06
1.17967e-06
1.09046e-06
9.94206e-07
8.91592e-07
7.84958e-07
6.78095e-07
5.74788e-07
4.77663e-07
3.88433e-07
3.08392e-07
2.38404e-07
1.78902e-07
1.29793e-07
9.06985e-08
6.08187e-08
3.92494e-08
2.61851e-08
2.1317e-08
2.65171e-08
4.78955e-08
2.13293e-06
2.20625e-06
2.28871e-06
2.37589e-06
2.4666e-06
2.56244e-06
2.65985e-06
2.75672e-06
2.85255e-06
2.94541e-06
3.0336e-06
3.11624e-06
3.19206e-06
3.25938e-06
3.31702e-06
3.36311e-06
3.3957e-06
3.4131e-06
3.41315e-06
3.39446e-06
3.35676e-06
3.29676e-06
3.21235e-06
3.10741e-06
2.98093e-06
2.83e-06
2.65603e-06
2.46468e-06
2.26349e-06
2.06029e-06
1.86181e-06
1.67333e-06
1.49789e-06
1.33861e-06
1.19351e-06
1.0639e-06
9.45934e-07
8.00995e-07
6.99753e-07
2.06175e-06
1.99345e-06
1.92515e-06
1.8533e-06
1.7815e-06
1.71029e-06
1.64149e-06
1.57751e-06
1.51851e-06
1.46375e-06
1.4127e-06
1.36461e-06
1.31835e-06
1.27274e-06
1.22674e-06
1.17937e-06
1.12949e-06
1.07624e-06
1.0186e-06
9.55833e-07
8.87422e-07
8.13047e-07
7.32949e-07
6.48887e-07
5.6373e-07
4.80558e-07
4.01537e-07
3.28141e-07
2.61555e-07
2.02695e-07
1.52092e-07
1.09887e-07
7.5959e-08
4.98067e-08
3.08285e-08
1.92082e-08
1.48876e-08
1.92968e-08
3.61633e-08
1.69297e-06
1.75176e-06
1.81819e-06
1.88845e-06
1.96192e-06
2.03983e-06
2.11917e-06
2.19864e-06
2.27755e-06
2.35468e-06
2.42853e-06
2.49859e-06
2.56375e-06
2.62306e-06
2.6754e-06
2.7194e-06
2.75372e-06
2.77672e-06
2.78689e-06
2.78267e-06
2.76396e-06
2.72782e-06
2.67216e-06
2.59941e-06
2.5091e-06
2.39854e-06
2.26804e-06
2.1215e-06
1.96418e-06
1.80189e-06
1.64014e-06
1.48344e-06
1.3346e-06
1.19684e-06
1.06865e-06
9.51335e-07
8.41188e-07
7.09747e-07
6.05724e-07
1.63614e-06
1.58162e-06
1.52705e-06
1.47012e-06
1.41318e-06
1.35681e-06
1.30252e-06
1.25221e-06
1.2059e-06
1.16303e-06
1.12323e-06
1.08587e-06
1.05007e-06
1.01498e-06
9.79751e-07
9.43558e-07
9.05551e-07
8.64977e-07
8.21061e-07
7.73104e-07
7.20558e-07
6.63073e-07
6.00647e-07
5.34494e-07
4.66833e-07
4.00085e-07
3.36018e-07
2.75892e-07
2.2075e-07
1.71473e-07
1.28642e-07
9.25421e-08
6.32445e-08
4.04746e-08
2.38772e-08
1.3642e-08
9.87786e-09
1.36916e-08
2.71945e-08
1.34607e-06
1.39331e-06
1.44676e-06
1.50347e-06
1.56292e-06
1.62614e-06
1.69079e-06
1.75577e-06
1.82062e-06
1.88438e-06
1.94593e-06
2.00484e-06
2.06043e-06
2.11186e-06
2.15834e-06
2.1989e-06
2.2324e-06
2.25761e-06
2.27334e-06
2.27816e-06
2.27191e-06
2.25229e-06
2.21716e-06
2.16826e-06
2.10497e-06
2.02502e-06
1.92829e-06
1.81724e-06
1.69544e-06
1.56707e-06
1.43637e-06
1.3072e-06
1.18207e-06
1.0636e-06
9.51323e-07
8.45777e-07
7.44443e-07
6.25583e-07
5.24092e-07
1.30063e-06
1.25713e-06
1.21349e-06
1.16821e-06
1.123e-06
1.07829e-06
1.0353e-06
9.95575e-07
9.59059e-07
9.2535e-07
8.94136e-07
8.64923e-07
8.37058e-07
8.09836e-07
7.82673e-07
7.54868e-07
7.25745e-07
6.94715e-07
6.61129e-07
6.24393e-07
5.84012e-07
5.39554e-07
4.90917e-07
4.38927e-07
3.8525e-07
3.31845e-07
2.80079e-07
2.31005e-07
1.85525e-07
1.44438e-07
1.0835e-07
7.76116e-08
5.243e-08
3.27061e-08
1.82777e-08
9.34383e-09
6.118e-09
9.46152e-09
2.04187e-08
1.07192e-06
1.10992e-06
1.15292e-06
1.19869e-06
1.24682e-06
1.29806e-06
1.3507e-06
1.40375e-06
1.45696e-06
1.50949e-06
1.56059e-06
1.60987e-06
1.65686e-06
1.70089e-06
1.74149e-06
1.7778e-06
1.80911e-06
1.83442e-06
1.85271e-06
1.86276e-06
1.86444e-06
1.85591e-06
1.83528e-06
1.80353e-06
1.7602e-06
1.70337e-06
1.63258e-06
1.54929e-06
1.45588e-06
1.35527e-06
1.25062e-06
1.14497e-06
1.04055e-06
9.39552e-07
8.41834e-07
7.47768e-07
6.55634e-07
5.49012e-07
4.53103e-07
1.03558e-06
1.00081e-06
9.65916e-07
9.29802e-07
8.93849e-07
8.58312e-07
8.24205e-07
7.92716e-07
7.63818e-07
7.37166e-07
7.12545e-07
6.89609e-07
6.67798e-07
6.46552e-07
6.25456e-07
6.03952e-07
5.81525e-07
5.57709e-07
5.31943e-07
5.03719e-07
4.72613e-07
4.38201e-07
4.00306e-07
3.59495e-07
3.17018e-07
2.7436e-07
2.32655e-07
1.92726e-07
1.55352e-07
1.21233e-07
9.09543e-08
6.49038e-08
4.33619e-08
2.6368e-08
1.38969e-08
6.16007e-09
3.43211e-09
6.37958e-09
1.53705e-08
8.5481e-07
8.85365e-07
9.19997e-07
9.56917e-07
9.95856e-07
1.03742e-06
1.08019e-06
1.12346e-06
1.16704e-06
1.21023e-06
1.25246e-06
1.29348e-06
1.33291e-06
1.37029e-06
1.40526e-06
1.43726e-06
1.46564e-06
1.48965e-06
1.5085e-06
1.52125e-06
1.52767e-06
1.52636e-06
1.51572e-06
1.49616e-06
1.46731e-06
1.42765e-06
1.37657e-06
1.31477e-06
1.24382e-06
1.16567e-06
1.08259e-06
9.96905e-07
9.10402e-07
8.24921e-07
7.40519e-07
6.57514e-07
5.7458e-07
4.79658e-07
3.91311e-07
8.25717e-07
7.97904e-07
7.69985e-07
7.41169e-07
7.12516e-07
6.84225e-07
6.57109e-07
6.3208e-07
6.09128e-07
5.87975e-07
5.68497e-07
5.50346e-07
5.33158e-07
5.16527e-07
5.00069e-07
4.83354e-07
4.65989e-07
4.47605e-07
4.27758e-07
4.06017e-07
3.8201e-07
3.55365e-07
3.25834e-07
2.93792e-07
2.60217e-07
2.26222e-07
1.92706e-07
1.6032e-07
1.29711e-07
1.01491e-07
7.61904e-08
5.42155e-08
3.5875e-08
2.13073e-08
1.05843e-08
3.92878e-09
1.64167e-09
4.23838e-09
1.16674e-08
6.8253e-07
7.07118e-07
7.34992e-07
7.64783e-07
7.96271e-07
8.2995e-07
8.6469e-07
8.99932e-07
9.35556e-07
9.70963e-07
1.00577e-06
1.03978e-06
1.07269e-06
1.10421e-06
1.13403e-06
1.16177e-06
1.18692e-06
1.20892e-06
1.22719e-06
1.24097e-06
1.24993e-06
1.25309e-06
1.24904e-06
1.23794e-06
1.21946e-06
1.19239e-06
1.15605e-06
1.11076e-06
1.05739e-06
9.97205e-07
9.31773e-07
8.62802e-07
7.91714e-07
7.19872e-07
6.47544e-07
5.74871e-07
5.01121e-07
4.1741e-07
3.37508e-07
6.59224e-07
6.36976e-07
6.14614e-07
5.916e-07
5.68746e-07
5.46195e-07
5.24596e-07
5.04666e-07
4.86387e-07
4.69543e-07
4.54046e-07
4.39657e-07
4.26059e-07
4.12942e-07
4.00024e-07
3.86976e-07
3.73483e-07
3.59241e-07
3.43893e-07
3.2711e-07
3.08552e-07
2.87876e-07
2.64851e-07
2.39713e-07
2.13182e-07
1.86141e-07
1.59259e-07
1.33064e-07
1.08079e-07
8.48286e-08
6.37797e-08
4.53208e-08
2.97803e-08
1.73552e-08
8.18122e-09
2.48855e-09
5.79657e-10
2.84806e-09
9.00399e-09
5.45582e-07
5.65368e-07
5.87798e-07
6.11841e-07
6.37298e-07
6.64571e-07
6.92771e-07
7.21454e-07
7.50516e-07
7.79513e-07
8.08127e-07
8.36213e-07
8.63562e-07
8.89948e-07
9.15166e-07
9.38934e-07
9.6088e-07
9.80592e-07
9.97587e-07
1.01124e-06
1.02125e-06
1.02695e-06
1.02716e-06