# p  FACE_DATA 300
# x y z  p
0.29787915 -0.05 -0.060005454 21746.058
0.29366024 -0.05 -0.059998184 21741.964
0.28948669 -0.05 -0.059982824 21739.438
0.28535801 -0.05 -0.05995956 21737.837
0.28127374 -0.05 -0.05992843 21737.329
0.27723341 -0.05 -0.059889544 21737.183
0.27323659 -0.05 -0.059843056 21738.016
0.2692828 -0.05 -0.059789027 21739.875
0.26537161 -0.05 -0.059727601 21742.3
0.26150257 -0.05 -0.05965892 21745.645
0.25767524 -0.05 -0.059583046 21750.108
0.2538892 -0.05 -0.059500074 21755.594
0.25014401 -0.05 -0.059410118 21762.095
0.24643926 -0.05 -0.059313284 21769.625
0.24277452 -0.05 -0.059209673 21778.139
0.23914938 -0.05 -0.059099387 21787.59
0.23556343 -0.05 -0.058982537 21797.757
0.23201627 -0.05 -0.058859254 21808.818
0.2285075 -0.05 -0.058729541 21821.5
0.22503671 -0.05 -0.058593532 21834.351
0.22160352 -0.05 -0.058451379 21848.427
0.21820754 -0.05 -0.058303115 21863.347
0.21484838 -0.05 -0.058148846 21879.256
0.21152567 -0.05 -0.05798866 21896.078
0.20823903 -0.05 -0.057822651 21913.902
0.20498809 -0.05 -0.057650874 21932.818
0.20177248 -0.05 -0.057473468 21952.169
0.19859184 -0.05 -0.057290478 21973.045
0.1954458 -0.05 -0.057101994 21993.919
0.19233402 -0.05 -0.056908168 22015.89
0.18925614 -0.05 -0.056708999 22039.151
0.18621181 -0.05 -0.056504562 22063.59
0.18320071 -0.05 -0.056294919 22089.112
0.18022246 -0.05 -0.056080229 22114.742
0.17727675 -0.05 -0.055860526 22142.138
0.17436324 -0.05 -0.05563585 22169.587
0.1714816 -0.05 -0.055406376 22198.007
0.16863151 -0.05 -0.055172052 22228.284
0.16581265 -0.05 -0.054932944 22259.004
0.16302469 -0.05 -0.054689208 22290.502
0.16026732 -0.05 -0.054440898 22322.822
0.15754024 -0.05 -0.054188056 22356.245
0.15484313 -0.05 -0.053930725 22390.576
0.15217569 -0.05 -0.053668978 22425.738
0.14953762 -0.05 -0.053402888 22462.058
0.14692863 -0.05 -0.053132457 22499.9
0.14434842 -0.05 -0.052857799 22537.604
0.14179669 -0.05 -0.052579044 22576.39
0.13927317 -0.05 -0.05229612 22617.011
0.13677758 -0.05 -0.052009061 22658.492
0.13430961 -0.05 -0.051717985 22700.681
0.13186901 -0.05 -0.051422993 22743.183
0.1294555 -0.05 -0.051124081 22787.511
0.12706881 -0.05 -0.050821224 22833.009
0.12470868 -0.05 -0.050514504 22879.374
0.12237483 -0.05 -0.05020403 22926.026
0.120067 -0.05 -0.049889836 22974.221
0.11778495 -0.05 -0.049571874 23023.561
0.11552842 -0.05 -0.049250263 23073.223
0.11329715 -0.05 -0.048924992 23124.705
0.1110909 -0.05 -0.048596121 23176.244
0.10890943 -0.05 -0.048263656 23230.526
0.10675251 -0.05 -0.047927554 23285.275
0.10461987 -0.05 -0.047587958 23340.653
0.1025113 -0.05 -0.047244937 23396.527
0.10042655 -0.05 -0.046898432 23454.338
0.098365405 -0.05 -0.046548446 23512.504
0.096327639 -0.05 -0.046195043 23572.198
0.094313028 -0.05 -0.045838237 23632.999
0.092321357 -0.05 -0.045478019 23695.927
0.090352417 -0.05 -0.04511438 23759.547
0.088405979 -0.05 -0.044747421 23823.973
0.086481845 -0.05 -0.044377096 23890.324
0.084579815 -0.05 -0.044003384 23957.444
0.082699669 -0.05 -0.043626384 24025.716
0.080841229 -0.05 -0.043246005 24096.483
0.0790043 -0.05 -0.042862236 24167.629
0.077188665 -0.05 -0.0424752 24239.986
0.07539416 -0.05 -0.042084789 24314.768
0.073620599 -0.05 -0.041690997 24390.157
0.071867788 -0.05 -0.041293877 24466.998
0.070135557 -0.05 -0.040893385 24545.313
0.068423742 -0.05 -0.040489457 24625.927
0.066732169 -0.05 -0.040082112 24707.687
0.065060663 -0.05 -0.039671361 24791.742
0.063409062 -0.05 -0.039257174 24877.208
0.061777219 -0.05 -0.038839488 24964.717
0.060164984 -0.05 -0.038418265 25052.967
0.058572196 -0.05 -0.037993513 25143.586
0.056998721 -0.05 -0.037565159 25236.423
0.055444419 -0.05 -0.03713316 25331.311
0.053909142 -0.05 -0.036697516 25427.669
0.052392764 -0.05 -0.036258171 25526.602
0.050895177 -0.05 -0.035815009 25627.696
0.049416244 -0.05 -0.035368033 25730.515
0.047955856 -0.05 -0.034917167 25836.139
0.046513915 -0.05 -0.034462309 25943.831
0.045090302 -0.05 -0.034003445 26053.867
0.043684931 -0.05 -0.033540468 26167.484
0.042297731 -0.05 -0.03307324 26284.554
0.040928604 -0.05 -0.032601735 26404.455
0.039577476 -0.05 -0.032125845 26528.268
0.038244292 -0.05 -0.03164545 26655.623
0.036928981 -0.05 -0.031160474 26786.783
0.0356315 -0.05 -0.030670795 26921.619
0.03435181 -0.05 -0.030176299 27061.169
0.033089918 -0.05 -0.029676761 27206.025
0.031845783 -0.05 -0.029172106 27353.369
0.030619394 -0.05 -0.028662209 27505.545
0.029410776 -0.05 -0.028146878 27661.448
0.028219949 -0.05 -0.027625962 27822.303
0.027046957 -0.05 -0.027099267 27987.618
0.025891857 -0.05 -0.026566614 28158.372
0.02475474 -0.05 -0.026027768 28334.463
0.023635681 -0.05 -0.025482558 28516.229
0.022534817 -0.05 -0.024930718 28704.322
0.021452274 -0.05 -0.024372036 28897.45
0.020388213 -0.05 -0.023806274 29096.289
0.019342865 -0.05 -0.023233111 29300.751
0.018316468 -0.05 -0.022652259 29512.09
0.017309264 -0.05 -0.02206346 29731.553
0.016321577 -0.05 -0.021466368 29959.927
0.015353757 -0.05 -0.020860644 30195.842
0.014406156 -0.05 -0.020245997 30439.868
0.013479274 -0.05 -0.019622013 30692.202
0.012573638 -0.05 -0.018988322 30952.419
0.0116898 -0.05 -0.018344552 31220.333
0.010828378 -0.05 -0.017690314 31495.638
0.0099901248 -0.05 -0.017025149 31779.105
0.0091759198 -0.05 -0.016348644 32069.823
0.008386597 -0.05 -0.0156605 32366.766
0.0076231725 -0.05 -0.014960218 32671.462
0.0068867853 -0.05 -0.014247452 32980.389
0.0061787359 -0.05 -0.013521943 33292.16
0.0055003792 -0.05 -0.012783302 33603.24
0.0048530826 -0.05 -0.012031363 33910.382
0.0042385571 -0.05 -0.011266143 34210.017
0.0036585397 -0.05 -0.010487553 34496.916
0.0031148318 -0.05 -0.0096957287 34762.19
0.0026094399 -0.05 -0.0088912322 34994.48
0.0021442246 -0.05 -0.0080745628 35189.31
0.0017210465 -0.05 -0.0072465895 35349.406
0.0013418093 -0.05 -0.0064087151 35458.401
0.0010080919 -0.05 -0.0055623679 35503.682
0.00072127228 -0.05 -0.0047092571 35484.563
0.00048251081 -0.05 -0.0038515496 35395.413
0.00029236329 -0.05 -0.0029916286 35232.142
0.0001508317 -0.05 -0.0021320102 35002.522
5.7495879e-05 -0.05 -0.0012752716 34696.519
1.1394864e-05 -0.05 -0.00042397109 34308.449
0.99768066 -0.05 -0.00033611804 26498.491
0.99304169 -0.05 -0.0010063364 26383.36
0.98840215 -0.05 -0.0016726212 26260.626
0.98376207 -0.05 -0.0023350721 26156.421
0.97912144 -0.05 -0.0029936636 26057.395
0.97448026 -0.05 -0.00364841 25965.571
0.96983855 -0.05 -0.0042993733 25878.692
0.96519632 -0.05 -0.0049465845 25796.567
0.96055357 -0.05 -0.0055900577 25718.477
0.95591031 -0.05 -0.0062298653 25643.891
0.95126654 -0.05 -0.0068660327 25572.678
0.94662228 -0.05 -0.0074985225 25504.521
0.94197752 -0.05 -0.0081274235 25438.95
0.9373323 -0.05 -0.008752761 25376.008
0.93268659 -0.05 -0.0093745713 25315.184
0.92804042 -0.05 -0.0099928964 25256.632
0.92339379 -0.05 -0.010607714 25200.132
0.91874669 -0.05 -0.011219031 25145.585
0.91409915 -0.05 -0.011826962 25092.445
0.90945116 -0.05 -0.012431486 25041.288
0.90480273 -0.05 -0.013032571 24991.388
0.90015387 -0.05 -0.013630361 24942.825
0.89550457 -0.05 -0.014224739 24895.942
0.89085486 -0.05 -0.014815813 24849.703
0.88620473 -0.05 -0.01540363 24805.057
0.88155418 -0.05 -0.0159881 24761.344
0.87690323 -0.05 -0.016569356 24718.541
0.87225187 -0.05 -0.017147383 24676.802
0.86760011 -0.05 -0.017722168 24635.996
0.86294795 -0.05 -0.018293719 24596.133
0.85829541 -0.05 -0.018862095 24556.916
0.85364248 -0.05 -0.01942729 24518.684
0.84898916 -0.05 -0.01998931 24480.977
0.84433547 -0.05 -0.020548224 24444.083
0.8396814 -0.05 -0.021103928 24408.17
0.83502695 -0.05 -0.021656533 24372.38
0.83037214 -0.05 -0.022206072 24337.514
0.82571696 -0.05 -0.022752481 24303.108
0.82106143 -0.05 -0.023295768 24269.556
0.81640553 -0.05 -0.023835961 24236.224
0.81174927 -0.05 -0.024373126 24203.405
0.80709266 -0.05 -0.024907211 24171.01
0.80243571 -0.05 -0.025438235 24139.032
0.7977784 -0.05 -0.025966147 24107.768
0.79312074 -0.05 -0.026490982 24076.595
0.78846275 -0.05 -0.027012845 24045.631
0.78380442 -0.05 -0.027531686 24015.181
0.77914575 -0.05 -0.028047403 23985.338
0.77448674 -0.05 -0.028560079 23955.416
0.76982739 -0.05 -0.029069752 23926.056
0.76516771 -0.05 -0.02957633 23897.084
0.7605077 -0.05 -0.030079852 23868.292
0.75584737 -0.05 -0.030580367 23839.62
0.75118671 -0.05 -0.03107785 23811.309
0.74652573 -0.05 -0.031572241 23783.386
0.74186441 -0.05 -0.032063551 23755.702
0.73720278 -0.05 -0.032551782 23728.282
0.73254083 -0.05 -0.03303698 23700.81
0.72787854 -0.05 -0.033519069 23673.911
0.72321595 -0.05 -0.033998064 23646.731
0.71855304 -0.05 -0.034473962 23620.255
0.71388981 -0.05 -0.034946671 23593.83
0.70922626 -0.05 -0.035416302 23567.283
0.7045624 -0.05 -0.03588285 23540.843
0.69989823 -0.05 -0.036346252 23514.553
0.69523375 -0.05 -0.036806454 23488.638
0.69056894 -0.05 -0.037263403 23462.936
0.68590382 -0.05 -0.037717206 23436.924
0.68123839 -0.05 -0.038167801 23411.518
0.67657265 -0.05 -0.038615123 23385.885
0.67190661 -0.05 -0.039059237 23360.416
0.66724025 -0.05 -0.039500049 23335.293
0.66257357 -0.05 -0.039937521 23310.263
0.6579066 -0.05 -0.040371712 23285.054
0.65323931 -0.05 -0.040802591 23260.051
0.64857171 -0.05 -0.041230085 23235.15
0.6439038 -0.05 -0.041654149 23210.486
0.63923558 -0.05 -0.042074786 23185.684
0.63456705 -0.05 -0.042492 23161.009
0.62989821 -0.05 -0.042905734 23136.388
0.62522906 -0.05 -0.043315943 23111.871
0.62055961 -0.05 -0.043722625 23087.224
0.61588983 -0.05 -0.044125719 23062.847
0.61121975 -0.05 -0.044525219 23038.197
0.60654937 -0.05 -0.044921074 23014.018
0.60187867 -0.05 -0.045313219 22989.636
0.59720766 -0.05 -0.045701683 22965.306
0.59253634 -0.05 -0.046086399 22941.073
0.58786471 -0.05 -0.046467288 22917.071
0.58319277 -0.05 -0.046844345 22892.944
0.57852051 -0.05 -0.047217535 22869.062
0.57384795 -0.05 -0.047586814 22845.018
0.56917507 -0.05 -0.047952124 22821.213
0.56450189 -0.05 -0.048313436 22797.155
0.55982839 -0.05 -0.048670677 22773.556
0.55515457 -0.05 -0.04902381 22749.632
0.55048045 -0.05 -0.04937281 22726.13
0.54580601 -0.05 -0.04971755 22702.659
0.54113126 -0.05 -0.050058049 22678.964
0.5364562 -0.05 -0.050394263 22655.298
0.53178083 -0.05 -0.050726133 22631.524
0.52710515 -0.05 -0.05105357 22608.143
0.52242915 -0.05 -0.051376464 22584.918
0.51775284 -0.05 -0.051694815 22561.641
0.51307623 -0.05 -0.052008601 22538.428
0.5083993 -0.05 -0.052317709 22515.491
0.50372205 -0.05 -0.052622098 22492.385
0.4990445 -0.05 -0.052921702 22469.571
0.49436664 -0.05 -0.053216428 22446.72
0.48968848 -0.05 -0.053506199 22424.213
0.48501001 -0.05 -0.053790938 22401.675
0.48033122 -0.05 -0.054070627 22379.27
0.47565213 -0.05 -0.05434516 22357.12
0.47097274 -0.05 -0.05461447 22334.896
0.46629305 -0.05 -0.054878504 22312.79
0.46161306 -0.05 -0.055137129 22290.989
0.45693277 -0.05 -0.055390258 22269.318
0.45225217 -0.05 -0.05563783 22247.815
0.44757129 -0.05 -0.055879797 22226.273
0.44289011 -0.05 -0.056116052 22205.218
0.43820865 -0.05 -0.056346461 22184.465
0.43352689 -0.05 -0.056570934 22163.974
0.42884486 -0.05 -0.056789429 22143.306
0.42416254 -0.05 -0.057001839 22123.038
0.41947994 -0.05 -0.057208045 22102.884
0.41479707 -0.05 -0.057407955 22083.243
0.41011393 -0.05 -0.057601449 22063.872
0.40543053 -0.05 -0.057788457 22044.753
0.40074687 -0.05 -0.057968847 22026.082
0.39606296 -0.05 -0.058142512 22007.573
0.3913788 -0.05 -0.05830933 21989.552
0.38669439 -0.05 -0.058469176 21971.792
0.38200975 -0.05 -0.058621944 21954.522
0.37732488 -0.05 -0.058767528 21937.625
0.37263978 -0.05 -0.058905769 21921.589
0.36795448 -0.05 -0.059036525 21905.86
0.36326896 -0.05 -0.059159726 21890.577
0.35858325 -0.05 -0.059275201 21875.961
0.35389735 -0.05 -0.059382803 21861.682
0.34921128 -0.05 -0.05948244 21847.769
0.34452504 -0.05 -0.059573923 21834.786
0.33983865 -0.05 -0.059657063 21822.531
0.33515211 -0.05 -0.059731741 21810.905
0.33046544 -0.05 -0.059797856 21799.71
0.32577866 -0.05 -0.059855197 21789.617
0.32109177 -0.05 -0.059903556 21780.086
0.31640481 -0.05 -0.059942821 21771.123
0.31171777 -0.05 -0.059972784 21762.534
0.30703069 -0.05 -0.059993273 21754.43
0.30234356 -0.05 -0.060004087 21749.05
