# p  FACE_DATA 150
# x y z  p
0.29576437 -0.05 0.059999701 96277.279
0.28738431 -0.05 0.059968924 96200.422
0.27918472 -0.05 0.059906283 96125.549
0.27116186 -0.05 0.05981265 96050.516
0.26331203 -0.05 0.059689027 95975.506
0.25563166 -0.05 0.059536266 95900.849
0.24811723 -0.05 0.059355154 95826.573
0.24076528 -0.05 0.059146557 95752.509
0.23357246 -0.05 0.058911358 95678.19
0.22653546 -0.05 0.058650341 95603.645
0.21965107 -0.05 0.058364202 95529.195
0.21291613 -0.05 0.058053757 95454.533
0.20632755 -0.05 0.057719714 95380.396
0.19988232 -0.05 0.057362758 95306.087
0.19357748 -0.05 0.056983702 95231.616
0.18741014 -0.05 0.056583118 95157.475
0.18137746 -0.05 0.056161624 95082.786
0.17547671 -0.05 0.055719844 95008.118
0.16970518 -0.05 0.055258362 94933.131
0.16406021 -0.05 0.05477783 94857.782
0.15853921 -0.05 0.054278745 94782.196
0.15313967 -0.05 0.053761636 94706.148
0.14785914 -0.05 0.053226963 94630.555
0.14269518 -0.05 0.052675259 94553.991
0.13764543 -0.05 0.052106992 94477.394
0.13270762 -0.05 0.051522466 94400.344
0.12787949 -0.05 0.050922169 94322.327
0.12315883 -0.05 0.050306449 94244.143
0.11854353 -0.05 0.049675628 94164.991
0.11403148 -0.05 0.04903008 94084.903
0.10962065 -0.05 0.04837006 94003.932
0.10530908 -0.05 0.047695796 93922.382
0.10109483 -0.05 0.047007509 93840.182
0.096976017 -0.05 0.046305459 93756.825
0.092950808 -0.05 0.04558984 93672.095
0.08901745 -0.05 0.044860715 93585.694
0.085174232 -0.05 0.044118143 93497.386
0.081419479 -0.05 0.043362243 93407.354
0.077751578 -0.05 0.042593081 93315.455
0.074168981 -0.05 0.041810614 93222.466
0.070670198 -0.05 0.041014781 93128.475
0.06725379 -0.05 0.040205491 93033.506
0.06391837 -0.05 0.039382651 92936.928
0.060662655 -0.05 0.038545988 92840.062
0.057485397 -0.05 0.037695273 92741.278
0.054385413 -0.05 0.036830261 92642.05
0.051361621 -0.05 0.035950545 92540.769
0.048412992 -0.05 0.035055749 92437.244
0.045538629 -0.05 0.034145316 92332.362
0.042737712 -0.05 0.03321865 92225.833
0.040009498 -0.05 0.032275149 92116.916
0.037353406 -0.05 0.031314032 92005.041
0.034768993 -0.05 0.030334375 91889.589
0.032255944 -0.05 0.02933521 91773.804
0.029814132 -0.05 0.028315426 91660.213
0.027443661 -0.05 0.027273729 91547.235
0.025144824 -0.05 0.026208776 91433.783
0.022918276 -0.05 0.02511886 91323.243
0.020764984 -0.05 0.02400217 91217.552
0.018686283 -0.05 0.022856725 91128.392
0.016684024 -0.05 0.021680228 91059.196
0.01476059 -0.05 0.020470219 91023.83
0.012919252 -0.05 0.019223865 91028.329
0.011164249 -0.05 0.017938283 91079.532
0.0095007128 -0.05 0.016610449 91182.741
0.0079348886 -0.05 0.015236971 91356.441
0.006474941 -0.05 0.013814774 91668.68
0.0051312596 -0.05 0.012341958 92131.154
0.0039150106 -0.05 0.010816511 92775.87
0.0028396284 -0.05 0.009238845 93626.679
0.0019206554 -0.05 0.007613688 94740.038
0.0011720639 -0.05 0.0059475212 96081.279
0.00060615611 -0.05 0.004252283 97616.374
0.00023063831 -0.05 0.0025452878 99227.178
4.5460517e-05 -0.05 0.0008455405 100814.67
0.99536103 -0.05 0.00067021835 101129.92
0.98608198 -0.05 0.0020028877 101027.59
0.97680071 -0.05 0.0033200849 100896.88
0.96751731 -0.05 0.0046220425 100785.58
0.95823181 -0.05 0.0059090613 100678.69
0.94894428 -0.05 0.0071813587 100579.65
0.93965479 -0.05 0.0084391859 100486.16
0.93036339 -0.05 0.0096828487 100398.2
0.92107012 -0.05 0.010912491 100314.91
0.91177504 -0.05 0.012128333 100235.58
0.90247819 -0.05 0.013330648 100159.8
0.89317963 -0.05 0.014519511 100087.14
0.88387936 -0.05 0.015695054 100017.45
0.87457746 -0.05 0.016857552 99950.08
0.86527394 -0.05 0.01800713 99885.192
0.85596885 -0.05 0.019143875 99821.984
0.84666223 -0.05 0.020267984 99760.82
0.8373541 -0.05 0.021379502 99701.212
0.82804448 -0.05 0.022478516 99643.276
0.8187334 -0.05 0.023565119 99586.373
0.8094209 -0.05 0.024639397 99530.807
0.80010698 -0.05 0.025701394 99476.001
0.79079168 -0.05 0.026751168 99422.062
0.78147501 -0.05 0.027788748 99368.366
0.77215699 -0.05 0.028814138 99315.665
0.76283764 -0.05 0.029827333 99263.437
0.75351698 -0.05 0.030828337 99211.858
0.74419501 -0.05 0.03181713 99160.343
0.73487174 -0.05 0.032793639 99109.545
0.72554719 -0.05 0.033757832 99058.998
0.71622136 -0.05 0.034709535 99009.107
0.70689427 -0.05 0.03564879 98958.491
0.69756592 -0.05 0.036575541 98908.494
0.68823633 -0.05 0.037489546 98858.204
0.67890547 -0.05 0.03839067 98808.199
0.66957337 -0.05 0.039278803 98757.53
0.66024004 -0.05 0.040153805 98707.264
0.65090546 -0.05 0.04101549 98656.615
0.64156964 -0.05 0.041863622 98606.133
0.63223258 -0.05 0.042697993 98554.619
0.62289428 -0.05 0.043518409 98503.529
0.61355475 -0.05 0.04432459 98452.012
0.60421397 -0.05 0.045116236 98400.665
0.59487195 -0.05 0.045893096 98348.28
0.58552869 -0.05 0.046654869 98295.89
0.57618419 -0.05 0.047401205 98242.646
0.56683843 -0.05 0.048131797 98189.085
0.55749143 -0.05 0.048846241 98134.434
0.54814318 -0.05 0.049544112 98079.81
0.53879368 -0.05 0.050225066 98024.308
0.52944294 -0.05 0.050888717 97968.484
0.52009095 -0.05 0.051534504 97911.928
0.51073771 -0.05 0.052161963 97855.062
0.50138323 -0.05 0.052770675 97797.222
0.49202751 -0.05 0.05336005 97738.76
0.48267057 -0.05 0.053929509 97678.82
0.47331239 -0.05 0.054478508 97618.391
0.46395301 -0.05 0.055006444 97557.002
0.45459243 -0.05 0.05551264 97495.048
0.44523065 -0.05 0.055996468 97431.795
0.43586772 -0.05 0.056457197 97368.249
0.42650365 -0.05 0.05689408 97303.657
0.41713847 -0.05 0.057306402 97238.362
0.4077722 -0.05 0.057693321 97171.652
0.39840488 -0.05 0.058053993 97103.85
0.38903656 -0.05 0.058387503 97034.613
0.37966728 -0.05 0.058692933 96964.251
0.3702971 -0.05 0.058969274 96892.704
0.36092607 -0.05 0.059215505 96819.989
0.35155429 -0.05 0.059430617 96746.098
0.34218182 -0.05 0.059613395 96671.533
0.33280876 -0.05 0.059762649 96595.354
0.3234352 -0.05 0.059877122 96517.305
0.31406128 -0.05 0.059955444 96435.912
0.30468712 -0.05 0.059996221 96352.945
