/*--------------------------------*- C++ -*----------------------------------*\
| =========                 |                                                 |
| \\      /  F ield         | OpenFOAM: The Open Source CFD Toolbox           |
|  \\    /   O peration     | Version:  2306                                  |
|   \\  /    A nd           | Website:  www.openfoam.com                      |
|    \\/     M anipulation  |                                                 |
\*---------------------------------------------------------------------------*/
FoamFile
{
    version     2.0;
    format      ascii;
    arch        "LSB;label=32;scalar=64";
    class       volScalarField;
    location    "550";
    object      nuTilda;
}
// * * * * * * * * * * * * * * * * * * * * * * * * * * * * * * * * * * * * * //

dimensions      [0 2 -1 0 0 0 0];

internalField   nonuniform List<scalar> 
1340
(
4.00638e-05
4.00652e-05
4.00644e-05
4.00292e-05
4.00664e-05
4.00652e-05
4.00255e-05
4.0029e-05
4.00676e-05
4.00662e-05
4.00087e-05
4.00129e-05
4.00252e-05
4.00288e-05
4.00689e-05
4.00673e-05
4.00182e-05
4.00101e-05
4.00086e-05
4.00128e-05
4.0025e-05
4.00286e-05
4.00703e-05
4.00686e-05
4.0042e-05
4.00349e-05
4.00271e-05
4.0019e-05
4.00106e-05
4.00086e-05
4.00126e-05
4.00248e-05
4.00283e-05
4.00717e-05
4.00701e-05
4.00594e-05
4.00541e-05
4.00492e-05
4.00431e-05
4.0036e-05
4.0028e-05
4.00198e-05
4.00111e-05
4.00086e-05
4.00125e-05
4.00246e-05
4.0028e-05
4.00732e-05
4.00718e-05
4.00826e-05
4.00787e-05
4.00736e-05
4.00673e-05
4.00608e-05
4.00554e-05
4.00504e-05
4.00443e-05
4.00371e-05
4.0029e-05
4.00206e-05
4.00117e-05
4.00086e-05
4.00123e-05
4.00244e-05
4.00276e-05
4.00747e-05
4.00736e-05
4.00945e-05
4.00931e-05
4.00914e-05
4.00894e-05
4.00871e-05
4.00842e-05
4.00803e-05
4.00752e-05
4.00689e-05
4.00623e-05
4.00567e-05
4.00517e-05
4.00456e-05
4.00383e-05
4.003e-05
4.00216e-05
4.00123e-05
4.00086e-05
4.00121e-05
4.00242e-05
4.00271e-05
4.00762e-05
4.00756e-05
4.00992e-05
4.00992e-05
4.00991e-05
4.0099e-05
4.00986e-05
4.00981e-05
4.00973e-05
4.00962e-05
4.00948e-05
4.00931e-05
4.00911e-05
4.00888e-05
4.00859e-05
4.00821e-05
4.0077e-05
4.00706e-05
4.00639e-05
4.00582e-05
4.00531e-05
4.0047e-05
4.00396e-05
4.00312e-05
4.00225e-05
4.0013e-05
4.00087e-05
4.00119e-05
4.00239e-05
4.00266e-05
4.00778e-05
4.00779e-05
4.01021e-05
4.01035e-05
4.01032e-05
4.01027e-05
4.01023e-05
4.01018e-05
4.01014e-05
4.01012e-05
4.01011e-05
4.0101e-05
4.0101e-05
4.01009e-05
4.01009e-05
4.01008e-05
4.01008e-05
4.01007e-05
4.01004e-05
4.00998e-05
4.00991e-05
4.0098e-05
4.00966e-05
4.00949e-05
4.00929e-05
4.00906e-05
4.00877e-05
4.00839e-05
4.00789e-05
4.00725e-05
4.00656e-05
4.00597e-05
4.00546e-05
4.00484e-05
4.00409e-05
4.00324e-05
4.00236e-05
4.00138e-05
4.00089e-05
4.00116e-05
4.00237e-05
4.0026e-05
4.00794e-05
4.00803e-05
7.16836e-06
1.85641e-06
0
0
0.000154856
0.000453563
0.0161059
0.0551897
0.11266
0.176084
0.235508
0.285616
0.324073
0.350414
0.365812
0.372617
0.373749
0.362752
0.330896
0.272107
0.188976
0.0997066
0.0326455
0.00160739
0.000467012
0
0
0
4.96331e-06
1.94679e-05
4.01886e-05
4.33061e-05
4.06985e-05
3.96921e-05
3.99329e-05
4.01363e-05
4.01373e-05
4.0112e-05
4.01081e-05
4.01074e-05
4.01048e-05
4.01034e-05
4.01034e-05
4.01033e-05
4.01031e-05
4.01029e-05
4.01028e-05
4.01027e-05
4.01027e-05
4.01026e-05
4.01026e-05
4.01025e-05
4.01024e-05
4.01022e-05
4.01017e-05
4.01009e-05
4.00998e-05
4.00985e-05
4.00968e-05
4.00948e-05
4.00924e-05
4.00896e-05
4.00858e-05
4.00808e-05
4.00744e-05
4.00674e-05
4.00614e-05
4.00562e-05
4.00499e-05
4.00424e-05
4.00337e-05
4.00247e-05
4.00147e-05
4.00091e-05
4.00114e-05
4.00234e-05
4.00254e-05
4.00809e-05
4.00829e-05
4.06851e-05
9.46288e-06
2.45503e-06
0
0
4.75999e-06
0.00209023
0.00821383
0.0366813
0.087557
0.150375
0.213176
0.268277
0.311928
0.342837
0.36158
0.370721
0.372993
0.36436
0.336088
0.281242
0.201187
0.112195
0.0399991
0.00371263
0.00102999
0
0
0
3.19421e-06
1.19903e-05
3.81179e-05
4.43936e-05
4.16034e-05
3.98392e-05
3.98588e-05
4.00981e-05
4.01201e-05
4.00945e-05
4.00997e-05
4.01097e-05
4.01095e-05
4.01061e-05
4.01047e-05
4.01047e-05
4.01048e-05
4.01047e-05
4.01046e-05
4.01045e-05
4.01045e-05
4.01044e-05
4.01044e-05
4.01043e-05
4.0104e-05
4.01036e-05
4.01028e-05
4.01018e-05
4.01004e-05
4.00987e-05
4.00967e-05
4.00944e-05
4.00916e-05
4.00879e-05
4.00829e-05
4.00764e-05
4.00693e-05
4.00632e-05
4.00578e-05
4.00516e-05
4.00439e-05
4.00351e-05
4.0026e-05
4.00156e-05
4.00094e-05
4.00111e-05
4.00231e-05
4.00248e-05
4.00824e-05
4.00856e-05
4.34259e-05
4.07327e-05
1.29955e-05
3.39458e-06
0
0
0
0.000623548
0.00228725
0.0211195
0.0633244
0.122975
0.187858
0.247785
0.297031
0.333186
0.356236
0.368287
0.371875
0.36553
0.340758
0.289973
0.213213
0.124018
0.047664
0.00675473
0.00181852
0
0
0
8.69006e-07
2.16761e-06
3.23137e-05
4.36732e-05
4.21653e-05
4.00194e-05
3.98658e-05
4.01835e-05
4.02139e-05
4.01224e-05
4.00872e-05
4.00984e-05
4.01094e-05
4.01099e-05
4.01074e-05
4.01064e-05
4.01064e-05
4.01065e-05
4.01065e-05
4.01064e-05
4.01064e-05
4.01063e-05
4.01062e-05
4.0106e-05
4.01056e-05
4.01049e-05
4.01039e-05
4.01025e-05
4.01008e-05
4.00988e-05
4.00965e-05
4.00937e-05
4.009e-05
4.00851e-05
4.00786e-05
4.00714e-05
4.0065e-05
4.00596e-05
4.00533e-05
4.00456e-05
4.00366e-05
4.00273e-05
4.00167e-05
4.00097e-05
4.00109e-05
4.00228e-05
4.00242e-05
4.00839e-05
4.00886e-05
4.03499e-05
4.30327e-05
4.05249e-05
2.05035e-05
5.32643e-06
0
0
0
4.43346e-05
8.09431e-05
0.0107522
0.0420674
0.0955795
0.160486
0.224649
0.279759
0.321736
0.349649
0.364945
0.369949
0.365756
0.344415
0.297741
0.224276
0.135233
0.0555282
0.0102252
0.00270052
0
0
0
7.48826e-08
7.30164e-06
2.9351e-05
4.31455e-05
4.28078e-05
3.98832e-05
3.92599e-05
3.98406e-05
4.02102e-05
4.02089e-05
4.01251e-05
4.00952e-05
4.01019e-05
4.01096e-05
4.01103e-05
4.01089e-05
4.01084e-05
4.01084e-05
4.01085e-05
4.01084e-05
4.01084e-05
4.01083e-05
4.01081e-05
4.01077e-05
4.0107e-05
4.0106e-05
4.01047e-05
4.0103e-05
4.0101e-05
4.00987e-05
4.00959e-05
4.00923e-05
4.00874e-05
4.00809e-05
4.00735e-05
4.0067e-05
4.00615e-05
4.00551e-05
4.00474e-05
4.00382e-05
4.00287e-05
4.00178e-05
4.00102e-05
4.00106e-05
4.00224e-05
4.00235e-05
4.00852e-05
4.00916e-05
3.99135e-05
4.03237e-05
4.24276e-05
4.071e-05
2.8908e-05
7.40352e-06
1.11712e-07
0
0
9.0646e-07
0.000972049
0.00364185
0.0244307
0.0682994
0.129656
0.196605
0.258183
0.307621
0.34215
0.362035
0.369472
0.367089
0.348901
0.306464
0.236551
0.148149
0.0650944
0.0135464
0.00395295
0.00013222
0
0
0
5.77452e-06
2.255e-05
4.14474e-05
4.58554e-05
4.26588e-05
3.99596e-05
3.94795e-05
3.98847e-05
4.01582e-05
4.01771e-05
4.01258e-05
4.01038e-05
4.01065e-05
4.01111e-05
4.01116e-05
4.01108e-05
4.01105e-05
4.01105e-05
4.01105e-05
4.01104e-05
4.01103e-05
4.01099e-05
4.01093e-05
4.01083e-05
4.0107e-05
4.01054e-05
4.01033e-05
4.0101e-05
4.00982e-05
4.00946e-05
4.00898e-05
4.00834e-05
4.00759e-05
4.00692e-05
4.00635e-05
4.00571e-05
4.00493e-05
4.004e-05
4.00302e-05
4.00191e-05
4.00107e-05
4.00104e-05
4.00221e-05
4.00228e-05
4.00866e-05
4.00949e-05
4.01223e-05
4.00005e-05
4.02552e-05
4.12686e-05
4.10393e-05
3.6951e-05
1.58448e-05
4.16466e-06
3.00504e-08
0
0
0.000169983
0.000576683
0.00992295
0.0352133
0.080591
0.140519
0.205015
0.26425
0.311543
0.343841
0.361343
0.36486
0.354174
0.322605
0.265227
0.186309
0.102711
0.0405654
0.00590334
0.00197124
5.30961e-05
0
0
6.78887e-07
5.16143e-06
1.76422e-05
3.68881e-05
4.39316e-05
4.2713e-05
4.03944e-05
3.96472e-05
3.98685e-05
4.01205e-05
4.01632e-05
4.0126e-05
4.01072e-05
4.01095e-05
4.01136e-05
4.0114e-05
4.01133e-05
4.01131e-05
4.01131e-05
4.0113e-05
4.01127e-05
4.01121e-05
4.01112e-05
4.01099e-05
4.01083e-05
4.01063e-05
4.01039e-05
4.01011e-05
4.00976e-05
4.00929e-05
4.00865e-05
4.00788e-05
4.00719e-05
4.0066e-05
4.00595e-05
4.00516e-05
4.00421e-05
4.0032e-05
4.00206e-05
4.00115e-05
4.00102e-05
4.00217e-05
4.00222e-05
4.00878e-05
4.00984e-05
4.01295e-05
4.01245e-05
4.00254e-05
4.0122e-05
4.05934e-05
4.20622e-05
4.00099e-05
3.31962e-05
4.85396e-06
1.36623e-06
0
0
4.41529e-06
8.00274e-05
0.00231908
0.00858712
0.0315978
0.0738264
0.131391
0.195286
0.255495
0.304479
0.33842
0.356341
0.358317
0.34249
0.302911
0.238037
0.158252
0.0823185
0.0297254
0.00260567
0.000948061
1.79653e-05
0
0
4.64527e-07
5.19587e-06
1.92477e-05
3.8182e-05
4.40904e-05
4.23109e-05
4.01433e-05
3.96757e-05
3.99722e-05
4.01641e-05
4.01598e-05
4.01202e-05
4.01105e-05
4.01151e-05
4.01176e-05
4.01172e-05
4.01166e-05
4.01164e-05
4.01161e-05
4.01156e-05
4.01147e-05
4.01135e-05
4.01119e-05
4.01099e-05
4.01074e-05
4.01046e-05
4.01011e-05
4.00965e-05
4.00901e-05
4.00823e-05
4.00751e-05
4.0069e-05
4.00623e-05
4.00543e-05
4.00446e-05
4.00342e-05
4.00224e-05
4.00125e-05
4.00099e-05
4.00213e-05
4.00215e-05
4.0089e-05
4.01021e-05
4.01101e-05
4.01198e-05
4.01105e-05
4.00726e-05
4.00534e-05
4.03978e-05
4.12755e-05
4.2111e-05
3.84748e-05
2.44612e-05
6.34465e-06
8.69177e-08
0
0
0
7.31464e-05
0.00202588
0.00742225
0.02947
0.0707352
0.127818
0.191955
0.252953
0.302743
0.336809
0.352896
0.350751
0.326839
0.27728
0.206165
0.127501
0.05955
0.0163965
0.00083597
0.000339448
0
0
0
5.34275e-07
6.93366e-06
2.70112e-05
4.1958e-05
4.3806e-05
4.11416e-05
3.97171e-05
3.97787e-05
4.00936e-05
4.01752e-05
4.01384e-05
4.01148e-05
4.01156e-05
4.01194e-05
4.01203e-05
4.01201e-05
4.01199e-05
4.01193e-05
4.01185e-05
4.01173e-05
4.01157e-05
4.01136e-05
4.01112e-05
4.01084e-05
4.01049e-05
4.01003e-05
4.0094e-05
4.00861e-05
4.00786e-05
4.00722e-05
4.00653e-05
4.00572e-05
4.00473e-05
4.00366e-05
4.00244e-05
4.00136e-05
4.00098e-05
4.00208e-05
4.00209e-05
4.009e-05
4.01058e-05
4.01068e-05
4.01116e-05
4.01101e-05
4.0093e-05
4.00417e-05
4.01831e-05
4.06368e-05
4.19958e-05
4.12965e-05
3.61559e-05
1.32687e-05
3.49745e-06
0
0
0
0
6.67618e-05
0.0020128
0.00740016
0.0295919
0.0712377
0.128959
0.193894
0.255425
0.304719
0.336661
0.347864
0.33847
0.3046
0.245808
0.170575
0.0946943
0.0381773
0.00666853
0.00197626
1.51795e-06
0
0
0
4.0136e-06
1.49652e-05
3.67887e-05
4.43141e-05
4.25955e-05
4.01923e-05
3.96905e-05
3.99918e-05
4.01694e-05
4.0161e-05
4.01293e-05
4.01229e-05
4.01242e-05
4.01237e-05
4.0123e-05
4.01228e-05
4.01224e-05
4.01213e-05
4.01197e-05
4.01176e-05
4.01151e-05
4.01123e-05
4.01088e-05
4.01043e-05
4.00981e-05
4.00901e-05
4.00824e-05
4.00756e-05
4.00685e-05
4.00603e-05
4.00502e-05
4.00391e-05
4.00266e-05
4.0015e-05
4.00098e-05
4.00202e-05
4.00202e-05
4.00908e-05
4.01096e-05
4.01042e-05
4.01054e-05
4.01072e-05
4.01113e-05
4.00946e-05
4.00708e-05
4.00302e-05
4.03423e-05
4.10887e-05
4.22222e-05
3.99395e-05
2.78283e-05
7.19441e-06
9.7919e-08
0
0
0
0
7.02892e-05
0.00225402
0.00837602
0.0319626
0.075482
0.134987
0.200993
0.262158
0.308918
0.335918
0.340342
0.321257
0.276305
0.208642
0.131411
0.0629405
0.019214
6.67465e-05
0.00013739
0
0
0
4.39734e-07
6.90545e-06
2.69844e-05
4.2456e-05
4.35293e-05
4.08656e-05
3.97075e-05
3.98644e-05
4.01134e-05
4.01478e-05
4.01228e-05
4.0122e-05
4.01297e-05
4.01305e-05
4.01278e-05
4.01261e-05
4.01251e-05
4.01238e-05
4.01218e-05
4.01193e-05
4.01164e-05
4.01129e-05
4.01085e-05
4.01024e-05
4.00944e-05
4.00864e-05
4.00793e-05
4.0072e-05
4.00636e-05
4.00534e-05
4.00419e-05
4.0029e-05
4.00166e-05
4.00099e-05
4.00196e-05
4.00195e-05
4.00914e-05
4.01133e-05
4.01041e-05
4.01045e-05
4.01049e-05
4.01066e-05
4.01084e-05
4.01051e-05
4.00796e-05
4.00329e-05
4.01069e-05
4.05076e-05
4.1778e-05
4.16139e-05
3.68757e-05
1.41197e-05
3.73766e-06
1.22643e-08
0
0
0
0
0.000126996
0.000183858
0.0101932
0.0365673
0.0836324
0.14589
0.212742
0.271993
0.314088
0.333371
0.328503
0.297507
0.240536
0.166124
0.0912637
0.0350837
0.00533866
0.0015792
0
0
0
0
4.9287e-06
1.91509e-05
3.9122e-05
4.41784e-05
4.17949e-05
3.99734e-05
3.98889e-05
4.01748e-05
4.02104e-05
4.01378e-05
4.01109e-05
4.01219e-05
4.01317e-05
4.01324e-05
4.01301e-05
4.01281e-05
4.01262e-05
4.01237e-05
4.01208e-05
4.01173e-05
4.0113e-05
4.0107e-05
4.00991e-05
4.00909e-05
4.00834e-05
4.00757e-05
4.00672e-05
4.00568e-05
4.0045e-05
4.00316e-05
4.00185e-05
4.00101e-05
4.0019e-05
4.00187e-05
4.00916e-05
4.01169e-05
4.01047e-05
4.0105e-05
4.01054e-05
4.01057e-05
4.01068e-05
4.0108e-05
4.011e-05
4.00935e-05
4.00637e-05
4.00072e-05
4.02508e-05
4.08967e-05
4.23389e-05
3.93876e-05
3.10384e-05
1.67264e-06
5.77903e-07
0
0
0
0
1.8501e-06
0.000389131
0.00120535
0.0136326
0.0445199
0.0964036
0.161815
0.228557
0.283697
0.318286
0.327199
0.310096
0.265298
0.197213
0.120717
0.0546747
0.0146948
0.00399596
7.19209e-05
0
0
0
2.5122e-06
8.97087e-06
3.34181e-05
4.36497e-05
4.23226e-05
3.97377e-05
3.94027e-05
3.9978e-05
4.02609e-05
4.0223e-05
4.01465e-05
4.01257e-05
4.01306e-05
4.01341e-05
4.01332e-05
4.01309e-05
4.01283e-05
4.01253e-05
4.01218e-05
4.01175e-05
4.01117e-05
4.01039e-05
4.00955e-05
4.00877e-05
4.00796e-05
4.0071e-05
4.00603e-05
4.00482e-05
4.00344e-05
4.00206e-05
4.00106e-05
4.00184e-05
4.00179e-05
4.00918e-05
4.01204e-05
4.01058e-05
4.01061e-05
4.01064e-05
4.01068e-05
4.01071e-05
4.01076e-05
4.01093e-05
4.01106e-05
4.01083e-05
4.00811e-05
4.00359e-05
4.00466e-05
4.05242e-05
4.15358e-05
4.21545e-05
3.67204e-05
2.19475e-05
5.71619e-06
1.27488e-07
0
0
0
0
1.28268e-05
0.00060682
0.00195197
0.0186666
0.0564597
0.114165
0.182316
0.246888
0.294776
0.317932
0.313732
0.280881
0.221275
0.145975
0.074072
0.025085
0.00296973
0.000724837
0
0
0
2.81002e-07
6.95655e-06
2.76488e-05
4.49542e-05
4.58427e-05
4.16121e-05
3.94463e-05
3.95229e-05
4.00077e-05
4.01859e-05
4.01729e-05
4.01438e-05
4.01366e-05
4.01369e-05
4.0136e-05
4.01336e-05
4.01305e-05
4.0127e-05
4.01227e-05
4.01171e-05
4.01093e-05
4.0101e-05
4.00928e-05
4.00843e-05
4.00753e-05
4.00645e-05
4.00522e-05
4.00378e-05
4.00234e-05
4.00116e-05
4.00176e-05
4.00169e-05
4.00908e-05
4.0124e-05
4.01067e-05
4.0107e-05
4.01074e-05
4.01077e-05
4.01081e-05
4.01084e-05
4.01088e-05
4.01099e-05
4.01116e-05
4.01134e-05
4.01007e-05
4.00637e-05
4.00078e-05
4.02375e-05
4.09286e-05
4.2354e-05
4.08635e-05
3.40903e-05
1.63847e-05
4.3357e-06
1.24857e-07
0
0
0
0
2.19769e-05
0.00153053
0.00564439
0.0284707
0.0743045
0.139092
0.210454
0.272567
0.312599
0.322594
0.30157
0.249444
0.173998
0.0944426
0.030491
0.00156276
0.00142985
0.000453037
0.000152458
3.03857e-05
0
9.15876e-07
8.01393e-06
3.0713e-05
4.42144e-05
4.38419e-05
4.11221e-05
3.99894e-05
3.99674e-05
4.01093e-05
4.01532e-05
4.01484e-05
4.01419e-05
4.01395e-05
4.01374e-05
4.01345e-05
4.01309e-05
4.01267e-05
4.01212e-05
4.01136e-05
4.01052e-05
4.00968e-05
4.00879e-05
4.00787e-05
4.00678e-05
4.00551e-05
4.00405e-05
4.00252e-05
4.00123e-05
4.00175e-05
4.00163e-05
4.00919e-05
4.01266e-05
4.01077e-05
4.01081e-05
4.01085e-05
4.0109e-05
4.01094e-05
4.01099e-05
4.01104e-05
4.01109e-05
4.01114e-05
4.01133e-05
4.01152e-05
4.01165e-05
4.00893e-05
4.00514e-05
4.00216e-05
4.04446e-05
4.13916e-05
4.23486e-05
4.04458e-05
3.37225e-05
1.51571e-05
3.75989e-06
0
0
0
0
0
6.728e-05
0.00173167
0.00594118
0.0276415
0.0690095
0.125971
0.188264
0.242907
0.278904
0.288038
0.267681
0.219459
0.153478
0.0897015
0.0436381
0.0175843
0.00562538
0.00106604
0.000241738
0
0
5.34867e-06
2.0371e-05
3.52391e-05
4.04747e-05
4.08064e-05
4.03233e-05
4.01368e-05
4.01339e-05
4.01497e-05
4.01519e-05
4.01495e-05
4.01468e-05
4.01438e-05
4.01402e-05
4.0136e-05
4.01306e-05
4.01234e-05
4.01151e-05
4.01064e-05
4.00967e-05
4.00868e-05
4.00754e-05
4.00625e-05
4.00468e-05
4.00309e-05
4.00148e-05
4.00174e-05
4.0015e-05
4.00869e-05
4.01332e-05
)
;

boundaryField
{
    inlet
    {
        type            freestream;
        freestreamValue uniform 4e-05;
        value           nonuniform List<scalar> 
27
(
4.00638e-05
4.00644e-05
4.00652e-05
4.00662e-05
4.00673e-05
4.00686e-05
4.00701e-05
4.00718e-05
4.00736e-05
4.00756e-05
4.00779e-05
4.00803e-05
4.00829e-05
4.00856e-05
4.00886e-05
4.00916e-05
4.00949e-05
4.00984e-05
4.01021e-05
4.01058e-05
4.01096e-05
4.01133e-05
4.01169e-05
4.01204e-05
4.0124e-05
4.01266e-05
4.01332e-05
)
;
    }
    outlet
    {
        type            freestream;
        freestreamValue uniform 4e-05;
        value           nonuniform List<scalar> 
78
(
4.01077e-05
4.01081e-05
4.01085e-05
4.0109e-05
4.01094e-05
4.01099e-05
4.01104e-05
4.01109e-05
4.01114e-05
4.01133e-05
4.01152e-05
4.01165e-05
4.00893e-05
4.00514e-05
4.00216e-05
4.04446e-05
4.13916e-05
4.23486e-05
4.04458e-05
3.37225e-05
1.51571e-05
3.75989e-06
0
0
0
0
0
6.728e-05
0.00173167
0.00594118
0.0276415
0.0690095
0.125971
0.188264
0.242907
0.278904
0.288038
0.267681
0.219459
0.153478
0.0897015
0.0436381
0.0175843
0.00562538
0.00106604
0.000241738
0
0
5.34867e-06
2.0371e-05
3.52391e-05
4.04747e-05
4.08064e-05
4.03233e-05
4.01368e-05
4.01339e-05
4.01497e-05
4.01519e-05
4.01495e-05
4.01468e-05
4.01438e-05
4.01402e-05
4.0136e-05
4.01306e-05
4.01234e-05
4.01151e-05
4.01064e-05
4.00967e-05
4.00868e-05
4.00754e-05
4.00625e-05
4.00468e-05
4.00309e-05
4.00148e-05
4.00174e-05
4.0015e-05
4.00869e-05
4.01332e-05
)
;
    }
    walls
    {
        type            fixedValue;
        value           nonuniform List<scalar> 0();
    }
    frontAndBack
    {
        type            empty;
    }
    procBoundary7to3
    {
        type            processor;
        value           nonuniform List<scalar> 
16
(
3.97094e-05
4.32799e-05
4.04288e-05
3.98894e-05
4.01054e-05
4.0141e-05
4.01173e-05
4.01086e-05
4.01054e-05
4.01054e-05
4.0104e-05
4.01037e-05
4.01044e-05
4.01055e-05
4.01064e-05
4.01073e-05
)
;
    }
    procBoundary7to6
    {
        type            processor;
        value           nonuniform List<scalar> 
91
(
4.00634e-05
4.00641e-05
4.00641e-05
4.00293e-05
4.00293e-05
4.00257e-05
4.00257e-05
4.00088e-05
4.0013e-05
4.0013e-05
4.00175e-05
4.00097e-05
4.00097e-05
4.00409e-05
4.00339e-05
4.00262e-05
4.00262e-05
4.00581e-05
4.00528e-05
4.0048e-05
4.0048e-05
4.0081e-05
4.00771e-05
4.0072e-05
4.00658e-05
4.00658e-05
4.00929e-05
4.00915e-05
4.00898e-05
4.00878e-05
4.00855e-05
4.00855e-05
4.00976e-05
4.00976e-05
4.00975e-05
4.00974e-05
4.0097e-05
4.00964e-05
4.00956e-05
4.00956e-05
4.01038e-05
4.01027e-05
4.01016e-05
4.01008e-05
4.01003e-05
4.00999e-05
4.00996e-05
4.00995e-05
4.00994e-05
4.00993e-05
4.00993e-05
4.00993e-05
4.00993e-05
6.08289e-08
0
0
0.00119963
0.00469027
0.0287818
0.0763063
0.137208
0.199165
0.254602
0.299949
0.333764
0.356179
0.368978
0.374735
0.374524
0.360826
0.3252
0.26251
0.176662
0.0878323
0.0264128
0.000133058
7.3496e-05
0
0
0
6.30463e-06
2.51329e-05
4.15194e-05
4.27434e-05
4.04267e-05
3.98043e-05
4.00372e-05
4.01497e-05
4.01242e-05
4.01027e-05
4.01027e-05
)
;
    }
}


// ************************************************************************* //
