/*--------------------------------*- C++ -*----------------------------------*\
| =========                 |                                                 |
| \\      /  F ield         | OpenFOAM: The Open Source CFD Toolbox           |
|  \\    /   O peration     | Version:  2306                                  |
|   \\  /    A nd           | Website:  www.openfoam.com                      |
|    \\/     M anipulation  |                                                 |
\*---------------------------------------------------------------------------*/
FoamFile
{
    version     2.0;
    format      ascii;
    arch        "LSB;label=32;scalar=64";
    class       volScalarField;
    location    "550";
    object      p;
}
// * * * * * * * * * * * * * * * * * * * * * * * * * * * * * * * * * * * * * //

dimensions      [0 2 -2 0 0 0 0];

internalField   nonuniform List<scalar> 
1340
(
-8.35235
-1.17348
-8.06102
-5.94142
-1.23469
-7.87213
-3.90487
-5.8194
-1.24943
-7.73223
-5.35814
-5.61026
-3.82423
-5.68607
-1.26186
-7.57536
-6.2318
-6.00685
-5.19697
-5.45267
-3.73861
-5.53926
-1.27305
-7.39847
-7.12148
-6.76942
-6.46667
-5.99732
-5.79737
-5.02791
-5.28649
-3.64542
-5.38559
-1.27327
-7.21731
-7.56164
-7.29802
-7.04243
-6.78188
-6.46233
-6.19066
-5.75457
-5.57927
-4.85082
-5.11257
-3.54331
-5.22694
-1.26042
-7.03644
-7.89395
-7.74563
-7.56427
-7.3532
-7.1139
-6.88747
-6.66363
-6.43485
-6.1474
-5.90621
-5.50356
-5.35247
-4.66549
-4.93051
-3.43231
-5.06207
-1.23677
-6.85328
-7.22585
-7.31391
-7.36151
-7.36931
-7.33835
-7.27009
-7.16642
-7.02924
-6.86158
-6.6643
-6.47323
-6.27989
-6.08171
-5.82567
-5.61415
-5.24481
-5.11735
-4.47211
-4.7402
-3.31272
-4.89021
-1.20376
-6.66561
-4.68017
-5.02089
-5.33614
-5.62322
-5.87975
-6.10362
-6.2931
-6.44684
-6.56397
-6.644
-6.68694
-6.6932
-6.66359
-6.59944
-6.50206
-6.37408
-6.21576
-6.05786
-5.89346
-5.72443
-5.49877
-5.31579
-4.97934
-4.87467
-4.27117
-4.54202
-3.18486
-4.71141
-1.16178
-6.4734
0.568168
0.20112
-0.173492
-0.554356
-0.939925
-1.32842
-1.7179
-2.10618
-2.49087
-2.86947
-3.23929
-3.59757
-3.94149
-4.26823
-4.57501
-4.85916
-5.11817
-5.34976
-5.55191
-5.72294
-5.8615
-5.96664
-6.03782
-6.0749
-6.07813
-6.04828
-5.98609
-5.89382
-5.77109
-5.64387
-5.50657
-5.36495
-5.16831
-5.0125
-4.70817
-4.62526
-4.0632
-4.33638
-3.04902
-4.52581
-1.11178
-6.27675
6.33867
6.28627
6.23272
6.17659
6.1169
6.05376
5.98752
5.91803
5.84463
5.76711
5.68634
5.60336
5.51872
5.43247
5.34405
5.25225
5.15559
5.05246
4.94065
4.81748
4.68111
4.53152
4.36986
4.19726
4.01504
3.82426
3.62466
3.41539
3.19593
2.9661
2.72585
2.47508
2.21374
1.94187
1.65961
1.36718
1.06495
0.753432
0.43327
0.105271
-0.229592
-0.570149
-0.915033
-1.2627
-1.61141
-1.95922
-2.30404
-2.6436
-2.9755
-3.29726
-3.60631
-3.90009
-4.17603
-4.43168
-4.6647
-4.87294
-5.05451
-5.20775
-5.33136
-5.42437
-5.4862
-5.5166
-5.51588
-5.48422
-5.42349
-5.33277
-5.23352
-5.12126
-5.00507
-4.83584
-4.7056
-4.43235
-4.36995
-3.84875
-4.12356
-2.90558
-4.33323
-1.05472
-6.07452
5.69506
5.64968
5.60324
5.55459
5.50287
5.44812
5.39043
5.32982
5.26628
5.1994
5.12866
5.0544
4.97768
4.89926
4.81938
4.7377
4.65326
4.56482
4.471
4.36989
4.25908
4.13662
4.00211
3.85647
3.7008
3.53636
3.36425
3.18445
2.99616
2.79882
2.5923
2.3765
2.15136
1.91684
1.67295
1.4198
1.1576
0.88666
0.607417
0.320433
0.0264013
-0.273808
-0.579156
-0.888447
-1.20031
-1.51318
-1.82533
-2.13486
-2.43976
-2.73785
-3.02688
-3.30452
-3.56841
-3.81622
-4.04567
-4.25459
-4.44098
-4.60304
-4.73921
-4.84823
-4.92916
-4.98135
-5.00471
-4.99895
-4.96557
-4.90313
-4.82896
-4.73948
-4.64657
-4.50293
-4.39641
-4.15294
-4.10956
-3.62862
-3.90381
-2.75541
-4.13303
-0.992425
-5.86476
5.13247
5.09303
5.05264
5.01034
4.9654
4.91784
4.86768
4.8148
4.75913
4.70079
4.63961
4.57496
4.5067
4.43564
4.36273
4.2884
4.21248
4.13431
4.05282
3.96682
3.87474
3.77445
3.66404
3.54287
3.41155
3.27107
3.1226
2.96726
2.80509
2.63531
2.45739
2.27116
2.07663
1.87378
1.66255
1.44294
1.21506
0.979093
0.735335
0.484165
0.226075
-0.0383024
-0.30818
-0.582651
-0.860645
-1.14091
-1.42206
-1.70254
-1.98064
-2.25453
-2.52225
-2.78174
-3.03088
-3.26751
-3.4895
-3.69474
-3.88124
-4.04712
-4.19069
-4.31049
-4.40534
-4.47427
-4.51691
-4.53253
-4.52226
-4.48432
-4.43225
-4.36316
-4.2912
-4.17114
-4.08629
-3.87111
-3.84491
-3.40372
-3.67709
-2.59981
-3.92409
-0.926856
-5.64399
4.63362
4.59929
4.5641
4.52725
4.48813
4.44673
4.40308
4.35705
4.30848
4.2573
4.20361
4.14744
4.08831
4.02564
3.95983
3.89192
3.82263
3.75197
3.67945
3.60416
3.52508
3.44081
3.3494
3.24902
3.13912
3.02038
2.89364
2.75971
2.61965
2.4736
2.32071
2.16027
1.99218
1.81655
1.63343
1.44277
1.24456
1.03892
0.826035
0.606169
0.379679
0.147026
-0.0911998
-0.334304
-0.581455
-0.831673
-1.08384
-1.33668
-1.58882
-1.83869
-2.08463
-2.32486
-2.55748
-2.78058
-2.99221
-3.19038
-3.37316
-3.53868
-3.68525
-3.81128
-3.91543
-3.99652
-4.05393
-4.08662
-4.0954
-4.07816
-4.04515
-3.99403
-3.94056
-3.84193
-3.77635
-3.58827
-3.57631
-3.17572
-3.44255
-2.44169
-3.70254
-0.862704
-5.40625
4.19737
4.16758
4.13703
4.10507
4.07115
4.03527
3.99746
3.9576
3.91553
3.87121
3.82467
3.77605
3.7253
3.67154
3.61276
3.54736
3.4756
3.3992
3.32003
3.2396
3.15931
3.0808
3.00548
2.93281
2.85957
2.78082
2.69117
2.58609
2.46458
2.33113
2.19216
2.0502
1.90399
1.7515
1.59181
1.42505
1.25156
1.07157
0.885155
0.692393
0.49348
0.288747
0.0786384
-0.136347
-0.355555
-0.578241
-0.803529
-1.03037
-1.25768
-1.48414
-1.70833
-1.92876
-2.1438
-2.35175
-2.55084
-2.73927
-2.91524
-3.07694
-3.22273
-3.35099
-3.4603
-3.54936
-3.61731
-3.66294
-3.68681
-3.68656
-3.66946
-3.63388
-3.59619
-3.51707
-3.4676
-3.3062
-3.30366
-2.94707
-3.198
-2.28505
-3.4645
-0.807054
-5.14532
3.67295
3.64804
3.62244
3.59567
3.5673
3.53729
3.50564
3.47228
3.43711
3.4
3.36079
3.31937
3.27566
3.22989
3.18251
3.13351
3.08208
3.02756
2.97041
2.91174
2.8521
2.791
2.72746
2.66055
2.58916
2.51157
2.42638
2.33422
2.23639
2.13249
2.02155
1.90404
1.78117
1.65327
1.52001
1.381
1.23609
1.08526
0.928601
0.766216
0.598225
0.424804
0.246229
0.0628165
-0.124968
-0.316607
-0.511469
-0.708786
-0.907716
-1.10726
-1.3063
-1.50363
-1.69791
-1.88772
-2.07149
-2.24768
-2.41463
-2.5707
-2.71425
-2.8437
-2.95756
-3.05443
-3.13323
-3.1926
-3.23263
-3.25116
-3.2513
-3.23373
-3.21257
-3.15749
-3.12287
-2.99731
-2.997
-2.70324
-2.91873
-2.12901
-3.1898
-0.769718
-4.85346
3.13108
3.1114
3.09115
3.06999
3.04756
3.02384
2.99883
2.97248
2.9447
2.91539
2.88439
2.85168
2.81732
2.7816
2.74517
2.70878
2.67292
2.63708
2.59967
2.55894
2.51402
2.46458
2.41022
2.35028
2.28465
2.21422
2.14017
2.06336
1.98429
1.90278
1.81725
1.72564
1.62761
1.52445
1.41713
1.30551
1.18909
1.06756
0.940916
0.809176
0.672448
0.530786
0.384324
0.233242
0.0777855
-0.0816925
-0.244798
-0.411017
-0.579741
-0.750268
-0.92181
-1.09341
-1.26404
-1.43258
-1.59777
-1.75827
-1.91268
-2.05953
-2.19732
-2.32452
-2.43971
-2.5414
-2.62843
-2.69925
-2.75368
-2.78943
-2.8065
-2.80579
-2.80248
-2.76907
-2.75459
-2.6573
-2.67516
-2.42159
-2.64294
-1.91922
-2.95235
-0.65688
-4.66821
2.67219
2.65645
2.64024
2.62329
2.60533
2.58631
2.56626
2.54515
2.52289
2.4994
2.47462
2.44849
2.42093
2.39185
2.36121
2.32894
2.29508
2.25981
2.2232
2.18487
2.14392
2.09982
2.05312
2.00487
1.95589
1.9061
1.85489
1.80129
1.74372
1.68084
1.61251
1.53935
1.46149
1.37871
1.29141
1.20033
1.10564
1.00699
0.904071
0.796758
0.685094
0.569117
0.448919
0.324581
0.196232
0.064085
-0.071615
-0.210515
-0.352212
-0.496202
-0.641925
-0.788674
-0.935677
-1.08207
-1.22685
-1.36895
-1.50722
-1.64043
-1.76726
-1.88637
-1.99645
-2.09609
-2.18414
-2.25909
-2.32056
-2.36626
-2.39421
-2.40509
-2.41453
-2.3974
-2.39868
-2.32397
-2.35801
-2.13701
-2.36841
-1.69704
-2.72109
-0.521911
-4.49424
2.24085
2.22783
2.2142
2.19976
2.18448
2.16836
2.15138
2.13348
2.1146
2.09467
2.07367
2.05153
2.02815
2.00352
1.97754
1.95017
1.92139
1.89122
1.85983
1.82729
1.79324
1.75686
1.71766
1.67622
1.63358
1.59039
1.54651
1.50119
1.45326
1.40135
1.34474
1.28371
1.21862
1.14927
1.07569
0.998548
0.918376
0.835042
0.748183
0.657603
0.563267
0.46525
0.363629
0.258486
0.149937
0.0381296
-0.076703
-0.194296
-0.314276
-0.436264
-0.559738
-0.684114
-0.808756
-0.932878
-1.05565
-1.17615
-1.29338
-1.40626
-1.51362
-1.61435
-1.70719
-1.7911
-1.86465
-1.92746
-1.97725
-2.01098
-2.02901
-2.04665
-2.04125
-2.05373
-1.99742
-2.0432
-1.85204
-2.08847
-1.47036
-2.47713
-0.383339
-4.28443
1.85248
1.84221
1.83146
1.82008
1.80805
1.79535
1.78198
1.76788
1.75301
1.73733
1.72078
1.70334
1.68493
1.66554
1.64509
1.62353
1.60081
1.57688
1.55174
1.52544
1.49811
1.46978
1.43997
1.40793
1.37331
1.33675
1.29934
1.26162
1.22332
1.18363
1.14135
1.09543
1.04558
0.992082
0.934954
0.8741
0.809954
0.743188
0.673944
0.601925
0.526831
0.448574
0.367191
0.282764
0.195373
0.105101
0.0120852
-0.0834919
-0.181389
-0.28132
-0.382927
-0.485778
-0.589392
-0.693188
-0.796516
-0.898664
-0.998828
-1.09615
-1.18966
-1.27843
-1.36141
-1.43767
-1.50596
-1.56591
-1.61541
-1.65094
-1.67256
-1.69471
-1.69712
-1.71699
-1.67505
-1.72888
-1.5637
-1.80162
-1.23405
-2.21819
-0.23323
-4.04007
1.49516
1.48723
1.47893
1.47015
1.46085
1.45105
1.44072
1.42982
1.41833
1.4062
1.39341
1.37992
1.36569
1.3507
1.33489
1.3182
1.3006
1.28205
1.26251
1.24194
1.22038
1.19787
1.17453
1.15031
1.12468
1.09689
1.0668
1.03523
1.00318
0.971003
0.938255
0.904065
0.867347
0.827415
0.784269
0.738018
0.688583
0.636192
0.581505
0.524905
0.466224
0.405168
0.341595
0.275522
0.207027
0.136169
0.0630104
-0.0123459
-0.0897677
-0.169042
-0.249942
-0.332155
-0.415338
-0.499077
-0.582882
-0.666214
-0.748464
-0.828961
-0.906959
-0.981692
-1.05231
-1.11806
-1.17787
-1.23148
-1.27695
-1.31091
-1.33297
-1.35634
-1.36298
-1.38673
-1.35522
-1.41366
-1.27011
-1.5066
-0.98392
-1.94199
-0.0626503
-3.75734
1.12112
1.11526
1.10914
1.10266
1.09582
1.0886
1.08099
1.07297
1.06451
1.05559
1.04619
1.03628
1.02584
1.01484
1.00323
0.991003
0.978114
0.964536
0.950216
0.935134
0.919271
0.902625
0.885233
0.867172
0.848533
0.829162
0.808437
0.785719
0.761169
0.735753
0.710338
0.68507
0.65944
0.632601
0.603762
0.572562
0.538941
0.502747
0.463988
0.423144
0.380667
0.336452
0.290137
0.241533
0.190698
0.137792
0.0829646
0.0263171
-0.0320509
-0.0919986
-0.153345
-0.215866
-0.279306
-0.343361
-0.407683
-0.471875
-0.535498
-0.598071
-0.659038
-0.717832
-0.773808
-0.826429
-0.874803
-0.918812
-0.95679
-0.985975
-1.00553
-1.02702
-1.03451
-1.05871
-1.03378
-1.09331
-0.966888
-1.1983
-0.71541
-1.63897
0.130988
-3.39486
0.820814
0.816831
0.812662
0.808241
0.803562
0.798633
0.793432
0.787926
0.782122
0.775999
0.769528
0.762705
0.75551
0.747905
0.739875
0.73141
0.722478
0.713046
0.703095
0.692595
0.681512
0.669826
0.65754
0.644665
0.631252
0.617399
0.60313
0.588114
0.571628
0.553256
0.533508
0.513397
0.493434
0.473268
0.452071
0.429004
0.403735
0.376459
0.347356
0.316446
0.284246
0.251496
0.218393
0.184583
0.149628
0.113324
0.0756862
0.0368005
-0.0032519
-0.0444035
-0.0865694
-0.129632
-0.173434
-0.217794
-0.262479
-0.307225
-0.351734
-0.395686
-0.438691
-0.480368
-0.520263
-0.558031
-0.592993
-0.625173
-0.653198
-0.675367
-0.690181
-0.707391
-0.71295
-0.734826
-0.71303
-0.770808
-0.656821
-0.879816
-0.431389
-1.30538
0.340463
-2.90392
0.336794
0.334121
0.331323
0.328361
0.325228
0.321922
0.318431
0.314739
0.310841
0.306726
0.30237
0.29776
0.292894
0.28774
0.282274
0.276487
0.270351
0.263837
0.25692
0.249569
0.241745
0.233405
0.224514
0.215039
0.20494
0.194148
0.182503
0.169818
0.155943
0.140764
0.124842
0.110588
0.102481
0.105249
0.121193
0.148681
0.182205
0.213725
0.235232
0.241456
0.231493
0.208905
0.179983
0.150255
0.122115
0.0954271
0.0693001
0.043193
0.0170363
-0.00905314
-0.034998
-0.060778
-0.0863847
-0.111795
-0.136957
-0.1618
-0.186229
-0.21014
-0.23338
-0.255801
-0.277196
-0.297449
-0.316139
-0.333462
-0.348345
-0.360525
-0.368022
-0.378312
-0.379158
-0.395765
-0.374419
-0.425808
-0.32496
-0.523348
-0.135742
-0.874265
0.485227
-2.03261
0.302921
0.302916
0.302899
0.302876
0.30285
0.302818
0.302778
0.302738
0.302701
0.302665
0.302628
0.302595
0.302576
0.302577
0.3026
0.302657
0.302757
0.30292
0.303165
0.303515
0.304008
0.304664
0.305474
0.306376
0.307272
0.30822
0.309727
0.313131
0.320692
0.334812
0.356097
0.380927
0.400488
0.40293
0.377846
0.320763
0.235813
0.136049
0.0405225
-0.0319718
-0.0706559
-0.0774667
-0.0646276
-0.0463342
-0.0314088
-0.0219558
-0.0164921
-0.013259
-0.0115023
-0.0111724
-0.012318
-0.01484
-0.0185345
-0.0231904
-0.0286182
-0.0346384
-0.0410777
-0.0477779
-0.0545874
-0.0613829
-0.0680226
-0.0744759
-0.0805033
-0.0863979
-0.0914956
-0.0966574
-0.0988809
-0.103581
-0.101692
-0.112248
-0.095855
-0.132093
-0.0639195
-0.193487
0.0461786
-0.376175
0.390562
-0.878378
)
;

boundaryField
{
    inlet
    {
        type            freestreamPressure;
        freestreamValue uniform 0;
        value           nonuniform List<scalar> 
27
(
-3.68368
-3.55533
-3.47224
-3.41081
-3.34189
-3.26415
-3.18451
-3.10501
-3.02449
-2.94196
-2.85741
-2.77088
-2.68185
-2.58947
-2.49218
-2.38735
-2.27225
-2.1434
-2.06162
-1.98476
-1.89202
-1.78396
-1.65888
-1.49855
-1.28145
-0.896633
-0.387255
)
;
    }
    outlet
    {
        type            freestreamPressure;
        freestreamValue uniform 0;
        value           nonuniform List<scalar> 
78
(
0.000904427
0.000904325
0.000904187
0.000904026
0.00090385
0.000903648
0.000903418
0.000903179
0.000902943
0.000902702
0.00090245
0.000902198
0.000901983
0.000901813
0.000901701
0.000901678
0.00090177
0.000902033
0.000902523
0.000903307
0.000904501
0.000906178
0.000908338
0.000910815
0.000913299
0.000915833
0.000919669
0.000928473
0.000948761
0.000987783
0.00104797
0.00111985
0.00117884
0.00119052
0.00112252
0.000958253
0.000707207
0.000408392
0.000121375
-9.53445e-05
-0.000209632
-0.000228824
-0.000190342
-0.000136282
-9.23605e-05
-6.45791e-05
-4.85234e-05
-3.90196e-05
-3.38555e-05
-3.28906e-05
-3.62718e-05
-4.37122e-05
-5.46175e-05
-6.83736e-05
-8.44324e-05
-0.000102277
-0.000121411
-0.000141384
-0.000161766
-0.00018221
-0.000202317
-0.000222011
-0.000240606
-0.000258973
-0.000275187
-0.000291598
-0.000299296
-0.000314428
-0.000310288
-0.000343219
-0.000295972
-0.000406512
-0.000201401
-0.000594663
0.000151695
-0.00111969
0.00141854
-0.00227726
)
;
    }
    walls
    {
        type            zeroGradient;
    }
    frontAndBack
    {
        type            empty;
    }
    procBoundary7to3
    {
        type            processor;
        value           nonuniform List<scalar> 
16
(
6.38747
5.73736
5.16923
4.66563
4.22514
3.69611
3.14938
2.68684
2.25349
2.25349
1.86242
1.50284
1.12678
0.82467
0.33937
0.302931
)
;
    }
    procBoundary7to6
    {
        type            processor;
        value           nonuniform List<scalar> 
91
(
-8.53893
-1.02565
-1.02565
-6.08407
-6.08407
-3.97838
-3.97838
-5.5106
-5.75642
-5.75642
-6.4574
-6.20704
-6.20704
-7.45315
-7.06836
-6.73408
-6.73408
-8.00529
-7.70297
-7.41465
-7.41465
-8.53084
-8.33303
-8.10342
-7.8456
-7.8456
-8.05814
-8.10872
-8.11602
-8.08143
-8.0067
-8.0067
-5.52342
-5.87263
-6.19005
-6.47316
-6.7198
-6.92824
-7.09719
-7.09719
0.31883
-0.101885
-0.529431
-0.96204
-1.39768
-1.83406
-2.26872
-2.69897
-3.12194
-3.53465
-3.93399
-4.31686
-4.31686
7.08164
7.02099
6.95907
6.89415
6.82517
6.75247
6.67604
6.59529
6.51045
6.42262
6.33272
6.24114
6.14772
6.05165
5.95141
5.84533
5.7315
5.60726
5.46974
5.31723
5.15011
4.96978
4.77748
4.57456
4.36196
4.13922
3.90544
3.66016
3.4032
3.13447
2.85389
2.5614
2.25705
1.94104
1.61364
1.27528
0.926531
0.926531
)
;
    }
}


// ************************************************************************* //
