# p  FACE_DATA 150
# x y z  p
0.29576437 -0.05 0.059999701 96200.96
0.28738431 -0.05 0.059968924 96123.322
0.27918472 -0.05 0.059906283 96047.635
0.27116186 -0.05 0.05981265 95971.768
0.26331203 -0.05 0.059689027 95895.876
0.25563166 -0.05 0.059536266 95820.256
0.24811723 -0.05 0.059355154 95744.991
0.24076528 -0.05 0.059146557 95669.921
0.23357246 -0.05 0.058911358 95594.591
0.22653546 -0.05 0.058650341 95518.979
0.21965107 -0.05 0.058364202 95443.348
0.21291613 -0.05 0.058053757 95367.419
0.20632755 -0.05 0.057719714 95291.972
0.19988232 -0.05 0.057362758 95216.194
0.19357748 -0.05 0.056983702 95140.187
0.18741014 -0.05 0.056583118 95064.531
0.18137746 -0.05 0.056161624 94988.374
0.17547671 -0.05 0.055719844 94911.944
0.16970518 -0.05 0.055258362 94834.978
0.16406021 -0.05 0.05477783 94757.713
0.15853921 -0.05 0.054278745 94680.289
0.15313967 -0.05 0.053761636 94602.139
0.14785914 -0.05 0.053226963 94524.18
0.14269518 -0.05 0.052675259 94445.204
0.13764543 -0.05 0.052106992 94366.162
0.13270762 -0.05 0.051522466 94286.507
0.12787949 -0.05 0.050922169 94205.781
0.12315883 -0.05 0.050306449 94124.624
0.11854353 -0.05 0.049675628 94042.438
0.11403148 -0.05 0.04903008 93959.198
0.10962065 -0.05 0.04837006 93874.982
0.10530908 -0.05 0.047695796 93789.883
0.10109483 -0.05 0.047007509 93703.927
0.096976017 -0.05 0.046305459 93616.552
0.092950808 -0.05 0.04558984 93527.779
0.08901745 -0.05 0.044860715 93437.305
0.085174232 -0.05 0.044118143 93344.729
0.081419479 -0.05 0.043362243 93250.021
0.077751578 -0.05 0.042593081 93153.197
0.074168981 -0.05 0.041810614 93054.796
0.070670198 -0.05 0.041014781 92955.145
0.06725379 -0.05 0.040205491 92854.454
0.06391837 -0.05 0.039382651 92751.871
0.060662655 -0.05 0.038545988 92648.567
0.057485397 -0.05 0.037695273 92542.976
0.054385413 -0.05 0.036830261 92436.733
0.051361621 -0.05 0.035950545 92328.428
0.048412992 -0.05 0.035055749 92217.701
0.045538629 -0.05 0.034145316 92105.092
0.042737712 -0.05 0.03321865 91990.188
0.040009498 -0.05 0.032275149 91872.876
0.037353406 -0.05 0.031314032 91752.651
0.034768993 -0.05 0.030334375 91628.417
0.032255944 -0.05 0.02933521 91502.411
0.029814132 -0.05 0.028315426 91377.794
0.027443661 -0.05 0.027273729 91253.931
0.025144824 -0.05 0.026208776 91128.76
0.022918276 -0.05 0.02511886 91004.995
0.020764984 -0.05 0.02400217 90884.949
0.018686283 -0.05 0.022856725 90779.887
0.016684024 -0.05 0.021680228 90694.323
0.01476059 -0.05 0.020470219 90643.835
0.012919252 -0.05 0.019223865 90632.811
0.011164249 -0.05 0.017938283 90667.667
0.0095007128 -0.05 0.016610449 90754.14
0.0079348886 -0.05 0.015236971 90910.475
0.006474941 -0.05 0.013814774 91207.637
0.0051312596 -0.05 0.012341958 91656.164
0.0039150106 -0.05 0.010816511 92289.903
0.0028396284 -0.05 0.009238845 93136.192
0.0019206554 -0.05 0.007613688 94252.497
0.0011720639 -0.05 0.0059475212 95609.018
0.00060615611 -0.05 0.004252283 97169.066
0.00023063831 -0.05 0.0025452878 98814.1
4.5460517e-05 -0.05 0.0008455405 100440.77
0.99536103 -0.05 0.00067021835 101136.09
0.98608198 -0.05 0.0020028877 101051.97
0.97680071 -0.05 0.0033200849 100934.06
0.96751731 -0.05 0.0046220425 100831.9
0.95823181 -0.05 0.0059090613 100731.54
0.94894428 -0.05 0.0071813587 100636.7
0.93965479 -0.05 0.0084391859 100545.81
0.93036339 -0.05 0.0096828487 100458.62
0.92107012 -0.05 0.010912491 100375.17
0.91177504 -0.05 0.012128333 100294.71
0.90247819 -0.05 0.013330648 100217.16
0.89317963 -0.05 0.014519511 100142.15
0.88387936 -0.05 0.015695054 100069.74
0.87457746 -0.05 0.016857552 99999.442
0.86527394 -0.05 0.01800713 99931.392
0.85596885 -0.05 0.019143875 99865.014
0.84666223 -0.05 0.020267984 99800.426
0.8373541 -0.05 0.021379502 99737.433
0.82804448 -0.05 0.022478516 99675.796
0.8187334 -0.05 0.023565119 99615.202
0.8094209 -0.05 0.024639397 99555.659
0.80010698 -0.05 0.025701394 99497.182
0.79079168 -0.05 0.026751168 99439.544
0.78147501 -0.05 0.027788748 99382.636
0.77215699 -0.05 0.028814138 99326.411
0.76283764 -0.05 0.029827333 99270.913
0.75351698 -0.05 0.030828337 99215.928
0.74419501 -0.05 0.03181713 99161.495
0.73487174 -0.05 0.032793639 99107.515
0.72554719 -0.05 0.033757832 99053.975
0.71622136 -0.05 0.034709535 99000.834
0.70689427 -0.05 0.03564879 98947.346
0.69756592 -0.05 0.036575541 98894.037
0.68823633 -0.05 0.037489546 98840.831
0.67890547 -0.05 0.03839067 98787.811
0.66957337 -0.05 0.039278803 98734.647
0.66024004 -0.05 0.040153805 98681.526
0.65090546 -0.05 0.04101549 98628.35
0.64156964 -0.05 0.041863622 98575.264
0.63223258 -0.05 0.042697993 98521.916
0.62289428 -0.05 0.043518409 98468.432
0.61355475 -0.05 0.04432459 98414.824
0.60421397 -0.05 0.045116236 98361.029
0.59487195 -0.05 0.045893096 98306.609
0.58552869 -0.05 0.046654869 98251.771
0.57618419 -0.05 0.047401205 98196.523
0.56683843 -0.05 0.048131797 98140.922
0.55749143 -0.05 0.048846241 98084.951
0.54814318 -0.05 0.049544112 98028.362
0.53879368 -0.05 0.050225066 97971.133
0.52944294 -0.05 0.050888717 97913.536
0.52009095 -0.05 0.051534504 97855.809
0.51073771 -0.05 0.052161963 97797.428
0.50138323 -0.05 0.052770675 97738.317
0.49202751 -0.05 0.05336005 97678.367
0.48267057 -0.05 0.053929509 97617.651
0.47331239 -0.05 0.054478508 97556.047
0.46395301 -0.05 0.055006444 97493.702
0.45459243 -0.05 0.05551264 97430.605
0.44523065 -0.05 0.055996468 97366.753
0.43586772 -0.05 0.056457197 97302.257
0.42650365 -0.05 0.05689408 97236.848
0.41713847 -0.05 0.057306402 97170.594
0.4077722 -0.05 0.057693321 97103.47
0.39840488 -0.05 0.058053993 97034.885
0.38903656 -0.05 0.058387503 96965.012
0.37966728 -0.05 0.058692933 96893.857
0.3702971 -0.05 0.058969274 96821.885
0.36092607 -0.05 0.059215505 96748.432
0.35155429 -0.05 0.059430617 96673.835
0.34218182 -0.05 0.059613395 96598.519
0.33280876 -0.05 0.059762649 96522.031
0.3234352 -0.05 0.059877122 96443.338
0.31406128 -0.05 0.059955444 96361.194
0.30468712 -0.05 0.059996221 96277.29
