/*--------------------------------*- C++ -*----------------------------------*\
| =========                 |                                                 |
| \\      /  F ield         | OpenFOAM: The Open Source CFD Toolbox           |
|  \\    /   O peration     | Version:  2306                                  |
|   \\  /    A nd           | Website:  www.openfoam.com                      |
|    \\/     M anipulation  |                                                 |
\*---------------------------------------------------------------------------*/
FoamFile
{
    version     2.0;
    format      ascii;
    arch        "LSB;label=32;scalar=64";
    class       volScalarField;
    location    "0.007";
    object      alphat;
}
// * * * * * * * * * * * * * * * * * * * * * * * * * * * * * * * * * * * * * //

dimensions      [1 -1 -1 0 0 0 0];

internalField   nonuniform List<scalar> 
20000
(
0.00044882364
0.0011163561
0.0014748566
0.0015826321
0.0013786478
0.00072322166
2.9527093e-05
1.2018761e-08
8.9904497e-09
8.8440897e-09
8.8384858e-09
8.7703672e-09
8.7517177e-09
8.7194659e-09
8.7030555e-09
8.6857947e-09
8.6749457e-09
8.6666225e-09
8.6620958e-09
8.6604362e-09
8.6615265e-09
8.6649871e-09
8.670296e-09
8.6767967e-09
8.6835529e-09
8.6896701e-09
8.6943705e-09
8.6972645e-09
8.6980404e-09
8.6964786e-09
8.6926177e-09
8.6870492e-09
8.6808237e-09
8.6743557e-09
8.6667357e-09
8.6577203e-09
8.6474938e-09
8.6373894e-09
8.6279379e-09
8.6152622e-09
8.6043454e-09
8.6012529e-09
8.6050958e-09
8.6056149e-09
8.6041363e-09
8.5921929e-09
8.5814232e-09
8.5755849e-09
8.5730921e-09
8.572249e-09
0.00044595402
0.0011016237
0.0014460824
0.0015384249
0.0013186363
0.00063643161
1.3096909e-05
1.0727594e-08
8.9825791e-09
8.8386048e-09
8.8354166e-09
8.7683898e-09
8.7507459e-09
8.7194895e-09
8.703874e-09
8.6874181e-09
8.6772649e-09
8.6696123e-09
8.6656892e-09
8.6645913e-09
8.6661777e-09
8.6700548e-09
8.675678e-09
8.6823598e-09
8.6891282e-09
8.6950499e-09
8.6993366e-09
8.7016259e-09
8.7016528e-09
8.6993649e-09
8.6948965e-09
8.6887843e-09
8.681984e-09
8.6749782e-09
8.6671181e-09
8.6580232e-09
8.6477181e-09
8.6377237e-09
8.6283229e-09
8.6152888e-09
8.604197e-09
8.6004859e-09
8.6055083e-09
8.6058898e-09
8.6040122e-09
8.5922813e-09
8.5815437e-09
8.5756811e-09
8.5731446e-09
8.5722629e-09
0.00044341341
0.0010878908
0.001418076
0.0014934375
0.0012563944
0.00054991184
5.0339162e-06
9.9636161e-09
8.9755356e-09
8.8336979e-09
8.8315011e-09
8.7665029e-09
8.7498073e-09
8.7196293e-09
8.7048166e-09
8.6892117e-09
8.6797893e-09
8.6728567e-09
8.6695868e-09
8.6691031e-09
8.6712466e-09
8.6756076e-09
8.681614e-09
8.6885402e-09
8.6953813e-09
8.7011578e-09
8.7050717e-09
8.7067673e-09
8.7060192e-09
8.70297e-09
8.69783e-09
8.6911228e-09
8.6837125e-09
8.6761071e-09
8.6679003e-09
8.6586587e-09
8.6482214e-09
8.6382453e-09
8.6288468e-09
8.6155388e-09
8.6043162e-09
8.6003038e-09
8.6056623e-09
8.6061753e-09
8.6039464e-09
8.5922639e-09
8.5816672e-09
8.5757707e-09
8.5732006e-09
8.5722829e-09
0.00044092114
0.001074492
0.0013906917
0.0014482413
0.0011935533
0.00046882184
1.8530262e-06
9.515623e-09
8.9691956e-09
8.8292958e-09
8.82858e-09
8.7651705e-09
8.7493986e-09
8.7202988e-09
8.7062699e-09
8.6915107e-09
8.6828065e-09
8.6765836e-09
8.6739528e-09
8.6740684e-09
8.6767457e-09
8.6815587e-09
8.6879022e-09
8.6950127e-09
8.7018488e-09
8.7073943e-09
8.7108566e-09
8.7118747e-09
8.7102806e-09
8.7064355e-09
8.7005862e-09
8.6932815e-09
8.6852813e-09
8.6770896e-09
8.6685203e-09
8.6591285e-09
8.6485778e-09
8.6386039e-09
8.6292092e-09
8.6157379e-09
8.604507e-09
8.6002143e-09
8.6055999e-09
8.6063275e-09
8.6040512e-09
8.5922636e-09
8.5817796e-09
8.5758626e-09
8.5732471e-09
8.572301e-09
0.00043853328
0.0010614317
0.0013641533
0.0014052288
0.0011289579
0.00039235441
6.8351218e-07
9.2482715e-09
8.9644349e-09
8.8254932e-09
8.8259127e-09
8.7643008e-09
8.7494247e-09
8.7214071e-09
8.7081531e-09
8.6942419e-09
8.686259e-09
8.6807531e-09
8.6787701e-09
8.679493e-09
8.6827117e-09
8.6879792e-09
8.6946541e-09
8.7019312e-09
8.7087304e-09
8.7140046e-09
8.716977e-09
8.71725e-09
8.7147734e-09
8.7100704e-09
8.7034686e-09
8.695548e-09
8.6869602e-09
8.6781747e-09
8.6692049e-09
8.6596373e-09
8.6489686e-09
8.6389671e-09
8.6295608e-09
8.6160129e-09
8.6048854e-09
8.6003386e-09
8.6054295e-09
8.6064112e-09
8.6044274e-09
8.5922781e-09
8.5818763e-09
8.5759411e-09
8.5732901e-09
8.57232e-09
0.00043617022
0.0010483234
0.0013377445
0.0013605795
0.0010615792
0.00032084273
2.6580533e-07
9.088443e-09
8.9605337e-09
8.8222926e-09
8.8238595e-09
8.7639453e-09
8.749929e-09
8.7229954e-09
8.7105039e-09
8.6974409e-09
8.6901784e-09
8.6853912e-09
8.6840579e-09
8.6853891e-09
8.6891462e-09
8.6948582e-09
8.7018428e-09
8.7092497e-09
8.7159589e-09
8.7209035e-09
8.7233198e-09
8.7227693e-09
8.719376e-09
8.7137512e-09
8.7063497e-09
8.6977942e-09
8.6886314e-09
8.6792582e-09
8.6698639e-09
8.6601068e-09
8.6493311e-09
8.6392871e-09
8.629865e-09
8.6163203e-09
8.605384e-09
8.6005612e-09
8.6052542e-09
8.6064763e-09
8.6048967e-09
8.5923499e-09
8.5819538e-09
8.5760102e-09
8.5733318e-09
8.5723375e-09
0.00043383348
0.0010349764
0.0013100774
0.0013155926
0.00099142674
0.00025446974
1.1436833e-07
8.9917416e-09
8.9573128e-09
8.8196895e-09
8.8222552e-09
8.7640899e-09
8.7509042e-09
8.7250595e-09
8.7133214e-09
8.7011091e-09
8.6945681e-09
8.6905039e-09
8.6898247e-09
8.6917669e-09
8.6960617e-09
8.7022096e-09
8.7094835e-09
8.7169835e-09
8.7235502e-09
8.7281123e-09
8.7298981e-09
8.7284503e-09
8.7241059e-09
8.7175019e-09
8.7092559e-09
8.7000407e-09
8.6903093e-09
8.6803544e-09
8.6705104e-09
8.6605486e-09
8.649679e-09
8.6395821e-09
8.6301365e-09
8.6166588e-09
8.6059666e-09
8.6008558e-09
8.6051729e-09
8.6065138e-09
8.6052351e-09
8.5924796e-09
8.5820201e-09
8.5760738e-09
8.5733678e-09
8.5723524e-09
0.00043160842
0.0010218708
0.0012827468
0.0012705228
0.00091824644
0.00019496594
5.6320268e-08
8.9318062e-09
8.9548631e-09
8.8176581e-09
8.8211614e-09
8.7647353e-09
8.7523561e-09
8.7276073e-09
8.7166173e-09
8.7052589e-09
8.6994417e-09
8.6961043e-09
8.6960835e-09
8.698639e-09
8.703469e-09
8.7100414e-09
8.7175796e-09
8.7251297e-09
8.7314947e-09
8.7356134e-09
8.7366823e-09
8.7342778e-09
8.7289332e-09
8.7212994e-09
8.7121661e-09
8.7022658e-09
8.6919714e-09
8.6814481e-09
8.6711314e-09
8.6609447e-09
8.6499925e-09
8.6398397e-09
8.6303553e-09
8.616994e-09
8.6065514e-09
8.6012089e-09
8.6051488e-09
8.6065553e-09
8.6054673e-09
8.5927079e-09
8.5820951e-09
8.5761302e-09
8.5733976e-09
8.5723681e-09
0.00042947217
0.0010086988
0.0012552898
0.0012254098
0.0008422912
0.00013899172
3.188507e-08
8.8945445e-09
8.9476368e-09
8.8161873e-09
8.8205478e-09
8.7658882e-09
8.7542918e-09
8.7306468e-09
8.7203998e-09
8.7098992e-09
8.7048088e-09
8.7022031e-09
8.7028456e-09
8.7060165e-09
8.7113784e-09
8.7183618e-09
8.7261359e-09
8.7336877e-09
8.7397885e-09
8.7433957e-09
8.7436478e-09
8.7402514e-09
8.7338371e-09
8.7251331e-09
8.7150735e-09
8.7044626e-09
8.6936076e-09
8.6825328e-09
8.6717312e-09
8.6612964e-09
8.6502688e-09
8.6400565e-09
8.6305045e-09
8.6172928e-09
8.6071034e-09
8.6016402e-09
8.6052039e-09
8.6066263e-09
8.6056295e-09
8.5929565e-09
8.5821989e-09
8.5761883e-09
8.5734281e-09
8.572383e-09
0.00042736457
0.00099528365
0.0012273473
0.0011796836
0.0007639001
8.897411e-05
2.0807084e-08
8.8709436e-09
8.9440088e-09
8.8153331e-09
8.8204488e-09
8.7675584e-09
8.7567215e-09
8.7341858e-09
8.7246786e-09
8.7150402e-09
8.7106807e-09
8.7088122e-09
8.7101233e-09
8.7139115e-09
8.7198004e-09
8.7271784e-09
8.7351553e-09
8.7426555e-09
8.7484291e-09
8.7514403e-09
8.7507767e-09
8.7463458e-09
8.7388003e-09
8.7289869e-09
8.7179669e-09
8.7066205e-09
8.695205e-09
8.683598e-09
8.6723059e-09
8.6616011e-09
8.6505087e-09
8.6402329e-09
8.6305879e-09
8.6175366e-09
8.6076074e-09
8.6021609e-09
8.605397e-09
8.6067402e-09
8.6057349e-09
8.59313e-09
8.582351e-09
8.576258e-09
8.5734609e-09
8.5723974e-09
0.00042527253
0.00098149575
0.001198214
0.0011310357
0.00068397575
4.870649e-05
1.5406599e-08
8.8560427e-09
8.9411079e-09
8.815079e-09
8.8208662e-09
8.7697502e-09
8.7596501e-09
8.7382312e-09
8.7294621e-09
8.7206918e-09
8.7170691e-09
8.7159443e-09
8.7179295e-09
8.7223362e-09
8.7287455e-09
8.7364983e-09
8.7446391e-09
8.7520284e-09
8.7574097e-09
8.7597244e-09
8.7580534e-09
8.7525379e-09
8.743803e-09
8.732845e-09
8.7208363e-09
8.7087316e-09
8.6967519e-09
8.6846329e-09
8.6728543e-09
8.6618586e-09
8.6507075e-09
8.640369e-09
8.6306059e-09
8.6177123e-09
8.6080564e-09
8.6027321e-09
8.6056964e-09
8.6069005e-09
8.6058063e-09
8.593254e-09
8.5824821e-09
8.5763219e-09
8.5734854e-09
8.5724114e-09
0.00042320287
0.00096751209
0.0011680884
0.0010830698
0.00060391004
2.2403363e-05
1.2617499e-08
8.8466774e-09
8.9386232e-09
8.8154142e-09
8.8218148e-09
8.7724641e-09
8.7630824e-09
8.7427894e-09
8.7347614e-09
8.7268667e-09
8.7239879e-09
8.7236132e-09
8.7262782e-09
8.7313035e-09
8.7382242e-09
8.7463278e-09
8.754587e-09
8.7618009e-09
8.7667155e-09
8.7682176e-09
8.7654741e-09
8.7587977e-09
8.7488245e-09
8.7366903e-09
8.7236704e-09
8.7107882e-09
8.6982382e-09
8.6856257e-09
8.6733728e-09
8.6620691e-09
8.6508625e-09
8.640465e-09
8.630552e-09
8.6178072e-09
8.6084221e-09
8.6032893e-09
8.6060136e-09
8.607101e-09
8.6058644e-09
8.5933086e-09
8.5825323e-09
8.5763627e-09
8.5735065e-09
8.5724218e-09
0.00042120304
0.00095359282
0.0011379337
0.0010348866
0.00052437917
8.8495055e-06
1.1109555e-08
8.8409084e-09
8.9366222e-09
8.8163306e-09
8.8232939e-09
8.7757059e-09
8.7670282e-09
8.7478737e-09
8.7405906e-09
8.7335791e-09
8.7314515e-09
8.7318336e-09
8.7351832e-09
8.7408259e-09
8.7482462e-09
8.7566718e-09
8.7649974e-09
8.7719664e-09
8.7763291e-09
8.7768944e-09
8.7730207e-09
8.7650986e-09
8.7538429e-09
8.7405056e-09
8.7264581e-09
8.7127837e-09
8.6996553e-09
8.6865648e-09
8.6738565e-09
8.6622336e-09
8.6509698e-09
8.6405205e-09
8.630415e-09
8.6178284e-09
8.6086961e-09
8.6037771e-09
8.6063409e-09
8.6073283e-09
8.605932e-09
8.5933032e-09
8.5825385e-09
8.5763744e-09
8.5735185e-09
8.5724285e-09
0.00041923242
0.00093974289
0.001108338
0.00098567095
0.00044682947
3.185889e-06
1.0274545e-08
8.8374971e-09
8.9351161e-09
8.8178441e-09
8.8253303e-09
8.779505e-09
8.7715156e-09
8.7535057e-09
8.7469698e-09
8.7408468e-09
8.739477e-09
8.7406218e-09
8.7446601e-09
8.7509168e-09
8.7588216e-09
8.7675341e-09
8.7758676e-09
8.7825206e-09
8.7862252e-09
8.785731e-09
8.7806649e-09
8.7714163e-09
8.758835e-09
8.7442725e-09
8.7291876e-09
8.7147118e-09
8.7009965e-09
8.6874387e-09
8.6742986e-09
8.6623528e-09
8.6510261e-09
8.6405344e-09
8.6302183e-09
8.6177872e-09
8.6088921e-09
8.604173e-09
8.6066563e-09
8.6075843e-09
8.6060079e-09
8.5932788e-09
8.5825264e-09
8.576373e-09
8.5735214e-09
8.5724326e-09
0.00041718671
0.00092540444
0.0010776707
0.00093442784
0.00037342324
1.1166051e-06
9.8048272e-09
8.8358861e-09
8.9341867e-09
8.8200167e-09
8.8279124e-09
8.7838851e-09
8.7765634e-09
8.7597016e-09
8.7539142e-09
8.7486852e-09
8.7480802e-09
8.7499937e-09
8.7547235e-09
8.7615888e-09
8.7699587e-09
8.778916e-09
8.7871923e-09
8.7934522e-09
8.7963736e-09
8.7947108e-09
8.7883738e-09
8.7777251e-09
8.7637781e-09
8.7479734e-09
8.7318473e-09
8.7165668e-09
8.7022572e-09
8.688238e-09
8.6746907e-09
8.6624264e-09
8.6510284e-09
8.6405067e-09
8.629975e-09
8.6176764e-09
8.6090297e-09
8.6044849e-09
8.606954e-09
8.6078747e-09
8.6060881e-09
8.5932373e-09
8.582495e-09
8.5763607e-09
8.5735197e-09
8.5724348e-09
0.00041509443
0.00091078791
0.0010462326
0.00088063654
0.00030450173
4.0360658e-07
9.5390237e-09
8.8356566e-09
8.9338284e-09
8.8228401e-09
8.8309943e-09
8.7888474e-09
8.7821845e-09
8.7664746e-09
8.7614396e-09
8.7571097e-09
8.7572776e-09
8.7599648e-09
8.7653882e-09
8.7728544e-09
8.781665e-09
8.7908171e-09
8.7989639e-09
8.8047413e-09
8.8067324e-09
8.8038301e-09
8.7961087e-09
8.7839975e-09
8.7686484e-09
8.7515899e-09
8.7344247e-09
8.7183426e-09
8.7034343e-09
8.688955e-09
8.6750236e-09
8.6624528e-09
8.6509751e-09
8.6404388e-09
8.6296773e-09
8.6175298e-09
8.6091257e-09
8.6047396e-09
8.6072587e-09
8.6081959e-09
8.6061737e-09
8.5931628e-09
8.5824396e-09
8.5763353e-09
8.5735121e-09
8.5724357e-09
0.00041295543
0.00089600926
0.0010140767
0.00082528548
0.00023967769
1.5962536e-07
9.3853124e-09
8.836525e-09
8.9340434e-09
8.8263127e-09
8.8345731e-09
8.7944002e-09
8.7883942e-09
8.7738401e-09
8.7695619e-09
8.766137e-09
8.7670856e-09
8.7705518e-09
8.7766696e-09
8.7847261e-09
8.7939469e-09
8.803236e-09
8.8111741e-09
8.8163644e-09
8.8172768e-09
8.8130516e-09
8.8038398e-09
8.7902051e-09
8.7734228e-09
8.7551043e-09
8.7369078e-09
8.7200332e-09
8.7045263e-09
8.6895852e-09
8.6752881e-09
8.662428e-09
8.6508665e-09
8.6403264e-09
8.6293264e-09
8.6173457e-09
8.6091864e-09
8.6049621e-09
8.6075843e-09
8.6085474e-09
8.6062629e-09
8.5930573e-09
8.5823602e-09
8.5762961e-09
8.573499e-09
8.5724359e-09
0.00041085102
0.00088139563
0.00098131205
0.0007677705
0.00017898742
7.2199892e-08
9.2943644e-09
8.8383999e-09
8.9348551e-09
8.8304544e-09
8.8387647e-09
8.8005566e-09
8.7952043e-09
8.7818095e-09
8.7782945e-09
8.7757811e-09
8.7775201e-09
8.7817707e-09
8.7885828e-09
8.7972154e-09
8.8068089e-09
8.8161697e-09
8.8238161e-09
8.8282868e-09
8.8279774e-09
8.8223402e-09
8.8115344e-09
8.7963189e-09
8.7780781e-09
8.7584995e-09
8.7392848e-09
8.7216319e-09
8.7055318e-09
8.6901271e-09
8.6754763e-09
8.6623476e-09
8.650705e-09
8.6401468e-09
8.6289225e-09
8.6171191e-09
8.6092147e-09
8.6051732e-09
8.6079311e-09
8.6089295e-09
8.606353e-09
8.5929164e-09
8.5822567e-09
8.5762437e-09
8.57348e-09
8.5724339e-09
0.00040886299
0.00086729987
0.00094884073
0.00070716368
0.00012547423
3.8292464e-08
9.2396712e-09
8.8411873e-09
8.9362763e-09
8.8352675e-09
8.8437686e-09
8.8073373e-09
8.8026241e-09
8.7903938e-09
8.7876511e-09
8.7860583e-09
8.7885988e-09
8.7936394e-09
8.8011439e-09
8.8103334e-09
8.8202537e-09
8.8296121e-09
8.8368718e-09
8.8404682e-09
8.8388148e-09
8.8316511e-09
8.8191592e-09
8.8023097e-09
8.782592e-09
8.7617593e-09
8.7415444e-09
8.7231318e-09
8.7064495e-09
8.6905823e-09
8.6755824e-09
8.6622075e-09
8.6504895e-09
8.6399118e-09
8.6284696e-09
8.6168486e-09
8.6092156e-09
8.6053698e-09
8.6082998e-09
8.6093435e-09
8.6064362e-09
8.5927389e-09
8.5821288e-09
8.5761783e-09
8.5734556e-09
8.5724298e-09
0.00040700709
0.00085368014
0.00092047386
0.00064355103
7.7688651e-05
2.3591166e-08
9.2060472e-09
8.8448428e-09
8.9382996e-09
8.8407423e-09
8.8496431e-09
8.814755e-09
8.810659e-09
8.7996025e-09
8.7976465e-09
8.7969856e-09
8.8003406e-09
8.8061765e-09
8.8143688e-09
8.8240901e-09
8.8342818e-09
8.8435544e-09
8.8503172e-09
8.8528622e-09
8.8497703e-09
8.8409378e-09
8.8266789e-09
8.8081484e-09
8.7869423e-09
8.7648686e-09
8.7436762e-09
8.7245253e-09
8.7072776e-09
8.6909541e-09
8.6756055e-09
8.6620064e-09
8.6502003e-09
8.6396256e-09
8.6279694e-09
8.6165307e-09
8.6091963e-09
8.6055544e-09
8.6086982e-09
8.609789e-09
8.6065003e-09
8.5925227e-09
8.5819766e-09
8.5761e-09
8.5734257e-09
8.5724238e-09
0.00040518253
0.00083953683
0.00088879562
0.0005766221
4.1103324e-05
1.6734883e-08
9.1851138e-09
8.8492881e-09
8.9409023e-09
8.8468556e-09
8.85612e-09
8.8228091e-09
8.819323e-09
8.809453e-09
8.8083012e-09
8.8085849e-09
8.8127669e-09
8.8194017e-09
8.8282736e-09
8.8384938e-09
8.848892e-09
8.8579863e-09
8.8641209e-09
8.8654342e-09
8.8607948e-09
8.8501616e-09
8.8340574e-09
8.8138065e-09
8.7911083e-09
8.7678135e-09
8.7456707e-09
8.7258053e-09
8.708013e-09
8.6912448e-09
8.6755532e-09
8.6617382e-09
8.6498269e-09
8.6392718e-09
8.627422e-09
8.616163e-09
8.6091594e-09
8.6057441e-09
8.6091317e-09
8.6102635e-09
8.6065175e-09
8.5922668e-09
8.5818003e-09
8.5760094e-09
8.5733909e-09
8.5724158e-09
0.00040352533
0.0008256033
0.00085804421
0.00050791785
1.8454451e-05
1.3314258e-08
9.1718633e-09
8.8544959e-09
8.9441085e-09
8.8536166e-09
8.8627819e-09
8.8314925e-09
8.8286455e-09
8.8199723e-09
8.819642e-09
8.8208811e-09
8.825901e-09
8.8333357e-09
8.8428735e-09
8.8535512e-09
8.8640811e-09
8.8728974e-09
8.8782367e-09
8.8781485e-09
8.8718394e-09
8.8592803e-09
8.841258e-09
8.8192557e-09
8.7950701e-09
8.7705812e-09
8.7475199e-09
8.7269655e-09
8.7086504e-09
8.691457e-09
8.6754413e-09
8.6613792e-09
8.6493938e-09
8.6388448e-09
8.6268281e-09
8.6157441e-09
8.6090986e-09
8.6059469e-09
8.6096026e-09
8.6107689e-09
8.6064917e-09
8.591971e-09
8.5816005e-09
8.5759074e-09
8.5733513e-09
8.572406e-09
0.00040199127
0.00081154698
0.00082628159
0.00043840741
7.1925623e-06
1.1512888e-08
9.1631123e-09
8.8605046e-09
8.9479582e-09
8.861068e-09
8.8695332e-09
8.8408138e-09
8.838661e-09
8.8311904e-09
8.8316961e-09
8.8338994e-09
8.8397665e-09
8.847999e-09
8.8581827e-09
8.8692662e-09
8.8798422e-09
8.8882623e-09
8.8926113e-09
8.8909823e-09
8.8828452e-09
8.8682499e-09
8.8482447e-09
8.8244697e-09
8.7988099e-09
8.7731608e-09
8.7492179e-09
8.7280005e-09
8.7091812e-09
8.6915972e-09
8.6752776e-09
8.6609549e-09
8.6488849e-09
8.6383375e-09
8.6261895e-09
8.6152798e-09
8.6090001e-09
8.6061688e-09
8.610114e-09
8.6113087e-09
8.6064327e-09
8.5916361e-09
8.581378e-09
8.5757947e-09
8.5733075e-09
8.5723945e-09
0.00040034735
0.00079603041
0.0007935637
0.00037126744
2.6057584e-06
1.0535891e-08
9.1572141e-09
8.8673724e-09
8.9525356e-09
8.8692726e-09
8.8771827e-09
8.8508313e-09
8.8494016e-09
8.8431354e-09
8.8444909e-09
8.8476657e-09
8.8543877e-09
8.8634121e-09
8.8742141e-09
8.8856398e-09
8.8961642e-09
8.9040499e-09
8.9071939e-09
8.9038927e-09
8.8937562e-09
8.8770248e-09
8.8549814e-09
8.8294224e-09
8.8023104e-09
8.7755427e-09
8.7507601e-09
8.728904e-09
8.7095991e-09
8.6916735e-09
8.6750388e-09
8.66049e-09
8.6483062e-09
8.6377442e-09
8.6255081e-09
8.614786e-09
8.6088732e-09
8.6064167e-09
8.6106701e-09
8.611883e-09
8.6063295e-09
8.5912637e-09
8.5811337e-09
8.5756722e-09
8.5732598e-09
8.5723815e-09
0.000398598
0.00077925233
0.00075906451
0.00030776001
9.2877515e-07
9.9877187e-09
9.153565e-09
8.8751769e-09
8.9578617e-09
8.8782553e-09
8.8867198e-09
8.861644e-09
8.8608845e-09
8.8558282e-09
8.8580492e-09
8.8622038e-09
8.8697874e-09
8.879594e-09
8.8909781e-09
8.9026712e-09
8.9130344e-09
8.9202195e-09
8.9219356e-09
8.9168202e-09
8.904521e-09
8.8855593e-09
8.8614341e-09
8.8340908e-09
8.8055575e-09
8.7777199e-09
8.7521428e-09
8.7296712e-09
8.7099056e-09
8.6916762e-09
8.6747636e-09
8.6599884e-09
8.647666e-09
8.6370615e-09
8.6247829e-09
8.6142848e-09
8.6087207e-09
8.606701e-09
8.6112741e-09
8.6124913e-09
8.6061305e-09
8.5908561e-09
8.5808685e-09
8.5755409e-09
8.5732088e-09
8.5723671e-09
0.0003965847
0.00076069481
0.0007215355
0.0002471797
3.4644181e-07
9.6769859e-09
9.1534032e-09
8.8838389e-09
8.9639345e-09
8.8880107e-09
8.8974583e-09
8.8732895e-09
8.8731325e-09
8.8692935e-09
8.8723981e-09
8.8775408e-09
8.8859907e-09
8.8965639e-09
8.9084827e-09
8.9203568e-09
8.9304376e-09
8.9367083e-09
8.9367939e-09
8.9296965e-09
8.9150836e-09
8.8938065e-09
8.8675689e-09
8.8384526e-09
8.8085385e-09
8.779686e-09
8.7533611e-09
8.7303025e-09
8.7101061e-09
8.6915542e-09
8.6744578e-09
8.6594678e-09
8.6469801e-09
8.6362897e-09
8.6240071e-09
8.6137937e-09
8.6085275e-09
8.6070309e-09
8.6119273e-09
8.6131328e-09
8.6058256e-09
8.5904156e-09
8.5805836e-09
8.5754019e-09
8.573155e-09
8.5723514e-09
0.00039421697
0.00074008228
0.00067718457
0.00018954546
1.4302028e-07
9.5022493e-09
9.1528942e-09
8.8933689e-09
8.9707702e-09
8.8985479e-09
8.9079059e-09
8.8856803e-09
8.8861699e-09
8.8835561e-09
8.8875647e-09
8.8937037e-09
8.9030224e-09
8.9143396e-09
8.9267339e-09
8.9386884e-09
8.9483372e-09
8.953446e-09
8.9517418e-09
8.9424447e-09
8.9253872e-09
8.9017219e-09
8.873355e-09
8.842489e-09
8.8112437e-09
8.7814353e-09
8.7544126e-09
8.730804e-09
8.7101897e-09
8.6913435e-09
8.6741031e-09
8.658937e-09
8.6462668e-09
8.6354338e-09
8.6231691e-09
8.613307e-09
8.6083175e-09
8.6074036e-09
8.6126271e-09
8.6138069e-09
8.6054055e-09
8.5899424e-09
8.5802801e-09
8.5752564e-09
8.573099e-09
8.5723348e-09
0.00039162169
0.00071824763
0.00062767644
0.00013640143
6.7887339e-08
9.403201e-09
9.1530963e-09
8.9037605e-09
8.9783722e-09
8.9098571e-09
8.9177811e-09
8.8987489e-09
8.9000244e-09
8.8986437e-09
8.9035779e-09
8.9107218e-09
8.9209076e-09
8.9329364e-09
8.9457327e-09
8.9576521e-09
8.9666918e-09
8.9703777e-09
8.9667035e-09
8.9549986e-09
8.9353734e-09
8.9092613e-09
8.8787629e-09
8.8461836e-09
8.8136654e-09
8.782963e-09
8.7552981e-09
8.7311833e-09
8.7101118e-09
8.6910365e-09
8.6736909e-09
8.658396e-09
8.6455425e-09
8.6345044e-09
8.6222612e-09
8.6128238e-09
8.6080993e-09
8.607826e-09
8.6133641e-09
8.6145113e-09
8.6048677e-09
8.5894321e-09
8.5799602e-09
8.575106e-09
8.5730415e-09
8.5723174e-09
0.00038881293
0.00069556836
0.00057344873
9.1307245e-05
3.7639075e-08
9.3475272e-09
9.1539665e-09
8.9150194e-09
8.9867795e-09
8.9219634e-09
8.929271e-09
8.9125947e-09
8.9147262e-09
8.9145881e-09
8.9204713e-09
8.9286264e-09
8.9396722e-09
8.9523691e-09
8.9654795e-09
8.9772287e-09
8.9854442e-09
8.9874397e-09
8.9816027e-09
8.9672884e-09
8.9449836e-09
8.9163828e-09
8.8837664e-09
8.8495231e-09
8.8157971e-09
8.7842666e-09
8.7560208e-09
8.7314347e-09
8.7099162e-09
8.6906174e-09
8.6732043e-09
8.657834e-09
8.6448162e-09
8.633515e-09
8.6212907e-09
8.6123448e-09
8.6078809e-09
8.6083205e-09
8.6141164e-09
8.6152351e-09
8.6042192e-09
8.5888774e-09
8.5796264e-09
8.5749519e-09
8.572983e-09
8.5722995e-09
0.00038573367
0.00067196428
0.00051939708
5.358435e-05
2.4015933e-08
9.3169632e-09
9.1556087e-09
8.9271795e-09
8.9960164e-09
8.9349053e-09
8.943183e-09
8.9273906e-09
8.9303044e-09
8.9314238e-09
8.9382795e-09
8.9474509e-09
8.9593411e-09
8.9726484e-09
8.9859696e-09
8.9973956e-09
9.0045101e-09
9.0045825e-09
8.9963475e-09
8.9792433e-09
8.9541604e-09
8.923047e-09
8.8883427e-09
8.8524968e-09
8.8176337e-09
8.7853476e-09
8.7565873e-09
8.7315241e-09
8.7096155e-09
8.6900916e-09
8.67263e-09
8.6572324e-09
8.6440844e-09
8.6324744e-09
8.6202858e-09
8.6118793e-09
8.6076632e-09
8.6089171e-09
8.6148478e-09
8.6159596e-09
8.6034611e-09
8.5882804e-09
8.579282e-09
8.5747957e-09
8.5729241e-09
8.5722813e-09
0.00038227248
0.00064574203
0.0004644833
2.6979016e-05
1.7459233e-08
9.3015556e-09
9.1580631e-09
8.9402358e-09
9.0061013e-09
8.9487084e-09
8.9579159e-09
8.9431445e-09
8.9468001e-09
8.949192e-09
8.9570426e-09
8.9672289e-09
8.9799368e-09
8.9937807e-09
9.0071907e-09
9.0181003e-09
9.0238085e-09
9.0217489e-09
9.0108426e-09
8.9907896e-09
8.9628485e-09
8.9292181e-09
8.8924728e-09
8.8550954e-09
8.819173e-09
8.7862127e-09
8.7569968e-09
8.7314575e-09
8.7091987e-09
8.6894611e-09
8.6719597e-09
8.6565691e-09
8.6433291e-09
8.6313787e-09
8.6192881e-09
8.6114467e-09
8.6074919e-09
8.6096516e-09
8.6155109e-09
8.6166475e-09
8.6025954e-09
8.5876473e-09
8.5789303e-09
8.5746388e-09
8.5728656e-09
8.5722631e-09
0.00037911972
0.00062155212
0.00040831671
1.1726052e-05
1.4097655e-08
9.2952751e-09
9.161374e-09
8.9541965e-09
9.0170696e-09
8.9633967e-09
8.9722529e-09
8.959791e-09
8.9642647e-09
8.9679385e-09
8.9768016e-09
8.9879936e-09
9.0014786e-09
9.0157681e-09
9.0291237e-09
9.0392853e-09
9.0432627e-09
9.0388378e-09
9.0250034e-09
9.001854e-09
8.9709955e-09
8.9348641e-09
8.8961402e-09
8.8573108e-09
8.8204207e-09
8.7868743e-09
8.7572207e-09
8.7312812e-09
8.7086737e-09
8.6887352e-09
8.6711928e-09
8.6558249e-09
8.6425207e-09
8.6302229e-09
8.6183165e-09
8.6110757e-09
8.6074358e-09
8.6105675e-09
8.6160669e-09
8.617231e-09
8.6016307e-09
8.5869864e-09
8.5785745e-09
8.5744825e-09
8.5728078e-09
8.5722449e-09
0.00037616076
0.0005975444
0.00035150501
4.5726909e-06
1.2271679e-08
9.2946288e-09
9.1656232e-09
8.9691312e-09
9.0289957e-09
8.9790159e-09
8.9867964e-09
8.9774009e-09
8.9827493e-09
8.9877093e-09
8.9975969e-09
9.0097759e-09
9.0239827e-09
9.0386089e-09
9.0517404e-09
9.0608656e-09
9.0627954e-09
9.0557433e-09
9.0387405e-09
9.0123642e-09
8.9785534e-09
8.939958e-09
8.8993294e-09
8.8591403e-09
8.8213936e-09
8.7873339e-09
8.7572441e-09
8.730969e-09
8.7080408e-09
8.6879233e-09
8.6703354e-09
8.6549878e-09
8.641625e-09
8.6289866e-09
8.6173651e-09
8.61076e-09
8.607575e-09
8.6117019e-09
8.6165268e-09
8.6176298e-09
8.6005828e-09
8.5863067e-09
8.5782176e-09
8.5743281e-09
8.5727514e-09
8.5722271e-09
0.00037345852
0.00057265149
0.00029469724
1.686001e-06
1.1254664e-08
9.2976969e-09
9.1709272e-09
8.9851541e-09
9.0419607e-09
8.9956438e-09
9.0032516e-09
8.9960912e-09
9.002299e-09
9.0085483e-09
9.019467e-09
9.0326036e-09
9.0474595e-09
9.0622927e-09
9.0749949e-09
9.0827257e-09
9.08235e-09
9.0723417e-09
9.0519614e-09
9.0222511e-09
8.9854784e-09
8.9444745e-09
8.9020271e-09
8.8605964e-09
8.8221069e-09
8.7875502e-09
8.7571231e-09
8.7305209e-09
8.7073033e-09
8.6870344e-09
8.6693981e-09
8.6540544e-09
8.6406128e-09
8.6276458e-09
8.6164181e-09
8.6104681e-09
8.6079902e-09
8.613038e-09
8.6169817e-09
8.6177513e-09
8.5994743e-09
8.585617e-09
8.577862e-09
8.5741768e-09
8.5726967e-09
8.5722097e-09
0.00037126753
0.00054681422
0.00023857572
6.2169264e-07
1.068118e-08
9.3032901e-09
9.1773086e-09
9.0023018e-09
9.0559985e-09
9.0133269e-09
9.0218016e-09
9.0158229e-09
9.0229575e-09
9.030497e-09
9.0424481e-09
9.0565002e-09
9.0719132e-09
9.0867976e-09
9.0988175e-09
9.1047756e-09
9.1018095e-09
9.0885224e-09
9.0645738e-09
9.0314502e-09
8.9917327e-09
8.9483909e-09
8.9042337e-09
8.8617018e-09
8.8225296e-09
8.7875395e-09
8.7568492e-09
8.7299362e-09
8.7064624e-09
8.6860751e-09
8.6683921e-09
8.6530286e-09
8.6394665e-09
8.6261941e-09
8.6154698e-09
8.6101502e-09
8.6086727e-09
8.6144788e-09
8.6175237e-09
8.6177526e-09
8.5983327e-09
8.5849238e-09
8.5775102e-09
8.5740297e-09
8.5726443e-09
8.572193e-09
0.00036979984
0.00052098602
0.00018430624
2.4479888e-07
1.0350656e-08
9.3106931e-09
9.184779e-09
9.0205632e-09
9.071135e-09
9.0320927e-09
9.0413476e-09
9.0366675e-09
9.0447698e-09
9.0536001e-09
9.0665758e-09
9.0814855e-09
9.0973418e-09
9.1120916e-09
9.1231175e-09
9.1269113e-09
9.1210455e-09
9.1041709e-09
9.0764866e-09
9.0399025e-09
8.9972807e-09
8.9516918e-09
8.9059707e-09
8.8624558e-09
8.8226294e-09
8.7873653e-09
8.7564193e-09
8.7292177e-09
8.7055196e-09
8.6850494e-09
8.6673266e-09
8.6519168e-09
8.6381788e-09
8.6246513e-09
8.6145376e-09
8.6097372e-09
8.6095553e-09
8.6159372e-09
8.6183146e-09
8.6173106e-09
8.5971884e-09
8.5842305e-09
8.5771645e-09
8.5738878e-09
8.5725943e-09
8.5721771e-09
0.00036875069
0.0004920376
0.00013314313
1.0853533e-07
1.0152616e-08
9.3196401e-09
9.1934056e-09
9.039957e-09
9.0874156e-09
9.0519672e-09
9.0611147e-09
9.0586937e-09
9.0677861e-09
9.0779023e-09
9.0918846e-09
9.1075756e-09
9.1237383e-09
9.1381301e-09
9.1477641e-09
9.1490423e-09
9.1399076e-09
9.1191725e-09
9.0876133e-09
9.0475534e-09
9.002092e-09
8.9543818e-09
8.9072566e-09
8.8627759e-09
8.8225034e-09
8.7870007e-09
8.755837e-09
8.7283685e-09
8.7044769e-09
8.6839588e-09
8.6662071e-09
8.6507242e-09
8.6367442e-09
8.6230545e-09
8.6135966e-09
8.6092446e-09
8.6105393e-09
8.617344e-09
8.6194833e-09
8.6163295e-09
8.5960578e-09
8.583538e-09
8.5768276e-09
8.573752e-09
8.572547e-09
8.572162e-09
0.00036792565
0.00045868825
8.7190056e-05
5.5690012e-08
1.0030603e-08
9.3300167e-09
9.203227e-09
9.0605248e-09
9.1048913e-09
9.072975e-09
9.0818273e-09
9.0819448e-09
9.0920561e-09
9.1034506e-09
9.1184059e-09
9.1347795e-09
9.1510808e-09
9.1648312e-09
9.1726261e-09
9.1710582e-09
9.1582435e-09
9.1334088e-09
9.0978725e-09
9.0543538e-09
9.0061486e-09
8.956484e-09
8.9080401e-09
8.8627445e-09
8.8221337e-09
8.7864576e-09
8.755107e-09
8.7273939e-09
8.7033377e-09
8.6828036e-09
8.6650356e-09
8.6494508e-09
8.6351505e-09
8.6214505e-09
8.6126311e-09
8.6086786e-09
8.6116748e-09
8.6187748e-09
8.6208174e-09
8.6149484e-09
8.5949166e-09
8.5828491e-09
8.576502e-09
8.5736229e-09
8.5725026e-09
8.5721479e-09
0.00036715407
0.00042132888
5.1103533e-05
3.3347312e-08
9.9524727e-09
9.3417959e-09
9.2142886e-09
9.0823103e-09
9.1236135e-09
9.0951642e-09
9.1044834e-09
9.1064553e-09
9.1176362e-09
9.1302909e-09
9.1461674e-09
9.1630985e-09
9.1793322e-09
9.192092e-09
9.1975749e-09
9.1927884e-09
9.175912e-09
9.1467663e-09
9.1071891e-09
9.0602625e-09
9.0094521e-09
8.9580033e-09
8.9082693e-09
8.8624038e-09
8.8215264e-09
8.7857394e-09
8.7542345e-09
8.7263007e-09
8.7021072e-09
8.6815832e-09
8.6638105e-09
8.6480922e-09
8.6333971e-09
8.6198723e-09
8.6116606e-09
8.6080396e-09
8.6129272e-09
8.6202411e-09
8.6222232e-09
8.6132918e-09
8.5937348e-09
8.5821714e-09
8.5761901e-09
8.573501e-09
8.5724611e-09
8.5721346e-09
0.00036611145
0.00037947097
2.6546675e-05
2.2900986e-08
9.9004047e-09
9.3549796e-09
9.2266195e-09
9.1053244e-09
9.143631e-09
9.1186073e-09
9.1287029e-09
9.1322949e-09
9.1445877e-09
9.1584713e-09
9.1751909e-09
9.1925234e-09
9.2084366e-09
9.2197623e-09
9.2224822e-09
9.214052e-09
9.1927658e-09
9.1591331e-09
9.1154945e-09
9.065254e-09
9.0120208e-09
8.9588606e-09
8.9080941e-09
8.8617274e-09
8.8206909e-09
8.7848524e-09
8.7532249e-09
8.7250969e-09
8.700792e-09
8.6802976e-09
8.6625278e-09
8.6466402e-09
8.6315107e-09
8.6183182e-09
8.6107219e-09
8.6074511e-09
8.6142462e-09
8.6216877e-09
8.6236225e-09
8.6114585e-09
8.5925264e-09
8.5815134e-09
8.5758931e-09
8.5733864e-09
8.5724225e-09
8.5721224e-09
0.00036430344
0.00033280619
1.2194544e-05
1.7600497e-08
9.8642562e-09
9.3695603e-09
9.2402306e-09
9.1295765e-09
9.1650208e-09
9.1433743e-09
9.1539106e-09
9.1595549e-09
9.1729765e-09
9.1880334e-09
9.2054886e-09
9.2230293e-09
9.2382991e-09
9.247659e-09
9.2472281e-09
9.2346442e-09
9.2086555e-09
9.1704065e-09
9.1227311e-09
9.0693221e-09
9.0138526e-09
8.9590492e-09
8.9074813e-09
8.8607439e-09
8.8196358e-09
8.7838012e-09
8.7520829e-09
8.7237907e-09
8.6994003e-09
8.6789478e-09
8.6611809e-09
8.645083e-09
8.6295138e-09
8.616791e-09
8.6098455e-09
8.6070116e-09
8.6155369e-09
8.6230246e-09
8.6248542e-09
8.6095083e-09
8.5913189e-09
8.5808813e-09
8.575612e-09
8.5732793e-09
8.5723869e-09
8.572111e-09
0.00036144011
0.00027586968
5.2301589e-06
1.4763575e-08
9.8379246e-09
9.3855857e-09
9.2552005e-09
9.1551637e-09
9.1879077e-09
9.1695989e-09
9.1808487e-09
9.1883117e-09
9.2028597e-09
9.2190102e-09
9.2370591e-09
9.2545686e-09
9.2687898e-09
9.2756264e-09
9.2715913e-09
9.2543903e-09
9.2234347e-09
9.1804911e-09
9.1288605e-09
9.0724782e-09
9.014855e-09
8.9587303e-09
8.9064474e-09
8.8594615e-09
8.8183712e-09
8.7825901e-09
8.7508125e-09
8.72239e-09
8.6979402e-09
8.677536e-09
8.6597621e-09
8.6434023e-09
8.6274346e-09
8.6153137e-09
8.6090506e-09
8.6068481e-09
8.6166873e-09
8.6241317e-09
8.6256862e-09
8.6075048e-09
8.5901401e-09
8.5802781e-09