/*--------------------------------*- C++ -*----------------------------------*\
| =========                 |                                                 |
| \\      /  F ield         | OpenFOAM: The Open Source CFD Toolbox           |
|  \\    /   O peration     | Version:  2306                                  |
|   \\  /    A nd           | Website:  www.openfoam.com                      |
|    \\/     M anipulation  |                                                 |
\*---------------------------------------------------------------------------*/
FoamFile
{
    version     2.0;
    format      ascii;
    arch        "LSB;label=32;scalar=64";
    class       volScalarField;
    location    "0.007";
    object      nut;
}
// * * * * * * * * * * * * * * * * * * * * * * * * * * * * * * * * * * * * * //

dimensions      [0 2 -1 0 0 0 0];

internalField   nonuniform List<scalar> 
20000
(
0.00038725546
0.00096346246
0.0012728766
0.0013655308
0.0011886297
0.0006224348
2.5375334e-05
1.0327514e-08
7.7256669e-09
7.5996079e-09
7.5947258e-09
7.5357121e-09
7.5192215e-09
7.4907059e-09
7.4756862e-09
7.4595977e-09
7.448804e-09
7.4398206e-09
7.4338156e-09
7.4299132e-09
7.4280842e-09
7.4280101e-09
7.4293548e-09
7.4316592e-09
7.4342941e-09
7.4366658e-09
7.4382921e-09
7.4389674e-09
7.4385111e-09
7.436734e-09
7.4335667e-09
7.4293666e-09
7.4249337e-09
7.4206148e-09
7.415576e-09
7.4093669e-09
7.40219e-09
7.3949858e-09
7.3880402e-09
7.3791297e-09
7.3718429e-09
7.3698427e-09
7.3718045e-09
7.3711354e-09
7.3700231e-09
7.3622607e-09
7.3552105e-09
7.351429e-09
7.3498109e-09
7.3492661e-09
0.00038474349
0.00095065095
0.0012479071
0.0013272169
0.0011367061
0.00054759815
1.1254115e-05
9.2172441e-09
7.7182116e-09
7.594175e-09
7.5913421e-09
7.5332358e-09
7.5175795e-09
7.4898811e-09
7.475505e-09
7.4600605e-09
7.4498132e-09
7.4413472e-09
7.4357981e-09
7.4323139e-09
7.4308477e-09
7.4310755e-09
7.4326481e-09
7.4350899e-09
7.4377488e-09
7.4400055e-09
7.4413681e-09
7.4416469e-09
7.4406993e-09
7.4384568e-09
7.4349138e-09
7.4303755e-09
7.4255544e-09
7.4208614e-09
7.4156848e-09
7.409466e-09
7.4022627e-09
7.3951698e-09
7.3882948e-09
7.3791176e-09
7.3716265e-09
7.3690998e-09
7.3720832e-09
7.3714098e-09
7.369911e-09
7.3623169e-09
7.3552971e-09
7.3514942e-09
7.3498463e-09
7.3492748e-09
0.00038249834
0.00093867169
0.0012235619
0.0012881976
0.0010828335
0.00047301623
4.3250737e-06
8.5599629e-09
7.7113771e-09
7.5891664e-09
7.5871667e-09
7.5307791e-09
7.5159082e-09
7.4890995e-09
7.4753711e-09
7.4606085e-09
7.4509342e-09
7.4430263e-09
7.4379731e-09
7.4349492e-09
7.4338955e-09
7.4344807e-09
7.436339e-09
7.4389722e-09
7.4417085e-09
7.4438967e-09
7.4450336e-09
7.4449309e-09
7.4434771e-09
7.4407401e-09
7.4367718e-09
7.4318546e-09
7.4266198e-09
7.421505e-09
7.4161037e-09
7.4098204e-09
7.4025483e-09
7.395492e-09
7.3886573e-09
7.3792886e-09
7.3716098e-09
7.3688141e-09
7.3721281e-09
7.3716708e-09
7.3698355e-09
7.3622711e-09
7.3553718e-09
7.3515482e-09
7.3498825e-09
7.3492877e-09
0.00038029798
0.00092698612
0.0011997625
0.0012490068
0.0010284576
0.00040315057
1.5919006e-06
8.1742113e-09
7.7050867e-09
7.5845223e-09
7.5837697e-09
7.5287172e-09
7.5146067e-09
7.4886835e-09
7.475584e-09
7.461496e-09
7.4523819e-09
7.4450205e-09
7.4404489e-09
7.437871e-09
7.4372092e-09
7.4381255e-09
7.4402334e-09
7.4430129e-09
7.4457698e-09
7.4478287e-09
7.4486857e-09
7.4481468e-09
7.4461417e-09
7.442889e-09
7.4384731e-09
7.4331814e-09
7.4275544e-09
7.4220313e-09
7.4163936e-09
7.4100443e-09
7.4027186e-09
7.3956856e-09
7.3888899e-09
7.3794168e-09
7.3716647e-09
7.3686329e-09
7.372003e-09
7.3718054e-09
7.3699078e-09
7.3622467e-09
7.3554444e-09
7.3516046e-09
7.3499125e-09
7.3492994e-09
0.00037818257
0.00091558305
0.0011766823
0.0012116913
0.00097256968
0.0003372974
5.8711845e-07
7.943602e-09
7.7000682e-09
7.5803103e-09
7.5805077e-09
7.5269708e-09
7.513596e-09
7.4885616e-09
7.4760817e-09
7.4626688e-09
7.4541149e-09
7.4473042e-09
7.4432193e-09
7.4410923e-09
7.4408279e-09
7.4420778e-09
7.4444327e-09
7.4473482e-09
7.4501069e-09
7.4520124e-09
7.4525676e-09
7.4515512e-09
7.4489713e-09
7.4451614e-09
7.4402676e-09
7.4345901e-09
7.4285758e-09
7.4226397e-09
7.4167348e-09
7.4102986e-09
7.4029159e-09
7.3958827e-09
7.3891158e-09
7.3796091e-09
7.3718826e-09
7.368628e-09
7.3717918e-09
7.3718771e-09
7.3702084e-09
7.3622352e-09
7.3555028e-09
7.3516526e-09
7.3499398e-09
7.3493118e-09
0.0003760872
0.00090413298
0.00115371
0.0011729615
0.00091428863
0.00027574295
2.2828888e-07
7.8053092e-09
7.6956978e-09
7.576527e-09
7.5776853e-09
7.5255782e-09
7.5129079e-09
7.4887627e-09
7.4768903e-09
7.4641507e-09
7.4561541e-09
7.449893e-09
7.446294e-09
7.444617e-09
7.4447465e-09
7.4463223e-09
7.4489092e-09
7.4519359e-09
7.454661e-09
7.4563751e-09
7.456586e-09
7.4550432e-09
7.4518673e-09
7.4474581e-09
7.442054e-09
7.4359798e-09
7.429592e-09
7.4232498e-09
7.4170579e-09
7.410523e-09
7.4030915e-09
7.3960461e-09
7.3893049e-09
7.3798293e-09
7.3722086e-09
7.3687129e-09
7.3715835e-09
7.3719243e-09
7.370587e-09
7.3622744e-09
7.3555465e-09
7.3516958e-09
7.3499659e-09
7.3493232e-09
0.00037400443
0.00089246192
0.0011296389
0.0011339372
0.00085362579
0.00021863806
9.8212494e-08
7.7211627e-09
7.6918243e-09
7.5731724e-09
7.5751628e-09
7.5245293e-09
7.5125369e-09
7.4892837e-09
7.478009e-09
7.4659424e-09
7.4585014e-09
7.4527911e-09
7.4496792e-09
7.4484527e-09
7.4489749e-09
7.4508706e-09
7.4536758e-09
7.4567896e-09
7.4594468e-09
7.4609356e-09
7.4607554e-09
7.4586402e-09
7.4548475e-09
7.4498013e-09
7.4438556e-09
7.4373682e-09
7.430615e-09
7.4238738e-09
7.4173749e-09
7.410728e-09
7.4032574e-09
7.396191e-09
7.3894694e-09
7.3800747e-09
7.37261e-09
7.3688614e-09
7.3714593e-09
7.3719413e-09
7.3708515e-09
7.362364e-09
7.3555823e-09
7.3517358e-09
7.3499881e-09
7.3493328e-09
0.00037201687
0.00088099555
0.0011058575
0.0010948465
0.00079037222
0.00016746634
4.8357503e-08
7.6685283e-09
7.6885318e-09
7.5702271e-09
7.5729946e-09
7.5238246e-09
7.512487e-09
7.4901295e-09
7.4794453e-09
7.4680519e-09
7.4611655e-09
7.4560064e-09
7.4533828e-09
7.452607e-09
7.4535193e-09
7.4557268e-09
7.4587338e-09
7.4619064e-09
7.4644573e-09
7.4656812e-09
7.4650551e-09
7.4623306e-09
7.4578908e-09
7.4521749e-09
7.4456578e-09
7.4387395e-09
7.4316282e-09
7.4245008e-09
7.4176762e-09
7.4109005e-09
7.4034003e-09
7.3963094e-09
7.3895946e-09
7.3803172e-09
7.3730211e-09
7.3690643e-09
7.3713859e-09
7.3719559e-09
7.3710236e-09
7.3625391e-09
7.3556276e-09
7.3517708e-09
7.3500068e-09
7.3493429e-09
0.00037010029
0.00086946403
0.0010819621
0.0010557234
0.0007247518
0.0001193545
2.7372693e-08
7.6352931e-09
7.6810559e-09
7.5676797e-09
7.5711529e-09
7.5234679e-09
7.5127624e-09
7.4913051e-09
7.4812042e-09
7.4704848e-09
7.4641523e-09
7.4595459e-09
7.457412e-09
7.457087e-09
7.4583864e-09
7.4608963e-09
7.4640861e-09
7.4672862e-09
7.4696901e-09
7.4706051e-09
7.4694693e-09
7.4661143e-09
7.4609845e-09
7.4545728e-09
7.4474572e-09
7.4400896e-09
7.4326243e-09
7.4251262e-09
7.4179664e-09
7.411042e-09
7.4035181e-09
7.3963997e-09
7.3896693e-09
7.3805303e-09
7.3734104e-09
7.3693387e-09
7.3713811e-09
7.3719901e-09
7.3711341e-09
7.3627316e-09
7.3556983e-09
7.3518079e-09
7.3500262e-09
7.3493523e-09
0.00036820506
0.00085771632
0.0010576456
0.0010160786
0.00065706399
7.6383055e-05
1.785943e-08
7.6137063e-09
7.6765828e-09
7.5655746e-09
7.5696643e-09
7.5234651e-09
7.5133696e-09
7.4928151e-09
7.4832921e-09
7.4732472e-09
7.467469e-09
7.4634167e-09
7.4617744e-09
7.4619002e-09
7.4635826e-09
7.4663839e-09
7.4697349e-09
7.4729275e-09
7.4751436e-09
7.4756952e-09
7.4739866e-09
7.4699751e-09
7.4641171e-09
7.456985e-09
7.4492473e-09
7.441412e-09
7.4335938e-09
7.4257424e-09
7.4182432e-09
7.411151e-09
7.4036117e-09
7.3964629e-09
7.3896963e-09
7.3806997e-09
7.3737644e-09
7.3696932e-09
7.3714936e-09
7.3720556e-09
7.3711945e-09
7.3628575e-09
7.3558087e-09
7.3518542e-09
7.3500471e-09
7.3493616e-09
0.00036631676
0.00084563813
0.0010322961
0.00097392345
0.00058809256
4.1802817e-05
1.3221614e-08
7.5995066e-09
7.6726469e-09
7.5638972e-09
7.5685299e-09
7.5238193e-09
7.5143119e-09
7.4946638e-09
7.485714e-09
7.4763456e-09
7.4711229e-09
7.4676269e-09
7.4664782e-09
7.4670543e-09
7.4691145e-09
7.4721937e-09
7.4756805e-09
7.4788272e-09
7.4808133e-09
7.4809366e-09
7.4785967e-09
7.4738979e-09
7.467276e-09
7.4594016e-09
7.4510222e-09
7.442702e-09
7.4345287e-09
7.4263415e-09
7.4185066e-09
7.4112279e-09
7.4036776e-09
7.3964992e-09
7.3896755e-09
7.380815e-09
7.374077e-09
7.3700949e-09
7.3716932e-09
7.3721547e-09
7.3712247e-09
7.3629388e-09
7.3559026e-09
7.3518992e-09
7.3500633e-09
7.3493706e-09
0.00036444594
0.00083338892
0.0010060931
0.00093236773
0.00051904426
1.9222955e-05
1.0825993e-08
7.589978e-09
7.6689838e-09
7.5626392e-09
7.5677627e-09
7.5245303e-09
7.5155922e-09
7.496855e-09
7.4884771e-09
7.4797876e-09
7.4751226e-09
7.4721851e-09
7.4715321e-09
7.4725573e-09
7.4749887e-09
7.4783299e-09
7.4819229e-09
7.4849821e-09
7.4866898e-09
7.48631e-09
7.4832975e-09
7.4778633e-09
7.4704477e-09
7.4618117e-09
7.4527754e-09
7.4439552e-09
7.4354219e-09
7.4269148e-09
7.4187543e-09
7.4112736e-09
7.4037137e-09
7.3965096e-09
7.3896026e-09
7.3808659e-09
7.3743237e-09
7.3704885e-09
7.3719045e-09
7.3722809e-09
7.3712432e-09
7.3629668e-09
7.3559362e-09
7.3519288e-09
7.3500786e-09
7.3493776e-09
0.00036263034
0.00082118783
0.00097986027
0.00089063166
0.00045050344
7.5913045e-06
9.5302201e-09
7.583454e-09
7.6656517e-09
7.5617941e-09
7.5673618e-09
7.5256016e-09
7.5172163e-09
7.4993969e-09
7.49159e-09
7.4835822e-09
7.4794771e-09
7.4771005e-09
7.4769446e-09
7.4784169e-09
7.4812113e-09
7.4847953e-09
7.4884607e-09
7.4913873e-09
7.4927619e-09
7.4917991e-09
7.4880772e-09
7.4818545e-09
7.4736182e-09
7.4642042e-09
7.4545002e-09
7.4451682e-09
7.4362677e-09
7.4274534e-09
7.4189829e-09
7.4112892e-09
7.4037171e-09
7.396494e-09
7.3894721e-09
7.3808583e-09
7.3744974e-09
7.3708269e-09
7.3721209e-09
7.372422e-09
7.3712687e-09
7.3629534e-09
7.3559368e-09
7.351936e-09
7.3500873e-09
7.3493821e-09
0.00036083902
0.00080904537
0.0009541122
0.00084801922
0.00038371864
2.7322552e-06
8.8120428e-09
7.5788755e-09
7.6626594e-09
7.5613708e-09
7.567344e-09
7.5270521e-09
7.5192028e-09
7.5023031e-09
7.4950655e-09
7.4877404e-09
7.4841973e-09
7.4823831e-09
7.4827256e-09
7.4846417e-09
7.4877884e-09
7.4915921e-09
7.4952921e-09
7.4980405e-09
7.499013e-09
7.4973886e-09
7.4929178e-09
7.4858556e-09
7.4767723e-09
7.4665676e-09
7.4561895e-09
7.4463377e-09
7.4370621e-09
7.4279489e-09
7.4191876e-09
7.411276e-09
7.4036854e-09
7.3964519e-09
7.3893004e-09
7.3808029e-09
7.3746096e-09
7.3710912e-09
7.3723232e-09
7.3725794e-09
7.3713003e-09
7.3629286e-09
7.3559247e-09
7.3519335e-09
7.3500889e-09
7.3493848e-09
0.00035897735
0.00079647577
0.00092743748
0.00080366897
0.0003205439
9.573764e-07
8.4072799e-09
7.5757376e-09
7.6600572e-09
7.5614092e-09
7.5676903e-09
7.5288962e-09
7.5215629e-09
7.5055834e-09
7.498913e-09
7.4922717e-09
7.4892927e-09
7.488043e-09
7.4888842e-09
7.4912395e-09
7.4947251e-09
7.498721e-09
7.5024134e-09
7.5049339e-09
7.5054244e-09
7.503068e-09
7.4977983e-09
7.4898502e-09
7.4798955e-09
7.4688903e-09
7.4578359e-09
7.4474609e-09
7.4378027e-09
7.4283944e-09
7.4193618e-09
7.4112345e-09
7.4036166e-09
7.3963832e-09
7.3890974e-09
7.3806988e-09
7.3746779e-09
7.3712875e-09
7.372506e-09
7.3727583e-09
7.3713348e-09
7.362893e-09
7.355901e-09
7.3519243e-09
7.3500872e-09
7.3493862e-09
0.00035707081
0.00078366125
0.00090009841
0.00075713568
0.00026127034
3.4596248e-07
8.1773947e-09
7.5736814e-09
7.6578419e-09
7.5619024e-09
7.5683606e-09
7.5311325e-09
7.524305e-09
7.5092458e-09
7.5031424e-09
7.4971855e-09
7.4947738e-09
7.4940899e-09
7.4954295e-09
7.4982179e-09
7.5020261e-09
7.5061814e-09
7.5098197e-09
7.5120548e-09
7.5119685e-09
7.508835e-09
7.5026939e-09
7.4938207e-09
7.4829724e-09
7.4711605e-09
7.4594318e-09
7.4485346e-09
7.4384884e-09
7.4287844e-09
7.4194986e-09
7.4111634e-09
7.4035094e-09
7.3962884e-09
7.3888586e-09
7.38057e-09
7.3747161e-09
7.3714377e-09
7.3726897e-09
7.3729555e-09
7.3713731e-09
7.3628364e-09
7.3558618e-09
7.3519068e-09
7.3500819e-09
7.3493867e-09
0.00035512122
0.00077070692
0.00087214712
0.00070927582
0.00020556279
1.3679309e-07
8.0435901e-09
7.5724699e-09
7.6560172e-09
7.5628481e-09
7.5693499e-09
7.5337652e-09
7.5274387e-09
7.5133001e-09
7.5077633e-09
7.5024924e-09
7.5006507e-09
7.5005339e-09
7.502371e-09
7.5055846e-09
7.509695e-09
7.5139721e-09
7.5175053e-09
7.5193882e-09
7.5186297e-09
7.5146659e-09
7.5075857e-09
7.497749e-09
7.4859883e-09
7.4733667e-09
7.4609693e-09
7.4495556e-09
7.4391192e-09
7.4291161e-09
7.4195906e-09
7.4110603e-09
7.4033642e-09
7.3961644e-09
7.3885855e-09
7.380416e-09
7.3747292e-09
7.3715628e-09
7.3728857e-09
7.3731703e-09
7.3714141e-09
7.3627601e-09
7.3558074e-09
7.3518804e-09
7.3500731e-09
7.3493866e-09
0.0003531971
0.00075789077
0.00084367694
0.00065957132
0.00015344705
6.1856489e-08
7.9635175e-09
7.5720142e-09
7.6545968e-09
7.5642588e-09
7.5707542e-09
7.5368025e-09
7.5309712e-09
7.5177527e-09
7.5127844e-09
7.5082007e-09
7.5069333e-09
7.507385e-09
7.5097183e-09
7.5133468e-09
7.5177346e-09
7.5220911e-09
7.5254658e-09
7.5269111e-09
7.5253894e-09
7.5205383e-09
7.5124529e-09
7.5016163e-09
7.4889282e-09
7.475498e-09
7.462441e-09
7.4505199e-09
7.4396954e-09
7.4293893e-09
7.4196319e-09
7.4109214e-09
7.4031827e-09
7.3959965e-09
7.3882787e-09
7.3802338e-09
7.3747193e-09
7.3716804e-09
7.3730936e-09
7.3734027e-09
7.371456e-09
7.3626614e-09
7.3557376e-09
7.3518457e-09
7.3500606e-09
7.3493852e-09
0.00035136767
0.00074551768
0.00081546699
0.00060723338
0.00010752549
3.2797335e-08
7.9144363e-09
7.572237e-09
7.6535921e-09
7.5661359e-09
7.572743e-09
7.5402606e-09
7.5349084e-09
7.5226106e-09
7.5182137e-09
7.5143205e-09
7.5136324e-09
7.5146543e-09
7.5174812e-09
7.5215112e-09
7.5261461e-09
7.5305341e-09
7.5336891e-09
7.5345983e-09
7.5322351e-09
7.5264237e-09
7.5172743e-09
7.5054044e-09
7.4917777e-09
7.4775437e-09
7.4638393e-09
7.451423e-09
7.4402172e-09
7.4296063e-09
7.4196182e-09
7.4107432e-09
7.4029636e-09
7.3957915e-09
7.387941e-09
7.3800226e-09
7.3746904e-09
7.3717864e-09
7.3733133e-09
7.3736538e-09
7.3714938e-09
7.3625393e-09
7.3556523e-09
7.3518026e-09
7.3500445e-09
7.3493826e-09
0.00034964767
0.0007335522
0.00079079408
0.00055234402
6.6548463e-05
2.0199834e-08
7.8833154e-09
7.5730976e-09
7.6529971e-09
7.5684716e-09
7.5753666e-09
7.5441497e-09
7.5392534e-09
7.5278791e-09
7.5240604e-09
7.520862e-09
7.5207596e-09
7.5223532e-09
7.5256695e-09
7.5300838e-09
7.5349296e-09
7.5392953e-09
7.5421599e-09
7.5424195e-09
7.5391549e-09
7.5322925e-09
7.5220273e-09
7.5090943e-09
7.4945226e-09
7.4794942e-09
7.4651574e-09
7.4522602e-09
7.4406841e-09
7.4297707e-09
7.4195494e-09
7.4105238e-09
7.4026939e-09
7.3955512e-09
7.3875736e-09
7.3797802e-09
7.374648e-09
7.3718816e-09
7.3735508e-09
7.3739231e-09
7.3715196e-09
7.3623927e-09
7.3555515e-09
7.3517513e-09
7.3500251e-09
7.3493786e-09
0.0003479501
0.00072113511
0.00076328666
0.00049464677
3.5195291e-05
1.4324808e-08
7.8629806e-09
7.5745376e-09
7.6527975e-09
7.5712485e-09
7.5783951e-09
7.5484677e-09
7.5440146e-09
7.533569e-09
7.530337e-09
7.5278388e-09
7.5283282e-09
7.530494e-09
7.534293e-09
7.5390696e-09
7.544084e-09
7.5483675e-09
7.5508579e-09
7.5503527e-09
7.5461176e-09
7.5381201e-09
7.5266893e-09
7.5126683e-09
7.4971499e-09
7.4813405e-09
7.4663893e-09
7.4530265e-09
7.4410945e-09
7.4298857e-09
7.4194317e-09
7.4102587e-09
7.402366e-09
7.3952641e-09
7.3871766e-09
7.3795046e-09
7.374594e-09
7.3719793e-09
7.3738101e-09
7.3742091e-09
7.3715157e-09
7.3622209e-09
7.3554354e-09
7.3516922e-09
7.3500024e-09
7.3493734e-09
0.00034639391
0.00070889883
0.00073659001
0.00043547613
1.5795796e-05
1.1393211e-08
7.8491361e-09
7.5765306e-09
7.6530106e-09
7.57447e-09
7.5814663e-09
7.5532022e-09
7.5492111e-09
7.5396967e-09
7.5370604e-09
7.5352663e-09
7.5363527e-09
7.5390894e-09
7.5433612e-09
7.5484725e-09
7.5536069e-09
7.5577441e-09
7.5597529e-09
7.5583749e-09
7.5530918e-09
7.5438795e-09
7.5312367e-09
7.516108e-09
7.4996465e-09
7.4830744e-09
7.4675296e-09
7.4537178e-09
7.4414448e-09
7.4299545e-09
7.4192774e-09
7.4099333e-09
7.4019949e-09
7.3949252e-09
7.3867499e-09
7.3791943e-09
7.3745236e-09
7.3720853e-09
7.3740923e-09
7.3745135e-09
7.3714844e-09
7.3620238e-09
7.3553044e-09
7.3516258e-09
7.3499767e-09
7.349367e-09
0.00034493731
0.0006965535
0.00070903463
0.00037566901
6.154004e-06
9.8485135e-09
7.8390436e-09
7.5791007e-09
7.6536609e-09
7.5781627e-09
7.5844891e-09
7.5583519e-09
7.5548644e-09
7.5462809e-09
7.5442472e-09
7.5431599e-09
7.5448476e-09
7.548152e-09
7.5528827e-09
7.5582945e-09
7.5634935e-09
7.5674084e-09
7.5688112e-09
7.5664716e-09
7.56004e-09
7.5495431e-09
7.535647e-09
7.519397e-09
7.5020012e-09
7.484689e-09
7.4685745e-09
7.4543303e-09
7.4417292e-09
7.4299819e-09
7.4190942e-09
7.4095655e-09
7.4015702e-09
7.3945286e-09
7.3862943e-09
7.378853e-09
7.3744278e-09
7.3722032e-09
7.3743994e-09
7.3748391e-09
7.3714322e-09
7.3618019e-09
7.3551589e-09
7.3515525e-09
7.3499483e-09
7.3493596e-09
0.00034338398
0.00068295637
0.00068067335
0.00031795394
2.2286764e-06
9.0096617e-09
7.8312743e-09
7.5822791e-09
7.6548038e-09
7.5823663e-09
7.5881445e-09
7.5639577e-09
7.5609944e-09
7.5533388e-09
7.5519144e-09
7.5515358e-09
7.5538278e-09
7.5576944e-09
7.5628651e-09
7.5685358e-09
7.5737362e-09
7.57734e-09
7.5779996e-09
7.5746153e-09
7.5669266e-09
7.5550815e-09
7.539897e-09
7.5225185e-09
7.5042031e-09
7.4861781e-09
7.4695214e-09
7.4548599e-09
7.441943e-09
7.4299733e-09
7.4188696e-09
7.4091744e-09
7.4010969e-09
7.3940698e-09
7.3858106e-09
7.3784922e-09
7.3743132e-09
7.3723369e-09
7.3747342e-09
7.375186e-09
7.3713519e-09
7.3615562e-09
7.3549996e-09
7.3514731e-09
7.3499175e-09
7.3493511e-09
0.00034173342
0.00066827225
0.00065079078
0.00026340946
7.9406277e-07
8.5377959e-09
7.8252858e-09
7.5861174e-09
7.6564486e-09
7.5870966e-09
7.5932729e-09
7.5700997e-09
7.5676108e-09
7.560883e-09
7.560076e-09
7.5604083e-09
7.5633074e-09
7.5677284e-09
7.5733147e-09
7.5791954e-09
7.5843266e-09
7.5875132e-09
7.5872872e-09
7.5827682e-09
7.5737188e-09
7.5604662e-09
7.5439655e-09
7.5254582e-09
7.5062429e-09
7.4875372e-09
7.470368e-09
7.4553037e-09
7.4420866e-09
7.4299219e-09
7.4186301e-09
7.4087661e-09
7.4005829e-09
7.3935465e-09
7.3852974e-09
7.3781275e-09
7.3741821e-09
7.3724929e-09
7.375099e-09
7.375554e-09
7.3712105e-09
7.3612882e-09
7.354827e-09
7.3513881e-09
7.3498845e-09
7.3493418e-09
0.00033985297
0.00065206423
0.00061832389
0.00021143223
2.9608304e-07
8.269039e-09
7.8221557e-09
7.5905587e-09
7.658598e-09
7.5923488e-09
7.5992847e-09
7.5768057e-09
7.5747279e-09
7.5689286e-09
7.5687485e-09
7.5697941e-09
7.5733017e-09
7.5782653e-09
7.5842359e-09
7.5902705e-09
7.5952546e-09
7.5978869e-09
7.5966468e-09
7.5908864e-09
7.5803809e-09
7.565667e-09
7.5478308e-09
7.5282018e-09
7.5081127e-09
7.4887622e-09
7.4711113e-09
7.4556621e-09
7.4421629e-09
7.4297934e-09
7.4183798e-09
7.4083554e-09
7.4000419e-09
7.3929591e-09
7.3847487e-09
7.3777712e-09
7.3740246e-09
7.3726771e-09
7.3754946e-09
7.3759427e-09
7.3710014e-09
7.3609994e-09
7.3546418e-09
7.3512981e-09
7.3498498e-09
7.3493317e-09
0.00033766503
0.00063409932
0.00058002775
0.00016203588
1.2218356e-07
8.1165145e-09
7.8185979e-09
7.5956062e-09
7.6612616e-09
7.5981268e-09
7.604901e-09
7.5839961e-09
7.5823609e-09
7.5774904e-09
7.5779487e-09
7.5797098e-09
7.583826e-09
7.5893161e-09
7.595632e-09
7.6017553e-09
7.6064963e-09
7.6084165e-09
7.606061e-09
7.5989213e-09
7.5868768e-09
7.5706559e-09
7.5514737e-09
7.5307378e-09
7.5098063e-09
7.4898494e-09
7.4717498e-09
7.4559393e-09
7.4421648e-09
7.4296091e-09
7.4181054e-09
7.4079505e-09
7.3994902e-09
7.392313e-09
7.3841547e-09
7.3774205e-09
7.3738554e-09
7.3728877e-09
7.3759195e-09
7.3763518e-09
7.3707187e-09
7.36069e-09
7.3544449e-09
7.3512041e-09
7.3498136e-09
7.349321e-09
0.00033527843
0.00061509303
0.00053733617
0.00011653487
5.7972871e-08
8.0286009e-09
7.8155182e-09
7.6012537e-09
7.6644403e-09
7.6044187e-09
7.6098781e-09
7.5916075e-09
7.5905268e-09
7.5865854e-09
7.5876941e-09
7.5901735e-09
7.5948955e-09
7.60089e-09
7.607503e-09
7.6136408e-09
7.618025e-09
7.6190667e-09
7.6154816e-09
7.6068305e-09
7.5931694e-09
7.5754048e-09
7.5548755e-09
7.5330557e-09
7.5113189e-09
7.4907955e-09
7.4722837e-09
7.4561406e-09
7.4420638e-09
7.4293625e-09
7.417799e-09
7.4075513e-09
7.3989426e-09
7.3916184e-09
7.3835086e-09
7.3770741e-09
7.3736775e-09
7.3731289e-09
7.3763676e-09
7.3767797e-09
7.370361e-09
7.3603571e-09
7.3542376e-09
7.3511068e-09
7.3497765e-09
7.3493098e-09
0.00033270551
0.00059537346
0.00049063504
7.7962442e-05
3.2128654e-08
7.9776472e-09
7.8128772e-09
7.6075009e-09
7.6681612e-09
7.611239e-09
7.6160757e-09
7.5997176e-09
7.5992441e-09
7.5962328e-09
7.5980053e-09
7.6012043e-09
7.6065263e-09
7.6129955e-09
7.6198486e-09
7.6259138e-09
7.6298039e-09
7.6297967e-09
7.62486e-09
7.6145697e-09
7.5992216e-09
7.5798874e-09
7.5580198e-09
7.5351472e-09
7.5126465e-09
7.4915988e-09
7.472715e-09
7.4562624e-09
7.4418884e-09
7.4290426e-09
7.4174461e-09
7.407149e-09
7.3984078e-09
7.3908895e-09
7.3828146e-09
7.376731e-09
7.3734951e-09
7.3734155e-09
7.3768247e-09
7.3772195e-09
7.3699326e-09
7.359996e-09
7.3540215e-09
7.3510074e-09
7.3497388e-09
7.3492983e-09
0.00032989783
0.00057487337
0.00044412018
4.5725822e-05
2.0490981e-08
7.9480116e-09
7.8107518e-09
7.614367e-09
7.672437e-09
7.6186138e-09
7.6241751e-09
7.6084669e-09
7.6085296e-09
7.6064534e-09
7.6089037e-09
7.6128227e-09
7.6187334e-09
7.6256389e-09
7.6326653e-09
7.6385597e-09
7.6417789e-09
7.6405751e-09
7.6341375e-09
7.6220939e-09
7.6049969e-09
7.5840783e-09
7.5608919e-09
7.5370059e-09
7.513786e-09
7.49226e-09
7.4730475e-09
7.4562829e-09
7.4416473e-09
7.4286525e-09
7.4170353e-09
7.4067278e-09
7.3978842e-09
7.3901378e-09
7.382093e-09
7.3763944e-09
7.3733088e-09
7.3737666e-09
7.3772676e-09
7.3776593e-09
7.3694344e-09
7.3596081e-09
7.3537987e-09
7.3509066e-09
7.3497008e-09
7.3492866e-09
0.00032675934
0.00055214745
0.00039691009
2.300905e-05
1.4889869e-08
7.9311803e-09
7.8091747e-09
7.6218452e-09
7.6772801e-09
7.6265595e-09
7.6328021e-09
7.617853e-09
7.6184087e-09
7.6172729e-09
7.6204138e-09
7.6250496e-09
7.6315304e-09
7.6388237e-09
7.6459445e-09
7.6515443e-09
7.6538985e-09
7.6513653e-09
7.6432539e-09
7.6293565e-09
7.6104603e-09
7.5879553e-09
7.5634802e-09
7.5386259e-09
7.5147358e-09
7.4927833e-09
7.4732808e-09
7.4562059e-09
7.4413344e-09
7.4281944e-09
7.4165591e-09
7.4062691e-09
7.3973583e-09
7.3893654e-09
7.3813751e-09
7.3760737e-09
7.3731501e-09
7.3742052e-09
7.3776656e-09
7.3780751e-09
7.3688676e-09
7.3591973e-09
7.3535714e-09
7.3508053e-09
7.3496631e-09
7.3492749e-09
0.00032388021
0.0005311748
0.00034868002
9.9948857e-06
1.2017308e-08
7.9219977e-09
7.8081816e-09
7.6299371e-09
7.6827124e-09
7.6350864e-09
7.6409094e-09
7.6278083e-09
7.6289137e-09
7.6287191e-09
7.632561e-09
7.6379051e-09
7.6449287e-09
7.6525501e-09
7.6596737e-09
7.6648307e-09
7.6661135e-09
7.6621033e-09
7.6521551e-09
7.6363109e-09
7.6155784e-09
7.5914977e-09
7.5657743e-09
7.5400022e-09
7.5155e-09
7.4931766e-09
7.4733955e-09
7.4560606e-09
7.4409551e-09
7.4276753e-09
7.4160169e-09
7.4057568e-09
7.396807e-09
7.38857e-09
7.3806777e-09
7.3757853e-09
7.3730696e-09
7.3747592e-09
7.377994e-09
7.378424e-09
7.368238e-09
7.3587689e-09
7.3533415e-09
7.3507045e-09
7.3496258e-09
7.3492632e-09
0.00032116116
0.00051037327
0.00029995627
3.8954349e-06
1.0455652e-08
7.9174728e-09
7.80783e-09
7.6386867e-09
7.6887806e-09
7.6442173e-09
7.6489964e-09
7.6383799e-09
7.6400761e-09
7.6408205e-09
7.64537e-09
7.651408e-09
7.6589377e-09
7.6668166e-09
7.6738339e-09
7.6783645e-09
7.6783744e-09
7.6727217e-09
7.6607848e-09
7.6429115e-09
7.6203212e-09
7.5946887e-09
7.5677642e-09
7.5411333e-09
7.516089e-09
7.4934409e-09
7.473382e-09
7.4558298e-09
7.4405098e-09
7.4271029e-09
7.4154135e-09
7.4051809e-09
7.396203e-09
7.3877347e-09
7.3799997e-09
7.3755247e-09
7.3731194e-09
7.3754523e-09
7.3782593e-09
7.3786545e-09
7.3675555e-09
7.3583288e-09
7.353111e-09
7.350605e-09
7.3495895e-09
7.3492518e-09
0.00031865533
0.00048883014
0.00025129797
1.4354934e-06
9.584215e-09
7.9159266e-09
7.8081885e-09
7.6481665e-09
7.6955344e-09
7.6540027e-09
7.658502e-09
7.6496557e-09
7.6519231e-09
7.6536039e-09
7.6588641e-09
7.6655746e-09
7.6735629e-09
7.6816154e-09
7.6883954e-09
7.6920716e-09
7.6906455e-09
7.6831421e-09
7.6690843e-09
7.6491146e-09
7.6246607e-09
7.5975121e-09
7.5694416e-09
7.5420271e-09
7.5165133e-09
7.4935499e-09
7.4732761e-09
7.4555129e-09
7.4400003e-09
7.4264841e-09
7.4147579e-09
7.4045389e-09
7.395523e-09
7.3868379e-09
7.3793312e-09
7.3752736e-09
7.373351e-09
7.3762742e-09
7.3785196e-09
7.3787083e-09
7.3668348e-09
7.3578825e-09
7.3528814e-09
7.3505074e-09
7.3495543e-09
7.3492406e-09
0.00031657703
0.00046649306
0.0002032896
5.2901803e-07
9.090944e-09
7.916327e-09
7.8092634e-09
7.6583982e-09
7.7029943e-09
7.664474e-09
7.6695715e-09
7.6615924e-09
7.6644817e-09
7.6670943e-09
7.6730651e-09
7.6804191e-09
7.6888061e-09
7.6969321e-09
7.7033135e-09
7.705895e-09
7.7028523e-09
7.6932947e-09
7.6769955e-09
7.6548797e-09
7.6285733e-09
7.5999537e-09
7.5708066e-09
7.5426979e-09
7.516753e-09
7.4935141e-09
7.4730722e-09
7.4551088e-09
7.4394268e-09
7.4258237e-09
7.4140593e-09
7.4038343e-09
7.3947534e-09
7.3858702e-09
7.3786676e-09
7.3750038e-09
7.3737524e-09
7.3771641e-09
7.3788296e-09
7.3786867e-09
7.3660936e-09
7.3574343e-09
7.3526544e-09
7.3504126e-09
7.3495205e-09
7.3492299e-09
0.00031510663
0.00044417619
0.0001569272
2.0818823e-07
8.8046679e-09
7.9180729e-09
7.8110684e-09
7.6693705e-09
7.7111773e-09
7.6756466e-09
7.6812598e-09
7.67424e-09
7.6777788e-09
7.681319e-09
7.6879944e-09
7.6959525e-09
7.7046648e-09
7.7127455e-09
7.7185296e-09
7.7197685e-09
7.714914e-09
7.7031068e-09
7.6844607e-09
7.6601693e-09
7.6320366e-09
7.6020037e-09
7.5718728e-09
7.543146e-09
7.5167872e-09
7.493374e-09
7.4727682e-09
7.4546189e-09
7.4387895e-09
7.4251245e-09
7.4133253e-09
7.4030733e-09
7.3938897e-09
7.3848428e-09
7.3780201e-09
7.3746753e-09
7.3742722e-09
7.3780672e-09
7.3792939e-09
7.3783834e-09
7.3653513e-09
7.3569862e-09
7.3524315e-09
7.3503212e-09
7.3494883e-09
7.3492196e-09
0.00031398459
0.0004192145
0.00011327732
9.2247429e-08
8.6311383e-09
7.9209338e-09
7.8136544e-09
7.6810909e-09
7.7201119e-09
7.6875312e-09
7.6928972e-09
7.6876447e-09
7.6918449e-09
7.6963048e-09
7.7036725e-09
7.7121841e-09
7.7211337e-09
7.7290262e-09
7.7339607e-09
7.733634e-09
7.7267349e-09
7.7125063e-09
7.6914256e-09
7.6649494e-09
7.6350315e-09
7.603665e-09
7.5726524e-09
7.5433179e-09
7.516678e-09
7.493113e-09
7.4723665e-09
7.454045e-09
7.438089e-09
7.4243867e-09
7.4125602e-09
7.4022609e-09
7.39293e-09
7.383781e-09
7.3773738e-09
7.3743017e-09
7.3748476e-09
7.3789384e-09
7.3800056e-09
7.377737e-09
7.3646185e-09
7.3565389e-09
7.3522142e-09
7.3502337e-09
7.3494578e-09
7.3492099e-09
0.00031304594
0.00039052336
7.4123551e-05
4.7303396e-08
8.5221917e-09
7.9247994e-09
7.8170412e-09
7.6935805e-09
7.7298278e-09
7.7001357e-09
7.7050872e-09
7.7018303e-09
7.70671e-09
7.7120804e-09
7.7201179e-09
7.7291181e-09
7.738198e-09
7.7457219e-09
7.7495235e-09
7.7474224e-09
7.7382194e-09
7.7214181e-09
7.6978388e-09
7.669189e-09
7.6375466e-09
7.6049525e-09
7.5731125e-09
7.5432661e-09
7.516414e-09
7.4927383e-09
7.4718705e-09
7.4533904e-09
7.437327e-09
7.4236098e-09
7.4117654e-09
7.4013984e-09
7.3918684e-09
7.3827172e-09
7.3767191e-09
7.3738809e-09
7.3755167e-09
7.3798225e-09
7.3808264e-09
7.3768346e-09
7.3638795e-09
7.3560942e-09
7.3520044e-09
7.3501506e-09
7.3494292e-09
7.3492008e-09
0.00031214516
0.00035844507
4.3411477e-05
2.8307219e-08
8.4504071e-09
7.9296296e-09
7.821252e-09
7.7068632e-09
7.740356e-09
7.7134888e-09
7.7186638e-09
7.7168129e-09
7.7224085e-09
7.7286732e-09
7.7373468e-09
7.7467545e-09
7.7558332e-09
7.7627668e-09
7.7651361e-09
7.7610255e-09
7.749278e-09
7.7297714e-09
7.7036535e-09
7.6728623e-09
7.6395832e-09
7.6058695e-09
7.5732193e-09
7.543017e-09
7.5159989e-09
7.4922524e-09
7.4712836e-09
7.4526598e-09
7.4365063e-09
7.4227925e-09
7.4109394e-09
7.4004834e-09
7.3907053e-09
7.3816733e-09
7.3760667e-09
7.3734085e-09
7.3762647e-09
7.3807215e-09
7.3816955e-09
7.3757562e-09
7.363115e-09
7.3556569e-09
7.3518033e-09
7.350072e-09
7.3494025e-09
7.3491923e-09
0.00031100681
0.00032257544
2.2533289e-05
1.9426786e-08
8.4005845e-09
7.9354151e-09
7.8263036e-09
7.7209401e-09
7.7517287e-09
7.72764e-09
7.7332895e-09
7.7326357e-09
7.7389775e-09
7.7461123e-09
7.7553715e-09
7.7650858e-09
7.7740031e-09
7.7800653e-09
7.7807172e-09
7.7743296e-09
7.7598182e-09
7.7374953e-09
7.7088264e-09
7.6759533e-09
7.6411531e-09
7.6063654e-09
7.5730681e-09
7.542554e-09
7.5154382e-09
7.4916588e-09
7.4706092e-09
7.4518584e-09
7.4356314e-09
7.4219339e-09
7.4100784e-09
7.3995104e-09
7.3894578e-09
7.3806469e-09
7.3754369e-09
7.3729765e-09
7.3770629e-09
7.3815974e-09
7.3825627e-09
7.3745652e-09
7.3623339e-09
7.3552323e-09
7.3516119e-09
7.3499982e-09
7.3493777e-09
7.3491844e-09
0.0003092129
0.00028266828
1.0342825e-05
1.4920073e-08
8.3640945e-09
7.9421525e-09
7.8322028e-09
7.7358102e-09
7.7639956e-09
7.7426297e-09
7.7484564e-09
7.7493571e-09
7.7564568e-09
7.7644221e-09
7.774198e-09
7.7840956e-09
7.7926468e-09
7.7975015e-09
7.7961909e-09
7.7872053e-09
7.7697461e-09
7.7445259e-09
7.7133215e-09
7.6784583e-09
7.6422548e-09
7.6064355e-09
7.5726377e-09
7.5418948e-09
7.5147371e-09
7.4909605e-09
7.4698506e-09
7.4509919e-09
7.4347077e-09
7.4210343e-09
7.409177e-09
7.3984708e-09
7.3881395e-09
7.3796381e-09
7.3748472e-09
7.3726486e-09
7.3778484e-09
7.382398e-09
7.383324e-09
7.3733002e-09
7.3615539e-09
7.3548247e-09
7.3514308e-09
7.3499292e-09
7.3493547e-09
7.3491771e-09
0.00030651871
0.00023410179
4.43251e-06
1.2506209e-08
8.335741e-09
7.9498675e-09
7.8389924e-09
7.7515271e-09
7.7772331e-09
7.7585439e-09
7.76477e-09
7.7670221e-09
7.7748802e-09
7.783622e-09
7.793824e-09
7.8037529e-09
7.8116813e-09
7.8149769e-09
7.8114183e-09
7.7995433e-09
7.7789698e-09
7.7508031e-09
7.7171147e-09
7.6803847e-09
7.6428294e-09
7.606182e-09
7.5719392e-09
7.5410445e-09
7.5139017e-09
7.4901596e-09
7.4690099e-09
7.4500655e-09
7.4337408e-09
7.420095e-09
7.4082291e-09
7.3973511e-09
7.3867671e-09
7.3786605e-09
7.3743112e-09
7.3725177e-09
7.3785463e-09
7.3830572e-09
7.3838281e-09
7.3720023e-09
7.3607926e-09
7.3544358e-09
7.3512602e-09