/*--------------------------------*- C++ -*----------------------------------*\
| =========                 |                                                 |
| \\      /  F ield         | OpenFOAM: The Open Source CFD Toolbox           |
|  \\    /   O peration     | Version:  2306                                  |
|   \\  /    A nd           | Website:  www.openfoam.com                      |
|    \\/     M anipulation  |                                                 |
\*---------------------------------------------------------------------------*/
FoamFile
{
    version     2.0;
    format      ascii;
    arch        "LSB;label=32;scalar=64";
    class       volScalarField;
    location    "0.007";
    object      nuTilda;
}
// * * * * * * * * * * * * * * * * * * * * * * * * * * * * * * * * * * * * * //

dimensions      [0 2 -1 0 0 0 0];

internalField   nonuniform List<scalar> 
20000
(
0.00039590475
0.00096494979
0.001273731
0.0013662729
0.001189606
0.00062592606
8.4002443e-05
1.0906896e-05
1.0143316e-05
1.0101372e-05
1.0099681e-05
1.0079511e-05
1.0073521e-05
1.0063139e-05
1.0057158e-05
1.0050465e-05
1.0045333e-05
1.0040442e-05
1.0036269e-05
1.0032442e-05
1.0029026e-05
1.0025922e-05
1.0023132e-05
1.0020608e-05
1.0018312e-05
1.0016217e-05
1.0014346e-05
1.0012756e-05
1.0011472e-05
1.0010428e-05
1.0009498e-05
1.000865e-05
1.0008057e-05
1.0007827e-05
1.0007625e-05
1.0007052e-05
1.0006223e-05
1.0005252e-05
1.0004065e-05
1.0003021e-05
1.0002649e-05
1.0002631e-05
1.0001943e-05
1.0000583e-05
1.0000362e-05
1.000024e-05
1.0000065e-05
1.0000025e-05
1.0000004e-05
1e-05
0.00039349318
0.00095217788
0.0012487956
0.001328002
0.0011377728
0.00055207113
6.5666456e-05
1.0600249e-05
1.0140185e-05
1.0098847e-05
1.0097811e-05
1.0077903e-05
1.0072159e-05
1.0062011e-05
1.0056205e-05
1.004968e-05
1.004468e-05
1.0039905e-05
1.0035824e-05
1.0032075e-05
1.0028719e-05
1.0025663e-05
1.002291e-05
1.0020417e-05
1.0018145e-05
1.0016066e-05
1.0014199e-05
1.0012598e-05
1.00113e-05
1.0010256e-05
1.0009344e-05
1.000851e-05
1.000789e-05
1.0007621e-05
1.000744e-05
1.0006923e-05
1.0006127e-05
1.0005211e-05
1.0004075e-05
1.0002982e-05
1.0002485e-05
1.0002292e-05
1.0001962e-05
1.0000716e-05
1.0000318e-05
1.000024e-05
1.0000077e-05
1.000003e-05
1.0000006e-05
1e-05
0.00039133779
0.00094023691
0.0012244856
0.0012890305
0.0010840077
0.00047892912
5.0442229e-05
1.0405089e-05
1.0137167e-05
1.009639e-05
1.0095612e-05
1.0076242e-05
1.007073e-05
1.006084e-05
1.0055209e-05
1.0048863e-05
1.0044e-05
1.0039354e-05
1.0035375e-05
1.0031715e-05
1.0028434e-05
1.0025443e-05
1.0022746e-05
1.0020301e-05
1.0018072e-05
1.0016029e-05
1.0014181e-05
1.0012581e-05
1.0011271e-05
1.0010219e-05
1.0009313e-05
1.0008483e-05
1.0007832e-05
1.0007513e-05
1.0007328e-05
1.0006851e-05
1.0006076e-05
1.0005194e-05
1.000411e-05
1.0002996e-05
1.0002358e-05
1.0002063e-05
1.0001888e-05
1.0000821e-05
1.0000273e-05
1.0000193e-05
1.0000071e-05
1.0000025e-05
1.0000007e-05
1e-05
0.00038922681
0.00092859011
0.0012007227
0.0012498921
0.0010297578
0.00041111136
3.8819356e-05
1.0284935e-05
1.0134266e-05
1.0093984e-05
1.0093596e-05
1.0074632e-05
1.0069339e-05
1.0059702e-05
1.0054236e-05
1.0048065e-05
1.0043334e-05
1.0038809e-05
1.0034926e-05
1.0031349e-05
1.0028136e-05
1.0025202e-05
1.0022552e-05
1.0020147e-05
1.0017953e-05
1.0015937e-05
1.0014104e-05
1.0012502e-05
1.001118e-05
1.0010121e-05
1.0009225e-05
1.0008405e-05
1.0007736e-05
1.0007373e-05
1.0007183e-05
1.0006746e-05
1.0005997e-05
1.0005144e-05
1.000411e-05
1.0002996e-05
1.0002267e-05
1.0001895e-05
1.0001773e-05
1.0000871e-05
1.000028e-05
1.000016e-05
1.0000071e-05
1.0000021e-05
1.0000007e-05
1e-05
0.00038719803
0.00091722619
0.0011776799
0.0012126313
0.00097402156
0.00034824574
3.0081769e-05
1.0210661e-05
1.0131698e-05
1.0091637e-05
1.009154e-05
1.0073044e-05
1.0067962e-05
1.0058579e-05
1.0053275e-05
1.0047276e-05
1.0042675e-05
1.0038271e-05
1.0034484e-05
1.003099e-05
1.0027845e-05
1.0024969e-05
1.0022368e-05
1.0020005e-05
1.0017848e-05
1.0015862e-05
1.0014047e-05
1.0012446e-05
1.0011112e-05
1.0010043e-05
1.0009153e-05
1.0008346e-05
1.0007662e-05
1.0007255e-05
1.0007051e-05
1.0006649e-05
1.0005925e-05
1.0005095e-05
1.000411e-05
1.0003018e-05
1.0002233e-05
1.000178e-05
1.0001635e-05
1.0000895e-05
1.000036e-05
1.0000131e-05
1.0000066e-05
1.0000018e-05
1.0000006e-05
1e-05
0.00038518952
0.00090581686
0.001154747
0.0011739638
0.00091592877
0.00029106023
2.3692481e-05
1.0164914e-05
1.0129253e-05
1.0089344e-05
1.0089543e-05
1.0071487e-05
1.0066605e-05
1.0057476e-05
1.0052328e-05
1.00465e-05
1.0042025e-05
1.0037739e-05
1.0034045e-05
1.0030632e-05
1.0027554e-05
1.0024736e-05
1.0022182e-05
1.001986e-05
1.0017737e-05
1.001578e-05
1.0013983e-05
1.0012385e-05
1.001104e-05
1.0009959e-05
1.0009072e-05
1.0008278e-05
1.0007587e-05
1.000714e-05
1.0006916e-05
1.0006545e-05
1.0005848e-05
1.0005039e-05
1.0004102e-05
1.0003048e-05
1.000224e-05
1.0001701e-05
1.0001505e-05
1.0000903e-05
1.0000465e-05
1.0000122e-05
1.0000058e-05
1.0000016e-05
1.0000005e-05
1.0000001e-05
0.00038319352
0.00089418883
0.0011307198
0.0011350087
0.00085550342
0.00024022258
1.9164282e-05
1.013631e-05
1.0126884e-05
1.0087109e-05
1.008756e-05
1.0069959e-05
1.0065267e-05
1.0056392e-05
1.0051394e-05
1.0045735e-05
1.0041383e-05
1.0037214e-05
1.0033611e-05
1.0030278e-05
1.0027266e-05
1.0024504e-05
1.0021997e-05
1.0019715e-05
1.0017627e-05
1.0015699e-05
1.0013921e-05
1.0012327e-05
1.0010972e-05
1.0009878e-05
1.000899e-05
1.0008208e-05
1.0007516e-05
1.0007034e-05
1.0006784e-05
1.0006439e-05
1.000577e-05
1.0004979e-05
1.0004089e-05
1.0003086e-05
1.0002277e-05
1.0001646e-05
1.0001408e-05
1.0000893e-05
1.0000529e-05
1.000013e-05
1.0000049e-05
1.0000015e-05
1.0000004e-05
1.0000001e-05
0.00038128955
0.00088276631
0.0011069846
0.0010959947
0.00079255669
0.00019728749
1.6043178e-05
1.0117825e-05
1.0124626e-05
1.0084928e-05
1.008561e-05
1.0068459e-05
1.0063948e-05
1.0055326e-05
1.0050474e-05
1.0044981e-05
1.004075e-05
1.0036695e-05
1.0033181e-05
1.0029926e-05
1.002698e-05
1.0024274e-05
1.0021813e-05
1.001957e-05
1.0017516e-05
1.0015616e-05
1.0013857e-05
1.0012268e-05
1.0010905e-05
1.0009798e-05
1.0008905e-05
1.0008134e-05
1.0007445e-05
1.0006934e-05
1.0006653e-05
1.0006329e-05
1.0005691e-05
1.0004915e-05
1.0004068e-05
1.0003123e-05
1.0002325e-05
1.0001613e-05
1.0001329e-05
1.0000877e-05
1.000056e-05
1.0000169e-05
1.0000045e-05
1.0000014e-05
1.0000003e-05
1.0000001e-05
0.00037945401
0.00087128054
0.0010831385
0.001056957
0.00072734088
0.00015952416
1.3910353e-05
1.0105604e-05
1.0120906e-05
1.0082796e-05
1.0083683e-05
1.0066989e-05
1.0062648e-05
1.0054278e-05
1.0049567e-05
1.0044239e-05
1.0040125e-05
1.0036182e-05
1.0032755e-05
1.0029578e-05
1.0026695e-05
1.0024044e-05
1.002163e-05
1.0019425e-05
1.0017404e-05
1.0015532e-05
1.0013792e-05
1.0012211e-05
1.0010841e-05
1.0009719e-05
1.0008819e-05
1.0008056e-05
1.0007374e-05
1.0006839e-05
1.0006526e-05
1.0006215e-05
1.0005611e-05
1.0004849e-05
1.0004039e-05
1.0003152e-05
1.0002372e-05
1.0001609e-05
1.0001274e-05
1.0000861e-05
1.0000568e-05
1.0000214e-05
1.000005e-05
1.0000013e-05
1.0000003e-05
1.0000001e-05
0.00037763959
0.00085958125
0.0010588756
0.0010174088
0.00066019933
0.00012713172
1.249861e-05
1.009713e-05
1.0118089e-05
1.0080723e-05
1.0081786e-05
1.0065547e-05
1.0061367e-05
1.0053249e-05
1.0048675e-05
1.0043508e-05
1.0039508e-05
1.0035675e-05
1.0032334e-05
1.0029232e-05
1.0026413e-05
1.0023817e-05
1.0021448e-05
1.0019281e-05
1.0017292e-05
1.0015446e-05
1.0013727e-05
1.0012154e-05
1.0010779e-05
1.0009643e-05
1.0008733e-05
1.0007975e-05
1.0007301e-05
1.0006749e-05
1.0006402e-05
1.0006099e-05
1.0005529e-05
1.0004781e-05
1.0004004e-05
1.0003169e-05
1.0002413e-05
1.0001637e-05
1.0001259e-05
1.0000851e-05
1.0000559e-05
1.0000233e-05
1.0000067e-05
1.0000015e-05
1.0000003e-05
1e-05
0.00037583228
0.00084755485
0.001033586
0.00097536939
0.00059198057
9.9569232e-05
1.1591125e-05
1.0091012e-05
1.0115361e-05
1.0078706e-05
1.0079917e-05
1.0064135e-05
1.0060106e-05
1.0052239e-05
1.0047797e-05
1.0042789e-05
1.00389e-05
1.0035174e-05
1.0031917e-05
1.002889e-05
1.0026133e-05
1.0023591e-05
1.0021267e-05
1.0019138e-05
1.001718e-05
1.001536e-05
1.001366e-05
1.0012097e-05
1.0010719e-05
1.000957e-05
1.0008648e-05
1.000789e-05
1.0007224e-05
1.0006662e-05
1.0006283e-05
1.0005979e-05
1.0005446e-05
1.0004712e-05
1.000396e-05
1.0003173e-05
1.0002446e-05
1.0001684e-05
1.0001269e-05
1.0000846e-05
1.0000537e-05
1.0000235e-05
1.000008e-05
1.0000021e-05
1.0000004e-05
1e-05
0.00037404245
0.00083536038
0.0010074497
0.00093394319
0.00052398656
7.6881539e-05
1.1024065e-05
1.0086359e-05
1.0112639e-05
1.0076742e-05
1.0078083e-05
1.0062751e-05
1.0058865e-05
1.0051246e-05
1.0046932e-05
1.0042081e-05
1.0038301e-05
1.0034679e-05
1.0031505e-05
1.0028551e-05
1.0025855e-05
1.0023367e-05
1.0021088e-05
1.0018995e-05
1.0017068e-05
1.0015273e-05
1.0013593e-05
1.001204e-05
1.001066e-05
1.0009499e-05
1.0008564e-05
1.0007803e-05
1.0007144e-05
1.0006577e-05
1.0006168e-05
1.0005859e-05
1.000536e-05
1.0004643e-05
1.0003908e-05
1.0003159e-05
1.0002462e-05
1.0001732e-05
1.0001279e-05
1.0000842e-05
1.0000512e-05
1.0000226e-05
1.0000082e-05
1.0000025e-05
1.0000006e-05
1.0000001e-05
0.0003723058
0.00082321612
0.00098128885
0.00089235547
0.00045696299
5.8702891e-05
1.0676397e-05
1.008262e-05
1.0109943e-05
1.0074831e-05
1.0076282e-05
1.0061396e-05
1.0057643e-05
1.0050272e-05
1.0046082e-05
1.0041384e-05
1.003771e-05
1.0034191e-05
1.0031097e-05
1.0028215e-05
1.002558e-05
1.0023145e-05
1.002091e-05
1.0018854e-05
1.0016957e-05
1.0015186e-05
1.0013525e-05
1.0011983e-05
1.0010603e-05
1.0009431e-05
1.0008482e-05
1.0007715e-05
1.000706e-05
1.0006491e-05
1.0006058e-05
1.0005737e-05
1.0005272e-05
1.0004574e-05
1.000385e-05
1.000313e-05
1.0002459e-05
1.0001766e-05
1.0001287e-05
1.0000835e-05
1.0000487e-05
1.0000212e-05
1.0000078e-05
1.0000025e-05
1.0000007e-05
1.0000001e-05
0.00037059311
0.00081113263
0.00095561714
0.00084991718
0.00039239701
4.4612586e-05
1.046751e-05
1.0079449e-05
1.0107274e-05
1.007297e-05
1.0074515e-05
1.0060069e-05
1.0056441e-05
1.0049315e-05
1.0045246e-05
1.0040699e-05
1.0037127e-05
1.0033709e-05
1.0030693e-05
1.0027882e-05
1.0025308e-05
1.0022926e-05
1.0020735e-05
1.0018714e-05
1.0016846e-05
1.0015098e-05
1.0013456e-05
1.0011927e-05
1.0010547e-05
1.0009366e-05
1.0008403e-05
1.0007626e-05
1.0006972e-05
1.0006404e-05
1.0005952e-05
1.0005616e-05
1.000518e-05
1.0004505e-05
1.0003789e-05
1.0003091e-05
1.000244e-05
1.000178e-05
1.0001287e-05
1.0000826e-05
1.0000464e-05
1.00002e-05
1.0000072e-05
1.0000023e-05
1.0000007e-05
1.0000001e-05
0.00036881393
0.00079862683
0.00092902816
0.00080577767
0.00033244967
3.4021574e-05
1.0343348e-05
1.0076653e-05
1.0104629e-05
1.0071161e-05
1.0072766e-05
1.0058771e-05
1.0055259e-05
1.0048377e-05
1.0044423e-05
1.0040025e-05
1.0036553e-05
1.0033233e-05
1.0030294e-05
1.0027553e-05
1.0025039e-05
1.0022708e-05
1.002056e-05
1.0018576e-05
1.0016735e-05
1.001501e-05
1.0013387e-05
1.001187e-05
1.0010493e-05
1.0009303e-05
1.0008326e-05
1.0007538e-05
1.0006881e-05
1.0006313e-05
1.0005848e-05
1.0005496e-05
1.0005085e-05
1.0004436e-05
1.0003725e-05
1.0003047e-05
1.0002413e-05
1.0001774e-05
1.0001276e-05
1.0000816e-05
1.0000441e-05
1.0000188e-05
1.0000067e-05
1.0000021e-05
1.0000006e-05
1.0000001e-05
0.00036699268
0.00078588038
0.00090178479
0.00075950543
0.00027786858
2.6272225e-05
1.0270008e-05
1.0074114e-05
1.0102011e-05
1.0069401e-05
1.0071022e-05
1.0057498e-05
1.0054097e-05
1.0047455e-05
1.0043614e-05
1.0039361e-05
1.0035987e-05
1.0032763e-05
1.0029901e-05
1.0027228e-05
1.0024772e-05
1.0022493e-05
1.0020389e-05
1.0018439e-05
1.0016625e-05
1.0014922e-05
1.0013317e-05
1.0011813e-05
1.001044e-05
1.0009243e-05
1.0008253e-05
1.0007453e-05
1.0006789e-05
1.000622e-05
1.0005744e-05
1.0005378e-05
1.0004987e-05
1.0004366e-05
1.0003661e-05
1.0003e-05
1.0002381e-05
1.0001756e-05
1.0001259e-05
1.0000803e-05
1.0000419e-05
1.0000176e-05
1.0000062e-05
1.0000019e-05
1.0000006e-05
1.0000001e-05
0.00036513133
0.00077299817
0.00087394057
0.0007119677
0.00022889581
2.0794651e-05
1.0225772e-05
1.0071761e-05
1.0099422e-05
1.0067689e-05
1.0069279e-05
1.005625e-05
1.0052954e-05
1.0046551e-05
1.0042819e-05
1.0038709e-05
1.003543e-05
1.00323e-05
1.0029511e-05
1.0026906e-05
1.0024509e-05
1.0022281e-05
1.0020219e-05
1.0018303e-05
1.0016516e-05
1.0014834e-05
1.0013247e-05
1.0011757e-05
1.0010387e-05
1.0009185e-05
1.0008182e-05
1.0007369e-05
1.0006696e-05
1.0006122e-05
1.000564e-05
1.000526e-05
1.0004885e-05
1.0004296e-05
1.0003596e-05
1.0002951e-05
1.0002346e-05
1.0001732e-05
1.0001241e-05
1.0000788e-05
1.0000396e-05
1.0000164e-05
1.0000057e-05
1.0000018e-05
1.0000005e-05
1.0000001e-05
0.0003632949
0.00076025681
0.00084559029
0.00066267192
0.00018591292
1.7036293e-05
1.0198171e-05
1.0069552e-05
1.009686e-05
1.0066025e-05
1.0067565e-05
1.0055027e-05
1.0051832e-05
1.0045663e-05
1.0042038e-05
1.0038067e-05
1.0034881e-05
1.0031842e-05
1.0029127e-05
1.0026589e-05
1.0024248e-05
1.0022071e-05
1.0020051e-05
1.0018169e-05
1.0016407e-05
1.0014746e-05
1.0013177e-05
1.00117e-05
1.0010336e-05
1.0009129e-05
1.0008115e-05
1.0007289e-05
1.0006604e-05
1.0006022e-05
1.0005533e-05
1.0005142e-05
1.0004779e-05
1.0004225e-05
1.0003532e-05
1.0002901e-05
1.0002308e-05
1.0001707e-05
1.0001221e-05
1.0000771e-05
1.0000375e-05
1.0000153e-05
1.0000053e-05
1.0000016e-05
1.0000005e-05
1.0000001e-05
0.00036154894
0.00074795931
0.00081751133
0.00061087253
0.00015042281
1.4529352e-05
1.0180271e-05
1.0067468e-05
1.0094331e-05
1.006441e-05
1.0065937e-05
1.0053833e-05
1.005073e-05
1.0044793e-05
1.0041271e-05
1.0037435e-05
1.0034341e-05
1.0031392e-05
1.0028748e-05
1.0026275e-05
1.0023991e-05
1.0021863e-05
1.0019885e-05
1.0018037e-05
1.00163e-05
1.0014659e-05
1.0013107e-05
1.0011643e-05
1.0010285e-05
1.0009074e-05
1.000805e-05
1.0007211e-05
1.0006515e-05
1.0005922e-05
1.0005422e-05
1.0005023e-05
1.000467e-05
1.0004152e-05
1.0003468e-05
1.0002851e-05
1.0002268e-05
1.000168e-05
1.0001198e-05
1.0000751e-05
1.0000354e-05
1.0000142e-05
1.0000049e-05
1.0000015e-05
1.0000004e-05
1.0000001e-05
0.00035990734
0.00073607028
0.00079296402
0.00055671108
0.00011947312
1.2866299e-05
1.0167999e-05
1.0065492e-05
1.0091833e-05
1.0062841e-05
1.0064412e-05
1.005267e-05
1.0049647e-05
1.0043939e-05
1.0040517e-05
1.0036815e-05
1.0033809e-05
1.0030947e-05
1.0028374e-05
1.0025966e-05
1.0023738e-05
1.0021659e-05
1.0019722e-05
1.0017907e-05
1.0016194e-05
1.0014573e-05
1.0013037e-05
1.0011586e-05
1.0010235e-05
1.0009022e-05
1.0007987e-05
1.0007137e-05
1.000643e-05
1.0005822e-05
1.000531e-05
1.0004901e-05
1.0004556e-05
1.0004075e-05
1.0003406e-05
1.0002799e-05
1.0002227e-05
1.0001648e-05
1.0001173e-05
1.0000728e-05
1.0000333e-05
1.0000132e-05
1.0000045e-05
1.0000013e-05
1.0000004e-05
1.0000001e-05
0.00035828747
0.00072373644
0.00076561106
0.00050003559
9.3507396e-05
1.1803233e-05
1.0159098e-05
1.0063613e-05
1.0089366e-05
1.0061317e-05
1.0062913e-05
1.0051538e-05
1.0048585e-05
1.0043101e-05
1.0039777e-05
1.0036204e-05
1.0033285e-05
1.0030509e-05
1.0028006e-05
1.0025661e-05
1.0023489e-05
1.0021458e-05
1.0019561e-05
1.0017778e-05
1.0016089e-05
1.0014487e-05
1.0012967e-05
1.0011528e-05
1.0010185e-05
1.0008971e-05
1.0007927e-05
1.0007065e-05
1.0006348e-05
1.0005726e-05
1.0005196e-05
1.0004775e-05
1.0004437e-05
1.0003994e-05
1.0003344e-05
1.0002745e-05
1.0002186e-05
1.0001615e-05
1.0001147e-05
1.0000703e-05
1.0000312e-05
1.0000122e-05
1.0000041e-05
1.0000012e-05
1.0000003e-05
1e-05
0.00035680211
0.00071158621
0.00073908052
0.00044231932
7.2313859e-05
1.1143376e-05
1.0152195e-05
1.0061821e-05
1.0086935e-05
1.0059834e-05
1.0061316e-05
1.0050426e-05
1.0047544e-05
1.004228e-05
1.003905e-05
1.0035603e-05
1.0032769e-05
1.0030077e-05
1.0027643e-05
1.0025361e-05
1.0023243e-05
1.002126e-05
1.0019402e-05
1.0017651e-05
1.0015986e-05
1.0014402e-05
1.0012897e-05
1.0011471e-05
1.0010136e-05
1.0008922e-05
1.0007869e-05
1.0006996e-05
1.000627e-05
1.0005635e-05
1.0005085e-05
1.0004647e-05
1.0004311e-05
1.0003906e-05
1.0003283e-05
1.0002689e-05
1.0002144e-05
1.0001582e-05
1.000112e-05
1.0000675e-05
1.0000292e-05
1.0000112e-05
1.0000037e-05
1.0000011e-05
1.0000003e-05
1e-05
0.00035541117
0.00069933203
0.00071171599
0.00038463177
5.5309442e-05
1.0741857e-05
1.0146401e-05
1.0060116e-05
1.0084538e-05
1.0058391e-05
1.0059582e-05
1.0049326e-05
1.0046523e-05
1.0041474e-05
1.0038337e-05
1.0035013e-05
1.0032262e-05
1.0029652e-05
1.0027285e-05
1.0025066e-05
1.0023001e-05
1.0021064e-05
1.0019246e-05
1.0017525e-05
1.0015885e-05
1.0014319e-05
1.0012828e-05
1.0011414e-05
1.0010088e-05
1.0008874e-05
1.0007812e-05
1.0006928e-05
1.0006195e-05
1.0005551e-05
1.0004979e-05
1.0004518e-05
1.0004179e-05
1.000381e-05
1.0003221e-05
1.0002631e-05
1.00021e-05
1.0001549e-05
1.0001091e-05
1.0000647e-05
1.0000273e-05
1.0000103e-05
1.0000034e-05
1.000001e-05
1.0000003e-05
1e-05
0.00035392906
0.00068584107
0.00068357497
0.00032995006
4.2216509e-05
1.0502568e-05
1.0141241e-05
1.0058489e-05
1.0082176e-05
1.0056988e-05
1.0057927e-05
1.0048243e-05
1.0045523e-05
1.0040683e-05
1.0037636e-05
1.0034432e-05
1.0031763e-05
1.0029234e-05
1.0026934e-05
1.0024775e-05
1.0022763e-05
1.0020872e-05
1.0019092e-05
1.0017401e-05
1.0015784e-05
1.0014236e-05
1.0012759e-05
1.0011357e-05
1.001004e-05
1.0008828e-05
1.0007758e-05
1.0006862e-05
1.0006122e-05
1.0005474e-05
1.0004883e-05
1.0004392e-05
1.0004041e-05
1.0003705e-05
1.0003158e-05
1.0002572e-05
1.0002055e-05
1.0001514e-05
1.000106e-05
1.0000617e-05
1.0000254e-05
1.0000094e-05
1.0000031e-05
1.0000009e-05
1.0000002e-05
1e-05
0.00035235508
0.00067127874
0.00065395506
0.0002796957
3.2368009e-05
1.0359359e-05
1.0136515e-05
1.0056944e-05
1.0079846e-05
1.0055627e-05
1.0056624e-05
1.0047199e-05
1.0044541e-05
1.0039908e-05
1.0036949e-05
1.0033861e-05
1.0031273e-05
1.0028823e-05
1.0026588e-05
1.002449e-05
1.0022529e-05
1.0020684e-05
1.001894e-05
1.001728e-05
1.0015686e-05
1.0014155e-05
1.0012691e-05
1.0011301e-05
1.0009992e-05
1.0008783e-05
1.0007707e-05
1.0006798e-05
1.0006051e-05
1.0005402e-05
1.0004798e-05
1.0004275e-05
1.0003901e-05
1.000359e-05
1.0003094e-05
1.0002514e-05
1.000201e-05
1.0001478e-05
1.0001029e-05
1.0000586e-05
1.0000236e-05
1.0000086e-05
1.0000028e-05
1.0000008e-05
1.0000002e-05
1e-05
0.00035056428
0.00065521465
0.00062181605
0.00023377918
2.5204095e-05
1.0273885e-05
1.0132594e-05
1.0055474e-05
1.0077554e-05
1.0054305e-05
1.0055476e-05
1.0046201e-05
1.004358e-05
1.0039147e-05
1.0036274e-05
1.00333e-05
1.0030791e-05
1.0028419e-05
1.0026249e-05
1.0024209e-05
1.00223e-05
1.0020498e-05
1.001879e-05
1.0017159e-05
1.0015588e-05
1.0014075e-05
1.0012624e-05
1.0011244e-05
1.0009944e-05
1.0008739e-05
1.0007658e-05
1.0006737e-05
1.0005981e-05
1.0005335e-05
1.0004725e-05
1.0004172e-05
1.0003765e-05
1.0003465e-05
1.0003025e-05
1.0002458e-05
1.0001965e-05
1.0001441e-05
1.0000997e-05
1.0000555e-05
1.0000218e-05
1.0000078e-05
1.0000025e-05
1.0000007e-05
1.0000002e-05
1e-05
0.00034848385
0.00063742207
0.00058397665
0.0001926054
2.0166089e-05
1.0223116e-05
1.0128408e-05
1.0054074e-05
1.0075298e-05
1.0053021e-05
1.0054056e-05
1.0045219e-05
1.0042638e-05
1.0038401e-05
1.0035613e-05
1.0032749e-05
1.0030318e-05
1.0028022e-05
1.0025916e-05
1.0023934e-05
1.0022075e-05
1.0020315e-05
1.0018643e-05
1.0017041e-05
1.0015493e-05
1.0013996e-05
1.0012558e-05
1.0011188e-05
1.0009897e-05
1.0008697e-05
1.0007612e-05
1.0006678e-05
1.0005912e-05
1.0005268e-05
1.0004662e-05
1.0004085e-05
1.0003638e-05
1.0003334e-05
1.000295e-05
1.0002407e-05
1.0001918e-05
1.0001401e-05
1.0000963e-05
1.0000522e-05
1.00002e-05
1.0000071e-05
1.0000023e-05
1.0000007e-05
1.0000002e-05
1e-05
0.00034621714
0.00061861407
0.00054190697
0.00015703028
1.6720822e-05
1.0192153e-05
1.0124251e-05
1.0052742e-05
1.0073078e-05
1.0051768e-05
1.0052281e-05
1.0044225e-05
1.0041716e-05
1.0037669e-05
1.0034964e-05
1.0032208e-05
1.0029853e-05
1.0027632e-05
1.0025589e-05
1.0023665e-05
1.0021854e-05
1.0020136e-05
1.0018498e-05
1.0016924e-05
1.0015398e-05
1.0013918e-05
1.0012493e-05
1.0011133e-05
1.0009851e-05
1.0008656e-05
1.0007568e-05
1.0006622e-05
1.0005843e-05
1.0005201e-05
1.0004605e-05
1.0004014e-05
1.0003526e-05
1.0003202e-05
1.0002864e-05
1.0002358e-05
1.0001867e-05
1.0001361e-05
1.0000929e-05
1.0000489e-05
1.0000183e-05
1.0000064e-05
1.000002e-05
1.0000006e-05
1.0000002e-05
1e-05
0.00034377631
0.00059911963
0.00049606654
0.00012795172
1.4417927e-05
1.0172665e-05
1.0120108e-05
1.0051475e-05
1.0070897e-05
1.0050544e-05
1.0050759e-05
1.004324e-05
1.0040813e-05
1.0036951e-05
1.0034328e-05
1.0031676e-05
1.0029398e-05
1.002725e-05
1.002527e-05
1.0023401e-05
1.0021638e-05
1.001996e-05
1.0018356e-05
1.0016809e-05
1.0015305e-05
1.0013842e-05
1.0012429e-05
1.0011079e-05
1.0009804e-05
1.0008615e-05
1.0007526e-05
1.0006569e-05
1.0005776e-05
1.0005132e-05
1.000455e-05
1.0003958e-05
1.0003433e-05
1.0003075e-05
1.0002768e-05
1.000231e-05
1.000181e-05
1.0001319e-05
1.0000894e-05
1.0000455e-05
1.0000167e-05
1.0000058e-05
1.0000018e-05
1.0000005e-05
1.0000001e-05
1e-05
0.00034111638
0.00057887724
0.00045066548
0.00010255891
1.2878295e-05
1.0159796e-05
1.0115995e-05
1.0050269e-05
1.0068754e-05
1.0049354e-05
1.0049709e-05
1.0042304e-05
1.0039929e-05
1.0036246e-05
1.0033705e-05
1.0031155e-05
1.0028952e-05
1.0026876e-05
1.0024957e-05
1.0023143e-05
1.0021426e-05
1.0019787e-05
1.0018216e-05
1.0016695e-05
1.0015212e-05
1.0013767e-05
1.0012367e-05
1.0011026e-05
1.0009759e-05
1.0008575e-05
1.0007486e-05
1.000652e-05
1.000571e-05
1.0005061e-05
1.0004492e-05
1.000391e-05
1.000336e-05
1.0002962e-05
1.0002665e-05
1.0002259e-05
1.0001747e-05
1.0001275e-05
1.0000858e-05
1.0000421e-05
1.0000152e-05
1.0000052e-05
1.0000016e-05
1.0000005e-05
1.0000001e-05
1e-05
0.00033814774
0.00055646968
0.00040495685
8.0986866e-05
1.188517e-05
1.0150871e-05
1.0111919e-05
1.0049121e-05
1.0066648e-05
1.0048197e-05
1.004867e-05
1.0041408e-05
1.0039063e-05
1.0035555e-05
1.0033094e-05
1.0030645e-05
1.0028515e-05
1.0026511e-05
1.0024651e-05
1.0022891e-05
1.0021219e-05
1.0019617e-05
1.0018078e-05
1.0016582e-05
1.0015121e-05
1.0013694e-05
1.0012306e-05
1.0010974e-05
1.0009714e-05
1.0008535e-05
1.0007448e-05
1.0006474e-05
1.0005649e-05
1.0004988e-05
1.000443e-05
1.0003866e-05
1.0003305e-05
1.0002868e-05
1.000256e-05
1.0002201e-05
1.0001681e-05
1.000123e-05
1.000082e-05
1.0000386e-05
1.0000137e-05
1.0000047e-05
1.0000014e-05
1.0000004e-05
1.0000001e-05
1e-05
0.00033542561
0.00053582465
0.00035882084
6.3114594e-05
1.1260567e-05
1.0144255e-05
1.0107893e-05
1.0048026e-05
1.0064582e-05
1.0047068e-05
1.0047287e-05
1.0040519e-05
1.0038216e-05
1.0034876e-05
1.0032496e-05
1.0030145e-05
1.0028088e-05
1.0026153e-05
1.0024353e-05
1.0022645e-05
1.0021016e-05
1.0019451e-05
1.0017942e-05
1.0016471e-05
1.0015031e-05
1.0013621e-05
1.0012247e-05
1.0010924e-05
1.000967e-05
1.0008495e-05
1.0007409e-05
1.000643e-05
1.0005591e-05
1.0004916e-05
1.0004362e-05
1.0003819e-05
1.0003261e-05
1.0002796e-05
1.0002461e-05
1.0002133e-05
1.000162e-05
1.0001184e-05
1.0000781e-05
1.0000351e-05
1.0000124e-05
1.0000042e-05
1.0000013e-05
1.0000004e-05
1.0000001e-05
1e-05
0.00033285593
0.00051538553
0.00031306399
4.8749092e-05
1.0871136e-05
1.0138989e-05
1.0103924e-05
1.0046986e-05
1.0062553e-05
1.0045959e-05
1.0045713e-05
1.0039642e-05
1.0037388e-05
1.0034211e-05
1.0031911e-05
1.0029656e-05
1.0027672e-05
1.0025805e-05
1.0024063e-05
1.0022406e-05
1.0020818e-05
1.0019288e-05
1.0017808e-05
1.0016361e-05
1.0014942e-05
1.001355e-05
1.0012189e-05
1.0010875e-05
1.0009627e-05
1.0008456e-05
1.0007371e-05
1.0006389e-05
1.0005538e-05
1.0004846e-05
1.000429e-05
1.0003766e-05
1.0003221e-05
1.000274e-05
1.000237e-05
1.0002054e-05
1.0001567e-05
1.0001136e-05
1.0000741e-05
1.0000317e-05
1.0000111e-05
1.0000037e-05
1.0000011e-05
1.0000003e-05
1.0000001e-05
1e-05
0.00033048792
0.00049426357
0.00026864017
3.7548053e-05
1.0632916e-05
1.0134501e-05
1.0100006e-05
1.0046e-05
1.0060561e-05
1.0044874e-05
1.004441e-05
1.0038795e-05
1.0036577e-05
1.0033559e-05
1.003134e-05
1.0029178e-05
1.0027265e-05
1.0025465e-05
1.002378e-05
1.0022172e-05
1.0020624e-05
1.0019128e-05
1.0017675e-05
1.0016252e-05
1.0014854e-05
1.0013479e-05
1.0012132e-05
1.0010828e-05
1.0009585e-05
1.0008416e-05
1.0007333e-05
1.0006349e-05
1.0005488e-05
1.000478e-05
1.0004216e-05
1.0003708e-05
1.000318e-05
1.0002691e-05
1.0002288e-05
1.0001968e-05
1.0001519e-05
1.0001087e-05
1.0000698e-05
1.0000284e-05
1.0000099e-05
1.0000033e-05
1.000001e-05
1.0000003e-05
1.0000001e-05
1e-05
0.0003285212
0.00047242047
0.00022660992
2.9092328e-05
1.0489046e-05
1.0130444e-05
1.0096129e-05
1.0045068e-05
1.0058606e-05
1.0043815e-05
1.0043415e-05
1.0037954e-05
1.0035785e-05
1.003292e-05
1.0030781e-05
1.0028711e-05
1.0026869e-05
1.0025134e-05
1.0023505e-05
1.0021944e-05
1.0020435e-05
1.0018971e-05
1.0017545e-05
1.0016144e-05
1.0014766e-05
1.001341e-05
1.0012077e-05
1.0010782e-05
1.0009544e-05
1.0008378e-05
1.0007295e-05
1.0006309e-05
1.0005441e-05
1.0004718e-05
1.0004144e-05
1.0003645e-05
1.0003134e-05
1.0002643e-05
1.0002214e-05
1.0001879e-05
1.0001469e-05
1.0001039e-05
1.0000646e-05
1.0000253e-05
1.0000089e-05
1.0000029e-05
1.0000009e-05
1.0000003e-05
1.0000001e-05
1e-05
0.00032712331
0.00045066507
0.00018825464
2.2979181e-05
1.040103e-05
1.0126636e-05
1.0092303e-05
1.0044185e-05
1.005669e-05
1.0042781e-05
1.004241e-05
1.0037129e-05
1.0035011e-05
1.0032295e-05
1.0030236e-05
1.0028255e-05
1.0026483e-05
1.0024814e-05
1.0023239e-05
1.0021722e-05
1.002025e-05
1.0018817e-05
1.0017416e-05
1.0016037e-05
1.001468e-05
1.0013341e-05
1.0012022e-05
1.0010738e-05
1.0009505e-05
1.0008339e-05
1.0007256e-05
1.0006269e-05
1.0005396e-05
1.0004662e-05
1.0004076e-05
1.0003581e-05
1.0003084e-05
1.0002593e-05
1.0002148e-05
1.0001793e-05
1.0001405e-05
1.0000993e-05
1.0000587e-05
1.0000227e-05
1.0000079e-05
1.0000026e-05
1.0000008e-05
1.0000002e-05
1.0000001e-05
1e-05
0.00032605073
0.00042642889
0.00015427284
1.8720161e-05
1.0344811e-05
1.0123002e-05
1.008854e-05
1.0043348e-05
1.0054813e-05
1.0041767e-05
1.0041168e-05
1.0036323e-05
1.0034255e-05
1.0031682e-05
1.0029704e-05
1.0027811e-05
1.0026109e-05
1.0024502e-05
1.002298e-05
1.0021506e-05
1.0020069e-05
1.0018665e-05
1.0017288e-05
1.0015932e-05
1.0014594e-05
1.0013273e-05
1.0011969e-05
1.0010695e-05
1.0009467e-05
1.0008302e-05
1.0007217e-05
1.0006229e-05
1.0005353e-05
1.000461e-05
1.0004012e-05
1.0003517e-05
1.0003031e-05
1.0002543e-05
1.0002091e-05
1.0001716e-05
1.0001328e-05
1.000095e-05
1.0000535e-05
1.0000205e-05
1.000007e-05
1.0000023e-05
1.0000007e-05
1.0000002e-05
1.0000001e-05
1e-05
0.00032514897
0.00039872684
0.00012474548
1.5826382e-05
1.0307258e-05
1.0119495e-05
1.0084835e-05
1.004255e-05
1.0052974e-05
1.0040762e-05
1.0039875e-05
1.0035533e-05
1.0033516e-05
1.0031083e-05
1.0029185e-05
1.0027379e-05
1.0025746e-05
1.0024201e-05
1.002273e-05
1.0021297e-05
1.0019893e-05
1.0018516e-05
1.0017162e-05
1.0015827e-05
1.0014509e-05
1.0013206e-05
1.0011917e-05
1.0010653e-05
1.000943e-05
1.0008266e-05
1.0007178e-05
1.0006188e-05
1.000531e-05
1.0004561e-05
1.0003954e-05
1.0003456e-05
1.0002979e-05
1.0002497e-05
1.0002044e-05
1.0001638e-05
1.0001247e-05
1.0000903e-05
1.0000486e-05
1.0000183e-05
1.0000062e-05
1.000002e-05
1.0000006e-05
1.0000002e-05
1e-05
1e-05
0.00032428191
0.00036800092
0.00010030617
1.3909773e-05
1.0280541e-05
1.0116087e-05
1.0081183e-05
1.0041788e-05
1.0051172e-05
1.0039768e-05
1.0038792e-05
1.0034755e-05
1.0032796e-05
1.0030498e-05
1.0028681e-05
1.0026959e-05
1.0025395e-05
1.0023911e-05
1.0022488e-05
1.0021093e-05
1.0019721e-05
1.001837e-05
1.0017038e-05
1.0015724e-05
1.0014426e-05
1.0013139e-05
1.0011865e-05
1.0010611e-05
1.0009393e-05
1.000823e-05
1.000714e-05
1.0006147e-05
1.0005267e-05
1.0004514e-05
1.0003899e-05
1.0003397e-05
1.0002928e-05
1.0002456e-05
1.0002005e-05
1.0001554e-05
1.000117e-05
1.0000845e-05
1.0000441e-05
1.0000163e-05
1.0000055e-05
1.0000018e-05
1.0000005e-05
1.0000002e-05
1e-05
1e-05
0.00032319237
0.00033404541
8.0191963e-05
1.2652445e-05
1.0260205e-05
1.0112768e-05
1.0077583e-05
1.0041057e-05
1.0049411e-05
1.0038791e-05
1.0037798e-05
1.0033989e-05
1.0032094e-05
1.0029926e-05
1.002819e-05
1.0026552e-05
1.0025056e-05
1.0023631e-05
1.0022254e-05
1.0020895e-05
1.0019552e-05
1.0018226e-05
1.0016915e-05
1.0015621e-05
1.0014342e-05
1.0013074e-05
1.0011813e-05
1.0010569e-05
1.0009358e-05
1.0008195e-05
1.0007102e-05
1.0006106e-05
1.0005223e-05
1.0004468e-05
1.0003848e-05
1.0003341e-05
1.0002879e-05
1.0002418e-05
1.0001968e-05
1.0001481e-05
1.0001104e-05
1.0000774e-05
1.0000399e-05
1.0000145e-05
1.0000049e-05
1.0000016e-05
1.0000005e-05
1.0000002e-05
1e-05
1e-05
0.0003214908
0.00029694117
6.3505795e-05
1.1837541e-05
1.0243696e-05
1.0109541e-05
1.0074037e-05
1.0040349e-05
1.0047694e-05
1.0037827e-05
1.0036709e-05
1.0033237e-05
1.0031409e-05
1.0029369e-05
1.0027715e-05
1.0026159e-05
1.0024731e-05
1.0023362e-05
1.0022027e-05
1.0020703e-05
1.0019388e-05
1.0018084e-05
1.0016793e-05
1.001552e-05
1.001426e-05
1.0013008e-05
1.001176e-05
1.0010527e-05
1.0009322e-05
1.000816e-05
1.0007065e-05
1.0006066e-05
1.000518e-05
1.0004422e-05
1.0003797e-05
1.0003287e-05
1.0002829e-05
1.000238e-05
1.0001932e-05
1.0001419e-05
1.0001045e-05
1.0000696e-05
1.0000359e-05
1.0000128e-05
1.0000043e-05
1.0000014e-05
1.0000004e-05
1.0000001e-05
1e-05
1e-05
0.00031895062
0.00025313242
5.0267061e-05
1.1320076e-05
1.0229453e-05
1.0106403e-05
1.0070539e-05
1.0039656e-05
1.004602e-05
1.003688e-05
1.0035703e-05
1.0032499e-05
1.0030743e-05
1.0028826e-05
1.0027254e-05
1.0025781e-05
1.0024418e-05
1.0023104e-05
1.002181e-05
1.0020518e-05
1.0019227e-05
1.0017944e-05
1.0016673e-05
1.0015419e-05
1.0014178e-05
1.0012941e-05
1.0011708e-05
1.0010485e-05
1.0009285e-05
1.0008125e-05
1.0007028e-05
1.0006026e-05
1.0005138e-05
1.0004376e-05
1.0003746e-05
1.0003231e-05
1.0002779e-05
1.000234e-05
1.0001897e-05
1.0001384e-05
1.000099e-05
1.0000626e-05
1.0000319e-05
1.0000112e-05
1.0000038e-05
1.0000012e-05
1.0000004e-05
1.0000001e-05
1e-05
1e-05
0.00031673887
0.00022079879
4.0581741e-05
1.0992215e-05
1.0216512e-05
1.0103363e-05
1.0067085e-05
1.0038971e-05
1.0044391e-05
1.0035953e-05
1.0034722e-05
1.0031774e-05
1.0030094e-05
1.0028299e-05