/*--------------------------------*- C++ -*----------------------------------*\
| =========                 |                                                 |
| \\      /  F ield         | OpenFOAM: The Open Source CFD Toolbox           |
|  \\    /   O peration     | Version:  2306                                  |
|   \\  /    A nd           | Website:  www.openfoam.com                      |
|    \\/     M anipulation  |                                                 |
\*---------------------------------------------------------------------------*/
FoamFile
{
    version     2.0;
    format      ascii;
    arch        "LSB;label=32;scalar=64";
    class       volScalarField;
    location    "0.007";
    object      p;
}
// * * * * * * * * * * * * * * * * * * * * * * * * * * * * * * * * * * * * * //

dimensions      [1 -1 -2 0 0 0 0];

internalField   nonuniform List<scalar> 
20000
(
99517.456
99519.378
99521.367
99524.341
99528.384
99533.792
99540.638
99548.738
99558.486
99570.132
99583.806
99600.266
99619.316
99642.161
99668.392
99699.399
99734.773
99775.722
99821.789
99873.595
99930.306
99991.439
100055.19
100119.53
100181.37
100237.47
100284.5
100320.04
100342.63
100352.28
100350.83
100341.13
100325.08
100302.92
100275.65
100247.64
100218.47
100191.11
100169.7
100134.61
100095.3
100081.36
100105.66
100127.88
100126.68
100080.56
100038.49
100014.78
100004.68
100001.23
99527.523
99529.676
99531.719
99534.821
99539.08
99544.784
99552.025
99560.517
99570.662
99582.752
99596.882
99613.889
99633.507
99657.042
99684.028
99715.936
99752.292
99794.35
99841.6
99894.641
99952.568
100014.79
100079.4
100144.16
100205.86
100261.13
100306.6
100340.02
100359.93
100366.74
100362.67
100350.64
100332.64
100308.81
100280.23
100251.11
100221.1
100193.36
100171.33
100135.35
100097.17
100083.76
100107.42
100127.15
100126.89
100081.13
100039.01
100015.21
100004.91
100001.31
99539.874
99542.032
99544.184
99547.399
99551.828
99557.727
99565.19
99573.935
99584.371
99596.827
99611.366
99628.905
99649.102
99673.357
99701.135
99733.979
99771.36
99814.561
99863.028
99917.328
99976.482
100039.79
100105.2
100170.32
100231.75
100286.01
100329.76
100360.85
100377.86
100381.72
100374.87
100360.39
100340.35
100314.81
100284.86
100254.6
100223.73
100195.6
100172.92
100136.14
100099.26
100086.02
100109.04
100126.76
100127.13
100081.64
100039.52
100015.63
100005.12
100001.39
99553.34
99555.519
99557.777
99561.11
99565.721
99571.815
99579.509
99588.548
99599.329
99612.213
99627.214
99645.341
99666.167
99691.194
99719.809
99753.634
99792.083
99836.471
99886.195
99941.785
100002.18
100066.57
100132.74
100198.11
100259.14
100312.2
100354.03
100382.52
100396.38
100397.17
100387.37
100370.34
100348.18
100320.87
100289.51
100258.07
100226.35
100197.79
100174.44
100136.94
100101.34
100088.18
100110.51
100126.64
100127.43
100082.1
100040
100016.04
100005.32
100001.46
99568.075
99570.316
99572.692
99576.159
99580.974
99587.283
99595.239
99604.595
99615.75
99629.093
99644.58
99663.318
99684.797
99710.621
99740.104
99774.943
99814.501
99860.115
99911.134
99968.045
100029.7
100095.15
100162.02
100227.55
100288.01
100339.65
100379.36
100404.95
100415.47
100412.99
100400.09
100380.41
100356.08
100326.96
100294.16
100261.52
100228.94
100199.94
100175.89
100137.73
100103.34
100090.3
100111.83
100126.64
100127.77
100082.53
100040.45
100016.4
100005.51
100001.54
99584.351
99586.664
99589.171
99592.789
99597.834
99604.387
99612.637
99622.297
99633.802
99647.594
99663.558
99682.91
99705.048
99731.688
99762.065
99797.952
99838.658
99885.54
99937.894
99996.154
100059.07
100125.56
100193.08
100258.64
100318.35
100368.37
100405.69
100428.05
100435.08
100429.11
100412.98
100390.55
100363.99
100333.04
100298.77
100264.93
100231.52
100202.04
100177.27
100138.51
100105.25
100092.35
100113.02
100126.81
100128.17
100082.93
100040.89
100016.71
100005.7
100001.61
99602.291
99604.677
99607.308
99611.073
99616.344
99623.132
99631.656
99641.616
99653.458
99667.697
99684.139
99704.117
99726.932
99754.416
99785.72
99822.694
99864.593
99912.786
99966.516
100026.15
100090.35
100157.85
100225.93
100291.4
100350.14
100398.33
100432.97
100451.77
100455.16
100445.48
100425.97
100400.72
100371.87
100339.05
100303.3
100268.26
100234.03
100204.08
100178.6
100139.29
100107.03
100094.33
100114.13
100127.12
100128.6
100083.31
100041.29
100017
100005.86
100001.67
99621.66
99624.123
99626.872
99630.793
99636.306
99643.338
99652.136
99662.421
99674.624
99689.34
99706.29
99726.93
99750.458
99778.825
99811.1
99849.207
99892.346
99941.896
99997.045
100058.09
100123.56
100192.04
100260.6
100325.8
100383.37
100429.49
100461.11
100476.09
100475.62
100462.04
100439.03
100410.87
100379.69
100344.97
100307.71
100271.48
100236.44
100206.03
100179.83
100140.07
100108.65
100096.22
100115.2
100127.56
100129.08
100083.67
100041.64
100017.25
100005.99
100001.73
99642.318
99644.907
99647.777
99651.877
99657.663
99664.964
99674.065
99684.712
99697.308
99712.54
99730.032
99751.375
99775.655
99804.949
99838.241
99877.528
99921.96
99972.916
100029.53
100092
100158.75
100228.16
100297.09
100361.86
100418.01
100461.8
100490.02
100500.98
100496.39
100478.72
100452.11
100420.96
100387.42
100350.78
100312
100274.56
100238.72
100207.85
100180.9
100140.84
100110.16
100098.01
100116.26
100128.12
100129.6
100084.02
100041.97
100017.49
100006.12
100001.79
99664.44
99667.166
99670.17
99674.466
99680.543
99688.124
99697.544
99708.577
99721.583
99737.356
99755.414
99777.491
99802.558
99832.821
99867.176
99907.695
99953.474
100005.89
100064
100127.93
100195.95
100266.24
100335.42
100399.54
100454.05
100495.19
100519.6
100526.36
100517.37
100495.47
100465.13
100430.96
100395.02
100356.44
100316.13
100277.49
100240.87
100209.53
100181.8
100141.55
100111.58
100099.72
100117.32
100128.79
100130.16
100084.41
100042.32
100017.73
100006.26
100001.85
99688.262
99691.116
99694.238
99698.712
99705.063
99712.907
99722.628
99734.049
99747.472
99763.807
99782.452
99805.298
99831.188
99862.465
99897.938
99939.746
99986.933
100040.86
100100.52
100165.93
100235.2
100306.29
100375.58
100438.84
100491.44
100529.58
100549.81
100552.15
100538.5
100512.21
100478.06
100440.81
100402.46
100361.94
100320.1
100280.27
100242.88
100211.06
100182.54
100142.19
100112.91
100101.35
100118.43
100129.57
100130.76
100084.84
100042.65
100017.92
100006.35
100001.91
99713.296
99716.315
99719.596
99724.305
99730.992
99739.157
99749.225
99761.075
99774.946
99791.877
99811.142
99834.798
99861.561
99893.91
99930.565
99973.727
100022.39
100077.88
100139.14
100206.04
100276.53
100348.35
100417.57
100479.72
100530.14
100564.84
100580.59
100578.23
100559.7
100528.88
100490.84
100450.48
100409.72
100367.26
100323.88
100282.88
100244.74
100212.44
100183.1
100142.75
100114.13
100102.9
100119.61
100130.48
100131.39
100085.19
100042.83
100018.02
100006.41
100001.95
99740.069
99743.234
99746.648
99751.565
99758.546
99766.99
99777.382
99789.658
99803.987
99821.55
99841.482
99866.012
99893.715
99927.204
99965.112
100009.69
100059.89
100117.01
100179.9
100248.3
100319.99
100392.42
100461.37
100522.15
100570.07
100600.85
100611.9
100604.49
100580.87
100545.39
100503.41
100459.94
100416.75
100372.36
100327.46
100285.32
100246.45
100213.66
100183.42
100143.2
100115.26
100104.37
100120.86
100131.54
100132.04
100085.36
100042.91
100018.07
100006.44
100001.97
99768.031
99771.364
99774.921
99780.07
99787.359
99796.119
99806.918
99819.722
99834.602
99852.886
99873.557
99899.031
99927.735
99962.426
100001.65
100047.71
100099.51
100158.31
100222.87
100292.77
100365.6
100438.51
100506.98
100566.11
100611.15
100637.53
100643.63
100630.84
100601.94
100561.69
100515.73
100469.12
100423.54
100377.22
100330.82
100287.56
100248
100214.7
100183.54
100143.55
100116.28
100105.76
100122.17
100132.74
100132.71
100085.42
100042.92
100018.08
100006.45
100001.99
99797.539
99801.076
99804.817
99810.251
99817.895
99827.041
99838.275
99851.628
99867.069
99886.093
99907.52
99933.966
99963.708
99999.645
100040.24
100087.84
100141.31
100201.83
100268.09
100339.49
100413.39
100486.63
100554.37
100611.55
100653.24
100674.79
100675.65
100657.16
100622.8
100577.69
100527.72
100478.01
100430.04
100381.83
100333.95
100289.61
100249.38
100215.58
100183.49
100143.72
100117.18
100107.07
100123.57
100134.1
100133.4
100085.41
100042.84
100018.05
100006.45
100001.99
99829.116
99832.844
99836.756
99842.467
99850.463
99859.988
99871.604
99885.47
99901.45
99921.219
99943.415
99970.864
100001.69
100038.92
100080.94
100130.15
100185.33
100247.63
100315.62
100388.49
100463.39
100536.77
100603.51
100658.4
100696.2
100712.6
100707.8
100683.36
100643.37
100593.33
100539.35
100486.56
100436.23
100386.15
100336.83
100291.45
100250.58
100216.3
100183.23
100143.75
100117.98
100108.32
100125.05
100135.61
100134.11
100085.27
100042.67
100017.96
100006.42
100002
99862.231
99866.187
99870.297
99876.333
99884.726
99894.656
99906.708
99921.143
99937.702
99958.266
99981.271
100009.77
100041.72
100080.31
100123.82
100174.69
100231.66
100295.78
100365.51
100439.84
100515.61
100588.92
100654.35
100706.57
100739.9
100750.84
100739.96
100709.32
100663.55
100608.54
100550.57
100494.73
100442.09
100390.18
100339.46
100293.07
100251.6
100216.85
100182.77
100143.65
100118.69
100109.52
100126.64
100137.28
100134.83
100085
100042.4
100017.82
100006.38
100002
99897.32
99901.498
99905.794
99912.146
99920.919
99931.238
99943.731
99958.752
99975.904
99997.294
100021.14
100050.73
100083.87
100123.85
100168.93
100221.51
100280.33
100346.32
100417.82
100493.55
100570.07
100643.07
100706.86
100755.92
100784.22
100789.36
100772
100734.92
100683.27
100623.26
100561.33
100502.5
100447.59
100393.88
100341.81
100294.47
100252.45
100217.17
100182.08
100143.39
100119.3
100110.67
100128.36
100139.12
100135.55
100084.59
100042.03
100017.62
100006.3
100001.99
99934.183
99938.602
99943.092
99949.785
99958.969
99969.697
99982.656
99998.3
100016.07
100038.32
100063.05
100093.77
100128.15
100169.6
100216.3
100270.69
100331.43
100399.33
100472.6
100549.67
100626.77
100699.17
100760.98
100806.3
100829.07
100827.99
100803.78
100760.05
100702.41
100637.41
100571.58
100509.83
100452.69
100397.25
100343.87
100295.64
100253.13
100217.28
100181.18
100142.97
100119.83
100111.81
100130.2
100141.12
100136.24
100084.02
100041.56
100017.37
100006.21
100001.98
99972.797
99977.487
99982.209
99989.299
99998.936
100010.08
100023.51
100039.79
100058.19
100081.34
100106.99
100138.91
100174.59
100217.58
100266.01
100322.28
100385.02
100454.88
100529.9
100608.23
100685.71
100757.21
100816.61
100857.53
100874.37
100866.55
100835.17
100784.58
100720.9
100650.94
100581.29
100516.69
100457.4
100400.26
100345.63
100296.6
100253.6
100217.22
100180.08
100142.37
100120.29
100112.95
100132.18
100143.29
100136.86
100083.29
100040.98
100017.06
100006.09
100001.95
100013.24
100018.19
100023.15
100030.62
100040.66
100052.21
100066.13
100083.11
100102.18
100126.31
100152.95
100186.15
100223.24
100267.87
100318.13
100376.37
100441.16
100513.02
100589.79
100669.26
100746.88
100817.12
100873.64
100909.46
100919.96
100904.87
100866
100808.41
100738.66
100663.79
100590.42
100523.06
100461.67
100402.9
100347.1
100297.33
100253.8
100216.97
100178.77
100141.58
100120.67
100114.12
100134.32
100145.61
100137.29
100082.39
100040.31
100016.7
100005.95
100001.92
100055.04
100060.3
100065.53
100073.44
100083.94
100096.01
100110.48
100128.25
100148.07
100173.26
100200.99
100235.57
100274.18
100320.56
100372.74
100433.04
100499.96
100573.83
100652.31
100732.78
100810.25
100878.85
100931.88
100961.94
100965.63
100942.78
100896.15
100831.43
100755.6
100675.92
100598.94
100528.92
100465.49
100405.15
100348.28
100297.76
100253.83
100216.51
100177.26
100140.62
100120.98
100115.34
100136.64
100148.08
100137.54
100081.33
100039.53
100016.29
100005.79
100001.88
100098.82
100104.35
100109.85
100118.12
100129.05
100141.64
100156.7
100175.35
100195.99
100222.35
100251.28
100287.34
100327.55
100375.77
100429.95
100492.38
100561.49
100637.39
100717.51
100798.79
100875.8
100942.33
100991.15
101014.85
101011.17
100980.12
100925.46
100853.51
100771.65
100687.27
100606.83
100534.25
100468.85
100407.01
100349.18
100297.91
100253.66
100215.85
100175.57
100139.51
100121.17
100116.64
100139.14
100150.72
100137.66
100080.09
100038.66
100015.84
100005.61
100001.83
100144.06
100149.95
100155.81
100164.52
100176.05
100189.34
100205.07
100224.69
100246.23
100273.82
100303.99
100341.58
100383.48
100433.6
100489.87
100554.5
100625.84
100703.77
100785.42
100867.28
100943.47
101007.43
101051.22
101068.07
101056.34
101016.69
100953.8
100874.57
100786.75
100697.82
100614.05
100539.03
100471.72
100408.51
100349.68
100297.84
100253.28
100214.98
100173.72
100138.29
100121.24
100118.06
100141.83
100153.51
100137.6
100078.7
100037.7
100015.34
100005.42
100001.78
100191.92
100198.17
100204.43
100213.58
100225.72
100239.66
100255.99
100276.55
100298.96
100327.78
100359.23
100398.4
100442.05
100494.14
100552.59
100619.48
100693.09
100773.02
100856.09
100938.26
101013.22
101073.98
101111.9
101121.35
101100.95
101052.32
100981
100894.5
100800.83
100707.52
100620.61
100543.23
100474.11
100409.64
100349.84
100297.5
100252.67
100213.88
100171.71
100137.02
100121.2
100119.64
100144.74
100156.46
100137.15
100077.15
100036.65
100014.81
100005.21
100001.72
100242.11
100248.71
100255.39
100265.01
100277.71
100292.34
100309.27
100330.82
100354.14
100384.24
100417.03
100457.85
100503.33
100557.48
100618.19
100687.42
100763.33
100845.22
100929.54
101011.69
101084.96
101141.77
101173.02
101174.45
101144.77
101086.82
101006.95
100913.21
100813.85
100716.36
100626.46
100546.85
100476.05
100410.25
100349.7
100296.9
100251.83
100212.56
100169.54
100135.76
100121.01
100121.42
100147.86
100159.56
100136.27
100075.46
100035.51
100014.25
100004.99
100001.66
100294.32
100301.34
100308.52
100318.69
100331.96
100347.35
100364.92
100387.51
100411.79
100443.24
100477.45
100520
100567.42
100623.72
100686.78
100758.41
100836.64
100920.42
101005.77
101087.54
101158.58
101210.53
101234.44
101227.06
101187.57
101120.01
101031.52
100930.62
100825.76
100724.31
100631.61
100549.9
100477.51
100410.44
100349.23
100296.03
100250.75
100211
100167.21
100134.47
100120.74
100123.4
100151.18
100162.82
100134.93
100073.62
100034.29
100013.66
100004.76
100001.59
100348.99
100356.41
100364.11
100374.76
100388.54
100404.72
100422.96
100446.66
100471.96
100504.84
100540.56
100584.94
100634.4
100692.96
100758.47
100832.55
100913.1
100998.67
101084.79
101165.74
101233.91
101280.01
101295.93
101278.93
101229.15
101151.73
101054.58
100946.67
100836.54
100731.36
100636.06
100552.41
100478.36
100410.24
100348.44
100294.87
100249.41
100209.17
100164.72
100133.15
100120.49
100125.63
100154.66
100166.22
100133.1
100071.63
100033
100013.04
100004.52
100001.52
100405.73
100413.59
100421.83
100433.01
100447.35
100464.44
100483.41
100508.31
100534.73
100569.13
100606.47
100652.77
100704.38
100765.31
100833.36
100909.96
100992.82
101080.02
101166.57
101246.22
101310.74
101349.97
101357.17
101329.78
101269.25
101181.79
101076.03
100961.29
100846.14
100737.5
100639.81
100554.37
100478.67
100409.63
100347.33
100293.44
100247.8
100207.03
100162.12
100131.83
100120.31
100128.18
100158.21
100169.71
100130.8
100069.44
100031.66
100012.41
100004.28
100001.44
100464.76
100473.11
100481.95
100493.72
100508.63
100526.7
100546.44
100572.61
100600.2
100636.21
100675.27
100723.6
100777.5
100840.9
100911.58
100990.74
101075.85
101164.48
101251.1
101328.88
101388.76
101420.2
101417.83
101379.33
101307.67
101210.04
101095.78
100974.44
100854.56
100742.73
100642.9
100555.65
100478.52
100408.62
100345.88
100291.71
100245.9
100204.5
100159.45
100130.61
100120.21
100131.16
100161.7
100173.25
100128.04
100067.07
100030.26
100011.77
100004.04
100001.37
100526.24
100535.11
100544.58
100556.99
100572.46
100591.55
100612.11
100639.61
100668.46
100706.17
100747.08
100797.57
100853.88
100919.87
100993.27
101075.01
101162.29
101252.09
101338.32
101413.53
101467.64
101490.48
101477.54
101427.31
101344.17
101236.35
101113.74
100986.08
100861.77
100747.08
100645.33
100556.25
100477.86
100407.21
100344.12
100289.7
100243.65
100201.48
100156.82
100129.61
100120.34
100134.7
100164.94
100176.68
100124.82
100064.54
100028.83
100011.13
100003.8
100001.29
100590.17
100599.58
100609.69
100622.77
100638.81
100659
100680.42
100709.37
100739.61
100779.16
100822.06
100874.85
100933.72
101002.4
101078.58
101162.89
101252.18
101342.82
101428.14
101499.95
101547.08
101560.46
101535.96
101473.42
101378.56
101260.57
101129.84
100996.17
100867.79
100750.59
100647.04
100556.34
100476.7
100405.4
100342.04
100287.38
100241.04
100197.91
100154.21
100128.98
100120.84
100139.02
100167.76
100179.74
100121.16
100061.9
100027.38
100010.49
100003.56
100001.22
100656.49
100666.48
100677.21
100691.02
100707.71
100729.14
100751.58
100782.14
100813.9
100855.42
100900.46
100955.65
101017.19
101088.64
101167.65
101254.47
101345.58
101436.67
101520.45
101587.84
101626.78
101629.75
101592.76
101517.38
101410.64
101282.61
101144.03
101004.69
100872.69
100753.28
100647.93
100555.86
100475.06
100403.21
100339.66
100284.76
100238.02
100193.79
100151.54
100128.72
100122.01
100144.26
100170.24
100182.09
100117.13
100059.16
100025.92
100009.85
100003.33
100001.14
100725.41
100736.06
100747.44
100762.24
100779.72
100802.52
100826.03
100858.29
100891.66
100935.22
100982.48
101040.17
101104.46
101178.75
101260.61
101349.86
101442.52
101533.58
101615.08
101676.76
101706.48
101697.87
101647.57
101558.93
101440.24
101302.35
101156.24
101011.69
100876.51
100755.04
100648.2
100554.81
100472.93
100400.65
100336.96
100281.83
100234.56
100189.12
100148.76
100128.67
100124.16
100150.36
100172.72
100183.33
100112.81
100056.38
100024.47
100009.23
100003.1
100001.07
100797.62
100809.01
100821.15
100837.1
100855.3
100879.5
100904.05
100938.02
100973.04
101018.7
101068.28
101128.55
101195.69
101272.88
101357.58
101449.12
101542.99
101633.45
101711.77
101766.34
101785.81
101764.38
101700.04
101597.8
101467.2
101319.72
101166.48
101017.25
100879.17
100755.85
100647.87
100553.21
100470.34
100397.74
100333.97
100278.58
100230.63
100183.97
100145.86
100128.56
100127.42
100156.9
100175.68
100184.08
100108.32
100053.57
100023.03
100008.62
100002.89
100001
100873.37
100885.53
100898.45
100915.5
100934.33
100959.98
100985.63
101021.37
101058.13
101105.98
101158
101220.95
101291.04
101371.18
101458.68
101552.31
101646.97
101736.16
101810.18
101856.18
101864.27
101828.87
101749.82
101633.77
101491.39
101334.64
101174.82
101021.37
100880.56
100755.94
100646.91
100551.06
100467.31
100394.49
100330.68
100275
100226.22
100178.44
100142.91
100127.98
100131.66
100163.52
100179.77
100183.02
100103.78
100050.75
100021.61
100008.04
100002.68
100000.94
100952.41
100965.42
100979.07
100997.28
101016.78
101043.97
101070.8
101108.42
101147.06
101197.22
101251.8
101317.55
101390.69
101473.81
101564.03
101659.47
101754.43
101841.52
101909.84
101945.93
101941.31
101890.87
101796.57
101666.61
101512.68
101347.12
101181.31
101023.82
100880.93
100755.28
100645.33
100548.39
100463.86
100390.91
100327.1
100271.1
100221.25
100172.65
100139.8
100126.92
100136.58
100169.92
100185.3
100179.7
100099.26
100047.93
100020.22
100007.48
100002.49
100000.88
101034.71
101048.66
101063.05
101082.53
101102.78
101131.63
101159.75
101199.37
101240.01
101292.59
101349.88
101418.54
101494.8
101580.91
101673.72
101770.63
101865.25
101949.25
102010.25
102035.17
102016.36
101949.95
101839.97
101696.14
101530.98
101357.23
101185.83
101024.77
100880.32
100753.88
100643.15
100545.22
100460
100387.03
100323.24
100266.84
100215.66
100166.74
100136.45
100125.56
100142.13
100176.47
100191.49
100174.65
100094.67
100045.12
100018.88
100006.94
100002.3
100000.82
101120.48
101135.51
101150.64
101171.52
101192.58
101223.2
101252.71
101294.43
101337.18
101392.29
101452.42
101524.09
101603.56
101692.64
101787.83
101885.76
101979.29
102058.95
102110.89
102123.31
102088.86
102005.67
101879.72
101722.17
101546.3
101364.99
101188.2
101024.44
100878.74
100751.76
100640.39
100541.56
100455.78
100382.86
100319.1
100262.21
100209.4
100160.84
100132.98
100123.98
100148.1
100183.3
100197.97
100168.43
100089.91
100042.35
100017.6
100006.44
100002.13
100000.76
101210.05
101226.3
101242.17
101264.5
101286.42
101318.86
101349.8
101393.72
101438.71
101496.48
101559.63
101634.44
101717.19
101809.16
101906.43
102004.81
102096.32
102170.1
102211.28
102209.68
102158.26
102057.59
101915.55
101744.61
101558.66
101370.2
101188.8
101022.78
100876.23
100748.95
100637.07
100537.46
100451.21
100378.41
100314.69
100257.19
100202.58
100154.98
100129.59
100122.39
100154.23
100190.24
100204.41
100161.5
100085.01
100039.65
100016.37
100005.96
100001.97
100000.71
101303.37
101321.04
101337.6
101361.43
101384.23
101418.61
101451.09
101497.36
101544.83
101605.45
101671.8
101749.86
101835.9
101930.59
102029.54
102127.66
102216
102282
102310.94
102293.52
102224
102105.32
101947.24
101763.4
101568.1
101372.76
101187.68
101019.87
100872.83
100745.47
100633.21
100532.93
100446.32
100373.7
100310.01
100251.75
100195.28
100149.2
100126.45
100121.18
100160.2
100196.82
100210.21
100154
100080.1
100037.05
100015.21
100005.52
100001.82
100000.67
101400.52
101419.7
101436.76
101462.18
101485.99
101522.59
101556.86
101605.74
101655.94
101719.59
101789.29
101870.63
101959.88
102057.04
102157.13
102254.11
102337.86
102394.03
102409.13
102374.15
102285.52
102148.49
101974.62
101778.57
101574.35
101373.15
101184.88
101015.76
100868.58
100741.35
100628.82
100528
100441.14
100368.73
100305.04
100245.85
100187.63
100143.63
100123.62
100120.62
100165.62
100202.36
100214.54
100146.19
100075.3
100034.57
100014.11
100005.11
100001.69
100000.62
101501.43
101522.22
101539.91
101567.35
101592.41
101631.59
101667.87
101719.5
101772.57
101839.3
101912.39
101997
102089.31
102188.54
102289.1
102383.87
102461.23
102505.55
102505.01
102450.86
102342.27
102186.76
101997.58
101790.12
101577.37
101371.33
101180.45
101010.51
100863.53
100736.61
100623.94
100522.71
100435.69
100363.5
100299.77
100239.42
100179.82
100138.45
100121.05
100121.24
100170.44
100205.82
100217.24
100138.36
100070.67
100032.2
100013.09
100004.73
100001.56
100000.58
101607.71
101630.16
101648.85
101678.68
101704.76
101746.41
101784.68
101839.01
101895
101964.83
102041.34
102129.15
102224.27
102325.1
102425.29
102516.49
102585.25
102615.95
102597.62
102522.93
102393.76
102219.91
102016.13
101797.75
101577.68
101367.38
101174.5
101004.2
100857.71
100731.26
100618.58
100517.09
100429.99
100358.03
100294.14
100232.29
100172.06
100133.84
100118.78
100124.72
100175.26
100207.53
100218.7
100130.8
100066.23
100029.95
100012.13
100004.38
100001.45
100000.55
101719.5
101743.97
101763.59
101795.59
101822.76
101866.97
101907.3
101964.4
102023.43
102096.4
102176.35
102267.24
102364.86
102466.64
102565.42
102651.34
102709.13
102724.27
102686.09
102589.65
102439.53
102247.76
102030.22
101801.45
101575.23
101361.38
101167.09
100996.89
100851.17
100725.34
100612.76
100511.16
100424.06
100352.3
100288.07
100224.27
100164.58
100129.8
100117.45
100131.94
100181.4
100207.94
100217.72
100123.63
100061.93
100027.83
100011.24
100004.05
100001.34
100000.51
101837.04
101863.59
101883.89
101918.3
101946.54
101993.4
102035.94
102095.86
102158.1
102234.28
102317.65
102411.43
102511.07
102613
102709.04
102787.57
102832.02
102829.43
102769.51
102650.35
102479.24
102270.23
102039.53
101801.78
101570.12
101353.45
101158.34
100988.64
100843.95
100718.86
100606.5
100504.96
100417.92
100346.31
100281.49
100215.41
100157.37
100126.31
100116.95
100142.17
100189.63
100210.43
100211.63
100116.65
100057.78
100025.84
100010.42
100003.75
100001.25
100000.48
101960.2
101988.9
102009.8
102046.84
102076.22
102125.92
102170.9
102233.75
102299.33
102378.78
102465.47
102561.81
102662.85
102763.91
102855.56
102924.09
102953.08
102930.23
102846.95
102704.41
102512.62
102287.26
102044.07
101798.68
101562.46
101343.7
101148.33
100979.53
100836.06
100711.82
100599.81
100498.49
100411.57
100340.03
100274.29
100205.83
100150.38
100123.36
100116.87
100153.93
100198.81
100216.55
100202.21
100109.56
100053.81
100023.99
100009.66
100003.48
100001.16
100000.46
102088.88
102119.97
102141.51
102181.54
102212.18
102264.97
102312.74
102378.56
102447.51
102530.15
102619.97
102718.42
102820.05
102918.92
103004.11
103059.87
103071.04
103025.52
102917.53
102751.34
102539.51
102298.47
102044.41
101792.29
101552.39
101332.26
101137.15
100969.59
100827.54
100704.24
100592.72
100491.79
100405.02
100333.42
100266.36
100195.69
100143.56
100120.63
100117.61
100166.21
100208.56
100224.26
100191.16
100102.55
100050.09
100022.27
100008.96
100003.23
100001.08
100000.43
102223.61
102257.43
102279.54
102322.89
102354.88
102410.86
102461.8
102530.7
102602.96
102688.59
102781.24
102881.18
102982.37
103077.41
103153.49
103193.82
103184.47
103114.15
102980.43
102790.73
102559.74
102303.88
102040.53
101782.75
101540.08
101319.24
101124.9
100958.9
100818.42
100696.14
100585.22
100484.84
100398.25
100326.42
100257.54
100185.3
100136.93
100117.42
100119.66
100177.9
100218.01
100231.46
100179.9
100095.82
100046.62
100020.68
100008.32
100003.01
100001.01
100000.41
102365.2
102402.13
102424.49
102471.58
102505.12
102564.03
102617.98
102690.19
102765.85
102854.26
102949.3
103049.96
103149.36
103238.47
103302.33
103324.65
103291.87
103194.97
103034.96
102822.3
102572.91
102304.11
102032.58
101770.24
101525.66
101304.78
101111.66
100947.5
100808.71
100687.52
100577.33
100477.65
100391.24
100318.93
100247.6
100174.94
100130.33
100113.35
100123.31
100187.09
100225.04
100236.86
100168.89
100089.52
100043.39
100019.22
100007.74
100002.8
100000.94
100000.39
102514.73
102555.33
102577.76
102628.63
102663.56
102725.42
102782.04
102857.08
102936.35
103027.36
103124.16
103224.44
103320.33
103400.82
103449.23
103450.66
103391.75
103266.87
103080.53
102845.79
102579.07
102299.12
102020.75
101754.95
101509.3
101288.99
101097.52
100935.44
100798.43
100678.38
100569.04
100470.21
100383.97
100310.83
100236.47
100164.69
100123.6
100108.86
100128.15
100192.92
100228.65
100239.9
100158.51
100083.67
100040.38
100017.87
100007.2
100002.61
100000.88
100000.37
102672.45
102717.23
102739.25
102794.13
102830.57
102895.11
102954.7
103032.35
103114.89
103208.01
103305.64
103404.1
103494.21
103562.7
103592.76
103569.92
103482.64
103328.92
103116.69
102860.66
102578.82
102289.13
102005.27
101737.08
101491.15
101272
101082.55
100922.74
100787.6
100668.74
100560.36
100462.47
100376.36
100302.01
100224.29
100154.47
100116.87
100104.37
100133.9
100196.12
100230.09
100242.04
100148.91
100078.17
100037.57
100016.63
100006.71
100002.44
100000.83
100000.35
102838.31
102887.41
102908.75
102967.59
103005.76
103072.86
103135.93
103216.45
103301.73
103396.13
103493.32
103588.04
103669.51
103722.38
103730.85
103680.57
103563.14
103380.33
103143.04
102867.11
102572.14
102274.35
101986.37
101716.83
101471.38
101253.9
101066.81
100909.46
100776.22
100658.59
100551.26
100454.39
100368.37
100292.32
100211.16
100144.3
100110.49
100100.36
100141.43
100198.53
100228.72
100240.97
100140.02
100072.93
100034.97
100015.5
100006.27
100002.28
100000.78
100000.33
103013.3
103066.05
103086.38
103149.1
103189.7
103259.63
103326.42
103409.28
103496.75
103591.36
103686.42
103774.95
103844.18
103877.97
103861.17
103780.72
103632
103420.43
103158.88
102865.63
102559.29
102255.1
101964.31
101694.39
101450.13
101234.81
101050.38
100895.61
100764.33
100647.96
100541.74
100445.9
100359.87
100281.62
100197.29
100134.28
100104.95
100098.09
100151.2
100203.1
100225.55
100233.23
100131.46
100067.96
100032.59
100014.46
100005.87
100002.14
100000.73
100000.32
103197.63
103254
103274.13
103339.9
103383.93
103456.59
103526.58
103610.98
103699.62
103792.97
103883.72
103962.93
104015.9
104027.03
103981.3
103868.57
103688.11
103448.49
103164.62
102856.25
102540.59
102231.66
101939.33
101669.96
101427.54
101214.82
101033.3
100881.22
100751.92
100636.85
100531.78
100436.92
100350.75
100269.69
100183.11
100124.63
100100.04
100097.19
100161.97
100209.79
100227.98
100221.26
100122.95
100063.36
100030.41
100013.52
100005.5
100002.01
100000.69
100000.3
103391.8
103452.46
103473.57
103541.19
103588.7
103663.8
103736.31
103821.27
103909.58
103999.77
104083.43
104149.45
104182.23
104166.64
104088.86
103942.46
103730.47
103463.8
103160.56
102839.32
102516.4
102204.35
101911.7
101643.73
101403.74
101194.01
101015.62
100866.32
100739.01
100625.27
100521.37
100427.36
100340.8
100256.28
100169.25
100115.75
100094.98
100099.27
100173.12
100218.3
100234.61
100207.8
100114.83
100059.15
100028.41
100012.66
100005.16
100001.9
100000.65
100000.29
103596.05
103660.55
103683.38
103754.74
103804.67
103879.93
103954.53
104039.14
104125.42
104210.01
104283.12
104331.52
104340.09
104293.77
104181.56
104000.88
103757.97
103467.02
103146.86
102815.22
102487.1
102173.5
101881.65
101615.87
101378.85
101172.46
100997.38
100850.9
100725.62
100613.26
100510.5
100417.08
100329.79
100241.37
100156.11
100107.56
100089.94
100104.55
100184.12
100227.44
100241.59
100194.67
100107.36
100055.31
100026.57
100011.87
100004.86
100001.79
100000.62
100000.28
103812.13
103880.01
103904.17
103976.7
104030.1
104105.53
104180.76
104263.46
104345.42
104421.24
104479.44
104505.92
104485.83
104405.42
104257.24
104042.45
103770.36
103458.17
103123.92
102784.41
102453.09
102139.43
101849.41
101586.54
101352.98
101150.24
100978.6
100835
100711.76
100600.83
100499.17
100405.99
100317.49
100225.29
100143.62
100100.04
100085.47
100111.06
100192.8
100234.36
100246.41
100182.55
100100.56
100051.76
100024.89
100011.15
100004.58
100001.69
100000.58
100000.27
104038.89
104109.61
104135.63
104208.82
104264.45
104339.24
104413.62
104492.34
104567.01
104630.07
104668.52
104668.64
104615.64
104498.63
104313.86
104065.79
103767.97
103437.57
103092.24
102747.39
102414.8
102102.44
101815.19
101555.88
101326.23
101127.39
100959.31
100818.6
100697.46
100588.04
100487.41
100393.96
100303.66
100208.34
100131.82
100093.36
100081.58
100116.83
100196.61
100237.93
100249.11
100171.43
100094.3
100048.46
100023.36
100010.5
100004.33