/*--------------------------------*- C++ -*----------------------------------*\
| =========                 |                                                 |
| \\      /  F ield         | OpenFOAM: The Open Source CFD Toolbox           |
|  \\    /   O peration     | Version:  2306                                  |
|   \\  /    A nd           | Website:  www.openfoam.com                      |
|    \\/     M anipulation  |                                                 |
\*---------------------------------------------------------------------------*/
FoamFile
{
    version     2.0;
    format      ascii;
    arch        "LSB;label=32;scalar=64";
    class       volScalarField;
    location    "0.007";
    object      T;
}
// * * * * * * * * * * * * * * * * * * * * * * * * * * * * * * * * * * * * * //

dimensions      [0 0 0 1 0 0 0];

internalField   nonuniform List<scalar> 
20000
(
298.45878
298.5403
298.54933
298.47924
298.26579
297.75308
297.34098
297.32753
297.36929
297.39277
297.43099
297.46118
297.49961
297.53583
297.57746
297.61968
297.66629
297.71501
297.76758
297.82279
297.88104
297.94126
298.00261
298.06325
298.12096
298.17303
298.21683
298.25033
298.27258
298.28356
298.28465
298.27837
298.26645
298.24934
298.22778
298.20504
298.18172
298.15856
298.14113
298.11521
298.08161
298.06636
298.08492
298.10605
298.1087
298.0713
298.03424
298.01318
298.00411
298.00106
298.46105
298.54079
298.54787
298.47222
298.24974
297.70903
297.34175
297.33714
297.379
297.40227
297.4408
297.47117
297.51005
297.54669
297.58894
297.63189
297.67933
297.72898
297.78258
297.8389
297.89828
297.95958
298.02185
298.08311
298.141
298.19272
298.23556
298.2676
298.2879
298.29665
298.29571
298.28757
298.274
298.25539
298.23262
298.20892
298.18472
298.16116
298.14296
298.11599
298.08358
298.07005
298.08713
298.10542
298.10908
298.0722
298.03511
298.01375
298.00441
298.00117
298.45653
298.53702
298.54211
298.4617
298.22784
297.6605
297.34341
297.34719
297.38977
297.41325
297.45226
297.483
297.52238
297.55958
297.60245
297.64616
297.69443
297.74505
297.79967
297.85707
297.91751
297.97978
298.04279
298.10443
298.16222
298.21324
298.25475
298.28494
298.30288
298.30914
298.30587
298.29566
298.28035
298.26027
298.23632
298.21166
298.18672
298.16281
298.1442
298.1166
298.085
298.07154
298.08846
298.10495
298.10904
298.07247
298.03537
298.01409
298.00456
298.00122
298.45729
298.53734
298.54025
298.45361
298.20688
297.61796
297.34979
297.35915
297.40189
297.42538
297.46477
297.49583
297.5357
297.57345
297.61698
297.66148
297.71063
297.76225
297.81792
297.87645
297.93799
298.00125
298.06501
298.12703
298.18468
298.23492
298.27502
298.30325
298.31871
298.32243
298.31675
298.30439
298.28727
298.26565
298.24046
298.21481
298.18907
298.16476
298.14558
298.11728
298.0868
298.07372
298.08993
298.10475
298.10921
298.07288
298.03584
298.0144
298.00476
298.00129
298.45739
298.53746
298.53798
298.4445
298.18282
297.57854
297.35916
297.37164
297.41504
297.43868
297.47852
297.51
297.5504
297.58877
297.63299
297.67832
297.72837
297.78103
297.83778
297.89746
297.9601
298.02433
298.08879
298.15109
298.20843
298.25769
298.29619
298.32219
298.33491
298.33597
298.3277
298.3131
298.29412
298.27092
298.24446
298.21779
298.19127
298.16655
298.14686
298.11788
298.08844
298.07553
298.09122
298.10475
298.10936
298.07318
298.03621
298.01468
298.00495
298.00136
298.46053
298.53928
298.53747
298.43585
298.15636
297.54588
297.37112
297.38595
297.42954
297.45331
297.49361
297.5255
297.56644
297.60544
297.65037
297.69655
297.74754
297.80127
297.85914
297.91999
297.98374
298.04894
298.11405
298.17654
298.23345
298.28156
298.31826
298.34178
298.35162
298.34983
298.33886
298.32194
298.30105
298.27626
298.24849
298.2208
298.19349
298.16835
298.14811
298.11846
298.09005
298.07737
298.09241
298.1049
298.10959
298.07347
298.03659
298.01497
298.0051
298.00141
298.4601
298.53981
298.5363
298.42725
298.12663
297.51789
297.38673
297.40133
297.4454
297.46936
297.51008
297.54241
297.58389
297.62354
297.66921
297.71628
297.76823
297.82306
297.88208
297.94413
298.00899
298.07514
298.14085
298.20342
298.25973
298.3065
298.34118
298.36192
298.36875
298.36392
298.35012
298.3308
298.30794
298.28153
298.25247
298.22375
298.19566
298.17008
298.14931
298.11898
298.0914
298.07907
298.09352
298.10523
298.10987
298.07373
298.03692
298.01523
298.00523
298.00148
298.4625
298.54204
298.53689
298.4198
298.09404
297.49544
297.40553
297.41813
297.46258
297.48676
297.52791
297.5607
297.60274
297.64308
297.6895
297.73749
297.79045
297.84642
297.90662
297.96989
298.03588
298.10294
298.16918
298.23171
298.28726
298.33249
298.36489
298.38258
298.38627
298.3782
298.36146
298.33966
298.3148
298.28674
298.25635
298.22661
298.19778
298.17175
298.15046
298.11952
298.09259
298.08067
298.09457
298.10569
298.11021
298.07397
298.0372
298.01545
298.00535
298.00153
298.46368
298.54409
298.53753
298.41287
298.05815
297.47855
297.42371
297.4362
297.48103
297.50549
297.54708
297.58039
297.623
297.66407
297.71129
297.76024
297.81425
297.8714
297.93281
297.99732
298.06443
298.13238
298.19907
298.26143
298.31601
298.35951
298.38932
298.40374
298.40408
298.39262
298.37283
298.34849
298.32159
298.29186
298.26013
298.22936
298.19979
298.17333
298.15151
298.12007
298.09371
298.08215
298.0956
298.10628
298.1106
298.07419
298.03745
298.01564
298.00547
298.00158
298.46591
298.54664
298.53905
298.40696
298.01956
297.46787
297.44324
297.45556
297.50081
297.52558
297.56763
297.60149
297.6447
297.68654
297.73459
297.78455
297.83964
297.89801
297.96068
298.02644
298.09468
298.16348
298.23052
298.29255
298.34596
298.38749
298.41438
298.42536
298.42212
298.40713
298.38419
298.35725
298.32829
298.29687
298.26379
298.23198
298.20168
298.17478
298.1524
298.12061
298.09481
298.08353
298.09662
298.10698
298.11107
298.07442
298.03768
298.01582
298.00557
298.00163
298.4673
298.54916
298.54047
298.40171
297.97886
297.46328
297.46418
297.47633
297.52197
297.54708
297.58959
297.62403
297.66787
297.71052
297.75944
297.81045
297.86667
297.9263
297.99026
298.05731
298.12665
298.19624
298.26354
298.32506
298.37709
298.41638
298.44
298.44738
298.44033
298.42166
298.39549
298.36591
298.33485
298.30174
298.26731
298.23448
298.20346
298.17612
298.15313
298.12109
298.09584
298.08483
298.09765
298.10776
298.11161
298.07468
298.0379
298.01598
298.00567
298.00167
298.47011
298.55257
298.54256
298.39742
297.93776
297.46502
297.4865
297.49846
297.54452
297.56998
297.61298
297.64803
297.69252
297.73602
297.78586
297.83798
297.89537
297.95632
298.0216
298.08994
298.16039
298.23071
298.29813
298.35894
298.40938
298.4461
298.46614
298.46972
298.45863
298.43615
298.40668
298.37443
298.34127
298.30646
298.27068
298.23683
298.20511
298.17733
298.15373
298.1215
298.09679
298.08605
298.09872
298.10864
298.11221
298.07497
298.03808
298.01608
298.00572
298.00171
298.47336
298.55631
298.54429
298.3928
297.89695
297.47299
297.51006
297.52192
297.56842
297.59426
297.63777
297.67348
297.71867
297.76308
297.81389
297.86717
297.92579
297.9881
298.05474
298.12438
298.1959
298.26688
298.33427
298.39417
298.44277
298.47653
298.49275
298.49227
298.47696
298.45056
298.41772
298.38277
298.34751
298.311
298.27388
298.23904
298.20663
298.17841
298.15416
298.12183
298.09767
298.08722
298.09984
298.10961
298.11283
298.07513
298.03811
298.0161
298.00574
298.00173
298.47867
298.56095
298.54645
298.38763
297.85842
297.48669
297.53491
297.54668
297.59366
297.61993
297.66399
297.70041
297.74637
297.79174
297.84358
297.89808
297.95798
298.02168
298.08971
298.16067
298.23323
298.30477
298.37196
298.43072
298.47719
298.50758
298.51979
298.51494
298.49524
298.46481
298.42856
298.39091
298.35354
298.31535
298.2769
298.24108
298.20802
298.17934
298.15436
298.12205
298.09846
298.08832
298.101
298.11069
298.11348
298.07516
298.03807
298.01609
298.00574
298.00174
298.48306
298.5654
298.54744
298.38009
297.82273
297.5052
297.56093
297.5728
297.62031
297.64708
297.69174
297.72894
297.77568
297.82207
297.87498
297.93075
297.99197
298.05712
298.12658
298.19885
298.2724
298.34438
298.41118
298.46856
298.51257
298.53918
298.54715
298.53765
298.51339
298.47884
298.43916
298.3988
298.35935
298.31948
298.27973
298.24296
298.20926
298.18014
298.15443
298.12218
298.09915
298.08937
298.10223
298.1119
298.11415
298.07512
298.03798
298.01604
298.00573
298.00174
298.48873
298.57114
298.54891
298.3703
297.79246
297.52642
297.58862
297.60059
297.6486
297.67588
297.72113
297.75912
297.80668
297.85412
297.90815
297.96523
298.02784
298.09447
298.16537
298.23894
298.31342
298.38571
298.45191
298.50764
298.54879
298.57125
298.57471
298.56031
298.53134
298.4926
298.44946
298.40642
298.36489
298.32338
298.28235
298.24467
298.21035
298.1808
298.15433
298.12214
298.09976
298.09034
298.10354
298.11325
298.11484
298.075
298.03781
298.01595
298.00571
298.00175
298.49563
298.57848
298.55103
298.3574
297.76884
297.55537
297.61795
297.63001
297.6785
297.70632
297.75217
297.79099
297.83939
297.88793
297.94312
298.00158
298.06561
298.13377
298.20613
298.28098
298.35632
298.42876
298.49411
298.54791
298.5857
298.60378
298.60235
298.58282
298.549
298.50602
298.45944
298.41373
298.37016
298.32702
298.28476
298.24619
298.21129
298.18133
298.15404
298.12198
298.10028
298.09126
298.10493
298.11474
298.11554
298.07478
298.03756
298.01582
298.00566
298.00174
298.5038
298.58707
298.55407
298.34028
297.75271
297.58652
297.64875
297.66095
297.70999
297.73839
297.78488
297.82457
297.87386
297.92355
297.97996
298.03984
298.10535
298.17507
298.2489
298.32501
298.40111
298.4735
298.53776
298.58928
298.62322
298.63663
298.62995
298.60508
298.5663
298.51905
298.46904
298.42071
298.37513
298.3304
298.28693
298.24752
298.21208
298.1817
298.15358
298.1217
298.10073
298.09214
298.10641
298.11638
298.11626
298.07443
298.03722
298.01563
298.0056
298.00173
298.51168
298.59684
298.55828
298.31893
297.74324
297.61642
297.6812
297.6936
297.74315
297.77217
297.8193
297.85992
297.91013
297.96102
298.01869
298.08005
298.14709
298.21841
298.29374
298.37105
298.44779
298.51993
298.58281
298.63163
298.66124
298.66969
298.65742
298.627
298.58316
298.53163
298.47823
298.42733
298.37978
298.33349
298.28886
298.24865
298.21272
298.18186
298.15293
298.12127
298.10111
298.093
298.10801
298.11816
298.11697
298.07396
298.0368
298.0154
298.00551
298.00172
298.52023
298.60793
298.56435
298.29327
297.74131
297.6497
297.71523
297.72787
297.77796
297.80765
297.85545
297.89703
297.94821
298.00036
298.05937
298.12227
298.1909
298.26386
298.34067
298.41914
298.49637
298.56802
298.6292
298.67481
298.6997
298.70278
298.68462
298.64848
298.5995
298.5437
298.48697
298.43356
298.38409
298.33629
298.29054
298.2496
298.2132
298.18189
298.1521
298.12068
298.10142
298.09385
298.10973
298.12007
298.11764
298.07335
298.03629
298.01513
298.0054
298.0017
298.52933
298.62017
298.57232
298.26352
297.74702
297.68443
297.75087
297.76378
297.81439
297.8448
297.8933
297.93591
297.98813
298.04161
298.10203
298.16655
298.23683
298.31146
298.38975
298.46929
298.54684
298.61772
298.67685
298.71868
298.73852
298.73578
298.71144
298.66941
298.61525
298.55522
298.49524
298.43938
298.38804
298.33877
298.29196
298.25035
298.21347
298.18176
298.15109
298.11994
298.10166
298.09472
298.11157
298.12211
298.11816
298.07259
298.03569
298.01481
298.00528
298.00167
298.53943
298.63307
298.58222
298.23114
297.76117
297.72082
297.78794
297.8012
297.85239
297.8836
297.93288
297.9766
298.02993
298.08484
298.14675
298.21295
298.28494
298.36126
298.44101
298.52153
298.59918
298.66899
298.72566
298.7631
298.77752
298.76853
298.73776
298.68971
298.63035
298.56615
298.503
298.44478
298.39161
298.34093
298.29313
298.25089
298.21354
298.18148
298.1499
298.11904
298.10184
298.09563
298.11356
298.12428
298.11854
298.0717
298.03501
298.01445
298.00514
298.00163
298.5491
298.64622
298.59288
298.19711
297.78135
297.75865
297.8265
297.84022
297.89204
297.92415
297.97426
298.01919
298.07372
298.13013
298.1936
298.26156
298.3353
298.41333
298.4945
298.57586
298.65338
298.7218
298.77547
298.80796
298.81656
298.80089
298.76344
298.70926
298.64472
298.57643
298.51022
298.44972
298.39479
298.34275
298.29405
298.25115
298.21347
298.18103
298.14856
298.11801
298.10193
298.09658
298.11571
298.1266
298.11883
298.07066
298.03425
298.01405
298.00498
298.00159
298.55995
298.66017
298.60452
298.16354
297.81051
297.79816
297.86675
297.881
297.9335
297.96659
298.0176
298.06381
298.1196
298.17758
298.24268
298.31244
298.38798
298.46773
298.55025
298.63228
298.7094
298.77604
298.82608
298.85318
298.85542
298.83271
298.78836
298.728
298.65831
298.58604
298.5169
298.45421
298.39757
298.34424
298.29471
298.2512
298.21321
298.18041
298.14707
298.11688
298.1019
298.09761
298.11802
298.12906
298.11897
298.06947
298.0334
298.01361
298.00481
298.00154
298.57148
298.67465
298.61587
298.1323
297.84252
297.83953
297.90894
297.9238
297.97698
298.0111
298.06302
298.11056
298.16766
298.22727
298.29406
298.36568
298.44305
298.5245
298.6083
298.6908
298.7672
298.83163
298.87735
298.89861
298.89393
298.86383
298.81241
298.74582
298.67106
298.59494
298.523
298.45822
298.39992
298.34542
298.29502
298.25104
298.21276
298.17962
298.14543
298.11572
298.10178
298.09878
298.12051
298.13166
298.11881
298.06816
298.03248
298.01314
298.00462
298.00149
298.5854
298.69089
298.62717
298.10626
297.88656
297.88316
297.9533
297.96873
298.02257
298.05772
298.11058
298.15949
298.21796
298.27926
298.3478
298.42134
298.50057
298.5837
298.66865
298.75139
298.82672
298.88841
298.92909
298.94404
298.93191
298.89411
298.83546
298.76265
298.68293
298.60312
298.52853
298.46174
298.40187
298.34626
298.29506
298.25065
298.21212
298.17865
298.14365
298.11456
298.10152
298.10011
298.12317
298.1344
298.11831
298.06671
298.03149
298.01264
298.00443
298.00143
298.60041
298.70829
298.63645
298.08692
297.93237
297.92868
297.99959
298.01567
298.0702
298.10646
298.1603
298.21066
298.27056
298.33362
298.40399
298.47949
298.56061
298.64538
298.73133
298.81403
298.88789
298.94618
298.98117
298.98926
298.96918
298.92338
298.8574
298.77841
298.69387
298.61055
298.53346
298.46475
298.40344
298.34665
298.29485
298.25002
298.21127
298.17749
298.14171
298.11338
298.10116
298.10161
298.126
298.13729
298.11743
298.06513
298.03043
298.01212
298.00423
298.00137
298.61744
298.72736
298.64274
298.07444
297.97747
297.97619
298.04788
298.06467
298.11992
298.15736
298.21224
298.26412
298.32554
298.39044
298.4627
298.54022
298.62324
298.70957
298.79634
298.87868
298.95061
299.00471
299.03348
299.03402
299.00553
298.95149
298.87813
298.79304
298.70386
298.61722
298.53778
298.4673
298.40458
298.34671
298.29435
298.24916
298.21021
298.17613
298.13961
298.11219
298.10077
298.10337
298.12896
298.14032
298.11614
298.06341
298.0293
298.01158
298.00402
298.00131
298.63523
298.74829
298.64508
298.07114
298.02681
298.02571
298.09818
298.11577
298.17176
298.21047
298.26646
298.31995
298.38297
298.4498
298.52402
298.6036
298.68851
298.77631
298.86367
298.94528
299.01473
299.06381
299.08578
299.07809
299.04079
298.9783
298.89755
298.80649
298.71286
298.62312
298.5415
298.46938
298.40515
298.34645
298.29357
298.24805
298.20892
298.17451
298.13738
298.11099
298.10042
298.10541
298.13198
298.14345
298.11444
298.06152
298.02812
298.01103
298.00381
298.00124
298.65441
298.77147
298.64299
298.07514
298.078
298.07723
298.15053
298.16902
298.22581
298.26587
298.32305
298.37823
298.44294
298.51179
298.58805
298.66973
298.75651
298.84564
298.93331
299.01376
299.08006
299.12326
299.13782
299.12125
299.07475
299.00366
298.91556
298.81872
298.72086
298.62823
298.54463
298.47096
298.40533
298.34582
298.29252
298.24669
298.20739
298.1726
298.13507
298.10986
298.10014
298.10783
298.13495
298.14668
298.11233
298.05947
298.0269
298.01046
298.00359
298.00118
298.67418
298.79756
298.63725
298.09049
298.13163
298.13092
298.20507
298.22453
298.28215
298.32364
298.38209
298.43906
298.50556
298.57652
298.6549
298.7387
298.82729
298.91757
299.00521
299.08402
299.14631
299.18291
299.18931
299.16325
299.10723
299.02745
298.9321
298.82967
298.72784
298.63257
298.54721
298.47192
298.40512
298.34486
298.29118
298.24507
298.20558
298.17028
298.13274
298.10889
298.10004
298.11067
298.13772
298.1499
298.1098
298.05728
298.02564
298.00989
298.00338
298.00111
298.69424
298.82666
298.62969
298.11617
298.18725
298.18674
298.26178
298.28232
298.34082
298.38387
298.44368
298.50256
298.57096
298.64411
298.72466
298.8106
298.90091
298.9921
299.07933
299.15591
299.21324
299.24256
299.23994
299.20386
299.13804
299.04955
298.9471
298.83933
298.7338
298.63618
298.54922
298.47239
298.40446
298.34357
298.28958
298.24319
298.20347
298.16751
298.1304
298.10821
298.10021
298.1142
298.14015
298.1529
298.10687
298.05498
298.02437
298.00933
298.00317
298.00105
298.71331
298.85869
298.62135
298.15226
298.24498
298.24484
298.32076
298.34253
298.40199
298.44672
298.50799
298.56889
298.63928
298.71469
298.79746
298.88551
298.97741
299.06923
299.15559
299.22923
299.28057
299.30188
299.28943
299.24285
299.16701
299.06986
298.9605
298.84766
298.73877
298.63908
298.55054
298.4724
298.4034
298.34195
298.28771
298.24105
298.20104
298.16425
298.128
298.10783
298.1009
298.11855
298.14233
298.15542
298.10357
298.0526
298.02308
298.00876
298.00296
298.00098
298.73158
298.89305
298.61404
298.19783
298.30494
298.30535
298.38224
298.40539
298.46588
298.5124
298.57521
298.63821
298.71067
298.7884
298.87342
298.96351
299.05681
299.14891
299.23388
299.30369
299.34807
299.36055
299.33748
299.27996
299.19398
299.08827
298.97226
298.85468
298.74279
298.64126
298.55123
298.47193
298.40192
298.34001
298.28557
298.23863
298.19826
298.16049
298.12548
298.10763
298.10229
298.12368
298.14449
298.15707
298.09999
298.05017
298.0218
298.00821
298.00276
298.00092
298.74867
298.92896
298.60965
298.24857
298.36764
298.36876
298.44659
298.4712
298.53273
298.58109
298.6455
298.71066
298.78526
298.86535
298.95262
299.04466
299.13914
299.23111
299.31404
299.37894
299.41553
299.41818
299.3838
299.31499
299.21882
299.10471
298.98233
298.86041
298.74588
298.64261
298.55143
298.47098
298.40005
298.33778
298.28317
298.23594
298.19511
298.15627
298.12283
298.10741
298.10457
298.12926
298.14708
298.15838
298.0962
298.04772
298.02053
298.00768
298.00257
298.00086
298.76561
298.9657
298.61111
298.31006
298.43331
298.43518
298.51391
298.54003
298.60261
298.65288
298.71895
298.78636
298.86317
298.94567
299.03516
299.12902
299.22437
299.31572
299.39585
299.45468
299.4826
299.47439
299.42809
299.3477
299.24138
299.11911
298.99074
298.86492
298.74797
298.64323
298.55109
298.46956
298.3978
298.33526
298.28053
298.23298
298.19158
298.15166
298.12016
298.1067
298.10765
298.13497
298.15064
298.15826
298.09231
298.04525
298.01927
298.00716
298.00239
298.0008
298.78271
299.00187
298.61998
298.37064
298.50178
298.50454
298.58416
298.61192
298.67558
298.72788
298.79569
298.86544
298.94452
299.02946
299.12113
299.21663
299.31248
299.40262
299.47902
299.53055
299.54887
299.52884
299.47006
299.37791
299.26156
299.13144
298.99754
298.86819
298.74899
298.64326
298.55023
298.46769
298.39518
298.33246
298.27763
298.22975
298.18763
298.14676
298.11734
298.10548
298.11151
298.14056
298.15542
298.15622
298.08839
298.04277
298.01805
298.00666
298.00221
298.00075
298.80088
299.03583
298.63791
298.43819
298.57306
298.57685
298.65741
298.68695
298.75177
298.8062
298.87586
298.94803
299.02946
299.11684
299.21061
299.30751
299.40343
299.49166
299.56315
299.6063
299.61388
299.58114
299.50942
299.40545
299.27926
299.14169
299.00277
298.87002
298.74921
298.64264
298.54884
298.46539
298.39222
298.3294
298.2745
298.22623
298.1832
298.14167
298.11434
298.10403
298.11576
298.14627
298.16088
298.15251
298.0844
298.0403
298.01686
298.00618
298.00205
298.0007
298.82067
299.06687
298.66584
298.50933
298.64729
298.65229
298.73381
298.76529
298.83133
298.88802
298.95961
299.03428
299.11812
299.20795
299.30368
299.40165
299.4971
299.58258
299.64779
299.68154
299.67715
299.63093
299.54591
299.43014
299.29443
299.14994
299.00628
298.87064
298.7486
298.6414
298.54695
298.46267
298.38894
298.32609
298.27113
298.22244
298.17821
298.13654
298.11125
298.10236
298.12039
298.1522
298.16664
298.14776
298.08024
298.03785
298.01571
298.00574
298.0019
298.00065
298.8433
299.09516
298.70272
298.58451
298.72463
298.73106
298.81353
298.84712
298.91442
298.97346
299.0471
299.12435
299.21067
299.30289
299.40039
299.49903
299.59335
299.67505
299.73253
299.75578
299.73822
299.67784
299.57928
299.45187
299.30706
299.15619
299.00798
298.87021
298.74717
298.63955
298.54458
298.45957
298.38535
298.32254
298.26753
298.21836
298.17273
298.13139
298.10819
298.10055
298.12526
298.15819
298.17244
298.14243
298.07595
298.03546
298.01462
298.00531
298.00176
298.00061
298.86943
299.12214
298.74973
298.66342
298.80527
298.81331
298.89668
298.93253
299.00117
299.06271
299.13851
299.21845
299.30726
299.40178
299.50078
299.59959
299.69199
299.7686
299.81698
299.82846
299.79663
299.72151
299.60931
299.47053
299.31719
299.16021
299.00826
298.86865
298.74496
298.63714
298.54176
298.4561
298.38149
298.31876
298.2637
298.21399
298.1668
298.12628
298.10535
298.09891
298.1301
298.16388
298.17787
298.13649
298.07164
298.03316
298.01359
298.00492
298.00162
298.00057
298.89875
299.14817
298.80888
298.74565
298.8891
298.89901
298.98331
299.02168
299.09182
299.15602
299.23412
299.3168
299.40807
299.50471
299.60483
299.7032
299.79272
299.86265
299.90076
299.89895
299.85192
299.7616
299.63582
299.48609
299.32482
299.16201
299.00709
298.86604
298.74201
298.63417
298.53849
298.45229
298.37737
298.31475
298.25964
298.2093
298.1605
298.1213
298.10276
298.0976
298.13462
298.1687
298.18234
298.13013
298.06741
298.03095
298.01261
298.00455
298.0015
298.00053
298.92996
299.17455
298.88352
298.83129
298.97627
298.98849
299.07383
299.115
299.18675
299.25373
299.33418
299.41959
299.51325
299.61174
299.71251
299.80967
299.89512
299.9567
299.9832
299.9667
299.90362
299.79782
299.65866
299.49858
299.32967
299.16207
299.00449
298.86243
298.73836
298.63066
298.5348
298.44818
298.37302
298.31052
298.25533
298.20425
298.15396
298.11662
298.10046
298.09712
298.13881
298.1719
298.18555
298.1236
298.06332
298.02884
298.0117
298.00421
298.00139
298.00049
298.96452
299.20325
298.96451
298.92102
299.06752
299.08247
299.16885
299.21295
299.28634
299.35612
299.43893
299.527
299.62287
299.72288
299.82372
299.91874
299.99864
300.0502
300.06365
300.0311
299.95127
299.82989
299.67777
299.508
299.33184
299.16024
299.00054
298.85787
298.73403
298.62665
298.5307
298.44378
298.36845
298.30608
298.25075
298.19869
298.14733
298.11245
298.09819
298.09906
298.14315
298.1736
298.18797
298.11715
298.05939
298.02684
298.01084
298.0039
298.00129
298.00046
299.00342
299.23674
299.04174
299.01616
299.16373
299.18143
299.26866
299.31574
299.39076
299.46335
299.5485
299.63916
299.73703
299.8381
299.93828
300.03002
300.10253
300.14269
300.14128
300.09157
299.99448
299.85761
299.69312
299.51401
299.33181
299.15661
298.99531
298.85242
298.72906
298.62213
298.52623
298.43913
298.36369
298.30141
298.24586
298.19243
298.1408
298.10875
298.09649
298.10455
298.14866
298.17415
298.18848
298.1109
298.05558
298.02494
298.01004
298.00361
298.0012
298.00043
299.04721
299.27656
299.13783
299.11569
299.26431
299.28515
299.37322
299.42343
299.50015
299.57559
299.66309
299.75621
299.85575
299.95731
300.05593
300.14299
300.20616
300.23333
300.21539
300.14753
300.03285
299.88086
299.7047
299.51675
299.3294
299.15128
298.98888
298.84614
298.72348
298.61714
298.52139
298.43424
298.35874
298.29652
298.24061
298.18543
298.1344
298.10549
298.09558
298.11253
298.15603
298.17636
298.18465
298.10473
298.05188
298.02316
298.00931
298.00334
298.00111
298.00041
299.09627
299.32357
299.23742
299.22022
299.36956
299.39386
299.48275
299.53625
299.61475
299.69308
299.78288
299.87822
299.97903
300.08035
300.17628
300.2569
300.30882
300.32125
300.28522
300.1984
300.06611
299.89955
299.71216
299.51672
299.32475
299.14433
298.98133
298.83908
298.71733
298.61168
298.51621
298.42914
298.35362
298.29139
298.23496
298.17772
298.12811
298.10268
298.0948
298.12198
298.16427
298.18169
298.1777
298.09846
298.04835
298.0215
298.00863
298.0031
298.00103
298.00038
299.1511
299.38237
299.34411
299.32963
299.47952
299.50779
299.59757
299.6545
299.73483
299.81606
299.90804
300.00527
300.10677
300.20697
300.29882
300.37086
300.40986
300.40545
300.35003
300.24369
300.09402
299.91363
299.7156
299.51375
299.31798
299.13587
298.97273
298.83129
298.71062
298.60576
298.51068
298.42384
298.34832
298.286
298.22883
298.16939
298.1219
298.10005
298.09433
298.13217
298.17293
298.18864
298.16896
298.09223
298.04501
298.01996
298.008
298.00288
298.00096
298.00036
299.21098
299.44925
299.4561
299.44447
299.59453
299.6274
299.71813
299.7786
299.8607
299.9447
300.03865
300.13733
300.23881
300.33674
300.42281
300.48401
300.50818
300.485
300.40907
300.28299
300.11644
299.92274
299.7156
299.50801
299.30919
299.12601
298.96317
298.82282
298.70337
298.5994
298.50484
298.41834
298.34284
298.2803
298.22206
298.16066
298.11583
298.09685
298.09466
298.14216
298.18122
298.19529
298.1601
298.08623
298.04191
298.01854
298.00743
298.00267
298.0009
298.00034
299.27655
299.52425
299.57388
299.56533
299.71498
299.7533
299.84468
299.9088
299.99257
300.07911
300.17476
300.27432
300.37487
300.46911
300.54725
300.59547
300.60265
300.55896
300.46168
300.31594
300.13327
299.92694
299.71198
299.49962
299.29853
299.11485
298.95273
298.81371
298.69561
298.59261
298.49867
298.41265
298.33717
298.27426
298.21447
298.15175
298.10975
298.09288
298.09631
298.15036
298.18751
298.2008
298.15116
298.08061
298.03901
298.01722
298.0069
298.00249
298.00084
298.00032
299.34916
299.6117
299.69738
299.69353
299.84141
299.88536
299.97769
300.04503
300.13059
300.21943
300.31638
300.41608
300.51453
300.60332
300.67097
300.70419
300.69199
300.62636
300.50727
300.3423
300.14407
299.92687
299.70492
299.48875
299.28611
299.10249
298.94147
298.80401
298.68735
298.58538
298.49219
298.40675
298.33128
298.2678
298.20587
298.14279
298.10362
298.08845
298.0991
298.15586
298.19085
298.20456
298.14248
298.07537
298.0363
298.016
298.00642
298.00232
298.00078
298.00031
299.42958
299.71208
299.82734
299.82845
299.97406
300.02385
300.11665
300.18745
300.27494
300.36583
300.46348
300.5623
300.65712
300.73829
300.79282
300.80877
300.77503
300.68631
300.54534
300.36188
300.14894
299.92235
299.6946
299.47555
299.2721
299.08905
298.92946
298.79374
298.67861
298.57773
298.48539
298.40061
298.32513
298.26088
298.19628
298.13375
298.09756
298.08395
298.1028
298.15918
298.19223
298.20784
298.13425
298.07044
298.03378
298.01489
298.00599
298.00217
298.00074
298.00029
299.51763
299.82745
299.96315
299.9706
300.1131
300.1687
300.26215
300.33695
300.42596
300.51834
300.61582
300.71245
300.80175
300.87252
300.91168
300.90759
300.85054
300.73805
300.5755
300.37415
300.1485
299.91358
299.68121
299.4602
299.2566
299.07461
298.91676
298.78295
298.6694
298.56966
298.47826
298.39419
298.31869
298.25341
298.18573
298.12466
298.09187
298.0797
298.1083
298.16185
298.19128
298.2085
298.12641
298.06574
298.03143
298.01387
298.00559
298.00203
298.00069
298.00028
299.61045
299.95968
300.10474
300.11938
300.25834
300.31966
300.41547
300.49363
300.58376
300.67677
300.77296
300.86569
300.94713
301.00458
301.02582
300.99918
300.9174
300.78088
300.59747
300.37928
300.14259
299.90079
299.66495
299.44286
299.23977
299.05928
298.90344
298.77165
298.65972
298.56119
298.4708
298.38745
298.31188
298.24527
298.17434
298.1156
298.08688
298.07654
298.11619
298.16639
298.1887
298.20352
298.11874
298.06127
298.02928
298.01294
298.00523
298.0019
298.00065
298.00027
299.70875
300.10642
300.2525
300.27524
300.41063
300.4791
300.57639
300.65733
300.74813
300.84074
300.93414
301.02088
301.09153
301.13292
301.13331
301.08198
300.97455
300.81422
300.61051
300.37786
300.13146
299.88422
299.64604
299.42371
299.22172
299.04313
298.88954
298.75987
298.6496
298.55232
298.46299
298.38033
298.30463
298.2363
298.1624
298.10676
298.08244
298.07413
298.1254
298.17277
298.19089
298.19479
298.11108
298.05712
298.02731
298.01209
298.0049
298.00179
298.00061
298.00025
299.81606
300.26713
300.40861
300.43874
300.57125
300.64687
300.74474
300.82808
300.91867
301.00952
301.09826
301.17641
301.23302
301.25556
301.23221
301.15453
301.02105
300.83752
300.61506
300.3697
300.11539
299.86413
299.6247
299.40292
299.20258
299.02626
298.87511
298.74763
298.63904
298.54306
298.45482
298.37273
298.29682
298.22626
298.15041
298.09853
298.07769
298.07407
298.13537
298.18063
298.19686
298.18425
298.10377
298.05332
298.0255
298.01131
298.00459
298.00168
298.00058
298.00024
299.93564
300.44306
300.57106
300.61133
300.74328
300.82206
300.92063
301.00541
301.09461
301.18202
301.26375
301.33015
301.36958
301.37008
301.32059
301.21543
301.056
300.85001
300.61149
300.35517
300.09468
299.8408
299.60114
299.38063
299.18246
299.00873
298.86019
298.73494
298.62805
298.53343
298.44628
298.36458
298.28833
298.2149
298.13879
298.09091
298.07274
298.07696
298.14547
298.18887
298.20334
298.17383
298.09702
298.04984
298.02384
298.0106
298.00432
298.00158
298.00055
298.00023
300.06954
300.62415
300.74611
300.79503
300.92086
301.00373
301.10277
301.18832
301.27481
301.35665
301.42854
301.47958
301.49874
301.47403
301.39655
301.2634
301.07861
300.85244
300.59968
300.33457
300.06966
299.81449
299.57556
299.35701
299.16145
298.99059
298.8448
298.72182
298.61664
298.52344
298.43736
298.35579
298.27902
298.20234
298.12758
298.08393
298.06813
298.08109
298.15363
298.19508
298.2083
298.16399
298.09087
298.04662
298.02232
298.00995
298.00407
298.0015
298.00052
298.00022
300.22081
300.81825
300.92631
300.98568
301.10643
301.19239
301.2907
301.37566
301.45761
301.5312
301.58981
301.62211
301.61747
301.56496
301.45829
301.29732
301.08842
300.84475
300.58008
300.3083
300.04067
299.78548
299.54818
299.33219
299.13966
298.97192
298.82898
298.70828
298.60482
298.51312
298.42808
298.34629
298.26877
298.18866
298.1168
298.07776
298.06389
298.08483
298.15771
298.19851
298.21178
298.15467
298.0852
298.04364
298.02093