/*--------------------------------*- C++ -*----------------------------------*\
| =========                 |                                                 |
| \\      /  F ield         | OpenFOAM: The Open Source CFD Toolbox           |
|  \\    /   O peration     | Version:  2306                                  |
|   \\  /    A nd           | Website:  www.openfoam.com                      |
|    \\/     M anipulation  |                                                 |
\*---------------------------------------------------------------------------*/
FoamFile
{
    version     2.0;
    format      ascii;
    arch        "LSB;label=32;scalar=64";
    class       volVectorField;
    location    "575";
    object      momentError;
}
// * * * * * * * * * * * * * * * * * * * * * * * * * * * * * * * * * * * * * //

dimensions      [0 1 -2 0 0 0 0];

internalField   nonuniform List<vector> 
10720
(
(-5.88081e-05 0.000157989 -6.95743e-15)
(-4.63171e-05 0.000192638 2.41135e-14)
(-3.86912e-05 0.000245627 -4.72326e-14)
(-2.04165e-06 0.000229209 1.778e-14)
(1.84749e-05 0.000238304 1.10239e-13)
(3.5778e-05 0.000238354 -1.75099e-13)
(5.91422e-05 0.000269089 8.99984e-14)
(8.95176e-05 0.000288319 -1.11069e-13)
(0.000125698 0.000298321 -2.5463e-13)
(0.000154157 0.000276062 3.44117e-13)
(0.000168537 0.000243133 1.24149e-13)
(0.000175742 0.000218821 -2.28811e-13)
(0.0001746 0.000191637 -3.34526e-13)
(0.000178126 0.000170889 -5.72036e-14)
(0.000191505 0.000159567 -1.39768e-13)
(0.000218101 0.000156525 -3.10394e-13)
(0.000274616 0.000163161 -1.46757e-13)
(0.000372631 0.000167542 8.32706e-13)
(0.00017686 9.01134e-05 4.23307e-13)
(0.000898068 0.000441428 -5.95089e-13)
(0.000931846 0.000324892 1.05315e-13)
(0.00080243 -9.6479e-05 1.53273e-13)
(-0.00853149 -0.00124202 -6.74716e-14)
(-0.0126949 -0.00263954 -1.51574e-13)
(0.00801678 -0.000183095 3.57102e-14)
(0.0215551 0.00380586 -2.34317e-15)
(0.0141663 0.00481353 4.15487e-14)
(-0.00128545 0.00275393 -1.64643e-14)
(-0.00875534 0.000757918 4.39563e-14)
(-0.0051097 -7.18302e-06 1.54492e-13)
(-0.00145519 -0.000165439 3.0309e-14)
(-0.000238792 -9.83439e-05 -1.28625e-13)
(0.000666209 -9.20572e-05 -7.92221e-15)
(0.000787707 -9.45221e-05 -2.15704e-13)
(0.000758901 -0.000210419 -2.8231e-13)
(0.000825575 -0.00135122 1.1549e-13)
(-0.000786143 -0.0115792 -1.13969e-14)
(-0.0527143 -0.0723417 4.18325e-16)
(-1.19485 0.130286 -5.67022e-14)
(-7.6298e-05 0.000151802 -1.0766e-14)
(-8.8633e-05 0.000102393 2.65582e-14)
(-9.86796e-05 6.76481e-05 1.73226e-15)
(-8.55524e-05 2.48363e-05 3.61654e-14)
(-8.08361e-05 8.07364e-06 -3.2885e-14)
(-2.04555e-05 -6.34469e-05 -9.4022e-14)
(3.03777e-06 -8.1214e-05 -1.07345e-13)
(8.64625e-05 -0.000145801 2.99401e-14)
(9.99873e-05 -8.41051e-05 -7.52064e-14)
(5.71973e-05 -2.35943e-05 9.57956e-14)
(1.61095e-05 2.5923e-05 -6.00384e-14)
(-3.43464e-05 4.88293e-05 -1.46125e-13)
(-5.30807e-05 4.86824e-05 -1.64675e-13)
(-6.15769e-05 4.27317e-05 1.3209e-14)
(-6.13045e-05 3.45946e-05 1.33035e-13)
(-5.69678e-05 2.68419e-05 3.99406e-14)
(-5.10775e-05 2.05724e-05 -5.03068e-14)
(-4.47487e-05 1.54287e-05 -3.54748e-14)
(-3.83937e-05 1.18118e-05 -2.18179e-14)
(-3.2456e-05 8.6399e-06 3.90397e-14)
(-2.64035e-05 6.85481e-06 1.72959e-14)
(-2.10645e-05 5.18278e-06 2.50512e-14)
(-1.60422e-05 5.47341e-06 -3.38373e-14)
(-1.53057e-05 6.28104e-06 -2.46547e-14)
(-1.8775e-05 6.39511e-06 1.81837e-14)
(-2.32829e-05 6.03761e-06 1.24069e-14)
(-2.89443e-05 4.70372e-06 6.92983e-15)
(-3.4164e-05 4.60764e-06 -1.46239e-15)
(-3.34653e-05 1.94695e-06 -2.84486e-16)
(-2.44475e-05 5.75439e-06 2.3073e-16)
(-2.40941e-05 1.85577e-06 -4.51482e-16)
(-3.27436e-05 1.34375e-06 -1.86793e-15)
(-3.68941e-05 3.25995e-07 -1.2599e-15)
(-5.59296e-05 -1.25486e-06 -3.84256e-15)
(-8.48695e-05 -3.74412e-06 -2.91026e-15)
(-4.81672e-05 3.33439e-06 1.26222e-15)
(-0.000107603 1.22986e-05 -2.16359e-15)
(-0.000320989 0.000132779 -1.10554e-14)
(-0.00214072 0.00125305 -2.14909e-14)
(-9.77047e-05 0.000167682 -1.31424e-14)
(-8.7114e-05 0.000190727 5.8845e-15)
(-6.91481e-05 0.000225864 7.81391e-15)
(-3.74309e-05 0.000218965 -3.36621e-14)
(-6.25753e-06 0.000216843 2.10326e-14)
(1.83305e-06 0.000231275 8.03965e-14)
(3.52748e-05 0.000259574 1.03894e-13)
(6.08324e-05 0.000280218 1.00638e-13)
(9.50203e-05 0.000287239 -3.98773e-15)
(0.000120137 0.000268542 1.9068e-13)
(0.00013335 0.000235306 -2.08859e-13)
(0.00013455 0.000198804 -1.19528e-13)
(0.000137783 0.00017647 4.48617e-13)
(0.000137453 0.000159426 1.28258e-13)
(0.000158484 0.000136453 -1.19187e-13)
(0.000171575 0.000116041 -1.78004e-14)
(0.000170787 0.00011143 3.42057e-13)
(0.000158702 0.00015703 -1.53339e-13)
(-0.000589938 0.00040432 -4.91941e-13)
(-0.00352994 0.000459265 1.88443e-13)
(0.00219888 0.00045299 2.35433e-13)
(-0.00741572 0.00109158 4.6775e-14)
(0.00960455 -0.00182306 -1.30874e-13)
(0.0670229 0.00650984 1.92543e-13)
(0.0651514 0.0131014 -4.19925e-14)
(-0.0108496 0.0080101 -7.04807e-14)
(-0.0441022 0.00271772 -3.01917e-14)
(-0.0487283 -0.00251061 5.59894e-15)
(-0.0241895 -0.00340453 -1.49948e-14)
(-0.00211957 -0.00152393 -1.58756e-14)
(0.00115024 -0.000235555 -2.03969e-14)
(-0.000614983 -5.8515e-05 3.52723e-14)
(-0.000320839 -0.000108654 -1.88212e-13)
(0.000396188 -0.000135358 -2.24044e-13)
(0.000773803 -0.000171766 1.62301e-13)
(0.00120648 -0.000482498 -3.9495e-14)
(0.0016004 -0.00229969 3.30593e-14)
(0.0320001 -0.0141365 -1.40038e-14)
(0.986958 -0.118533 -4.40522e-14)
(-0.000107791 0.000147435 -4.63885e-15)
(-0.000128854 0.000114251 1.24099e-13)
(-0.000134659 7.70591e-05 -7.98388e-15)
(-0.000134001 3.82355e-05 -1.29075e-13)
(-0.000114824 9.454e-08 -2.56851e-14)
(-7.69794e-05 -4.00834e-05 1.27346e-13)
(-4.2986e-05 -6.25526e-05 1.11416e-13)
(1.02424e-05 -7.79313e-05 5.95854e-14)
(3.48035e-05 -3.49683e-05 -8.25876e-14)
(2.42381e-05 7.33582e-06 -1.06488e-14)
(1.1827e-06 4.02054e-05 1.01897e-13)
(-2.77663e-05 5.20769e-05 -5.21e-15)
(-4.47934e-05 5.12029e-05 1.22903e-14)
(-5.36731e-05 4.46852e-05 -2.47922e-14)
(-5.55302e-05 3.627e-05 -3.25879e-14)
(-5.30095e-05 2.82086e-05 1.41525e-14)
(-4.86154e-05 2.13624e-05 1.7087e-14)
(-4.31889e-05 1.60139e-05 -5.80435e-14)
(-3.76019e-05 1.18558e-05 2.69296e-14)
(-3.19086e-05 8.82428e-06 1.7845e-14)
(-2.64673e-05 6.31472e-06 1.46788e-14)
(-2.1291e-05 4.8269e-06 3.1909e-14)
(-1.72898e-05 3.8713e-06 4.17814e-14)
(-1.66081e-05 5.10769e-06 1.76491e-14)
(-1.97365e-05 5.24048e-06 -1.51651e-14)
(-2.39166e-05 5.22196e-06 8.1611e-16)
(-2.90976e-05 4.57815e-06 -5.68175e-15)
(-3.47483e-05 3.68112e-06 -2.08568e-15)
(-3.36206e-05 1.97015e-06 3.93289e-16)
(-2.84128e-05 -7.8731e-07 -3.86649e-17)
(-4.22973e-05 3.9967e-06 2.8312e-16)
(-4.74345e-05 -1.66895e-08 6.14212e-16)
(-5.38414e-05 -1.24003e-06 1.8499e-15)
(-5.68758e-05 -5.26433e-06 2.35652e-15)
(-6.23021e-05 -9.49932e-06 7.67075e-16)
(-9.08577e-05 -2.44766e-07 -1.55165e-15)
(-0.000152366 7.03638e-07 -6.70368e-17)
(-0.000349188 -1.00849e-05 3.77863e-15)
(-0.0015554 -0.000220121 9.20239e-15)
(-6.81373e-05 0.000156609 -5.07371e-15)
(-5.83985e-05 0.000168981 -8.20212e-16)
(-3.7144e-05 0.000187294 -5.83697e-15)
(-5.07894e-06 0.000187457 1.55514e-14)
(1.34954e-05 0.000186544 3.91317e-15)
(2.65325e-05 0.00020813 -3.37372e-14)
(4.67132e-05 0.000230455 -1.07609e-13)
(7.16093e-05 0.000251621 -9.54174e-14)
(0.000100349 0.000249228 -1.11322e-13)
(0.000123899 0.000231225 1.10097e-14)
(0.000137717 0.000203319 2.64052e-13)
(0.000144032 0.000175918 7.06209e-14)
(0.000149007 0.000151065 -9.9311e-14)
(0.000155407 0.000130229 -2.41053e-13)
(0.000151422 0.000120628 1.10245e-13)
(0.000142454 0.000113237 1.45922e-13)
(0.000172863 6.9959e-05 -9.42421e-14)
(0.00027998 -0.000152965 -1.89373e-13)
(0.000899769 -0.00118096 3.17157e-13)
(0.00430387 -0.00172609 -9.489e-14)
(-7.44996e-06 0.000486448 -1.19561e-13)
(0.00212313 -0.00445136 1.78553e-13)
(0.00126327 -0.00396944 7.3897e-14)
(-0.015307 -0.00934467 -3.35087e-15)
(-0.0461861 -0.00979915 -3.30801e-14)
(-0.0570492 -0.00119139 3.55714e-15)
(-0.0513366 -0.000318847 -3.05916e-14)
(-0.0198177 -0.00213733 2.1061e-14)
(0.0457384 -0.000524093 -3.31706e-14)
(0.02356 0.000916015 -7.20983e-14)
(0.00341257 0.000119209 6.96062e-14)
(-0.000811213 -0.000540789 3.08564e-14)
(0.001083 -0.000397396 -1.21845e-13)
(0.000528585 -0.000216595 7.82229e-14)
(0.000610683 -0.000168157 1.65103e-14)
(0.00102427 -0.00030292 -3.61597e-14)
(0.00265241 -0.00123389 -9.98094e-14)
(0.0160288 -0.00197832 2.76687e-14)
(0.110949 -0.00950271 6.03168e-15)
(-9.37906e-05 0.000133006 2.92179e-14)
(-0.000107713 0.00011007 -2.76868e-14)
(-0.000119056 7.89433e-05 -9.8343e-14)
(-0.000117157 4.92829e-05 4.48517e-14)
(-0.000102871 1.65608e-05 2.05983e-14)
(-8.03024e-05 -1.14385e-05 -6.45708e-14)
(-5.28246e-05 -2.91969e-05 1.35491e-14)
(-2.14802e-05 -3.33943e-05 -1.17648e-13)
(-2.63445e-06 -7.50153e-06 -7.91931e-14)
(-2.40637e-06 1.75425e-05 -8.81237e-14)
(-1.56791e-05 3.65037e-05 9.75412e-14)
(-3.25054e-05 4.43599e-05 1.4533e-14)
(-4.49136e-05 4.43876e-05 -1.36542e-14)
(-5.17587e-05 3.98785e-05 -8.08995e-14)
(-5.3368e-05 3.3454e-05 -5.80884e-14)
(-5.13175e-05 2.66484e-05 3.78566e-14)
(-4.74604e-05 2.06135e-05 -2.1374e-14)
(-4.25897e-05 1.56813e-05 -4.39722e-14)
(-3.73174e-05 1.18908e-05 -4.00347e-15)
(-3.18937e-05 8.88381e-06 -4.02392e-14)
(-2.65779e-05 6.93467e-06 -4.3e-14)
(-2.1527e-05 5.89289e-06 -8.43247e-14)
(-1.75735e-05 6.55518e-06 -6.39427e-14)
(-1.67575e-05 8.44236e-06 -1.79983e-14)
(-1.94665e-05 8.85199e-06 3.95026e-15)
(-2.34396e-05 8.13608e-06 -1.14737e-15)
(-2.81971e-05 6.7316e-06 -1.05282e-14)
(-3.35724e-05 5.15225e-06 4.47364e-15)
(-3.27647e-05 1.75567e-06 5.81706e-16)
(-2.73873e-05 4.72324e-06 -1.81311e-16)
(-3.29793e-05 2.07854e-06 -9.50509e-18)
(-3.98678e-05 7.12494e-07 -5.34353e-16)
(-4.44191e-05 3.22187e-06 -9.83434e-16)
(-5.09607e-05 3.57448e-06 -1.46503e-15)
(-5.13006e-05 1.003e-05 1.86594e-15)
(-4.42155e-07 1.8117e-05 3.6319e-17)
(-0.000202466 -8.89912e-06 1.44734e-14)
(-0.00033308 2.67132e-05 8.75051e-15)
(-0.00127215 -0.000230277 -1.0337e-13)
(-5.59076e-05 0.00013045 7.92673e-15)
(-4.05224e-05 0.000155283 -2.34386e-15)
(-2.33683e-05 0.000164271 6.65893e-17)
(4.81214e-06 0.00016784 -7.13003e-15)
(1.5131e-05 0.000173395 1.99584e-15)
(3.10853e-05 0.000194803 3.58143e-14)
(4.9417e-05 0.000220084 5.84656e-14)
(7.34987e-05 0.000229447 5.46314e-14)
(9.89386e-05 0.000225607 -1.33388e-13)
(0.000119592 0.000209191 -1.11642e-13)
(0.000131592 0.000183892 1.41517e-13)
(0.00013918 0.000159593 2.56581e-13)
(0.000143071 0.000138388 1.35702e-13)
(0.000146382 0.000121703 -4.72147e-13)
(0.000151043 0.000108208 -1.62161e-13)
(0.000188522 7.70057e-05 3.8591e-13)
(0.000213694 5.82818e-05 8.39267e-14)
(0.000257744 5.31009e-05 -1.2427e-13)
(0.000400004 0.000296064 -2.28418e-13)
(7.74677e-05 0.00132106 1.97915e-13)
(0.000966903 5.1744e-05 4.3595e-14)
(0.00374204 0.00219492 -2.22444e-13)
(0.000906844 -0.0010821 1.65577e-13)
(-0.0015979 -0.000327167 -1.1416e-13)
(-0.00222686 0.0067808 -3.71967e-14)
(0.00513931 0.00556226 3.56399e-14)
(0.00386647 0.00644166 -4.55793e-14)
(0.104638 -0.0106192 1.00805e-14)
(-0.0138901 -0.00511559 1.36425e-14)
(0.0330666 -0.00718023 2.09591e-14)
(0.0083955 0.00174434 -9.02256e-15)
(0.0172752 -0.000991135 2.55408e-14)
(0.00525411 6.92561e-05 2.07247e-13)
(0.00108858 -0.000190015 5.34747e-14)
(0.000541841 -7.69952e-05 -7.58575e-14)
(0.000639778 -0.000116388 -1.16593e-13)
(0.00112837 -0.00050815 1.66391e-14)
(0.00617314 0.000296166 -2.82603e-14)
(0.0327871 -0.00911899 4.72052e-14)
(-7.82279e-05 0.000118066 1.88164e-14)
(-9.15236e-05 0.000104595 -3.68743e-14)
(-0.000101679 8.24819e-05 -4.04092e-15)
(-9.90431e-05 5.81e-05 -3.37242e-14)
(-9.09495e-05 3.06385e-05 -2.08221e-14)
(-7.44292e-05 8.19623e-06 7.34766e-14)
(-5.50455e-05 -9.36351e-06 -1.8417e-13)
(-3.25674e-05 -1.11083e-05 1.69127e-13)
(-2.18526e-05 5.92693e-06 2.01469e-15)
(-1.98765e-05 2.12954e-05 -1.20416e-13)
(-2.72103e-05 3.40766e-05 -7.02475e-14)
(-3.68075e-05 4.03423e-05 -1.98382e-14)
(-4.51106e-05 4.13034e-05 5.9586e-14)
(-4.98336e-05 3.83714e-05 1.29281e-13)
(-5.08635e-05 3.31428e-05 2.11142e-14)
(-4.90079e-05 2.71697e-05 -4.73378e-14)
(-4.56401e-05 2.15245e-05 2.21982e-14)
(-4.13314e-05 1.66712e-05 5.00095e-14)
(-3.64847e-05 1.29329e-05 -3.67787e-15)
(-3.14192e-05 9.84341e-06 -7.78279e-15)
(-2.63954e-05 7.86872e-06 -2.14374e-14)
(-2.16847e-05 6.71236e-06 5.28066e-14)
(-1.80503e-05 7.19292e-06 3.09351e-14)
(-1.72521e-05 8.79996e-06 -1.07666e-14)
(-1.95677e-05 9.27452e-06 -1.69118e-14)
(-2.332e-05 8.61639e-06 -6.96403e-15)
(-2.79846e-05 7.29301e-06 1.26251e-14)
(-3.31517e-05 5.8406e-06 -8.91347e-16)
(-3.24437e-05 2.49344e-06 -5.1345e-16)
(-2.78621e-05 2.80757e-06 2.01635e-16)
(-3.2511e-05 6.26874e-06 -3.9895e-17)
(-4.1882e-05 -3.22632e-06 -3.67653e-17)
(-5.99425e-05 -5.12672e-05 2.74448e-16)
(-0.000122717 -0.000233865 5.1206e-16)
(1.65803e-05 0.000283737 -3.22943e-15)
(-0.000444564 -0.00107648 7.59858e-15)
(0.000374966 0.00190909 -1.28747e-14)
(-0.000296598 -0.000390925 -2.99164e-14)
(-0.001175 -0.000221459 -1.02978e-16)
(-4.51675e-05 0.000115006 -4.04106e-15)
(-2.6474e-05 0.000131724 4.77979e-15)
(-6.53864e-06 0.000145802 5.65048e-17)
(1.31402e-05 0.000151046 -4.17632e-15)
(2.34753e-05 0.000161227 -2.88316e-14)
(3.65847e-05 0.000182206 3.46357e-14)
(5.70564e-05 0.000199261 1.2634e-14)
(7.99353e-05 0.000203391 -7.01524e-14)
(0.000102546 0.000197162 -5.82309e-14)
(0.000121343 0.000180745 -1.21381e-13)
(0.000133026 0.000157741 1.74614e-14)
(0.00014078 0.000135914 -1.32354e-13)
(0.000145331 0.00011612 8.04617e-15)
(0.000149934 9.89223e-05 3.54352e-13)
(0.000156153 8.26549e-05 -2.34206e-13)
(0.000160963 7.22399e-05 -1.67665e-13)
(0.000168954 5.96666e-05 1.01579e-13)
(0.000192962 3.58341e-05 -1.31966e-13)
(0.000292118 3.93255e-05 8.48917e-14)
(0.000309258 -4.5979e-05 -1.4397e-13)
(0.000552233 5.18975e-05 -1.61817e-13)
(0.000413636 -0.000220924 1.83267e-13)
(-3.60306e-05 -0.000903471 -4.05353e-14)
(0.00249747 -0.0012996 8.96875e-14)
(0.00703956 0.000235007 5.67709e-14)
(0.00165006 0.0044822 6.31311e-15)
(0.0178981 0.00174406 1.0882e-13)
(-0.0594051 0.0084345 -2.11382e-14)
(0.0034519 0.00117859 2.25299e-14)
(-0.00500582 -0.00292466 -5.53665e-14)
(-0.0125522 -0.00418095 -1.55695e-13)
(0.0082507 0.00242775 1.3591e-15)
(0.00218818 0.000312055 1.40181e-13)
(0.00114773 0.000160085 -3.31425e-14)
(-0.00103237 0.000169534 -1.04861e-13)
(-0.000223435 0.000147122 1.18027e-13)
(9.18897e-05 -0.000129915 -3.96429e-14)
(0.00325782 0.000769237 -1.66246e-14)
(0.0197151 -0.00948816 -9.80066e-16)
(-5.61553e-05 0.00010627 2.02826e-14)
(-7.11464e-05 9.84634e-05 1.43635e-14)
(-7.76506e-05 8.34983e-05 -3.19922e-14)
(-8.06716e-05 6.1993e-05 7.88747e-14)
(-7.58434e-05 3.96413e-05 1.86884e-13)
(-6.68184e-05 2.05485e-05 -6.87529e-14)
(-5.44533e-05 5.33184e-06 -7.24483e-14)
(-3.95429e-05 4.31412e-06 1.50439e-13)
(-3.22637e-05 1.42637e-05 1.26935e-13)
(-3.0837e-05 2.35395e-05 3.5648e-14)
(-3.5156e-05 3.17081e-05 -5.19378e-14)
(-4.11299e-05 3.62815e-05 5.91809e-14)
(-4.63667e-05 3.73183e-05 4.54278e-14)
(-4.92925e-05 3.51959e-05 -3.9818e-15)
(-4.94294e-05 3.0986e-05 -9.37209e-14)
(-4.74206e-05 2.57923e-05 3.96392e-15)
(-4.42796e-05 2.08573e-05 3.73007e-15)
(-4.02944e-05 1.64856e-05 2.06825e-16)
(-3.58097e-05 1.29994e-05 1.51383e-14)
(-3.10185e-05 1.01302e-05 -5.43059e-15)
(-2.62617e-05 8.4331e-06 1.2301e-14)
(-2.18076e-05 7.59015e-06 -2.67241e-14)
(-1.83565e-05 8.57134e-06 -1.53649e-14)
(-1.74277e-05 1.03339e-05 1.55016e-14)
(-1.93557e-05 1.11804e-05 2.09527e-14)
(-2.28784e-05 1.04406e-05 1.25521e-15)
(-2.75083e-05 8.83771e-06 -1.23689e-15)
(-3.25879e-05 6.57036e-06 -3.25985e-15)
(-3.21952e-05 2.66749e-06 6.54242e-16)
(-2.79485e-05 4.20392e-06 -1.04563e-16)
(-3.22542e-05 5.33834e-06 -5.30347e-16)
(-3.98924e-05 8.83902e-06 -2.80146e-17)
(-4.20479e-05 7.70923e-05 7.69944e-17)
(-2.4454e-05 0.000307985 -7.07567e-17)
(-0.000121307 -0.000466111 -9.28836e-16)
(0.000138616 0.00123973 -6.92325e-16)
(-0.000101252 -0.00255504 1.03011e-14)
(-0.000357683 0.00049086 -1.08694e-14)
(-0.000934993 -0.000200873 5.47872e-15)
(-3.01353e-05 0.000103578 1.93828e-15)
(-1.66586e-05 0.00011355 5.06791e-16)
(4.74155e-07 0.000128693 3.16249e-15)
(1.64172e-05 0.000141728 -2.45878e-15)
(2.5819e-05 0.000152022 -1.08435e-15)
(3.99637e-05 0.000169511 1.63381e-14)
(6.05896e-05 0.000181949 7.60514e-15)
(8.2003e-05 0.000181803 4.04773e-14)
(0.00010293 0.00017497 6.79653e-14)
(0.000119851 0.000159058 -3.20432e-14)
(0.000130936 0.000138684 -7.79472e-15)
(0.000138608 0.000119332 7.50086e-14)
(0.000143835 0.000101395 -1.45507e-13)
(0.000147494 8.50698e-05 -2.89384e-13)
(0.000152241 6.92401e-05 1.75229e-13)
(0.000158871 5.38587e-05 2.68354e-13)
(0.000181487 2.18342e-05 -3.55848e-13)
(0.000206886 -3.71007e-06 6.06679e-14)
(0.00027043 5.09446e-06 1.11899e-13)
(0.000396685 -8.428e-05 -1.12965e-13)
(0.000464909 -0.000406517 8.56212e-14)
(0.000480017 -0.000858413 -8.73351e-14)
(-3.61291e-05 -0.00195229 -1.69251e-13)
(-0.00122534 -0.00220906 -5.03166e-14)
(-0.0023123 8.76578e-05 -1.16204e-13)
(-0.00221788 0.00322403 5.63226e-14)
(-0.00692884 0.00434913 -1.62121e-14)
(-0.000939223 0.00125704 -1.09033e-14)
(0.000609853 -0.00115913 2.13823e-14)
(-0.0313973 0.00226519 4.23929e-14)
(0.0140015 -0.00273403 3.28979e-14)
(-0.0051288 0.000992535 -4.52636e-14)
(0.00253788 0.000420963 -1.1645e-13)
(0.000734112 0.000380237 -1.48659e-13)
(-0.00117947 0.00038378 3.37767e-14)
(-0.00238136 0.000879488 7.33202e-14)
(-0.00137984 -2.99602e-05 8.4614e-14)
(0.00254609 0.000757625 3.84842e-14)
(0.0166947 -0.0100661 2.88108e-14)
(-4.12135e-05 9.743e-05 8.5949e-15)
(-5.1452e-05 9.36469e-05 -2.06929e-14)
(-5.85336e-05 8.14622e-05 1.04909e-14)
(-6.22136e-05 6.32307e-05 -5.83379e-15)
(-6.24226e-05 4.50214e-05 4.68176e-15)
(-5.97784e-05 2.66536e-05 -7.81819e-14)
(-5.26258e-05 1.52598e-05 -2.9426e-14)
(-4.33245e-05 1.41298e-05 -3.50567e-14)
(-3.86661e-05 1.90541e-05 2.74176e-14)
(-3.7812e-05 2.45888e-05 1.35735e-13)
(-4.06832e-05 2.97068e-05 -3.03588e-14)
(-4.46741e-05 3.29789e-05 -5.88493e-14)
(-4.78667e-05 3.3806e-05 2.50175e-15)
(-4.92817e-05 3.21445e-05 -5.12985e-14)
(-4.85203e-05 2.87052e-05 1.7003e-14)
(-4.61826e-05 2.42755e-05 2.54111e-14)
(-4.30877e-05 1.99995e-05 3.93181e-14)
(-3.93498e-05 1.61585e-05 1.5049e-14)
(-3.51304e-05 1.29482e-05 -1.7703e-14)
(-3.06013e-05 1.03485e-05 2.27255e-14)
(-2.61528e-05 8.70615e-06 2.51825e-14)
(-2.19829e-05 8.08305e-06 1.82592e-14)
(-1.88174e-05 8.9839e-06 3.81562e-15)
(-1.77812e-05 1.06505e-05 -1.44096e-14)
(-1.93648e-05 1.1484e-05 1.18015e-14)
(-2.25605e-05 1.09832e-05 3.28032e-15)
(-2.7079e-05 9.31565e-06 -1.13707e-14)
(-3.20049e-05 7.06968e-06 1.2234e-15)
(-3.19377e-05 3.03767e-06 -1.18419e-16)
(-2.81323e-05 3.98481e-06 2.05563e-16)
(-3.18098e-05 5.03841e-06 6.67044e-16)
(-3.80412e-05 -1.19864e-07 -1.60467e-16)
(-3.71717e-05 -1.85123e-05 -2.50637e-16)
(-2.38575e-05 -8.52083e-05 5.63579e-16)
(-0.000142805 0.000204961 1.39429e-15)
(7.58083e-05 -7.09689e-05 -1.19133e-14)
(-0.000474829 0.000808374 3.44852e-15)
(-0.00022816 -0.000184208 4.42007e-14)
(-0.00126683 0.000375771 3.10339e-14)
(-1.4902e-05 9.20548e-05 3.09102e-15)
(-6.38099e-06 0.000103944 5.82452e-16)
(4.99345e-06 0.000118123 -1.1264e-15)
(1.87112e-05 0.000132802 4.16962e-15)
(2.8356e-05 0.000143895 -8.69019e-15)
(4.26685e-05 0.000156867 -1.09433e-15)
(6.32049e-05 0.000163043 2.35995e-14)
(8.29262e-05 0.000161457 -1.11468e-14)
(0.000102432 0.000153507 -3.96142e-14)
(0.000118402 0.000138599 2.65385e-14)
(0.000129064 0.000120014 -6.07785e-14)
(0.000137422 0.00010221 -1.50861e-13)
(0.000142859 8.55821e-05 1.06603e-13)
(0.00014638 6.92842e-05 3.77166e-13)
(0.000150792 5.26799e-05 -1.38923e-14)
(0.000156723 3.46697e-05 -4.01368e-13)
(0.000164019 1.69038e-05 3.32533e-13)
(0.000183332 -2.33966e-06 2.33369e-13)
(0.000230744 -2.02399e-05 1.24569e-13)
(0.000297198 -9.49541e-05 5.87362e-14)
(0.000347078 -0.000264973 -2.88418e-14)
(0.000356403 -0.000633397 1.61935e-13)
(-0.000232774 -0.00139472 1.11967e-13)
(-0.00153903 -0.00153771 -1.01885e-14)
(-0.00194292 3.50798e-05 2.14258e-13)
(-0.000112822 0.0019905 -6.57046e-14)
(0.00305374 0.00171348 -7.65291e-15)
(0.00292895 9.50377e-05 5.67712e-15)
(0.00143167 -0.000931089 -2.01406e-14)
(0.00087844 -0.00136072 -2.08063e-14)
(-0.00155461 -0.000774858 -1.52576e-14)
(-0.0018002 0.00029395 4.77751e-14)
(0.000472257 0.000402402 -2.27677e-14)
(0.00106942 0.000329746 -1.27984e-13)
(-0.0011051 0.000556157 -2.08084e-14)
(-0.0237015 0.0076676 -1.0264e-13)
(0.00547341 -0.00261086 -5.75853e-14)
(0.00219767 0.00139199 6.46803e-15)
(0.0131696 -0.00923619 -2.59306e-14)
(-2.67845e-05 8.94429e-05 -9.66502e-15)
(-3.5504e-05 8.74147e-05 1.2194e-14)
(-4.39887e-05 7.77902e-05 -2.61343e-14)
(-4.98685e-05 6.07261e-05 -3.94507e-15)
(-5.26681e-05 4.25448e-05 7.38141e-15)
(-5.27025e-05 2.93698e-05 1.10947e-14)
(-4.90061e-05 2.03258e-05 8.06389e-14)
(-4.45608e-05 1.97614e-05 -1.01462e-13)
(-4.20207e-05 2.20241e-05 -3.28009e-14)
(-4.21414e-05 2.5012e-05 -3.11479e-14)
(-4.4453e-05 2.80988e-05 1.17307e-13)
(-4.7335e-05 3.03013e-05 -4.64458e-14)
(-4.93131e-05 3.06849e-05 -4.56718e-15)
(-4.95432e-05 2.91975e-05 1.8539e-14)
(-4.80374e-05 2.61274e-05 1.77851e-14)
(-4.53318e-05 2.23688e-05 1.20879e-14)
(-4.21996e-05 1.87314e-05 -7.68253e-14)
(-3.85707e-05 1.5466e-05 -2.81417e-14)
(-3.45456e-05 1.25906e-05 3.58169e-14)
(-3.02456e-05 1.03224e-05 1.4287e-15)
(-2.60745e-05 8.78177e-06 3.63859e-14)
(-2.21979e-05 8.39801e-06 -1.03901e-14)
(-1.92287e-05 9.26932e-06 1.50657e-15)
(-1.81182e-05 1.0964e-05 2.42352e-14)
(-1.93177e-05 1.19637e-05 -2.03627e-14)
(-2.22461e-05 1.17857e-05 -6.98974e-15)
(-2.6537e-05 1.03404e-05 6.58206e-15)
(-3.13743e-05 7.83286e-06 2.19788e-15)
(-3.15636e-05 3.70917e-06 -1.16907e-18)
(-2.82448e-05 4.27505e-06 -2.57082e-16)
(-3.16945e-05 5.00042e-06 6.3751e-16)
(-3.89796e-05 1.31497e-06 7.50595e-17)
(-4.54213e-05 2.0288e-06 -1.08031e-15)
(-5.67959e-05 3.69742e-06 5.43646e-17)
(-8.56576e-05 6.98023e-06 -3.16235e-15)
(-0.000165714 -0.000191429 7.24131e-15)
(-0.000124264 -0.000131647 -1.53638e-15)
(-0.000207177 6.26006e-05 -2.46443e-15)
(-0.000697537 -0.000399269 -4.22075e-14)
(-9.12359e-06 8.45586e-05 1.40113e-15)
(-3.13383e-06 9.83945e-05 1.51054e-15)
(7.2553e-06 0.000112898 -9.49552e-16)
(2.04852e-05 0.000125635 -1.91882e-15)
(2.94002e-05 0.000134571 -3.80277e-15)
(4.50809e-05 0.00014594 1.65054e-14)
(6.40069e-05 0.000149235 1.38751e-14)
(8.25507e-05 0.000144744 -5.19114e-14)
(0.000100277 0.000135751 2.17311e-14)
(0.00011491 0.000121758 1.11285e-13)
(0.00012573 0.000104337 4.63176e-14)
(0.000134244 8.853e-05 2.13133e-14)
(0.000140059 7.29764e-05 -1.87882e-13)
(0.000143488 5.71406e-05 -4.29855e-13)
(0.000146649 4.06902e-05 -3.04036e-13)
(0.000150564 2.292e-05 1.20067e-13)
(0.000156371 3.06242e-06 -7.38522e-14)
(0.000177003 -2.66678e-05 -3.77114e-13)
(0.000215809 -6.26815e-05 -1.94584e-13)
(0.000265049 -0.000153126 1.60888e-13)
(0.000294924 -0.000307917 1.60969e-13)
(0.000251371 -0.000589265 -9.33447e-14)
(-0.000190745 -0.00108161 -3.83132e-14)
(-0.00113126 -0.00105864 2.39751e-15)
(-0.00149402 0.000279301 -6.0965e-14)
(-0.00026648 0.00186562 6.32922e-14)
(0.00149598 0.00161669 7.2196e-15)
(0.00184938 -6.79688e-05 4.32048e-15)
(0.00101803 -0.00102925 -4.41647e-15)
(-0.000420256 -0.000810378 5.21804e-14)
(-0.000770276 -0.000263427 3.4964e-14)
(-0.00104506 0.000258957 -3.44712e-15)
(-0.000118704 0.000407998 1.13113e-13)
(0.000761408 0.0001269 7.80705e-14)
(0.00126192 -0.0019965 -4.04145e-14)
(0.0150119 -0.00215406 7.07878e-14)
(0.00345298 0.00157771 5.8216e-14)
(0.000807345 0.00182958 -3.49768e-14)
(0.00741843 -0.008007 -2.77452e-14)
(-1.80635e-05 8.06084e-05 7.39127e-15)
(-2.76668e-05 8.02036e-05 -1.20441e-14)
(-3.68014e-05 6.91815e-05 3.26933e-15)
(-4.45483e-05 5.42713e-05 6.10928e-14)
(-4.65108e-05 4.31434e-05 3.14461e-15)
(-4.68398e-05 3.02483e-05 1.01651e-13)
(-4.51655e-05 2.34949e-05 1.36655e-13)
(-4.36627e-05 2.33285e-05 -5.29995e-14)
(-4.3403e-05 2.36052e-05 -7.25299e-14)
(-4.44465e-05 2.49919e-05 -5.54111e-14)
(-4.68406e-05 2.68109e-05 -1.02164e-13)
(-4.9247e-05 2.80669e-05 -5.52865e-15)
(-5.04524e-05 2.79742e-05 -4.305e-14)
(-4.99293e-05 2.63661e-05 5.78122e-14)
(-4.78045e-05 2.35766e-05 1.93966e-14)
(-4.47921e-05 2.03307e-05 -3.07511e-14)
(-4.15767e-05 1.7326e-05 -3.26307e-15)
(-3.79824e-05 1.45555e-05 -2.54404e-14)
(-3.40589e-05 1.20682e-05 2.7909e-15)
(-2.99532e-05 1.00318e-05 -1.77679e-14)
(-2.60105e-05 8.72367e-06 -3.33798e-14)
(-2.24461e-05 8.42504e-06 1.47957e-14)
(-1.96619e-05 9.3064e-06 -2.76254e-14)
(-1.8517e-05 1.08801e-05 -1.00664e-14)
(-1.93725e-05 1.20561e-05 6.28565e-15)
(-2.20046e-05 1.21154e-05 3.97113e-15)
(-2.60065e-05 1.1026e-05 1.56319e-15)
(-3.06831e-05 8.45792e-06 -1.03504e-15)
(-3.1127e-05 4.44465e-06 -4.35121e-16)
(-2.83099e-05 4.31357e-06 -7.72708e-17)
(-3.147e-05 5.06208e-06 -1.03017e-15)
(-3.8611e-05 1.95012e-06 5.5326e-16)
(-4.54268e-05 1.49058e-06 3.06313e-15)
(-5.52941e-05 -9.01864e-07 5.11835e-17)
(-7.09947e-05 -9.35186e-06 2.49736e-15)
(-7.07357e-05 -3.52803e-05 -3.42281e-15)
(-0.00011275 5.36147e-06 -6.46652e-15)
(-0.000228159 -4.54228e-05 3.78593e-15)
(-0.000300786 -0.000601807 -2.26298e-14)
(-9.06968e-06 7.71834e-05 2.41731e-15)
(-2.75319e-06 8.90157e-05 4.02435e-15)
(5.94425e-06 0.000108084 -1.76075e-16)
(1.96389e-05 0.000117564 2.16627e-19)
(3.02186e-05 0.000119773 -2.54026e-15)
(4.48729e-05 0.000132388 -6.73418e-15)
(6.25261e-05 0.00013345 -4.93856e-15)
(8.05666e-05 0.0001308 -5.2368e-14)
(9.71218e-05 0.000122455 -1.00713e-15)
(0.000110424 0.000108007 1.92803e-14)
(0.000120743 9.14544e-05 -2.32914e-14)
(0.000130656 7.6307e-05 1.41246e-13)
(0.000136428 6.19323e-05 1.49071e-13)
(0.000139723 4.65482e-05 2.69491e-14)
(0.000141998 3.0024e-05 2.76871e-13)
(0.000144737 1.18629e-05 -5.76105e-14)
(0.000148513 -8.78838e-06 -7.29755e-16)
(0.000158658 -3.21101e-05 2.14469e-13)
(0.000186228 -7.00791e-05 9.99258e-14)
(0.000213339 -0.000148566 -2.94233e-14)
(0.00021684 -0.000277631 -1.21911e-13)
(0.000147142 -0.000485858 -1.15865e-14)
(-0.00019602 -0.000795426 -9.36595e-14)
(-0.000875122 -0.000709947 -8.10375e-14)
(-0.0011289 0.000335178 4.88748e-14)
(-0.000152204 0.00156956 -3.10927e-14)
(0.0012866 0.00138549 -5.64885e-14)
(0.0016777 -2.22373e-05 6.45152e-15)
(0.000895697 -0.000924973 -3.11508e-15)
(-3.30653e-05 -0.000808049 -3.83238e-15)
(-0.000580501 -0.000216598 8.20606e-14)
(-0.000682782 0.00027132 -2.93314e-14)
(-0.000282808 0.00043817 -3.90402e-14)
(0.000333256 0.000294946 2.27056e-13)
(0.00140832 -0.000202663 3.706e-14)
(0.00971551 -0.00530211 -8.29286e-14)
(-0.00650507 0.003284 -1.57666e-14)
(-0.00396188 0.00443184 2.61455e-14)
(0.000799601 -0.00989527 -5.08438e-15)
(-1.69652e-05 7.35856e-05 -1.31444e-14)
(-2.48689e-05 7.08611e-05 -3.10176e-14)
(-3.42873e-05 6.24277e-05 5.06888e-14)
(-3.62152e-05 5.24335e-05 9.71643e-14)
(-4.09795e-05 4.01221e-05 6.43188e-14)
(-4.25847e-05 3.10108e-05 -1.65789e-13)
(-4.24461e-05 2.72004e-05 -1.14058e-13)
(-4.19266e-05 2.53118e-05 -3.87774e-14)
(-4.31529e-05 2.39814e-05 7.08571e-14)
(-4.55013e-05 2.4518e-05 7.32028e-14)
(-4.8096e-05 2.55747e-05 2.72944e-14)
(-5.04211e-05 2.61719e-05 2.50397e-14)
(-5.1202e-05 2.55768e-05 -2.67404e-14)
(-5.02328e-05 2.36982e-05 -8.73371e-14)
(-4.7722e-05 2.10425e-05 1.34147e-14)
(-4.45259e-05 1.82516e-05 2.7094e-14)
(-4.11958e-05 1.57724e-05 1.84377e-14)
(-3.75847e-05 1.34397e-05 5.10857e-14)
(-3.37044e-05 1.1347e-05 -2.84805e-14)
(-2.97492e-05 9.52591e-06 -2.12612e-14)
(-2.60284e-05 8.45892e-06 -1.5318e-14)
(-2.27108e-05 8.25375e-06 -3.15586e-15)
(-2.01179e-05 9.11765e-06 2.4638e-14)
(-1.89021e-05 1.06028e-05 1.64548e-14)
(-1.9506e-05 1.18988e-05 1.90872e-14)
(-2.17923e-05 1.22919e-05 6.46993e-15)
(-2.5537e-05 1.15334e-05 2.82239e-17)
(-2.99359e-05 9.21075e-06 2.21307e-15)
(-3.0651e-05 5.05797e-06 -3.08454e-16)
(-2.82736e-05 4.53717e-06 3.02085e-16)
(-3.12487e-05 4.92441e-06 -3.7977e-16)
(-3.82469e-05 1.85611e-06 3.17792e-17)
(-4.56077e-05 1.06914e-06 -1.75931e-15)
(-5.62362e-05 7.09181e-07 4.23966e-16)
(-7.24639e-05 -1.67127e-06 4.629e-15)
(-7.88083e-05 -2.31305e-05 -1.09944e-15)
(-0.000119493 -1.42237e-05 8.89004e-16)
(-0.000250986 -2.80507e-05 -8.14203e-15)
(-0.000654033 -0.000197369 7.93538e-15)
(-1.02547e-05 7.1463e-05 -2.94633e-15)
(-4.70631e-06 8.26409e-05 1.78891e-16)
(2.60833e-06 9.92192e-05 -1.65407e-15)
(1.51985e-05 0.000112095 -1.52309e-15)
(2.93312e-05 0.000112722 9.00192e-15)
(4.348e-05 0.000110865 -2.93906e-15)
(5.94622e-05 0.000117224 2.92742e-14)
(7.66534e-05 0.00011622 2.04786e-14)
(9.08729e-05 0.000109136 5.16008e-15)
(0.000104976 9.74729e-05 -1.7069e-15)
(0.000115314 8.07073e-05 7.12004e-15)
(0.000124824 6.68901e-05 -3.14154e-14)
(0.000132062 5.36642e-05 -1.37085e-13)
(0.000134657 3.85675e-05 3.64126e-14)
(0.000136352 2.21486e-05 1.8814e-14)
(0.000137358 4.29871e-06 5.25268e-14)
(0.000138845 -1.5797e-05 -4.53507e-16)
(0.000144573 -4.13816e-05 -9.40639e-14)
(0.000164431 -8.3576e-05 -1.38998e-13)
(0.000178158 -0.000155602 -1.19687e-13)
(0.000166053 -0.00026287 -6.96968e-14)
(8.58134e-05 -0.000415799 -5.64245e-14)
(-0.000189142 -0.000601513 1.91328e-14)
(-0.000679336 -0.00047025 6.72239e-14)
(-0.000845413 0.000355894 -3.6185e-14)
(-9.69097e-05 0.00130691 -1.37656e-14)
(0.00104147 0.00117927 4.44584e-14)
(0.00135787 5.89967e-05 2.10502e-15)
(0.000662472 -0.000745136 2.45306e-14)
(-0.000171088 -0.000695911 -3.05754e-14)
(-0.000543937 -0.000194348 -1.01144e-13)
(-0.000503603 0.000246282 -5.51572e-14)
(-0.000207972 0.000412002 3.49522e-14)
(0.000153281 0.000325552 -1.502e-14)
(0.000331645 0.000132609 2.03715e-14)
(-0.00067853 0.000690096 3.04944e-14)
(0.00074966 -0.000593541 5.41098e-15)
(0.0106378 -0.00579097 -1.69237e-14)
(0.0034699 -0.00538955 4.2631e-14)
(-1.59577e-05 6.6706e-05 -2.40514e-14)
(-2.32644e-05 6.44102e-05 1.50619e-14)
(-2.93741e-05 5.89603e-05 4.42746e-14)
(-3.32321e-05 4.85768e-05 1.44969e-14)
(-3.52967e-05 3.75925e-05 1.02133e-13)
(-3.87743e-05 3.10739e-05 1.87091e-14)
(-3.97845e-05 2.84834e-05 -2.79246e-15)
(-4.12597e-05 2.64283e-05 -9.34344e-14)
(-4.24823e-05 2.40353e-05 -3.88165e-14)
(-4.5437e-05 2.36111e-05 5.64921e-14)
(-4.86684e-05 2.44022e-05 6.4165e-14)
(-5.08963e-05 2.44666e-05 1.04452e-13)