/*--------------------------------*- C++ -*----------------------------------*\
| =========                 |                                                 |
| \\      /  F ield         | OpenFOAM: The Open Source CFD Toolbox           |
|  \\    /   O peration     | Version:  2306                                  |
|   \\  /    A nd           | Website:  www.openfoam.com                      |
|    \\/     M anipulation  |                                                 |
\*---------------------------------------------------------------------------*/
FoamFile
{
    version     2.0;
    format      ascii;
    arch        "LSB;label=32;scalar=64";
    class       volScalarField;
    location    "575";
    object      div(phi);
}
// * * * * * * * * * * * * * * * * * * * * * * * * * * * * * * * * * * * * * //

dimensions      [0 0 -1 0 0 0 0];

internalField   nonuniform List<scalar> 
1340
(
1.25824e-08
1.95605e-08
3.82752e-09
2.11571e-08
3.70731e-09
5.0032e-09
1.4151e-08
1.40262e-09
7.08455e-09
1.87051e-09
9.39466e-09
1.5465e-08
-1.96466e-09
7.05867e-09
1.12021e-09
3.53981e-09
-1.22149e-08
2.18761e-08
-1.87918e-09
-2.19822e-09
6.24243e-09
-7.67433e-10
4.91661e-09
7.30969e-10
1.54853e-09
-9.8765e-09
2.47534e-09
-4.61647e-09
-6.52371e-09
3.54071e-09
7.50113e-09
-2.22412e-09
4.96249e-09
-4.14145e-10
2.45695e-09
7.16978e-09
-2.26545e-08
8.02206e-09
-3.62374e-09
-2.44274e-09
-1.24863e-08
-1.55739e-09
6.3779e-09
-9.20348e-10
-2.54947e-09
6.01247e-09
-1.94902e-09
3.61313e-09
5.4435e-11
3.45055e-08
-1.33071e-08
-1.56568e-08
1.93692e-08
-1.7887e-08
4.36948e-10
-3.97204e-09
4.38591e-10
-7.7279e-09
3.24621e-09
-3.14717e-09
-6.84138e-09
3.17688e-09
7.45026e-09
-2.63476e-09
4.41758e-09
-1.21564e-09
1.91423e-09
2.29193e-08
-5.47376e-08
5.409e-08
-4.66955e-08
3.2033e-08
-1.79044e-08
1.18717e-08
7.25288e-09
-1.4499e-08
2.46032e-10
-8.68081e-09
5.13933e-09
-1.96441e-09
1.21678e-09
-1.06655e-08
-2.0296e-09
5.86255e-09
-3.28248e-10
-3.2451e-09
6.27481e-09
-2.4152e-09
2.97068e-09
-3.17586e-10
-2.68082e-08
-2.07742e-08
-2.59173e-08
-3.47944e-08
-1.59396e-08
-3.55547e-08
-1.39681e-08
-2.17749e-08
6.43665e-09
-1.71669e-08
2.045e-08
-1.23047e-08
2.36697e-08
-1.59933e-09
5.85521e-09
1.04639e-08
-5.20964e-09
5.85161e-09
-1.80192e-09
1.48106e-09
-8.06639e-09
3.73305e-09
-1.90994e-09
-6.90842e-09
2.4496e-09
7.16658e-09
-3.10842e-09
3.9329e-09
-1.58424e-09
1.37151e-09
-2.9753e-07
9.00177e-08
-1.23478e-07
4.79012e-08
-9.49834e-08
3.01668e-08
-5.61607e-08
1.63528e-08
-4.7805e-08
-2.22942e-09
-4.10616e-08
-1.05383e-08
-2.75549e-08
-1.98736e-08
-2.52667e-08
-2.87507e-08
-1.59045e-08
-2.71154e-08
-1.1465e-08
-8.4685e-09
-7.21e-09
1.00339e-08
-1.89676e-09
1.95928e-08
-4.98194e-09
2.12531e-08
1.40606e-08
8.77255e-09
6.98099e-09
-6.92154e-10
6.86931e-09
-8.04321e-10
7.91599e-09
-8.58211e-09
-3.02361e-09
5.62855e-09
-6.43311e-11
-3.82332e-09
5.64933e-09
-2.68062e-09
2.43403e-09
-5.1986e-10
-1.24404e-06
1.53911e-06
2.31332e-07
1.04037e-06
3.75885e-09
8.38157e-07
-1.04222e-07
6.77873e-07
-1.81865e-07
5.46574e-07
-1.95957e-07
4.73981e-07
-2.0847e-07
4.29967e-07
-1.97658e-07
3.98795e-07
-2.01694e-07
3.70078e-07
-1.9045e-07
3.62693e-07
-1.95157e-07
3.62566e-07
-2.00361e-07
3.50783e-07
-1.99036e-07
3.22101e-07
-2.07358e-07
2.82128e-07
-1.92155e-07
2.19445e-07
-2.12855e-07
1.5205e-07
-2.24542e-07
1.07706e-07
-2.07172e-07
6.94274e-08
-1.64981e-07
4.32193e-08
-1.27707e-07
2.84764e-08
-9.38688e-08
1.29846e-08
-6.7638e-08
-6.17925e-09
-5.87868e-08
-1.77963e-08
-4.79669e-08
-2.51465e-08
-3.36883e-08
-3.12959e-08
-2.92175e-08
-2.75451e-08
-2.41253e-08
-2.54668e-08
-1.62215e-08
-2.00352e-08
-1.16075e-08
-3.85968e-09
-2.50794e-09
4.81052e-09
-3.15981e-09
1.61111e-08
7.38962e-09
1.40886e-08
9.86878e-09
4.98747e-09
1.12921e-08
3.49532e-09
1.11884e-08
-5.43142e-09
7.48836e-09
4.8496e-10
-5.97879e-09
1.06567e-09
6.2321e-09
-3.69158e-09
3.74481e-09
-1.73668e-09
1.14281e-09
-2.06435e-06
1.04078e-06
-4.0076e-07
7.4139e-07
-4.58275e-07
6.11121e-07
-4.67544e-07
5.18804e-07
-4.62431e-07
4.28925e-07
-4.14777e-07
3.55533e-07
-3.73457e-07
3.00806e-07
-3.34543e-07
2.66527e-07
-3.04258e-07
2.42921e-07
-2.68362e-07
2.2764e-07
-2.41151e-07
2.16562e-07
-2.19955e-07
2.04597e-07
-1.98671e-07
1.85698e-07
-1.77669e-07
1.60147e-07
-1.54246e-07
1.36843e-07
-1.62166e-07
1.15829e-07
-1.29754e-07
8.84657e-08
-1.34639e-07
6.12625e-08
-1.2331e-07
3.70706e-08
-1.01174e-07
1.46743e-08
-8.84523e-08
-8.84998e-10
-7.36139e-08
-8.59145e-09
-5.42065e-08
-1.90972e-08
-4.0912e-08
-2.49061e-08
-3.60283e-08
-2.31108e-08
-2.52457e-08
-2.68973e-08
-1.92751e-08
-2.12874e-08
-1.86704e-08
-1.80531e-08
-1.31178e-08
-1.07446e-08
-8.69359e-09
-5.324e-09
7.7422e-13
-1.96674e-10
5.20193e-09
5.97983e-09
5.39764e-09
6.77711e-09
3.91344e-09
1.03311e-08
1.47719e-09
1.45596e-08
-4.52678e-09
-2.23714e-09
4.36363e-09
9.31383e-10
-4.40446e-09
5.22847e-09
-2.91851e-09
2.25657e-09
-5.84196e-10
-2.09356e-06
1.00875e-06
-3.66125e-07
6.27828e-07
-4.72716e-07
4.79387e-07
-5.03081e-07
4.09432e-07
-4.92754e-07
3.59956e-07
-4.53622e-07
3.0603e-07
-3.97714e-07
2.58612e-07
-3.49584e-07
2.23463e-07
-3.13299e-07
1.96947e-07
-2.78619e-07
1.73177e-07
-2.47857e-07
1.52542e-07
-2.20422e-07
1.39877e-07
-2.01914e-07
1.27911e-07
-1.70389e-07
1.15739e-07
-1.5156e-07
9.11317e-08
-1.21684e-07
5.89481e-08
-1.39366e-07
3.67623e-08
-1.27782e-07
2.93017e-08
-1.0755e-07
3.06444e-08
-8.83591e-08
3.28568e-08
-5.78942e-08
2.64396e-08
-3.79262e-08
8.60484e-09
-3.50704e-08
-3.10394e-09
-3.25298e-08
-1.15827e-08
-2.2683e-08
-1.98681e-08
-2.17192e-08
-1.77008e-08
-1.88883e-08
-1.88042e-08
-1.40447e-08
-1.71669e-08
-1.39694e-08
-1.28303e-08
-1.02037e-08
-8.66926e-09
-5.36967e-09
-3.36933e-09
-1.03319e-09
9.62872e-10
1.88639e-09
2.06242e-09
4.76493e-09
2.80462e-09
1.24347e-08
-4.71615e-09
6.55698e-09
1.23619e-09
-2.51083e-10
1.49578e-10
5.4967e-09
-4.11019e-09
3.20206e-09
-1.8808e-09
8.26633e-10
-1.64899e-06
8.26079e-07
-3.76353e-07
5.85948e-07
-4.03128e-07
4.70714e-07
-4.08427e-07
3.9946e-07
-3.95653e-07
3.58832e-07
-3.74463e-07
3.22694e-07
-3.28987e-07
2.82802e-07
-2.81616e-07
2.45738e-07
-2.46745e-07
2.17893e-07
-2.19971e-07
1.91828e-07
-1.95626e-07
1.66088e-07
-1.75824e-07
1.44337e-07
-1.5985e-07
1.26384e-07
-1.43528e-07
1.09685e-07
-1.25227e-07
9.51782e-08
-1.0815e-07
8.46348e-08
-9.02508e-08
6.95535e-08
-7.3968e-08
5.35884e-08
-7.63953e-08
3.69914e-08
-6.37542e-08
2.29958e-08
-5.84839e-08
1.2821e-08
-5.13115e-08
1.08283e-08
-3.3877e-08
3.3125e-09
-2.21836e-08
-5.54393e-09
-2.32062e-08
-9.20876e-09
-1.71118e-08
-1.64157e-08
-1.42544e-08
-1.63532e-08
-1.49991e-08
-1.49574e-08
-1.16335e-08
-1.18378e-08
-9.16348e-09
-7.63733e-09
-5.80118e-09
-3.78868e-09
-2.52051e-09
-1.442e-09
4.35044e-11
-1.31033e-10
-5.34613e-10
4.0337e-09
-2.44604e-09
1.1151e-08
-2.37852e-09
4.67961e-09
3.82451e-09
7.62085e-09
-2.68471e-09
4.45963e-09
-3.1805e-09
1.7338e-09
-7.24773e-10
-9.90676e-07
1.0687e-06
2.8145e-08
6.64194e-07
-1.73553e-07
4.74883e-07
-2.40044e-07
3.65479e-07
-2.76313e-07
2.98141e-07
-2.86001e-07
2.53448e-07
-2.83863e-07
2.14663e-07
-2.56905e-07
1.81846e-07
-2.27721e-07
1.58566e-07
-2.02741e-07
1.43213e-07
-1.77487e-07
1.29835e-07
-1.54977e-07
1.16568e-07
-1.35418e-07
1.06947e-07
-1.20338e-07
9.68186e-08
-1.03833e-07
8.64908e-08
-8.85452e-08
7.48056e-08
-7.48208e-08
6.76855e-08
-6.79916e-08
6.38902e-08
-4.70043e-08
6.2473e-08
-3.67051e-08
5.92044e-08
-2.26983e-08
5.25488e-08
-7.60903e-09
3.43708e-08
-1.0427e-08
1.68219e-08
-1.69052e-08
3.01834e-09
-1.36059e-08
-9.65954e-09
-1.62296e-08
-1.18258e-08
-1.43733e-08
-1.29443e-08
-9.53619e-09
-1.17313e-08
-8.41337e-09
-8.95512e-09
-6.30047e-09
-5.84343e-09
-4.74914e-09
-2.56959e-09
-3.63622e-09
-1.15256e-09
-1.82389e-09
-6.25421e-10
-2.61346e-09
-1.23321e-09
9.09024e-09
-2.97779e-09
9.00176e-09
3.69907e-09
8.94042e-09
1.96849e-09
7.59942e-09
-3.38233e-09
2.76932e-09
-2.00697e-09
6.87006e-10
-1.13362e-06
6.26602e-07
-2.18069e-07
4.57661e-07
-2.61178e-07
3.76841e-07
-2.56145e-07
3.19869e-07
-2.53497e-07
2.77553e-07
-2.37391e-07
2.5442e-07
-2.21282e-07
2.40065e-07
-1.95501e-07
2.22201e-07
-1.66133e-07
2.00212e-07
-1.40206e-07
1.83714e-07
-1.20931e-07
1.69151e-07
-1.04854e-07
1.55565e-07
-9.4075e-08
1.43034e-07
-8.71478e-08
1.33001e-07
-8.31e-08
1.20537e-07
-7.91384e-08
1.07269e-07
-7.13907e-08
9.3249e-08
-6.75262e-08
8.04398e-08
-5.72054e-08
6.82075e-08
-5.30879e-08
5.39634e-08
-3.99585e-08
3.71491e-08
-4.71115e-08
2.38867e-08
-4.23702e-08
1.37278e-08
-3.07834e-08
4.44667e-09
-3.25296e-08
5.39152e-10
-2.13643e-08
-3.57376e-09
-1.25877e-08
-6.18284e-09
-1.08395e-08
-7.95388e-09
-6.29536e-09
-7.94058e-09
-4.06226e-09
-6.4193e-09
-2.24763e-09
-4.22663e-09
-1.50772e-09
-2.86497e-09
-4.68129e-10
-1.73551e-09
-2.23444e-09
5.01712e-09
-2.12856e-09
7.92331e-09
2.24635e-09
6.34007e-09
5.05329e-09
8.14774e-09
2.66599e-10
5.10065e-09
-2.74571e-09
1.66125e-09
-7.55784e-10
-1.12302e-06
7.50568e-07
-1.00588e-08
5.08491e-07
-8.24064e-08
3.99464e-07
-9.90926e-08
3.30272e-07
-1.07531e-07
2.79515e-07
-1.04006e-07
2.41954e-07
-1.03911e-07
2.14195e-07
-9.98062e-08
1.92031e-07
-1.00844e-07
1.69202e-07
-9.29218e-08
1.50215e-07
-8.55882e-08
1.35773e-07
-7.49792e-08
1.25721e-07
-6.97881e-08
1.17101e-07
-6.29864e-08
1.11684e-07
-5.8387e-08
1.06889e-07
-5.40964e-08
9.94383e-08
-4.91364e-08
8.89606e-08
-4.53029e-08
7.67682e-08
-4.15649e-08
6.40025e-08
-3.82139e-08
5.27359e-08
-3.50422e-08
4.45054e-08
-2.70029e-08
3.45407e-08
-1.93533e-08
2.52434e-08
-2.37957e-08
1.7925e-08
-1.26352e-08
1.01796e-08
-1.16465e-08
4.34585e-09
-1.06458e-08
3.32635e-11
-5.07204e-09
-2.42662e-09
-3.60091e-09
-3.43343e-09
-1.29921e-09
-3.26674e-09
-3.84565e-11
-2.31098e-09
-2.31389e-10
-1.78757e-09
5.96435e-11
-1.48055e-09
-1.22833e-09
-1.12841e-11
3.07649e-10
1.82398e-09
3.33329e-10
5.14083e-09
5.10316e-09
3.89501e-09
7.36775e-09
-1.40734e-09
3.33206e-09
-1.7338e-09
6.47768e-10
-1.47245e-06
6.06333e-07
-1.6245e-07
4.27123e-07
-1.56744e-07
3.36376e-07
-1.48211e-07
2.66998e-07
-1.42789e-07
2.14073e-07
-1.40666e-07
1.74897e-07
-1.32814e-07
1.47005e-07
-1.26189e-07
1.27547e-07
-1.18881e-07
1.12267e-07
-1.13426e-07
9.75605e-08
-1.04264e-07
8.36398e-08
-9.59205e-08
7.13767e-08
-8.81364e-08
6.0543e-08
-8.35554e-08
5.18249e-08
-7.85491e-08
4.55672e-08
-7.45509e-08
4.19195e-08
-6.8373e-08
3.87991e-08
-6.03693e-08
3.64999e-08
-5.24306e-08
3.37669e-08
-4.44134e-08
3.14728e-08
-3.69058e-08
2.86862e-08
-3.07921e-08
2.85313e-08
-2.492e-08
2.85338e-08
-1.20046e-08
2.66045e-08
-1.05982e-08
2.30727e-08
-6.22217e-09
1.8614e-08
-1.87477e-09
1.37637e-08
-1.30892e-09
8.49221e-09
6.81089e-10
3.97845e-09
1.24846e-09
7.9396e-11
1.43153e-09
-2.66167e-09
1.31976e-09
-4.27071e-09
1.87816e-09
-5.34584e-09
2.40901e-09
-6.77489e-09
2.18905e-09
-4.52008e-09
2.23746e-09
3.9031e-10
3.72527e-09
6.4775e-09
8.76253e-10
5.85389e-09
-2.16565e-09
1.78268e-09
-6.84343e-10
-5.51838e-07
2.92778e-07
-1.07119e-07
2.50225e-07
-1.01058e-07
2.1382e-07
-9.8087e-08
1.78803e-07
-9.61983e-08
1.48009e-07
-9.79338e-08
1.21812e-07
-9.51522e-08
1.01024e-07
-9.56999e-08
8.45709e-08
-9.30491e-08
7.32144e-08
-9.37333e-08
6.40684e-08
-8.79029e-08
5.61753e-08
-8.28366e-08
4.8969e-08
-7.55864e-08
4.43061e-08
-6.9743e-08
4.08625e-08
-6.31217e-08
3.87486e-08
-5.64437e-08
3.71979e-08
-4.99073e-08
3.55052e-08
-4.1708e-08
3.30663e-08
-3.60571e-08
3.00207e-08
-2.85602e-08
2.61495e-08
-2.46428e-08
2.01912e-08
-1.85e-08
1.32013e-08
-2.42504e-08
9.71004e-09
-1.88013e-08
9.85761e-09
-1.16644e-08
1.04395e-08
-6.91508e-09
1.00692e-08
-4.54701e-10
7.09077e-09
3.97964e-10
2.44381e-09
-7.08258e-10
-1.46774e-09
-1.7182e-09
-3.8345e-09
-2.17793e-09
-4.64705e-09
-2.26221e-09
-4.66088e-09
-1.71783e-09
-6.16625e-09
-1.84739e-09
-3.89869e-09
-1.2795e-09
-1.78394e-09
6.65376e-10
2.74568e-09
1.75714e-09
6.70261e-09
-1.58706e-09
3.54049e-09
-1.45099e-09
6.86709e-10
-4.89611e-07
2.52509e-07
-6.99615e-08
2.18747e-07
-5.90962e-08
1.89403e-07
-5.81683e-08
1.58845e-07
-5.98108e-08
1.31474e-07
-6.48396e-08
1.08114e-07
-6.46516e-08
8.99477e-08
-6.85863e-08
7.60768e-08
-6.59606e-08
6.77369e-08
-6.51533e-08
6.32013e-08
-5.98584e-08
6.01315e-08
-5.49976e-08
5.62376e-08
-4.778e-08
5.33544e-08
-4.14397e-08
5.09512e-08
-3.55091e-08
4.83025e-08
-3.03498e-08
4.50331e-08
-2.63886e-08
4.12943e-08
-2.31137e-08
3.69418e-08
-2.02374e-08
3.23706e-08
-1.76194e-08
2.78448e-08
-1.48436e-08
2.41492e-08
-1.32414e-08
2.19174e-08
-8.49114e-09
1.90396e-08
-4.55648e-09
1.61487e-08
-4.3354e-09
1.18903e-08
-1.56139e-09
7.64414e-09
-2.8319e-09
3.14353e-09
-3.62467e-09
-2.56975e-10
-3.80495e-09
-2.77885e-09
-3.64313e-09
-4.13587e-09
-3.39337e-09
-4.49519e-09
-2.9473e-09
-4.23959e-09
-2.38916e-09
-5.25854e-09
-2.21998e-09
-3.17031e-09
-1.639e-09
-1.19699e-09
-3.42229e-10
8.6619e-10
4.87547e-09
-7.29711e-10
5.38771e-09
-1.87066e-09
1.95173e-09
-6.17517e-10
-1.59361e-07
2.30029e-07
-2.53968e-09
2.03219e-07
-2.51083e-08
1.74196e-07
-3.9951e-08
1.466e-07
-5.10489e-08
1.22519e-07
-5.53208e-08
1.03274e-07
-5.70654e-08
8.77258e-08
-5.46697e-08
7.58106e-08
-5.43485e-08
6.62328e-08
-5.12301e-08
5.88909e-08
-4.97373e-08
5.32735e-08
-4.69799e-08
4.82911e-08
-4.37692e-08
4.33494e-08
-3.9963e-08
3.85571e-08
-3.66168e-08
3.36657e-08
-3.36411e-08
2.91109e-08
-3.06285e-08
2.55535e-08
-2.7571e-08
2.24157e-08
-2.40012e-08
1.9875e-08
-2.03237e-08
1.76841e-08
-1.66412e-08
1.60849e-08
-1.28936e-08
1.47904e-08
-1.03092e-08
1.52305e-08
-6.59004e-09
1.56583e-08
-1.00425e-09
1.54465e-08
1.33407e-09
1.30162e-08
3.12019e-09
9.02429e-09
2.27681e-09
4.44703e-09
5.62484e-10
7.78221e-10
-7.81554e-10
-1.41772e-09
-1.22277e-09
-2.3953e-09
-1.23505e-09
-2.71663e-09
-1.01117e-09
-3.49279e-09
-1.12042e-09
-1.82963e-09
-8.2415e-10
-4.27952e-10
-8.02183e-11
2.07226e-09
-4.98538e-11
5.92186e-09
-1.87244e-09
3.46986e-09
-1.15202e-09
1.54657e-10
-8.83901e-08
2.26228e-07
-3.00844e-08
1.69106e-07
-4.39787e-08
1.34252e-07
-4.73836e-08
1.10027e-07
-4.90459e-08
9.17993e-08
-4.78606e-08
7.80999e-08
-4.70131e-08
6.71779e-08
-4.363e-08
5.90685e-08
-4.18994e-08
5.27392e-08
-3.75016e-08
4.83826e-08
-3.45882e-08
4.54856e-08
-3.05854e-08
4.39789e-08
-2.649e-08
4.20323e-08
-2.19007e-08
3.94535e-08
-1.70484e-08
3.70621e-08
-1.34018e-08
3.53025e-08
-1.00256e-08
3.2955e-08
-8.20929e-09
2.99395e-08
-6.54645e-09
2.62757e-08
-6.3018e-09
2.263e-08
-5.28095e-09
1.89671e-08
-5.85968e-09
1.54473e-08
-4.38642e-09
1.11934e-08
-6.15225e-09
7.28004e-09
-6.97081e-09
4.43218e-09
-6.56394e-09
2.71162e-09
-5.72668e-09
1.93604e-09
-3.78211e-09
1.56408e-09
-1.89694e-09
9.60976e-10
-5.9919e-10
2.63194e-10
3.05224e-11
-1.75381e-10
3.13599e-10
-4.58369e-10
6.1552e-10
-8.47367e-10
7.37312e-10
-5.99246e-10
3.55135e-10
2.8212e-10
6.1026e-10
4.44104e-10
4.65325e-09
-1.71008e-09
4.34582e-09
-9.00392e-10
1.22614e-09
6.03179e-11
-4.28002e-08
1.58438e-07
1.6864e-10
1.3589e-07
-1.94701e-08
1.1608e-07
-2.96609e-08
9.88288e-08
-3.72613e-08
8.38826e-08
-3.96287e-08
7.19721e-08
-4.01509e-08
6.2417e-08
-3.76062e-08
5.49522e-08
-3.4878e-08
4.92785e-08
-3.03913e-08
4.5299e-08
-2.53028e-08
4.24374e-08
-2.03774e-08
4.02759e-08
-1.61313e-08
3.82452e-08
-1.28051e-08
3.55159e-08
-9.92593e-09
3.22226e-08
-7.7143e-09
2.92548e-08
-5.7647e-09
2.64603e-08
-4.4763e-09
2.37018e-08
-3.65772e-09
2.09708e-08
-3.06179e-09
1.83597e-08
-2.82043e-09
1.58747e-08
-2.09399e-09
1.36927e-08
-1.93822e-09
1.23277e-08
-2.03958e-09
1.19622e-08
4.55688e-10
1.18485e-08
1.58062e-09
1.10994e-08
3.28821e-09
9.58443e-09
4.0291e-09
7.22616e-09
3.59681e-09
4.90872e-09
2.94469e-09
3.1419e-09
2.4859e-09
1.82803e-09
2.05568e-09
7.66605e-10
1.7588e-09
4.11451e-10
1.53216e-09
3.34483e-10
1.04667e-09
9.09936e-10
6.37251e-10
2.59283e-09
-1.33681e-09
3.86295e-09
-9.70839e-11
2.36709e-09
9.924e-10
4.77177e-10
-4.14766e-08
1.07514e-07
-1.51567e-08
8.58116e-08
-2.41772e-08
7.29922e-08
-2.74926e-08
6.43115e-08
-2.69058e-08
5.79539e-08
-2.66526e-08
5.27212e-08
-2.49444e-08
4.83613e-08
-2.41555e-08
4.45611e-08
-2.24724e-08
4.13136e-08
-2.08611e-08
3.81141e-08
-1.89837e-08
3.49134e-08
-1.76144e-08
3.15799e-08
-1.63774e-08
2.80244e-08
-1.51683e-08
2.46178e-08
-1.44619e-08
2.16753e-08
-1.29885e-08
1.83959e-08
-1.11408e-08
1.43862e-08
-9.37503e-09
1.17254e-08
-7.89637e-09
1.09406e-08
-6.13497e-09
1.06609e-08
-5.02152e-09
9.70423e-09
-3.58741e-09
8.59287e-09
-3.3056e-09
7.15016e-09
-1.99886e-09
5.41738e-09
-2.54938e-09
3.53763e-09
-2.82233e-09
2.26604e-09
-2.42072e-09
1.73008e-09
-1.84314e-09
1.88175e-09
-3.56588e-10
2.21047e-09
1.02966e-09
2.14754e-09
1.64808e-09
1.79715e-09
1.73433e-09
1.35761e-09
1.65624e-09
1.56737e-09
2.04456e-09
1.00882e-09
1.54572e-09
5.91133e-10
1.13064e-09
-5.0942e-10
2.24173e-09
4.80304e-10
2.19837e-09
1.35743e-09
7.11802e-10
1.75846e-10
-8.11129e-09
3.84658e-08
1.82555e-09
3.96685e-08
1.81447e-09
3.98228e-08
-2.86591e-10
3.8758e-08
-4.94477e-10
3.75897e-08
-2.15113e-09
3.64718e-08
-1.77377e-09
3.59822e-08
-1.76864e-09
3.56071e-08
-5.85261e-10
3.52683e-08
-4.55068e-10
3.45973e-08
3.77862e-10
3.38384e-08
4.13453e-10
3.27289e-08
7.69115e-10
3.14421e-08
5.64524e-10
2.96864e-08
1.012e-10
2.76082e-08
-3.57599e-10
2.44874e-08
-9.37553e-10
2.07303e-08
-9.4366e-10
1.74694e-08
-1.29588e-09
1.49034e-08
-9.30073e-10
1.24047e-08
-8.28418e-10
9.8056e-09
-5.76482e-10
7.44465e-09
1.06358e-10
5.74461e-09
3.68641e-10
5.11371e-09
1.09326e-09
5.47644e-09
2.87756e-09
6.22112e-09
4.06257e-09
6.56114e-09
5.16955e-09
6.20342e-09
5.18907e-09
5.13948e-09
4.33282e-09
3.84617e-09
3.29602e-09
2.66629e-09
2.37928e-09
1.62442e-09
1.93393e-09
1.71143e-09
1.61743e-09
7.66558e-10
7.61667e-10
4.73943e-10
2.50771e-10
6.27658e-10
3.75161e-10
9.17643e-10
6.80368e-10
3.56035e-10
1.07578e-10
-4.55258e-16
)
;

boundaryField
{
    inlet
    {
        type            extrapolatedCalculated;
        value           nonuniform List<scalar> 
27
(
1.25824e-08
3.82752e-09
5.0032e-09
1.87051e-09
3.53981e-09
7.30969e-10
2.45695e-09
5.4435e-11
1.91423e-09
-3.17586e-10
1.37151e-09
-5.1986e-10
1.14281e-09
-5.84196e-10
8.26633e-10
-7.24773e-10
6.87006e-10
-7.55784e-10
6.47768e-10
-6.84343e-10
6.86709e-10
-6.17517e-10
1.54657e-10
6.03179e-11
4.77177e-10
1.75846e-10
-4.55258e-16
)
;
    }
    outlet
    {
        type            extrapolatedCalculated;
        value           nonuniform List<scalar> 
78
(
-8.11129e-09
3.84658e-08
1.82555e-09
3.96685e-08
1.81447e-09
3.98228e-08
-2.86591e-10
3.8758e-08
-4.94477e-10
3.75897e-08
-2.15113e-09
3.64718e-08
-1.77377e-09
3.59822e-08
-1.76864e-09
3.56071e-08
-5.85261e-10
3.52683e-08
-4.55068e-10
3.45973e-08
3.77862e-10
3.38384e-08
4.13453e-10
3.27289e-08
7.69115e-10
3.14421e-08
5.64524e-10
2.96864e-08
1.012e-10
2.76082e-08
-3.57599e-10
2.44874e-08
-9.37553e-10
2.07303e-08
-9.4366e-10
1.74694e-08
-1.29588e-09
1.49034e-08
-9.30073e-10
1.24047e-08
-8.28418e-10
9.8056e-09
-5.76482e-10
7.44465e-09
1.06358e-10
5.74461e-09
3.68641e-10
5.11371e-09
1.09326e-09
5.47644e-09
2.87756e-09
6.22112e-09
4.06257e-09
6.56114e-09
5.16955e-09
6.20342e-09
5.18907e-09
5.13948e-09
4.33282e-09
3.84617e-09
3.29602e-09
2.66629e-09
2.37928e-09
1.62442e-09
1.93393e-09
1.71143e-09
1.61743e-09
7.66558e-10
7.61667e-10
4.73943e-10
2.50771e-10
6.27658e-10
3.75161e-10
9.17643e-10
6.80368e-10
3.56035e-10
1.07578e-10
-4.55258e-16
)
;
    }
    walls
    {
        type            extrapolatedCalculated;
        value           nonuniform List<scalar> 0();
    }
    frontAndBack
    {
        type            empty;
    }
    procBoundary7to3
    {
        type            processor;
        value           nonuniform List<scalar> 
16
(
5.31808e-06
2.69651e-06
2.27528e-06
2.32613e-06
2.23732e-06
1.39469e-06
1.47287e-06
1.09946e-06
3.85209e-07
3.85209e-07
3.67321e-07
2.80216e-07
3.43553e-07
1.94123e-07
1.52703e-07
4.65543e-08
)
;
    }
    procBoundary7to6
    {
        type            processor;
        value           nonuniform List<scalar> 
91
(
6.45024e-09
6.174e-09
6.174e-09
3.00151e-09
3.00151e-09
-4.12394e-09
-4.12394e-09
-7.07636e-09
-5.02461e-09
-5.02461e-09
-3.47919e-09
-1.07575e-08
-1.07575e-08
-1.1988e-08
-7.91022e-09
-1.89828e-08
-1.89828e-08
-3.81617e-08
1.45388e-09
-1.75139e-08
-1.75139e-08
-3.77547e-08
2.60864e-09
1.41057e-08
-3.74712e-08
-3.74712e-08
-3.33817e-08
3.17561e-08
-4.3442e-08
4.46749e-08
-5.00271e-08
-5.00271e-08
-1.35764e-08
-2.37347e-08
-2.07387e-08
-1.52252e-08
-3.30365e-08
9.91773e-09
-5.17959e-08
-5.17959e-08
-1.00478e-07
1.17327e-07
-7.81222e-08
5.2055e-08
-6.40224e-08
1.90203e-08
-4.21258e-08
-7.53843e-10
-2.53087e-08
-1.28118e-08
-2.16322e-08
-4.07692e-09
-4.07692e-09
1.92252e-06
-1.62089e-06
1.40124e-06
-1.85639e-06
1.2115e-06
-1.771e-06
1.05373e-06
-1.57588e-06
8.82557e-07
-1.386e-06
7.6223e-07
-1.2396e-06
6.7859e-07
-1.12017e-06
6.15843e-07
-9.87969e-07
5.47332e-07
-8.80325e-07
4.94007e-07
-7.85803e-07
4.56573e-07
-7.07599e-07
4.21015e-07
-5.9642e-07
3.77648e-07
-5.09348e-07
3.35952e-07
-4.20341e-07
2.92972e-07
-3.6019e-07
2.53502e-07
-2.86484e-07
1.98689e-07
-2.38666e-07
1.56862e-07
-2.82675e-07
3.35401e-07
3.35401e-07
)
;
    }
}


// ************************************************************************* //
