/*--------------------------------*- C++ -*----------------------------------*\
| =========                 |                                                 |
| \\      /  F ield         | OpenFOAM: The Open Source CFD Toolbox           |
|  \\    /   O peration     | Version:  2306                                  |
|   \\  /    A nd           | Website:  www.openfoam.com                      |
|    \\/     M anipulation  |                                                 |
\*---------------------------------------------------------------------------*/
FoamFile
{
    version     2.0;
    format      ascii;
    arch        "LSB;label=32;scalar=64";
    class       volScalarField;
    location    "575";
    object      turbulenceProperties:L;
}
// * * * * * * * * * * * * * * * * * * * * * * * * * * * * * * * * * * * * * //

dimensions      [0 1 0 0 0 0 0];

internalField   nonuniform List<scalar> 
1340
(
0.222829
0.255623
0.221222
0.259563
0.259699
0.221257
0.401815
0.261245
0.262508
0.220804
0.425065
0.313719
0.403708
0.262613
0.264975
0.220063
0.356302
0.328734
0.431602
0.316648
0.405695
0.263868
0.267023
0.219318
0.300018
0.320219
0.32022
0.363663
0.333416
0.438798
0.319589
0.407654
0.26496
0.268525
0.218628
0.279127
0.288149
0.300322
0.306783
0.327645
0.326349
0.371623
0.338354
0.446617
0.322471
0.409595
0.265857
0.269486
0.218004
0.24778
0.256676
0.266169
0.27623
0.287249
0.295994
0.308332
0.31413
0.335689
0.332945
0.380206
0.343547
0.455075
0.325313
0.411506
0.266602
0.270021
0.217353
0.220285
0.226924
0.233947
0.241366
0.249196
0.257457
0.26616
0.275463
0.285268
0.296163
0.304581
0.317092
0.322143
0.34444
0.340067
0.389497
0.349036
0.464226
0.328169
0.413348
0.267247
0.270214
0.216781
0.19568
0.199888
0.204395
0.209216
0.214356
0.219825
0.225632
0.231784
0.238292
0.245169
0.252431
0.260088
0.268164
0.276644
0.285725
0.295229
0.305963
0.313994
0.326684
0.33089
0.353968
0.347762
0.39955
0.354845
0.474096
0.331062
0.415128
0.267814
0.269963
0.21622
0.178532
0.180001
0.181612
0.183382
0.185331
0.187474
0.189825
0.192399
0.195208
0.198261
0.201573
0.205154
0.209012
0.213159
0.217599
0.222347
0.227405
0.232781
0.238481
0.24451
0.250878
0.257597
0.264682
0.272141
0.280004
0.288226
0.297047
0.306194
0.316721
0.324295
0.337166
0.340418
0.364318
0.356057
0.410407
0.360986
0.48467
0.333985
0.416885
0.268311
0.269478
0.215671
3.4483
4.52127
0
0
0.092114
0.188572
0.706504
0.680136
0.706029
0.741822
0.788061
0.851947
0.950053
1.12592
1.54693
4.83395
1.61123
1.18104
1.01174
0.919883
0.854846
0.791594
0.698459
0.316627
0.277136
0
0
0
2.91867
0.416266
0.182334
0.17373
0.184169
0.189882
0.190413
0.190932
0.192235
0.193687
0.195138
0.196699
0.198424
0.200323
0.202413
0.204715
0.207245
0.210014
0.213031
0.216305
0.219848
0.223668
0.227771
0.232161
0.236848
0.241834
0.247122
0.252716
0.258619
0.264834
0.271376
0.27826
0.285491
0.293104
0.301021
0.309536
0.318257
0.328523
0.335554
0.348604
0.350779
0.375549
0.364987
0.422088
0.367487
0.495943
0.337
0.418558
0.268771
0.268727
0.215133
0.238966
3.10633
5.56235
0
0
1.82488
0.339817
1.00278
0.713737
0.728534
0.763157
0.808358
0.869337
0.959824
1.11409
1.44704
2.95503
1.95156
1.30718
1.08814
0.975692
0.90088
0.834488
0.743162
0.488221
0.472753
0
0
0
6.03718
0.941107
0.209461
0.186909
0.198015
0.207119
0.208612
0.208907
0.210149
0.211683
0.21319
0.214815
0.216661
0.218723
0.220995
0.223494
0.226238
0.229236
0.232494
0.236021
0.239824
0.243903
0.248262
0.252905
0.25783
0.263038
0.268526
0.274293
0.280342
0.286681
0.293331
0.30029
0.307608
0.31516
0.32331
0.331522
0.341456
0.347844
0.361067
0.362025
0.3877
0.374571
0.434635
0.37436
0.507971
0.340076
0.420306
0.269216
0.267966
0.214565
0.238918
0.256557
1.25784
7.91202
0
0
0
0.183762
0.526765
0.764986
0.749907
0.782243
0.826684
0.885368
0.969552
1.10676
1.38
2.26571
2.53938
1.46338
1.17483
1.03681
0.95068
0.878639
0.786355
0.597572
0.703715
0
0
0
2.11248
9.11305
0.272628
0.207281
0.214124
0.225478
0.228082
0.228007
0.229218
0.231131
0.232941
0.234705
0.236669
0.238911
0.241409
0.244157
0.247161
0.250428
0.253968
0.257781
0.261864
0.266214
0.270831
0.275707
0.28084
0.286218
0.291838
0.297692
0.303794
0.310161
0.316789
0.323749
0.330853
0.338558
0.346163
0.355663
0.361289
0.37466
0.374252
0.400847
0.384891
0.448082
0.381616
0.520738
0.343372
0.422184
0.269542
0.267179
0.21397
0.268643
0.257306
0.268568
0.635276
4.95825
0
0
0
0.164923
0.416212
0.94103
0.776422
0.799693
0.843022
0.899919
0.979083
1.10289
1.33401
1.95175
3.89709
1.65596
1.27015
1.10119
1.00165
0.922998
0.830739
0.684179
0.891707
0
0
0
0.00115813
2.27094
0.336545
0.231089
0.23172
0.246526
0.252025
0.250691
0.250289
0.251877
0.254107
0.256291
0.258521
0.260992
0.263768
0.266827
0.270153
0.27375
0.277615
0.281743
0.28612
0.290741
0.295594
0.300658
0.305925
0.311378
0.31701
0.322823
0.328842
0.335063
0.341576
0.348137
0.355289
0.362163
0.371131
0.375831
0.389343
0.387372
0.414988
0.395807
0.462553
0.389144
0.53528
0.346535
0.424829
0.269878
0.266272
0.213158
0.28689
0.288084
0.273552
0.28494
0.426908
3.28581
0.000897124
0
0
0
0.238776
0.842841
0.825399
0.8191
0.858997
0.914055
0.988541
1.09998
1.29472
1.74258
4.81175
1.95739
1.39248
1.1753
1.05504
0.96474
0.865404
0.703635
1.36331
0.145692
0
0
0
3.28994
0.50579
0.264387
0.245081
0.257185
0.272321
0.277198
0.276712
0.276959
0.278829
0.281377
0.284039
0.286844
0.289915
0.293295
0.29696
0.300875
0.30505
0.309451
0.314063
0.318867
0.323829
0.328935
0.334151
0.339483
0.344903
0.350453
0.356138
0.36205
0.367912
0.374367
0.380301
0.388583
0.392158
0.4057
0.402003
0.430471
0.407967
0.477755
0.397641
0.548867
0.350352
0.426787
0.270435
0.265457
0.212652
0.305711
0.31044
0.307448
0.303305
0.30929
0.349944
1.11982
7.13237
1.92656e-05
0
0
0.142614
0.494507
1.06165
0.851921
0.871623
0.920775
0.987967
1.08243
1.23127
1.51261
2.30958
3.52527
1.75406
1.36551
1.18528
1.07237
0.976183
0.892167
0.699027
0.718707
0.156995
0
0
0.569724
4.41715
0.806052
0.331374
0.286122
0.291165
0.305157
0.312035
0.312784
0.313346
0.315468
0.318446
0.321631
0.324993
0.32862
0.332517
0.336681
0.341035
0.345547
0.35018
0.354909
0.359686
0.364459
0.369235
0.373972
0.378732
0.383505
0.388432
0.39317
0.398502
0.403071
0.410134
0.412291
0.425359
0.4199
0.448193
0.423103
0.493123
0.409493
0.559878
0.358831
0.437184
0.276721
0.27235
0.22064
0.332373
0.335504
0.334624
0.336502
0.338047
0.331066
0.348259
0.436549
5.59333
1.26405
0
0
0
0.0936144
0.480521
1.1169
0.880497
0.906999
0.964403
1.04221
1.15205
1.32791
1.6718
2.77568
3.09103
1.77374
1.4143
1.23555
1.11906
1.02008
0.926103
0.629388
0.496407
0
0
0
0.118606
4.76221
0.780825
0.371792
0.330144
0.338654
0.354263
0.360242
0.360632
0.36188
0.364884
0.36855
0.372319
0.376256
0.380423
0.384729
0.389128
0.393505
0.397819
0.401995
0.405955
0.409705
0.413171
0.416483
0.419609
0.422789
0.425607
0.429032
0.431454
0.43662
0.43662
0.448894
0.440852
0.469145
0.439808
0.51174
0.420627
0.572485
0.363644
0.436588
0.277302
0.269256
0.219724
0.364535
0.367042
0.36459
0.366392
0.370916
0.372459
0.367874
0.3629
0.400127
0.708955
5.24533
0.000193571
0
0
0
0.0889579
0.434158
1.17447
0.900285
0.936295
1.00458
1.09645
1.22804
1.44462
1.89439
3.8199
2.67037
1.75338
1.43842
1.26869
1.15032
1.04002
0.899846
1.90188
0.183374
0
0
0
0.131962
3.92415
0.626162
0.405025
0.387412
0.404273
0.41844
0.421337
0.422007
0.424835
0.429029
0.433453
0.437796
0.442117
0.446378
0.450339
0.45392
0.456995
0.459466
0.461325
0.462548
0.46333
0.463676
0.463999
0.463833
0.464412
0.463794
0.46642
0.463558
0.474716
0.46343
0.491785
0.457167
0.531981
0.431331
0.58835
0.367534
0.438026
0.277065
0.267051
0.218934
0.404879
0.401108
0.402036
0.405654
0.409577
0.411836
0.410047
0.399906
0.407663
0.480824
1.98536
5.79097
0
0
0
0
0.0881434
0.441728
1.1614
0.917171
0.967414
1.05019
1.16152
1.32433
1.60217
2.24068
8.85277
2.37379
1.71987
1.44864
1.2878
1.15968
1.03495
0.820341
0.901039
0
0
0
0
7.20161
1.53587
0.546055
0.46255
0.46938
0.491159
0.500403
0.501819
0.504366
0.508962
0.513799
0.518137
0.521898
0.524775
0.526662
0.527371
0.526811
0.525057
0.522217
0.518691
0.514562
0.510525
0.506062
0.502771
0.49828
0.497799
0.491631
0.501291
0.48649
0.514607
0.474527
0.551933
0.441576
0.603715
0.370792
0.440072
0.276476
0.265892
0.21822
0.450226
0.444951
0.44551
0.448361
0.450976
0.454121
0.456964
0.456803
0.450689
0.440629
0.465891
0.710967
5.00566
0.000195472
0
0
0
0
0.0887387
0.496785
1.09361
0.940644
1.00769
1.10848
1.24491
1.4504
1.82258
2.85225
4.32297
2.16362
1.68097
1.4451
1.28843
1.14872
1.00885
1.75027
0.177598
0
0
0
0.192122
1.06341
0.881266
0.600645
0.575798
0.599385
0.617441
0.621014
0.622539
0.626011
0.629411
0.631082
0.630406
0.627406
0.62203
0.61438
0.604984
0.594291
0.58315
0.571805
0.561215
0.550778
0.54243
0.533283
0.529209
0.519533
0.527245
0.508953
0.53626
0.491141
0.569889
0.451043
0.615911
0.373527
0.442189
0.275602
0.265727
0.217401
0.504501
0.497969
0.498119
0.500699
0.502898
0.505516
0.507327
0.510603
0.512865
0.510463
0.496322
0.496895
0.566533
2.1188
5.39144
4.0909e-07
0
0
0
0
0.0921507
0.596511
0.985466
0.968404
1.05932
1.18328
1.35294
1.61985
2.15538
4.43547
3.04793
2.00486
1.63611
1.42712
1.26869
1.11023
0.833781
0.764012
0.475955
0
0
2.62609e-05
6.40253
1.85502
0.848227
0.758814
0.778164
0.814513
0.827575
0.826791
0.822388
0.814011
0.799337
0.778997
0.755018
0.729214
0.703084
0.677653
0.653907
0.632003
0.612674
0.594934
0.580805
0.566785
0.559108
0.546281
0.551931
0.530483
0.556594
0.507066
0.586421
0.460016
0.626744
0.375926
0.444931
0.27467
0.266899
0.216376
0.549798
0.543517
0.542543
0.54503
0.54753
0.549437
0.550502
0.552856
0.5555
0.559003
0.558212
0.551616
0.535156
0.569335
0.746941
0.620068
0.0408614
0
0
0
0
0
0.118963
0.223889
0.959847
1.01213
1.12858
1.28088
1.49649
1.86034
2.73755
7.14723
2.51347
1.88014
1.5878
1.39738
1.22818
1.04275
3.14947
0.274973
0
0
0
0.828513
3.83485
2.06103
1.67341
1.50812
1.47828
1.43939
1.32424
1.19432
1.08307
0.990513
0.913065
0.848453
0.794644
0.749402
0.711397
0.678929
0.651654
0.62769
0.60881
0.591206
0.580749
0.566024
0.569528
0.546348
0.569931
0.518677
0.594895
0.466335
0.628736
0.377249
0.448296
0.273522
0.270656
0.214279
0.6084
0.599512
0.598684
0.601778
0.604624
0.605273
0.604831
0.608577
0.609428
0.610655
0.614138
0.616122
0.610175
0.598557
0.590818
0.669077
1.25095
6.36456
0.000588575
0
0
0
0
6.43485
0.24695
1.22503
0.960064
1.07238
1.21925
1.40966
1.69513
2.24051
4.2822
3.45553
2.18984
1.76573
1.52648
1.34368
1.2
1.24362
0.442815
0
0
0
0.00266187
5.1745
2.41233
1.14024
1.25607
1.45836
1.39382
1.22967
1.09437
0.996019
0.920655
0.858978
0.807526
0.764068
0.727517
0.696127
0.669487
0.645859
0.626952
0.609569
0.599295
0.585338
0.588819
0.565142
0.588441
0.534604
0.613833
0.476487
0.649142
0.380797
0.457246
0.273715
0.278
0.210956
0.585489
0.581383
0.581686
0.584805
0.587818
0.589885
0.591113
0.594404
0.596615
0.599217
0.603319
0.606975
0.609753
0.610768
0.607374
0.596518
0.61871
0.733408
1.78604
6.88655
0.000805466
0
0
0
0
0.255659
0.448736
1.0888
1.01884
1.15826
1.33376
1.57168
1.95907
2.85857
7.26827
2.67673
1.97358
1.63407
1.38676
1.0898
1.13713
0.553665
0.300108
0.2244
0.516149
0
0.0336884
0.0332504
1.01845
0.741213
0.765453
0.813354
0.821198
0.800623
0.773903
0.747692
0.72242
0.698202
0.675638
0.654833
0.635988
0.61846
0.603686
0.590037
0.58178
0.570857
0.573032
0.553669
0.571524
0.526142
0.59201
0.471143
0.628918
0.37722
0.469458
0.271193
0.291822
0.200491
0.632629
0.630549
0.62969
0.628458
0.62765
0.626829
0.625244
0.623348
0.621768
0.620874
0.620016
0.618472
0.617094
0.615632
0.614376
0.608163
0.598179
0.592033
0.616404
0.711835
1.8054
6.98631
0
0
0
0
0
0.109631
0.551704
1.00604
1.07092
1.2336
1.43425
1.71217
2.18069
3.35647
6.4393
2.84222
2.17381
1.85345
1.65855
1.58477
1.75991
3.97874
0.811194
0.447603
0
3.43306e-06
5.86433
1.51661
0.762652
0.673291
0.671848
0.677989
0.677069
0.671835
0.665322
0.658379
0.65124
0.644083
0.637096
0.629882
0.623549
0.617039
0.615313
0.611429
0.620307
0.603216
0.629766
0.575676
0.672253
0.50964
0.768525
0.399362
0.515976
0.284316
0.292131
0.201782
)
;

boundaryField
{
    inlet
    {
        type            calculated;
        value           nonuniform List<scalar> 
27
(
0.0874116
0.087354
0.0872484
0.0871089
0.0869612
0.0868091
0.0866483
0.0864801
0.0863056
0.0861313
0.0859578
0.0857884
0.0856264
0.0854756
0.0853398
0.0852231
0.0851237
0.0853277
0.0853014
0.0853131
0.0853839
0.0855214
0.085745
0.0860664
0.0865345
0.0870081
0.0879911
)
;
    }
    outlet
    {
        type            calculated;
        value           nonuniform List<scalar> 
78
(
0.70218
0.69819
0.696187
0.693579
0.69164
0.689687
0.686491
0.68283
0.679691
0.677629
0.675622
0.672605
0.669693
0.666679
0.664036
0.656287
0.645044
0.63889
0.665527
0.764661
1.90395
6.82665
0
0
0
0
0
0.109377
0.552346
1.03586
1.07575
1.2358
1.43512
1.71155
2.17698
3.33871
6.65932
2.8569
2.17949
1.85595
1.65892
1.5824
1.74879
4.90011
0.830585
0.459001
0
2.81456e-06
5.47311
1.60653
0.804585
0.709678
0.708685
0.716347
0.717187
0.714043
0.710005
0.705815
0.701621
0.697444
0.69345
0.688801
0.685193
0.680321
0.682562
0.67892
0.697445
0.668124
0.720838
0.624287
0.820988
0.532305
1.48177
0.407057
0.545234
0.289216
0.291778
0.207399
)
;
    }
    walls
    {
        type            calculated;
        value           nonuniform List<scalar> 0();
    }
    frontAndBack
    {
        type            empty;
    }
    procBoundary7to3
    {
        type            processor;
        value           nonuniform List<scalar> 
16
(
0.200522
0.199628
0.227069
0.245342
0.260718
0.281837
0.311068
0.344186
0.402859
0.402859
0.448423
0.502183
0.546961
0.607579
0.579895
0.637481
)
;
    }
    procBoundary7to6
    {
        type            processor;
        value           nonuniform List<scalar> 
91
(
0.223099
0.251495
0.251495
0.257026
0.257026
0.400212
0.400212
0.419209
0.310866
0.310866
0.349608
0.324368
0.324368
0.293808
0.313382
0.314541
0.314541
0.271686
0.280948
0.292962
0.292962
0.239012
0.248075
0.257734
0.26801
0.26801
0.209893
0.216656
0.223813
0.231373
0.239356
0.239356
0.183527
0.187811
0.192398
0.197302
0.202533
0.2081
0.214014
0.214014
0.164523
0.166046
0.167713
0.169542
0.171549
0.17375
0.176158
0.178789
0.181653
0.184761
0.188128
0.191765
0.191765
0.000579573
0
8.34389
0.241035
0.998008
0.65046
0.655168
0.682423
0.718358
0.76573
0.833006
0.939999
1.14281
1.70064
2.93357
1.3816
1.07574
0.942982
0.867863
0.811156
0.748186
0.657721
0.904163
0.258874
0
0
0
1.86704
0.26524
0.161062
0.15978
0.168955
0.172944
0.173555
0.174442
0.175793
0.177164
0.177164
)
;
    }
}


// ************************************************************************* //
