# p  FACE_DATA 600
# x y z  p
0.29893883 -0.05 0.060006728 11854.431
0.29682219 -0.05 0.060005155 11862.181
0.29471691 -0.05 0.060001576 11871.897
0.29262294 -0.05 0.05999591 11881.456
0.29054021 -0.05 0.059988277 11890.451
0.28846868 -0.05 0.059978645 11900.756
0.28640827 -0.05 0.059967018 11909.912
0.28435895 -0.05 0.059953476 11919.882
0.28232063 -0.05 0.05993795 11930.019
0.28029328 -0.05 0.059920485 11939.971
0.27827682 -0.05 0.059901123 11949.981
0.27627121 -0.05 0.059879855 11960.325
0.27427639 -0.05 0.05985667 11970.822
0.2722923 -0.05 0.059831621 11981.013
0.27031889 -0.05 0.059804697 11991.879
0.26835611 -0.05 0.05977592 12002.072
0.26640388 -0.05 0.059745343 12012.659
0.26446217 -0.05 0.059712935 12023.447
0.26253092 -0.05 0.059678711 12034.337
0.26061007 -0.05 0.059642689 12045.418
0.25869957 -0.05 0.059604861 12056.661
0.25679937 -0.05 0.059565286 12067.466
0.25490941 -0.05 0.05952394 12079.215
0.25302965 -0.05 0.059480841 12090.057
0.25116001 -0.05 0.059436049 12101.418
0.24930047 -0.05 0.059389522 12112.923
0.24745095 -0.05 0.059341283 12124.548
0.24561142 -0.05 0.059291325 12136.619
0.24378182 -0.05 0.05923967 12148.33
0.24196209 -0.05 0.059186367 12160.063
0.24015219 -0.05 0.059131421 12171.861
0.23835206 -0.05 0.059074821 12183.9
0.23656166 -0.05 0.059016618 12195.497
0.23478094 -0.05 0.058956769 12208.524
0.23300984 -0.05 0.05889526 12220.543
0.23124831 -0.05 0.05883224 12232.182
0.22949632 -0.05 0.058767617 12245.527
0.22775381 -0.05 0.058701363 12257.976
0.22602071 -0.05 0.058633589 12270.381
0.22429701 -0.05 0.058564274 12282.949
0.22258262 -0.05 0.058493448 12295.32
0.22087753 -0.05 0.058421069 12308.99
0.21918166 -0.05 0.058347132 12321.768
0.21749499 -0.05 0.058271731 12334.526
0.21581745 -0.05 0.058194856 12347.394
0.21414901 -0.05 0.058116493 12360.607
0.21248962 -0.05 0.05803665 12373.873
0.21083923 -0.05 0.057955337 12387.359
0.20919779 -0.05 0.057872577 12400.643
0.20756526 -0.05 0.057788393 12414.146
0.20594158 -0.05 0.057702763 12428.006
0.20432673 -0.05 0.057615706 12441.501
0.20272065 -0.05 0.057527277 12454.795
0.20112329 -0.05 0.057437457 12468.702
0.19953461 -0.05 0.05734625 12482.589
0.19795458 -0.05 0.057253621 12497.384
0.19638314 -0.05 0.057159665 12510.276
0.19482023 -0.05 0.05706438 12525.126
0.19326584 -0.05 0.056967732 12538.738
0.19171991 -0.05 0.056869749 12553.533
0.19018239 -0.05 0.056770463 12567.063
0.18865324 -0.05 0.056669846 12582.624
0.18713243 -0.05 0.056567899 12596.553
0.18561991 -0.05 0.056464666 12611.879
0.18411563 -0.05 0.056360132 12626.171
0.18261956 -0.05 0.056254318 12641.405
0.18113166 -0.05 0.056147258 12655.17
0.17965186 -0.05 0.056038987 12670.265
0.17818015 -0.05 0.05592942 12685.724
0.17671648 -0.05 0.055818588 12700.872
0.1752608 -0.05 0.05570656 12715.497
0.17381309 -0.05 0.055593325 12730.907
0.17237329 -0.05 0.055478844 12746.307
0.17094135 -0.05 0.055363199 12761.154
0.16951726 -0.05 0.055246341 12777.697
0.16810097 -0.05 0.055128259 12793.011
0.16669242 -0.05 0.05500905 12808.436
0.16529159 -0.05 0.054888659 12824.68
0.16389844 -0.05 0.054767078 12840.523
0.16251292 -0.05 0.054644372 12856.053
0.161135 -0.05 0.054520532 12872.045
0.15976465 -0.05 0.054395554 12887.878
0.15840181 -0.05 0.054269449 12904.366
0.15704647 -0.05 0.054142171 12921.3
0.15569857 -0.05 0.05401378 12937.09
0.15435807 -0.05 0.053884336 12953.102
0.15302494 -0.05 0.053753791 12969.59
0.15169915 -0.05 0.053622161 12986.064
0.15038066 -0.05 0.053489407 13003.737
0.14906942 -0.05 0.053355551 13020.078
0.1477654 -0.05 0.053220679 13036.706
0.14646858 -0.05 0.053084715 13054.345
0.1451789 -0.05 0.052947683 13070.912
0.14389634 -0.05 0.052809659 13087.706
0.14262085 -0.05 0.05267058 13105.553
0.14135242 -0.05 0.052530426 13123.336
0.14009099 -0.05 0.052389231 13141.023
0.13883652 -0.05 0.052247036 13158.155
0.137589 -0.05 0.052103837 13175.925
0.13634838 -0.05 0.051959625 13193.014
0.13511461 -0.05 0.051814476 13210.344
0.1338877 -0.05 0.051668228 13230.501
0.13266759 -0.05 0.051520967 13246.475
0.13145422 -0.05 0.051372868 13264.009
0.13024759 -0.05 0.051223701 13283.947
0.12904768 -0.05 0.051073499 13302.032
0.12785442 -0.05 0.050922382 13320.257
0.12666779 -0.05 0.050770303 13338.935
0.12548777 -0.05 0.050617245 13357.919
0.12431431 -0.05 0.050463216 13376.355
0.12314738 -0.05 0.050308326 13393.686
0.12198694 -0.05 0.050152493 13414.195
0.12083299 -0.05 0.049995623 13434.009
0.11968547 -0.05 0.049837846 13452.868
0.11854435 -0.05 0.049679176 13472.154
0.11740961 -0.05 0.049519574 13491.792
0.11628122 -0.05 0.049359037 13511.595
0.11515913 -0.05 0.049197589 13531.127
0.11404333 -0.05 0.049035234 13550.805
0.11293377 -0.05 0.048871989 13570.105
0.11183042 -0.05 0.048707847 13589.991
0.11073327 -0.05 0.048542821 13609.743
0.10964229 -0.05 0.048376866 13631.247
0.10855744 -0.05 0.048209982 13651.617
0.10747868 -0.05 0.048042235 13672.333
0.106406 -0.05 0.04787359 13693.325
0.10533935 -0.05 0.047704062 13714.154
0.10427873 -0.05 0.047533647 13735.194
0.10322407 -0.05 0.047362394 13754.88
0.10217537 -0.05 0.04719032 13775.915
0.10113259 -0.05 0.047017348 13798.123
0.10009572 -0.05 0.046843455 13820.893
0.099064719 -0.05 0.046668685 13842.401
0.098039551 -0.05 0.046493118 13863.064
0.097020189 -0.05 0.046316733 13884.948
0.096006622 -0.05 0.046139442 13908.293
0.094998822 -0.05 0.045961241 13931.211
0.09399675 -0.05 0.045782217 13953.107
0.093000378 -0.05 0.045602371 13975.728
0.092009685 -0.05 0.045421665 13998.416
0.091024643 -0.05 0.045240119 14021.333
0.090045231 -0.05 0.045057701 14045.259
0.089071419 -0.05 0.044874428 14068.119
0.088103174 -0.05 0.044690349 14091.186
0.087140475 -0.05 0.044505439 14114.794
0.086183303 -0.05 0.044319663 14139.187
0.08523163 -0.05 0.044133032 14163.096
0.084285425 -0.05 0.043945577 14187.111
0.083344663 -0.05 0.043757308 14211.395
0.082409326 -0.05 0.043568191 14237.182
0.081479394 -0.05 0.04337819 14262.845
0.080554831 -0.05 0.043187382 14287.164
0.079635605 -0.05 0.042995792 14312.597
0.078721718 -0.05 0.042803304 14339.708
0.077813136 -0.05 0.042609969 14364.913
0.076909826 -0.05 0.042415818 14391.67
0.07601178 -0.05 0.042220793 14418.095
0.075118966 -0.05 0.042024933 14444.486
0.074231361 -0.05 0.041828237 14470.714
0.073348934 -0.05 0.04163074 14496.833
0.072471679 -0.05 0.041432371 14524.997
0.071599572 -0.05 0.041233139 14551.719
0.070732583 -0.05 0.041033074 14579.903
0.069870697 -0.05 0.040832148 14607.318
0.069013884 -0.05 0.040630397 14635.354
0.068162134 -0.05 0.040427777 14664.027
0.067315419 -0.05 0.040224307 14692.578
0.06647372 -0.05 0.040019973 14722.847
0.065637027 -0.05 0.039814748 14753.28
0.06480531 -0.05 0.039608654 14783.951
0.063978543 -0.05 0.039401719 14813.83
0.063156705 -0.05 0.039193946 14844.539
0.062339788 -0.05 0.038985286 14875.933
0.061527775 -0.05 0.038775725 14908.045
0.060720649 -0.05 0.038565255 14940.567
0.059918385 -0.05 0.038353894 14972.949
0.059120963 -0.05 0.03814165 15005.686
0.058328367 -0.05 0.037928504 15038.532
0.057540575 -0.05 0.037714473 15070.699
0.056757564 -0.05 0.037499567 15103.391
0.055979327 -0.05 0.037283751 15137.599
0.055205861 -0.05 0.03706696 15173.514
0.054437144 -0.05 0.036849222 15208.415
0.053673142 -0.05 0.036630582 15243.474
0.052913841 -0.05 0.036411033 15278.368
0.052159229 -0.05 0.036190552 15314.623
0.051409301 -0.05 0.035969101 15351.9
0.050664044 -0.05 0.035746666 15389.973
0.049923426 -0.05 0.035523297 15427.86
0.049187444 -0.05 0.035298949 15468.433
0.048456093 -0.05 0.035073588 15508.033
0.047729344 -0.05 0.034847258 15547.988
0.047007184 -0.05 0.034619944 15588.171
0.046289611 -0.05 0.034391604 15629.641
0.045576607 -0.05 0.034162252 15670.46
0.044868158 -0.05 0.033931882 15712.818
0.044164259 -0.05 0.033700465 15754.907
0.043464894 -0.05 0.033468005 15798.044
0.042770054 -0.05 0.033234487 15842.052
0.042079734 -0.05 0.032999885 15888.157
0.041393929 -0.05 0.032764174 15934.812
0.040712625 -0.05 0.032527361 15981.798
0.040035798 -0.05 0.032289471 16028.394
0.039363443 -0.05 0.032050489 16076.616
0.038695563 -0.05 0.031810365 16126.151
0.038032168 -0.05 0.031569045 16177.092
0.037373226 -0.05 0.031326581 16226.815
0.036718733 -0.05 0.03108296 16278.788
0.036068678 -0.05 0.030838173 16330.315
0.035423063 -0.05 0.030592193 16385.905
0.034781926 -0.05 0.030344893 16441.702
0.034145213 -0.05 0.030096392 16495.707
0.033512917 -0.05 0.029846677 16552.476
0.032885063 -0.05 0.029595666 16610.663
0.032261651 -0.05 0.029343341 16671.231
0.031642677 -0.05 0.029089693 16731.605
0.031028119 -0.05 0.028834753 16792.219
0.030417982 -0.05 0.028578493 16854.53
0.029812303 -0.05 0.028320809 16919.429
0.029211079 -0.05 0.0280617 16983.495
0.028614285 -0.05 0.027801211 17048.527
0.028021925 -0.05 0.027539318 17115.042
0.027434034 -0.05 0.027275938 17184.876
0.026850619 -0.05 0.027011044 17254.423
0.026271654 -0.05 0.026744689 17325.694
0.025697179 -0.05 0.02647678 17400.516
0.025127212 -0.05 0.026207275 17475.49
0.024561729 -0.05 0.025936225 17551.238
0.024000753 -0.05 0.025663583 17630.065
0.023444336 -0.05 0.025389243 17711
0.022892447 -0.05 0.025113275 17791.581
0.022345135 -0.05 0.024835581 17878.176
0.02180243 -0.05 0.024556113 17962.113
0.021264293 -0.05 0.024274957 18048.804
0.0207308 -0.05 0.023991978 18138.867
0.020201992 -0.05 0.023707108 18230.325
0.019677842 -0.05 0.023420417 18321.259
0.019158403 -0.05 0.023131824 18416.734
0.018643727 -0.05 0.022841258 18512.184
0.018133826 -0.05 0.022548716 18610.794
0.017628739 -0.05 0.022254151 18710.014
0.017128471 -0.05 0.021957583 18812.854
0.016633127 -0.05 0.021658866 18922.268
0.016142724 -0.05 0.021358 19032.913
0.015657283 -0.05 0.021054987 19152.095
0.015176888 -0.05 0.020749728 19277.365
0.014701579 -0.05 0.020442196 19409.947
0.014231398 -0.05 0.020132367 19548.262
0.013766434 -0.05 0.019820157 19694.048
0.013306742 -0.05 0.019505528 19842.162
0.012852374 -0.05 0.019188457 19995.825
0.012403439 -0.05 0.018868841 20152.094
0.01195997 -0.05 0.018546687 20311.024
0.011522076 -0.05 0.018221915 20474.733
0.011089809 -0.05 0.017894514 20641.147
0.0106633 -0.05 0.017564386 20816.272
0.010242659 -0.05 0.01723145 20992.764
0.009827894 -0.05 0.016895788 21175.43
0.0094192167 -0.05 0.016557218 21368.018
0.0090167438 -0.05 0.016215673 21563.147
0.0086204858 -0.05 0.015871238 21764.595
0.0082306648 -0.05 0.015523765 21977.687
0.0078474301 -0.05 0.015173187 22194.538
0.00747084 -0.05 0.014819531 22417.971
0.0071010571 -0.05 0.014462741 22650.056
0.0067383047 -0.05 0.014102727 22893.058
0.0063827544 -0.05 0.013739427 23140.906
0.0060345067 -0.05 0.013372862 23391.979
0.0056937565 -0.05 0.013003011 23648.978
0.0053606882 -0.05 0.012629837 23913.979
0.0050354824 -0.05 0.012253323 24190.652
0.0047183926 -0.05 0.01187344 24478.283
0.0044096379 -0.05 0.011490161 24775.137
0.0041094132 -0.05 0.011103483 25080.786
0.0038179536 -0.05 0.010713443 25395.691
0.0035354728 -0.05 0.01032007 25719.268
0.0032621919 -0.05 0.0099233916 26051.816
0.0029983702 -0.05 0.0095234712 26392.305
0.0027442429 -0.05 0.0091203468 26739.939
0.0025000604 -0.05 0.0087141009 27094.4
0.0022660754 -0.05 0.0083048554 27455.429
0.0020425146 -0.05 0.0078926699 27823.037
0.0018296563 -0.05 0.0074776735 28196.244
0.0016277487 -0.05 0.0070600557 28572.842
0.0014369745 -0.05 0.006639968 28951.882
0.0012575291 -0.05 0.0062175973 29333.277
0.0010896146 -0.05 0.0057931737 29716.298
0.00093341056 -0.05 0.0053669215 30097.979
0.00078906403 -0.05 0.0049390744 30476.541
0.00065670868 -0.05 0.0045099018 30850.821
0.00053653171 -0.05 0.0040796665 31220.611
0.00042862038 -0.05 0.003648665 31581.282
0.00033294635 -0.05 0.003217232 31931.706
0.00024951873 -0.05 0.002785685 32271.756
0.00017832254 -0.05 0.0023543467 32599.813
0.00011930806 -0.05 0.0019235435 32913.576
7.2389968e-05 -0.05 0.0014936046 33211.696
3.7448892e-05 -0.05 0.0010648563 33493.538
1.4332163e-05 -0.05 0.0006376208 33758.986
2.8544133e-06 -0.05 0.00021221054 34005.424
0.99884037 -0.05 0.00016828408 26635.682
0.99652103 -0.05 0.00050440213 26621.233
0.99420154 -0.05 0.0008395204 26582.948
0.99188191 -0.05 0.0011736208 26552.004
0.98956214 -0.05 0.0015067636 26518.675
0.98724223 -0.05 0.001838948 26486.712
0.9849222 -0.05 0.0021701636 26454.692
0.98260202 -0.05 0.0025004302 26423.036
0.98028169 -0.05 0.0028297328 26391.582
0.97796124 -0.05 0.0031580577 26360.294
0.97564065 -0.05 0.0034854377 26329.158
0.97331994 -0.05 0.0038118591 26298.149
0.97099908 -0.05 0.0041373159 26267.261
0.96867809 -0.05 0.0044618578 26236.432
0.96635696 -0.05 0.0047854478 26205.77
0.96403572 -0.05 0.0051081172 26175.079
0.96171435 -0.05 0.0054299032 26144.531
0.95939284 -0.05 0.0057507069 26114.083
0.95707121 -0.05 0.0060705875 26083.66
0.95474946 -0.05 0.0063895914 26053.328
0.95242757 -0.05 0.0067076389 26023.142
0.95010556 -0.05 0.0070248024 25992.891
0.94778344 -0.05 0.0073411105 25962.801
0.94546118 -0.05 0.0076564368 25932.848
0.94313881 -0.05 0.007970866 25902.888
0.94081631 -0.05 0.0082844406 25873.049
0.93849369 -0.05 0.0085971026 25843.317
0.93617096 -0.05 0.0089088655 25813.669
0.9338481 -0.05 0.0092197817 25784.054
0.93152513 -0.05 0.0095298292 25754.596
0.92920205 -0.05 0.00983897 25725.223
0.92687884 -0.05 0.010147248 25695.935
0.92455553 -0.05 0.01045465 25666.775
0.92223209 -0.05 0.010761189 25637.666
0.91990855 -0.05 0.011066875 25608.717
0.91758488 -0.05 0.011371653 25579.925
0.91526111 -0.05 0.011675608 25551.085
0.91293723 -0.05 0.011978761 25522.432
0.91061324 -0.05 0.012281 25493.971
0.90828913 -0.05 0.012582372 25465.528
0.90596492 -0.05 0.012882964 25437.138
0.90364059 -0.05 0.013182677 25409.063
0.90131615 -0.05 0.013481494 25380.996
0.89899162 -0.05 0.013779572 25352.884
0.89666698 -0.05 0.014076842 25325.081
0.89434222 -0.05 0.014373142 25297.534
0.89201737 -0.05 0.014668681 25269.738
0.88969241 -0.05 0.014963453 25242.364
0.88736734 -0.05 0.0152573 25215.093
0.88504217 -0.05 0.015550344 25187.856
0.8827169 -0.05 0.015842646 25160.658
0.88039152 -0.05 0.016134071 25133.847
0.87806604 -0.05 0.016424635 25106.945
0.87574046 -0.05 0.016714466 25080.169
0.87341478 -0.05 0.017003468 25053.581
0.871089 -0.05 0.017291665 25027.014
0.86876312 -0.05 0.017579058 25000.661
0.86643714 -0.05 0.017865646 24974.314
0.86411107 -0.05 0.018151445 24948.182
0.86178489 -0.05 0.018436407 24922.155
0.85945862 -0.05 0.018720606 24896.104
0.85713225 -0.05 0.019004019 24870.3
0.85480578 -0.05 0.019286574 24844.655
0.85247921 -0.05 0.019568355 24818.964
0.85015256 -0.05 0.019849418 24793.356
0.84782581 -0.05 0.020129657 24768.014
0.84549896 -0.05 0.020409081 24742.647
0.84317202 -0.05 0.020687756 24717.356
0.84084499 -0.05 0.020965643 24692.227
0.83851786 -0.05 0.021242672 24667.363
0.83619063 -0.05 0.021518954 24642.296
0.83386332 -0.05 0.021794529 24617.463
0.83153592 -0.05 0.022069294 24592.743
0.82920841 -0.05 0.022343258 24568.159
0.82688083 -0.05 0.02261648 24543.505
0.82455316 -0.05 0.022888925 24519.129
0.82222538 -0.05 0.023160547 24494.82
0.81989751 -0.05 0.023431389 24470.638
0.81756956 -0.05 0.023701494 24446.416
0.81524153 -0.05 0.023970846 24422.405
0.8129134 -0.05 0.024239417 24398.407
0.81058518 -0.05 0.02450723 24374.544
0.80825687 -0.05 0.024774258 24350.78
0.80592849 -0.05 0.02504053 24327.073
0.8036 -0.05 0.025306023 24303.524
0.80127144 -0.05 0.025570774 24279.884
0.79894279 -0.05 0.025834763 24256.54
0.79661404 -0.05 0.026097924 24233.228
0.79428522 -0.05 0.026360374 24209.856
0.79195631 -0.05 0.026622048 24186.805
0.78962731 -0.05 0.026882938 24163.629
0.78729823 -0.05 0.027143126 24140.583
0.78496906 -0.05 0.027402517 24117.7
0.78263981 -0.05 0.02766117 24094.664
0.78031048 -0.05 0.027919081 24071.923
0.77798106 -0.05 0.028176144 24049.286
0.77565155 -0.05 0.028432494 24026.471
0.77332196 -0.05 0.028688107 24003.952
0.77099228 -0.05 0.028942908 23981.424
0.76866253 -0.05 0.029196968 23958.923
0.7663327 -0.05 0.029450285 23936.481
0.76400278 -0.05 0.029702803 23914.215
0.76167277 -0.05 0.029954568 23891.837
0.75934268 -0.05 0.030205573 23869.713
0.75701251 -0.05 0.030455803 23847.482
0.75468227 -0.05 0.030705313 23825.34
0.75235193 -0.05 0.030954045 23803.27
0.75002152 -0.05 0.031202018 23781.198
0.74769103 -0.05 0.031449207 23759.291
0.74536045 -0.05 0.031695625 23737.31
0.7430298 -0.05 0.031941289 23715.442
0.74069906 -0.05 0.032186181 23693.549
0.73836824 -0.05 0.032430305 23671.773
0.73603734 -0.05 0.032673645 23650.027
0.73370637 -0.05 0.032916233 23628.229
0.73137531 -0.05 0.033158092 23606.413
0.72904417 -0.05 0.033399148 23584.818
0.72671295 -0.05 0.033639377 23563.197
0.72438166 -0.05 0.03387888 23541.444
0.72205028 -0.05 0.034117645 23519.795
0.71971882 -0.05 0.034355552 23498.345
0.71738729 -0.05 0.034592685 23476.632
0.71505567 -0.05 0.034829099 23455.059
0.71272397 -0.05 0.035064674 23433.56
0.71039219 -0.05 0.035299486 23411.883
0.70806035 -0.05 0.035533544 23390.348
0.70572841 -0.05 0.035766778 23368.786
0.70339641 -0.05 0.035999269 23347.096
0.70106433 -0.05 0.03623098 23325.503
0.69873216 -0.05 0.036461892 23303.799
0.69639992 -0.05 0.036691978 23282.218
0.69406759 -0.05 0.036921269 23260.435
0.69173519 -0.05 0.03714974 23238.895
0.68940271 -0.05 0.037377398 23217.068
0.68707015 -0.05 0.037604327 23195.221
0.68473752 -0.05 0.03783047 23173.273
0.68240481 -0.05 0.038055756 23151.454
0.68007201 -0.05 0.038280206 23129.428
0.67773914 -0.05 0.038503859 23107.429
0.67540619 -0.05 0.03872673 23085.184
0.67307317 -0.05 0.038948784 23063.036
0.67074007 -0.05 0.039170028 23040.575
0.66840689 -0.05 0.039390456 23018.218
0.66607364 -0.05 0.039610024 22995.625
0.6637403 -0.05 0.039828774 22973.015
0.66140688 -0.05 0.040046679 22950.212
0.6590734 -0.05 0.040263799 22927.176
0.65673983 -0.05 0.040480084 22904.106
0.65440618 -0.05 0.040695489 22880.845
0.65207246 -0.05 0.040910082 22857.337
0.64973866 -0.05 0.041123838 22833.698
0.64740478 -0.05 0.04133674 22809.79
0.64507083 -0.05 0.041548788 22785.74
0.6427368 -0.05 0.04175995 22761.453
0.64040268 -0.05 0.041970278 22736.847
0.6380685 -0.05 0.042179753 22712.043
0.63573424 -0.05 0.042388355 22686.904
0.63339989 -0.05 0.042596094 22661.512
0.63106547 -0.05 0.042802945 22635.786
0.62873097 -0.05 0.04300894 22609.679
0.6263964 -0.05 0.043214055 22583.276
0.62406174 -0.05 0.043418269 22556.482
0.62172702 -0.05 0.043621601 22529.291
0.61939221 -0.05 0.043824069 22501.618
0.61705733 -0.05 0.044025645 22473.579
0.61472237 -0.05 0.044226271 22445.112
0.61238733 -0.05 0.044426006 22416.071
0.61005222 -0.05 0.04462488 22386.516
0.60771702 -0.05 0.044822825 22356.46
0.60538174 -0.05 0.045019806 22325.87
0.6030464 -0.05 0.045215861 22294.642
0.60071097 -0.05 0.045411024 22262.791
0.59837546 -0.05 0.045605254 22230.324
0.59603988 -0.05 0.045798556 22197.137
0.59370423 -0.05 0.045990938 22163.263
0.59136849 -0.05 0.046182352 22128.678
0.58903267 -0.05 0.046372791 22093.336
0.58669678 -0.05 0.046562266 22057.196
0.5843608 -0.05 0.046750814 22020.183
0.58202475 -0.05 0.046938396 21982.381
0.57968862 -0.05 0.047124972 21943.682
0.57735242 -0.05 0.047310579 21904.069
0.57501614 -0.05 0.047495251 21863.467
0.57267978 -0.05 0.047678924 21821.977
0.57034334 -0.05 0.04786155 21779.465
0.56800683 -0.05 0.048043188 21735.926
0.56567024 -0.05 0.048223861 21691.297
0.56333356 -0.05 0.048403536 21645.618
0.56099681 -0.05 0.048582153 21598.833
0.55865998 -0.05 0.04875972 21550.904
0.55632308 -0.05 0.048936314 21501.753
0.55398609 -0.05 0.049111879 21451.508
0.55164903 -0.05 0.049286359 21400.04
0.54931189 -0.05 0.049459794 21347.387
0.54697467 -0.05 0.049632163 21293.482
0.54463737 -0.05 0.049803468 21238.334
0.5423 -0.05 0.049973719 21181.896
0.53996254 -0.05 0.050142913 21124.188
0.53762502 -0.05 0.050311035 21065.167
0.53528742 -0.05 0.050478054 21004.845
0.53294973 -0.05 0.050643972 20943.194
0.53061196 -0.05 0.050808824 20880.27
0.52827412 -0.05 0.050972558 20816.065
0.5259362 -0.05 0.051135143 20750.505
0.5235982 -0.05 0.051296612 20683.56
0.52126012 -0.05 0.051456922 20615.343
0.51892198 -0.05 0.051616121 20545.773
0.51658374 -0.05 0.051774162 20474.902
0.51424543 -0.05 0.051931036 20402.698
0.51190704 -0.05 0.05208678 20329.267
0.50956857 -0.05 0.052241321 20254.437
0.50723003 -0.05 0.052394685 20178.395
0.50489141 -0.05 0.052546885 20101.22
0.50255271 -0.05 0.05269791 20022.848
0.50021394 -0.05 0.052847701 19943.294
0.49787509 -0.05 0.052996281 19862.565
0.49553616 -0.05 0.053143654 19780.724
0.49319715 -0.05 0.053289801 19697.784
0.49085807 -0.05 0.053434697 19613.821
0.48851891 -0.05 0.05357832 19528.865
0.48617967 -0.05 0.053720679 19443.001
0.48384036 -0.05 0.053861795 19356.276
0.48150096 -0.05 0.054001669 19268.75
0.4791615 -0.05 0.054140241 19180.427
0.47682195 -0.05 0.054277501 19091.29
0.47448234 -0.05 0.054413462 19001.321
0.47214264 -0.05 0.054548109 18910.503
0.46980287 -0.05 0.054681459 18818.836
0.46746302 -0.05 0.054813494 18726.389
0.4651231 -0.05 0.054944177 18633.203
0.4627831 -0.05 0.055073496 18539.41
0.46044304 -0.05 0.055201437 18445.012
0.45810288 -0.05 0.055328007 18350.041
0.45576266 -0.05 0.055453195 18254.216
0.45342237 -0.05 0.055576996 18157.007
0.451082 -0.05 0.05569938 18057.463
0.44874156 -0.05 0.055820362 17954.24
0.44640104 -0.05 0.055939944 17845.875
0.44406046 -0.05 0.056058044 17729.657
0.4417198 -0.05 0.056174717 17600.931
0.43937906 -0.05 0.05628996 17455.002
0.43703826 -0.05 0.056403696 17286.268
0.43469738 -0.05 0.056515954 17084.739
0.43235643 -0.05 0.056626691 16842.818
0.43001541 -0.05 0.056735938 16553.268
0.42767432 -0.05 0.056843696 16195.728
0.42533317 -0.05 0.056949929 15728.748
0.42299193 -0.05 0.057054582 15126.921
0.42065064 -0.05 0.05715767 14412.547
0.41830927 -0.05 0.057259222 13668.857
0.41596783 -0.05 0.057359191 13002.264
0.41362633 -0.05 0.057457551 12484.016
0.41128476 -0.05 0.057554292 12123.865
0.40894313 -0.05 0.057649427 11893.073
0.40660142 -0.05 0.057742965 11753.839
0.40425966 -0.05 0.057834838 11673.974
0.40191783 -0.05 0.057925023 11629.406
0.39957593 -0.05 0.058013541 11606.89
0.39723398 -0.05 0.058100378 11596.234
0.39489196 -0.05 0.058185525 11592.083
0.39254988 -0.05 0.058268918 11590.877
0.39020774 -0.05 0.058350591 11590.762
0.38786553 -0.05 0.058430541 11592.501
0.38552326 -0.05 0.058508715 11595.485
0.38318094 -0.05 0.058585094 11599.083
0.38083857 -0.05 0.058659688 11602.989
0.37849613 -0.05 0.058732482 11607.183
0.37615364 -0.05 0.058803471 11611.502
0.37381109 -0.05 0.058872605 11616.53
0.37146848 -0.05 0.058939856 11621.454
0.36912583 -0.05 0.059005237 11626.617
0.36678312 -0.05 0.059068742 11631.684
0.36444037 -0.05 0.059130353 11637.1
0.36209757 -0.05 0.059190049 11642.446
0.35975471 -0.05 0.059247824 11648.164
0.35741181 -0.05 0.059303603 11654.412
0.35506885 -0.05 0.059357402 11660.211
0.35272586 -0.05 0.059409225 11666.498
0.35038283 -0.05 0.059459045 11672.516
0.34803975 -0.05 0.059506859 11679.037
0.34569662 -0.05 0.059552581 11685.976
0.34335347 -0.05 0.059596249 11692.285
0.34101027 -0.05 0.059637862 11699.385
0.33866703 -0.05 0.059677333 11706.588
0.33632377 -0.05 0.059714702 11713.683
0.33398046 -0.05 0.059749909 11721.578
0.33163713 -0.05 0.059782951 11728.757
0.32929376 -0.05 0.059813858 11736.497
0.32695037 -0.05 0.059842535 11744.676
0.32460696 -0.05 0.059868968 11752.873
0.32226351 -0.05 0.059893141 11761.362
0.31992004 -0.05 0.059915067 11769.427
0.31757656 -0.05 0.059934727 11778.134
0.31523306 -0.05 0.059952066 11786.872
0.31288954 -0.05 0.059967055 11796.093
0.31054601 -0.05 0.059979678 11805.011
0.30820247 -0.05 0.059989926 11814.226
0.30585891 -0.05 0.059997793 11823.203
0.30351535 -0.05 0.060003209 11833.443
0.30117178 -0.05 0.060006157 11843.791
