# p  FACE_DATA 150
# x y z  p
0.29576437 -0.05 0.059999702 11802.737
0.28738431 -0.05 0.059968924 11836.144
0.27918472 -0.05 0.059906283 11875.64
0.27116186 -0.05 0.05981265 11915.58
0.26331203 -0.05 0.059689027 11957.278
0.25563166 -0.05 0.059536266 12000.685
0.24811723 -0.05 0.059355154 12045.607
0.24076528 -0.05 0.059146558 12091.682
0.23357246 -0.05 0.058911358 12139.023
0.22653546 -0.05 0.058650342 12187.755
0.21965107 -0.05 0.058364202 12237.798
0.21291613 -0.05 0.058053757 12288.678
0.20632755 -0.05 0.057719714 12340.987
0.19988233 -0.05 0.057362758 12393.327
0.19357748 -0.05 0.056983702 12446.466
0.18741014 -0.05 0.056583118 12500.384
0.18137746 -0.05 0.056161624 12555.164
0.17547671 -0.05 0.055719844 12612.456
0.16970518 -0.05 0.055258363 12672.23
0.1640602 -0.05 0.05477783 12733.311
0.15853921 -0.05 0.054278745 12796.39
0.15313967 -0.05 0.053761636 12860.68
0.14785914 -0.05 0.053226963 12927.155
0.14269518 -0.05 0.052675259 12994.098
0.13764543 -0.05 0.052106992 13063.083
0.13270762 -0.05 0.051522466 13133.323
0.12787949 -0.05 0.050922169 13204.684
0.12315884 -0.05 0.050306449 13278.02
0.11854353 -0.05 0.049675628 13352.58
0.11403148 -0.05 0.04903008 13428.107
0.10962066 -0.05 0.04837006 13503.137
0.10530908 -0.05 0.047695796 13577.864
0.10109483 -0.05 0.047007509 13656.277
0.096976017 -0.05 0.046305459 13739.886
0.092950808 -0.05 0.04558984 13826.26
0.08901745 -0.05 0.044860715 13914.064
0.085174232 -0.05 0.044118143 14002.643
0.081419479 -0.05 0.043362242 14092.508
0.077751578 -0.05 0.042593081 14185.574
0.074168981 -0.05 0.041810614 14283.779
0.070670198 -0.05 0.041014781 14386.971
0.06725379 -0.05 0.040205492 14494.907
0.06391837 -0.05 0.039382651 14613.167
0.060662655 -0.05 0.038545988 14745.842
0.057485397 -0.05 0.037695273 14889.073
0.054385413 -0.05 0.036830261 15040.509
0.051361621 -0.05 0.035950545 15198.334
0.048412992 -0.05 0.035055749 15366.27
0.045538629 -0.05 0.034145316 15546.675
0.042737712 -0.05 0.03321865 15734.54
0.040009498 -0.05 0.032275148 15927.385
0.037353406 -0.05 0.031314032 16131.424
0.034768993 -0.05 0.030334375 16349.336
0.032255944 -0.05 0.02933521 16582.27
0.029814132 -0.05 0.028315426 16828.535
0.027443661 -0.05 0.027273729 17090.41
0.025144824 -0.05 0.026208776 17373.105
0.022918276 -0.05 0.02511886 17683.89
0.020764984 -0.05 0.02400217 18031.546
0.018686283 -0.05 0.022856725 18430.705
0.016684024 -0.05 0.021680228 18883.915
0.01476059 -0.05 0.020470219 19391.667
0.012919252 -0.05 0.019223865 19966.716
0.011164249 -0.05 0.017938283 20612.843
0.0095007128 -0.05 0.016610449 21340.828
0.0079348886 -0.05 0.015236971 22177.803
0.006474941 -0.05 0.013814774 23141.108
0.0051312596 -0.05 0.012341958 24234.601
0.0039150106 -0.05 0.010816511 25459.423
0.0028396284 -0.05 0.009238845 26802.464
0.0019206554 -0.05 0.007613688 28232.356
0.0011720639 -0.05 0.0059475212 29741.688
0.0006061561 -0.05 0.004252283 31248.715
0.00023063831 -0.05 0.0025452878 32601.383
4.5460517e-05 -0.05 0.0008455405 33718.118
0.99536103 -0.05 0.00067021835 26469.96
0.98608198 -0.05 0.0020028877 26391.879
0.97680071 -0.05 0.0033200849 26282.45
0.96751731 -0.05 0.0046220425 26178.394
0.95823181 -0.05 0.0059090613 26071.234
0.94894428 -0.05 0.0071813587 25964.331
0.93965479 -0.05 0.0084391859 25857.031
0.93036339 -0.05 0.0096828487 25749.827
0.92107012 -0.05 0.010912491 25642.962
0.91177504 -0.05 0.012128333 25536.495
0.90247819 -0.05 0.013330648 25430.687
0.89317963 -0.05 0.014519511 25325.672
0.88387936 -0.05 0.015695054 25221.648
0.87457746 -0.05 0.016857552 25118.648
0.86527395 -0.05 0.01800713 25016.848
0.85596885 -0.05 0.019143875 24916.1
0.84666223 -0.05 0.020267984 24816.458
0.8373541 -0.05 0.021379502 24718.167
0.82804448 -0.05 0.022478516 24621.142
0.8187334 -0.05 0.023565119 24525.435
0.8094209 -0.05 0.024639397 24430.601
0.80010698 -0.05 0.025701394 24336.851
0.79079168 -0.05 0.026751168 24243.956
0.78147501 -0.05 0.027788748 24152.323
0.77215699 -0.05 0.028814138 24061.545
0.76283764 -0.05 0.029827333 23971.975
0.75351698 -0.05 0.030828337 23883.004
0.74419501 -0.05 0.03181713 23794.492
0.73487174 -0.05 0.032793639 23706.019
0.72554719 -0.05 0.033757832 23617.728
0.71622136 -0.05 0.034709535 23529.646
0.70689427 -0.05 0.03564879 23440.992
0.69756592 -0.05 0.036575541 23351.854
0.68823633 -0.05 0.037489546 23261.487
0.67890547 -0.05 0.03839067 23169.997
0.66957337 -0.05 0.039278803 23076.439
0.66024004 -0.05 0.040153805 22980.687
0.65090546 -0.05 0.04101549 22881.645
0.64156964 -0.05 0.041863622 22778.961
0.63223258 -0.05 0.042697993 22671.696
0.62289428 -0.05 0.043518409 22559.031
0.61355475 -0.05 0.04432459 22440.273
0.60421397 -0.05 0.045116235 22314.372
0.59487195 -0.05 0.045893096 22181.151
0.58552869 -0.05 0.046654869 22037.533
0.57618419 -0.05 0.047401205 21882.002
0.56683843 -0.05 0.048131797 21712.69
0.55749143 -0.05 0.04884624 21529.927
0.54814318 -0.05 0.049544113 21334.353
0.53879368 -0.05 0.050225066 21126.223
0.52944294 -0.05 0.050888717 20904.518
0.52009095 -0.05 0.051534504 20663.636
0.51073771 -0.05 0.052161963 20401.669
0.50138323 -0.05 0.052770675 20115.5
0.49202751 -0.05 0.05336005 19811.94
0.48267056 -0.05 0.053929509 19501.633
0.47331239 -0.05 0.054478508 19190.333
0.46395301 -0.05 0.055006444 18874.281
0.45459243 -0.05 0.05551264 18548.221
0.44523065 -0.05 0.055996468 18132.426
0.43586773 -0.05 0.056457197 16869.471
0.42650365 -0.05 0.05689408 14780.037
0.41713847 -0.05 0.057306403 13093.113
0.4077722 -0.05 0.057693321 12258.32
0.39840488 -0.05 0.058053993 11870.421
0.38903656 -0.05 0.058387504 11705.289
0.37966728 -0.05 0.058692934 11639.536
0.3702971 -0.05 0.058969274 11616.15
0.36092607 -0.05 0.059215505 11610.76
0.35155429 -0.05 0.059430617 11618.487
0.34218182 -0.05 0.059613395 11637.713
0.33280875 -0.05 0.059762648 11663.122
0.3234352 -0.05 0.059877122 11693.179
0.31406128 -0.05 0.059955444 11726.148
0.30468712 -0.05 0.059996221 11762.788
