/*--------------------------------*- C++ -*----------------------------------*\
| =========                 |                                                 |
| \\      /  F ield         | OpenFOAM: The Open Source CFD Toolbox           |
|  \\    /   O peration     | Version:  2306                                  |
|   \\  /    A nd           | Website:  www.openfoam.com                      |
|    \\/     M anipulation  |                                                 |
\*---------------------------------------------------------------------------*/
FoamFile
{
    version     2.0;
    format      ascii;
    arch        "LSB;label=32;scalar=64";
    class       volScalarField;
    location    "525";
    object      div(phi);
}
// * * * * * * * * * * * * * * * * * * * * * * * * * * * * * * * * * * * * * //

dimensions      [0 0 -1 0 0 0 0];

internalField   nonuniform List<scalar> 
1340
(
-1.64789e-06
-9.15352e-07
-8.87672e-07
-5.37175e-07
-4.68082e-07
-1.1376e-07
-3.97971e-07
-2.03129e-07
-9.34601e-07
-2.42747e-07
-1.00765e-07
-2.87486e-08
-2.23669e-07
-3.59039e-07
5.21288e-07
-3.33764e-07
-1.37177e-07
-5.32209e-08
-1.35052e-07
-1.51782e-07
-6.56877e-08
-3.26449e-07
1.40189e-06
-3.18865e-07
-1.24474e-07
-2.2918e-08
-6.43869e-08
-2.44546e-07
-2.60723e-07
2.44971e-07
-1.46548e-07
7.17457e-07
-2.74896e-07
-2.27435e-08
-6.5121e-08
-1.4956e-07
-1.63194e-07
-1.23301e-07
-1.50084e-07
1.82207e-07
9.08029e-08
-1.83927e-07
-1.05632e-07
-1.50555e-08
-7.31302e-08
-2.66824e-07
-2.53049e-07
1.36077e-07
-3.86783e-08
-5.2017e-08
1.39184e-07
-2.22122e-07
6.09541e-09
-7.13758e-08
-1.69003e-07
-1.58285e-07
-1.23085e-07
-2.1421e-07
1.71909e-07
1.14229e-07
-2.50485e-07
-5.40971e-09
-1.37936e-07
-1.00091e-07
-1.05519e-08
-9.28233e-08
-2.6206e-07
-2.54334e-07
1.11202e-07
-4.99686e-08
-4.38668e-08
9.84824e-08
-1.28422e-07
-1.88814e-07
2.21516e-08
-8.99094e-08
-1.6647e-07
-1.45868e-07
-1.10565e-07
-2.28758e-07
1.32559e-07
7.56628e-08
-1.02778e-07
-6.26989e-08
1.15731e-08
-1.05532e-07
-1.03688e-07
-1.39085e-08
-8.14383e-08
-2.5636e-07
-2.3646e-07
9.61625e-08
-1.00955e-07
-2.34004e-08
1.20738e-07
3.23587e-08
6.48919e-08
-1.66141e-07
2.44011e-08
-8.52168e-08
-1.61225e-07
-1.31053e-07
-1.05812e-07
-2.47705e-07
1.01322e-07
1.20278e-07
-9.56456e-08
1.37118e-07
6.03045e-08
2.44109e-07
-8.94306e-08
-9.86236e-08
-3.83708e-09
-8.34046e-08
-2.36955e-07
-2.33277e-07
8.34016e-08
-9.1621e-08
-3.89953e-08
2.16889e-07
6.09873e-08
1.53446e-07
7.46951e-08
-1.43105e-07
2.8344e-08
-9.16503e-08
-1.44466e-07
-1.12413e-07
-9.63065e-08
-2.38151e-07
9.48425e-08
1.21747e-07
-4.18409e-08
1.34264e-07
9.24114e-08
-1.09426e-07
6.75941e-07
-7.61356e-08
-1.04898e-07
-6.58907e-09
-6.61429e-08
-2.21712e-07
-2.07207e-07
8.21873e-08
-9.71671e-08
-2.72971e-08
2.18341e-07
8.07036e-08
-2.70721e-08
2.35262e-07
-4.55437e-07
-1.43052e-07
2.08977e-08
-8.57476e-08
-1.32218e-07
-9.55447e-08
-8.53644e-08
-2.29694e-07
9.00036e-08
1.34607e-07
-5.00677e-08
8.32458e-08
1.39703e-08
-2.97764e-07
2.65408e-07
-7.68305e-08
-1.01231e-07
-1.18189e-09
-6.64793e-08
-1.96994e-07
-1.93726e-07
8.53454e-08
-8.35577e-08
-3.54234e-08
1.96684e-07
-9.79113e-09
-1.40396e-07
-2.97099e-08
-7.38296e-07
-1.37048e-07
-1.32601e-07
1.50064e-08
-9.1568e-08
-1.17231e-07
-7.88092e-08
-7.05378e-08
-2.05499e-07
8.53063e-08
1.16772e-07
-8.68647e-08
-7.08594e-09
-1.21414e-07
-4.0873e-07
-1.63594e-07
-7.12249e-07
-4.28722e-08
-9.73798e-08
-8.11871e-09
-5.41602e-08
-1.80233e-07
-1.64485e-07
8.18145e-08
-7.99877e-08
-4.62463e-08
1.25955e-07
-8.2603e-08
-2.1856e-07
-1.56878e-07
-6.73575e-07
-8.5101e-08
-2.46406e-07
-1.9988e-09
-8.54145e-08
-1.09029e-07
-6.67017e-08
-6.14702e-08
-1.90197e-07
7.61432e-08
8.57736e-08
-1.15421e-07
-6.86174e-08
-1.70467e-07
-4.45273e-07
-9.6371e-08
-6.66905e-07
3.04222e-07
-2.84129e-08
-1.01006e-07
-8.27375e-09
-5.61554e-08
-1.59093e-07
-1.51174e-07
7.90171e-08
-7.8354e-08
-5.25553e-08
8.04824e-08
-1.15243e-07
-2.33967e-07
-1.63248e-07
-6.33734e-07
1.08546e-07
-4.59066e-07
-1.40546e-07
9.90204e-09
-8.48191e-08
-9.62177e-08
-5.4647e-08
-5.12824e-08
-1.69094e-07
6.71802e-08
6.39121e-08
-1.26079e-07
-8.50945e-08
-1.7356e-07
-4.16449e-07
-2.05376e-08
-5.69005e-07
2.56403e-07
-1.34334e-07
-1.48128e-08
-8.51871e-08
-9.42949e-09
-4.5141e-08
-1.44191e-07
-1.26885e-07
7.11226e-08
-7.54528e-08
-5.73502e-08
5.80133e-08
-1.2134e-07
-2.19273e-07
-1.28812e-07
-5.6318e-07
1.00916e-07
-5.5076e-07
1.72646e-07
-1.42142e-08
-4.46533e-08
1.37153e-08
-7.45057e-08
-8.72002e-08
-4.56286e-08
-4.50108e-08
-1.56195e-07
5.7667e-08
5.04076e-08
-1.22634e-07
-8.73857e-08
-1.49335e-07
-3.70779e-07
1.15961e-08
-5.46427e-07
1.17947e-07
-4.63045e-07
9.3911e-09
-3.33432e-09
-7.28781e-08
-4.59911e-09
-4.44783e-08
-1.25917e-07
-1.16406e-07
6.71246e-08
-7.17278e-08
-5.5008e-08
4.55403e-08
-1.11282e-07
-1.94526e-07
-9.19191e-08
-5.04031e-07
9.43263e-08
-5.11785e-07
1.90738e-07
-1.43021e-08
-3.36758e-08
1.79166e-08
-7.02159e-08
-7.47554e-08
-3.57577e-08
-3.70755e-08
-1.38441e-07
5.11903e-08
4.13e-08
-1.14752e-07
-7.59313e-08
-1.28623e-07
-3.20465e-07
1.77746e-08
-5.15614e-07
1.38052e-07
-3.9062e-07
6.76194e-08
1.01396e-08
-2.42735e-10
-6.54374e-08
-3.88388e-09
-3.34306e-08
-1.12756e-07
-9.67655e-08
6.03489e-08
-6.70144e-08
-5.34889e-08
4.06343e-08
-9.89013e-08
-1.6751e-07
-6.73383e-08
-4.43673e-07
9.51906e-08
-4.47005e-07
1.17401e-08
-2.62336e-07
-1.68495e-08
-2.79376e-08
1.65642e-08
-5.9965e-08
-6.55652e-08
-2.8493e-08
-3.18008e-08
-1.27394e-07
4.51758e-08
3.61514e-08
-1.02714e-07
-6.56572e-08
-1.01571e-07
-2.8079e-07
5.11585e-08
-4.55051e-07
9.85857e-08
-3.74282e-07
2.04229e-07
1.02841e-08
3.20251e-10
-5.78365e-08
7.67908e-10
-3.16738e-08
-9.71972e-08
-8.84451e-08
5.76529e-08
-6.17834e-08
-4.74402e-08
3.88561e-08
-8.16801e-08
-1.40892e-07
-3.70225e-08
-3.80779e-07
8.33494e-08
-4.34615e-07
1.68112e-07
-4.04068e-07
-1.70183e-08
-2.54917e-08
1.75101e-08
-5.52929e-08
-5.50144e-08
-2.06775e-08
-2.50886e-08
-1.12233e-07
4.19605e-08
3.32261e-08
-9.1135e-08
-4.99042e-08
-8.05669e-08
-2.35074e-07
5.00513e-08
-3.96684e-07
1.18701e-07
-4.06021e-07
1.33743e-07
5.5862e-09
9.99485e-11
-5.19876e-08
1.21535e-09
-2.23495e-08
-8.62481e-08
-7.26453e-08
5.28829e-08
-5.6158e-08
-4.38329e-08
3.92933e-08
-6.78269e-08
-1.15682e-07
-2.17064e-08
-3.26775e-07
9.44065e-08
-3.84115e-07
1.34984e-07
-2.91193e-07
-2.76725e-07
-1.74513e-08
-2.19234e-08
1.57116e-08
-4.64678e-08
-4.7625e-08
-1.53782e-08
-2.05679e-08
-1.0278e-07
3.81758e-08
3.10625e-08
-7.95997e-08
-4.01172e-08
-5.97017e-08
-2.02998e-07
7.27189e-08
-3.40134e-07
1.3068e-07
-3.04965e-07
-7.32684e-08
-1.77418e-07
6.28819e-09
5.15462e-10
-4.54761e-08
4.62223e-09
-2.09826e-08
-7.3561e-08
-6.62466e-08
5.07876e-08
-5.10498e-08
-3.83897e-08
3.81935e-08
-5.41067e-08
-9.49513e-08
-2.72101e-10
-2.83101e-07
1.04203e-07
-3.21067e-07
1.31632e-07
-2.8917e-07
-8.78444e-09
-1.51279e-08
-1.95435e-08
1.61932e-08
-4.23113e-08
-3.94866e-08
-9.83054e-09
-1.52947e-08
-8.99575e-08
3.53569e-08
2.87424e-08
-7.02064e-08
-2.81034e-08
-4.47702e-08
-1.70089e-07
7.44098e-08
-2.93621e-07
1.39028e-07
-3.13932e-07
1.65405e-07
-2.56393e-07
4.19982e-09
7.75989e-10
-4.02651e-08
4.50861e-09
-1.3855e-08
-6.47328e-08
-5.36408e-08
4.63283e-08
-4.58755e-08
-3.53235e-08
3.78887e-08
-4.35991e-08
-7.58691e-08
1.1033e-08
-2.46e-07
1.16916e-07
-2.88181e-07
1.94318e-07
-2.73918e-07
2.29974e-07
-1.39687e-08
-1.62104e-08
1.45941e-08
-3.51226e-08
-3.3896e-08
-6.30757e-09
-1.19023e-08
-8.15074e-08
3.2064e-08
2.71343e-08
-6.00144e-08
-2.03041e-08
-2.83523e-08
-1.46557e-07
9.32983e-08
-2.58914e-07
1.54893e-07
-2.84889e-07
2.12037e-07
-1.52796e-07
2.01606e-07
5.61585e-09
1.39362e-09
-3.47213e-08
6.70606e-09
-1.30492e-08
-5.45229e-08
-4.84935e-08
4.41362e-08
-4.06046e-08
-2.97353e-08
3.74744e-08
-3.15788e-08
-5.92558e-08
2.81138e-08
-2.13284e-07
1.21945e-07
-2.56467e-07
1.85569e-07
-2.20491e-07
1.19076e-07
-8.05245e-08
-1.12967e-08
-1.40567e-08
1.46762e-08
-3.15991e-08
-2.76956e-08
-2.58929e-09
-7.85111e-09
-7.01043e-08
3.02633e-08
2.63789e-08
-5.05707e-08
-9.58102e-09
-1.61404e-08
-1.20215e-07
9.15785e-08
-2.2426e-07
1.44374e-07
-2.45875e-07
1.87208e-07
-1.43695e-07
2.31095e-07
4.33927e-09
1.68844e-09
-3.02847e-08
6.20019e-09
-7.7568e-09
-4.73032e-08
-3.82669e-08
4.04007e-08
-3.49288e-08
-2.56092e-08
3.82215e-08
-2.23015e-08
-4.38505e-08
3.42156e-08
-1.82238e-07
1.21241e-07
-2.195e-07
1.77939e-07
-2.18396e-07
2.10686e-07
-1.58102e-07
-1.00317e-08
-1.13143e-08
1.3166e-08
-2.58069e-08
-2.34076e-08
-2.67409e-10
-5.18322e-09
-6.21521e-08
2.8168e-08
2.60291e-08
-4.10189e-08
-3.38717e-09
-4.64173e-09
-1.01373e-07
9.86763e-08
-1.92858e-07
1.45453e-07
-2.17599e-07
1.95254e-07
-2.00236e-07
1.87313e-07
5.47864e-09
2.17022e-09
-2.56944e-08
7.52018e-09
-7.24463e-09
-3.90296e-08
-3.39805e-08
3.83357e-08
-2.95085e-08
-2.01033e-08
3.74678e-08
-1.34298e-08
-3.24109e-08
4.23509e-08
-1.5507e-07
1.16884e-07
-1.89073e-07
1.57764e-07
-2.11251e-07
1.54686e-07
-1.53719e-07
2.25926e-07
-7.79409e-09
-9.57446e-09
1.29158e-08
-2.28137e-08
-1.86379e-08
2.08858e-09
-2.1408e-09
-5.21494e-08
2.67259e-08
2.5258e-08
-3.33605e-08
3.05368e-09
1.53367e-09
-8.19504e-08
8.94876e-08
-1.63702e-07
1.24449e-07
-1.86878e-07
1.62681e-07
-1.83351e-07
1.28729e-07
-4.85219e-08
4.43379e-09
2.34626e-09
-2.20181e-08
6.81082e-09
-3.41796e-09
-3.3135e-08
-2.58346e-08
3.48177e-08
-2.44017e-08
-1.66246e-08
3.61244e-08
-8.48086e-09
-2.3394e-08
4.0515e-08
-1.30406e-07
1.04689e-07
-1.61215e-07
1.38047e-07
-1.87943e-07
1.54702e-07
-9.82741e-08
1.67194e-07
-6.71093e-09
-7.45074e-09
1.14535e-08
-1.82163e-08
-1.537e-08
3.47228e-09
-2.86668e-10
-4.50959e-08
2.45266e-08
2.38921e-08
-2.68262e-08
4.7794e-09
5.8457e-09
-6.91298e-08
8.51177e-08
-1.39113e-07
1.13144e-07
-1.62107e-07
1.393e-07
-1.58518e-07
1.22608e-07
-5.10381e-08
5.20128e-09
2.62087e-09
-1.83004e-08
7.44861e-09
-3.13442e-09
-2.65904e-08
-2.23992e-08
3.23461e-08
-2.00123e-08
-1.27638e-08
3.28602e-08
-4.65824e-09
-1.81982e-08
3.99554e-08
-1.09849e-07
9.22079e-08
-1.38243e-07
1.1226e-07
-1.62223e-07
1.25661e-07
-8.71634e-08
1.21726e-07
-4.95314e-09
-6.11228e-09
1.09374e-08
-1.57247e-08
-1.17778e-08
4.7423e-09
1.70531e-09
-3.68907e-08
2.25596e-08
2.17372e-08
-2.22558e-08
6.20708e-09
6.20881e-09
-5.63395e-08
7.07401e-08
-1.15933e-07
8.8554e-08
-1.37694e-07
1.09144e-07
-1.36115e-07
1.03076e-07
-1.12917e-07
4.27718e-09
2.66738e-09
-1.53214e-08
6.6433e-09
-5.0827e-10
-2.19487e-08
-1.62317e-08
2.87418e-08
-1.62844e-08
-1.07924e-08
2.90131e-08
-3.80514e-09
-1.44928e-08
3.30125e-08
-9.05724e-08
7.56963e-08
-1.13256e-07
9.05532e-08
-1.34793e-07
1.04366e-07
-1.34318e-07
1.21388e-07
-4.07871e-09
-4.5227e-09
9.55805e-09
-1.21654e-08
-9.37662e-09
5.37192e-09
2.70792e-09
-3.12016e-08
1.98503e-08
1.90417e-08
-1.86853e-08
4.68424e-09
5.68013e-09
-4.76007e-08
6.22941e-08
-9.42483e-08
7.76623e-08
-1.10766e-07
9.0676e-08
-1.30788e-07
8.84042e-08
-1.21751e-07
1.42879e-07
4.73306e-09
2.76458e-09
-1.23747e-08
6.78363e-09
-4.19686e-10
-1.70274e-08
-1.37327e-08
2.58395e-08
-1.33012e-08
-8.64884e-09
2.4298e-08
-3.2434e-09
-1.26426e-08
2.97556e-08
-7.44615e-08
6.72064e-08
-9.07199e-08
7.7271e-08
-1.0827e-07
8.74241e-08
-1.04519e-07
5.45805e-08
-5.14832e-08
-2.77757e-09
-3.5296e-09
8.88816e-09
-1.01523e-08
-6.81068e-09
5.81021e-09
3.68862e-09
-2.49487e-08
1.74144e-08
1.6159e-08
-1.6117e-08
3.9262e-09
4.58015e-09
-3.90558e-08
5.29013e-08
-7.6644e-08
6.64022e-08
-8.79006e-08
7.75278e-08
-1.05022e-07
7.86089e-08
-6.10268e-08
6.89681e-08
3.90605e-09
2.73729e-09
-1.00326e-08
5.97689e-09
1.29411e-09
-1.36115e-08
-9.40866e-09
2.22871e-08
-1.07461e-08
-7.50881e-09
2.0214e-08
-3.30401e-09
-1.05622e-08
2.47479e-08
-6.19063e-08
5.72352e-08
-7.35838e-08
6.81357e-08
-8.61587e-08
7.75167e-08
-8.16818e-08
5.54356e-08
-4.3061e-08
-2.0475e-09
-2.36966e-09
7.70308e-09
-7.4741e-09
-5.10543e-09
5.81435e-09
3.9914e-09
-2.06518e-08
1.49042e-08
1.36632e-08
-1.35278e-08
2.84842e-09
3.95191e-09
-3.32957e-08
4.52594e-08
-6.43413e-08
5.84085e-08
-7.22737e-08
6.87047e-08
-8.35326e-08
6.69449e-08
-4.32067e-08
5.64674e-08
4.13517e-09
2.80332e-09
-7.78163e-09
5.80948e-09
1.22079e-09
-1.00528e-08
-7.73356e-09
1.96388e-08
-8.58086e-09
-5.80739e-09
1.69008e-08
-2.61447e-09
-9.08846e-09
2.129e-08
-5.25368e-08
4.81689e-08
-6.32566e-08
5.77072e-08
-7.22294e-08
6.41691e-08
-5.92771e-08
4.55985e-08
-2.76793e-08
-9.83581e-10
-1.58432e-09
6.88829e-09
-5.92222e-09
-3.3278e-09
5.77651e-09
4.40116e-09
-1.61611e-08
1.29924e-08
1.1696e-08
-1.12464e-08
2.68992e-09
3.57101e-09
-2.78055e-08
3.63616e-08
-5.53697e-08
4.53739e-08
-6.32427e-08
5.32077e-08
-6.41108e-08
5.16647e-08
-8.14853e-09
4.57908e-08
3.56134e-09
2.67444e-09
-5.98432e-09
5.02414e-09
2.33997e-09
-7.58816e-09
-4.89974e-09
1.6692e-08
-6.98752e-09
-4.92849e-09
1.46172e-08
-2.1269e-09
-7.36134e-09
1.68082e-08
-4.35239e-08
3.59258e-08
-5.36934e-08
4.20273e-08
-5.90059e-08
4.6482e-08
-2.73277e-09
3.95656e-08
6.16169e-09
-4.44283e-10
-5.78903e-10
6.10423e-09
-3.97016e-09
-1.84652e-09
5.82794e-09
4.12812e-09
-1.39195e-08
1.06797e-08
1.0461e-08
-9.30802e-09
2.21738e-09
2.87274e-09
-2.21413e-08
2.8871e-08
-4.33499e-08
3.44089e-08
-5.0217e-08
3.89245e-08
-7.89728e-09
3.53086e-08
-7.23071e-10
2.05565e-08
-1.1981e-08
3.95285e-09
2.18597e-09
-4.80016e-09
5.13167e-09
1.47997e-09
-6.27717e-09
-4.27436e-09
1.43754e-08
-5.68604e-09
-6.05608e-09
1.01346e-08
-1.916e-09
-4.86507e-09
1.49127e-08
-3.23421e-08
3.11195e-08
-3.8929e-08
3.52568e-08
-1.89009e-08
2.12736e-08
-7.09089e-09
2.3584e-08
-3.48045e-08
1.81557e-08
-7.6189e-11
7.12709e-10
5.31166e-09
-4.21756e-09
-2.93671e-10
5.63948e-09
3.40845e-09
-1.21069e-08
6.4411e-09
8.32126e-09
-6.84335e-09
1.83949e-09
2.65891e-09
-1.56735e-08
2.55759e-08
-3.07266e-08
3.2464e-08
-2.80021e-08
2.43822e-08
-2.78767e-09
1.18084e-08
-4.40827e-08
2.1199e-08
-2.28652e-08
4.53729e-09
1.55526e-09
-4.97228e-09
6.06218e-09
1.24211e-09
-6.39811e-09
-3.52359e-09
1.15972e-08
-3.21797e-09
-6.01304e-09
5.89563e-09
-1.61168e-09
-2.7299e-09
1.29352e-08
-2.34622e-08
3.01424e-08
-2.86839e-08
3.64057e-08
-1.40204e-08
5.15893e-09
-2.90063e-08
2.98874e-08
-3.25353e-08
2.72409e-08
-9.5175e-11
1.20738e-09
5.45422e-09
-4.26886e-09
-4.86919e-10
5.31316e-09
3.73348e-09
-9.80569e-09
2.89509e-09
5.80317e-09
-5.27112e-09
1.42614e-09
3.20591e-09
-1.15952e-08
2.31823e-08
-2.38312e-08
3.26972e-08
-2.20703e-08
2.18762e-08
-4.97885e-09
1.55708e-08
-3.73757e-08
2.5839e-08
-1.66112e-08
4.0027e-09
1.89169e-09
-3.66238e-09
4.7343e-09
1.55489e-09
-3.82599e-09
-3.40081e-09
8.4739e-09
-2.20725e-09
-5.34033e-09
4.58697e-09
-1.11289e-09
-2.50577e-09
1.26854e-08
-1.87844e-08
2.80159e-08
-2.18339e-08
3.19682e-08
-7.7079e-09
9.92674e-09
-1.8895e-08
2.94659e-08
-1.96445e-08
2.46429e-08
5.24464e-10
7.58618e-10
4.70538e-09
-2.65229e-09
-4.84869e-10
3.92278e-09
3.96192e-09
-6.51343e-09
1.87896e-09
4.45864e-09
-4.33104e-09
1.57928e-09
3.91146e-09
-9.84473e-09
2.15121e-08
-1.97128e-08
3.00402e-08
-1.62229e-08
1.83374e-08
-2.74542e-09
2.30121e-08
-2.13588e-08
2.4157e-08
-1.23536e-08
3.33779e-09
2.25288e-09
-2.28236e-09
3.57714e-09
2.20002e-09
-1.69179e-09
-1.85937e-09
6.73251e-09
-9.17907e-10
-3.71558e-09
4.76672e-09
-2.64602e-10
-1.99066e-09
1.18915e-08
-1.6253e-08
2.46636e-08
-1.82716e-08
2.57116e-08
-5.50589e-09
1.88353e-08
-6.27879e-09
3.16475e-08
-9.6823e-09
2.43176e-08
1.20427e-09
7.6286e-10
3.8601e-09
-1.03128e-09
-1.40992e-10
3.3793e-09
4.08738e-09
-3.80039e-09
2.07401e-09
4.51515e-09
-3.20363e-09
2.0733e-09
4.0261e-09
-8.85271e-09
1.85593e-08
-1.73953e-08
2.4129e-08
-1.3067e-08
2.09093e-08
5.10014e-09
2.88893e-08
-1.08191e-08
2.30294e-08
-1.72336e-08
3.16824e-09
2.41945e-09
-1.04864e-09
2.73667e-09
2.41826e-09
1.26943e-10
-7.13683e-10
5.85652e-09
4.41289e-10
-2.44363e-09
5.2652e-09
1.70086e-10
-1.88408e-09
1.03225e-08
-1.46933e-08
1.95034e-08
-1.48435e-08
2.13385e-08
4.35438e-09
2.18352e-08
-8.31417e-09
2.33793e-08
-2.13792e-08
2.33072e-08
1.50079e-09
9.36983e-10
3.01208e-09
1.09153e-10
5.39447e-10
2.82655e-09
4.2106e-09
-1.35574e-09
2.25659e-09
4.42733e-09
-2.64436e-09
1.84515e-09
3.52089e-09
-8.24425e-09
1.4888e-08
-1.39835e-08
1.80235e-08
2.00887e-09
1.91245e-08
-4.56865e-09
1.84164e-08
-2.48147e-08
1.48349e-08
-1.61759e-08
2.79e-08
2.65218e-09
2.05715e-09
6.36421e-12
1.82619e-09
2.49036e-09
1.44909e-09
8.2905e-10
5.09119e-09
1.40606e-09
-1.6678e-09
4.87899e-09
2.50175e-10
-1.97962e-09
8.51727e-09
-1.17784e-08
1.46232e-08
1.03448e-09
1.7009e-08
-2.39344e-09
1.49855e-08
-2.28001e-08
1.56105e-08
-1.39583e-08
1.30268e-08
-4.93944e-09
2.03461e-09
1.05347e-09
1.80819e-09
1.39051e-09
1.17254e-09
2.87432e-09
3.5834e-09
9.3496e-10
2.31979e-09
3.25163e-09
-1.35486e-09
1.81804e-09
3.29138e-09
-6.43138e-09
1.14038e-08
-1.08015e-10
1.3468e-08
-6.27251e-10
1.29152e-08
-1.68833e-08
1.31152e-08
-1.67955e-08
1.47141e-08
-4.86654e-09
2.1032e-08
3.39715e-10
1.52802e-09
1.4003e-09
1.84706e-09
3.00481e-09
1.71328e-09
2.50253e-09
4.5613e-09
1.03094e-09
1.00624e-09
4.68497e-09
3.3758e-09
2.56993e-10
7.63851e-09
4.04757e-10
1.04305e-08
2.34983e-09
1.05819e-08
-8.15998e-09
1.12564e-08
-8.32859e-09
1.61527e-08
-1.03503e-09
1.55685e-08
-1.05042e-09
2.89002e-09
1.61563e-09
1.83825e-09
2.48933e-09
1.64995e-09
2.79454e-09
4.02172e-09
1.49266e-09
3.03582e-09
3.68085e-09
4.6718e-09
3.55731e-09
4.64274e-09
2.19616e-09
6.97465e-09
4.38534e-09
7.28089e-09
1.38041e-10
8.79361e-09
2.15138e-09
1.33893e-08
5.17487e-09
1.70609e-08
6.19646e-09
1.59104e-08
5.7e-10
6.45109e-10
6.80108e-10
6.60858e-10
9.30725e-10
1.26384e-09
8.38726e-10
1.41387e-09
1.2173e-09
1.2486e-09
2.21755e-09
1.51477e-09
1.32434e-09
2.30121e-09
2.17715e-09
2.57408e-09
1.71281e-09
3.51021e-09
3.44597e-09
5.7437e-09
6.08079e-09
1.04625e-08
9.41393e-09
1.03975e-08
8.64941e-09
)
;

boundaryField
{
    inlet
    {
        type            extrapolatedCalculated;
        value           nonuniform List<scalar> 
25
(
5.7e-10
6.45109e-10
6.80108e-10
6.60858e-10
9.30725e-10
1.26384e-09
8.38726e-10
1.41387e-09
1.2173e-09
1.2486e-09
2.21755e-09
1.51477e-09
1.32434e-09
2.30121e-09
2.17715e-09
2.57408e-09
1.71281e-09
3.51021e-09
3.44597e-09
5.7437e-09
6.08079e-09
1.04625e-08
9.41393e-09
1.03975e-08
8.64941e-09
)
;
    }
    outlet
    {
        type            extrapolatedCalculated;
        value           nonuniform List<scalar> 0();
    }
    walls
    {
        type            extrapolatedCalculated;
        value           nonuniform List<scalar> 0();
    }
    frontAndBack
    {
        type            empty;
    }
    procBoundary4to0
    {
        type            processor;
        value           nonuniform List<scalar> 
72
(
-9.38e-07
-1.06454e-06
-2.8993e-07
-4.67487e-07
-3.18839e-07
-2.78779e-07
-2.83773e-07
-2.27023e-07
-2.38105e-07
-1.91234e-07
-1.98979e-07
-1.57901e-07
-1.62861e-07
-1.41339e-07
-1.4515e-07
-1.15628e-07
-1.3575e-07
-9.22802e-08
-2.09774e-07
4.20016e-08
-2.29453e-07
5.31578e-08
5.31578e-08
3.5405e-08
1.47331e-08
-6.64198e-09
1.33702e-08
-1.01702e-08
8.10844e-09
-1.71426e-08
4.19532e-09
-1.52611e-08
2.24363e-09
-1.66724e-08
1.54868e-09
-1.28986e-08
1.70722e-09
-1.26662e-08
1.87971e-09
-9.18082e-09
2.26583e-09
-8.79353e-09
2.42571e-09
-6.0279e-09
2.70659e-09
-5.69407e-09
2.74069e-09
-3.57939e-09
2.86486e-09
-3.35819e-09
2.78868e-09
-1.80508e-09
2.77072e-09
-1.59291e-09
2.66448e-09
-3.87871e-10
2.56758e-09
1.35809e-10
2.24358e-09
1.0428e-09
2.47823e-09
9.26645e-10
2.7146e-09
1.30321e-09
2.71573e-09
1.47385e-09
2.77237e-09
1.57851e-09
9.82115e-10
3.47363e-09
-4.882e-10
9.9149e-10
)
;
    }
    procBoundary4to5
    {
        type            processor;
        value           nonuniform List<scalar> 
95
(
-4.83401e-07
-1.05052e-06
-4.86849e-07
-3.52039e-07
-3.52039e-07
-1.83162e-07
-2.03701e-07
-2.03701e-07
-2.51833e-07
-5.4011e-07
-5.4011e-07
-6.21393e-07
-6.21393e-07
-1.25681e-07
-2.5687e-07
-2.5687e-07
-3.33328e-07
-3.33328e-07
-2.44748e-07
-4.38678e-08
-4.38678e-08
6.26119e-08
1.57874e-07
1.57874e-07
1.74224e-07
-3.62876e-08
-3.62876e-08
-4.52461e-07
3.43386e-07
-1.03814e-06
-1.03814e-06
-9.00925e-07
-2.36136e-07
-7.46538e-07
-7.46538e-07
-5.08627e-07
2.44642e-07
-6.72709e-07
-6.72709e-07
-5.83894e-07
7.85063e-08
-4.75811e-07
-4.75811e-07
-3.68072e-07
1.71794e-08
-4.1884e-07
6.58164e-08
-3.98209e-07
-3.98209e-07
-2.43904e-07
-3.38256e-07
-3.15316e-07
1.48901e-07
-1.77417e-07
-1.77417e-07
-8.9877e-08
2.36224e-07
-7.15109e-08
2.96122e-07
-1.17457e-07
-1.17457e-07
-4.82921e-08
2.1929e-07
-1.71914e-08
1.28857e-07
-5.36901e-08
1.19242e-07
-1.60512e-07
-1.60512e-07
-9.85712e-08
4.49525e-08
-3.85323e-08
4.43997e-08
-2.84801e-08
3.72714e-08
-9.8509e-11
2.72118e-08
2.72118e-08
1.4904e-08
-2.81467e-08
1.26467e-08
-1.59763e-08
2.22531e-08
-8.21653e-09
2.08616e-08
-5.37998e-09
2.35024e-08
-1.88923e-08
-1.88923e-08
-6.83971e-09
1.81948e-08
4.19153e-09
2e-08
1.05538e-08
1.93438e-08
)
;
    }
}


// ************************************************************************* //
