/*--------------------------------*- C++ -*----------------------------------*\
| =========                 |                                                 |
| \\      /  F ield         | OpenFOAM: The Open Source CFD Toolbox           |
|  \\    /   O peration     | Version:  2306                                  |
|   \\  /    A nd           | Website:  www.openfoam.com                      |
|    \\/     M anipulation  |                                                 |
\*---------------------------------------------------------------------------*/
FoamFile
{
    version     2.0;
    format      ascii;
    arch        "LSB;label=32;scalar=64";
    class       surfaceScalarField;
    location    "275";
    object      phi;
}
// * * * * * * * * * * * * * * * * * * * * * * * * * * * * * * * * * * * * * //

dimensions      [0 3 -1 0 0 0 0];

oriented        oriented;

internalField   nonuniform List<scalar> 
2558
(
-0.233866
0.253462
-0.0195963
0.275459
-0.0219968
0.294394
-0.0189349
0.311304
-0.0169107
0.327277
-0.0159722
0.340001
-0.0127247
0.349981
-0.00997998
0.357967
-0.00798601
0.362992
-0.00502437
0.366051
-0.00305916
0.367194
-0.00114368
0.365871
0.00132348
0.362213
0.00365789
0.356041
0.00617199
0.346955
0.00908582
0.334845
0.0121108
0.318929
0.0159155
0.298523
0.0204061
0.272462
0.0260605
0.239998
0.0324643
0.200641
0.0393566
0.157735
0.0429067
0.119293
0.0384413
0.0951417
0.0241516
0.0901796
0.00496205
0.0997244
-0.00954483
0.113709
-0.013985
0.126192
-0.0124824
0.135239
-0.00904716
0.140855
-0.00561645
0.143608
-0.00275286
0.143646
-3.84089e-05
0.140835
0.00281145
0.135281
0.00555381
0.00856845
-0.210782
-0.0230838
-0.186844
-0.0239378
-0.157455
-0.0293891
-0.125248
-0.0322072
-0.0913346
-0.0339131
-0.05639
-0.0349446
-0.21324
0.234747
-0.0411041
0.256772
-0.0440211
0.279796
-0.0419589
0.301307
-0.0384223
0.322348
-0.0370133
0.341931
-0.0323075
0.359656
-0.0277048
0.375807
-0.024137
0.390015
-0.0192323
0.402359
-0.0154032
0.413076
-0.0118613
0.422616
-0.00821605
0.431316
-0.00504271
0.439228
-0.0017395
0.446141
0.00217228
0.451618
0.00663378
0.455325
0.0122093
0.456899
0.0188322
0.454988
0.0279708
0.448416
0.0390361
0.434715
0.0530576
0.412282
0.0653397
0.380959
0.0697647
0.345748
0.0593628
0.313132
0.0375775
0.28499
0.0185971
0.261083
0.00992237
0.241536
0.00706497
0.226599
0.00588966
0.215648
0.00533398
0.206829
0.00606708
0.198549
0.00824121
0.189864
0.0114963
0.18002
0.015397
0.020316
-0.191279
-0.0450441
-0.167779
-0.0474379
-0.140265
-0.0569031
-0.111159
-0.0613133
-0.0802428
-0.0648294
-0.0672745
-0.207
0.228697
-0.0628013
0.250545
-0.0658683
0.274132
-0.0655467
0.295694
-0.0599838
0.316187
-0.0575061
0.335782
-0.0519023
0.35318
-0.0451028
0.368772
-0.0397298
0.382111
-0.0325712
0.39346
-0.0267524
0.402782
-0.0211824
0.410206
-0.0156408
0.415587
-0.0104231
0.419403
-0.00555561
0.421656
-8.13254e-05
0.423377
0.00491351
0.424662
0.010924
0.426445
0.0170489
0.42916
0.0252564
0.433487
0.0347085
0.439404
0.0471405
0.444903
0.0598411
0.446143
0.0685242
0.440216
0.0652904
0.428161
0.0496328
0.412488
0.0342696
0.394246
0.0281644
0.372911
0.0284001
0.348323
0.030477
0.321762
0.0318951
0.295659
0.0321708
0.272077
0.0318226
0.251399
0.0321741
0.232405
0.0343914
0.0393352
-0.185162
-0.0668824
-0.161232
-0.0713681
-0.132608
-0.0855264
-0.102843
-0.0910784
-0.0717389
-0.0959338
-0.199395
0.222079
-0.0854845
0.244844
-0.0886336
0.269877
-0.0905804
0.292732
-0.0828383
0.314893
-0.0796666
0.336145
-0.0731546
0.355668
-0.0646262
0.373287
-0.0573487
0.389214
-0.048498
0.403229
-0.0407672
0.415443
-0.0333968
0.425871
-0.0260686
0.434577
-0.0191292
0.441636
-0.0126143
0.447348
-0.00579311
0.451167
0.00109447
0.453199
0.00889179
0.453219
0.0170287
0.451778
0.0266976
0.449362
0.0371247
0.447227
0.0492747
0.446642
0.060427
0.447082
0.0680839
0.446285
0.066087
0.442349
0.0535687
0.435849
0.0407703
0.428156
0.0358566
0.419568
0.0369883
0.409021
0.0410242
0.394819
0.0460974
0.375494
0.0514959
0.350876
0.0564404
0.32288
0.0601693
0.294205
0.0630665
0.0673869
-0.177
-0.0892777
-0.152995
-0.0953735
-0.123873
-0.114648
-0.0939775
-0.120974
-0.127101
-0.195556
0.219061
-0.108989
0.242696
-0.112269
0.269121
-0.117006
0.292715
-0.106432
0.315853
-0.102805
0.338144
-0.0954451
0.35848
-0.0849627
0.376967
-0.0758354
0.393893
-0.0654242
0.408604
-0.0554783
0.42148
-0.0462725
0.432452
-0.0370404
0.441797
-0.0284741
0.449195
-0.0200123
0.45479
-0.0113887
0.45865
-0.00276468
0.461047
0.0064944
0.462108
0.0159679
0.4617
0.0271055
0.46025
0.0385739
0.457868
0.0516571
0.45497
0.0633249
0.451631
0.0714227
0.44717
0.0705485
0.440932
0.0598063
0.433369
0.048334
0.425651
0.0435736
0.418518
0.044122
0.412013
0.0475291
0.405796
0.0523146
0.398775
0.0585163
0.388876
0.0663391
0.37342
0.0756253
0.350695
0.0857925
0.09662
-0.17211
-0.112724
-0.147377
-0.120107
-0.116991
-0.145033
-0.0862428
-0.151722
-0.192381
0.216901
-0.133509
0.24186
-0.137227
0.269664
-0.14481
0.294465
-0.131234
0.318627
-0.126966
0.342289
-0.119107
0.363604
-0.106277
0.383385
-0.095617
0.401326
-0.0833649
0.41731
-0.0714625
0.431566
-0.0605286
0.44391
-0.0493843
0.454572
-0.0391362
0.463547
-0.0289874
0.470707
-0.018548
0.476412
-0.00846988
0.480265
0.0026408
0.482389
0.0138447
0.482974
0.0265199
0.482001
0.039547
0.479706
0.0539524
0.476341
0.0666895
0.471638
0.0761261
0.465135
0.0770517
0.45665
0.0682912
0.446808
0.0581753
0.43664
0.0537417
0.426781
0.0539816
0.417415
0.0568947
0.40871
0.0610197
0.400916
0.0663099
0.393967
0.0732883
0.386984
0.0826076
0.377321
0.0954552
0.113239
-0.16797
-0.137134
-0.142424
-0.145653
-0.110733
-0.176725
-0.183611
-0.190529
0.216378
-0.159358
0.242377
-0.163226
0.271747
-0.174181
0.297819
-0.157305
0.323229
-0.152376
0.34796
-0.143838
0.370432
-0.12875
0.39105
-0.116235
0.410019
-0.102334
0.426917
-0.0883598
0.441972
-0.0755845
0.455325
-0.062737
0.466847
-0.0506577
0.476609
-0.0387499
0.484686
-0.026625
0.490908
-0.0146913
0.495464
-0.00191524
0.498347
0.0109615
0.499697
0.0251698
0.499607
0.0396366
0.498285
0.0552743
0.495789
0.0691861
0.49199
0.0799253
0.486144
0.0828975
0.478042
0.0763928
0.468172
0.0680458
0.457477
0.0644365
0.446544
0.0649144
0.435507
0.0679318
0.424365
0.0721612
0.413317
0.0773581
0.402712
0.0838937
0.39305
0.0922696
0.384554
0.103952
0.121906
-0.164907
-0.162756
-0.138251
-0.17231
-0.105102
-0.209874
-0.216816
-0.189367
0.216551
-0.186542
0.243982
-0.190657
0.275034
-0.205233
0.302306
-0.184578
0.329005
-0.179075
0.354986
-0.169819
0.378476
-0.15224
0.400303
-0.138062
0.420089
-0.12212
0.437924
-0.106194
0.454036
-0.0916965
0.468266
-0.076967
0.480694
-0.0630862
0.491449
-0.049505
0.500477
-0.0356529
0.507756
-0.0219702
0.513348
-0.00750755
0.517246
0.0070637
0.519424
0.0229923
0.520008
0.0390523
0.519222
0.0560606
0.517091
0.0713166
0.51354
0.0834768
0.508174
0.0882633
0.500627
0.0839392
0.491247
0.0774259
0.480855
0.0748285
0.469978
0.0757919
0.458688
0.0792214
0.446967
0.0838823
0.434727
0.0895982
0.422046
0.0965741
0.409083
0.105232
0.396433
0.116601
0.133327
-0.162513
-0.18961
-0.134696
-0.200126
-0.0998321
-0.244738
-0.189038
0.217592
0.246471
0.279222
0.307886
0.336053
-0.207241
0.363391
-0.197157
0.3881
-0.176949
0.410813
-0.160776
0.431711
-0.143017
0.45038
-0.124863
0.467202
-0.108518
0.48225
-0.092015
0.495543
-0.0763793
0.5071
-0.0610622
0.516936
-0.0454887
0.525096
-0.0301303
0.531469
-0.0138807
0.536073
0.00246
0.538971
0.0200936
0.54023
0.0377938
0.540031
0.0562593
0.538419
0.0729289
0.53529
0.0866055
0.53035
0.0932033
0.52332
0.0909691
0.514421
0.086325
0.504341
0.0849086
0.493665
0.0864677
0.482524
0.0903621
0.470834
0.0955723
0.458532
0.101901
0.445516
0.10959
0.431636
0.119112
0.416826
0.131412
0.14869
-0.160694
-0.131521
0.343961
0.372773
0.398656
-0.202832
0.422511
-0.184631
0.444397
-0.164903
0.463948
-0.144415
0.48163
-0.126201
0.497561
-0.107946
0.511571
-0.0903891
0.523859
-0.0733507
0.534575
-0.0562043
0.543459
-0.0390149
0.55064
-0.0210616
0.556017
-0.00291655
0.55973
0.0163802
0.561749
0.0357748
0.562064
0.0559442
0.560925
0.0740681
0.558163
0.0893677
0.553586
0.0977804
0.54693
0.0976252
0.538327
0.0949281
0.528469
0.0947668
0.51789
0.0970466
0.5067
0.101552
0.49497
0.107303
0.482617
0.114253
0.46955
0.122656
0.455609
0.133053
0.440506
0.146515
0.165298
0.410376
0.435462
0.458388
-0.187828
0.478885
-0.164912
0.497364
-0.14468
0.513938
-0.124519
0.528754
-0.105205
0.541894
-0.0864914
0.553209
-0.0675188
0.562877
-0.0486833
0.570784
-0.0289685
0.576946
-0.00907843
0.581298
0.0120282
0.583937
0.0331359
0.584879
0.0550021
0.58417
0.0747769
0.581821
0.0917167
0.577651
0.101951
0.571423
0.103853
0.563242
0.103109
0.553601
0.104408
0.543031
0.107617
0.531799
0.112783
0.519853
0.119249
0.507254
0.126852
0.493961
0.135949
0.479841
0.147174
0.464655
0.1617
0.181941
0.473548
0.494955
-0.186318
0.514338
-0.164063
0.531782
-0.141964
0.547224
-0.120647
0.560997
-0.100264
0.573094
-0.0796156
0.583458
-0.059048
0.59203
-0.0375408
0.598829
-0.0158772
0.60385
0.00700771
0.607137
0.0298486
0.608669
0.0534699
0.608487
0.0749594
0.606561
0.0936421
0.602782
0.10573
0.596955
0.10968
0.589155
0.110909
0.579769
0.113795
0.569317
0.118068
0.557998
0.124103
0.545885
0.131362
0.532987
0.139749
0.519303
0.149633
0.504793
0.161683
0.489232
0.177262
0.198774
0.512285
0.532511
-0.18429
0.550701
-0.160154
0.566971
-0.136916
0.581457
-0.11475
0.594178
-0.0923371
0.605146
-0.070015
0.614392
-0.0467875
0.621878
-0.0233625
0.627532
0.00135321
0.631343
0.0260377
0.63342
0.0513931
0.633694
0.0746852
0.632192
0.0951442
0.628865
0.109057
0.623538
0.115007
0.616132
0.118315
0.607054
0.122872
0.596718
0.128405
0.585377
0.135443
0.573125
0.143614
0.559976
0.152898
0.545921
0.163688
0.530914
0.17669
0.514807
0.19337
0.216162
0.552009
-0.205489
0.570993
-0.179138
0.587982
-0.153905
0.603151
-0.12992
0.616424
-0.10561
0.628079
-0.0816695
0.637948
-0.0566567
0.646021
-0.0314359
0.652301
-0.00492643
0.656732
0.0216063
0.659312
0.048813
0.660085
0.073913
0.659029
0.0961996
0.656115
0.111971
0.651202
0.11992
0.644204
0.125313
0.63546
0.131615
0.62531
0.138555
0.61399
0.146763
0.601625
0.155979
0.588236
0.166287
0.57385
0.178073
0.558376
0.192164
0.541738
0.210008
0.234221
0.572824
0.592666
-0.198979
0.610296
-0.171535
0.62615
-0.145774
0.640183
-0.119643
0.652409
-0.0938951
0.66288
-0.0671274
0.671514
-0.0400706
0.67826
-0.0116723
0.683214
0.0166524
0.686333
0.045694
0.687523
0.0727236
0.686908
0.0968145
0.684431
0.114448
0.679976
0.124374
0.67345
0.131839
0.665008
0.140058
0.65506
0.148503
0.643833
0.15799
0.631392
0.16842
0.617816
0.179863
0.603105
0.192784
0.587252
0.208017
0.570089
0.227171
0.252935
0.615618
0.634128
-0.190045
0.650621
-0.162267
0.665247
-0.13427
0.678059
-0.106707
0.689077
-0.0781458
0.698256
-0.0492498
0.705628
-0.0190436
0.711056
0.0112241
0.714599
0.0421513
0.71628
0.0710422
0.716059
0.0970355
0.714
0.116508
0.709966
0.128408
0.703865
0.13794
0.695811
0.148111
0.686096
0.158218
0.674946
0.16914
0.662465
0.180901
0.648736
0.193592
0.633764
0.207756
0.617499
0.224281
0.599847
0.244823
0.272211
0.659321
-0.209327
0.67655
-0.179496
0.691779
-0.149499
0.705191
-0.120119
0.716744
-0.0896988
0.726474
-0.0589797
0.734287
-0.0268564
0.74023
0.00528099
0.744211
0.0381703
0.746275
0.0689784
0.746492
0.0968188
0.744834
0.118165
0.74126
0.131983
0.73557
0.143631
0.727878
0.155803
0.718422
0.167674
0.707383
0.180179
0.694916
0.193369
0.681053
0.207455
0.665835
0.222975
0.649218
0.240899
0.631101
0.262941
0.292016
0.685965
0.703915
-0.197446
0.71988
-0.165464
0.733831
-0.13407
0.745955
-0.101823
0.756174
-0.0691979
0.764514
-0.0351967
0.770864
-0.0010694
0.775257
0.0337772
0.777766
0.06647
0.778314
0.0962703
0.777052
0.119428
0.773866
0.135168
0.768589
0.148907
0.761286
0.163106
0.752111
0.176849
0.741266
0.191023
0.728814
0.205821
0.714854
0.221415
0.699409
0.23842
0.682456
0.257851
0.663917
0.28148
0.312386
0.732976
-0.216154
0.749572
-0.18206
0.764141
-0.148638
0.776775
-0.114458
0.787461
-0.0798836
0.796208
-0.043944
0.803
-0.00786137
0.807831
0.0289459
0.81064
0.0636608
0.811561
0.0953497
0.810689
0.1203
0.807894
0.137964
0.80306
0.15374
0.796129
0.170038
0.787233
0.185745
0.776544
0.201712
0.764178
0.218188
0.750159
0.235434
0.734524
0.254054
0.717271
0.275105
0.698314
0.300437
0.333236
0.763688
0.780927
-0.199299
0.796132
-0.163844
0.809268
-0.127593
0.820424
-0.0910396
0.82965
-0.0531701
0.836816
-0.0150273
0.841979
0.0237825
0.845152
0.0604881
0.846405
0.0940972
0.845873
0.120831
0.843467
0.14037
0.839
0.158208
0.832433
0.176605
0.82388
0.194297
0.813405
0.212188
0.801106
0.230486
0.78705
0.24949
0.771282
0.269823
0.753767
0.29262
0.734427
0.319777
0.354554
0.814031
-0.217251
0.829837
-0.179649
0.843548
-0.141304
0.85522
-0.102712
0.864807
-0.0627562
0.872373
-0.0225939
0.877848
0.0183078
0.88134
0.0569957
0.882951
0.0924866
0.882634
0.121148
0.880599
0.142405
0.876521
0.162285
0.870243
0.182884
0.862073
0.202467
0.851816
0.222445
0.839666
0.242637
0.825609
0.263547
0.809731
0.2857
0.79198
0.310372
0.772302
0.339455
0.376317
0.849025
0.865444
-0.196068
0.879707
-0.155567
0.891829
-0.114835
0.901825
-0.072752
0.909731
-0.0305001
0.915561
0.0124776
0.919284
0.053273
0.921157
0.0906139
0.921188
0.121117
0.919397
0.144196
0.91571
0.165972
0.909873
0.188721
0.901984
0.210356
0.891994
0.232434
0.879872
0.254759
0.8659
0.277519
0.850002
0.301598
0.832072
0.328301
0.812023
0.359504
0.398474
0.903006
-0.213182
0.91782
-0.170381
0.930422
-0.127437
0.940812
-0.0831425
0.949109
-0.0387971
0.95524
0.00634728
0.959252
0.049261
0.961243
0.0886229
0.96154
0.12082
0.96013
0.145605
0.956731
0.169371
0.951216
0.194236
0.943488
0.218084
0.933793
0.242129
0.921905
0.266646
0.908082
0.291342
0.891936
0.317744
0.873864
0.346373
0.853647
0.379721
0.420974
0.942548
-0.230904
0.958053
-0.185886
0.971123
-0.140508
0.981998
-0.0940173
0.990442
-0.0472411
0.996934
-0.00014497
1.00118
0.0450137
1.00343
0.0863711
1.00399
0.120263
1.00274
0.146857
0.999573
0.172537
0.994354
0.199456
0.986943
0.225495
0.977385
0.251687
0.96591
0.278121
0.951948
0.305304
0.936052
0.33364
0.917818
0.364607
0.897316
0.400222
0.443703
0.984395
1.00039
-0.201877
1.01386
-0.153979
1.02517
-0.105328
1.03407
-0.0561383
1.04066
-0.00673631
1.04518
0.0404873
1.04759
0.083963
1.0483
0.119554
1.04734
0.147815
1.04453
0.17535
1.03958
0.204408
1.03247
0.232602
1.02321
0.260947
1.01168
0.289652
0.998084
0.318899
0.982006
0.349718
0.963662
0.382952
0.943261
0.420623
0.466855
1.04496
-0.218341
1.0592
-0.168223
1.07072
-0.116841
1.08005
-0.065475
1.08683
-0.0135091
1.09148
0.0358327
1.0942
0.0812399
1.09491
0.118851
1.09419
0.14853
1.09141
0.178134
1.08686
0.20896
1.08003
0.239429
1.07106
0.269913
1.05965
0.301065
1.04597
0.332576
1.03022
0.365472
1.01196
0.401209
0.991114
0.44147
0.489922
1.09221
-0.235655
1.10677
-0.182784
1.11876
-0.128827
1.12834
-0.0750521
1.13543
-0.0206048
1.14017
0.0310971
1.14289
0.0785214
1.14403
0.117705
1.14318
0.149381
1.14083
0.180489
1.13616
0.213632
1.12975
0.245837
1.12091
0.278755
1.10993
0.312039
1.09651
0.346002
1.08049
0.38149
1.06236
0.419332
1.04158
0.462255
0.513431
1.14174
1.15685
-0.197893
1.16934
-0.141316
1.17908
-0.0847968
1.18661
-0.0281304
1.19148
0.0262229
1.19436
0.0756393
1.19537
0.116694
1.19485
0.14991
1.19244
0.182896
1.18825
0.217817
1.18175
0.252337
1.17318
0.287327
1.16233
0.32289
1.14902
0.359315
1.13338
0.397122
1.11498
0.437732
1.09432
0.482921
0.536876
1.20973
-0.213668
1.22277
-0.154356
1.23289
-0.0949258
1.24029
-0.0355216
1.24552
0.0209882
1.24826
0.0729029
1.24929
0.115656
1.24889
0.150311
1.24653
0.185259
1.24247
0.221876
1.23633
0.258478
1.22785
0.295807
1.21712
0.333621
1.20409
0.372349
1.18856
0.412649
1.17053
0.455761
1.14959
0.503863
0.560194
1.26555
-0.229931
1.27881
-0.167614
1.28934
-0.105458
1.29712
-0.0432948
1.30212
0.015981
1.30524
0.0697858
1.30641
0.114485
1.30575
0.150967
1.30371
0.187303
1.29958
0.226003
1.29345
0.264609
1.28535
0.303906
1.27489
0.344088
1.26198
0.385255
1.24643
0.428202
1.22836
0.473832
1.20779
0.524432
0.583615
1.32426
1.33807
-0.181421
1.34882
-0.11621
1.35675
-0.0512271
1.36213
0.010599
1.36492
0.0669988
1.366
0.113403
1.36573
0.151239
1.36347
0.189558
1.3594
0.230077
1.35355
0.270458
1.34534
0.312114
1.33497
0.354455
1.3222
0.398027
1.3071
0.443305
1.28917
0.49176
1.26858
0.545022
0.606927
1.40026
-0.195655
1.41155
-0.127508
1.41956
-0.0592328
1.42497
0.0051842
1.42806
0.0639174
1.42905
0.112407
1.42857
0.151722
1.42642
0.191707
1.42251
0.23399
1.41645
0.276517
1.40856
0.319999
1.39828
0.364741
1.38578
0.410521
1.37054
0.45855
1.35293
0.509367
1.33251
0.565442
0.630075
1.46618
-0.210616
1.47749
-0.138821
1.48592
-0.0676612
1.49146
-0.000353015
1.49427
0.0611065
1.49529
0.111381
1.49464
0.152372
1.49252
0.19383
1.48858
0.237931
1.48273
0.282365
1.47468
0.328048
1.46461
0.374814
1.45209
0.423042
1.43731
0.473328
1.41975
0.526925
1.39955
0.585648
1.53521
1.54725
-0.15086
1.55571
-0.0761293
1.56122
-0.00585763
1.56425
0.0580803
1.56509
0.110541
1.56447
0.152988
1.56221
0.196092
1.55805
0.242089
1.55222
0.288193
1.54428
0.335989
1.53424
0.38485
1.52198
0.435303
1.50723
0.488085
1.48989
0.544266
0.605605
1.62048
-0.163008
1.62938
-0.0850273
1.63483
-0.0113031
1.63767
0.0552393
1.63861
0.109598
1.63775
0.153848
1.63531
0.198538
1.63119
0.246201
1.6252
0.29419
1.61748
0.343707
1.60746
0.394871
1.59515
0.447616
1.58056
0.502671
1.56345
0.561375
0.625428
1.69791
-0.175656
1.70679
-0.0939122
1.71254
-0.0170538
1.71538
0.0523968
1.71593
0.109054
1.71507
0.15471
1.71254
0.201067
1.70828
0.250455
1.70224
0.300237
1.69426
0.351682
1.68423
0.404907
1.67214
0.459703
1.65771
0.517095
1.6407
0.57839
0.644805
1.77921
-0.188658
1.78862
-0.103318
1.79423
-0.0226653
1.79697
0.0496492
1.79753
0.108493
1.79636
0.155882
1.79373
0.2037
1.7893
0.254886
1.78316
0.306373
1.77505
0.359798
1.76512
0.414838
1.75308
0.471734
1.73867
0.531512
1.72204
0.595018
0.664153
1.86523
-0.202061
1.87465
-0.112737
1.88039
-0.0284062
1.88304
0.0470002
1.88361
0.107928
1.88222
0.157268
1.87929
0.206629
1.87466
0.259523
1.8684
0.312629
1.86025
0.367942
1.85025
0.424841
1.83796
0.484024
1.82383
0.545645
1.80729
0.611555
0.683171
1.95579
1.9654
-0.122342
1.97134
-0.0343496
1.97401
0.04433
1.97408
0.107861
1.97258
0.158768
1.9695
0.209702
1.96462
0.264403
1.95806
0.319188
1.94972
0.376289
1.93961
0.434948
1.92762
0.496016
1.91332
0.559949
1.89687
0.628003
0.70186
2.06117
-0.132208
2.06701
-0.0401866
2.06949
0.0418482
2.06951
0.10784
2.06791
0.160374
2.06448
0.213135
2.05947
0.26941
2.05258
0.326077
2.04414
0.384731
2.03375
0.44533
2.0216
0.508171
2.00754
0.57401
1.9913
0.644237
0.720364
2.16212
-0.142577
2.16798
-0.0460414
2.17055
0.0392689
2.17034
0.108052
2.16828
0.162435
2.16462
0.216798
2.15931
0.274717
2.1522
0.333183
2.1435
0.39344
2.13309
0.455733
2.12089
0.520376
2.10662
0.588283
2.09058
0.660274
0.738695
2.26855
-0.153144
2.27462
-0.0521154
2.27683
0.0370609
2.27647
0.108415
2.27424
0.164665
2.2702
0.220839
2.26456
0.280354
2.25735
0.340395
2.24834
0.402449
2.2376
0.466474
2.22517
0.532801
2.21109
0.602368
2.19494
0.676419
0.756866
2.38062
-0.163829
2.3868
-0.0582893
2.38902
0.0348358
2.38837
0.10907
2.38594
0.167089
2.38175
0.225037
2.37561
0.286488
2.36798
0.348027
2.35864
0.411785
2.34782
0.477296
2.33515
0.545476
2.32094
0.616578
2.3048
0.692558
0.774758
2.49899
2.5052
-0.0645035
2.50724
0.0327922
2.50654
0.109772
2.50373
0.169903
2.4991
0.22966
2.49273
0.292864
2.48465
0.356103
2.4751
0.421337
2.46374
0.488656
2.45107
0.55815
2.43656
0.631083
2.42068
0.708437
0.792679
2.63015
-0.0708435
2.63218
0.0307661
2.63111
0.11084
2.62791
0.173105
2.62295
0.234623
2.61616
0.299648
2.60775
0.364513
2.59781
0.431274
2.58631
0.50016
2.57318
0.571277
2.55877
0.645495
2.54242
0.724786
2.7617
-0.0772728
2.76376
0.0287116
2.76233
0.112268
2.75898
0.176449
2.75366
0.239944
2.74644
0.306867
2.73768
0.373278
2.72719
0.441766
2.71523
0.512118
2.70204
0.584468
2.68713
0.660404
0.740945
2.90077
-0.0839165
2.90244
0.0270419
2.901
0.113708
2.89722
0.180231
2.89137
0.245791
2.88383
0.314404
2.87454
0.382572
2.86374
0.45256
2.85144
0.524422
2.8376
0.598309
2.82271
0.675291
0.757366
3.04706
-0.0904251
3.04897
0.0251332
3.04709
0.115591
3.04298
0.184343
3.03686
0.251903
3.02884
0.322425
3.019
0.392415
3.0076
0.463961
2.99492
0.537102
2.98095
0.612284
2.96536
0.690879
0.773808
3.20179
3.20323
0.0236897
3.20129
0.117534
3.19678
0.188852
3.19026
0.258428
3.18172
0.330959
3.17144
0.402696
3.15968
0.475721
3.14632
0.550463
3.13177
0.626834
3.11613
0.706516
0.790861
3.36625
0.0221899
3.36379
0.119997
3.35906
0.193579
3.35206
0.265425
3.343
0.340028
3.33225
0.413446
3.31968
0.488283
3.30603
0.564121
3.291
0.641859
3.27487
0.722648
0.808015
3.53815
0.0205842
3.53558
0.122563
3.5303
0.198866
3.5228
0.272921
3.51317
0.349663
3.50179
0.424825
3.48881
0.501259
3.47441
0.578522
3.45875
0.657522
3.44222
0.739177
0.825584
3.71933
0.0192939
3.71644
0.125452
3.71071
0.204602
3.70285
0.280783
3.69275
0.359754
3.68072
0.436863
3.66715
0.514822
3.65212
0.593557
3.63605
0.673589
3.61882
0.756412
0.84374
3.91054
0.0179748
3.90732
0.128675
3.90138
0.210545
3.89297
0.289186
3.88213
0.370602
3.86953
0.449456
3.85522
0.529132
3.83952
0.609258
3.82275
0.690364
3.80491
0.774251
0.862257
4.1122
0.0167745
4.10873
0.132141
4.10227
0.217012
4.09329
0.298165
4.08206
0.381832
4.06861
0.462903
4.05365
0.544088
4.03725
0.625657
4.01974
0.707881
4.00139
0.792598
4.32492
0.0156395
4.32115
0.135914
4.31428
0.22388
4.30469
0.307754
4.29278
0.393748
4.27885
0.476831
4.26294
0.559992
4.24595
0.642651
4.22752
0.72631
0.811622
4.54936
4.54527
0.140005
4.53794
0.23121
4.52783
0.317859
4.51505
0.406528
4.50034
0.491542
4.48386
0.576471
4.46583
0.660681
4.44686
0.74528
0.8315
4.78163
0.144492
4.77396
0.238879
4.76317
0.328656
4.74979
0.419907
4.73412
0.507208
4.71676
0.593831
4.69793
0.679511
4.67811
0.765101
0.852266
5.03097
0.149253
5.02261
0.247233
5.01139
0.33988
4.9972
0.4341
4.98081
0.523593
4.96254
0.612106
4.94274
0.699312
4.9219
0.78594
0.873826
5.294
0.154349
5.28518
0.256049
5.27318
0.351878
5.25831
0.448976
5.24103
0.540873
5.2218
0.631336
5.20099
0.72012
5.1791
0.807833
0.896353
5.57144
0.159626
5.56201
0.265471
5.54935
0.364542
5.5336
0.46473
5.51538
0.559085
5.49516
0.651556
5.47344
0.741841
5.45059
0.830688
0.919886
5.864
0.165477
5.85404
0.275427
5.84065
0.377935
5.82397
0.481413
5.80491
0.578142
5.78352
0.672945
5.76071
0.764648
5.73672
0.85468
6.17255
0.171715
6.1621
0.285879
6.14795
0.392084
6.13045
0.49892
6.11023
0.598358
6.08789
0.69528
6.06369
0.788855
0.879719
6.49828
0.178285
6.4872
0.296955
6.47207
0.407217
6.45368
0.517309
6.43226
0.619776
6.4088
0.718745
6.38354
0.814106
0.906248
6.8417
6.82989
0.308764
6.81418
0.422929
6.7947
0.536786
6.77229
0.642187
6.74738
0.74365
6.72077
0.840718
0.934049
7.19177
0.32069
7.17484
0.439857
7.15412
0.557505
7.13107
0.665245
7.10454
0.770173
7.07706
0.868205
0.963564
7.57316
0.334764
7.55565
0.457366
7.53399
0.579158
7.5084
0.690843
7.48139
0.797181
7.45166
0.897933
0.993386
7.97586
0.347624
7.95701
0.476216
7.93414
0.602028
7.90871
0.716275
7.87933
0.82656
7.84864
0.928629
1.02672
5.77666
0.380897
5.74895
0.503923
5.73278
0.618202
5.71236
0.736696
5.69158
0.847341
5.7108
0.90941
6.34701
0.417416
6.31619
0.534749
6.29697
0.637419
6.27755
0.756116
6.25524
0.869647
0.89042
6.9738
0.457393
6.93971
0.568842
6.91989
0.657233
6.89739
0.778622
6.8708
0.89623
0.866572
7.66211
0.501042
7.62452
0.606432
7.60393
0.67782
7.57685
0.8057
7.54975
0.923337
0.841971
8.41836
0.549858
8.3771
0.64769
8.35294
0.701982
8.32636
0.832281
8.29596
0.953731
0.81546
9.24878
0.602847
9.20355
0.692919
9.17686
0.728668
9.14659
0.862555
9.11395
0.986368
0.784697
10.1616
10.1137
0.740861
10.0843
0.757989
10.0516
0.89527
10.0141
1.02388
0.752317
11.1102
0.796113
11.079
0.789222
11.0419
0.932308
11.0016
1.06425
0.716324
12.2123
0.85416
12.1771
0.824452
12.1375
0.971872
12.0936
1.1082
0.674775
13.4093
0.920916
13.3709
0.862926
13.3271
1.01563
13.2777
1.15758
14.7545
0.990814
14.7143
0.90314
14.6662
1.06367
1.2066
16.1762
1.07012
16.1281
0.951247
16.0741
1.11774
1.26823
17.863
17.8186
17.77
)
;

boundaryField
{
    inlet
    {
        type            calculated;
        value           nonuniform List<scalar> 4(1.14869 0.995656 1.16627 1.31791);
    }
    outlet
    {
        type            calculated;
        value           nonuniform List<scalar> 0();
    }
    walls
    {
        type            calculated;
        value           uniform 0;
    }
    frontAndBack
    {
        type            empty;
        value           nonuniform List<scalar> 0();
    }
    procBoundary5to0
    {
        type            processor;
        value           nonuniform List<scalar> 4(-0.215096 -0.217953 -0.2293 -0.281383);
    }
    procBoundary5to1
    {
        type            processor;
        value           nonuniform List<scalar> 
13
(
-0.0220069
-0.034383
-0.0479129
-0.0394463
-0.0995671
-0.0628099
-0.0543427
-0.159002
-0.0788439
-0.0718973
-0.0651035
-0.251544
-0.0948766
)
;
    }
    procBoundary5to4
    {
        type            processor;
        value           nonuniform List<scalar> 
95
(
-0.219536
-0.237984
-0.213242
-0.314502
-0.2367
-0.225969
-0.383343
-0.229865
-0.209717
-0.449545
-0.211832
-0.489886
-0.208717
-0.530809
-0.550729
-0.227585
-0.594892
-0.219706
-0.640039
-0.665912
-0.22938
-0.714268
-0.744182
-0.235659
-0.796079
-0.830232
-0.236044
-0.885892
-0.924826
-0.965833
-0.249466
-1.0285
-1.0749
-1.12376
-0.253635
-1.19395
-1.24929
-1.30721
-0.246982
-1.38602
-1.45122
-1.51999
-0.225835
-1.60834
-1.68526
-1.76621
-1.85183
-1.94181
-0.216038
-2.05131
-2.15175
-2.25798
-2.36994
-2.48776
-0.175057
-2.62381
-2.75527
-2.89413
-3.04055
-3.19474
-0.0974753
-3.36475
-3.53654
-3.71804
-3.90922
-4.111
-4.32379
-4.5482
0.0144816
-4.78612
-5.03573
-5.29909
-5.57671
-5.86985
-6.17879
-6.50485
-6.84868
0.185264
-7.2037
-7.58723
-7.98872
-5.80993
-6.38353
-7.01378
-7.70576
-8.46717
-9.30177
-10.2202
0.661434
-11.1655
-12.2703
-13.4761
-14.8244
-16.2556
-17.9416
)
;
    }
    procBoundary5to6
    {
        type            processor;
        value           nonuniform List<scalar> 
86
(
0.126713
0.168273
0.213386
0.266153
0.321462
0.360702
0.375887
0.385012
0.401463
0.423898
0.448013
0.472399
0.497419
0.523679
0.551376
0.58057
0.611296
0.643547
0.677465
0.713108
0.75054
0.789866
0.831148
0.874587
0.92011
0.968046
1.01807
1.07087
1.12627
1.18437
1.24527
1.30937
1.37647
0.653147
1.46993
1.54363
1.62132
1.70269
1.78827
1.87818
1.9728
2.07225
2.17677
2.28691
2.40276
2.52458
0.810517
2.67097
2.80629
2.94891
3.09908
3.25772
3.42465
3.60066
3.78639
3.98234
0.881308
4.2085
4.42699
4.65735
4.90034
5.15657
5.42705
5.71201
0.944599
6.03865
6.35701
6.69297
7.04754
7.42184
7.8153
5.71381
1.02371
6.27423
6.89465
7.57435
8.32247
9.14472
10.0465
11.0376
12.1351
13.3203
0.632261
14.6172
16.0124
17.7204
)
;
    }
}


// ************************************************************************* //
