/*--------------------------------*- C++ -*----------------------------------*\
| =========                 |                                                 |
| \\      /  F ield         | OpenFOAM: The Open Source CFD Toolbox           |
|  \\    /   O peration     | Version:  2306                                  |
|   \\  /    A nd           | Website:  www.openfoam.com                      |
|    \\/     M anipulation  |                                                 |
\*---------------------------------------------------------------------------*/
FoamFile
{
    version     2.0;
    format      ascii;
    arch        "LSB;label=32;scalar=64";
    class       volScalarField;
    location    "275";
    object      turbulenceProperties:nuEff;
}
// * * * * * * * * * * * * * * * * * * * * * * * * * * * * * * * * * * * * * //

dimensions      [0 2 -1 0 0 0 0];

internalField   nonuniform List<scalar> 
1340
(
3.58168e-05
3.95444e-05
4.45333e-05
5.09975e-05
5.93231e-05
7.00416e-05
8.38733e-05
0.00010118
0.000123
0.000150377
0.000185268
0.000230786
0.000291362
0.000374957
0.000495152
0.000673989
0.000956055
0.0014056
0.00222779
0.00360055
0.00691295
0.0127278
0.0339343
0.0760727
0.0937685
0.0946987
0.0957443
0.0992819
0.102798
0.104532
0.104508
0.103258
0.100891
0.0974617
0.0928465
3.25904e-05
2.98111e-05
2.70802e-05
2.45897e-05
2.22552e-05
2.01121e-05
1.82494e-05
1.50849e-05
1.49798e-05
1.48849e-05
1.48063e-05
1.47162e-05
1.46334e-05
1.45721e-05
1.45184e-05
1.44954e-05
1.45158e-05
1.45433e-05
1.48194e-05
1.58821e-05
1.86602e-05
2.64298e-05
4.68478e-05
9.3947e-05
0.000172859
0.000325146
0.000598084
0.00133123
0.00284031
0.00712275
0.0204781
0.0394299
0.0631779
0.0924339
0.12362
0.14868
0.162639
0.167929
0.168745
0.167153
0.163797
0.159282
1.51685e-05
1.52818e-05
1.53783e-05
1.55093e-05
1.56435e-05
1.57794e-05
1.6266e-05
1.62833e-05
1.63013e-05
1.63206e-05
1.63443e-05
1.63708e-05
1.64011e-05
1.64366e-05
1.64784e-05
1.65274e-05
1.65856e-05
1.66574e-05
1.67361e-05
1.68799e-05
1.68926e-05
1.64642e-05
1.47421e-05
1.35033e-05
1.00013e-05
1.83062e-05
1.06401e-05
2.92153e-05
1.12895e-05
0.000566336
0.00298292
0.00754649
0.0156259
0.0310738
0.0573088
0.0936334
0.13263
0.164344
0.184759
0.196593
0.203277
1.62528e-05
1.62337e-05
1.62192e-05
1.61976e-05
1.61791e-05
1.61592e-05
1.60859e-05
1.60835e-05
1.60829e-05
1.60833e-05
1.60842e-05
1.60869e-05
1.60918e-05
1.60985e-05
1.61086e-05
1.61222e-05
1.61402e-05
1.61637e-05
1.61942e-05
1.62332e-05
1.62849e-05
1.63388e-05
1.62195e-05
1.58947e-05
1.41043e-05
1.20199e-05
1.00831e-05
1.01831e-05
1.00022e-05
0.000102381
0.000630261
0.00166895
0.00143043
0.00175331
0.00385021
0.0135809
0.0355269
0.0725552
0.118521
0.161016
0.192912
1.60866e-05
1.6089e-05
1.60921e-05
1.60943e-05
1.60981e-05
1.6111e-05
1.61116e-05
1.61118e-05
1.61127e-05
1.61143e-05
1.61162e-05
1.61189e-05
1.61225e-05
1.61272e-05
1.61334e-05
1.61414e-05
1.6152e-05
1.61659e-05
1.61837e-05
1.6208e-05
1.6236e-05
1.62794e-05
1.62919e-05
1.63584e-05
1.59541e-05
1.50061e-05
1.11493e-05
1.00146e-05
1.00005e-05
1e-05
1e-05
0.000310307
0.000386361
0.000855562
0.00306509
0.000876519
0.00799978
0.0293365
0.0703462
0.123657
1.61111e-05
1.61097e-05
1.61104e-05
1.61094e-05
1.61103e-05
1.61049e-05
1.61047e-05
1.6105e-05
1.61052e-05
1.61053e-05
1.61057e-05
1.61063e-05
1.61071e-05
1.61083e-05
1.611e-05
1.61123e-05
1.61156e-05
1.61199e-05
1.61258e-05
1.6134e-05
1.61448e-05
1.61595e-05
1.61754e-05
1.62051e-05
1.63034e-05
1.67791e-05
1.61338e-05
1.45706e-05
1.0319e-05
1.00091e-05
1.0002e-05
1.00002e-05
1e-05
1e-05
1e-05
0.00019552
0.0018321
0.000333984
0.0086089
0.037729
1.61045e-05
1.61038e-05
1.61047e-05
1.61045e-05
1.61052e-05
1.61054e-05
1.61056e-05
1.61056e-05
1.61057e-05
1.61058e-05
1.6106e-05
1.61063e-05
1.61068e-05
1.61075e-05
1.61085e-05
1.611e-05
1.6112e-05
1.61149e-05
1.61188e-05
1.61244e-05
1.61318e-05
1.61402e-05
1.61487e-05
1.61452e-05
1.62338e-05
1.65032e-05
1.6998e-05
1.59548e-05
1.32821e-05
1.12198e-05
1.0146e-05
1.00094e-05
1.00033e-05
1.00001e-05
1e-05
1e-05
5.01121e-05
0.0020287
0.00157184
1.61047e-05
1.61037e-05
1.61041e-05
1.61037e-05
1.61048e-05
1.61049e-05
1.61052e-05
1.61052e-05
1.6105e-05
1.61049e-05
1.61047e-05
1.61045e-05
1.61045e-05
1.61045e-05
1.61046e-05
1.61048e-05
1.61052e-05
1.61058e-05
1.61066e-05
1.6108e-05
1.611e-05
1.61124e-05
1.61157e-05
1.61151e-05
1.61076e-05
1.61535e-05
1.6327e-05
1.67471e-05
1.68105e-05
1.63758e-05
1.53329e-05
1.34603e-05
1.17345e-05
1.00295e-05
1.00073e-05
1e-05
1e-05
1e-05
0.000387445
1.61042e-05
1.6103e-05
1.61031e-05
1.61026e-05
1.61047e-05
1.61048e-05
1.6105e-05
1.61048e-05
1.61046e-05
1.61043e-05
1.61041e-05
1.6104e-05
1.61038e-05
1.61038e-05
1.61038e-05
1.61039e-05
1.61041e-05
1.61045e-05
1.61051e-05
1.61061e-05
1.61075e-05
1.61093e-05
1.61113e-05
1.61134e-05
1.61119e-05
1.61071e-05
1.61125e-05
1.62099e-05
1.64e-05
1.66146e-05
1.69063e-05
1.70838e-05
1.68651e-05
1.49027e-05
1.27637e-05
1.00084e-05
1.00033e-05
1e-05
1e-05
1.61041e-05
1.61029e-05
1.61025e-05
1.61041e-05
1.61038e-05
1.61035e-05
1.61033e-05
1.6103e-05
1.61028e-05
1.61027e-05
1.61026e-05
1.61025e-05
1.61024e-05
1.61024e-05
1.61024e-05
1.61025e-05
1.61025e-05
1.61027e-05
1.61035e-05
1.61046e-05
1.61041e-05
1.61016e-05
1.61013e-05
1.61207e-05
1.61711e-05
1.62936e-05
1.65138e-05
1.68427e-05
1.72157e-05
1.74467e-05
1.51633e-05
1.12745e-05
1.00127e-05
1e-05
1.61029e-05
1.61027e-05
1.61025e-05
1.61024e-05
1.61023e-05
1.61022e-05
1.61022e-05
1.61022e-05
1.61023e-05
1.61025e-05
1.61029e-05
1.61033e-05
1.61039e-05
1.61045e-05
1.61051e-05
1.61054e-05
1.61054e-05
1.61044e-05
1.61017e-05
1.60972e-05
1.60962e-05
1.61246e-05
1.62023e-05
1.64258e-05
1.68091e-05
1.75804e-05
1.71355e-05
1.35385e-05
1.00148e-05
1.61021e-05
1.61019e-05
1.61018e-05
1.61017e-05
1.61017e-05
1.61016e-05
1.61016e-05
1.61016e-05
1.61017e-05
1.61018e-05
1.6102e-05
1.61024e-05
1.61031e-05
1.61038e-05
1.61045e-05
1.61054e-05
1.61065e-05
1.61061e-05
1.61008e-05
1.60912e-05
1.60773e-05
1.60925e-05
1.6144e-05
1.64782e-05
1.71124e-05
1.79672e-05
1.36572e-05
1.61016e-05
1.61015e-05
1.61015e-05
1.61014e-05
1.61014e-05
1.61014e-05
1.61015e-05
1.61016e-05
1.61018e-05
1.6102e-05
1.61023e-05
1.61027e-05
1.61032e-05
1.61038e-05
1.61045e-05
1.61056e-05
1.61075e-05
1.61092e-05
1.61082e-05
1.61003e-05
1.60859e-05
1.60604e-05
1.60633e-05
1.62218e-05
1.67801e-05
1.86569e-05
1.61013e-05
1.61013e-05
1.61013e-05
1.61013e-05
1.61013e-05
1.61013e-05
1.61014e-05
1.61015e-05
1.61016e-05
1.61018e-05
1.61021e-05
1.61025e-05
1.61031e-05
1.61037e-05
1.61044e-05
1.61057e-05
1.61077e-05
1.61102e-05
1.61119e-05
1.61093e-05
1.60996e-05
1.60694e-05
1.60486e-05
1.60544e-05
1.66897e-05
1.61012e-05
1.61012e-05
1.61012e-05
1.61012e-05
1.61012e-05
1.61013e-05
1.61013e-05
1.61014e-05
1.61016e-05
1.61017e-05
1.6102e-05
1.61023e-05
1.61027e-05
1.61032e-05
1.61038e-05
1.61046e-05
1.61058e-05
1.61077e-05
1.61103e-05
1.61128e-05
1.61143e-05
1.61103e-05
1.60807e-05
1.60993e-05
1.56413e-05
1.61012e-05
1.61012e-05
1.61013e-05
1.61013e-05
1.61013e-05
1.61014e-05
1.61015e-05
1.61016e-05
1.61017e-05
1.61019e-05
1.61021e-05
1.61024e-05
1.61028e-05
1.61034e-05
1.6104e-05
1.61049e-05
1.61061e-05
1.61078e-05
1.61102e-05
1.61124e-05
1.61189e-05
1.61027e-05
1.61634e-05
1.58191e-05
1.61013e-05
1.61013e-05
1.61014e-05
1.61014e-05
1.61015e-05
1.61016e-05
1.61016e-05
1.61017e-05
1.61019e-05
1.61021e-05
1.61023e-05
1.61026e-05
1.61031e-05
1.61037e-05
1.61044e-05
1.61054e-05
1.61066e-05
1.61082e-05
1.61097e-05
1.61143e-05
1.61125e-05
1.61236e-05
1.61921e-05
1.61014e-05
1.61014e-05
1.61015e-05
1.61016e-05
1.61016e-05
1.61017e-05
1.61017e-05
1.61018e-05
1.61019e-05
1.61021e-05
1.61023e-05
1.61026e-05
1.61029e-05
1.61034e-05
1.61041e-05
1.61049e-05
1.61059e-05
1.61071e-05
1.61086e-05
1.61096e-05
1.61183e-05
1.60835e-05
1.63077e-05
1.61015e-05
1.61016e-05
1.61017e-05
1.61017e-05
1.61018e-05
1.61018e-05
1.61019e-05
1.6102e-05
1.61021e-05
1.61023e-05
1.61025e-05
1.61028e-05
1.61033e-05
1.61038e-05
1.61045e-05
1.61054e-05
1.61064e-05
1.61081e-05
1.61076e-05
1.61182e-05
1.60817e-05
1.62395e-05
1.61016e-05
1.61017e-05
1.61018e-05
1.61018e-05
1.61019e-05
1.6102e-05
1.6102e-05
1.61021e-05
1.61022e-05
1.61024e-05
1.61025e-05
1.61028e-05
1.61032e-05
1.61036e-05
1.61043e-05
1.61051e-05
1.61059e-05
1.61074e-05
1.61073e-05
1.61142e-05
1.60977e-05
1.61493e-05
1.61018e-05
1.61019e-05
1.6102e-05
1.6102e-05
1.61021e-05
1.61022e-05
1.61022e-05
1.61024e-05
1.61025e-05
1.61026e-05
1.61028e-05
1.61031e-05
1.61035e-05
1.61041e-05
1.61048e-05
1.61055e-05
1.61067e-05
1.61074e-05
1.61101e-05
1.611e-05
1.6103e-05
1.61019e-05
1.6102e-05
1.61021e-05
1.61022e-05
1.61022e-05
1.61023e-05
1.61024e-05
1.61025e-05
1.61026e-05
1.61027e-05
1.61029e-05
1.61032e-05
1.61035e-05
1.6104e-05
1.61046e-05
1.61053e-05
1.61062e-05
1.61073e-05
1.61079e-05
1.61137e-05
1.60943e-05
1.61021e-05
1.61022e-05
1.61023e-05
1.61024e-05
1.61024e-05
1.61025e-05
1.61026e-05
1.61027e-05
1.61029e-05
1.6103e-05
1.61032e-05
1.61035e-05
1.61039e-05
1.61045e-05
1.61051e-05
1.61058e-05
1.6107e-05
1.61072e-05
1.61124e-05
1.61004e-05
1.61022e-05
1.61023e-05
1.61024e-05
1.61025e-05
1.61026e-05
1.61027e-05
1.61028e-05
1.61029e-05
1.6103e-05
1.61031e-05
1.61033e-05
1.61036e-05
1.6104e-05
1.61044e-05
1.6105e-05
1.61056e-05
1.61066e-05
1.61071e-05
1.61101e-05
1.61068e-05
1.61024e-05
1.61025e-05
1.61026e-05
1.61027e-05
1.61027e-05
1.61028e-05
1.61029e-05
1.6103e-05
1.61032e-05
1.61033e-05
1.61035e-05
1.61037e-05
1.6104e-05
1.61044e-05
1.61049e-05
1.61055e-05
1.61063e-05
1.61071e-05
1.61086e-05
1.61097e-05
1.61026e-05
1.61027e-05
1.61028e-05
1.61029e-05
1.6103e-05
1.61031e-05
1.61032e-05
1.61033e-05
1.61035e-05
1.61036e-05
1.61038e-05
1.61041e-05
1.61045e-05
1.61049e-05
1.61055e-05
1.61061e-05
1.6107e-05
1.61079e-05
1.611e-05
1.61027e-05
1.61028e-05
1.61029e-05
1.61031e-05
1.61032e-05
1.61033e-05
1.61034e-05
1.61035e-05
1.61036e-05
1.61038e-05
1.6104e-05
1.61042e-05
1.61045e-05
1.61049e-05
1.61054e-05
1.6106e-05
1.61069e-05
1.61076e-05
1.61094e-05
1.61028e-05
1.6103e-05
1.61031e-05
1.61032e-05
1.61033e-05
1.61034e-05
1.61036e-05
1.61037e-05
1.61038e-05
1.6104e-05
1.61041e-05
1.61044e-05
1.61047e-05
1.6105e-05
1.61055e-05
1.6106e-05
1.61067e-05
1.61075e-05
1.61088e-05
1.61031e-05
1.61032e-05
1.61034e-05
1.61035e-05
1.61036e-05
1.61037e-05
1.61039e-05
1.6104e-05
1.61041e-05
1.61043e-05
1.61045e-05
1.61048e-05
1.61051e-05
1.61055e-05
1.6106e-05
1.61067e-05
1.61074e-05
1.61085e-05
1.61032e-05
1.61034e-05
1.61035e-05
1.61036e-05
1.61038e-05
1.61039e-05
1.61041e-05
1.61042e-05
1.61043e-05
1.61045e-05
1.61047e-05
1.61049e-05
1.61052e-05
1.61056e-05
1.61061e-05
1.61067e-05
1.61074e-05
1.61083e-05
1.61034e-05
1.61035e-05
1.61037e-05
1.61038e-05
1.6104e-05
1.61041e-05
1.61042e-05
1.61044e-05
1.61045e-05
1.61047e-05
1.61049e-05
1.61051e-05
1.61054e-05
1.61057e-05
1.61062e-05
1.61067e-05
1.61074e-05
1.61082e-05
1.61036e-05
1.61038e-05
1.6104e-05
1.61041e-05
1.61043e-05
1.61044e-05
1.61046e-05
1.61047e-05
1.61049e-05
1.61051e-05
1.61053e-05
1.61056e-05
1.61059e-05
1.61063e-05
1.61068e-05
1.61074e-05
1.61082e-05
1.61038e-05
1.61039e-05
1.61041e-05
1.61043e-05
1.61045e-05
1.61046e-05
1.61048e-05
1.61049e-05
1.61051e-05
1.61053e-05
1.61055e-05
1.61057e-05
1.61061e-05
1.61064e-05
1.61069e-05
1.61075e-05
1.61082e-05
1.61039e-05
1.61041e-05
1.61043e-05
1.61045e-05
1.61046e-05
1.61048e-05
1.6105e-05
1.61051e-05
1.61053e-05
1.61055e-05
1.61057e-05
1.61059e-05
1.61062e-05
1.61066e-05
1.6107e-05
1.61075e-05
1.61042e-05
1.61044e-05
1.61046e-05
1.61048e-05
1.6105e-05
1.61052e-05
1.61053e-05
1.61055e-05
1.61057e-05
1.61059e-05
1.61061e-05
1.61064e-05
1.61068e-05
1.61072e-05
1.61077e-05
1.61044e-05
1.61046e-05
1.61048e-05
1.6105e-05
1.61052e-05
1.61053e-05
1.61055e-05
1.61057e-05
1.61059e-05
1.61061e-05
1.61064e-05
1.61066e-05
1.6107e-05
1.61073e-05
1.61078e-05
1.61045e-05
1.61047e-05
1.61049e-05
1.61051e-05
1.61053e-05
1.61055e-05
1.61057e-05
1.61059e-05
1.61061e-05
1.61063e-05
1.61066e-05
1.61068e-05
1.61072e-05
1.61075e-05
1.6108e-05
1.61046e-05
1.61049e-05
1.61051e-05
1.61053e-05
1.61055e-05
1.61057e-05
1.61059e-05
1.61061e-05
1.61063e-05
1.61065e-05
1.61068e-05
1.61071e-05
1.61074e-05
1.61077e-05
1.61082e-05
1.61047e-05
1.6105e-05
1.61052e-05
1.61055e-05
1.61057e-05
1.61059e-05
1.61061e-05
1.61063e-05
1.61065e-05
1.61068e-05
1.6107e-05
1.61073e-05
1.61076e-05
1.61079e-05
1.61084e-05
1.61051e-05
1.61054e-05
1.61056e-05
1.61058e-05
1.61061e-05
1.61063e-05
1.61065e-05
1.61067e-05
1.6107e-05
1.61072e-05
1.61075e-05
1.61078e-05
1.61082e-05
1.61086e-05
1.61052e-05
1.61055e-05
1.61057e-05
1.6106e-05
1.61062e-05
1.61064e-05
1.61067e-05
1.61069e-05
1.61072e-05
1.61074e-05
1.61077e-05
1.6108e-05
1.61084e-05
1.61088e-05
1.61053e-05
1.61056e-05
1.61058e-05
1.61061e-05
1.61064e-05
1.61066e-05
1.61068e-05
1.61071e-05
1.61074e-05
1.61076e-05
1.61079e-05
1.61082e-05
1.61086e-05
1.6109e-05
1.61054e-05
1.61056e-05
1.61059e-05
1.61062e-05
1.61065e-05
1.61067e-05
1.6107e-05
1.61072e-05
1.61075e-05
1.61078e-05
1.61081e-05
1.61084e-05
1.61088e-05
1.61092e-05
1.61054e-05
1.61057e-05
1.6106e-05
1.61063e-05
1.61066e-05
1.61068e-05
1.61071e-05
1.61074e-05
1.61077e-05
1.6108e-05
1.61083e-05
1.61086e-05
1.6109e-05
1.61094e-05
1.61057e-05
1.6106e-05
1.61063e-05
1.61066e-05
1.61069e-05
1.61072e-05
1.61075e-05
1.61078e-05
1.61081e-05
1.61084e-05
1.61088e-05
1.61092e-05
1.61096e-05
1.61057e-05
1.6106e-05
1.61063e-05
1.61066e-05
1.61069e-05
1.61072e-05
1.61075e-05
1.61079e-05
1.61082e-05
1.61085e-05
1.61089e-05
1.61093e-05
1.61056e-05
1.6106e-05
1.61063e-05
1.61066e-05
1.61069e-05
1.61072e-05
1.61076e-05
1.61079e-05
1.61082e-05
1.61086e-05
1.6109e-05
1.61094e-05
1.61055e-05
1.61059e-05
1.61062e-05
1.61066e-05
1.61069e-05
1.61072e-05
1.61075e-05
1.61079e-05
1.61083e-05
1.61086e-05
1.6109e-05
1.61095e-05
1.61053e-05
1.61057e-05
1.61061e-05
1.61064e-05
1.61068e-05
1.61071e-05
1.61075e-05
1.61078e-05
1.61082e-05
1.61086e-05
1.6109e-05
1.61095e-05
1.61055e-05
1.61059e-05
1.61062e-05
1.61066e-05
1.6107e-05
1.61073e-05
1.61077e-05
1.61081e-05
1.61085e-05
1.6109e-05
1.61094e-05
1.61052e-05
1.61056e-05
1.6106e-05
1.61063e-05
1.61067e-05
1.61071e-05
1.61075e-05
1.61079e-05
1.61084e-05
1.61088e-05
1.61093e-05
1.61048e-05
1.61052e-05
1.61056e-05
1.6106e-05
1.61064e-05
1.61068e-05
1.61073e-05
1.61077e-05
1.61082e-05
1.61086e-05
1.61091e-05
1.61044e-05
1.61048e-05
1.61052e-05
1.61056e-05
1.6106e-05
1.61065e-05
1.61069e-05
1.61074e-05
1.61078e-05
1.61083e-05
1.61089e-05
1.61038e-05
1.61043e-05
1.61047e-05
1.61051e-05
1.61055e-05
1.6106e-05
1.61064e-05
1.61069e-05
1.61074e-05
1.6108e-05
1.61085e-05
1.61032e-05
1.61036e-05
1.61041e-05
1.61045e-05
1.61049e-05
1.61054e-05
1.61059e-05
1.61064e-05
1.61069e-05
1.61075e-05
1.61024e-05
1.61029e-05
1.61033e-05
1.61038e-05
1.61042e-05
1.61047e-05
1.61052e-05
1.61057e-05
1.61063e-05
1.61069e-05
1.61021e-05
1.61025e-05
1.6103e-05
1.61034e-05
1.61039e-05
1.61045e-05
1.6105e-05
1.61056e-05
1.61061e-05
1.61011e-05
1.61016e-05
1.6102e-05
1.61025e-05
1.6103e-05
1.61036e-05
1.61041e-05
1.61047e-05
1.61053e-05
1.61e-05
1.61005e-05
1.6101e-05
1.61015e-05
1.6102e-05
1.61026e-05
1.61031e-05
1.61037e-05
1.61044e-05
1.60987e-05
1.60992e-05
1.60997e-05
1.61002e-05
1.61008e-05
1.61014e-05
1.6102e-05
1.61026e-05
1.61033e-05
1.60971e-05
1.60976e-05
1.60981e-05
1.60987e-05
1.60993e-05
1.60999e-05
1.61005e-05
1.61012e-05
1.61019e-05
1.60952e-05
1.60957e-05
1.60962e-05
1.60968e-05
1.60973e-05
1.6098e-05
1.60986e-05
1.60993e-05
1.60929e-05
1.60934e-05
1.60939e-05
1.60945e-05
1.60951e-05
1.60957e-05
1.60964e-05
1.60971e-05
1.60906e-05
1.6091e-05
1.60915e-05
1.6092e-05
1.60926e-05
1.60932e-05
1.60939e-05
1.60946e-05
1.60886e-05
1.6089e-05
1.60895e-05
1.60901e-05
1.60907e-05
1.60913e-05
1.6092e-05
1.60861e-05
1.60865e-05
1.6087e-05
1.60875e-05
1.60881e-05
1.60887e-05
1.60893e-05
1.60835e-05
1.60839e-05
1.60844e-05
1.60849e-05
1.60855e-05
1.60861e-05
1.60867e-05
1.60809e-05
1.60814e-05
1.60818e-05
1.60823e-05
1.60829e-05
1.60835e-05
1.60842e-05
1.60786e-05
1.6079e-05
1.60794e-05
1.60799e-05
1.60805e-05
1.6081e-05
1.60763e-05
1.60766e-05
1.6077e-05
1.60774e-05
1.60779e-05
1.60784e-05
1.6074e-05
1.60743e-05
1.60746e-05
1.60749e-05
1.60753e-05
1.60758e-05
1.60718e-05
1.6072e-05
1.60722e-05
1.60725e-05
1.60728e-05
1.60732e-05
1.60706e-05
1.60706e-05
1.60707e-05
1.60708e-05
1.60709e-05
1.6071e-05
1.60721e-05
1.6072e-05
1.60719e-05
1.60718e-05
1.60716e-05
1.60715e-05
1.60747e-05
1.60747e-05
1.60746e-05
1.60745e-05
1.60744e-05
1.60778e-05
1.60779e-05
1.60778e-05
1.60777e-05
1.60777e-05
1.6081e-05
1.60812e-05
1.60814e-05
1.60815e-05
1.60816e-05
1.60845e-05
1.60847e-05
1.60848e-05
1.60846e-05
1.60869e-05
1.60877e-05
1.60887e-05
1.60898e-05
1.60983e-05
1.60989e-05
1.60995e-05
1.60998e-05
)
;

boundaryField
{
    inlet
    {
        type            calculated;
        value           nonuniform List<scalar> 4(1.60983e-05 1.60989e-05 1.60995e-05 1.60998e-05);
    }
    outlet
    {
        type            calculated;
        value           nonuniform List<scalar> 0();
    }
    walls
    {
        type            calculated;
        value           nonuniform List<scalar> 
42
(
0.00323673
0.0034631
0.0036994
0.00388699
0.00406281
0.00421742
0.00433784
0.00443033
0.00449735
0.00453703
0.0045567
0.00455485
0.00452613
0.00447275
0.00439047
0.00427722
0.00412653
0.003932
0.00368018
0.00335979
0.00295411
0.00246302
0.00193341
0.00153471
0.00137118
0.001443
0.00160061
0.00176401
0.00189682
0.00198464
0.00203185
0.00204863
0.00203054
0.00198054
0.00189593
0.00299652
0.0027247
0.00242594
0.00205628
0.00165431
0.00121922
0.000780578
)
;
    }
    frontAndBack
    {
        type            empty;
    }
    procBoundary5to0
    {
        type            processor;
        value           nonuniform List<scalar> 4(1.61046e-05 1.61041e-05 1.61029e-05 1.61022e-05);
    }
    procBoundary5to1
    {
        type            processor;
        value           nonuniform List<scalar> 
13
(
1.69663e-05
1.59104e-05
1.59104e-05
1.61415e-05
1.61001e-05
1.61001e-05
1.61091e-05
1.61062e-05
1.61062e-05
1.61054e-05
1.61043e-05
1.6102e-05
1.6102e-05
)
;
    }
    procBoundary5to4
    {
        type            processor;
        value           nonuniform List<scalar> 
95
(
1.61046e-05
1.61047e-05
1.61044e-05
1.61044e-05
1.61036e-05
1.61032e-05
1.61032e-05
1.61025e-05
1.61022e-05
1.61022e-05
1.61017e-05
1.61017e-05
1.61013e-05
1.61013e-05
1.61012e-05
1.61011e-05
1.61011e-05
1.61012e-05
1.61012e-05
1.61013e-05
1.61015e-05
1.61015e-05
1.61015e-05
1.61017e-05
1.61017e-05
1.61018e-05
1.6102e-05
1.6102e-05
1.61021e-05
1.61022e-05
1.61025e-05
1.61025e-05
1.61026e-05
1.61027e-05
1.6103e-05
1.6103e-05
1.61031e-05
1.61032e-05
1.61035e-05
1.61035e-05
1.61036e-05
1.61037e-05
1.6104e-05
1.6104e-05
1.61042e-05
1.61043e-05
1.61044e-05
1.61045e-05
1.61048e-05
1.61048e-05
1.61049e-05
1.6105e-05
1.61051e-05
1.61051e-05
1.61054e-05
1.61054e-05
1.61054e-05
1.61053e-05
1.61051e-05
1.6105e-05
1.61051e-05
1.61051e-05
1.61048e-05
1.61044e-05
1.6104e-05
1.61034e-05
1.61027e-05
1.6102e-05
1.61016e-05
1.61016e-05
1.61006e-05
1.60995e-05
1.60982e-05
1.60966e-05
1.60947e-05
1.60925e-05
1.60901e-05
1.60881e-05
1.60881e-05
1.60857e-05
1.60831e-05
1.60806e-05
1.60783e-05
1.6076e-05
1.60737e-05
1.60717e-05
1.60706e-05
1.60721e-05
1.60747e-05
1.60747e-05
1.60778e-05
1.60809e-05
1.60843e-05
1.60861e-05
1.60977e-05
)
;
    }
    procBoundary5to6
    {
        type            processor;
        value           nonuniform List<scalar> 
86
(
0.0869724
0.153779
0.206144
0.215035
0.17456
0.0927016
0.021193
0.000802299
0.000184197
1e-05
1e-05
1.00098e-05
1.23677e-05
2.03928e-05
1.92143e-05
1.63934e-05
1.52669e-05
1.53252e-05
1.57584e-05
1.60827e-05
1.61944e-05
1.61832e-05
1.61444e-05
1.61186e-05
1.61091e-05
1.6108e-05
1.6109e-05
1.61096e-05
1.61096e-05
1.61094e-05
1.61092e-05
1.6109e-05
1.6109e-05
1.61082e-05
1.61082e-05
1.61083e-05
1.61084e-05
1.61085e-05
1.61087e-05
1.61089e-05
1.61091e-05
1.61093e-05
1.61095e-05
1.61097e-05
1.61099e-05
1.611e-05
1.61097e-05
1.61097e-05
1.61098e-05
1.61099e-05
1.611e-05
1.61099e-05
1.61098e-05
1.61097e-05
1.61094e-05
1.61091e-05
1.6108e-05
1.6108e-05
1.61075e-05
1.61068e-05
1.6106e-05
1.6105e-05
1.61039e-05
1.61026e-05
1.61001e-05
1.61001e-05
1.60979e-05
1.60953e-05
1.60927e-05
1.609e-05
1.60874e-05
1.60849e-05
1.60817e-05
1.60817e-05
1.6079e-05
1.60762e-05
1.60735e-05
1.60712e-05
1.60714e-05
1.60742e-05
1.60776e-05
1.60817e-05
1.60849e-05
1.60849e-05
1.60905e-05
1.61001e-05
)
;
    }
}


// ************************************************************************* //
