/*--------------------------------*- C++ -*----------------------------------*\
| =========                 |                                                 |
| \\      /  F ield         | OpenFOAM: The Open Source CFD Toolbox           |
|  \\    /   O peration     | Version:  2306                                  |
|   \\  /    A nd           | Website:  www.openfoam.com                      |
|    \\/     M anipulation  |                                                 |
\*---------------------------------------------------------------------------*/
FoamFile
{
    version     2.0;
    format      ascii;
    arch        "LSB;label=32;scalar=64";
    class       volScalarField;
    location    "275";
    object      turbulenceProperties:k;
}
// * * * * * * * * * * * * * * * * * * * * * * * * * * * * * * * * * * * * * //

dimensions      [0 2 -2 0 0 0 0];

internalField   nonuniform List<scalar> 
1340
(
0.0199865
0.0232627
0.0274286
0.0330624
0.0396871
0.0480699
0.0587281
0.0718734
0.0885322
0.109789
0.137296
0.173689
0.222601
0.289985
0.385975
0.526503
0.742948
1.07658
1.66216
2.57421
4.62859
7.73807
18.114
35.3562
39.1866
37.4983
36.8556
37.5335
38.3678
38.5776
38.0663
36.9308
35.0968
32.5877
29.3483
0.0170462
0.0146551
0.0119609
0.00964357
0.00744782
0.00546246
0.00385458
0.0031079
0.0030907
0.00305535
0.00296721
0.00283077
0.0026739
0.00248875
0.0022805
0.00207436
0.0018722
0.00167943
0.00154546
0.00152638
0.00167456
0.00216544
0.00337237
0.00632903
0.0130826
0.0313754
0.076737
0.227256
0.627315
1.92729
6.17133
12.0642
18.1508
23.891
27.9668
28.7865
26.418
22.5169
18.5648
15.358
12.9004
11.0128
0.00307964
0.00303783
0.00295243
0.00282587
0.00265284
0.00242471
0.00208412
0.00206768
0.00202107
0.0019498
0.00187527
0.00179337
0.00171058
0.00163614
0.00157212
0.00152246
0.00148404
0.00146201
0.00145603
0.00146858
0.00147314
0.00142761
0.0012135
0.00102758
1.85826e-05
0.00145295
0.000329021
0.00124548
4.50324e-05
0.0167776
0.183242
0.650459
1.64661
3.71581
7.32364
12.0894
16.4056
18.5346
18.126
16.2783
14.1235
0.00210036
0.00209778
0.00209222
0.00205498
0.00198892
0.00187801
0.00175917
0.0017628
0.00175395
0.00173934
0.00170921
0.00166435
0.00160843
0.00153862
0.00145883
0.00137058
0.00127575
0.00117566
0.00107127
0.000964518
0.000856307
0.000742608
0.000628464
0.000530968
0.000406715
0.000292783
6.87032e-05
0.000124952
1.58916e-05
0.00427033
0.0216702
0.0448677
0.0252169
0.0120465
0.0378357
0.363558
1.58407
4.31465
8.09423
11.245
12.6089
0.00174029
0.00171171
0.00166683
0.00161278
0.00154501
0.00131974
0.00131741
0.00130712
0.00128878
0.00126039
0.00122191
0.00117539
0.00112156
0.00106216
0.00100083
0.00093955
0.000880773
0.00082713
0.000780244
0.00074126
0.000708469
0.000673965
0.000630221
0.000580669
0.000507396
0.000424169
0.000195675
2.3868e-05
4.81273e-06
0
0
0.00909423
0.0112853
0.0243429
0.0775979
0.0157542
0.0535913
0.327252
1.92911
4.9698
0.00131633
0.00130702
0.00128848
0.0012588
0.00121695
0.00108177
0.00108638
0.00108594
0.00108206
0.00107143
0.00105421
0.00103113
0.0010013
0.000965331
0.000924189
0.000878235
0.00082855
0.000776311
0.000722443
0.000667905
0.000611369
0.000549767
0.000486554
0.000426951
0.0003753
0.000341273
0.000290294
0.000236236
6.19299e-05
1.06924e-05
5.00452e-06
1.7527e-06
0
0
0
0.00369628
0.0367939
0.00583798
0.089529
0.192699
0.00107197
0.00105842
0.00103871
0.00101271
0.000875082
0.000878925
0.000879538
0.000877312
0.000870322
0.000858221
0.000841296
0.000819051
0.000791681
0.000759941
0.000724375
0.000685873
0.000645622
0.000604767
0.000564264
0.000525465
0.00049029
0.000457529
0.000424049
0.000388716
0.000355507
0.000328365
0.000308534
0.00025601
0.000167834
8.85692e-05
2.63254e-05
5.90583e-06
3.294e-06
4.33028e-07
0
0
0.000713267
0.0280012
0.0201778
0.000867898
0.000858167
0.000844012
0.000824521
0.000725297
0.000730248
0.000733188
0.000734372
0.000732361
0.000726867
0.000718111
0.000705447
0.000688874
0.000668745
0.00064503
0.00061819
0.000588752
0.000557198
0.000524091
0.000490108
0.000454819
0.000417315
0.000379353
0.000343338
0.000311325
0.000286284
0.000268897
0.000256514
0.000231833
0.000194153
0.000148957
9.9876e-05
6.0056e-05
6.84108e-06
3.11202e-06
1.46113e-07
0
0
0.00304691
0.000717858
0.000708892
0.000696874
0.000680925
0.000605026
0.000609794
0.000613268
0.000615437
0.000615357
0.000612716
0.000607575
0.000599366
0.000588018
0.000573635
0.00055617
0.000535871
0.000513096
0.000488212
0.000461759
0.000434161
0.00040605
0.000378517
0.00035166
0.000325456
0.000300285
0.000277277
0.000257409
0.000240437
0.000222245
0.000199629
0.000175524
0.000151555
0.000127942
9.29956e-05
6.05143e-05
2.93774e-06
1.7072e-06
0
0
0.000598491
0.000590926
0.00058115
0.000523048
0.000522684
0.000520504
0.000516024
0.000509172
0.00049994
0.00048818
0.000474006
0.000457586
0.000439104
0.00041885
0.000397119
0.00037436
0.000350536
0.000325809
0.000301248
0.000278134
0.000257404
0.00023927
0.000222337
0.000204145
0.000183408
0.000162182
0.000143614
0.000129202
0.000117455
0.000105784
7.74737e-05
3.38915e-05
3.11588e-06
0
0.000447145
0.000444895
0.000440768
0.000434737
0.000426617
0.000416438
0.000404258
0.000390158
0.000374344
0.000357051
0.000338541
0.000319232
0.000299563
0.000279923
0.000260942
0.000243112
0.000226623
0.000210626
0.000193332
0.000173784
0.000153324
0.000134843
0.000120043
0.000109281
0.000101263
9.6637e-05
8.46805e-05
5.37164e-05
3.17412e-06
0.000383538
0.000379918
0.000374618
0.00036762
0.000358917
0.00034853
0.000336558
0.00032314
0.000308478
0.000292873
0.000276437
0.000259531
0.000242903
0.000227119
0.000212307
0.000197826
0.000182317
0.000164953
0.000146602
0.000129395
0.000114839
0.00010316
9.36158e-05
8.75108e-05
8.41219e-05
8.25621e-05
5.09905e-05
0.000332621
0.000329281
0.000324545
0.000318368
0.000310715
0.000301644
0.000291236
0.000279608
0.000267019
0.000253662
0.000239791
0.00022586
0.000212286
0.00019916
0.000186067
0.000172088
0.000156621
0.000140296
0.000124748
0.000111253
9.99326e-05
9.02468e-05
8.22246e-05
7.65125e-05
7.44283e-05
7.90361e-05
0.000290105
0.000287051
0.000282807
0.00027732
0.000270594
0.000262663
0.00025359
0.000243574
0.000232742
0.000221245
0.000209421
0.000197688
0.000186128
0.00017445
0.000161993
0.000148301
0.000133836
0.000119882
0.000107557
9.70356e-05
8.79457e-05
8.0009e-05
7.33731e-05
6.83048e-05
6.74715e-05
0.00025601
0.000254193
0.000251384
0.000247528
0.000242596
0.000236605
0.000229591
0.000221661
0.00021296
0.000203585
0.000193718
0.000183719
0.00017366
0.000163338
0.000152304
0.000140222
0.000127424
0.000114917
0.000103664
9.39232e-05
8.54571e-05
7.80846e-05
7.16465e-05
6.6763e-05
6.01716e-05
0.0002254
0.00022366
0.000221042
0.000217527
0.000213089
0.000207744
0.000201541
0.000194619
0.000187011
0.000178816
0.000170332
0.00016164
0.000152608
0.00014291
0.000132307
0.00012104
0.000109887
9.96589e-05
9.06615e-05
8.27633e-05
7.58871e-05
6.98386e-05
6.53508e-05
5.95412e-05
0.000199149
0.000197478
0.000195047
0.000191826
0.000187808
0.000183014
0.000177552
0.000171438
0.000164712
0.000157584
0.000150147
0.000142318
0.000133863
0.000124605
0.000114728
0.000104831
9.55873e-05
8.73158e-05
7.99715e-05
7.35174e-05
6.788e-05
6.33195e-05
5.97953e-05
0.000177479
0.000176509
0.000174906
0.000172633
0.000169677
0.000166029
0.000161767
0.0001569
0.000151433
0.000145489
0.000139181
0.000132459
0.000125146
0.000117113
0.000108498
9.97628e-05
9.14595e-05
8.39011e-05
7.71114e-05
7.10662e-05
6.58142e-05
6.12284e-05
5.85966e-05
0.000157828
0.000156857
0.000155321
0.000153201
0.000150482
0.000147197
0.000143366
0.000138968
0.000134058
0.00012876
0.000123044
0.00011677
0.000109842
0.000102366
9.46968e-05
8.72848e-05
8.0422e-05
7.41807e-05
6.85576e-05
6.36414e-05
5.92712e-05
5.64373e-05
0.0001412
0.000140702
0.000139733
0.000138268
0.000136286
0.00013379
0.000130812
0.000127316
0.000123307
0.000118897
0.000114079
0.000108741
0.000102806
9.63545e-05
8.96595e-05
8.30831e-05
7.68913e-05
7.11844e-05
6.59899e-05
6.13793e-05
5.73351e-05
5.41371e-05
0.000126225
0.000125688
0.00012473
0.00012333
0.000121478
0.000119206
0.000116463
0.000113229
0.000109596
0.000105573
0.00010107
9.60207e-05
9.04855e-05
8.46736e-05
7.88747e-05
7.33241e-05
6.81356e-05
6.33639e-05
5.90552e-05
5.5314e-05
5.19975e-05
0.000113259
0.000113044
0.000112479
0.000111541
0.000110207
0.000108503
0.00010638
0.000103805
0.000100846
9.75184e-05
9.37551e-05
8.94931e-05
8.47744e-05
7.97598e-05
7.46793e-05
6.97353e-05
6.5047e-05
6.06852e-05
5.66874e-05
5.31964e-05
4.9981e-05
0.00010167
0.000101402
0.00010082
9.98981e-05
9.86501e-05
9.70385e-05
9.50216e-05
9.26408e-05
8.99184e-05
8.68023e-05
8.32328e-05
7.92368e-05
7.49378e-05
7.05154e-05
6.61414e-05
6.1931e-05
5.79631e-05
5.42781e-05
5.10073e-05
4.79825e-05
9.14347e-05
9.13914e-05
9.10832e-05
9.04868e-05
8.96057e-05
8.84105e-05
8.68617e-05
8.49714e-05
8.27703e-05
8.02138e-05
7.72482e-05
7.38882e-05
7.0227e-05
6.64024e-05
6.25587e-05
5.88015e-05
5.5212e-05
5.18335e-05
4.87752e-05
4.59439e-05
8.22285e-05
8.235e-05
8.22502e-05
8.19083e-05
8.1317e-05
8.04607e-05
7.92951e-05
7.78159e-05
7.60571e-05
7.39846e-05
7.15446e-05
6.87417e-05
6.5645e-05
6.23602e-05
5.9004e-05
5.56727e-05
5.24434e-05
4.93613e-05
4.65171e-05
4.38602e-05
7.41869e-05
7.42434e-05
7.40965e-05
7.37336e-05
7.31475e-05
7.22975e-05
7.11623e-05
6.97789e-05
6.81174e-05
6.61276e-05
6.38068e-05
6.12056e-05
5.84045e-05
5.54942e-05
5.25588e-05
4.96698e-05
4.68728e-05
4.42387e-05
4.17458e-05
6.68201e-05
6.69909e-05
6.69911e-05
6.68072e-05
6.64349e-05
6.58382e-05
6.49896e-05
6.39189e-05
6.26042e-05
6.09984e-05
5.90935e-05
5.69249e-05
5.45519e-05
5.20458e-05
4.94755e-05
4.69048e-05
4.43786e-05
4.19538e-05
3.96162e-05
6.01735e-05
6.0424e-05
6.05343e-05
6.04883e-05
6.02844e-05
5.98887e-05
5.92743e-05
5.84616e-05
5.74368e-05
5.61568e-05
5.46076e-05
5.28138e-05
5.08178e-05
4.86733e-05
4.64374e-05
4.41638e-05
4.18903e-05
3.96703e-05
3.7487e-05
5.44842e-05
5.46735e-05
5.47313e-05
5.46559e-05
5.44192e-05
5.39929e-05
5.3394e-05
5.26087e-05
5.15998e-05
5.0352e-05
4.88805e-05
4.7214e-05
4.53914e-05
4.34576e-05
4.14578e-05
3.94241e-05
3.73972e-05
3.53694e-05
4.91131e-05
4.93572e-05
4.94909e-05
4.95129e-05
4.93994e-05
4.91238e-05
4.86969e-05
4.81082e-05
4.73251e-05
4.63311e-05
4.51336e-05
4.37518e-05
4.22131e-05
4.05508e-05
3.88003e-05
3.69894e-05
3.5149e-05
3.3272e-05
4.42582e-05
4.45372e-05
4.4725e-05
4.4819e-05
4.47997e-05
4.46431e-05
4.43539e-05
4.39241e-05
4.33263e-05
4.25439e-05
4.15779e-05
4.04405e-05
3.91495e-05
3.77286e-05
3.62051e-05
3.45991e-05
3.29353e-05
3.12058e-05
4.01707e-05
4.03955e-05
4.05409e-05
4.05919e-05
4.05263e-05
4.03456e-05
4.00432e-05
3.95962e-05
3.8988e-05
3.82165e-05
3.72871e-05
3.62105e-05
3.50025e-05
3.36823e-05
3.22653e-05
3.0767e-05
2.91812e-05
3.62186e-05
3.64655e-05
3.66454e-05
3.67473e-05
3.67511e-05
3.66541e-05
3.64524e-05
3.61261e-05
3.56605e-05
3.50502e-05
3.42963e-05
3.34039e-05
3.23822e-05
3.12436e-05
2.99978e-05
2.86551e-05
2.72072e-05
3.26412e-05
3.28996e-05
3.31017e-05
3.32391e-05
3.32937e-05
3.32603e-05
3.31371e-05
3.29076e-05
3.2557e-05
3.20789e-05
3.14717e-05
3.0736e-05
2.98757e-05
2.88977e-05
2.7807e-05
2.66084e-05
2.9668e-05
2.98819e-05
3.00422e-05
3.01326e-05
3.01468e-05
3.00836e-05
2.99292e-05
2.96704e-05
2.93001e-05
2.88144e-05
2.82111e-05
2.74897e-05
2.66526e-05
2.57012e-05
2.46355e-05
2.67404e-05
2.69586e-05
2.71321e-05
2.72468e-05
2.7295e-05
2.72765e-05
2.718e-05
2.69939e-05
2.67106e-05
2.63248e-05
2.58319e-05
2.52291e-05
2.4515e-05
2.36877e-05
2.27438e-05
2.40903e-05
2.4307e-05
2.44862e-05
2.46153e-05
2.46874e-05
2.47016e-05
2.46488e-05
2.45191e-05
2.43051e-05
2.40005e-05
2.35994e-05
2.3097e-05
2.24895e-05
2.17722e-05
2.09393e-05
2.16931e-05
2.19045e-05
2.20834e-05
2.22197e-05
2.23068e-05
2.23438e-05
2.23234e-05
2.2237e-05
2.20775e-05
2.18384e-05
2.1513e-05
2.10952e-05
2.05793e-05
1.9959e-05
1.92267e-05
1.9526e-05
1.97285e-05
1.9903e-05
2.00412e-05
2.01369e-05
2.01891e-05
2.0192e-05
2.01381e-05
2.00211e-05
1.98343e-05
1.95708e-05
1.92238e-05
1.87864e-05
1.82511e-05
1.76093e-05
1.77595e-05
1.7927e-05
1.80631e-05
1.81625e-05
1.82237e-05
1.82424e-05
1.82125e-05
1.81282e-05
1.79828e-05
1.77696e-05
1.74815e-05
1.7111e-05
1.66499e-05
1.6089e-05
1.59797e-05
1.61379e-05
1.6269e-05
1.63678e-05
1.64336e-05
1.64629e-05
1.64503e-05
1.63906e-05
1.62778e-05
1.61053e-05
1.58659e-05
1.5552e-05
1.51555e-05
1.46667e-05
1.43716e-05
1.45194e-05
1.46435e-05
1.47394e-05
1.48065e-05
1.48419e-05
1.48412e-05
1.47998e-05
1.47124e-05
1.45725e-05
1.43733e-05
1.41074e-05
1.37667e-05
1.33419e-05
1.29202e-05
1.30569e-05
1.31727e-05
1.32638e-05
1.33295e-05
1.33678e-05
1.33751e-05
1.33472e-05
1.32792e-05
1.31655e-05
1.29993e-05
1.27739e-05
1.24815e-05
1.2113e-05
1.16111e-05
1.17364e-05
1.18433e-05
1.19283e-05
1.19911e-05
1.20301e-05
1.20422e-05
1.20239e-05
1.19708e-05
1.18778e-05
1.17389e-05
1.15476e-05
1.12966e-05
1.09777e-05
1.05453e-05
1.06429e-05
1.07213e-05
1.078e-05
1.08179e-05
1.08326e-05
1.0821e-05
1.07793e-05
1.07029e-05
1.05862e-05
1.04236e-05
1.02082e-05
9.93263e-06
9.4718e-06
9.56031e-06
9.63171e-06
9.68562e-06
9.72142e-06
9.73713e-06
9.73009e-06
9.69695e-06
9.63355e-06
9.53517e-06
9.39665e-06
9.21189e-06
8.50531e-06
8.58487e-06
8.64918e-06
8.6981e-06
8.73114e-06
8.74671e-06
8.74258e-06
8.71582e-06
8.66282e-06
8.5795e-06
8.4612e-06
8.30258e-06
7.63564e-06
7.70678e-06
7.76427e-06
7.80809e-06
7.83798e-06
7.85271e-06
7.85036e-06
7.82835e-06
7.78363e-06
7.71269e-06
7.61143e-06
7.47517e-06
6.85382e-06
6.91711e-06
6.96812e-06
7.00693e-06
7.03355e-06
7.04695e-06
7.04552e-06
7.02708e-06
6.989e-06
6.92827e-06
6.84138e-06
6.72424e-06
6.20748e-06
6.25246e-06
6.28657e-06
6.30992e-06
6.32173e-06
6.32067e-06
6.30491e-06
6.27219e-06
6.2199e-06
6.14512e-06
6.04434e-06
5.5703e-06
5.60974e-06
5.63946e-06
5.65969e-06
5.66986e-06
5.66885e-06
5.65508e-06
5.62667e-06
5.58144e-06
5.51686e-06
5.43002e-06
4.99864e-06
5.03301e-06
5.05872e-06
5.07605e-06
5.08459e-06
5.08338e-06
5.07111e-06
5.04624e-06
5.0069e-06
4.951e-06
4.87605e-06
4.48608e-06
4.51589e-06
4.53795e-06
4.55262e-06
4.55959e-06
4.55807e-06
4.54698e-06
4.52501e-06
4.49065e-06
4.44212e-06
4.37732e-06
4.02675e-06
4.05246e-06
4.07128e-06
4.08357e-06
4.0891e-06
4.08724e-06
4.07707e-06
4.05752e-06
4.02735e-06
3.98507e-06
3.92895e-06
3.61535e-06
3.63746e-06
3.65342e-06
3.66358e-06
3.66778e-06
3.66555e-06
3.65614e-06
3.63863e-06
3.61202e-06
3.57506e-06
3.24707e-06
3.26602e-06
3.27944e-06
3.28773e-06
3.29079e-06
3.28821e-06
3.2794e-06
3.26363e-06
3.24003e-06
3.20763e-06
2.93378e-06
2.94499e-06
2.95165e-06
2.95371e-06
2.95082e-06
2.9425e-06
2.92819e-06
2.90717e-06
2.87866e-06
2.63678e-06
2.64607e-06
2.6513e-06
2.65248e-06
2.64933e-06
2.64145e-06
2.62839e-06
2.60957e-06
2.58436e-06
2.37117e-06
2.37882e-06
2.38285e-06
2.3833e-06
2.37995e-06
2.37248e-06
2.36052e-06
2.34361e-06
2.32124e-06
2.13318e-06
2.13944e-06
2.14248e-06
2.14235e-06
2.13889e-06
2.13184e-06
2.1209e-06
2.10571e-06
2.08585e-06
1.91914e-06
1.92422e-06
1.92646e-06
1.92591e-06
1.92245e-06
1.91587e-06
1.90593e-06
1.89233e-06
1.87476e-06
1.72612e-06
1.73018e-06
1.73174e-06
1.73088e-06
1.72747e-06
1.72137e-06
1.71237e-06
1.70025e-06
1.55245e-06
1.55563e-06
1.55659e-06
1.5554e-06
1.552e-06
1.54627e-06
1.53806e-06
1.5272e-06
1.3971e-06
1.39947e-06
1.39985e-06
1.39832e-06
1.39484e-06
1.38933e-06
1.38169e-06
1.3718e-06
1.26073e-06
1.26056e-06
1.25867e-06
1.25505e-06
1.24964e-06
1.24235e-06
1.23316e-06
1.13723e-06
1.13657e-06
1.13432e-06
1.13052e-06
1.12511e-06
1.11802e-06
1.10932e-06
1.02851e-06
1.02774e-06
1.02553e-06
1.0221e-06
1.01704e-06
1.0104e-06
1.00264e-06
9.42697e-07
9.41679e-07
9.39257e-07
9.36019e-07
9.3103e-07
9.24409e-07
9.17421e-07
8.73192e-07
8.71774e-07
8.6882e-07
8.65148e-07
8.59646e-07
8.52325e-07
8.0763e-07
8.06465e-07
8.03747e-07
8.0028e-07
7.95063e-07
7.87924e-07
7.43238e-07
7.4155e-07
7.38255e-07
7.34184e-07
7.28633e-07
7.20891e-07
6.83497e-07
6.82604e-07
6.80195e-07
6.76843e-07
6.72257e-07
6.65963e-07
6.18837e-07
6.1575e-07
6.11106e-07
6.05852e-07
5.99774e-07
5.90502e-07
5.77295e-07
5.77539e-07
5.76244e-07
5.73042e-07
5.6932e-07
5.6589e-07
4.90592e-07
4.84008e-07
4.78517e-07
4.71988e-07
4.57803e-07
5.19635e-07
5.22512e-07
5.19405e-07
5.18505e-07
5.28152e-07
4.08933e-07
4.09799e-07
4.15932e-07
4.13407e-07
3.97139e-07
6.20393e-07
6.37723e-07
6.36081e-07
6.43546e-07
6.7741e-07
6.94673e-07
7.15057e-07
7.44241e-07
9.92012e-07
1.04991e-06
1.01229e-06
9.61046e-07
)
;

boundaryField
{
    inlet
    {
        type            calculated;
        value           nonuniform List<scalar> 4(4.38165e-06 4.6624e-06 4.7222e-06 4.77738e-06);
    }
    outlet
    {
        type            calculated;
        value           nonuniform List<scalar> 0();
    }
    walls
    {
        type            calculated;
        value           uniform 0;
    }
    frontAndBack
    {
        type            empty;
    }
    procBoundary5to0
    {
        type            processor;
        value           nonuniform List<scalar> 4(0.000510057 0.000504073 0.000497482 0.000489266);
    }
    procBoundary5to1
    {
        type            processor;
        value           nonuniform List<scalar> 
13
(
0.00288616
0.00215704
0.00215704
0.00172505
0.00145628
0.00145628
0.00115765
0.000979336
0.000979336
0.000799237
0.000660938
0.000568168
0.000568168
)
;
    }
    procBoundary5to4
    {
        type            processor;
        value           nonuniform List<scalar> 
95
(
0.000514731
0.000518629
0.000521645
0.000521645
0.000446789
0.000447665
0.000447665
0.000386346
0.000385661
0.000385661
0.000334604
0.000334604
0.000292013
0.000292013
0.000256905
0.00022633
0.00022633
0.000200095
0.000200095
0.000177852
0.000158279
0.000158279
0.000141265
0.000126374
0.000126374
0.00011315
0.000101646
0.000101646
9.12365e-05
8.19067e-05
7.3947e-05
7.3947e-05
6.64989e-05
5.97974e-05
5.41793e-05
5.41793e-05
4.87733e-05
4.39002e-05
3.98706e-05
3.98706e-05
3.59088e-05
3.23313e-05
2.94063e-05
2.94063e-05
2.64818e-05
2.38394e-05
2.14532e-05
1.92993e-05
1.75681e-05
1.75681e-05
1.58006e-05
1.42057e-05
1.27676e-05
1.14718e-05
1.04313e-05
1.04313e-05
9.36875e-06
8.41266e-06
7.55278e-06
6.78001e-06
6.15153e-06
6.15153e-06
5.52108e-06
4.95546e-06
4.44832e-06
3.99385e-06
3.58675e-06
3.22226e-06
2.9176e-06
2.9176e-06
2.62302e-06
2.35952e-06
2.12335e-06
1.91087e-06
1.71922e-06
1.54674e-06
1.39244e-06
1.25909e-06
1.25909e-06
1.13625e-06
1.02778e-06
9.422e-07
8.7299e-07
8.07224e-07
7.43295e-07
6.82898e-07
6.20548e-07
5.7525e-07
4.95899e-07
4.95899e-07
5.15452e-07
4.06355e-07
6.0505e-07
6.51736e-07
9.90081e-07
)
;
    }
    procBoundary5to6
    {
        type            processor;
        value           nonuniform List<scalar> 
86
(
25.4546
9.51607
12.0994
12.4319
8.07158
1.82881
0.125758
0.00786544
0.000838825
0
0
2.55002e-06
3.91229e-05
8.20569e-05
7.486e-05
6.01007e-05
5.27634e-05
5.14041e-05
5.17425e-05
5.13499e-05
4.98912e-05
4.78644e-05
4.57025e-05
4.35758e-05
4.1502e-05
3.94496e-05
3.74055e-05
3.53713e-05
3.33512e-05
3.13593e-05
2.94059e-05
2.74959e-05
2.56396e-05
2.52929e-05
2.52929e-05
2.34461e-05
2.16728e-05
1.99794e-05
1.83704e-05
1.68485e-05
1.5416e-05
1.40737e-05
1.28214e-05
1.16577e-05
1.05808e-05
9.5876e-06
8.97408e-06
8.97408e-06
8.09765e-06
7.2987e-06
6.57234e-06
5.91362e-06
5.31757e-06
4.77921e-06
4.29389e-06
3.85701e-06
3.52635e-06
3.52635e-06
3.16526e-06
2.84167e-06
2.55197e-06
2.29277e-06
2.0608e-06
1.85276e-06
1.68474e-06
1.68474e-06
1.51348e-06
1.3595e-06
1.22194e-06
1.0989e-06
9.93297e-07
9.09081e-07
8.45018e-07
8.45018e-07
7.80613e-07
7.13115e-07
6.58662e-07
5.82327e-07
5.57941e-07
4.51303e-07
5.17988e-07
4.03385e-07
6.96899e-07
6.96899e-07
7.47647e-07
1.26509e-06
)
;
    }
}


// ************************************************************************* //
