# p  FACE_DATA 300
# x y z  p
0.29787915 -0.05 0.060005454 17054.856
0.29366024 -0.05 0.059998184 17032.387
0.28948669 -0.05 0.059982824 17011.443
0.28535801 -0.05 0.05995956 16990.097
0.28127374 -0.05 0.05992843 16969.251
0.27723342 -0.05 0.059889544 16948.968
0.27323659 -0.05 0.059843055 16930.59
0.2692828 -0.05 0.059789027 16914.086
0.26537161 -0.05 0.059727601 16899.052
0.26150257 -0.05 0.05965892 16885.81
0.25767524 -0.05 0.059583046 16874.529
0.2538892 -0.05 0.059500074 16865.09
0.25014401 -0.05 0.059410118 16857.545
0.24643926 -0.05 0.059313284 16851.694
0.24277452 -0.05 0.059209674 16847.337
0.23914938 -0.05 0.059099387 16844.273
0.23556344 -0.05 0.058982537 16842.321
0.23201627 -0.05 0.058859254 16841.407
0.2285075 -0.05 0.058729541 16841.622
0.22503671 -0.05 0.058593532 16841.934
0.22160352 -0.05 0.058451379 16843.768
0.21820754 -0.05 0.058303115 16846.628
0.21484838 -0.05 0.058148846 16850.593
0.21152567 -0.05 0.05798866 16855.544
0.20823903 -0.05 0.057822651 16861.728
0.20498809 -0.05 0.057650874 16869.359
0.20177248 -0.05 0.057473468 16877.802
0.19859184 -0.05 0.057290478 16888.305
0.1954458 -0.05 0.057101994 16899.119
0.19233402 -0.05 0.056908168 16911.372
0.18925614 -0.05 0.056708999 16925.019
0.18621181 -0.05 0.056504563 16939.81
0.1832007 -0.05 0.056294919 16955.709
0.18022246 -0.05 0.05608023 16971.667
0.17727675 -0.05 0.055860526 16989.493
0.17436324 -0.05 0.055635849 17007.176
0.1714816 -0.05 0.055406376 17025.756
0.16863151 -0.05 0.055172052 17046.007
0.16581265 -0.05 0.054932944 17066.335
0.16302469 -0.05 0.054689208 17087.203
0.16026733 -0.05 0.054440898 17108.656
0.15754024 -0.05 0.054188056 17131.03
0.15484313 -0.05 0.053930725 17154.199
0.15217569 -0.05 0.053668978 17178.11
0.14953762 -0.05 0.053402889 17202.85
0.14692863 -0.05 0.053132457 17228.717
0.14434842 -0.05 0.052857799 17254.143
0.14179669 -0.05 0.052579044 17280.682
0.13927317 -0.05 0.05229612 17308.993
0.13677757 -0.05 0.052009061 17337.83
0.13430961 -0.05 0.051717985 17367.119
0.13186901 -0.05 0.051422994 17396.805
0.1294555 -0.05 0.05112408 17428.469
0.12706881 -0.05 0.050821224 17460.99
0.12470868 -0.05 0.050514504 17493.455
0.12237483 -0.05 0.05020403 17525.033
0.12006701 -0.05 0.049889836 17557.84
0.11778495 -0.05 0.049571874 17592.07
0.11552842 -0.05 0.049250263 17626.788
0.11329715 -0.05 0.048924992 17663.372
0.1110909 -0.05 0.048596121 17699.571
0.10890943 -0.05 0.048263656 17738.291
0.10675251 -0.05 0.047927554 17776.908
0.10461987 -0.05 0.047587958 17815.93
0.1025113 -0.05 0.047244937 17855.175
0.10042655 -0.05 0.046898432 17896.344
0.098365405 -0.05 0.046548446 17937.546
0.096327639 -0.05 0.046195043 17979.91
0.094313028 -0.05 0.045838237 18022.621
0.092321357 -0.05 0.045478019 18066.91
0.090352417 -0.05 0.04511438 18111.349
0.088405979 -0.05 0.044747421 18156.269
0.086481845 -0.05 0.044377096 18202.809
0.084579815 -0.05 0.044003384 18249.566
0.082699669 -0.05 0.043626385 18296.975
0.080841229 -0.05 0.043246005 18346.43
0.0790043 -0.05 0.042862236 18395.368
0.077188666 -0.05 0.0424752 18444.873
0.07539416 -0.05 0.04208479 18496.172
0.073620599 -0.05 0.041690997 18547.151
0.071867788 -0.05 0.041293877 18599.286
0.070135557 -0.05 0.040893384 18653.1
0.068423743 -0.05 0.040489458 18709.382
0.066732169 -0.05 0.040082112 18766.073
0.065060663 -0.05 0.039671361 18824.095
0.063409062 -0.05 0.039257174 18882.714
0.061777219 -0.05 0.038839488 18943.489
0.060164984 -0.05 0.038418265 19004.792
0.058572196 -0.05 0.037993513 19067.734
0.056998721 -0.05 0.037565159 19132.312
0.055444419 -0.05 0.03713316 19199.201
0.053909142 -0.05 0.036697516 19268.066
0.052392764 -0.05 0.03625817 19338.682
0.050895177 -0.05 0.035815009 19408.011
0.049416244 -0.05 0.035368033 19475.776
0.047955856 -0.05 0.034917167 19546.041
0.046513915 -0.05 0.034462309 19619.105
0.045090302 -0.05 0.034003445 19695.276
0.043684931 -0.05 0.033540468 19774.879
0.042297731 -0.05 0.03307324 19856.862
0.040928604 -0.05 0.032601734 19940.062
0.039577476 -0.05 0.032125845 20025.668
0.038244291 -0.05 0.03164545 20112.397
0.036928981 -0.05 0.031160474 20201.664
0.0356315 -0.05 0.030670795 20295.149
0.03435181 -0.05 0.030176299 20395.15
0.033089918 -0.05 0.029676761 20501.83
0.031845783 -0.05 0.029172106 20613.633
0.030619394 -0.05 0.02866221 20735.992
0.029410776 -0.05 0.028146878 20865.119
0.028219949 -0.05 0.027625962 20999.729
0.027046957 -0.05 0.027099267 21139.337
0.025891857 -0.05 0.026566614 21286.193
0.02475474 -0.05 0.026027768 21437.933
0.023635681 -0.05 0.025482558 21593.483
0.022534817 -0.05 0.024930717 21755.259
0.021452274 -0.05 0.024372036 21925.449
0.020388213 -0.05 0.023806274 22107.612
0.019342865 -0.05 0.023233111 22299.845
0.018316468 -0.05 0.022652259 22500.995
0.017309264 -0.05 0.02206346 22711.461
0.016321577 -0.05 0.021466368 22932.912
0.015353757 -0.05 0.020860645 23163.226
0.014406156 -0.05 0.020245997 23404.62
0.013479274 -0.05 0.019622013 23660.309
0.012573638 -0.05 0.018988323 23934.013
0.0116898 -0.05 0.018344552 24229.49
0.010828378 -0.05 0.017690314 24545.422
0.0099901249 -0.05 0.017025149 24883.087
0.0091759198 -0.05 0.016348644 25238.454
0.008386597 -0.05 0.0156605 25611.534
0.0076231725 -0.05 0.014960218 26009.299
0.0068867853 -0.05 0.014247452 26434.628
0.0061787359 -0.05 0.013521944 26888.491
0.0055003792 -0.05 0.012783302 27367.893
0.0048530826 -0.05 0.012031363 27871.561
0.0042385571 -0.05 0.011266143 28401.46
0.0036585397 -0.05 0.010487553 28956.587
0.0031148319 -0.05 0.0096957287 29533.175
0.0026094399 -0.05 0.0088912322 30128.62
0.0021442246 -0.05 0.0080745628 30742.875
0.0017210465 -0.05 0.0072465895 31365.589
0.0013418093 -0.05 0.0064087151 31985.164
0.0010080919 -0.05 0.0055623679 32590.49
0.00072127228 -0.05 0.0047092571 33171.937
0.00048251081 -0.05 0.0038515496 33721.395
0.00029236329 -0.05 0.0029916287 34227.356
0.0001508317 -0.05 0.0021320102 34676.646
5.7495879e-05 -0.05 0.0012752716 35057.513
1.1394864e-05 -0.05 0.00042397109 35361.574
0.99768066 -0.05 0.00033611804 26726.49
0.99304169 -0.05 0.0010063364 26661.041
0.98840215 -0.05 0.0016726212 26574.497
0.98376207 -0.05 0.0023350721 26494.883
0.97912143 -0.05 0.0029936636 26413.814
0.97448026 -0.05 0.00364841 26333.863
0.96983855 -0.05 0.0042993733 26254.353
0.96519632 -0.05 0.0049465845 26175.299
0.96055356 -0.05 0.0055900577 26096.935
0.95591031 -0.05 0.0062298653 26019.026
0.95126654 -0.05 0.0068660327 25941.97
0.94662227 -0.05 0.0074985225 25865.471
0.94197753 -0.05 0.0081274235 25789.737
0.9373323 -0.05 0.008752761 25714.674
0.93268659 -0.05 0.0093745713 25640.391
0.92804042 -0.05 0.0099928964 25566.782
0.92339378 -0.05 0.010607714 25494.01
0.91874669 -0.05 0.011219031 25421.932
0.91409914 -0.05 0.011826962 25350.566
0.90945116 -0.05 0.012431486 25280.013
0.90480273 -0.05 0.013032571 25210.112
0.90015387 -0.05 0.013630361 25140.803
0.89550457 -0.05 0.014224739 25072.432
0.89085486 -0.05 0.014815813 25004.386
0.88620473 -0.05 0.01540363 24937.268
0.88155418 -0.05 0.0159881 24870.643
0.87690323 -0.05 0.016569356 24804.606
0.87225187 -0.05 0.017147383 24739.073
0.86760011 -0.05 0.017722168 24674.096
0.86294796 -0.05 0.018293719 24609.604
0.85829541 -0.05 0.018862095 24545.548
0.85364248 -0.05 0.019427289 24481.959
0.84898916 -0.05 0.01998931 24418.685
0.84433547 -0.05 0.020548224 24355.765
0.83968139 -0.05 0.021103928 24293.417
0.83502695 -0.05 0.021656533 24231.047
0.83037214 -0.05 0.022206072 24169.196
0.82571697 -0.05 0.022752481 24107.468
0.82106143 -0.05 0.023295768 24046.178
0.81640552 -0.05 0.023835961 23984.807
0.81174928 -0.05 0.024373126 23923.637
0.80709266 -0.05 0.024907211 23862.478
0.80243571 -0.05 0.025438235 23801.377
0.7977784 -0.05 0.025966147 23740.337
0.79312074 -0.05 0.026490982 23679.188
0.78846275 -0.05 0.027012845 23617.938
0.78380442 -0.05 0.027531686 23556.787
0.77914574 -0.05 0.028047403 23495.811
0.77448674 -0.05 0.028560079 23434.479
0.7698274 -0.05 0.029069753 23373.221
0.76516772 -0.05 0.02957633 23311.888
0.7605077 -0.05 0.030079852 23250.333
0.75584737 -0.05 0.030580367 23188.396
0.75118671 -0.05 0.03107785 23126.223
0.74652573 -0.05 0.031572241 23063.8
0.74186441 -0.05 0.032063551 23001.004
0.73720278 -0.05 0.032551782 22937.72
0.73254082 -0.05 0.03303698 22873.729
0.72787854 -0.05 0.033519069 22809.339
0.72321595 -0.05 0.033998064 22743.967
0.71855304 -0.05 0.034473962 22678.101
0.71388981 -0.05 0.03494667 22611.346
0.70922626 -0.05 0.035416302 22543.488
0.7045624 -0.05 0.035882849 22474.628
0.69989823 -0.05 0.036346252 22404.555
0.69523375 -0.05 0.036806454 22333.47
0.69056894 -0.05 0.037263403 22261.181
0.68590382 -0.05 0.037717206 22187.19
0.68123839 -0.05 0.038167801 22111.42
0.67657265 -0.05 0.038615123 22032.835
0.67190661 -0.05 0.039059237 21950.634
0.66724025 -0.05 0.039500049 21863.603
0.66257357 -0.05 0.039937521 21768.868
0.6579066 -0.05 0.040371712 21664.448
0.65323931 -0.05 0.040802591 21547.706
0.64857171 -0.05 0.041230085 21416.624
0.6439038 -0.05 0.041654149 21267.482
0.63923558 -0.05 0.042074786 21099.661
0.63456705 -0.05 0.042492 20912.434
0.62989822 -0.05 0.042905734 20708.275
0.62522907 -0.05 0.043315943 20488.958
0.6205596 -0.05 0.043722625 20259.735
0.61588983 -0.05 0.044125719 20027.302
0.61121975 -0.05 0.044525219 19798.454
0.60654937 -0.05 0.044921074 19581.174
0.60187867 -0.05 0.045313219 19379.146
0.59720766 -0.05 0.045701683 19196.944
0.59253634 -0.05 0.046086399 19035.154
0.58786471 -0.05 0.046467288 18896.406
0.58319277 -0.05 0.046844345 18777.34
0.57852051 -0.05 0.047217535 18677.258
0.57384795 -0.05 0.047586814 18592.324
0.56917507 -0.05 0.047952124 18522.317
0.56450189 -0.05 0.048313436 18463.11
0.55982839 -0.05 0.048670677 18413.797
0.55515457 -0.05 0.04902381 18371.1
0.55048045 -0.05 0.04937281 18335.191
0.54580601 -0.05 0.04971755 18303.789
0.54113126 -0.05 0.050058049 18275.832
0.5364562 -0.05 0.050394263 18250.429
0.53178083 -0.05 0.050726133 18227.116
0.52710515 -0.05 0.051053569 18205.654
0.52242915 -0.05 0.051376464 18185.409
0.51775284 -0.05 0.051694815 18165.675
0.51307623 -0.05 0.052008601 18146.463
0.5083993 -0.05 0.052317708 18127.714
0.50372205 -0.05 0.052622097 18108.918
0.4990445 -0.05 0.052921701 18090.4
0.49436664 -0.05 0.053216429 18071.794
0.48968848 -0.05 0.053506199 18053.347
0.48501001 -0.05 0.053790938 18034.611
0.48033122 -0.05 0.054070626 18015.684
0.47565213 -0.05 0.05434516 17996.733
0.47097274 -0.05 0.054614471 17977.446
0.46629305 -0.05 0.054878504 17958.091
0.46161306 -0.05 0.055137129 17938.779
0.45693276 -0.05 0.055390258 17919.258
0.45225217 -0.05 0.05563783 17899.457
0.44757129 -0.05 0.055879797 17879.134
0.44289011 -0.05 0.056116052 17858.751
0.43820865 -0.05 0.05634646 17838.208
0.43352689 -0.05 0.056570934 17817.497
0.42884485 -0.05 0.056789428 17796.276
0.42416254 -0.05 0.057001839 17775.065
0.41947995 -0.05 0.057208045 17753.435
0.41479707 -0.05 0.057407955 17731.606
0.41011393 -0.05 0.057601449 17709.287
0.40543053 -0.05 0.057788457 17686.51
0.40074687 -0.05 0.057968848 17663.615
0.39606296 -0.05 0.058142512 17640.283
0.3913788 -0.05 0.05830933 17616.752
0.38669439 -0.05 0.058469176 17592.608
0.38200975 -0.05 0.058621944 17568.062
0.37732488 -0.05 0.058767528 17542.966
0.37263978 -0.05 0.058905769 17517.77
0.36795448 -0.05 0.059036526 17491.732
0.36326896 -0.05 0.059159727 17464.902
0.35858325 -0.05 0.059275201 17437.326
0.35389736 -0.05 0.059382803 17408.64
0.34921128 -0.05 0.05948244 17378.705
0.34452504 -0.05 0.059573923 17347.972
0.33983865 -0.05 0.059657062 17316.084
0.33515211 -0.05 0.059731741 17283.268
0.33046544 -0.05 0.059797856 17249.867
0.32577866 -0.05 0.059855197 17217.286
0.32109177 -0.05 0.059903555 17185.603
0.31640481 -0.05 0.059942821 17155.509
0.31171778 -0.05 0.059972784 17126.942
0.30703069 -0.05 0.059993273 17100.069
0.30234357 -0.05 0.060004087 17076.126
