/*--------------------------------*- C++ -*----------------------------------*\
| =========                 |                                                 |
| \\      /  F ield         | OpenFOAM: The Open Source CFD Toolbox           |
|  \\    /   O peration     | Version:  2306                                  |
|   \\  /    A nd           | Website:  www.openfoam.com                      |
|    \\/     M anipulation  |                                                 |
\*---------------------------------------------------------------------------*/
FoamFile
{
    version     2.0;
    format      ascii;
    arch        "LSB;label=32;scalar=64";
    class       volScalarField;
    location    "75";
    object      nut;
}
// * * * * * * * * * * * * * * * * * * * * * * * * * * * * * * * * * * * * * //

dimensions      [0 2 -1 0 0 0 0];

internalField   nonuniform List<scalar> 
10720
(
1.8012e-05
2.07048e-05
2.43442e-05
2.91175e-05
3.54182e-05
4.37357e-05
5.4772e-05
6.8953e-05
8.7142e-05
0.000110103
0.00013898
0.000176122
0.000225105
0.000292291
0.00038652
0.000524918
0.000732786
0.00107262
0.00160835
0.00266528
0.00432169
0.00890145
0.0160728
0.0458821
0.0809904
0.0908555
0.089304
0.0879787
0.0871456
0.0844101
0.0787024
0.0674358
0.048741
0.0379936
0.0320783
0.0246878
0.0291932
0.0474264
0.0468733
1.57419e-05
1.37666e-05
1.18618e-05
1.01218e-05
8.59295e-06
7.50162e-06
7.63805e-06
9.34854e-06
1.24206e-05
1.73699e-05
2.51994e-05
3.73446e-05
5.53477e-05
8.07086e-05
0.000114652
0.00015979
0.000221788
0.000311666
0.000449704
0.000669933
0.00104539
0.00169267
0.00293539
0.00522037
0.0104248
0.0206542
0.0463114
0.0821869
0.104813
0.11308
0.115347
0.115966
0.11589
0.115276
0.114259
0.113003
0.111336
0.109778
0.10638
5.39958e-06
5.29684e-06
5.19849e-06
5.10734e-06
5.00268e-06
4.89884e-06
4.80548e-06
4.71075e-06
4.63221e-06
4.56967e-06
4.52213e-06
4.51301e-06
4.5475e-06
4.72142e-06
6.0822e-06
1.04905e-05
2.59116e-05
7.29275e-05
0.000157697
0.000342294
0.000645047
0.00166725
0.00338599
0.00996706
0.0256523
0.0475617
0.0754323
0.107335
0.134206
0.150453
0.158976
0.162239
0.160755
0.158194
0.154521
0.123942
0.130628
0.181568
0.174057
5.48226e-06
5.58709e-06
5.67806e-06
5.78821e-06
5.88422e-06
5.95702e-06
5.97261e-06
5.88116e-06
5.7284e-06
5.5389e-06
5.32613e-06
5.09473e-06
4.84579e-06
4.57884e-06
4.27884e-06
3.94485e-06
3.54642e-06
3.08074e-06
2.5099e-06
1.84003e-06
1.09444e-06
4.39736e-07
9.94498e-08
1.31831e-08
1.13438e-05
0.000207435
0.00132076
0.00718819
0.0195239
0.0354938
0.0506324
0.0613916
0.0674922
0.0706833
0.0725374
0.0739548
0.0750562
0.0765254
0.0808629
6.21437e-06
6.22814e-06
6.24164e-06
6.25651e-06
6.2752e-06
6.29594e-06
6.31924e-06
6.34621e-06
6.37728e-06
6.41288e-06
6.45463e-06
6.50403e-06
6.56115e-06
6.63657e-06
6.69517e-06
6.91856e-06
6.39333e-06
5.76598e-06
2.23058e-06
1.11636e-07
0.000119781
7.5404e-05
0.00073221
0.000795872
0.00193067
0.00516446
0.0139949
0.03272
0.067578
0.115439
0.160785
0.194633
0.219161
0.238392
0.255983
0.24906
0.294269
0.391397
0.351734
6.20165e-06
6.18599e-06
6.17203e-06
6.15653e-06
6.1457e-06
6.13969e-06
6.13833e-06
6.14758e-06
6.16317e-06
6.18262e-06
6.20525e-06
6.23122e-06
6.25994e-06
6.29028e-06
6.32363e-06
6.36e-06
6.40109e-06
6.44802e-06
6.50402e-06
6.57209e-06
6.65815e-06
6.77166e-06
6.91491e-06
7.09783e-06
7.16339e-06
6.93388e-06
6.03016e-06
4.01409e-06
0.000240508
0.00133233
0.00437863
0.00991206
0.0175591
0.0264201
0.0354616
0.0437944
0.0509938
0.0555397
0.0686387
6.09822e-06
6.09646e-06
6.0965e-06
6.09699e-06
6.09735e-06
6.09864e-06
6.10112e-06
6.10456e-06
6.11026e-06
6.11836e-06
6.12953e-06
6.14465e-06
6.16481e-06
6.19104e-06
6.22513e-06
6.27203e-06
6.32082e-06
6.32883e-06
5.8138e-06
4.12496e-06
5.67856e-07
1.47219e-06
5.96981e-10
0.000151117
0.000401237
0.00110034
5.05294e-05
0.00163906
0.00852332
0.0348623
0.0912306
0.161458
0.224807
0.276861
0.324376
0.348464
0.420795
0.566656
0.546531
6.09733e-06
6.09933e-06
6.09915e-06
6.10048e-06
6.10026e-06
6.10214e-06
6.10222e-06
6.10095e-06
6.09913e-06
6.09718e-06
6.09541e-06
6.09358e-06
6.09152e-06
6.0888e-06
6.0861e-06
6.08391e-06
6.08224e-06
6.08107e-06
6.08031e-06
6.07995e-06
6.07984e-06
6.07965e-06
6.08034e-06
6.07785e-06
6.08782e-06
6.03556e-06
6.41909e-06
6.09559e-06
5.25786e-06
1.04824e-05
7.98664e-09
4.25808e-07
0.000389982
0.00155947
0.00403373
0.00829037
0.0148812
0.0217664
0.0400983
6.11225e-06
6.1128e-06
6.11441e-06
6.11592e-06
6.11699e-06
6.11803e-06
6.119e-06
6.1206e-06
6.12286e-06
6.12594e-06
6.13004e-06
6.13543e-06
6.14253e-06
6.15188e-06
6.16416e-06
6.18063e-06
6.20173e-06
6.22273e-06
6.32023e-06
6.39583e-06
6.00569e-06
2.6867e-06
4.27565e-07
9.68068e-09
8.44355e-13
0
2.6916e-07
0.000353391
0.00189434
0.000494288
0.0182307
0.0821298
0.177666
0.272111
0.359302
0.422714
0.52257
0.709809
0.756428
6.11049e-06
6.11124e-06
6.11043e-06
6.11085e-06
6.10759e-06
6.10708e-06
6.10707e-06
6.10803e-06
6.11002e-06
6.11197e-06
6.11377e-06
6.11552e-06
6.11732e-06
6.11915e-06
6.12122e-06
6.12349e-06
6.12601e-06
6.12876e-06
6.13178e-06
6.13505e-06
6.13855e-06
6.14236e-06
6.1465e-06
6.15162e-06
6.15666e-06
6.16762e-06
6.16415e-06
6.23717e-06
5.98194e-06
6.43457e-06
6.45727e-06
1.1924e-07
7.17617e-05
0.000370842
0.000203378
0.000259625
0.000943736
0.00158273
0.0099761
6.10616e-06
6.10689e-06
6.10888e-06
6.11102e-06
6.11302e-06
6.11541e-06
6.11796e-06
6.12049e-06
6.12322e-06
6.12612e-06
6.12926e-06
6.13287e-06
6.13709e-06
6.14223e-06
6.14877e-06
6.15732e-06
6.16918e-06
6.18335e-06
6.20509e-06
6.24726e-06
6.30845e-06
6.50854e-06
5.81067e-06
3.39941e-06
5.58597e-10
3.84634e-09
0
0
0
8.65345e-05
0.00461824
0.017709
0.0977176
0.223584
0.357235
0.469636
0.602474
0.82279
0.943727
6.10531e-06
6.10793e-06
6.10887e-06
6.11089e-06
6.10787e-06
6.10677e-06
6.10698e-06
6.10803e-06
6.10925e-06
6.11032e-06
6.11129e-06
6.11224e-06
6.1132e-06
6.11401e-06
6.11484e-06
6.11561e-06
6.11634e-06
6.11701e-06
6.11759e-06
6.11805e-06
6.11834e-06
6.11844e-06
6.11826e-06
6.11762e-06
6.11743e-06
6.11774e-06
6.11899e-06
6.12143e-06
6.12075e-06
6.10451e-06
6.25626e-06
6.15274e-06
4.94222e-06
1.64365e-06
2.74751e-11
3.26968e-05
0.000216883
0.000383128
0.000460996
6.10554e-06
6.1063e-06
6.1083e-06
6.11032e-06
6.11228e-06
6.11444e-06
6.11654e-06
6.11842e-06
6.12021e-06
6.12181e-06
6.1232e-06
6.12437e-06
6.12527e-06
6.1257e-06
6.1261e-06
6.12691e-06
6.12864e-06
6.13059e-06
6.13406e-06
6.14115e-06
6.14156e-06
6.19243e-06
6.41115e-06
7.04858e-06
5.33899e-06
2.03581e-06
1.69769e-08
2.25663e-09
0
0
0
0.00486146
0.030189
0.145594
0.316091
0.484553
0.658413
0.907931
1.08273
6.10549e-06
6.10901e-06
6.11103e-06
6.11355e-06
6.11101e-06
6.10933e-06
6.10916e-06
6.10959e-06
6.11034e-06
6.1111e-06
6.11191e-06
6.11274e-06
6.11361e-06
6.11443e-06
6.11533e-06
6.11627e-06
6.11731e-06
6.11842e-06
6.11964e-06
6.12094e-06
6.12233e-06
6.1238e-06
6.1254e-06
6.1272e-06
6.1293e-06
6.13185e-06
6.13496e-06
6.13874e-06
6.14332e-06
6.14824e-06
6.15071e-06
6.19861e-06
6.1489e-06
5.88425e-06
3.1817e-06
1.81226e-06
1.71156e-08
1.31405e-09
8.76686e-05
6.10625e-06
6.10662e-06
6.10828e-06
6.11012e-06
6.11197e-06
6.11408e-06
6.11617e-06
6.11814e-06
6.12017e-06
6.12217e-06
6.12421e-06
6.12636e-06
6.12864e-06
6.13111e-06
6.13387e-06
6.137e-06
6.14071e-06
6.14533e-06
6.14977e-06
6.15401e-06
6.15692e-06
6.13932e-06
6.16705e-06
6.28433e-06
7.09159e-06
7.00313e-06
4.67051e-06
1.25587e-06
1.62593e-08
1.09367e-12
0
1.37219e-06
0.000892798
0.0673693
0.241419
0.462855
0.686434
0.966363
1.18395
6.107e-06
6.11059e-06
6.11303e-06
6.11567e-06
6.11339e-06
6.11172e-06
6.1112e-06
6.11121e-06
6.11154e-06
6.11189e-06
6.11234e-06
6.11286e-06
6.11344e-06
6.11398e-06
6.11462e-06
6.11528e-06
6.11602e-06
6.11681e-06
6.11766e-06
6.11852e-06
6.11941e-06
6.12027e-06
6.12111e-06
6.12191e-06
6.12263e-06
6.12334e-06
6.12402e-06
6.1246e-06
6.12499e-06
6.12515e-06
6.12472e-06
6.12501e-06
6.13179e-06
6.12383e-06
6.40337e-06
5.80302e-06
4.50882e-06
4.95e-07
6.89652e-09
6.10843e-06
6.10807e-06
6.10932e-06
6.11085e-06
6.11213e-06
6.11376e-06
6.11536e-06
6.11681e-06
6.11835e-06
6.11989e-06
6.12144e-06
6.12306e-06
6.1247e-06
6.12637e-06
6.12807e-06
6.12976e-06
6.13143e-06
6.13299e-06
6.13479e-06
6.13758e-06
6.14261e-06
6.14254e-06
6.13933e-06
6.11012e-06
6.28686e-06
6.64684e-06
7.32901e-06
7.14933e-06
4.73912e-06
5.88391e-10
1.13325e-15
0
0.000477896
0.00960771
0.149631
0.403488
0.681539
0.996964
1.25202
6.10928e-06
6.11237e-06
6.11451e-06
6.11692e-06
6.11503e-06
6.11358e-06
6.113e-06
6.11286e-06
6.11292e-06
6.11299e-06
6.11316e-06
6.11339e-06
6.1137e-06
6.11401e-06
6.11442e-06
6.11489e-06
6.11548e-06
6.11614e-06
6.1169e-06
6.11775e-06
6.11867e-06
6.11966e-06
6.12074e-06
6.12191e-06
6.1232e-06
6.12469e-06
6.12641e-06
6.1284e-06
6.13067e-06
6.13327e-06
6.13634e-06
6.13957e-06
6.14224e-06
6.14741e-06
6.1723e-06
6.28162e-06
6.21785e-06
7.06558e-06
1.60626e-06
6.11089e-06
6.11003e-06
6.1112e-06
6.11241e-06
6.11291e-06
6.11418e-06
6.11507e-06
6.11606e-06
6.11724e-06
6.1185e-06
6.11986e-06
6.12138e-06
6.12304e-06
6.12484e-06
6.12681e-06
6.12894e-06
6.13131e-06
6.13395e-06
6.13686e-06
6.13976e-06
6.1429e-06
6.14642e-06
6.14785e-06
6.14148e-06
6.12383e-06
6.17965e-06
6.39175e-06
6.86514e-06
8.22034e-06
5.11102e-06
1.37094e-08
0
0
0.00412109
0.0696973
0.313503
0.639394
0.996757
1.28818
6.11109e-06
6.11308e-06
6.11449e-06
6.1166e-06
6.11529e-06
6.11432e-06
6.11402e-06
6.11399e-06
6.11406e-06
6.11405e-06
6.11408e-06
6.11411e-06
6.11419e-06
6.11428e-06
6.11448e-06
6.11474e-06
6.1151e-06
6.11556e-06
6.11613e-06
6.11679e-06
6.11754e-06
6.11837e-06
6.11929e-06
6.12028e-06
6.12134e-06
6.12249e-06
6.12376e-06
6.12514e-06
6.1266e-06
6.12814e-06
6.12966e-06
6.13141e-06
6.13239e-06
6.13666e-06
6.13153e-06
6.18478e-06
6.08729e-06
6.66237e-06
5.96229e-06
6.11244e-06
6.11239e-06
6.11341e-06
6.11413e-06
6.11466e-06
6.11526e-06
6.11528e-06
6.11599e-06
6.11665e-06
6.11748e-06
6.11851e-06
6.11974e-06
6.12112e-06
6.12265e-06
6.12435e-06
6.12618e-06
6.12819e-06
6.13034e-06
6.13271e-06
6.13545e-06
6.13861e-06
6.14258e-06
6.14638e-06
6.15084e-06
6.14568e-06
6.13541e-06
6.14913e-06
6.16526e-06
6.51671e-06
9.63956e-06
3.09084e-06
3.94825e-10
0
0.000343839
0.0118741
0.208881
0.559769
0.961685
1.29155
6.1115e-06
6.11212e-06
6.11264e-06
6.11455e-06
6.1139e-06
6.11358e-06
6.11377e-06
6.11413e-06
6.11447e-06
6.11462e-06
6.11469e-06
6.1147e-06
6.11471e-06
6.11471e-06
6.11477e-06
6.11487e-06
6.11506e-06
6.11534e-06
6.11574e-06
6.11624e-06
6.11686e-06
6.11757e-06
6.1184e-06
6.11934e-06
6.12037e-06
6.12156e-06
6.12292e-06
6.12445e-06
6.12617e-06
6.12809e-06
6.1302e-06
6.1326e-06
6.13488e-06
6.13769e-06
6.13899e-06
6.14543e-06
6.14069e-06
6.11835e-06
6.41044e-06
6.11231e-06
6.11352e-06
6.11467e-06
6.11522e-06
6.11552e-06
6.11583e-06
6.11612e-06
6.1165e-06
6.1166e-06
6.11708e-06
6.11786e-06
6.11884e-06
6.12e-06
6.12134e-06
6.12287e-06
6.1246e-06
6.12655e-06
6.12873e-06
6.13118e-06
6.13386e-06
6.1368e-06
6.14015e-06
6.14401e-06
6.14824e-06
6.1534e-06
6.15217e-06
6.15345e-06
6.16706e-06
5.8478e-06
7.00003e-06
1.0816e-05
3.44977e-08
5.97874e-14
0
0.00586933
0.113069
0.448083
0.888042
1.25968
6.11009e-06
6.10941e-06
6.10924e-06
6.11114e-06
6.11105e-06
6.11125e-06
6.11208e-06
6.11301e-06
6.11378e-06
6.11431e-06
6.11466e-06
6.11486e-06
6.11498e-06
6.11502e-06
6.11507e-06
6.11511e-06
6.11521e-06
6.11536e-06
6.1156e-06
6.11593e-06
6.11636e-06
6.11689e-06
6.11753e-06
6.11829e-06
6.11916e-06
6.12017e-06
6.12134e-06
6.12267e-06
6.12416e-06
6.1258e-06
6.12759e-06
6.1295e-06
6.13162e-06
6.13358e-06
6.13667e-06
6.13651e-06
6.14988e-06
6.11052e-06
6.19845e-06
6.11031e-06
6.11283e-06
6.11435e-06
6.11503e-06
6.11542e-06
6.1158e-06
6.11611e-06
6.11641e-06
6.1169e-06
6.11717e-06
6.11766e-06
6.11836e-06
6.11926e-06
6.12038e-06
6.1217e-06
6.12322e-06
6.12495e-06
6.12691e-06
6.12912e-06
6.1316e-06
6.13443e-06
6.13762e-06
6.14136e-06
6.1454e-06
6.15009e-06
6.15625e-06
6.15378e-06
6.19643e-06
6.09954e-06
5.65326e-06
9.13011e-06
4.89196e-06
2.92006e-10
0
0.00115581
0.0392447
0.319133
0.775285
1.18927
6.10712e-06
6.10557e-06
6.10507e-06
6.10703e-06
6.10731e-06
6.1079e-06
6.10898e-06
6.11055e-06
6.1119e-06
6.11294e-06
6.11373e-06
6.11428e-06
6.11467e-06
6.11492e-06
6.1151e-06
6.11521e-06
6.1153e-06
6.1154e-06
6.11554e-06
6.11574e-06
6.11602e-06
6.11638e-06
6.11687e-06
6.11748e-06
6.11821e-06
6.11911e-06
6.12018e-06
6.12143e-06
6.12287e-06
6.12448e-06
6.12628e-06
6.12826e-06
6.13042e-06
6.13255e-06
6.13515e-06
6.13665e-06
6.1417e-06
6.13824e-06
6.1428e-06
6.10687e-06
6.11033e-06
6.11231e-06
6.11335e-06
6.11407e-06
6.11475e-06
6.11532e-06
6.11585e-06
6.1164e-06
6.1171e-06
6.11747e-06
6.11806e-06
6.11887e-06
6.11985e-06
6.121e-06
6.12232e-06
6.12385e-06
6.12561e-06
6.12762e-06
6.12992e-06
6.13253e-06
6.1355e-06
6.13892e-06
6.14294e-06
6.14676e-06
6.15341e-06
6.15522e-06
6.15949e-06
6.2777e-06
5.75208e-06
6.28824e-06
1.17225e-05
1.4607e-08
2.61854e-14
1.59833e-05
0.00173454
0.192041
0.628176
1.07774
6.10335e-06
6.10159e-06
6.10121e-06
6.10313e-06
6.10352e-06
6.10421e-06
6.10547e-06
6.10701e-06
6.10886e-06
6.11061e-06
6.11187e-06
6.11284e-06
6.1136e-06
6.11416e-06
6.11458e-06
6.11486e-06
6.11506e-06
6.11521e-06
6.11536e-06
6.11552e-06
6.11573e-06
6.116e-06
6.11638e-06
6.11688e-06
6.11751e-06
6.1183e-06
6.11926e-06
6.12041e-06
6.12173e-06
6.12323e-06
6.12492e-06
6.12677e-06
6.1288e-06
6.13094e-06
6.13324e-06
6.13551e-06
6.13802e-06
6.14083e-06
6.14202e-06
6.10293e-06
6.10665e-06
6.10899e-06
6.11044e-06
6.11159e-06
6.11268e-06
6.11363e-06
6.1145e-06
6.11533e-06
6.11614e-06
6.11693e-06
6.11765e-06
6.11844e-06
6.11931e-06
6.12031e-06
6.12145e-06
6.12278e-06
6.12433e-06
6.12613e-06
6.1282e-06
6.13059e-06
6.13335e-06
6.13651e-06
6.14027e-06
6.14423e-06
6.14886e-06
6.15704e-06
6.14419e-06
6.22512e-06
6.18147e-06
5.42856e-06
9.6143e-06
3.53792e-06
8.39196e-12
0
0.00299952
0.0878907
0.46046
0.925552
6.09986e-06
6.09854e-06
6.09868e-06
6.10038e-06
6.10058e-06
6.10104e-06
6.10214e-06
6.10368e-06
6.10518e-06
6.10752e-06
6.10913e-06
6.11049e-06
6.11163e-06
6.11255e-06
6.1133e-06
6.11387e-06
6.11431e-06
6.11464e-06
6.11491e-06
6.11515e-06
6.11539e-06
6.11566e-06
6.11601e-06
6.11646e-06
6.11703e-06
6.11773e-06
6.1186e-06
6.11964e-06
6.12086e-06
6.12226e-06
6.12385e-06
6.12564e-06
6.1276e-06
6.12972e-06
6.13199e-06
6.13424e-06
6.13687e-06
6.13875e-06
6.14348e-06
6.09963e-06
6.10278e-06
6.1052e-06
6.10695e-06
6.10845e-06
6.10989e-06
6.1112e-06
6.11238e-06
6.11349e-06
6.11449e-06
6.11545e-06
6.11653e-06
6.11744e-06
6.11833e-06
6.11929e-06
6.12036e-06
6.1216e-06
6.12303e-06
6.12469e-06
6.12661e-06
6.1288e-06
6.13132e-06
6.13422e-06
6.13759e-06
6.14162e-06
6.14517e-06
6.15322e-06
6.15282e-06
6.14728e-06
6.33955e-06
5.64224e-06
6.76703e-06
1.01847e-05
3.9617e-09
0
0.000469871
0.0151798
0.291115
0.739819
6.09764e-06
6.09725e-06
6.0981e-06
6.09943e-06
6.09919e-06
6.09914e-06
6.09977e-06
6.10096e-06
6.10235e-06
6.10397e-06
6.10595e-06
6.10765e-06
6.10908e-06
6.11031e-06
6.11139e-06
6.11227e-06
6.11299e-06
6.11357e-06
6.11404e-06
6.11444e-06
6.11481e-06
6.11516e-06
6.11554e-06
6.11599e-06
6.11652e-06
6.11716e-06
6.11793e-06
6.11884e-06
6.11992e-06
6.12117e-06
6.1226e-06
6.12422e-06
6.12604e-06
6.12802e-06
6.13021e-06
6.13236e-06
6.13515e-06
6.13669e-06
6.14239e-06
6.09791e-06
6.09977e-06
6.10192e-06
6.1037e-06
6.10532e-06
6.10693e-06
6.10842e-06
6.10977e-06
6.11104e-06
6.11222e-06
6.11331e-06
6.11438e-06
6.11576e-06
6.1168e-06
6.11785e-06
6.11897e-06
6.12023e-06
6.12163e-06
6.12322e-06
6.12504e-06
6.1271e-06
6.12942e-06
6.1321e-06
6.13514e-06
6.13883e-06
6.14255e-06
6.14729e-06
6.15812e-06
6.13005e-06
6.2614e-06
6.10541e-06
5.44753e-06
1.14781e-05
5.06287e-07
1.14551e-12
0
0.00791311
0.15087
0.536845
6.09736e-06
6.09806e-06
6.09956e-06
6.10045e-06
6.09968e-06
6.09897e-06
6.09893e-06
6.0995e-06
6.10045e-06
6.10142e-06
6.10313e-06
6.10475e-06
6.10627e-06
6.10771e-06
6.10902e-06
6.11015e-06
6.11112e-06
6.11196e-06
6.11267e-06
6.11329e-06
6.11383e-06
6.11431e-06
6.11478e-06
6.11528e-06
6.11582e-06
6.11643e-06
6.11713e-06
6.11794e-06
6.11889e-06
6.11999e-06
6.12125e-06
6.12269e-06
6.12432e-06
6.12612e-06
6.12813e-06
6.13013e-06
6.13279e-06
6.13427e-06
6.14006e-06
6.09825e-06
6.09841e-06
6.09996e-06
6.10144e-06
6.10292e-06
6.10443e-06
6.10585e-06
6.10717e-06
6.10844e-06
6.10965e-06
6.11083e-06
6.11197e-06
6.11336e-06
6.11464e-06
6.11589e-06
6.11715e-06
6.11847e-06
6.11991e-06
6.1215e-06
6.12328e-06
6.12526e-06
6.12748e-06
6.12999e-06
6.13282e-06
6.13608e-06
6.14001e-06
6.14311e-06
6.15366e-06
6.14452e-06
6.1616e-06
6.33682e-06
5.37608e-06
8.73304e-06
5.22262e-06
1.58474e-11
0
0.00175195
0.0560721
0.345459
6.09914e-06
6.10072e-06
6.10257e-06
6.1031e-06
6.10185e-06
6.10052e-06
6.09978e-06
6.09965e-06
6.09991e-06
6.1005e-06
6.10114e-06
6.10239e-06
6.10383e-06
6.10525e-06
6.10657e-06
6.10778e-06
6.10891e-06
6.10993e-06
6.11085e-06
6.11166e-06
6.11238e-06
6.11303e-06
6.11363e-06
6.11422e-06
6.11482e-06
6.11545e-06
6.11615e-06
6.11692e-06
6.11779e-06
6.11879e-06
6.11993e-06
6.12122e-06
6.12268e-06
6.12428e-06
6.1261e-06
6.1279e-06
6.13034e-06
6.13167e-06
6.13717e-06
6.10051e-06
6.09901e-06
6.09974e-06
6.10069e-06
6.10179e-06
6.10296e-06
6.10408e-06
6.10517e-06
6.10626e-06
6.10734e-06
6.10846e-06
6.10961e-06
6.11074e-06
6.11229e-06
6.11368e-06
6.11503e-06
6.11644e-06
6.11794e-06
6.11957e-06
6.12136e-06
6.12333e-06
6.12549e-06
6.12789e-06
6.13058e-06
6.13354e-06
6.13721e-06
6.14055e-06
6.14636e-06
6.15515e-06
6.12505e-06
6.31258e-06
5.81578e-06
6.33508e-06
1.04851e-05
5.80175e-09
0
1.08321e-05
0.00144978
0.188937
6.10241e-06
6.10436e-06
6.10611e-06
6.10648e-06
6.10501e-06
6.1033e-06
6.10203e-06
6.10127e-06
6.10088e-06
6.10084e-06
6.10103e-06
6.10108e-06
6.10212e-06
6.10324e-06
6.10438e-06
6.10552e-06
6.10666e-06
6.10775e-06
6.10878e-06
6.10973e-06
6.1106e-06
6.11139e-06
6.11213e-06
6.11284e-06
6.11354e-06
6.11426e-06
6.11501e-06
6.1158e-06
6.11668e-06
6.11764e-06
6.11872e-06
6.11993e-06
6.12128e-06
6.12276e-06
6.12442e-06
6.12607e-06
6.12829e-06
6.12946e-06
6.13444e-06
6.10392e-06
6.10129e-06
6.10123e-06
6.10155e-06
6.10216e-06
6.10287e-06
6.10355e-06
6.10424e-06
6.105e-06
6.10583e-06
6.10674e-06
6.10775e-06
6.10882e-06
6.11005e-06
6.11144e-06
6.11287e-06
6.11434e-06
6.11589e-06
6.11755e-06
6.11934e-06
6.1213e-06
6.12344e-06
6.12578e-06
6.12835e-06
6.13117e-06
6.13442e-06
6.13821e-06
6.14129e-06
6.15345e-06
6.13275e-06
6.2068e-06
6.20238e-06
5.43628e-06
1.04878e-05
8.09049e-07
2.27466e-12
0
0.00311482
0.0881247
6.10609e-06
6.10771e-06
6.10894e-06
6.1094e-06
6.1081e-06
6.10639e-06
6.10492e-06
6.1038e-06
6.10295e-06
6.10235e-06
6.10213e-06
6.10122e-06
6.10159e-06
6.10222e-06
6.103e-06
6.1039e-06
6.10486e-06
6.10585e-06
6.10684e-06
6.1078e-06
6.10873e-06
6.10961e-06
6.11044e-06
6.11126e-06
6.11206e-06
6.11288e-06
6.11371e-06
6.11457e-06
6.11549e-06
6.11647e-06
6.11755e-06
6.11872e-06
6.12003e-06
6.12144e-06
6.12302e-06
6.12458e-06
6.12667e-06
6.12777e-06
6.13226e-06
6.10727e-06
6.10447e-06
6.10388e-06
6.10368e-06
6.10382e-06
6.10406e-06
6.10427e-06
6.10453e-06
6.10488e-06
6.10534e-06
6.10594e-06
6.10669e-06
6.10758e-06
6.10853e-06
6.10966e-06
6.11102e-06
6.11245e-06
6.11397e-06
6.1156e-06
6.11735e-06
6.11927e-06
6.12136e-06
6.12364e-06
6.12613e-06
6.12884e-06
6.13181e-06
6.13551e-06
6.13849e-06
6.14614e-06
6.14766e-06
6.13638e-06
6.32956e-06
5.51152e-06
7.9501e-06
6.19897e-06
2.35709e-11
0
0.00117107
0.035359
6.10879e-06
6.10945e-06
6.10993e-06
6.11069e-06
6.10994e-06
6.10867e-06
6.10744e-06
6.10635e-06
6.10537e-06
6.1045e-06
6.10389e-06
6.1029e-06
6.10235e-06
6.10231e-06
6.10262e-06
6.10312e-06
6.10376e-06
6.10449e-06
6.1053e-06
6.10615e-06
6.10703e-06
6.10789e-06
6.10874e-06
6.1096e-06
6.11047e-06
6.11136e-06
6.11226e-06
6.11318e-06
6.11414e-06
6.11515e-06
6.11623e-06
6.11739e-06
6.11866e-06
6.12003e-06
6.12155e-06
6.12307e-06
6.12508e-06
6.12619e-06
6.13042e-06
6.10925e-06
6.10739e-06
6.10672e-06
6.10627e-06
6.10609e-06
6.10598e-06
6.1058e-06
6.10565e-06
6.10562e-06
6.10572e-06
6.10599e-06
6.10643e-06
6.10703e-06
6.1078e-06
6.10855e-06
6.10966e-06
6.11094e-06
6.11233e-06
6.11387e-06
6.11554e-06
6.11737e-06
6.11938e-06
6.12157e-06
6.12396e-06
6.12656e-06
6.12939e-06
6.1327e-06
6.13631e-06
6.13986e-06
6.15204e-06
6.12121e-06
6.27334e-06
5.92096e-06
6.07579e-06
1.06534e-05
7.59e-09
0
0.000404163
0.0117355
6.10933e-06
6.10865e-06
6.10844e-06
6.10961e-06
6.10966e-06
6.10916e-06
6.10857e-06
6.10794e-06
6.10722e-06
6.10646e-06
6.10574e-06
6.10531e-06
6.10371e-06
6.10328e-06
6.10318e-06
6.10323e-06
6.10345e-06
6.10385e-06
6.10438e-06
6.10501e-06
6.10571e-06
6.10644e-06
6.10721e-06
6.10802e-06
6.10888e-06
6.10976e-06
6.11068e-06
6.11162e-06
6.11259e-06
6.1136e-06
6.11467e-06
6.1158e-06
6.11703e-06
6.11834e-06
6.1198e-06
6.12127e-06
6.1232e-06
6.12431e-06
6.12843e-06
6.10887e-06
6.10887e-06
6.10861e-06
6.1082e-06
6.10794e-06
6.10767e-06
6.10728e-06
6.10692e-06
6.10665e-06
6.10649e-06
6.1065e-06
6.10669e-06
6.10703e-06
6.10755e-06
6.10824e-06
6.10881e-06
6.10983e-06
6.11106e-06
6.11244e-06
6.11398e-06
6.11567e-06
6.11754e-06
6.11961e-06
6.12188e-06
6.12435e-06
6.12707e-06
6.13007e-06
6.13383e-06
6.13629e-06
6.14707e-06
6.13351e-06
6.17884e-06
6.23103e-06
5.44057e-06
1.01311e-05
1.11173e-06
3.85433e-12
7.17266e-05
0.00272451
6.10715e-06
6.10518e-06
6.10453e-06
6.10605e-06
6.10694e-06
6.10736e-06
6.10764e-06
6.10778e-06
6.10768e-06
6.10739e-06
6.10697e-06
6.10653e-06
6.10576e-06
6.10494e-06
6.10431e-06
6.10393e-06
6.10382e-06
6.10391e-06
6.10414e-06
6.10448e-06
6.10492e-06
6.10544e-06
6.10604e-06
6.10671e-06
6.10745e-06
6.10826e-06
6.10912e-06
6.11002e-06
6.11096e-06
6.11195e-06
6.11299e-06
6.1141e-06
6.11529e-06
6.11655e-06
6.11794e-06
6.11935e-06
6.12118e-06
6.12223e-06
6.12613e-06
6.10589e-06
6.10811e-06
6.10857e-06
6.10847e-06
6.10835e-06
6.10818e-06
6.10787e-06
6.10755e-06
6.10729e-06
6.10709e-06
6.10701e-06
6.10707e-06
6.10726e-06
6.10759e-06
6.10812e-06
6.10842e-06
6.1092e-06
6.11021e-06
6.1114e-06
6.11275e-06
6.11427e-06
6.11596e-06
6.11784e-06
6.11994e-06
6.12226e-06
6.12484e-06
6.12765e-06
6.13111e-06
6.13412e-06
6.13993e-06
6.14502e-06
6.12694e-06
6.30665e-06
5.59351e-06
7.67293e-06
6.47514e-06
1.43742e-10
1.39234e-11
5.83083e-06
6.10257e-06
6.09979e-06
6.09903e-06
6.10072e-06
6.10222e-06
6.10342e-06
6.10455e-06
6.10555e-06
6.10626e-06
6.10668e-06
6.10687e-06
6.10678e-06
6.1069e-06
6.10609e-06
6.10539e-06
6.10496e-06
6.10471e-06
6.10457e-06
6.10451e-06
6.10456e-06
6.10472e-06
6.10498e-06
6.10534e-06
6.10581e-06
6.10637e-06
6.10703e-06
6.10776e-06
6.10857e-06
6.10944e-06
6.11038e-06
6.11139e-06
6.11247e-06
6.11363e-06
6.11486e-06
6.11621e-06
6.11757e-06
6.11933e-06
6.12034e-06
6.12391e-06
6.10092e-06
6.10496e-06
6.10619e-06
6.10655e-06
6.1068e-06
6.10699e-06
6.10704e-06
6.10705e-06
6.10705e-06
6.10704e-06
6.10708e-06
6.10719e-06
6.10737e-06
6.10764e-06
6.10807e-06
6.10837e-06
6.10895e-06
6.10973e-06
6.11069e-06
6.11183e-06
6.11314e-06
6.11462e-06
6.11629e-06
6.11817e-06
6.12029e-06
6.12268e-06
6.12535e-06
6.12842e-06
6.13195e-06
6.13486e-06
6.14604e-06
6.12137e-06
6.23885e-06
5.98646e-06
5.96318e-06
1.08777e-05
9.38958e-10
3.17324e-15
1.51408e-08
6.09675e-06
6.09391e-06
6.09328e-06
6.09484e-06
6.09654e-06
6.09815e-06
6.09985e-06
6.10156e-06
6.10302e-06
6.10419e-06
6.1051e-06
6.10569e-06
6.10616e-06
6.10643e-06
6.10618e-06
6.10593e-06
6.10566e-06
6.10538e-06
6.10514e-06
6.10498e-06
6.10492e-06
6.10496e-06
6.1051e-06
6.10535e-06
6.1057e-06
6.10618e-06
6.10675e-06
6.10741e-06
6.10817e-06
6.109e-06
6.10993e-06
6.11093e-06
6.11202e-06
6.1132e-06
6.1145e-06
6.11583e-06
6.11755e-06
6.11859e-06
6.12195e-06
6.09522e-06
6.10007e-06
6.10186e-06
6.10272e-06
6.10348e-06
6.10421e-06
6.10482e-06
6.10532e-06
6.10575e-06
6.1061e-06
6.10643e-06
6.10674e-06
6.10706e-06
6.10742e-06
6.10782e-06
6.10838e-06
6.10877e-06
6.10937e-06
6.11016e-06
6.11112e-06
6.11225e-06
6.11352e-06
6.11497e-06
6.11662e-06
6.1185e-06
6.12066e-06
6.12315e-06
6.12592e-06
6.1294e-06
6.13193e-06
6.1405e-06
6.13318e-06
6.15908e-06
6.23501e-06
5.4968e-06
9.68512e-06
1.7102e-06
7.26131e-12
0
6.0912e-06
6.08904e-06
6.08867e-06
6.08982e-06
6.09122e-06
6.09275e-06
6.09457e-06
6.09659e-06
6.09854e-06
6.10029e-06
6.10184e-06
6.10312e-06
6.10407e-06
6.10528e-06
6.10583e-06
6.10599e-06
6.10592e-06
6.10574e-06
6.10556e-06
6.10539e-06
6.10527e-06
6.1052e-06
6.10519e-06
6.10526e-06
6.10543e-06
6.10571e-06
6.10609e-06
6.10657e-06
6.10714e-06
6.10782e-06
6.10859e-06
6.10945e-06
6.11041e-06
6.11146e-06
6.11265e-06
6.11389e-06
6.11552e-06
6.11658e-06
6.11987e-06
6.09023e-06
6.09465e-06
6.09666e-06
6.09796e-06
6.09923e-06
6.1005e-06
6.10164e-06
6.10264e-06
6.10352e-06
6.10428e-06
6.10496e-06
6.10557e-06
6.10614e-06
6.10669e-06
6.10723e-06
6.10784e-06
6.10842e-06
6.10901e-06
6.10974e-06
6.1106e-06
6.11159e-06
6.1127e-06
6.11394e-06
6.11537e-06
6.11701e-06
6.11891e-06
6.12115e-06
6.12368e-06
6.12677e-06
6.12977e-06
6.13446e-06
6.14036e-06
6.12469e-06
6.26404e-06
5.73526e-06
7.1385e-06
7.76588e-06
2.46008e-09
0
6.08729e-06
6.08626e-06
6.08615e-06
6.08669e-06
6.08744e-06
6.08843e-06
6.08988e-06
6.09175e-06
6.09375e-06
6.09573e-06
6.09766e-06
6.09943e-06
6.10091e-06
6.10214e-06
6.10423e-06
6.10497e-06
6.10529e-06
6.10545e-06
6.10552e-06
6.10553e-06
6.10549e-06
6.10543e-06
6.10536e-06
6.10533e-06
6.10537e-06
6.10549e-06
6.1057e-06
6.10599e-06
6.10638e-06
6.10686e-06
6.10744e-06
6.10812e-06
6.1089e-06
6.10978e-06
6.1108e-06
6.11187e-06
6.11334e-06
6.1143e-06
6.11744e-06
6.08703e-06
6.09009e-06
6.09202e-06
6.09357e-06
6.09514e-06
6.09672e-06
6.09817e-06
6.0995e-06
6.1007e-06
6.1018e-06
6.1028e-06
6.10372e-06
6.10456e-06
6.10536e-06
6.10611e-06
6.10686e-06
6.10771e-06
6.10845e-06
6.10921e-06
6.11004e-06
6.11097e-06
6.11198e-06
6.11309e-06
6.11433e-06
6.11575e-06
6.11742e-06
6.11939e-06
6.12168e-06
6.12436e-06
6.12754e-06
6.13041e-06
6.1389e-06
6.12505e-06
6.19616e-06
6.07694e-06
5.8373e-06
1.0003e-05
2.41841e-07
5.60759e-11
6.08571e-06
6.08587e-06
6.08594e-06
6.08589e-06
6.08581e-06
6.08601e-06
6.08674e-06
6.08803e-06
6.08966e-06
6.09146e-06
6.09339e-06
6.09531e-06
6.09713e-06
6.09863e-06
6.10128e-06
6.10262e-06
6.10351e-06
6.10418e-06
6.10465e-06
6.10496e-06
6.10515e-06
6.10523e-06
6.10526e-06
6.10526e-06
6.10528e-06
6.10533e-06
6.10543e-06
6.10559e-06
6.10583e-06
6.10614e-06
6.10655e-06
6.10705e-06
6.10765e-06
6.10835e-06
6.10919e-06
6.11006e-06
6.11134e-06
6.11215e-06
6.11497e-06
6.08603e-06
6.08742e-06
6.08905e-06
6.09053e-06
6.09206e-06
6.09358e-06
6.09505e-06
6.09644e-06
6.09778e-06
6.09905e-06
6.10027e-06
6.10141e-06
6.1025e-06
6.10352e-06
6.10449e-06
6.10542e-06
6.10631e-06
6.10747e-06
6.10837e-06
6.10925e-06
6.11018e-06
6.11117e-06
6.11221e-06
6.11334e-06
6.11461e-06
6.11607e-06
6.11781e-06
6.11986e-06
6.12223e-06
6.12519e-06
6.12786e-06
6.13386e-06
6.13292e-06
6.14173e-06
6.22443e-06
5.67248e-06
8.18578e-06
4.01589e-06
5.49813e-09
6.08637e-06
6.08743e-06
6.08762e-06
6.08713e-06
6.08634e-06
6.08572e-06
6.08561e-06
6.0861e-06
6.08704e-06
6.0883e-06
6.08986e-06
6.09158e-06
6.09337e-06
6.09503e-06
6.09731e-06
6.09924e-06
6.10079e-06
6.10197e-06
6.10286e-06
6.10355e-06
6.10406e-06
6.10443e-06
6.10467e-06
6.10483e-06
6.10494e-06
6.10504e-06
6.10514e-06
6.10525e-06
6.1054e-06
6.10561e-06
6.10588e-06
6.10624e-06
6.10668e-06
6.10721e-06
6.10787e-06
6.10857e-06
6.10964e-06
6.11032e-06
6.11278e-06
6.08699e-06
6.08705e-06
6.08817e-06
6.08922e-06
6.09035e-06
6.09154e-06
6.09275e-06
6.09399e-06
6.09525e-06
6.09652e-06
6.09778e-06
6.09903e-06
6.10024e-06
6.10141e-06
6.10254e-06
6.10364e-06
6.10466e-06
6.10605e-06
6.10712e-06
6.10812e-06
6.10913e-06
6.11017e-06
6.11124e-06
6.11235e-06
6.11354e-06
6.11487e-06
6.11642e-06
6.11824e-06
6.12035e-06
6.12293e-06
6.12573e-06
6.1294e-06
6.13512e-06
6.12544e-06
6.21171e-06
5.92285e-06
6.53713e-06
7.53694e-06
1.08414e-06
6.08858e-06
6.09006e-06
6.0903e-06
6.08964e-06
6.08843e-06
6.08722e-06
6.08638e-06
6.08607e-06
6.08621e-06
6.08674e-06
6.08768e-06
6.0889e-06
6.09032e-06
6.09192e-06
6.09325e-06
6.09578e-06
6.09764e-06
6.09908e-06
6.10031e-06
6.10137e-06
6.10226e-06
6.10296e-06
6.10349e-06
6.10388e-06
6.10419e-06
6.10443e-06
6.10462e-06
6.10478e-06
6.10493e-06
6.1051e-06
6.10531e-06
6.10556e-06
6.10588e-06
6.10627e-06
6.10677e-06
6.10731e-06
6.10818e-06
6.10873e-06
6.11088e-06
6.08918e-06
6.08859e-06
6.08901e-06
6.08942e-06
6.08999e-06
6.0907e-06
6.09152e-06
6.09245e-06
6.09348e-06
6.09458e-06
6.09574e-06
6.09693e-06
6.09813e-06
6.09933e-06
6.10053e-06
6.10171e-06
6.10283e-06
6.10425e-06
6.10549e-06
6.10664e-06
6.10777e-06
6.1089e-06
6.11005e-06
6.11122e-06
6.11242e-06
6.11371e-06
6.11516e-06
6.1168e-06
6.1187e-06
6.12094e-06
6.12363e-06
6.12638e-06
6.13225e-06
6.12764e-06
6.16272e-06
6.12082e-06
5.97476e-06
7.49134e-06
4.34373e-06
6.09133e-06
6.09267e-06
6.09295e-06
6.09241e-06
6.09115e-06
6.08971e-06
6.08845e-06
6.08755e-06
6.087e-06
6.08683e-06
6.08705e-06
6.08763e-06
6.08849e-06
6.08961e-06
6.09083e-06
6.09243e-06
6.09419e-06
6.09587e-06
6.09741e-06
6.09877e-06
6.09993e-06
6.1009e-06
6.1017e-06
6.10236e-06
6.1029e-06
6.10335e-06
6.10371e-06
6.104e-06
6.10424e-06
6.10445e-06
6.10466e-06
6.10487e-06
6.10512e-06
6.1054e-06
6.10578e-06
6.10617e-06
6.10686e-06
6.10724e-06
6.10913e-06
6.09168e-06
6.09095e-06
6.09073e-06
6.09056e-06
6.09063e-06
6.09089e-06
6.0913e-06
6.09186e-06
6.09257e-06
6.09341e-06
6.09435e-06
6.09536e-06
6.09644e-06
6.09756e-06
6.0987e-06
6.09987e-06
6.10106e-06
6.10216e-06
6.10369e-06
6.105e-06
6.10623e-06
6.10744e-06
6.10867e-06
6.1099e-06
6.11116e-06
6.11247e-06
6.11388e-06
6.11543e-06
6.11718e-06
6.11917e-06
6.12159e-06
6.12416e-06
6.12829e-06
6.13049e-06
6.13522e-06
6.17474e-06
5.97454e-06
6.65611e-06
6.17655e-06
6.09358e-06
6.09429e-06
6.09457e-06
6.0944e-06
6.09346e-06
6.09219e-06
6.09092e-06
6.08978e-06
6.08884e-06
6.08814e-06
6.08777e-06
6.08772e-06
6.08798e-06
6.08851e-06
6.08938e-06
6.09014e-06
6.09151e-06
6.09312e-06
6.09463e-06
6.09601e-06
6.09726e-06
6.0984e-06
6.09941e-06
6.1003e-06
6.10108e-06
6.10176e-06
6.10234e-06
6.10281e-06
6.1032e-06
6.10351e-06
6.10378e-06
6.10402e-06
6.10425e-06
6.10449e-06
6.10478e-06
6.10507e-06
6.1056e-06
6.10582e-06
6.10741e-06
6.09354e-06
6.09282e-06
6.09243e-06
6.09196e-06
6.09172e-06
6.09166e-06
6.09173e-06
6.09197e-06