/*--------------------------------*- C++ -*----------------------------------*\
| =========                 |                                                 |
| \\      /  F ield         | OpenFOAM: The Open Source CFD Toolbox           |
|  \\    /   O peration     | Version:  2306                                  |
|   \\  /    A nd           | Website:  www.openfoam.com                      |
|    \\/     M anipulation  |                                                 |
\*---------------------------------------------------------------------------*/
FoamFile
{
    version     2.0;
    format      ascii;
    arch        "LSB;label=32;scalar=64";
    class       volSymmTensorField;
    location    "75";
    object      turbulenceProperties:devReff;
}
// * * * * * * * * * * * * * * * * * * * * * * * * * * * * * * * * * * * * * //

dimensions      [0 2 -2 0 0 0 0];

internalField   nonuniform List<symmTensor> 
10720
(
(0.00129987 0.00247158 -3.31018e-21 -0.00137044 -1.61584e-20 7.05744e-05)
(0.00175844 0.00284638 1.93919e-20 -0.00180667 1.00214e-19 4.8229e-05)
(0.00250807 0.00319594 -5.30101e-20 -0.00261651 -2.72281e-19 0.000108441)
(0.00353348 0.00366189 1.07579e-19 -0.00367192 5.25867e-19 0.000138439)
(0.00492999 0.00409025 -1.35086e-19 -0.00508429 -4.74334e-19 0.0001543)
(0.00688669 0.00436837 -1.38719e-19 -0.00712038 -3.20201e-19 0.000233699)
(0.00953197 0.00449134 2.92487e-19 -0.00983 8.09343e-19 0.000298024)
(0.0129692 0.004214 -6.42019e-19 -0.0133365 -1.46069e-18 0.000367267)
(0.0173541 0.00324884 -1.40085e-19 -0.0178399 2.94399e-19 0.000485715)
(0.0227779 0.0013741 5.04459e-19 -0.0233781 8.79296e-19 0.000600162)
(0.0292922 -0.00183425 1.14566e-18 -0.0300375 5.27129e-19 0.000745301)
(0.0371403 -0.00683598 -2.56714e-18 -0.038067 -2.31576e-18 0.000926633)
(0.0467192 -0.0143192 4.54155e-19 -0.0478692 5.74196e-19 0.00115005)
(0.0587114 -0.0254151 2.00378e-18 -0.0601442 9.91072e-19 0.00143284)
(0.0739208 -0.0418958 -3.15557e-18 -0.0757325 -4.40961e-18 0.00181173)
(0.0940324 -0.0669692 -3.54682e-18 -0.0963562 -1.85649e-18 0.00232381)
(0.120641 -0.105712 1.28315e-17 -0.12377 1.13551e-17 0.00312884)
(0.159137 -0.169224 1.59647e-17 -0.16348 2.1311e-17 0.00434273)
(0.20998 -0.270017 -2.36065e-17 -0.216218 -3.15571e-17 0.00623787)
(0.298198 -0.463038 -4.53821e-18 -0.307756 8.18303e-18 0.00955787)
(0.400419 -0.754932 -1.81948e-17 -0.41455 2.46631e-17 0.0141307)
(0.655797 -1.51152 1.59572e-17 -0.680353 1.83107e-17 0.0245557)
(0.882213 -2.55274 -8.41727e-17 -0.918396 -1.80873e-16 0.0361834)
(1.68731 -6.57986 1.34632e-16 -1.77233 2.11231e-16 0.0850204)
(1.72212 -10.4134 3.19623e-17 -1.82958 -4.14819e-16 0.107463)
(0.860623 -10.6259 3.24347e-16 -0.921641 4.28506e-16 0.0610177)
(0.110315 -9.62524 -4.95132e-17 -0.128958 -6.1378e-17 0.0186433)
(-0.363018 -8.76195 2.1774e-16 0.361109 1.95889e-16 0.00190924)
(-0.656609 -7.99428 5.26054e-16 0.656002 9.5915e-16 0.000606823)
(-0.816222 -7.0501 2.16727e-16 0.810272 1.46517e-15 0.00595026)
(-0.850687 -5.8217 -8.09844e-16 0.837065 -1.3236e-15 0.0136222)
(-0.730464 -4.21075 -1.60205e-16 0.714449 -4.28341e-16 0.0160147)
(-0.464885 -2.36651 -2.20052e-16 0.452558 -1.31205e-15 0.0123272)
(-0.272032 -1.28628 -5.9789e-16 0.265613 -2.94203e-15 0.00641864)
(-0.124292 -0.585293 3.19059e-16 0.115346 4.21892e-16 0.00894601)
(-0.0205374 -0.233608 4.46977e-17 0.0226072 2.72998e-16 -0.00206986)
(0.345465 0.587115 -1.54102e-16 -0.348201 -2.25443e-16 0.00273612)
(0.890526 2.05317 4.92203e-16 -0.847157 -2.26132e-15 -0.0433681)
(0.480259 1.95079 1.1373e-15 -0.475519 6.36567e-15 -0.00473934)
(0.000902905 0.00215839 1.0014e-20 -0.000924146 3.36513e-20 2.1241e-05)
(0.000658419 0.00185182 -8.85769e-21 -0.000700125 -2.00466e-20 4.17059e-05)
(0.000447793 0.00151802 -7.11763e-20 -0.000466827 -6.44565e-20 1.90339e-05)
(0.00031675 0.00121913 7.25911e-20 -0.000325347 2.66104e-20 8.59733e-06)
(0.000268979 0.00093866 -3.37117e-20 -0.000251865 6.80799e-20 -1.7114e-05)
(0.000300899 0.000716695 -4.26606e-20 -0.00025485 2.41185e-19 -4.60494e-05)
(0.000403009 0.000620359 -3.24592e-20 -0.000359352 1.93561e-20 -4.3657e-05)
(0.00059695 0.000649546 1.72721e-19 -0.00058188 -1.7108e-19 -1.50701e-05)
(0.000895222 0.000788369 1.61145e-19 -0.000898441 -5.70592e-20 3.21944e-06)
(0.00132598 0.00110026 -8.69073e-20 -0.00134124 2.644e-21 1.52553e-05)
(0.00194446 0.00169291 -4.73658e-20 -0.00197407 1.53437e-19 2.96068e-05)
(0.00283363 0.00272307 3.26731e-19 -0.00288133 1.38954e-20 4.77037e-05)
(0.00406678 0.00441255 5.12092e-19 -0.00414163 -1.02927e-19 7.48445e-05)
(0.00569212 0.00701116 -1.32237e-19 -0.00580293 -1.75741e-19 0.000110809)
(0.00774268 0.0107507 1.26821e-19 -0.00788837 -1.89926e-19 0.000145692)
(0.0102716 0.0160322 2.66414e-19 -0.0104672 -1.03925e-19 0.00019558)
(0.0135394 0.0235774 -3.95976e-19 -0.01379 5.68193e-19 0.00025059)
(0.0180007 0.0348375 8.4782e-19 -0.0183314 1.15263e-19 0.00033071)
(0.0245304 0.0525379 4.00832e-19 -0.0249718 -8.86354e-19 0.000441358)
(0.0343224 0.0815154 -1.83825e-18 -0.0349568 -2.22675e-20 0.000634421)
(0.0499614 0.1321 -5.95118e-18 -0.0509174 -6.17415e-19 0.000956023)
(0.0743966 0.22182 -3.38031e-18 -0.0759676 -2.3888e-19 0.00157094)
(0.115887 0.398354 8.42214e-18 -0.118743 -1.50623e-18 0.00285531)
(0.176771 0.732103 -1.5109e-17 -0.182517 2.03045e-18 0.00574576)
(0.28484 1.50305 5.93911e-18 -0.297431 3.39908e-18 0.0125905)
(0.424726 3.04005 -1.84999e-16 -0.450643 2.22411e-17 0.0259171)
(0.635483 6.91414 -1.07181e-16 -0.696634 -1.36092e-17 0.0611513)
(0.565857 12.3765 8.71824e-17 -0.672485 -1.23426e-17 0.106628)
(0.013994 15.8426 1.04436e-17 -0.134286 1.76655e-18 0.120292)
(-0.715997 17.078 5.15705e-17 0.608987 -4.56557e-17 0.107009)
(-1.4266 17.3327 -5.09241e-16 1.33827 2.71691e-17 0.0883348)
(-2.07727 17.2722 1.58494e-16 2.00468 5.76817e-17 0.0725933)
(-2.66031 17.0504 -2.24813e-15 2.59981 -3.68006e-16 0.0604973)
(-3.17003 16.7028 -3.9469e-15 3.11891 7.61993e-16 0.0511214)
(-3.60998 16.2582 1.33155e-15 3.56578 3.62371e-16 0.0442077)
(-3.9927 15.7515 1.23558e-15 3.95318 -3.81372e-17 0.0395139)
(-4.32498 15.1243 1.73182e-15 4.28746 1.02321e-16 0.0375187)
(-4.63372 14.5281 -3.18835e-16 4.59501 -8.54261e-17 0.0387183)
(-4.85563 13.1077 -6.0167e-15 4.82905 -1.10429e-15 0.0265742)
(0.000545265 -0.000343953 4.73405e-22 -0.000508744 1.61693e-21 -3.65211e-05)
(0.000477436 -0.000435441 2.09281e-20 -0.000433488 5.78679e-20 -4.39481e-05)
(0.000376351 -0.000517946 -1.53169e-20 -0.000321027 -3.04417e-20 -5.53235e-05)
(0.000268454 -0.000560834 -2.64299e-20 -0.0002027 -5.16942e-20 -6.57536e-05)
(0.000159043 -0.000570604 1.06374e-19 -8.46727e-05 1.89579e-19 -7.43705e-05)
(5.26697e-05 -0.00055241 4.1126e-20 3.05064e-05 6.52531e-20 -8.31761e-05)
(-3.28281e-05 -0.000508214 1.89293e-19 0.000123824 1.83113e-19 -9.09958e-05)
(-9.49107e-05 -0.000448044 -8.66344e-20 0.000191586 -2.1746e-20 -9.66758e-05)
(-0.000135261 -0.000382085 1.33357e-19 0.000236304 1.01765e-19 -0.000101043)
(-0.000152959 -0.000317787 3.0583e-21 0.0002568 1.76743e-21 -0.000103842)
(-0.000154355 -0.000260325 -1.97808e-19 0.000259399 -1.68414e-19 -0.000105044)
(-0.000144938 -0.000213256 2.52716e-19 0.000250429 2.94541e-19 -0.000105491)
(-0.000128104 -0.000177688 1.45413e-19 0.000233204 7.661e-20 -0.0001051)
(-0.000108711 -0.000156206 -2.35517e-20 0.000212784 1.16509e-20 -0.000104073)
(-9.19676e-05 -0.000158734 -1.18313e-19 0.00020124 1.45331e-20 -0.000109272)
(-7.78612e-05 -0.000201899 1.95589e-19 0.000210376 2.05543e-19 -0.000132515)
(-5.57495e-05 -0.00038744 2.669e-19 0.000276312 -2.95428e-19 -0.000220563)
(7.91335e-05 -0.00106719 -2.04816e-18 0.000402127 -2.25743e-18 -0.000481261)
(0.000631776 -0.00275189 4.27297e-19 0.000273984 3.08493e-18 -0.00090576)
(0.00242707 -0.00767092 3.99071e-18 -0.000701408 -9.88913e-19 -0.00172567)
(0.00676656 -0.0193705 7.09627e-18 -0.0039817 3.01422e-18 -0.00278486)
(0.0232979 -0.0672626 -1.43376e-17 -0.0175321 -9.61078e-18 -0.00576589)
(0.0572312 -0.180641 3.7573e-17 -0.0486732 5.9401e-17 -0.00855807)
(0.176862 -0.657947 1.38663e-18 -0.160556 -4.90473e-17 -0.016306)
(0.404789 -1.88268 -1.61408e-16 -0.384286 6.75056e-17 -0.0205029)
(0.56955 -3.52884 -8.38681e-17 -0.564594 -3.80343e-16 -0.00495651)
(0.572015 -5.27141 -3.368e-18 -0.591853 5.09794e-17 0.0198382)
(0.370001 -6.68558 -2.22346e-16 -0.407299 -3.48661e-16 0.0372985)
(0.011464 -7.07453 -3.61611e-16 -0.0516568 -2.20818e-15 0.0401928)
(-0.305362 -6.44498 -1.07522e-16 0.284076 -2.87497e-15 0.0212854)
(-0.45556 -5.44974 3.36059e-16 0.46294 3.77507e-15 -0.00737982)
(-0.465552 -4.48399 -6.01245e-16 0.491292 2.90565e-16 -0.02574)
(-0.414714 -3.59538 -3.6231e-15 0.442044 6.7911e-16 -0.0273307)
(-0.347194 -2.82175 4.56792e-15 0.370521 1.41626e-14 -0.0233266)
(-0.31548 -2.14223 -7.11772e-16 0.322631 -1.87036e-15 -0.00715123)
(-0.030176 -1.15719 3.81891e-16 0.0590275 -1.7967e-15 -0.0288515)
(0.0348982 -1.15941 4.68304e-16 -0.0423593 1.02363e-15 0.0074611)
(-0.600834 -2.29993 1.66122e-16 0.476811 1.25979e-14 0.124023)
(-1.29393 -0.543362 -8.47408e-15 1.19033 -2.35374e-14 0.103604)
(0.000591026 -0.000230048 9.29749e-21 -0.000562995 6.15662e-21 -2.80318e-05)
(0.000608911 -0.000112908 -1.28596e-20 -0.000586409 -1.09671e-19 -2.25017e-05)
(0.000594583 2.57581e-05 -2.41807e-20 -0.000582403 -2.7042e-20 -1.218e-05)
(0.000533792 0.000170209 -1.45981e-20 -0.000531161 1.84125e-19 -2.63049e-06)
(0.000425939 0.000290438 2.75988e-20 -0.000431427 -5.51771e-21 5.4886e-06)
(0.000298959 0.000362727 6.23046e-21 -0.000309723 -2.30978e-19 1.07641e-05)
(0.000180335 0.000390712 -5.1763e-20 -0.000193674 -1.72547e-19 1.33385e-05)
(5.67721e-05 0.000384336 -2.63595e-19 -6.60476e-05 1.07247e-19 9.27554e-06)
(-5.12589e-05 0.000339104 6.25222e-20 5.04487e-05 1.01592e-19 8.1024e-07)
(-0.000120825 0.000271145 -3.40988e-20 0.000129048 -5.86539e-20 -8.2229e-06)
(-0.00015161 0.000201855 -4.36478e-20 0.000167084 -4.93004e-20 -1.54733e-05)
(-0.000155588 0.000143627 -4.93314e-20 0.000175996 -3.9508e-20 -2.04087e-05)
(-0.000144551 9.95647e-05 -4.89299e-21 0.000167908 1.66917e-20 -2.33572e-05)
(-0.000126347 6.92132e-05 2.80065e-20 0.000151066 5.75468e-20 -2.47192e-05)
(-0.000106561 5.00696e-05 5.75268e-20 0.000131366 8.23461e-21 -2.4805e-05)
(-8.8459e-05 3.84864e-05 -9.81708e-20 0.000112452 1.112e-20 -2.39928e-05)
(-7.28422e-05 3.18494e-05 9.88079e-20 9.54698e-05 -6.96031e-21 -2.26276e-05)
(-6.00325e-05 2.82161e-05 -1.83615e-20 8.10205e-05 -1.25504e-20 -2.09881e-05)
(-4.97096e-05 2.60541e-05 -4.50847e-20 6.89299e-05 3.405e-20 -1.92203e-05)
(-4.14711e-05 2.45601e-05 -3.37478e-20 5.89892e-05 1.76956e-20 -1.75182e-05)
(-3.49648e-05 2.32675e-05 -7.9875e-20 5.10037e-05 3.95896e-20 -1.60388e-05)
(-3.02881e-05 2.21978e-05 -1.0227e-19 4.53798e-05 2.80252e-20 -1.50917e-05)
(-2.74332e-05 2.1604e-05 -1.32183e-19 4.25262e-05 1.73216e-20 -1.5093e-05)
(-2.55233e-05 2.19098e-05 6.39046e-20 4.16036e-05 -6.43588e-21 -1.60804e-05)
(-5.05254e-05 5.14113e-05 -1.17873e-20 8.77317e-05 -5.05987e-21 -3.72063e-05)
(-0.000485465 0.000606923 1.17241e-18 0.000893751 -3.64639e-19 -0.000408285)
(-0.00288934 0.0042962 6.8638e-18 0.00554739 -7.94066e-21 -0.00265805)
(-0.0146807 0.0261261 1.27662e-18 0.0288849 2.68798e-18 -0.0142041)
(-0.0346997 0.0773206 -5.50314e-19 0.0686997 -9.13756e-19 -0.034)
(-0.0527422 0.150877 7.09921e-17 0.102368 1.73503e-17 -0.0496258)
(-0.0648184 0.230792 4.9972e-16 0.118942 -4.8899e-17 -0.0541241)
(-0.0732062 0.300362 3.02204e-16 0.122816 3.25478e-17 -0.0496098)
(-0.0819831 0.354099 2.0829e-15 0.123927 3.68153e-17 -0.0419437)
(-0.0932273 0.395532 2.94551e-15 0.128279 -7.03488e-16 -0.0350514)
(-0.107537 0.428679 -7.40029e-16 0.137635 2.83767e-16 -0.0300978)
(-0.123473 0.457288 -5.89022e-16 0.150773 7.98383e-17 -0.0272997)
(-0.144775 0.479238 -1.55026e-15 0.170142 3.88264e-16 -0.0253667)
(-0.157279 0.516169 -2.6717e-15 0.187489 -6.45328e-16 -0.0302105)
(-0.210624 0.594814 -1.77494e-15 0.220195 -6.42443e-16 -0.00957031)
(0.000355189 -0.000224799 3.08293e-21 -0.000369175 6.50545e-21 1.3986e-05)
(0.0002968 -0.000286921 -3.11906e-20 -0.000314974 -4.92736e-20 1.81738e-05)
(0.000216916 -0.000336767 -3.92064e-21 -0.000239442 -9.88246e-21 2.2526e-05)
(0.000124244 -0.000363042 2.94772e-20 -0.000152777 4.20062e-20 2.85333e-05)
(2.94866e-05 -0.000365889 -6.70123e-20 -6.31917e-05 -1.08748e-19 3.37051e-05)
(-6.34524e-05 -0.000343625 -6.96018e-20 2.43415e-05 -1.0803e-19 3.91109e-05)
(-0.000144805 -0.000298381 -1.51315e-19 9.97489e-05 -2.04242e-19 4.50561e-05)
(-0.000207653 -0.000237837 -9.35786e-21 0.000157485 -4.78825e-21 5.01679e-05)
(-0.000250685 -0.000167548 -8.31243e-20 0.000195847 -1.44686e-19 5.48379e-05)
(-0.000273229 -9.52582e-05 2.70923e-19 0.000214099 2.8657e-19 5.913e-05)
(-0.000277572 -2.66745e-05 -3.1156e-20 0.000215125 5.42716e-20 6.24474e-05)
(-0.000267429 3.47781e-05 3.88475e-20 0.000202311 2.06938e-20 6.51185e-05)
(-0.000246749 8.70037e-05 -2.13024e-19 0.000179668 -2.46867e-19 6.70806e-05)
(-0.000219676 0.000129495 1.22063e-19 0.000151703 -6.41737e-21 6.79727e-05)
(-0.000191134 0.000162852 4.15802e-20 0.000124274 1.09268e-19 6.686e-05)
(-0.000166732 0.000191232 5.41795e-20 0.000101467 2.35579e-20 6.52654e-05)
(-0.000139596 0.00020419 -2.41829e-19 8.03086e-05 -1.35626e-19 5.92873e-05)
(-0.000116674 0.000210176 2.10678e-19 6.43439e-05 1.55352e-19 5.23298e-05)
(-7.89605e-05 0.000170724 5.49549e-20 4.26676e-05 7.82346e-22 3.6293e-05)
(-5.73317e-05 0.00014347 -1.78911e-19 3.15713e-05 -2.77194e-20 2.57605e-05)
(-0.000638962 0.00178214 2.2812e-18 0.000372428 -8.40847e-19 0.000266533)
(-0.00033946 0.00102296 4.61747e-20 0.000213931 5.82443e-19 0.000125529)
(-0.00175147 0.00599685 2.46394e-18 0.00113258 -3.44081e-18 0.000618896)
(7.55117e-06 0.00100329 -3.14677e-18 -0.00022321 -3.0408e-18 0.000215659)
(0.00436285 -0.0148278 3.16356e-18 -0.00414049 7.89657e-18 -0.000222363)
(0.01827 -0.0866533 -1.76501e-17 -0.0167531 3.56461e-18 -0.0015169)
(0.0533207 -0.354543 1.1452e-17 -0.0490453 9.89462e-19 -0.00427539)
(0.109576 -1.07306 -1.05289e-17 -0.101793 6.2192e-17 -0.00778249)
(0.152975 -2.55594 -4.5234e-16 -0.14345 2.1915e-16 -0.00952536)
(0.0831597 -4.46101 2.22019e-16 -0.0790974 3.20477e-16 -0.0040622)
(-0.113527 -5.62328 1.44516e-15 0.110347 -4.64629e-16 0.00317998)
(-0.272812 -5.61678 -2.35318e-15 0.273704 1.35188e-15 -0.000892333)
(-0.326377 -5.01639 4.38149e-17 0.33371 6.43783e-15 -0.0073329)
(-0.299751 -4.23933 1.09575e-16 0.310638 -4.33013e-15 -0.0108866)
(-0.296638 -3.44677 1.19857e-15 0.294118 -7.0568e-16 0.00251983)
(0.00248762 -2.38356 -3.69244e-15 0.0181201 -1.63516e-15 -0.0206077)
(-0.293163 -3.22402 -1.04364e-16 0.317985 -8.97038e-17 -0.024823)
(-1.23543 -4.39022 -4.92506e-15 1.26086 -1.04808e-14 -0.0254273)
(-1.93673 -1.18568 1.09982e-14 1.86969 -4.73732e-15 0.0670379)
(0.000398477 -0.000149356 -6.47189e-21 -0.000410406 -1.16869e-20 1.19288e-05)
(0.000422415 -7.092e-05 -1.36056e-20 -0.000430852 6.88844e-21 8.43779e-06)
(0.000427586 2.28744e-05 8.75881e-20 -0.000433642 1.08669e-19 6.05655e-06)
(0.000403523 0.000118432 4.65525e-21 -0.00040583 -6.66557e-20 2.3073e-06)
(0.000346255 0.000205291 1.52739e-21 -0.000346318 -8.28459e-20 6.3082e-08)
(0.00026266 0.000267737 -3.23927e-20 -0.000263166 9.92917e-20 5.05907e-07)
(0.000167824 0.000303815 6.62762e-20 -0.000169286 1.35557e-19 1.46134e-06)
(7.1971e-05 0.000309362 1.3562e-19 -7.27583e-05 8.16066e-20 7.87229e-07)
(-1.09468e-05 0.000281862 7.63618e-20 9.94935e-06 -9.51738e-20 9.9744e-07)
(-6.9882e-05 0.000232852 4.90794e-20 6.72766e-05 6.14284e-20 2.60542e-06)
(-0.000102601 0.000176765 -8.31942e-20 9.7702e-05 2.74442e-20 4.89873e-06)
(-0.000114206 0.000124309 5.01203e-22 0.000106918 4.56061e-20 7.28801e-06)
(-0.000111725 8.04388e-05 3.914e-20 0.000102163 -5.78692e-20 9.56233e-06)
(-0.000100939 4.67273e-05 1.34267e-19 8.93196e-05 -7.30481e-20 1.16196e-05)
(-8.69557e-05 2.28976e-05 -6.88766e-21 7.38702e-05 -3.80427e-21 1.30855e-05)
(-7.29271e-05 6.71695e-06 -9.34284e-21 5.87685e-05 3.23869e-20 1.41586e-05)
(-6.04534e-05 -3.74751e-06 1.06807e-19 4.56705e-05 -7.30979e-20 1.47828e-05)
(-5.00923e-05 -1.03913e-05 1.07821e-20 3.49976e-05 6.20552e-21 1.50948e-05)
(-4.1994e-05 -1.46788e-05 1.10892e-19 2.69088e-05 -1.63693e-20 1.50852e-05)
(-3.56401e-05 -1.78034e-05 1.15332e-19 2.06571e-05 4.63897e-22 1.4983e-05)
(-3.05955e-05 -2.03987e-05 2.93427e-19 1.58201e-05 -4.53823e-20 1.47754e-05)
(-2.62054e-05 -2.31122e-05 3.60304e-19 1.15595e-05 -5.53756e-20 1.46459e-05)
(-2.16266e-05 -2.62732e-05 1.99102e-19 6.99161e-06 -1.39096e-20 1.4635e-05)
(-1.53429e-05 -2.93846e-05 4.23226e-20 1.32228e-07 -3.182e-21 1.52107e-05)
(-7.32058e-06 -3.0421e-05 -4.99498e-20 -8.90727e-06 3.09343e-21 1.62279e-05)
(4.90779e-07 -2.87963e-05 1.95688e-19 -1.76957e-05 -9.09853e-22 1.7205e-05)
(6.6956e-06 -2.46035e-05 -5.3691e-20 -2.4238e-05 9.70597e-21 1.75424e-05)
(9.50134e-06 -1.73757e-05 -3.67098e-20 -2.50259e-05 -3.48364e-22 1.55245e-05)
(0.000191003 -0.000201484 8.30447e-20 -0.000442574 1.00458e-20 0.000251571)
(0.000911705 -0.000361424 -2.66966e-18 -0.00198539 3.58722e-19 0.00107369)
(0.00216955 0.00129744 -1.40605e-17 -0.00463027 6.41377e-18 0.00246071)
(0.0027369 0.00851656 -7.77626e-17 -0.00617701 -3.03088e-18 0.00344011)
(0.00106617 0.0245851 -1.82058e-16 -0.00433341 4.771e-17 0.00326724)
(-0.00368759 0.0505299 -4.34268e-16 0.00158002 5.88295e-17 0.00210757)
(-0.0116797 0.0848297 -9.94355e-16 0.0110097 -3.33745e-16 0.000669969)
(-0.0216244 0.123409 2.29458e-16 0.0220831 1.70841e-16 -0.000458653)
(-0.0353309 0.164878 -1.15365e-15 0.0361486 -7.91693e-16 -0.000817676)
(-0.0344508 0.183347 3.44986e-15 0.0350293 4.71061e-16 -0.000578455)
(-0.0955655 0.321392 5.53991e-15 0.0958802 9.65169e-16 -0.000314721)
(0.000295208 -0.000183912 8.17168e-21 -0.000291185 1.08166e-20 -4.02286e-06)
(0.000259022 -0.000232932 -9.55188e-21 -0.000254215 -1.67227e-20 -4.80739e-06)
(0.000207742 -0.000277607 -5.09135e-21 -0.000200933 -1.03948e-20 -6.80986e-06)
(0.000147449 -0.000309907 5.76329e-20 -0.000138642 8.06289e-20 -8.80697e-06)
(8.26686e-05 -0.000326236 4.32081e-20 -7.15846e-05 6.69567e-20 -1.1084e-05)
(1.58219e-05 -0.000326157 6.29463e-20 -2.01807e-06 8.6099e-20 -1.38039e-05)
(-4.62864e-05 -0.000310368 8.23444e-20 6.2977e-05 8.95809e-20 -1.66906e-05)
(-9.8714e-05 -0.000281196 -4.10724e-20 0.000118389 -5.75893e-20 -1.96755e-05)
(-0.000139515 -0.000242502 -1.65442e-19 0.000162459 -1.55229e-19 -2.29441e-05)
(-0.000166812 -0.000199049 1.93318e-19 0.000192809 1.13193e-19 -2.59971e-05)
(-0.000181235 -0.000154661 1.75091e-19 0.00021023 1.43995e-19 -2.89949e-05)
(-0.00018456 -0.000112589 2.30874e-19 0.000216329 1.16578e-19 -3.17695e-05)
(-0.000178989 -7.51506e-05 -3.5616e-19 0.000213293 -1.25056e-19 -3.43041e-05)
(-0.000166656 -4.33791e-05 -3.31015e-19 0.000203057 -2.13592e-19 -3.64001e-05)
(-0.000149711 -1.77392e-05 4.1344e-19 0.000187534 1.35571e-19 -3.78234e-05)
(-0.000129618 1.2581e-06 9.19112e-20 0.000168279 5.21222e-20 -3.86609e-05)
(-0.000107335 1.64931e-05 -6.04741e-20 0.000145 6.19524e-21 -3.76653e-05)
(-8.44289e-05 2.84349e-05 -2.1586e-19 0.000119749 -1.3541e-19 -3.53206e-05)
(-6.19423e-05 3.80168e-05 4.84257e-20 9.27704e-05 -1.9275e-20 -3.08281e-05)
(-4.14691e-05 4.40875e-05 2.29945e-19 6.53838e-05 7.11374e-20 -2.39148e-05)
(-2.47553e-05 4.38591e-05 -2.55077e-19 3.94975e-05 -7.29584e-20 -1.47422e-05)
(-2.53042e-05 6.51842e-05 1.46853e-19 3.77995e-05 2.04338e-20 -1.24953e-05)
(-2.30339e-05 7.69551e-05 -3.73332e-20 3.10258e-05 -8.31688e-21 -7.99185e-06)
(-0.000333565 0.00150617 -1.31062e-18 0.000425389 5.61528e-19 -9.18245e-05)
(-0.000529059 0.00393288 2.11286e-18 0.000708313 -5.63479e-19 -0.000179254)
(-0.000306149 0.00894387 -4.59786e-18 0.000704721 5.33726e-18 -0.000398572)
(3.56889e-05 0.000293532 -1.54783e-21 -1.87413e-05 -5.24652e-21 -1.69476e-05)
(0.00196544 -0.000560739 3.34091e-18 -0.00164686 -9.45462e-19 -0.000318578)
(0.0135823 -0.0680257 1.13033e-17 -0.0124516 2.68184e-17 -0.00113071)
(0.0579223 -0.602076 8.1472e-17 -0.0545009 -1.93441e-16 -0.00342139)
(0.100022 -2.26546 -1.25617e-16 -0.0956287 -6.32823e-16 -0.00439341)
(0.026948 -4.34993 3.16935e-15 -0.0259389 7.54953e-16 -0.00100903)
(-0.111226 -5.40384 3.18729e-15 0.110095 5.23413e-16 0.00113081)
(-0.169707 -5.30834 -9.76345e-16 0.170407 -1.37767e-15 -0.000700242)
(-0.21262 -4.69175 -4.77273e-15 0.203196 1.52515e-16 0.00942374)
(0.0407431 -3.56527 1.92126e-15 -0.0305789 4.24279e-15 -0.0101642)
(-0.358497 -4.35756 -1.93302e-15 0.372822 -3.37266e-15 -0.0143247)
(-1.28276 -5.6068 3.94746e-15 1.33565 -6.19798e-15 -0.0528824)
(-2.07129 -2.15285 -6.63897e-15 2.00106 8.83129e-15 0.0702266)
(0.000320121 -0.000125762 -1.4659e-20 -0.000318231 -2.34824e-20 -1.8902e-06)
(0.000332838 -6.60565e-05 -9.19626e-21 -0.000331585 3.56763e-20 -1.25322e-06)
(0.000331447 5.0225e-06 4.61299e-20 -0.00033214 5.75308e-20 6.92867e-07)
(0.000312068 7.71857e-05 -3.53798e-20 -0.000312549 1.40459e-20 4.80866e-07)
(0.000272569 0.000143671 1.71547e-20 -0.000272512 9.11556e-20 -5.65208e-08)
(0.000216125 0.000195813 7.36574e-20 -0.000216 -5.26688e-20 -1.24628e-07)
(0.00014842 0.00022919 4.57153e-20 -0.000149026 -1.64065e-21 6.06024e-07)
(7.68409e-05 0.000239186 -1.12456e-19 -7.77585e-05 -6.16945e-20 9.17588e-07)
(1.18239e-05 0.000226293 -4.82114e-20 -1.27394e-05 4.66344e-21 9.15483e-07)
(-3.92483e-05 0.000197286 1.54774e-19 3.86096e-05 1.36684e-20 6.38618e-07)
(-7.31798e-05 0.000160506 4.83483e-20 7.33022e-05 -7.19243e-21 -1.22489e-07)
(-9.13548e-05 0.000123266 7.24959e-20 9.25965e-05 -3.94583e-20 -1.2417e-06)
(-9.74663e-05 8.99975e-05 -1.47782e-19 9.99368e-05 -2.65307e-20 -2.47047e-06)
(-9.5442e-05 6.28122e-05 -1.43561e-19 9.91341e-05 3.65601e-20 -3.69213e-06)
(-8.88352e-05 4.23629e-05 2.45815e-20 9.37389e-05 2.10405e-20 -4.9037e-06)
(-8.03924e-05 2.76641e-05 3.848e-20 8.63151e-05 -1.09613e-20 -5.92279e-06)
(-7.18098e-05 1.75255e-05 -1.21944e-19 7.85655e-05 9.54196e-21 -6.75567e-06)
(-6.39541e-05 1.06382e-05 4.10005e-21 7.13292e-05 -1.1082e-20 -7.37516e-06)
(-5.72494e-05 5.84157e-06 -4.04031e-20 6.50747e-05 -1.06022e-22 -7.82528e-06)
(-5.16221e-05 2.12954e-06 9.85613e-20 5.96866e-05 -3.46803e-20 -8.06457e-06)
(-4.68953e-05 -1.08686e-06 -1.12279e-19 5.50921e-05 -3.0358e-21 -8.19684e-06)
(-4.27052e-05 -4.30925e-06 -2.05777e-19 5.09434e-05 1.08343e-20 -8.23821e-06)
(-3.85285e-05 -7.80743e-06 2.22272e-20 4.67813e-05 -1.0094e-20 -8.25284e-06)
(-3.35896e-05 -1.12201e-05 6.14517e-20 4.18022e-05 -9.76345e-21 -8.21251e-06)
(-2.81533e-05 -1.3256e-05 1.60236e-19 3.65257e-05 -1.2791e-20 -8.3724e-06)
(-2.33126e-05 -1.35665e-05 -1.57417e-19 3.21814e-05 1.75923e-20 -8.86881e-06)
(-2.01303e-05 -1.34049e-05 -2.35248e-20 2.98365e-05 -5.90128e-21 -9.7062e-06)
(-1.67907e-05 -1.22973e-05 1.61212e-20 2.67432e-05 -4.43675e-21 -9.95255e-06)
(-1.32756e-05 -1.0568e-05 -7.48983e-21 2.26442e-05 8.57027e-22 -9.36859e-06)
(-1.39407e-05 -1.22883e-05 -1.35898e-20 2.53433e-05 -1.15934e-20 -1.14026e-05)
(-4.70901e-06 -4.82592e-06 -1.01337e-20 9.15378e-06 -7.41979e-21 -4.44476e-06)
(-2.82227e-06 -3.48979e-06 3.79083e-20 6.05157e-06 3.15983e-21 -3.2293e-06)
(-4.33365e-05 -6.12846e-05 3.66845e-18 0.000116348 1.05702e-18 -7.3011e-05)
(1.62674e-06 0.000104131 3.05733e-17 0.000124051 -4.19139e-19 -0.000125677)
(0.000202952 0.00133277 1.10033e-16 -0.0001734 -1.07909e-17 -2.95516e-05)
(0.00045176 0.00521252 -2.19072e-16 -0.000746064 -1.06975e-17 0.000294304)
(-0.000169985 0.0150075 9.04277e-16 -0.000741035 1.12213e-16 0.00091102)
(0.000380498 0.027608 -5.83295e-16 -0.00144131 -1.8284e-17 0.00106081)
(-0.0139385 0.0959391 -6.67134e-16 0.0105524 1.34956e-16 0.00338609)
(0.000224583 -0.000140192 -1.37663e-20 -0.000225769 -1.45627e-20 1.18621e-06)
(0.000195527 -0.000176839 1.79266e-21 -0.000197532 3.58998e-22 2.00481e-06)
(0.00015574 -0.000209927 1.70789e-20 -0.000158092 2.04686e-20 2.35202e-06)
(0.000108396 -0.000233457 -9.63718e-20 -0.00011157 -1.04791e-19 3.17346e-06)
(5.6929e-05 -0.000245117 -7.11e-20 -6.10842e-05 -8.20776e-20 4.15521e-06)
(3.26637e-06 -0.000244074 1.5708e-19 -8.35791e-06 1.66169e-19 5.09155e-06)
(-4.77438e-05 -0.000230121 -1.61121e-19 4.13988e-05 -1.74118e-19 6.34502e-06)
(-9.22823e-05 -0.000204748 -6.62754e-20 8.45405e-05 -5.19133e-20 7.74176e-06)
(-0.00012796 -0.000170406 -1.6931e-19 0.000118797 -1.25323e-19 9.16341e-06)
(-0.000152992 -0.000130595 -3.9289e-20 0.000142175 -5.54444e-20 1.08169e-05)
(-0.000167041 -8.85127e-05 2.26771e-20 0.000154546 -4.61796e-21 1.24956e-05)
(-0.000170787 -4.71157e-05 -1.31739e-19 0.00015657 -1.48406e-19 1.42171e-05)
(-0.000165603 -8.79474e-06 3.84565e-19 0.000149627 2.55131e-19 1.59759e-05)
(-0.000153228 2.48947e-05 -1.14959e-19 0.000135475 -1.95898e-20 1.77528e-05)
(-0.00013547 5.28514e-05 -3.13051e-19 0.000116019 -1.3905e-19 1.94506e-05)
(-0.000114301 7.48277e-05 2.00384e-19 9.32357e-05 1.06214e-20 2.10654e-05)
(-9.18525e-05 9.05948e-05 -1.50312e-19 6.97565e-05 -8.28733e-20 2.2096e-05)
(-6.99041e-05 9.93341e-05 3.25201e-21 4.81386e-05 1.0263e-19 2.17655e-05)
(-4.90508e-05 0.000101901 -3.42445e-20 2.86564e-05 -2.64725e-20 2.03945e-05)
(-2.98109e-05 9.85223e-05 -2.64025e-19 1.16407e-05 -1.72103e-19 1.81702e-05)
(-1.31873e-05 8.83605e-05 1.94782e-19 -1.6281e-06 1.79333e-19 1.48154e-05)
(-1.57933e-06 6.35067e-05 3.56316e-21 -7.59274e-06 -1.09156e-19 9.17207e-06)
(2.49175e-06 5.06e-05 3.57536e-20 -8.08139e-06 1.08213e-20 5.58964e-06)
(4.01644e-06 5.33381e-05 1.00503e-19 -8.02944e-06 -2.03986e-21 4.01299e-06)
(5.75103e-06 6.17178e-05 -3.43976e-20 -8.83008e-06 -1.03343e-20 3.07904e-06)
(7.91609e-06 6.97594e-05 1.13945e-19 -1.01518e-05 1.77815e-20 2.23573e-06)
(9.74789e-06 7.7583e-05 -4.94059e-21 -1.11662e-05 1.86985e-22 1.41835e-06)
(0.000362279 0.0027954 -4.66903e-19 -0.000386879 -2.39284e-19 2.46003e-05)
(0.00197188 0.0124918 7.16543e-19 -0.00203738 2.90585e-18 6.54995e-05)
(0.000628792 0.00115756 -9.8123e-18 -0.000636516 4.54019e-19 7.72352e-06)
(0.0275805 -0.117898 -1.1549e-16 -0.0273735 1.09345e-17 -0.000207009)
(0.106675 -1.34424 2.87398e-16 -0.105102 -8.41237e-16 -0.00157294)
(0.107572 -3.76554 2.83416e-15 -0.105757 -1.80321e-15 -0.00181514)
(0.0303329 -5.39306 -6.87966e-15 -0.0279634 2.04269e-16 -0.00236947)
(-0.0693337 -5.65804 5.75838e-15 0.0630484 2.15016e-15 0.00628535)
(0.0729565 -4.77572 -1.10614e-15 -0.0620134 -4.3909e-17 -0.0109431)
(-0.386289 -5.31597 -8.77891e-16 0.387232 5.94877e-15 -0.000943539)
(-1.12468 -6.53809 -5.22398e-16 1.16158 9.9239e-15 -0.0368981)
(-1.91571 -3.56031 1.14051e-14 1.84353 -5.81204e-15 0.0721756)
(0.000245248 -9.74944e-05 9.68327e-21 -0.000246594 -1.95476e-21 1.34554e-06)
(0.000257141 -5.32616e-05 -3.40602e-20 -0.000257793 -3.10031e-20 6.52151e-07)
(0.000258812 -6.64036e-07 -3.20498e-21 -0.000259811 1.81826e-20 9.98824e-07)
(0.000246649 5.36621e-05 2.71068e-20 -0.00024678 -8.03095e-20 1.30839e-07)
(0.000219543 0.00010477 -1.76147e-19 -0.000219137 -1.70303e-19 -4.05487e-07)
(0.000179412 0.00014688 -1.64271e-19 -0.000179045 1.08512e-19 -3.6682e-07)
(0.000129516 0.000176462 2.18986e-19 -0.000129635 5.79365e-20 1.19069e-07)
(7.54208e-05 0.000189266 -9.63996e-20 -7.56186e-05 -1.25321e-19 1.97867e-07)
(2.4487e-05 0.000185041 -6.84653e-20 -2.46558e-05 2.05934e-20 1.68864e-07)
(-1.79431e-05 0.000167511 -4.26851e-20 1.76776e-05 -7.70571e-20 2.65528e-07)
(-4.86071e-05 0.000141784 6.92814e-21 4.82161e-05 2.97672e-20 3.90962e-07)
(-6.72888e-05 0.000113191 -4.61926e-20 6.67144e-05 -3.08523e-20 5.74411e-07)
(-7.58833e-05 8.56435e-05 -9.82888e-20 7.50044e-05 8.98826e-20 8.78879e-07)
(-7.69586e-05 6.14545e-05 1.1145e-19 7.56733e-05 1.83495e-20 1.28527e-06)
(-7.31097e-05 4.18069e-05 7.54392e-20 7.13744e-05 -2.95703e-20 1.7353e-06)
(-6.66766e-05 2.6647e-05 -1.53961e-20 6.44514e-05 -1.88548e-20 2.22526e-06)
(-5.93257e-05 1.5396e-05 4.41363e-20 5.66025e-05 1.43835e-21 2.72321e-06)
(-5.21093e-05 7.19951e-06 -7.43618e-20 4.89183e-05 1.78012e-20 3.19105e-06)
(-4.56103e-05 1.2106e-06 5.26299e-20 4.2022e-05 -5.67304e-21 3.58827e-06)
(-3.99727e-05 -3.37433e-06 -6.31496e-20 3.60513e-05 -9.92143e-21 3.92142e-06)
(-3.51204e-05 -7.14158e-06 6.89825e-20 3.09581e-05 -4.19123e-21 4.16233e-06)
(-3.07543e-05 -1.0548e-05 7.98004e-20 2.64207e-05 3.22167e-22 4.3336e-06)
(-2.64129e-05 -1.38278e-05 -1.40988e-20 2.19739e-05 4.50289e-21 4.43902e-06)
(-2.14088e-05 -1.6746e-05 -1.59353e-19 1.68161e-05 1.1862e-20 4.59278e-06)
(-1.57439e-05 -1.84126e-05 -5.24974e-20 1.09559e-05 3.88504e-21 4.78804e-06)
(-1.03398e-05 -1.85524e-05 -1.66915e-20 5.39548e-06 -6.48454e-21 4.94434e-06)
(-5.63958e-06 -1.77661e-05 6.41053e-20 4.04941e-07 -3.60335e-21 5.23464e-06)
(-1.65006e-06 -1.66027e-05 8.59894e-22 -4.0353e-06 1.26189e-21 5.68536e-06)
(1.67309e-06 -1.48259e-05 -2.70485e-21 -7.66532e-06 -1.13632e-21 5.99222e-06)
(4.30429e-06 -1.35721e-05 4.25171e-20 -1.06436e-05 4.67203e-21 6.33926e-06)
(5.82155e-06 -1.20087e-05 2.74513e-20 -1.18155e-05 1.80228e-21 5.99392e-06)
(3.92763e-06 -6.54062e-06 -9.57063e-20 -7.09853e-06 -1.20768e-20 3.1709e-06)
(3.12276e-05 -4.69542e-05 -1.85934e-18 -5.12355e-05 -9.5773e-20 2.00079e-05)
(0.00013466 -0.000193611 -1.66374e-18 -0.00019999 1.43546e-18 6.53301e-05)
(6.72562e-05 -9.33636e-05 5.27015e-19 -8.96519e-05 8.6593e-19 2.23957e-05)
(7.6709e-05 -9.57984e-05 -1.30777e-18 -8.99415e-05 -2.457e-18 1.32325e-05)
(0.000234399 -0.000200002 -2.04874e-17 -0.000247437 1.31122e-17 1.30386e-05)
(0.000455653 -0.000143821 5.36274e-17 -0.00041319 9.90313e-18 -4.24634e-05)
(0.0020012 0.00635559 -2.25301e-16 -0.00210841 -5.21191e-17 0.000107213)
(0.000181408 -0.00011409 1.26295e-20 -0.000181042 1.11562e-20 -3.65578e-07)
(0.000159984 -0.000143372 -2.9428e-20 -0.000159691 -2.60039e-20 -2.9283e-07)
(0.000130236 -0.000170602 -1.04143e-21 -0.000129627 -6.04543e-21 -6.09184e-07)
(9.4624e-05 -0.000191395 -7.65211e-21 -9.37924e-05 -1.12721e-20 -8.31592e-07)
(5.5522e-05 -0.000203739 8.90164e-20 -5.44718e-05 8.8825e-20 -1.0502e-06)
(1.38386e-05 -0.000207068 6.53208e-20 -1.23414e-05 5.71033e-20 -1.4972e-06)
(-2.68565e-05 -0.00020084 6.32007e-21 2.87838e-05 1.89842e-20 -1.9273e-06)
(-6.37246e-05 -0.000185734 1.71147e-19 6.61767e-05 1.51653e-19 -2.45208e-06)
(-9.49492e-05 -0.000163194 -1.52897e-20 9.81001e-05 1.42217e-21 -3.15096e-06)