/*--------------------------------*- C++ -*----------------------------------*\
| =========                 |                                                 |
| \\      /  F ield         | OpenFOAM: The Open Source CFD Toolbox           |
|  \\    /   O peration     | Version:  2306                                  |
|   \\  /    A nd           | Website:  www.openfoam.com                      |
|    \\/     M anipulation  |                                                 |
\*---------------------------------------------------------------------------*/
FoamFile
{
    version     2.0;
    format      ascii;
    arch        "LSB;label=32;scalar=64";
    class       volScalarField;
    location    "0.017";
    object      nuTilda;
}
// * * * * * * * * * * * * * * * * * * * * * * * * * * * * * * * * * * * * * //

dimensions      [0 2 -1 0 0 0 0];

internalField   nonuniform List<scalar> 
20000
(
0.00038442928
0.00092496435
0.0012070449
0.0012758957
0.0010816561
0.0005051352
5.7538834e-05
1.0448252e-05
1.0077048e-05
1.0049322e-05
1.0050187e-05
1.0038695e-05
1.003607e-05
1.0030412e-05
1.0027565e-05
1.0023984e-05
1.0021267e-05
1.0018533e-05
1.0016163e-05
1.001397e-05
1.0012066e-05
1.0010432e-05
1.000909e-05
1.000801e-05
1.0007158e-05
1.0006473e-05
1.0005917e-05
1.0005436e-05
1.0004992e-05
1.000457e-05
1.000421e-05
1.0003946e-05
1.0003755e-05
1.0003585e-05
1.0003404e-05
1.0003227e-05
1.0003099e-05
1.0002967e-05
1.000277e-05
1.0002551e-05
1.0002348e-05
1.0002091e-05
1.0001792e-05
1.0001502e-05
1.0001183e-05
1.0000903e-05
1.0000723e-05
1.0000576e-05
1.0000326e-05
1.0000212e-05
0.00038196716
0.00091234966
0.0011825258
0.0012373717
0.0010301187
0.000439436
4.4785431e-05
1.0293075e-05
1.007565e-05
1.0047993e-05
1.0049241e-05
1.0037836e-05
1.0035358e-05
1.0029823e-05
1.0027071e-05
1.002358e-05
1.0020932e-05
1.0018262e-05
1.001594e-05
1.0013786e-05
1.0011908e-05
1.0010291e-05
1.0008957e-05
1.0007881e-05
1.0007029e-05
1.0006342e-05
1.0005787e-05
1.0005315e-05
1.0004878e-05
1.0004465e-05
1.0004109e-05
1.0003849e-05
1.0003668e-05
1.0003509e-05
1.0003333e-05
1.0003168e-05
1.0003034e-05
1.0002904e-05
1.0002713e-05
1.0002488e-05
1.0002289e-05
1.0002045e-05
1.0001749e-05
1.0001468e-05
1.0001161e-05
1.0000883e-05
1.0000697e-05
1.0000558e-05
1.0000329e-05
1.0000217e-05
0.00037977885
0.00090062869
0.0011590725
0.0011989407
0.00097621244
0.00037481667
3.4560653e-05
1.0195138e-05
1.0074242e-05
1.0046705e-05
1.0048073e-05
1.0036965e-05
1.0034612e-05
1.0029223e-05
1.0026564e-05
1.0023172e-05
1.0020599e-05
1.0017999e-05
1.0015736e-05
1.0013633e-05
1.0011797e-05
1.0010215e-05
1.000891e-05
1.0007857e-05
1.0007024e-05
1.000635e-05
1.0005808e-05
1.0005343e-05
1.000491e-05
1.0004492e-05
1.0004126e-05
1.0003856e-05
1.000367e-05
1.0003506e-05
1.0003329e-05
1.0003156e-05
1.0003013e-05
1.0002878e-05
1.0002687e-05
1.0002457e-05
1.0002257e-05
1.000202e-05
1.0001725e-05
1.0001448e-05
1.0001152e-05
1.0000877e-05
1.0000683e-05
1.0000543e-05
1.0000327e-05
1.0000215e-05
0.00037759194
0.00088891386
0.0011362932
0.0011623302
0.0009210535
0.00031623237
2.7003495e-05
1.0135141e-05
1.0072983e-05
1.0045443e-05
1.0047022e-05
1.0036116e-05
1.0033883e-05
1.0028637e-05
1.0026065e-05
1.0022768e-05
1.0020263e-05
1.0017732e-05
1.0015521e-05
1.0013464e-05
1.0011662e-05
1.0010107e-05
1.0008822e-05
1.0007785e-05
1.0006963e-05
1.0006296e-05
1.0005759e-05
1.0005302e-05
1.0004878e-05
1.0004466e-05
1.0004097e-05
1.000382e-05
1.000363e-05
1.000347e-05
1.0003297e-05
1.0003124e-05
1.0002974e-05
1.0002837e-05
1.0002647e-05
1.0002412e-05
1.0002211e-05
1.0001984e-05
1.0001692e-05
1.0001418e-05
1.0001133e-05
1.0000864e-05
1.0000666e-05
1.0000525e-05
1.0000319e-05
1.0000211e-05
0.00037541557
0.00087690475
0.0011122956
0.0011233653
0.00086353663
0.000263262
2.1518019e-05
1.0098522e-05
1.0071866e-05
1.0044215e-05
1.0045931e-05
1.0035281e-05
1.0033162e-05
1.002806e-05
1.0025572e-05
1.002237e-05
1.0019935e-05
1.0017469e-05
1.0015313e-05
1.0013302e-05
1.0011537e-05
1.0010011e-05
1.000875e-05
1.000773e-05
1.000692e-05
1.0006262e-05
1.0005734e-05
1.0005284e-05
1.0004866e-05
1.0004458e-05
1.0004085e-05
1.00038e-05
1.0003604e-05
1.0003444e-05
1.0003273e-05
1.0003099e-05
1.0002945e-05
1.0002804e-05
1.0002614e-05
1.0002374e-05
1.0002169e-05
1.0001951e-05
1.0001662e-05
1.0001391e-05
1.0001115e-05
1.0000852e-05
1.0000652e-05
1.0000507e-05
1.000031e-05
1.0000203e-05
0.00037329286
0.00086506545
0.0010884566
0.0010851779
0.00080391919
0.00021688258
1.7665763e-05
1.0075347e-05
1.0070758e-05
1.0043017e-05
1.0044891e-05
1.0034462e-05
1.003245e-05
1.0027493e-05
1.0025085e-05
1.0021976e-05
1.0019607e-05
1.0017209e-05
1.0015104e-05
1.0013139e-05
1.001141e-05
1.0009912e-05
1.0008672e-05
1.0007669e-05
1.0006871e-05
1.0006221e-05
1.00057e-05
1.0005257e-05
1.0004847e-05
1.0004444e-05
1.0004069e-05
1.0003775e-05
1.0003574e-05
1.0003414e-05
1.0003247e-05
1.0003072e-05
1.0002913e-05
1.0002768e-05
1.0002581e-05
1.0002337e-05
1.0002125e-05
1.0001915e-05
1.0001632e-05
1.0001361e-05
1.0001094e-05
1.0000838e-05
1.0000638e-05
1.000049e-05
1.00003e-05
1.0000191e-05
0.00037122407
0.00085326052
0.001064567
0.001046546
0.00074195392
0.0001774803
1.5015704e-05
1.0060682e-05
1.0069412e-05
1.004185e-05
1.0043868e-05
1.003366e-05
1.0031748e-05
1.0026935e-05
1.0024604e-05
1.0021588e-05
1.0019285e-05
1.0016951e-05
1.0014898e-05
1.0012978e-05
1.0011284e-05
1.0009814e-05
1.0008596e-05
1.000761e-05
1.0006824e-05
1.0006182e-05
1.0005667e-05
1.000523e-05
1.0004829e-05
1.0004431e-05
1.0004054e-05
1.0003753e-05
1.0003545e-05
1.0003384e-05
1.0003219e-05
1.0003045e-05
1.0002882e-05
1.0002734e-05
1.0002549e-05
1.0002301e-05
1.0002082e-05
1.0001879e-05
1.0001602e-05
1.0001332e-05
1.0001072e-05
1.0000823e-05
1.0000624e-05
1.0000473e-05
1.000029e-05
1.0000177e-05
0.00036920152
0.0008413588
0.0010405671
0.0010080746
0.00067811828
0.00014292303
1.3215342e-05
1.0051149e-05
1.0067365e-05
1.0040713e-05
1.0042872e-05
1.0032876e-05
1.0031056e-05
1.0026387e-05
1.0024129e-05
1.0021204e-05
1.0018965e-05
1.0016696e-05
1.0014693e-05
1.0012817e-05
1.0011158e-05
1.0009716e-05
1.0008519e-05
1.000755e-05
1.0006775e-05
1.0006142e-05
1.0005633e-05
1.0005203e-05
1.0004809e-05
1.0004417e-05
1.000404e-05
1.0003731e-05
1.0003517e-05
1.0003354e-05
1.0003192e-05
1.0003019e-05
1.0002851e-05
1.0002698e-05
1.0002517e-05
1.0002267e-05
1.0002039e-05
1.0001841e-05
1.0001572e-05
1.0001303e-05
1.0001049e-05
1.0000805e-05
1.0000609e-05
1.0000457e-05
1.0000281e-05
1.000016e-05
0.00036720698
0.00082917215
0.0010158405
0.00096780676
0.00061279818
0.00011340994
1.2031821e-05
1.0044766e-05
1.0066038e-05
1.0039609e-05
1.0041854e-05
1.0032107e-05
1.0030373e-05
1.0025848e-05
1.002366e-05
1.0020826e-05
1.0018649e-05
1.0016443e-05
1.001449e-05
1.0012658e-05
1.0011033e-05
1.0009619e-05
1.0008443e-05
1.0007491e-05
1.0006726e-05
1.0006101e-05
1.0005598e-05
1.0005173e-05
1.0004788e-05
1.0004403e-05
1.0004026e-05
1.000371e-05
1.0003489e-05
1.0003323e-05
1.0003162e-05
1.0002991e-05
1.0002821e-05
1.0002663e-05
1.0002484e-05
1.0002235e-05
1.0001996e-05
1.0001802e-05
1.0001541e-05
1.0001273e-05
1.0001025e-05
1.0000785e-05
1.0000593e-05
1.0000441e-05
1.0000273e-05
1.0000145e-05
0.00036522013
0.00081675722
0.00099024863
0.0009268429
0.00054705113
8.8557191e-05
1.1276057e-05
1.0040363e-05
1.0064536e-05
1.0038533e-05
1.0040794e-05
1.0031352e-05
1.00297e-05
1.0025319e-05
1.0023198e-05
1.0020453e-05
1.0018337e-05
1.0016194e-05
1.0014289e-05
1.00125e-05
1.0010908e-05
1.0009522e-05
1.0008367e-05
1.0007431e-05
1.0006677e-05
1.0006061e-05
1.0005562e-05
1.0005144e-05
1.0004766e-05
1.0004388e-05
1.0004012e-05
1.0003691e-05
1.0003461e-05
1.0003293e-05
1.0003133e-05
1.0002964e-05
1.0002791e-05
1.0002627e-05
1.0002451e-05
1.0002204e-05
1.0001955e-05
1.0001761e-05
1.0001511e-05
1.0001244e-05
1.0001e-05
1.0000764e-05
1.0000576e-05
1.0000427e-05
1.0000265e-05
1.0000132e-05
0.00036327705
0.00080432062
0.00096376885
0.00088636048
0.00048181376
6.8265324e-05
1.0806941e-05
1.0037184e-05
1.0063091e-05
1.0037489e-05
1.0039725e-05
1.0030611e-05
1.0029036e-05
1.0024799e-05
1.0022742e-05
1.0020084e-05
1.0018029e-05
1.0015946e-05
1.0014089e-05
1.0012343e-05
1.0010785e-05
1.0009426e-05
1.0008292e-05
1.0007372e-05
1.0006627e-05
1.0006019e-05
1.0005525e-05
1.0005112e-05
1.0004742e-05
1.0004372e-05
1.0003998e-05
1.0003671e-05
1.0003434e-05
1.0003262e-05
1.0003102e-05
1.0002935e-05
1.0002761e-05
1.0002592e-05
1.0002417e-05
1.0002174e-05
1.0001916e-05
1.000172e-05
1.000148e-05
1.0001215e-05
1.0000976e-05
1.0000743e-05
1.0000559e-05
1.0000413e-05
1.0000257e-05
1.0000121e-05
0.00036139141
0.00079220129
0.00093880451
0.00084557773
0.00041808326
5.2177508e-05
1.0520593e-05
1.003476e-05
1.0061722e-05
1.0036476e-05
1.0038772e-05
1.0029886e-05
1.0028382e-05
1.0024288e-05
1.0022293e-05
1.0019721e-05
1.0017723e-05
1.0015702e-05
1.0013892e-05
1.0012187e-05
1.0010662e-05
1.000933e-05
1.0008216e-05
1.0007312e-05
1.0006577e-05
1.0005978e-05
1.0005488e-05
1.000508e-05
1.0004717e-05
1.0004356e-05
1.0003985e-05
1.0003653e-05
1.0003407e-05
1.0003231e-05
1.0003072e-05
1.0002906e-05
1.0002732e-05
1.0002557e-05
1.0002381e-05
1.0002145e-05
1.0001879e-05
1.0001679e-05
1.0001448e-05
1.0001187e-05
1.0000952e-05
1.0000723e-05
1.0000542e-05
1.0000399e-05
1.0000249e-05
1.0000113e-05
0.00035946978
0.00077971891
0.00091292585
0.00080368827
0.00035733921
3.9801542e-05
1.0348795e-05
1.00328e-05
1.0060313e-05
1.0035496e-05
1.0037963e-05
1.0029182e-05
1.0027738e-05
1.0023786e-05
1.0021849e-05
1.0019362e-05
1.0017422e-05
1.001546e-05
1.0013696e-05
1.0012033e-05
1.0010541e-05
1.0009235e-05
1.0008142e-05
1.0007252e-05
1.0006527e-05
1.0005935e-05
1.000545e-05
1.0005046e-05
1.000469e-05
1.0004338e-05
1.0003971e-05
1.0003635e-05
1.0003381e-05
1.00032e-05
1.0003039e-05
1.0002875e-05
1.0002702e-05
1.0002523e-05
1.0002345e-05
1.0002116e-05
1.0001844e-05
1.0001637e-05
1.0001417e-05
1.0001159e-05
1.0000929e-05
1.0000703e-05
1.0000525e-05
1.0000385e-05
1.000024e-05
1.0000105e-05
0.00035750592
0.00076695501
0.00088642139
0.00076014896
0.00030184209
3.0581704e-05
1.0247322e-05
1.0031139e-05
1.0058899e-05
1.0034548e-05
1.0037129e-05
1.0028497e-05
1.0027103e-05
1.0023293e-05
1.0021412e-05
1.0019008e-05
1.0017125e-05
1.0015222e-05
1.0013502e-05
1.001188e-05
1.0010421e-05
1.0009141e-05
1.0008067e-05
1.0007193e-05
1.0006477e-05
1.0005893e-05
1.0005412e-05
1.0005013e-05
1.0004664e-05
1.0004319e-05
1.0003958e-05
1.0003618e-05
1.0003355e-05
1.0003169e-05
1.0003007e-05
1.0002844e-05
1.0002672e-05
1.0002488e-05
1.0002308e-05
1.0002085e-05
1.0001812e-05
1.0001597e-05
1.0001385e-05
1.0001132e-05
1.0000905e-05
1.0000683e-05
1.0000509e-05
1.0000371e-05
1.0000232e-05
1.0000098e-05
0.00035549359
0.00075397931
0.00085929181
0.00071470317
0.00025146659
2.3891453e-05
1.0187343e-05
1.0029683e-05
1.0057486e-05
1.0033629e-05
1.003607e-05
1.0027823e-05
1.0026478e-05
1.0022809e-05
1.0020982e-05
1.001866e-05
1.0016832e-05
1.0014985e-05
1.0013311e-05
1.0011728e-05
1.0010302e-05
1.0009048e-05
1.0007994e-05
1.0007134e-05
1.0006427e-05
1.000585e-05
1.0005372e-05
1.0004977e-05
1.0004634e-05
1.0004299e-05
1.0003943e-05
1.0003601e-05
1.000333e-05
1.0003137e-05
1.0002974e-05
1.0002811e-05
1.0002641e-05
1.0002454e-05
1.0002269e-05
1.0002054e-05
1.0001781e-05
1.0001557e-05
1.0001353e-05
1.0001106e-05
1.0000882e-05
1.0000663e-05
1.0000492e-05
1.0000358e-05
1.0000223e-05
1.0000091e-05
0.00035346269
0.00074098312
0.00083166008
0.00066878462
0.0002065677
1.9193428e-05
1.0150997e-05
1.0028378e-05
1.0056069e-05
1.0032736e-05
1.0034872e-05
1.0027156e-05
1.0025863e-05
1.0022333e-05
1.0020558e-05
1.0018318e-05
1.0016543e-05
1.0014752e-05
1.0013121e-05
1.0011578e-05
1.0010184e-05
1.0008956e-05
1.0007921e-05
1.0007075e-05
1.0006377e-05
1.0005807e-05
1.0005334e-05
1.0004941e-05
1.0004604e-05
1.0004277e-05
1.0003929e-05
1.0003584e-05
1.0003306e-05
1.0003107e-05
1.0002941e-05
1.0002777e-05
1.0002608e-05
1.000242e-05
1.000223e-05
1.0002022e-05
1.0001752e-05
1.0001519e-05
1.0001321e-05
1.0001081e-05
1.0000858e-05
1.0000644e-05
1.0000476e-05
1.0000345e-05
1.0000214e-05
1.0000085e-05
0.00035146112
0.0007282238
0.00080375951
0.00062045567
0.00016785088
1.598706e-05
1.0128627e-05
1.0027189e-05
1.0054663e-05
1.0031873e-05
1.003399e-05
1.0026503e-05
1.0025258e-05
1.0021865e-05
1.0020142e-05
1.001798e-05
1.0016257e-05
1.0014521e-05
1.0012934e-05
1.001143e-05
1.0010068e-05
1.0008865e-05
1.0007849e-05
1.0007015e-05
1.0006326e-05
1.0005762e-05
1.0005293e-05
1.0004904e-05
1.0004572e-05
1.0004254e-05
1.0003913e-05
1.0003568e-05
1.0003282e-05
1.0003076e-05
1.0002907e-05
1.0002743e-05
1.0002576e-05
1.0002386e-05
1.000219e-05
1.0001987e-05
1.0001724e-05
1.0001483e-05
1.0001289e-05
1.0001057e-05
1.0000835e-05
1.0000624e-05
1.0000461e-05
1.0000332e-05
1.0000206e-05
1.0000078e-05
0.0003495631
0.00071592847
0.00077736042
0.00056995414
0.00013538476
1.3842185e-05
1.0114375e-05
1.0026104e-05
1.0053261e-05
1.0031043e-05
1.003338e-05
1.0025875e-05
1.0024662e-05
1.0021406e-05
1.0019731e-05
1.0017648e-05
1.0015975e-05
1.0014292e-05
1.0012749e-05
1.0011283e-05
1.0009953e-05
1.0008775e-05
1.0007778e-05
1.0006957e-05
1.0006277e-05
1.0005719e-05
1.0005254e-05
1.0004867e-05
1.000454e-05
1.000423e-05
1.0003897e-05
1.0003552e-05
1.0003259e-05
1.0003046e-05
1.0002874e-05
1.0002708e-05
1.0002542e-05
1.0002352e-05
1.000215e-05
1.000195e-05
1.0001695e-05
1.0001448e-05
1.0001257e-05
1.0001032e-05
1.0000811e-05
1.0000605e-05
1.0000445e-05
1.0000319e-05
1.0000197e-05
1.0000072e-05
0.00034773587
0.00070374489
0.00075198396
0.00051723076
0.00010736235
1.2427916e-05
1.0104979e-05
1.0025112e-05
1.0051876e-05
1.0030247e-05
1.0032646e-05
1.0025266e-05
1.0024076e-05
1.0020954e-05
1.0019328e-05
1.001732e-05
1.0015697e-05
1.0014067e-05
1.0012566e-05
1.0011139e-05
1.000984e-05
1.0008687e-05
1.0007708e-05
1.0006898e-05
1.0006226e-05
1.0005674e-05
1.0005212e-05
1.0004827e-05
1.0004505e-05
1.0004203e-05
1.0003879e-05
1.0003537e-05
1.0003237e-05
1.0003016e-05
1.000284e-05
1.0002671e-05
1.0002507e-05
1.0002319e-05
1.0002109e-05
1.000191e-05
1.0001666e-05
1.0001415e-05
1.0001225e-05
1.0001009e-05
1.0000788e-05
1.0000587e-05
1.000043e-05
1.0000306e-05
1.0000191e-05
1.0000065e-05
0.00034597474
0.00069146411
0.00072553859
0.0004626523
8.4005865e-05
1.1526733e-05
1.0098511e-05
1.0024213e-05
1.0050499e-05
1.0029475e-05
1.0031632e-05
1.0024665e-05
1.00235e-05
1.0020511e-05
1.0018931e-05
1.0016997e-05
1.0015423e-05
1.0013845e-05
1.0012385e-05
1.0010997e-05
1.0009728e-05
1.00086e-05
1.000764e-05
1.000684e-05
1.0006177e-05
1.0005631e-05
1.0005172e-05
1.0004789e-05
1.0004469e-05
1.0004176e-05
1.0003861e-05
1.0003522e-05
1.0003216e-05
1.0002988e-05
1.0002808e-05
1.0002636e-05
1.0002471e-05
1.0002285e-05
1.000207e-05
1.0001867e-05
1.0001634e-05
1.0001382e-05
1.0001192e-05
1.0000985e-05
1.0000764e-05
1.0000568e-05
1.0000415e-05
1.0000294e-05
1.0000183e-05
1.000006e-05
0.00034432606
0.00067930409
0.00069923241
0.00040734089
6.4809776e-05
1.0966047e-05
1.0093779e-05
1.0023411e-05
1.0049131e-05
1.0028725e-05
1.0030569e-05
1.0024068e-05
1.0022933e-05
1.0020074e-05
1.0018541e-05
1.0016679e-05
1.0015153e-05
1.0013626e-05
1.0012208e-05
1.0010856e-05
1.0009619e-05
1.0008514e-05
1.0007572e-05
1.000678e-05
1.0006127e-05
1.0005586e-05
1.000513e-05
1.0004749e-05
1.0004432e-05
1.0004146e-05
1.0003841e-05
1.0003506e-05
1.0003195e-05
1.0002959e-05
1.0002774e-05
1.00026e-05
1.0002434e-05
1.0002251e-05
1.0002031e-05
1.0001823e-05
1.00016e-05
1.000135e-05
1.0001159e-05
1.000096e-05
1.0000742e-05
1.000055e-05
1.00004e-05
1.0000282e-05
1.0000173e-05
1.0000055e-05
0.00034269083
0.00066667499
0.00067233277
0.00035262411
4.9605738e-05
1.0626435e-05
1.0090067e-05
1.0022726e-05
1.0047767e-05
1.0028002e-05
1.0029725e-05
1.0023484e-05
1.0022375e-05
1.0019645e-05
1.0018157e-05
1.0016367e-05
1.0014887e-05
1.001341e-05
1.0012033e-05
1.0010718e-05
1.0009512e-05
1.000843e-05
1.0007506e-05
1.0006723e-05
1.0006079e-05
1.0005543e-05
1.000509e-05
1.000471e-05
1.0004394e-05
1.0004114e-05
1.0003819e-05
1.0003491e-05
1.0003176e-05
1.0002932e-05
1.0002744e-05
1.0002564e-05
1.0002396e-05
1.0002217e-05
1.0001993e-05
1.0001778e-05
1.0001564e-05
1.0001319e-05
1.0001126e-05
1.0000935e-05
1.0000719e-05
1.0000533e-05
1.0000385e-05
1.0000269e-05
1.0000163e-05
1.0000051e-05
0.00034100598
0.00065301835
0.00064456812
0.00030138405
3.7950971e-05
1.0422838e-05
1.0086909e-05
1.0022224e-05
1.00464e-05
1.0027309e-05
1.0029087e-05
1.002292e-05
1.0021827e-05
1.0019222e-05
1.001778e-05
1.0016059e-05
1.0014625e-05
1.0013197e-05
1.001186e-05
1.0010583e-05
1.0009406e-05
1.0008348e-05
1.0007439e-05
1.0006665e-05
1.0006028e-05
1.0005497e-05
1.0005047e-05
1.0004668e-05
1.0004355e-05
1.0004081e-05
1.0003796e-05
1.0003474e-05
1.0003156e-05
1.0002904e-05
1.0002711e-05
1.0002529e-05
1.0002357e-05
1.0002181e-05
1.0001957e-05
1.0001733e-05
1.0001524e-05
1.0001286e-05
1.0001092e-05
1.000091e-05
1.0000697e-05
1.0000515e-05
1.0000371e-05
1.0000258e-05
1.0000153e-05
1.0000046e-05
0.00033916897
0.00063823339
0.00061527266
0.00025447971
2.9271615e-05
1.0300624e-05
1.0084099e-05
1.0022153e-05
1.0045013e-05
1.0026642e-05
1.0028449e-05
1.0022374e-05
1.0021288e-05
1.0018807e-05
1.0017408e-05
1.0015756e-05
1.0014368e-05
1.0012988e-05
1.001169e-05
1.001045e-05
1.0009303e-05
1.0008269e-05
1.0007375e-05
1.000661e-05
1.000598e-05
1.0005454e-05
1.0005007e-05
1.0004629e-05
1.0004315e-05
1.0004045e-05
1.0003771e-05
1.0003457e-05
1.0003137e-05
1.0002879e-05
1.0002681e-05
1.0002495e-05
1.0002318e-05
1.0002145e-05
1.0001922e-05
1.0001689e-05
1.0001483e-05
1.0001253e-05
1.0001059e-05
1.0000884e-05
1.0000675e-05
1.0000498e-05
1.0000357e-05
1.0000246e-05
1.0000143e-05
1.0000041e-05
0.00033710194
0.00062191852
0.00058228077
0.00021165733
2.3027113e-05
1.0228331e-05
1.0081587e-05
1.0022488e-05
1.0043598e-05
1.0025999e-05
1.0027627e-05
1.0021837e-05
1.0020757e-05
1.0018397e-05
1.0017044e-05
1.0015458e-05
1.0014115e-05
1.0012782e-05
1.0011524e-05
1.001032e-05
1.0009201e-05
1.0008191e-05
1.000731e-05
1.0006554e-05
1.000593e-05
1.0005408e-05
1.0004965e-05
1.0004587e-05
1.0004274e-05
1.0004009e-05
1.0003744e-05
1.000344e-05
1.0003119e-05
1.0002852e-05
1.000265e-05
1.0002461e-05
1.000228e-05
1.0002108e-05
1.0001889e-05
1.0001647e-05
1.000144e-05
1.0001219e-05
1.0001025e-05
1.0000857e-05
1.0000655e-05
1.0000482e-05
1.0000343e-05
1.0000234e-05
1.0000134e-05
1.0000035e-05
0.00033479728
0.00060423777
0.00054456885
0.00017377755
1.8672544e-05
1.0184909e-05
1.0079177e-05
1.0022891e-05
1.0042213e-05
1.0025372e-05
1.0026663e-05
1.0021303e-05
1.0020236e-05
1.0017994e-05
1.0016685e-05
1.0015165e-05
1.0013867e-05
1.0012579e-05
1.0011361e-05
1.0010193e-05
1.0009104e-05
1.0008116e-05
1.0007248e-05
1.0006501e-05
1.0005884e-05
1.0005366e-05
1.0004925e-05
1.0004548e-05
1.0004234e-05
1.000397e-05
1.0003715e-05
1.0003421e-05
1.0003104e-05
1.0002828e-05
1.000262e-05
1.0002428e-05
1.0002241e-05
1.000207e-05
1.0001857e-05
1.0001608e-05
1.0001397e-05
1.0001185e-05
1.0000992e-05
1.000083e-05
1.0000635e-05
1.0000465e-05
1.0000329e-05
1.0000223e-05
1.0000125e-05
1.0000029e-05
0.00033230633
0.0005857047
0.00050283111
0.00014144472
1.5714369e-05
1.0158394e-05
1.0076638e-05
1.0023295e-05
1.0040928e-05
1.0024766e-05
1.0025839e-05
1.0020775e-05
1.0019724e-05
1.0017597e-05
1.0016332e-05
1.0014878e-05
1.0013623e-05
1.001238e-05
1.0011201e-05
1.0010069e-05
1.0009007e-05
1.0008042e-05
1.0007186e-05
1.0006447e-05
1.0005834e-05
1.000532e-05
1.0004883e-05
1.0004507e-05
1.0004192e-05
1.0003931e-05
1.0003684e-05
1.0003401e-05
1.0003085e-05
1.0002804e-05
1.000259e-05
1.0002397e-05
1.0002204e-05
1.0002031e-05
1.0001825e-05
1.0001573e-05
1.0001355e-05
1.000115e-05
1.0000959e-05
1.0000803e-05
1.0000616e-05
1.0000449e-05
1.0000316e-05
1.0000213e-05
1.0000116e-05
1.0000024e-05
0.00032965912
0.0005665901
0.00045828741
0.00011503907
1.3739202e-05
1.0141648e-05
1.0074057e-05
1.0023541e-05
1.003968e-05
1.0024182e-05
1.0025231e-05
1.0020265e-05
1.0019221e-05
1.0017205e-05
1.0015986e-05
1.0014595e-05
1.0013383e-05
1.0012186e-05
1.0011046e-05
1.0009948e-05
1.0008916e-05
1.0007971e-05
1.0007127e-05
1.0006397e-05
1.0005788e-05
1.0005278e-05
1.0004843e-05
1.0004467e-05
1.0004151e-05
1.0003889e-05
1.000365e-05
1.000338e-05
1.0003069e-05
1.0002781e-05
1.000256e-05
1.0002365e-05
1.0002167e-05
1.0001992e-05
1.0001794e-05
1.0001541e-05
1.0001316e-05
1.0001116e-05
1.0000928e-05
1.0000777e-05
1.0000597e-05
1.0000432e-05
1.0000303e-05
1.0000202e-05
1.0000108e-05
1.000002e-05
0.00032675384
0.00054649152
0.00041582437
9.1919679e-05
1.2421899e-05
1.0130652e-05
1.0071458e-05
1.0023328e-05
1.0038452e-05
1.002362e-05
1.0024674e-05
1.0019773e-05
1.0018727e-05
1.001682e-05
1.0015646e-05
1.0014317e-05
1.0013148e-05
1.0011995e-05
1.0010893e-05
1.000983e-05
1.0008826e-05
1.0007901e-05
1.0007067e-05
1.0006344e-05
1.000574e-05
1.0005233e-05
1.0004801e-05
1.0004427e-05
1.0004108e-05
1.0003847e-05
1.0003614e-05
1.0003355e-05
1.000305e-05
1.0002758e-05
1.000253e-05
1.0002335e-05
1.0002133e-05
1.0001953e-05
1.0001763e-05
1.0001513e-05
1.0001281e-05
1.0001083e-05
1.0000897e-05
1.000075e-05
1.0000579e-05
1.0000416e-05
1.000029e-05
1.0000192e-05
1.0000101e-05
1.0000017e-05
0.00032362638
0.00052465334
0.00037166083
7.2345453e-05
1.1576234e-05
1.0123111e-05
1.0068853e-05
1.0022946e-05
1.0037246e-05
1.0023076e-05
1.0023957e-05
1.001929e-05
1.0018241e-05
1.001644e-05
1.0015312e-05
1.0014045e-05
1.0012918e-05
1.0011809e-05
1.0010746e-05
1.0009718e-05
1.000874e-05
1.0007835e-05
1.0007011e-05
1.0006297e-05
1.0005695e-05
1.0005192e-05
1.0004762e-05
1.0004387e-05
1.0004066e-05
1.0003802e-05
1.0003575e-05
1.0003328e-05
1.0003033e-05
1.0002736e-05
1.0002501e-05
1.0002304e-05
1.0002099e-05
1.0001914e-05
1.000173e-05
1.0001488e-05
1.000125e-05
1.0001053e-05
1.0000869e-05
1.0000723e-05
1.0000562e-05
1.0000401e-05
1.0000278e-05
1.0000181e-05
1.0000095e-05
1.0000017e-05
0.00032082625
0.00050550048
0.00032773342
5.6298043e-05
1.1048781e-05
1.0117614e-05
1.0066256e-05
1.0022485e-05
1.0036061e-05
1.0022544e-05
1.0023092e-05
1.0018806e-05
1.0017766e-05
1.0016065e-05
1.0014985e-05
1.0013776e-05
1.0012693e-05
1.0011626e-05
1.0010602e-05
1.0009607e-05
1.0008656e-05
1.0007768e-05
1.0006955e-05
1.0006246e-05
1.0005648e-05
1.0005148e-05
1.0004721e-05
1.0004348e-05
1.0004024e-05
1.0003757e-05
1.0003533e-05
1.0003298e-05
1.0003013e-05
1.0002715e-05
1.0002472e-05
1.0002274e-05
1.0002068e-05
1.0001876e-05
1.0001697e-05
1.0001465e-05
1.0001224e-05
1.0001026e-05
1.0000843e-05
1.0000697e-05
1.0000544e-05
1.0000386e-05
1.0000265e-05
1.0000171e-05
1.0000088e-05
1.0000018e-05
0.0003180899
0.00048552303
0.00028423582
4.3483382e-05
1.0721523e-05
1.0113304e-05
1.006367e-05
1.0021973e-05
1.0034896e-05
1.0022021e-05
1.0022367e-05
1.0018329e-05
1.0017299e-05
1.0015698e-05
1.0014663e-05
1.0013512e-05
1.0012473e-05
1.0011449e-05
1.0010464e-05
1.0009502e-05
1.0008577e-05
1.0007707e-05
1.0006903e-05
1.0006201e-05
1.0005605e-05
1.0005107e-05
1.0004683e-05
1.0004309e-05
1.0003982e-05
1.0003711e-05
1.0003488e-05
1.0003265e-05
1.0002992e-05
1.0002694e-05
1.0002443e-05
1.0002243e-05
1.0002037e-05
1.0001839e-05
1.0001662e-05
1.0001442e-05
1.0001202e-05
1.0001003e-05
1.000082e-05
1.0000672e-05
1.0000525e-05
1.0000372e-05
1.0000253e-05
1.0000162e-05
1.0000082e-05
1.0000019e-05
0.00031562923
0.00046507251
0.00024239577
3.3586377e-05
1.052317e-05
1.010968e-05
1.0061099e-05
1.0021426e-05
1.0033751e-05
1.0021513e-05
1.0021841e-05
1.0017872e-05
1.0016844e-05
1.0015336e-05
1.0014346e-05
1.0013254e-05
1.0012257e-05
1.0011277e-05
1.0010329e-05
1.00094e-05
1.0008499e-05
1.0007645e-05
1.000685e-05
1.0006153e-05
1.0005559e-05
1.0005063e-05
1.0004642e-05
1.000427e-05
1.000394e-05
1.0003664e-05
1.0003441e-05
1.0003228e-05
1.0002968e-05
1.0002674e-05
1.0002416e-05
1.0002212e-05
1.0002007e-05
1.0001803e-05
1.0001627e-05
1.0001419e-05
1.0001183e-05
1.0000983e-05
1.00008e-05
1.0000647e-05
1.0000506e-05
1.0000358e-05
1.0000241e-05
1.0000152e-05
1.0000077e-05
1.0000022e-05
0.00031360361
0.00044395964
0.00020320833
2.622823e-05
1.0404029e-05
1.0106446e-05
1.0058542e-05
1.0020862e-05
1.0032629e-05
1.0021022e-05
1.0021265e-05
1.0017429e-05
1.0016398e-05
1.001498e-05
1.0014036e-05
1.0013e-05
1.0012047e-05
1.0011111e-05
1.00102e-05
1.0009304e-05
1.0008426e-05
1.0007588e-05
1.0006803e-05
1.000611e-05
1.0005518e-05
1.0005023e-05
1.0004604e-05
1.0004232e-05
1.0003899e-05
1.0003617e-05
1.0003393e-05
1.0003188e-05
1.0002943e-05
1.0002653e-05
1.0002388e-05
1.0002181e-05
1.0001978e-05
1.0001769e-05
1.000159e-05
1.0001393e-05
1.0001165e-05
1.0000965e-05
1.0000783e-05
1.0000625e-05
1.0000486e-05
1.0000344e-05
1.0000229e-05
1.0000143e-05
1.0000071e-05
1.0000024e-05
0.00031211756
0.00042345311
0.00016840982
2.1008262e-05
1.0330075e-05
1.0103453e-05
1.0056007e-05
1.0020286e-05
1.0031529e-05
1.0020542e-05
1.0020564e-05
1.0016989e-05
1.0015962e-05
1.0014629e-05
1.0013732e-05
1.0012752e-05
1.0011843e-05
1.001095e-05
1.0010076e-05
1.000921e-05
1.0008354e-05
1.000753e-05
1.0006754e-05
1.0006065e-05
1.0005474e-05
1.0004981e-05
1.0004565e-05
1.0004195e-05
1.0003859e-05
1.000357e-05
1.0003341e-05
1.0003143e-05
1.0002913e-05
1.0002633e-05
1.0002363e-05
1.000215e-05
1.0001948e-05
1.0001736e-05
1.0001552e-05
1.0001366e-05
1.0001145e-05
1.0000948e-05
1.0000767e-05
1.0000604e-05
1.0000465e-05
1.0000329e-05
1.0000218e-05
1.0000134e-05
1.0000066e-05
1.0000025e-05
0.00031074343
0.00039856218
0.00013744987
1.7377753e-05
1.0282849e-05
1.0100645e-05
1.0053501e-05
1.0019703e-05
1.0030451e-05
1.0020069e-05
1.00199e-05
1.0016555e-05
1.0015536e-05
1.0014284e-05
1.0013434e-05
1.001251e-05
1.0011646e-05
1.0010796e-05
1.000996e-05
1.0009122e-05
1.0008289e-05
1.0007479e-05
1.0006712e-05
1.0006024e-05
1.0005434e-05
1.0004942e-05
1.0004527e-05
1.0004158e-05
1.0003819e-05
1.0003523e-05
1.0003289e-05
1.0003096e-05
1.0002881e-05
1.000261e-05
1.0002337e-05
1.0002119e-05
1.0001919e-05
1.0001705e-05
1.0001514e-05
1.0001335e-05
1.0001124e-05
1.0000929e-05
1.0000752e-05
1.0000585e-05
1.0000445e-05
1.0000314e-05
1.0000207e-05
1.0000125e-05
1.0000061e-05
1.0000026e-05
0.00030957306
0.00037161092
0.0001109711
1.4930994e-05
1.0251239e-05
1.0097998e-05
1.0051032e-05
1.0019119e-05
1.0029396e-05
1.0019604e-05
1.0019337e-05
1.0016135e-05
1.001512e-05
1.0013945e-05
1.0013142e-05
1.0012274e-05
1.0011455e-05
1.0010647e-05
1.0009848e-05
1.0009036e-05
1.0008224e-05
1.0007424e-05
1.0006666e-05
1.0005982e-05
1.0005393e-05
1.0004902e-05
1.0004489e-05
1.0004121e-05
1.000378e-05
1.0003477e-05
1.0003235e-05
1.0003044e-05
1.0002842e-05
1.0002586e-05
1.0002314e-05
1.0002088e-05
1.000189e-05
1.0001674e-05
1.0001477e-05
1.0001301e-05
1.0001099e-05
1.0000908e-05
1.0000735e-05
1.0000567e-05
1.0000426e-05
1.0000299e-05
1.0000196e-05
1.0000116e-05
1.0000056e-05
1.0000026e-05
0.0003082921
0.00034098078
8.9456276e-05
1.3315652e-05
1.0228815e-05
1.0095509e-05
1.0048602e-05
1.0018538e-05
1.0028366e-05
1.0019148e-05
1.001877e-05
1.0015727e-05
1.0014714e-05
1.0013612e-05
1.0012858e-05
1.0012045e-05
1.0011273e-05
1.0010507e-05
1.0009743e-05
1.0008956e-05
1.0008167e-05
1.0007377e-05
1.0006628e-05
1.0005946e-05
1.0005356e-05
1.0004864e-05
1.0004452e-05
1.0004085e-05
1.0003743e-05
1.0003432e-05
1.0003182e-05
1.000299e-05
1.0002801e-05
1.0002559e-05
1.0002289e-05
1.0002059e-05
1.000186e-05
1.0001645e-05
1.000144e-05
1.0001265e-05
1.0001072e-05
1.0000884e-05
1.0000717e-05
1.000055e-05
1.0000409e-05
1.0000285e-05
1.0000186e-05
1.0000108e-05
1.0000052e-05
1.0000026e-05
0.00030675622
0.00030789167
7.1424367e-05
1.2251802e-05
1.0211792e-05
1.0093218e-05
1.0046213e-05
1.0017971e-05
1.0027359e-05
1.0018695e-05
1.0018169e-05
1.001533e-05
1.0014318e-05
1.0013287e-05
1.0012581e-05
1.0011826e-05
1.0011097e-05
1.0010374e-05
1.0009641e-05
1.0008879e-05
1.0008106e-05
1.0007328e-05
1.0006585e-05
1.0005906e-05
1.0005317e-05
1.0004826e-05
1.0004415e-05
1.000405e-05
1.0003706e-05
1.0003388e-05
1.0003127e-05
1.0002932e-05
1.0002753e-05
1.0002529e-05
1.0002266e-05
1.0002031e-05
1.0001831e-05
1.0001617e-05
1.0001405e-05
1.0001227e-05
1.0001042e-05
1.0000859e-05
1.0000697e-05
1.0000533e-05
1.0000394e-05
1.0000272e-05
1.0000176e-05
1.00001e-05
1.0000047e-05
1.0000026e-05
0.00030448053
0.00027169777
5.6684957e-05
1.1567e-05
1.0198134e-05
1.0090906e-05
1.0043872e-05
1.0017426e-05
1.0026372e-05
1.0018243e-05
1.0017566e-05
1.001495e-05
1.0013935e-05
1.0012968e-05
1.0012311e-05
1.0011614e-05
1.0010932e-05
1.0010251e-05
1.0009547e-05
1.000881e-05
1.0008054e-05
1.0007285e-05
1.000655e-05
1.0005873e-05
1.0005283e-05
1.0004791e-05
1.0004379e-05
1.0004015e-05
1.0003671e-05
1.0003347e-05
1.0003076e-05
1.0002873e-05
1.0002701e-05
1.0002493e-05
1.000224e-05
1.0002004e-05
1.0001803e-05
1.0001589e-05
1.0001371e-05
1.0001189e-05
1.000101e-05
1.0000832e-05
1.0000676e-05
1.0000517e-05
1.0000381e-05
1.000026e-05
1.0000166e-05
1.0000092e-05
1.0000043e-05
1.0000025e-05
0.00030145769
0.00022986221
4.511315e-05
1.1133835e-05
1.0186482e-05
1.0088635e-05
1.0041577e-05
1.0016916e-05
1.0025399e-05
1.0017802e-05
1.0017004e-05
1.0014578e-05
1.0013564e-05
1.0012658e-05
1.0012052e-05
1.0011412e-05
1.0010775e-05
1.0010132e-05
1.0009456e-05
1.000874e-05
1.0007999e-05
1.0007239e-05
1.0006511e-05
1.0005837e-05
1.0005249e-05
1.0004755e-05
1.0004343e-05
1.0003981e-05
1.0003636e-05
1.0003307e-05
1.0003023e-05
1.0002812e-05
1.0002645e-05
1.0002453e-05
1.0002213e-05
1.0001978e-05
1.0001776e-05
1.0001564e-05
1.0001339e-05
1.0001151e-05
1.0000978e-05
1.0000806e-05
1.0000656e-05
1.0000501e-05
1.0000368e-05
1.0000248e-05
1.0000156e-05
1.0000084e-05
1.0000039e-05
1.0000024e-05
0.00029879761
0.00020011241
3.6539234e-05
1.0854744e-05
1.0175882e-05
1.0086378e-05
1.0039322e-05
1.0016466e-05
1.0024444e-05
1.0017372e-05
1.0016497e-05
1.0014216e-05
1.0013206e-05
1.0012357e-05
1.0011802e-05
1.001122e-05
1.0010631e-05
1.0010024e-05
1.0009376e-05
1.0008679e-05
1.0007951e-05
1.0007201e-05
1.0006479e-05
1.0005808e-05
1.0005219e-05
1.0004722e-05
1.0004308e-05
1.0003947e-05
1.0003603e-05
1.000327e-05
1.0002976e-05
1.0002753e-05
1.0002585e-05
1.0002406e-05
1.0002183e-05
1.0001953e-05
1.000175e-05
1.0001539e-05
1.0001311e-05
1.0001116e-05
1.0000946e-05
1.0000781e-05
1.0000638e-05
1.0000488e-05
1.0000354e-05