/*--------------------------------*- C++ -*----------------------------------*\
| =========                 |                                                 |
| \\      /  F ield         | OpenFOAM: The Open Source CFD Toolbox           |
|  \\    /   O peration     | Version:  2306                                  |
|   \\  /    A nd           | Website:  www.openfoam.com                      |
|    \\/     M anipulation  |                                                 |
\*---------------------------------------------------------------------------*/
FoamFile
{
    version     2.0;
    format      ascii;
    arch        "LSB;label=32;scalar=64";
    class       volScalarField;
    location    "0.017";
    object      p;
}
// * * * * * * * * * * * * * * * * * * * * * * * * * * * * * * * * * * * * * //

dimensions      [1 -1 -2 0 0 0 0];

internalField   nonuniform List<scalar> 
20000
(
99824.49
99826.315
99828.186
99831.01
99834.852
99839.962
99846.389
99853.983
99863.077
99873.943
99886.7
99902.012
99919.748
99940.909
99965.241
99993.827
100026.4
100063.82
100105.74
100152.41
100203.02
100256.75
100311.74
100365.75
100415.73
100458.5
100491.24
100511.74
100518.91
100513.64
100497.34
100472.29
100440.88
100405.16
100367.41
100330.6
100294.92
100261.3
100231.03
100202.66
100175.72
100151.9
100131.86
100114.71
100101.56
100086.08
100069.92
100061.34
100057.81
100071.07
99839.671
99841.72
99843.639
99846.584
99850.635
99856.016
99862.782
99870.736
99880.2
99891.483
99904.674
99920.508
99938.798
99960.619
99985.664
100015.08
100048.55
100086.98
100129.93
100177.66
100229.25
100283.79
100339.29
100393.34
100442.72
100484.19
100515.01
100532.77
100536.98
100528.63
100509.42
100481.77
100448.19
100410.74
100371.73
100333.97
100297.57
100263.37
100232.64
100203.98
100176.91
100152.97
100132.75
100115.45
100102.18
100086.38
100070.15
100061.62
100058.61
100070.86
99856.986
99859.045
99861.07
99864.12
99868.331
99873.881
99880.844
99889.068
99898.855
99910.524
99924.133
99940.485
99959.337
99981.838
100007.63
100037.9
100072.31
100111.75
100155.77
100204.57
100257.14
100312.47
100368.42
100422.41
100471.05
100511.07
100539.71
100554.49
100555.59
100543.99
100521.72
100491.39
100455.55
100416.34
100376.04
100337.32
100300.21
100265.41
100234.21
100205.29
100178.08
100154.02
100133.63
100116.18
100102.8
100086.66
100070.38
100061.97
100059.37
100070.69
99875.735
99877.818
99879.948
99883.113
99887.501
99893.239
99900.436
99908.919
99919.02
99931.084
99945.121
99962.01
99981.445
100004.65
100031.21
100062.38
100097.75
100138.25
100183.36
100233.25
100286.81
100342.91
100399.24
100453.05
100500.78
100539.18
100565.34
100576.96
100574.72
100559.68
100534.2
100501.06
100462.9
100421.87
100380.25
100340.57
100302.75
100267.37
100235.7
100206.52
100179.18
100155.02
100134.46
100116.89
100103.39
100086.88
100070.6
100062.36
100059.96
100070.55
99895.849
99897.998
99900.251
99903.559
99908.163
99914.135
99921.604
99930.359
99940.771
99953.234
99967.703
99985.14
100005.17
100029.1
100056.45
100088.54
100124.91
100166.5
100212.74
100263.73
100318.28
100375.11
100431.76
100485.25
100531.91
100568.47
100591.84
100600.11
100594.28
100575.62
100546.8
100510.76
100470.22
100427.32
100384.36
100343.71
100305.19
100269.23
100237.11
100207.68
100180.24
100155.97
100135.26
100117.58
100103.96
100087.07
100070.83
100062.79
100060.54
100070.45
99917.539
99919.76
99922.136
99925.583
99930.402
99936.599
99944.318
99953.367
99964.105
99976.982
99991.895
100009.9
100030.54
100055.21
100083.39
100116.43
100153.84
100196.55
100243.94
100296.05
100351.59
100409.12
100465.99
100519.03
100564.42
100598.91
100619.14
100623.91
100614.23
100591.78
100559.49
100520.46
100477.46
100432.67
100388.34
100346.73
100307.51
100270.97
100238.41
100208.77
100181.24
100156.86
100136.02
100118.25
100104.51
100087.22
100071.05
100063.22
100061.11
100070.37
99940.821
99943.117
99945.616
99949.21
99954.252
99960.673
99968.637
99977.973
99989.032
100002.33
100017.7
100036.28
100057.56
100083.01
100112.05
100146.07
100184.56
100228.43
100277.01
100330.26
100386.77
100444.95
100501.95
100554.36
100598.32
100630.42
100647.22
100648.26
100634.5
100608.08
100572.2
100530.1
100484.61
100437.89
100392.19
100349.61
100309.7
100272.58
100239.59
100209.76
100182.16
100157.7
100136.73
100118.89
100105.03
100087.35
100071.28
100063.65
100061.65
100070.31
99965.558
99967.934
99970.548
99974.297
99979.57
99986.216
99994.436
100004.08
100015.49
100029.24
100045.09
100064.29
100086.24
100112.51
100142.45
100177.5
100217.11
100262.18
100311.98
100366.39
100423.86
100482.63
100539.63
100591.26
100633.55
100662.92
100676.06
100673.08
100655.01
100624.47
100584.88
100539.65
100491.62
100442.97
100395.89
100352.35
100311.75
100274.07
100240.65
100210.64
100182.99
100158.46
100137.39
100119.49
100105.54
100087.47
100071.51
100064.07
100062.15
100070.28
99991.6
99994.103
99996.836
100000.76
100006.3
100013.2
100021.71
100031.71
100043.5
100057.74
100074.1
100093.96
100116.62
100143.75
100174.63
100210.76
100251.54
100297.85
100348.91
100404.47
100462.89
100522.18
100579.05
100629.68
100670.09
100696.34
100705.6
100698.29
100675.71
100640.88
100597.48
100549.06
100498.48
100447.87
100399.42
100354.93
100313.66
100275.41
100241.58
100211.42
100183.73
100159.15
100137.98
100120.06
100106.01
100087.56
100071.73
100064.47
100062.61
100070.28
100019.2
100021.84
100024.71
100028.83
100034.63
100041.8
100050.59
100060.95
100073.12
100087.86
100104.76
100125.3
100148.71
100176.74
100208.61
100245.88
100287.88
100335.48
100387.82
100444.55
100503.88
100563.61
100620.2
100669.64
100707.86
100730.61
100735.75
100723.8
100696.49
100657.24
100609.95
100558.29
100505.14
100452.58
100402.77
100357.35
100315.42
100276.61
100242.37
100212.08
100184.38
100159.74
100138.5
100120.58
100106.45
100087.6
100071.94
100064.84
100063.02
100070.28
100048.38
100051.15
100054.12
100058.42
100064.49
100071.9
100080.98
100091.71
100104.28
100119.56
100137.05
100158.33
100182.54
100211.53
100244.46
100282.91
100326.18
100375.11
100428.76
100486.67
100546.87
100606.94
100663.08
100711.11
100746.79
100765.66
100766.42
100749.53
100717.3
100673.48
100622.23
100567.3
100511.57
100457.08
100405.92
100359.59
100317.01
100277.66
100243.03
100212.63
100184.93
100160.25
100138.94
100121.04
100106.85
100087.61
100072.12
100065.18
100063.41
100070.3
100078.7
100081.63
100084.76
100089.29
100095.66
100103.38
100112.83
100124.01
100137.05
100152.94
100171.05
100193.13
100218.19
100248.19
100282.23
100321.91
100366.51
100416.8
100471.79
100530.87
100591.89
100652.18
100707.66
100754.05
100786.77
100801.47
100797.49
100775.38
100738.02
100689.53
100634.25
100576.05
100517.74
100461.34
100408.85
100361.64
100318.44
100278.55
100243.56
100213.07
100185.39
100160.68
100139.31
100121.45
100107.21
100087.6
100072.27
100065.49
100063.77
100070.31
100110.97
100114.05
100117.31
100122.05
100128.68
100136.68
100146.47
100158.1
100171.62
100188.13
100206.89
100229.78
100255.72
100286.78
100321.96
100362.93
100408.9
100460.6
100516.95
100577.18
100638.96
100699.32
100753.94
100798.39
100827.7
100837.97
100828.84
100801.25
100758.59
100705.31
100645.98
100584.49
100523.63
100465.34
100411.57
100363.5
100319.69
100279.3
100243.98
100213.42
100185.77
100161.04
100139.62
100121.81
100107.55
100087.58
100072.39
100065.75
100064.1
100070.27
100144.91
100148.17
100151.57
100156.54
100163.47
100171.8
100181.94
100194.02
100208.02
100225.16
100244.59
100268.34
100295.2
100327.34
100363.73
100406.03
100453.41
100506.56
100564.28
100625.64
100688.1
100748.36
100801.89
100844.08
100869.5
100875.03
100860.37
100827.04
100778.9
100720.75
100657.33
100592.57
100529.2
100469.06
100414.04
100365.16
100320.75
100279.9
100244.21
100213.64
100186.08
100161.32
100139.88
100122.13
100107.86
100087.56
100072.48
100065.99
100064.4
100070.19
100180.39
100183.86
100187.44
100192.7
100199.98
100208.68
100219.19
100231.75
100246.25
100264.06
100284.19
100308.83
100336.66
100369.94
100407.58
100451.26
100500.11
100554.73
100613.83
100676.29
100739.32
100799.31
100851.5
100891.01
100912.08
100912.52
100891.96
100852.64
100798.87
100735.79
100668.28
100600.27
100534.42
100472.49
100416.26
100366.59
100321.64
100280.3
100244.28
100213.72
100186.25
100161.47
100140.02
100122.41
100108.13
100087.56
100072.54
100066.19
100064.68
100070.09
100217.81
100221.47
100225.21
100230.75
100238.35
100247.39
100258.28
100271.35
100286.38
100304.9
100325.76
100351.33
100380.17
100414.63
100453.57
100498.68
100549.04
100605.16
100665.65
100729.16
100792.64
100852.14
100902.71
100939.02
100955.42
100950.3
100923.49
100877.93
100818.4
100750.34
100678.75
100607.54
100539.27
100475.6
100418.22
100367.8
100322.36
100280.47
100244.22
100213.7
100186.3
100161.52
100140.06
100122.62
100108.29
100087.57
100072.6
100066.38
100064.94
100069.98
100256.92
100260.8
100264.73
100270.59
100278.57
100287.99
100299.3
100312.91
100328.48
100347.74
100369.36
100395.88
100425.75
100461.44
100501.73
100548.33
100600.25
100657.91
100719.78
100784.28
100848.05
100906.83
100955.45
100988.03
100999.38
100988.2
100954.82
100902.8
100837.4
100764.33
100688.69
100614.34
100543.72
100478.38
100419.89
100368.8
100322.86
100280.5
100244.02
100213.57
100186.28
100161.49
100140.05
100122.73
100108.36
100087.6
100072.68
100066.55
100065.2
100069.84
100298.15
100302.26
100306.37
100312.54
100320.88
100330.63
100342.33
100356.46
100372.56
100392.56
100414.95
100442.47
100473.43
100510.41
100552.12
100600.26
100653.79
100713.02
100776.26
100841.68
100905.56
100963.35
101009.63
101037.9
101043.82
101026.11
100985.82
100927.13
100855.78
100777.71
100698.07
100620.64
100547.75
100480.81
100421.29
100369.6
100323.09
100280.35
100243.66
100213.32
100186.15
100161.38
100139.97
100122.77
100108.38
100087.62
100072.8
100066.71
100065.44
100069.67
100341.02
100345.36
100349.66
100356.18
100364.86
100374.97
100387.1
100401.8
100418.48
100439.28
100462.51
100491.09
100523.23
100561.56
100604.78
100654.53
100709.74
100770.56
100835.14
100901.37
100965.17
101021.69
101065.12
101088.54
101088.57
101063.85
101016.34
100950.81
100873.45
100790.4
100706.82
100626.41
100551.34
100482.88
100422.43
100370.13
100323.13
100280.01
100243.16
100212.96
100185.93
100161.17
100139.81
100122.76
100108.33
100087.66
100073
100066.87
100065.66
100069.43
100385.37
100389.97
100394.5
100401.39
100410.45
100420.98
100433.57
100448.93
100466.24
100487.93
100512.07
100541.81
100575.21
100614.99
100659.79
100711.22
100768.15
100830.58
100896.47
100963.36
101026.85
101081.77
101121.74
101139.89
101133.42
101101.27
101046.24
100973.73
100890.32
100802.34
100714.92
100631.62
100554.45
100484.58
100423.31
100370.34
100322.97
100279.48
100242.51
100212.48
100185.6
100160.87
100139.58
100122.68
100108.15
100087.68
100073.29
100067.05
100065.86
100069.12
100431.42
100436.29
100441.06
100448.3
100457.76
100468.74
100481.84
100497.93
100515.94
100538.6
100563.76
100594.73
100629.47
100670.78
100717.23
100770.42
100829.1
100893.14
100960.28
101027.68
101090.58
101143.5
101179.37
101191.78
101178.21
101138.2
101075.38
100995.76
100906.31
100813.47
100722.31
100636.24
100557.09
100485.95
100423.82
100370.35
100322.58
100278.75
100241.71
100211.9
100185.17
100160.47
100139.27
100122.53
100107.81
100087.71
100073.68
100067.25
100065.99
100068.72
100479.13
100484.3
100489.36
100496.98
100506.9
100518.45
100532.14
100549.04
100567.83
100591.52
100617.73
100649.99
100686.14
100729.03
100777.21
100832.19
100892.67
100958.31
101026.6
101094.31
101156.33
101206.77
101237.86
101244.01
101222.73
101174.46
101103.6
101016.8
100921.34
100823.75
100728.98
100640.24
100559.25
100486.96
100424
100370.1
100321.97
100277.84
100240.77
100211.2
100184.63
100159.99
100138.9
100122.29
100107.29
100087.66
100074.17
100067.51
100066.07
100068.21
100529.39
100534.84
100540.19
100548.14
100558.55
100570.65
100584.85
100602.53
100622.07
100646.8
100674.1
100707.69
100745.3
100789.83
100839.79
100896.61
100958.92
101026.13
101095.45
101163.25
101224.05
101271.42
101297.07
101296.37
101266.8
101209.87
101130.77
101036.74
100935.34
100833.12
100734.87
100643.61
100560.97
100487.49
100423.91
100369.6
100321.12
100276.72
100239.69
100210.39
100183.98
100159.41
100138.47
100121.97
100106.58
100087.51
100074.72
100067.88
100066.1
100067.59
100581.46
100587.27
100593
100601.41
100612.37
100625.05
100639.81
100658.34
100678.67
100704.49
100732.92
100767.88
100807.02
100853.25
100905.06
100963.77
101027.91
101096.65
101166.87
101234.48
101293.67
101337.23
101356.89
101348.6
101310.2
101244.25
101156.74
101055.48
100948.25
100841.54
100739.96
100646.38
100562.18
100487.63
100423.51
100368.83
100320.03
100275.42
100238.47
100209.46
100183.22
100158.75
100137.97
100121.56
100105.71
100087.27
100075.27
100068.38
100066.11
100066.84
100635.93
100642.09
100648.21
100657.07
100668.52
100681.83
100697.15
100716.54
100737.69
100764.62
100794.24
100830.64
100871.37
100919.37
100973.09
101033.74
101099.72
101169.92
101240.85
101307.98
101365.06
101404.04
101417.12
101400.47
101352.71
101277.4
101181.38
101072.92
100960
100848.97
100744.24
100648.56
100562.76
100487.41
100422.81
100367.79
100318.71
100273.93
100237.13
100208.43
100182.35
100158
100137.42
100121.08
100104.71
100086.96
100075.76
100069.02
100066.06
100065.98
100692.73
100699.24
100705.78
100715.08
100726.98
100740.93
100756.81
100777.1
100799.11
100827.23
100858.11
100896.01
100938.42
100988.27
101043.96
101106.6
101174.42
101245.97
101317.39
101383.68
101438.08
101471.66
101477.49
101451.73
101394.1
101309.16
101204.55
101089
100970.53
100855.37
100747.74
100650.04
100562.87
100486.8
100421.8
100366.48
100317.13
100272.25
100235.67
100207.28
100181.37
100157.17
100136.82
100120.54
100103.65
100086.58
100076.1
100069.76
100065.98
100065.01
100751.47
100758.38
100765.42
100775.18
100787.56
100802.26
100818.77
100840.06
100863
100892.38
100924.59
100964.07
101008.25
101060.02
101117.77
101182.42
101252.06
101324.85
101396.5
101461.55
101512.52
101539.91
101537.72
101502.13
101434.15
101339.35
101226.14
101103.62
100979.81
100860.73
100750.48
100650.72
100562.49
100485.81
100420.48
100364.9
100315.31
100270.39
100234.09
100206.02
100180.27
100156.26
100136.16
100119.92
100102.55
100086.17
100076.32
100070.49
100065.91
100063.93
100812.63
100819.95
100827.46
100837.68
100850.55
100866.04
100883.19
100905.51
100929.44
100960.13
100993.75
101034.91
101080.94
101134.73
101194.61
101261.31
101332.72
101406.57
101478.14
101541.45
101588.12
101608.64
101597.49
101551.4
101472.62
101367.8
101246.04
101116.72
100987.78
100865.11
100752.31
100650.81
100561.61
100484.44
100418.85
100363.04
100313.25
100268.36
100232.4
100204.64
100179.06
100155.27
100135.46
100119.24
100101.41
100085.77
100076.49
100071.08
100065.88
100062.74
100876
100883.77
100891.8
100902.54
100915.88
100932.21
100950.05
100973.46
100998.44
101030.53
101065.68
101108.61
101156.62
101212.51
101274.59
101343.35
101416.45
101491.15
101562.27
101623.25
101664.67
101677.54
101656.49
101599.24
101509.3
101394.35
101264.15
101128.24
100994.46
100868.5
100753.14
100650.26
100560.23
100482.7
100416.92
100360.9
100310.93
100266.16
100230.6
100203.15
100177.74
100154.21
100134.7
100118.48
100100.23
100085.37
100076.64
100071.56
100065.89
100061.44
100941.57
100949.81
100958.39
100969.7
100983.54
101000.77
101019.35
101043.97
101070.1
101103.71
101140.51
101185.33
101235.42
101293.51
101357.82
101428.63
101503.29
101578.58
101648.82
101706.75
101741.91
101746.28
101714.41
101645.38
101543.95
101418.85
101280.37
101138.13
100999.87
100870.73
100753.22
100649.06
100558.36
100480.58
100414.69
100358.47
100308.38
100263.81
100228.7
100201.53
100176.3
100153.08
100133.9
100117.63
100099.01
100084.98
100076.79
100072.01
100065.82
100060.01
101009.36
101018.12
101027.25
101039.18
101053.59
101071.86
101091.3
101117.24
101144.65
101179.9
101218.46
101265.25
101317.52
101377.85
101444.43
101517.24
101593.3
101668.86
101737.71
101791.64
101819.64
101814.48
101770.92
101689.53
101576.39
101441.18
101294.62
101146.38
101004.02
100871.73
100752.48
100647.23
100556.02
100478.1
100412.15
100355.76
100305.58
100261.33
100226.7
100199.8
100174.76
100151.88
100133.04
100116.66
100097.79
100084.59
100076.93
100072.42
100065.63
100058.45
101079.78
101089.1
101098.77
101111.46
101126.53
101145.94
101166.3
101193.64
101222.39
101259.32
101299.7
101348.53
101403.03
101465.66
101534.52
101609.25
101686.49
101761.93
101828.78
101877.63
101897.58
101881.74
101825.65
101731.41
101606.4
101461.2
101306.85
101153.04
101006.71
100871.78
100750.93
100644.78
100553.21
100475.27
100409.31
100352.77
100302.55
100258.71
100224.61
100197.93
100173.1
100150.62
100132.12
100115.52
100096.6
100084.22
100077.05
100072.81
100065.32
100056.77
101153.39
101163.29
101173.56
101187.18
101202.87
101223.38
101244.6
101273.33
101303.44
101342.08
101384.35
101435.29
101492.09
101557.06
101628.18
101704.71
101782.86
101857.73
101921.81
101964.41
101975.34
101947.66
101878.25
101770.73
101633.81
101478.82
101317.06
101158.12
101007.9
100870.81
100748.58
100641.72
100549.95
100472.1
100406.17
100349.49
100299.3
100255.97
100222.4
100195.94
100171.34
100149.3
100131.11
100114.18
100095.51
100083.85
100077.17
100073.21
100064.9
100054.96
101230.04
101240.59
101251.51
101266.05
101282.26
101303.95
101326.09
101356.28
101387.83
101428.26
101472.52
101525.65
101584.83
101652.16
101725.51
101803.67
101882.4
101956.17
102016.52
102051.67
102052.46
102011.83
101928.37
101807.25
101658.45
101493.95
101325.26
101161.36
101007.9
100868.82
100745.45
100638.07
100546.25
100468.59
100402.74
100345.92
100295.84
100253.12
100220.1
100193.82
100169.49
100147.92
100130.02
100112.67
100094.51
100083.46
100077.29
100073.6
100064.35
100053.06
101309.52
101320.8
101332.38
101347.91
101364.73
101387.72
101410.87
101442.61
101475.71
101518.03
101564.38
101619.77
101681.38
101751.08
101826.58
101906.16
101985.07
102057.07
102112.48
102139.14
102128.43
102073.8
101975.64
101840.72
101680.18
101506.57
101331.48
101162.77
101006.62
100865.84
100741.55
100633.85
100542.13
100464.75
100399
100342.08
100292.18
100250.17
100217.69
100191.56
100167.54
100146.48
100128.84
100111.07
100093.6
100083.18
100077.39
100073.99
100063.66
100051.08
101392.3
101404.36
101416.59
101433.17
101450.61
101474.95
101499.17
101532.53
101567.25
101611.53
101660.04
101717.75
101781.85
101853.93
101931.46
102012.19
102090.8
102160.21
102209.35
102226.37
102202.75
102133.13
102019.72
101870.91
101698.88
101516.71
101335.42
101162.69
101004.07
100861.89
100736.93
100629.09
100537.61
100460.58
100394.97
100337.97
100288.34
100247.12
100215.16
100189.18
100165.51
100144.98
100127.56
100109.47
100092.83
100082.98
100077.48
100074.28
100062.82
100049.03
101478.46
101491.38
101504.23
101521.92
101540.02
101565.77
101591.11
101626.15
101662.57
101708.87
101759.63
101819.74
101886.37
101960.81
102040.22
102121.74
102199.46
102265.26
102306.71
102312.82
102274.89
102189.38
102060.29
101897.62
101714.52
101524.38
101337.13
101161.01
101000.3
100857
100731.6
100623.82
100532.7
100456.1
100390.64
100333.6
100284.34
100243.98
100212.52
100186.66
100163.39
100143.42
100126.21
100107.91
100092.18
100082.91
100077.58
100074.47
100061.83
100046.93
101568.04
101581.92
101595.4
101614.27
101633.06
101660.26
101686.76
101723.53
101761.72
101810.13
101863.27
101925.87
101995.09
102071.83
102152.9
102234.78
102310.89
102371.78
102404.17
102397.85
102344.32
102242.07
102097.03
101920.69
101727.1
101529.24
101336.95
101157.78
100995.34
100851.21
100725.6
100618.05
100527.42
100451.3
100386.02
100328.98
100280.18
100240.75
100209.75
100184.01
100161.19
100141.78
100124.76
100106.37
100091.66
100083.01
100077.88
100074.64
100060.67
100044.8
101661
101676.02
101690.1
101710.14
101729.63
101758.34
101786.05
101824.67
101864.81
101915.48
101971.15
102036.34
102108.18
102187.1
102269.52
102351.23
102424.81
102479.25
102501.27
102480.81
102410.46
102290.79
102129.67
101940.05
101736.61
101531.36
101334.8
101153.03
100989.23
100844.55
100718.96
100611.81
100521.79
100446.2
100381.1
100324.13
100275.9
100237.42
100206.84
100181.23
100158.92
100140.05
100123.17
100104.8
100091.19
100083.25
100078.5
100074.7
100059.35
100042.67
101757.16
101773.47
101787.95
101809.2
101829.51
101859.97
101889.11
101929.8
101972.11
102025.21
102083.55
102151.39
102225.8
102306.71
102390.07
102470.94
102540.85
102587.17
102597.32
102561.06
102472.75
102335.11
102157.99
101955.65
101742.69
101531.12
101330.73
101146.83
100982.03
100837.08
100711.71
100605.12
100515.81
100440.79
100375.91
100319.07
100271.5
100234
100203.8
100178.33
100156.56
100138.22
100121.38
100103.16
100090.71
100083.55
100079.3
100074.73
100057.85
100040.57
101856.64
101874.28
101889.14
101912.04
101933.31
101965.79
101996.56
102039.46
102084.09
102139.7
102200.76
102271.23
102348.09
102430.69
102514.49
102593.68
102658.48
102695.02
102691.58
102637.89
102530.61
102374.66
102181.84
101967.48
101745.39
101528.44
101324.79
101139.22
100973.78
100828.82
100703.89
100598.02
100509.5
100435.07
100370.43
100313.81
100266.99
100230.48
100200.61
100175.32
100154.13
100136.26
100119.28
100101.46
100090.2
100083.9
100080.2
100074.78
100056.17
100038.54
101960.48
101979.47
101995
102019.79
102041.99
102076.52
102108.96
102154.09
102201.09
102259.2
102322.98
102396.01
102475.13
102559.04
102642.64
102719.12
102777.02
102802.22
102783.17
102710.6
102583.49
102409.12
102201.13
101975.14
101745.17
101523.38
101317.07
101130.29
100964.53
100819.82
100695.52
100590.53
100502.87
100429.05
100364.69
100308.38
100262.4
100226.84
100197.27
100172.21
100151.63
100134.14
100116.78
100099.82
100089.73
100084.29
100081.15
100074.53
100054.34
100036.6
102069.04
102089.64
102106
102132.7
102155.82
102192.4
102226.53
102273.86
102323.26
102383.88
102450.35
102525.83
102606.95
102691.7
102774.33
102846.77
102895.85
102907.95
102871.29
102778.45
102630.87
102438.26
102215.8
101978.66
101741.91
101516.02
101307.64
101120.09
100954.34
100810.13
100686.66
100582.66
100495.93
100422.73
100358.68
100302.79
100257.72
100223.08
100193.79
100169.01
100149.05
100131.83
100113.99
100098.27
100089.33
100084.6
100081.9
100073.95
100052.39
100034.77
102183.07
102205.31
102222.32
102250.82
102274.81
102313.45
102349.31
102398.85
102450.72
102513.86
102583
102660.78
102743.56
102828.55
102909.22
102975.97
103014.25
103011.24
102955.04
102840.72
102672.33
102461.92
102225.44
101978.53
101735.72
101506.47
101296.59
101108.69
100943.27
100799.79
100677.32
100574.45
100488.69
100416.11
100352.43
100297.07
100252.98
100219.19
100190.15
100165.73
100146.39
100129.29
100111.07
100096.83
100088.97
100084.77
100082.33
100073.02
100050.35
100033.07
102301.81
102325.88
102343.42
102373.98
102398.84
102439.66
102477.42
102529.2
102583.62
102649.32
102721.07
102800.91
102884.9
102969.39
103046.87
103105.86
103131.51
103111
103033.51
102896.73
102707.5
102479.95
102230
101974.66
101726.69
101494.82
101284.01
101096.17
100931.37
100788.83
100667.54
100565.9
100481.15
100409.19
100345.94
100291.25
100248.17
100215.16
100186.38
100162.38
100143.62
100126.45
100108.13
100095.48
100088.61
100084.87
100082.55
100071.68
100048.26
100031.52
102425.57
102451.4
102469.31
102502.09
102527.94
102571.12
102611.09
102665.23
102722.2
102790.42
102864.67
102946.24
103030.86
103113.92
103186.62
103235.62
103246.51
103206.15
103105.77
102945.87
102736.11
102491.92
102230.04
101967.15
101714.95
101481.2
101269.99
101082.6
100918.69
100777.31
100657.35
100557.04
100473.31
100401.97
100339.23
100285.33
100243.29
100210.98
100182.48
100158.99
100140.72
100123.23
100105.28
100094.16
100088.22
100084.94
100082.64
100069.87
100046.16
100030.13
102553.85
102581.72
102600.1
102635.45
102662.45
102708.08
102750.47
102807.18
102866.72
102937.31
103013.84
103096.74
103181.25
103261.66
103327.6
103364.33
103358.02
103295.58
103170.94
102987.64
102757.92
102497.7
102225.46
101956.14
101700.64
101465.72
101254.62
101068.04
100905.29
100765.26
100646.77
100547.87
100465.19
100394.47
100332.32
100279.34
100238.35
100206.63
100178.46
100155.55
100137.64
100119.57
100102.61
100092.83
100087.78
100085.05
100082.67
100067.55
100044.09
100028.91
102687.9
102718.16
102736.92
102775.09
102803.3
102851.19
102895.7
102955
103017.28
103090.12
103168.63
103252.29
103335.74
103411.97
103468.69
103490.93
103464.65
103378.11
103228.19
103021.61
102772.42
102497.89
102216.38
101941.79
101683.92
101448.51
101238.01
101052.57
100891.21
100752.72
100635.84
100538.41
100456.78
100386.68
100325.22
100273.28
100233.33
100202.13
100174.34
100152.07
100134.33
100115.63
100100.03
100091.51
100087.32
100085.14
100082.62
100064.74
100042.09
100027.87
102828.7
102861.64
102880.6
102921.56
102950.76
103001
103047.51
103108.96
103174.04
103248.97
103329.01
103412.67
103493.84
103563.91
103608.78
103613.97
103565.01
103452.59
103276.82
103047.39
102779.44
102492.38
102202.98
101924.28
101664.93
101429.68
101220.23
101036.25
100876.51
100739.73
100624.57
100528.67
100448.08
100378.63
100317.95
100267.16
100228.23
100197.46
100170.15
100148.53
100130.73
100111.52
100097.54
100090.25
100086.87
100085.17
100082.22
100061.51
100040.17
100026.99
102975.98
103011.99
103030.69
103074.74
103105
103157.38
103206.14
103269.65
103337.24
103413.93
103494.86
103577.51
103654.8
103716.19
103746.66
103731.75
103657.63
103517.93
103316.18
103064.35
102779.57
102481.34
102185.47
101903.81
101643.85
101409.36
101201.37
101019.14
100861.23
100726.31
100612.98
100518.65
100439.11
100370.32
100310.52
100260.98
100223.03
100192.63
100165.89
100144.9
100126.7
100107.45
100095.15
100089.04
100086.41
100085.18
100081.26
100058.08
100038.31
100026.22
103129.52
103168.99
103187.05
103234.26
103265.65
103320.09
103371.5
103437.26
103507.02
103584.89
103665.86
103746.2
103817.57
103867.37
103880.68
103842.52
103741.04
103573.17
103345.71
103072.32
102772.7
102464.96
102164.06
101880.57
101620.81
101387.66
101181.52
101001.3
100845.41
100712.5
100601.08
100508.36
100429.87
100361.77
100302.96
100254.74
100217.72
100187.64
100161.6
100141.13
100122.12
100103.66
100092.93
100087.9
100085.93
100085.1
100079.55
100054.7
100036.55
100025.52
103289.98
103332.68
103349.96
103400.17
103433.09
103489.66
103543.88
103611.55
103683.22
103761.61
103841.49
103917.83
103980.67
104015.9
104008.81
103944.46
103813.84
103617.4
103364.57
103071.82
102759.01
102443.49
102139.01
101854.78
101595.98
101364.68
101160.75
100982.78
100829.1
100698.32
100588.9
100497.79
100420.35
100353
100295.27
100248.42
100212.26
100182.51
100157.27
100137.14
100117.18
100100.15
100090.92
100086.87
100085.39
100084.79
100076.87
100051.53
100034.93
100024.88
103457.96
103503.34
103519.87
103572.58
103608.04
103666.98
103723.71
103792.74
103865.69
103943.64
104020.97
104091.12
104142.25
104159.89
104128.86
104035.72
103874.74
103649.81
103372.71
103062.73
102738.73
102417.25
102110.58
101826.63
101569.51
101340.54
101139.13
100963.64
100812.33
100683.8
100576.44
100486.96
100410.58
100344.03
100287.46
100242.02
100206.65
100177.24
100152.89
100132.84
100112.12
100096.91
100089.14
100085.94
100084.75
100084.13
100073.14
100048.64
100033.44
100024.27
103633.25
103681.55
103698.3
103752.9
103791.15
103852.07
103910.94
103980.8
104053.99
104130.2
104203.06
104264.26
104300.31
104296.9
104238.54
104114.49
103922.5
103669.3
103370.43
103045.26
102712.21
102386.53
102079.04
101796.33
101541.54
101315.33
101116.73
100943.93
100795.12
100668.95
100563.7
100475.85
100400.56
100334.89
100279.56
100235.51
100200.85
100171.86
100148.42
100128.09
100107.23
100093.95
100087.52
100085.05
100084.15
100083.06
100068.76
100045.95
100032.04
100023.73
103815.69
103867.16
103885.65
103943.03
103983.07
104044.39
104105.02
104174.97
104247.24
104320.08
104386.07
104434.86
104452.54
104424.15
104335.54
104179.04
103955.87
103676.01
103357.63
103019.71
102679.8
102351.68
102044.65
101764.06
101512.19
101289.14
101093.61
100923.67
100777.51
100653.8
100550.69
100464.48
100390.29
100325.58
100271.55
100228.88
100194.86
100166.39
100143.79
100122.73
100102.78
100091.26
100086.03
100084.19
100083.58
100081.68
100064.25
100043.35
100030.74
100023.25
104007.54
104061.83
104081.05
104139.54
104182.09
104243.79
104305.3
104374.38
104444.24
104511.58
104567.64
104600.38
104595.85
104538.79
104417.49
104227.66
103973.68
103669.91
103334.57
102986.48
102641.92
102313.03
102007.65
101729.99
101481.58
101262.04
101069.82
100902.91
100759.52
100638.33
100537.4
100452.83
100379.79
100316.13
100263.45
100222.12
100188.68
100160.88
100138.94
100117.02
100098.66
100088.76
100084.59
100083.31
100083
100080.08
100059.87
100040.91
100029.55
100022.84
104207.12
104263.61
104284.01
104343.46
104387.88
104449.45
104510.88
104577.73
104643.26
104702.37
104744.75
104757.76
104726.8
104637.84
104482.08
104258.58
103976.16
103650.97
103301.61
102946.05
102598.99
102270.93
101968.29
101694.31
101449.83
101234.11
101045.41
100881.67
100741.17
100622.58
100523.83
100440.9
100369.06
100306.55
100255.24
100215.19
100182.33
100155.33
100133.77
100111.21
100094.79
100086.39
100083.12
100082.31
100082.26
100078.09
100055.76
100038.67
100028.48
100022.49
104414.8
104473.16
104494.85
104554.09
104599.58
104660.17
104720.3
104783.18
104841.81
104889.24
104913.99
104903.04
104841.75
104718.28
104527.05
104271.07
103962.91
103619.48
103259.27
102898.93
102551.45
102225.69
101926.8
101657.14
101417.02
101205.39
101020.4
100859.98
100722.46
100606.52
100509.98
100428.69
100358.11
100296.85
100246.91
100208.07
100175.8
100149.71
100128.13
100105.56
100091.15
100084.12
100081.57
100081.04
100081.15
100075.3
100051.99
100036.67
100027.53
100022.18
104629.37
104689.15
104711.95
104770.27
104816.24
104874.49
104931.52
104988.03
105036.48
105068.11
105071.18
105031.87
104936.89
104777.1
104550.42
104264.73
103934.01
103575.93
103208.15
102845.68
102499.73
102177.62
101883.38
101618.63
101383.24
101175.95
100994.83
100837.84
100703.39
100590.16
100495.83
100416.2
100346.94
100287.01
100238.43
100200.71
100169.1
100143.92
100121.87
100100.31
100087.73
100081.88
100079.8