/*--------------------------------*- C++ -*----------------------------------*\
| =========                 |                                                 |
| \\      /  F ield         | OpenFOAM: The Open Source CFD Toolbox           |
|  \\    /   O peration     | Version:  2306                                  |
|   \\  /    A nd           | Website:  www.openfoam.com                      |
|    \\/     M anipulation  |                                                 |
\*---------------------------------------------------------------------------*/
FoamFile
{
    version     2.0;
    format      ascii;
    arch        "LSB;label=32;scalar=64";
    class       volScalarField;
    location    "0.002";
    object      nut;
}
// * * * * * * * * * * * * * * * * * * * * * * * * * * * * * * * * * * * * * //

dimensions      [0 2 -1 0 0 0 0];

internalField   nonuniform List<scalar> 
20000
(
0.00042443357
0.0010407665
0.0013616128
0.0014417515
0.0012223751
0.0005757875
1.455123e-05
1.0743488e-08
8.203588e-09
8.053154e-09
7.9999434e-09
7.8988346e-09
7.8824644e-09
7.9576677e-09
8.0244134e-09
8.0100475e-09
7.9294211e-09
7.8359694e-09
7.7658589e-09
7.7149182e-09
7.6735882e-09
7.6375491e-09
7.6044074e-09
7.5750016e-09
7.5511825e-09
7.5321981e-09
7.5169063e-09
7.5053779e-09
7.4968795e-09
7.4902978e-09
7.4855691e-09
7.4828732e-09
7.482431e-09
7.4817024e-09
7.4823495e-09
7.4962204e-09
7.5050175e-09
7.4780516e-09
7.4223053e-09
7.3791222e-09
7.3582442e-09
7.3511648e-09
7.3494259e-09
7.3491178e-09
7.3490762e-09
7.3490724e-09
7.3490722e-09
7.3490722e-09
7.3490722e-09
7.3490722e-09
0.00042074068
0.001025608
0.0013339236
0.0014004985
0.0011700594
0.00051050855
6.5313045e-06
9.8990913e-09
8.1848573e-09
8.0803322e-09
8.0330886e-09
7.8946866e-09
7.8254045e-09
7.8748648e-09
7.9413995e-09
7.9463846e-09
7.8885744e-09
7.8107387e-09
7.7486123e-09
7.701454e-09
7.6625238e-09
7.6292225e-09
7.5989895e-09
7.5716865e-09
7.5494549e-09
7.5317987e-09
7.5173106e-09
7.5060635e-09
7.4977038e-09
7.4912316e-09
7.4863121e-09
7.4834886e-09
7.4829804e-09
7.4819359e-09
7.4829121e-09
7.4985984e-09
7.5077907e-09
7.4802751e-09
7.4236965e-09
7.3801856e-09
7.3586777e-09
7.3513522e-09
7.3494738e-09
7.3491255e-09
7.3490771e-09
7.3490724e-09
7.3490722e-09
7.3490722e-09
7.3490722e-09
7.3490722e-09
0.00041746561
0.001011869
0.0013081029
0.0013601243
0.0011171451
0.00044656529
2.7385622e-06
9.393391e-09
8.181994e-09
8.1127575e-09
8.0819123e-09
7.9077041e-09
7.7887611e-09
7.8016777e-09
7.8595274e-09
7.8785018e-09
7.8425814e-09
7.782077e-09
7.7296547e-09
7.687106e-09
7.6506145e-09
7.6199526e-09
7.5927702e-09
7.5679236e-09
7.5475086e-09
7.531397e-09
7.5179573e-09
7.50712e-09
7.4989005e-09
7.4925487e-09
7.4874893e-09
7.4844327e-09
7.4838749e-09
7.4825606e-09
7.4835919e-09
7.4998914e-09
7.5107757e-09
7.4828624e-09
7.4245213e-09
7.3809173e-09
7.359129e-09
7.351506e-09
7.3495135e-09
7.3491321e-09
7.3490779e-09
7.3490725e-09
7.3490722e-09
7.3490722e-09
7.3490722e-09
7.3490722e-09
0.00041427167
0.00099867674
0.0012837235
0.0013245164
0.0010657103
0.00038877376
1.167217e-06
9.1013205e-09
8.1911285e-09
8.1366213e-09
8.1275969e-09
7.9449806e-09
7.7827639e-09
7.7468899e-09
7.7885077e-09
7.814573e-09
7.7969061e-09
7.7531397e-09
7.7110469e-09
7.6736299e-09
7.6395142e-09
7.6111395e-09
7.5868578e-09
7.564454e-09
7.5457583e-09
7.5310938e-09
7.5187057e-09
7.5083246e-09
7.5002078e-09
7.493936e-09
7.4888017e-09
7.485466e-09
7.4848052e-09
7.4832836e-09
7.4842318e-09
7.5013411e-09
7.513109e-09
7.4860905e-09
7.4257457e-09
7.3816102e-09
7.3595174e-09
7.3516425e-09
7.3495478e-09
7.3491377e-09
7.3490786e-09
7.3490725e-09
7.3490722e-09
7.3490722e-09
7.3490722e-09
7.3490722e-09
0.00041119243
0.00098584009
0.0012601318
0.0012875343
0.0010138924
0.00033541914
5.1736986e-07
8.9397251e-09
8.2068465e-09
8.1419254e-09
8.1534125e-09
7.9937097e-09
7.7818268e-09
7.7100387e-09
7.7281638e-09
7.7545993e-09
7.7511719e-09
7.7232776e-09
7.6921132e-09
7.6605058e-09
7.6288824e-09
7.602516e-09
7.5809949e-09
7.5611129e-09
7.5441437e-09
7.5308793e-09
7.5195809e-09
7.5097285e-09
7.5017232e-09
7.4954821e-09
7.4903608e-09
7.4868052e-09
7.4858662e-09
7.4841762e-09
7.4853184e-09
7.5027886e-09
7.5153575e-09
7.4886017e-09
7.4271368e-09
7.3822129e-09
7.3598357e-09
7.3517539e-09
7.3495759e-09
7.3491424e-09
7.3490791e-09
7.3490726e-09
7.3490722e-09
7.3490722e-09
7.3490722e-09
7.3490722e-09
0.0004081782
0.00097322138
0.0012363986
0.0012513438
0.00096200138
0.00028620175
2.4455688e-07
8.8616079e-09
8.2282198e-09
8.1281998e-09
8.1622806e-09
8.0399751e-09
7.7970324e-09
7.6990069e-09
7.6804028e-09
7.7005825e-09
7.706614e-09
7.6929101e-09
7.6728878e-09
7.6477402e-09
7.6188317e-09
7.5942078e-09
7.5752241e-09
7.5579004e-09
7.5426646e-09
7.5307141e-09
7.5204944e-09
7.5112267e-09
7.5033652e-09
7.4971135e-09
7.4920463e-09
7.4883565e-09
7.4870099e-09
7.4851909e-09
7.4868216e-09
7.5044891e-09
7.5175574e-09
7.4906094e-09
7.4287094e-09
7.3828171e-09
7.3600997e-09
7.3518405e-09
7.3495973e-09
7.3491457e-09
7.3490795e-09
7.3490726e-09
7.3490721e-09
7.3490722e-09
7.3490722e-09
7.3490722e-09
0.00040534124
0.00096132742
0.0012137737
0.0012165101
0.00090968445
0.00023999984
1.2563434e-07
8.8386831e-09
8.2578103e-09
8.0995984e-09
8.1596095e-09
8.0732475e-09
7.8299476e-09
7.6965893e-09
7.6464115e-09
7.6540094e-09
7.664258e-09
7.6623702e-09
7.6532814e-09
7.6351659e-09
7.6093209e-09
7.5862412e-09
7.5695208e-09
7.5547663e-09
7.5413076e-09
7.5305868e-09
7.5214017e-09
7.512763e-09
7.5050986e-09
7.4988331e-09
7.4938124e-09
7.4900952e-09
7.4882798e-09
7.4862889e-09
7.488597e-09
7.506674e-09
7.5198974e-09
7.4922281e-09
7.4298177e-09
7.3834616e-09
7.3603108e-09
7.3518924e-09
7.3496083e-09
7.3491474e-09
7.3490797e-09
7.3490726e-09
7.3490721e-09
7.3490722e-09
7.3490722e-09
7.3490722e-09
0.00040262095
0.00094977301
0.0011915483
0.0011818771
0.00085641602
0.00019753757
7.0712917e-08
8.8528053e-09
8.3014117e-09
8.062811e-09
8.1372818e-09
8.0879607e-09
7.8700731e-09
7.7047033e-09
7.6316326e-09
7.6163671e-09
7.6253313e-09
7.6321919e-09
7.6333209e-09
7.622595e-09
7.6002781e-09
7.5786346e-09
7.5638631e-09
7.5516422e-09
7.5400365e-09
7.530479e-09
7.5222525e-09
7.5142631e-09
7.5068415e-09
7.500581e-09
7.4955767e-09
7.4919335e-09
7.489678e-09
7.4874171e-09
7.4905772e-09
7.5091179e-09
7.5224168e-09
7.4936138e-09
7.4305078e-09
7.3838723e-09
7.3604517e-09
7.3519157e-09
7.3496122e-09
7.349148e-09
7.3490797e-09
7.3490726e-09
7.3490721e-09
7.3490722e-09
7.3490722e-09
7.3490722e-09
0.00040008016
0.00093867294
0.0011699188
0.0011479296
0.0008022231
0.00015657756
4.3620835e-08
8.890992e-09
8.3570683e-09
8.039184e-09
8.0946289e-09
8.0844507e-09
7.9054077e-09
7.7275206e-09
7.6271988e-09
7.5890115e-09
7.5910915e-09
7.6030371e-09
7.6131037e-09
7.6100114e-09
7.5917454e-09
7.5715391e-09
7.5583665e-09
7.5485549e-09
7.5388797e-09
7.5304445e-09
7.5230692e-09
7.5157184e-09
7.5085735e-09
7.5023498e-09
7.4973221e-09
7.4937658e-09
7.4911973e-09
7.4885881e-09
7.4927282e-09
7.5116969e-09
7.5251072e-09
7.4948798e-09
7.4308301e-09
7.3839406e-09
7.3604899e-09
7.3519307e-09
7.3496116e-09
7.3491476e-09
7.3490797e-09
7.3490726e-09
7.3490721e-09
7.3490722e-09
7.3490722e-09
7.3490722e-09
0.00039767225
0.00092789608
0.0011485388
0.0011137688
0.00074672928
0.0001176093
2.9570637e-08
8.9451185e-09
8.4223253e-09
8.0325002e-09
8.0440213e-09
8.0703991e-09
7.9290919e-09
7.7621061e-09
7.6326174e-09
7.5757822e-09
7.5628179e-09
7.5757022e-09
7.5928375e-09
7.5972912e-09
7.5836135e-09
7.5649759e-09
7.5530662e-09
7.5454597e-09
7.5377843e-09
7.5304814e-09
7.5238475e-09
7.5171009e-09
7.5102634e-09
7.5041113e-09
7.4990542e-09
7.4955257e-09
7.4927865e-09
7.489828e-09
7.4950069e-09
7.5144671e-09
7.5279783e-09
7.4960281e-09
7.4308704e-09
7.3838251e-09
7.3604117e-09
7.3518997e-09
7.3496036e-09
7.349146e-09
7.3490794e-09
7.3490726e-09
7.3490721e-09
7.3490722e-09
7.3490722e-09
7.3490722e-09
0.00039541561
0.00091739046
0.0011273951
0.0010783746
0.00068982592
8.1688205e-05
2.1889215e-08
9.0087812e-09
8.4958891e-09
8.0356374e-09
7.9948577e-09
8.0320422e-09
7.9383213e-09
7.7987568e-09
7.6501774e-09
7.5723668e-09
7.5418149e-09
7.5510994e-09
7.5728507e-09
7.5843882e-09
7.5757869e-09
7.5589748e-09
7.5480336e-09
7.5423421e-09
7.5366896e-09
7.5305728e-09
7.5245841e-09
7.5183741e-09
7.5118703e-09
7.5058173e-09
7.5007586e-09
7.49717e-09
7.4943349e-09
7.491139e-09
7.497398e-09
7.5173753e-09
7.5310162e-09
7.4970332e-09
7.4307178e-09
7.3835418e-09
7.3602366e-09
7.3518311e-09
7.3495859e-09
7.3491427e-09
7.3490791e-09
7.3490726e-09
7.3490721e-09
7.3490722e-09
7.3490722e-09
7.3490722e-09
0.0003932465
0.00090688464
0.0011062547
0.0010430001
0.00063158556
5.1071522e-05
1.7496385e-08
9.076479e-09
8.5761397e-09
8.0464961e-09
7.9550162e-09
7.9766863e-09
7.9326897e-09
7.829903e-09
7.6795373e-09
7.5788155e-09
7.5322121e-09
7.5302395e-09
7.5536001e-09
7.5713146e-09
7.5681576e-09
7.5535394e-09
7.5433511e-09
7.5392136e-09
7.535535e-09
7.5306872e-09
7.5252849e-09
7.5195135e-09
7.5133594e-09
7.5074315e-09
7.5024175e-09
7.4987122e-09
7.495735e-09
7.4924964e-09
7.4999248e-09
7.5204247e-09
7.5341454e-09
7.4978173e-09
7.430293e-09
7.3830652e-09
7.3599718e-09
7.3517332e-09
7.3495603e-09
7.3491381e-09
7.3490785e-09
7.3490725e-09
7.3490721e-09
7.3490722e-09
7.3490722e-09
7.3490722e-09
0.00039114673
0.00089617118
0.0010844954
0.0010072196
0.00057197663
2.81283e-05
1.4885412e-08
9.1425119e-09
8.6589965e-09
8.0666302e-09
7.9302618e-09
7.9163451e-09
7.9140801e-09
7.8513666e-09
7.7166908e-09
7.5964448e-09
7.5313619e-09
7.5142323e-09
7.5356736e-09
7.5581619e-09
7.5606182e-09
7.5486425e-09
7.5390993e-09
7.5361154e-09
7.5342658e-09
7.5307753e-09
7.5259567e-09
7.5205134e-09
7.5147016e-09
7.508938e-09
7.5040081e-09
7.5001954e-09
7.4969336e-09
7.4938733e-09
7.5026183e-09
7.523639e-09
7.5373609e-09
7.4982824e-09
7.4295781e-09
7.3824054e-09
7.3596236e-09
7.3516085e-09
7.3495287e-09
7.3491324e-09
7.3490778e-09
7.3490725e-09
7.3490721e-09
7.3490722e-09
7.3490722e-09
7.3490722e-09
0.00038909377
0.00088517689
0.0010613794
0.00097082697
0.00051149661
1.3644413e-05
1.3291178e-08
9.2015483e-09
8.7398709e-09
8.0963083e-09
7.9245595e-09
7.8592064e-09
7.8848952e-09
7.8615755e-09
7.7544702e-09
7.6256984e-09
7.5369387e-09
7.5048991e-09
7.5197923e-09
7.5451246e-09
7.5530843e-09
7.5442312e-09
7.5353507e-09
7.5331153e-09
7.5328491e-09
7.5307718e-09
7.5265955e-09
7.5213882e-09
7.5158764e-09
7.5103396e-09
7.5055239e-09
7.5016679e-09
7.4979687e-09
7.4952407e-09
7.5055619e-09
7.5270735e-09
7.5406832e-09
7.4983764e-09
7.4285597e-09
7.3815607e-09
7.3591981e-09
7.3514612e-09
7.3494925e-09
7.3491262e-09
7.349077e-09
7.3490724e-09
7.3490721e-09
7.3490722e-09
7.3490722e-09
7.3490722e-09
0.00038713227
0.000874236
0.0010379247
0.00093330031
0.00045062869
5.9486667e-06
1.2292845e-08
9.2489997e-09
8.8146665e-09
8.135015e-09
7.9249459e-09
7.8117502e-09
7.8469035e-09
7.8620896e-09
7.7871668e-09
7.6633944e-09
7.5524965e-09
7.506434e-09
7.5067753e-09
7.5324858e-09
7.5454911e-09
7.5402164e-09
7.5321454e-09
7.5302914e-09
7.5312694e-09
7.5305984e-09
7.5271697e-09
7.5221577e-09
7.5168703e-09
7.5116351e-09
7.5069708e-09
7.5031458e-09
7.4989422e-09
7.4965593e-09
7.5087875e-09
7.5307952e-09
7.5441479e-09
7.4981688e-09
7.4272137e-09
7.3805235e-09
7.3586961e-09
7.3512932e-09
7.3494526e-09
7.3491195e-09
7.3490763e-09
7.3490723e-09
7.3490721e-09
7.3490722e-09
7.3490722e-09
7.3490722e-09
0.0003852035
0.00086304904
0.0010142563
0.00089399882
0.00039130866
2.4176699e-06
1.1651983e-08
9.2814085e-09
8.8801075e-09
8.181121e-09
7.9345637e-09
7.778135e-09
7.8069325e-09
7.8543489e-09
7.8118507e-09
7.7037138e-09
7.5793553e-09
7.5114668e-09
7.4975544e-09
7.5205688e-09
7.5377659e-09
7.5364457e-09
7.5294461e-09
7.5276799e-09
7.5295009e-09
7.5301454e-09
7.5275892e-09
7.5228064e-09
7.5176572e-09
7.5127841e-09
7.5083411e-09
7.5045821e-09
7.4999274e-09
7.4978514e-09
7.5123161e-09
7.5347644e-09
7.5476487e-09
7.4975897e-09
7.4255635e-09
7.379321e-09
7.3581384e-09
7.3511135e-09
7.3494117e-09
7.349113e-09
7.3490755e-09
7.3490723e-09
7.3490721e-09
7.3490722e-09
7.3490722e-09
7.3490722e-09
0.00038326018
0.000851426
0.00098946116
0.00085228267
0.0003336586
9.5708483e-07
1.1224842e-08
9.2973822e-09
8.9335036e-09
8.2314395e-09
7.9525331e-09
7.7691346e-09
7.7691288e-09
7.8325771e-09
7.8274017e-09
7.7418877e-09
7.6149438e-09
7.5231842e-09
7.4944761e-09
7.5101058e-09
7.5301204e-09
7.5329292e-09
7.5273414e-09
7.5254651e-09
7.5276728e-09
7.5294188e-09
7.527817e-09
7.5233558e-09
7.5182736e-09
7.5137699e-09
7.5096535e-09
7.5059469e-09
7.500953e-09
7.4992245e-09
7.5161327e-09
7.5389751e-09
7.5510445e-09
7.4965478e-09
7.4236401e-09
7.3779904e-09
7.3575452e-09
7.3509296e-09
7.3493715e-09
7.3491069e-09
7.3490749e-09
7.3490722e-09
7.3490721e-09
7.3490722e-09
7.3490722e-09
7.3490722e-09
0.00038131497
0.00083945988
0.00096359503
0.0008077073
0.00027787127
3.8567638e-07
1.0923933e-08
9.2974149e-09
8.9730693e-09
8.2812373e-09
7.9776672e-09
7.769115e-09
7.7372574e-09
7.8039288e-09
7.8334853e-09
7.7750782e-09
7.6538403e-09
7.5445726e-09
7.4996436e-09
7.5017939e-09
7.5227432e-09
7.529598e-09
7.5257988e-09
7.5237345e-09
7.5258828e-09
7.5284176e-09
7.5277872e-09
7.5237806e-09
7.5187547e-09
7.5145826e-09
7.5109268e-09
7.5072531e-09
7.5020209e-09
7.5007681e-09
7.5202743e-09
7.5434443e-09
7.554221e-09
7.4950142e-09
7.4214444e-09
7.3765453e-09
7.3569261e-09
7.3507449e-09
7.3493328e-09
7.3491012e-09
7.3490743e-09
7.3490722e-09
7.3490721e-09
7.3490722e-09
7.3490722e-09
7.3490722e-09
0.00037938191
0.00082726884
0.00093672693
0.00076101693
0.00022423604
1.6545504e-07
1.0697552e-08
9.2833501e-09
8.998542e-09
8.3275172e-09
8.0085106e-09
7.7720584e-09
7.7124843e-09
7.772597e-09
7.8340311e-09
7.8019431e-09
7.6921884e-09
7.5745483e-09
7.5071586e-09
7.49658e-09
7.5159623e-09
7.5264401e-09
7.5247826e-09
7.5225676e-09
7.5242545e-09
7.5271849e-09
7.5274522e-09
7.5240257e-09
7.5191139e-09
7.5152137e-09
7.5121357e-09
7.5085265e-09
7.5031082e-09
7.5025211e-09
7.5247768e-09
7.5482225e-09
7.5570758e-09
7.4929718e-09
7.4189817e-09
7.3750034e-09
7.3562913e-09
7.3505628e-09
7.3492962e-09
7.3490961e-09
7.3490738e-09
7.3490722e-09
7.3490721e-09
7.3490722e-09
7.3490722e-09
7.3490722e-09
0.00037748568
0.00081504344
0.0009090014
0.00071125964
0.00017307793
7.8639121e-08
1.0514079e-08
9.257702e-09
9.0103755e-09
8.3683264e-09
8.0423413e-09
7.7795668e-09
7.6950101e-09
7.7407715e-09
7.8243744e-09
7.8212035e-09
7.727678e-09
7.6088012e-09
7.5211337e-09
7.4975509e-09
7.5102335e-09
7.523502e-09
7.524247e-09
7.5220192e-09
7.5229204e-09
7.5258065e-09
7.526804e-09
7.5240405e-09
7.5193473e-09
7.5156841e-09
7.513239e-09
7.5097827e-09
7.504201e-09
7.5044997e-09
7.5296288e-09
7.5533574e-09
7.5594792e-09
7.4904025e-09
7.4162583e-09
7.3733834e-09
7.3556511e-09
7.3503866e-09
7.3492624e-09
7.3490916e-09
7.3490734e-09
7.3490721e-09
7.3490721e-09
7.3490722e-09
7.3490722e-09
7.3490722e-09
0.00037569158
0.00080302522
0.00088169041
0.00065803853
0.00012668478
4.2575011e-08
1.0354932e-08
9.2229859e-09
9.0096048e-09
8.4023839e-09
8.0766089e-09
7.7924873e-09
7.6893001e-09
7.7104135e-09
7.8087021e-09
7.8318295e-09
7.7590344e-09
7.6439355e-09
7.5431663e-09
7.5036949e-09
7.5061537e-09
7.520908e-09
7.5241546e-09
7.5221159e-09
7.52201e-09
7.5244034e-09
7.5258799e-09
7.5238036e-09
7.519444e-09
7.5160366e-09
7.5142202e-09
7.511012e-09
7.5053026e-09
7.5066834e-09
7.5348591e-09
7.5588685e-09
7.5613177e-09
7.4872921e-09
7.4132933e-09
7.3717055e-09
7.3550155e-09
7.3502191e-09
7.3492317e-09
7.3490878e-09
7.3490731e-09
7.3490721e-09
7.3490721e-09
7.3490722e-09
7.3490722e-09
7.3490722e-09
0.00037399504
0.0007911077
0.00085587576
0.0006013957
8.3817215e-05
2.6286063e-08
1.0209393e-08
9.1814505e-09
8.9975982e-09
8.4290236e-09
8.1091969e-09
7.8106381e-09
7.6918137e-09
7.6843093e-09
7.7920627e-09
7.8388776e-09
7.7856323e-09
7.6779344e-09
7.5708952e-09
7.5124633e-09
7.5046136e-09
7.5188638e-09
7.524474e-09
7.522857e-09
7.5216341e-09
7.5231108e-09
7.5247521e-09
7.5233372e-09
7.5194065e-09
7.5163319e-09
7.5151019e-09
7.5122134e-09
7.5064453e-09
7.5091077e-09
7.5404331e-09
7.5648236e-09
7.5624671e-09
7.4836309e-09
7.4101037e-09
7.3699871e-09
7.3543923e-09
7.3500621e-09
7.3492043e-09
7.3490845e-09
7.3490728e-09
7.3490721e-09
7.3490721e-09
7.3490722e-09
7.3490722e-09
7.3490723e-09
0.00037241434
0.00077896617
0.00082877496
0.00054135552
4.831143e-05
1.8365433e-08
1.0071298e-08
9.1348815e-09
8.9766411e-09
8.4480014e-09
8.1389293e-09
7.8334974e-09
7.6963831e-09
7.6642805e-09
7.7708207e-09
7.8406111e-09
7.8073349e-09
7.7097211e-09
7.6012068e-09
7.5266861e-09
7.5086719e-09
7.5176642e-09
7.5251899e-09
7.5242145e-09
7.5218602e-09
7.522056e-09
7.5235018e-09
7.5226776e-09
7.5192493e-09
7.5166092e-09
7.5159514e-09
7.5134071e-09
7.5077152e-09
7.5118619e-09
7.5463581e-09
7.5713101e-09
7.5628107e-09
7.479385e-09
7.4066894e-09
7.3682367e-09
7.3537856e-09
7.3499162e-09
7.3491801e-09
7.3490817e-09
7.3490726e-09
7.3490721e-09
7.3490721e-09
7.3490722e-09
7.3490722e-09
7.3490723e-09
0.00037092969
0.00076669469
0.00080138119
0.00047904109
2.3517233e-05
1.4276821e-08
9.9395041e-09
9.0852081e-09
8.9494191e-09
8.4595894e-09
8.165205e-09
7.8595468e-09
7.7030333e-09
7.6508049e-09
7.7473693e-09
7.8348115e-09
7.8243235e-09
7.7387245e-09
7.6321013e-09
7.547201e-09
7.5158615e-09
7.5177334e-09
7.5263113e-09
7.5261292e-09
7.5227204e-09
7.5213379e-09
7.5221807e-09
7.5218402e-09
7.5189725e-09
7.5168531e-09
7.5167848e-09
7.5146073e-09
7.5091427e-09
7.5150092e-09
7.5525682e-09
7.5781657e-09
7.5625509e-09
7.4746239e-09
7.4031138e-09
7.3664922e-09
7.3532099e-09
7.3497848e-09
7.3491595e-09
7.3490795e-09
7.3490725e-09
7.3490721e-09
7.3490722e-09
7.3490722e-09
7.3490722e-09
7.3490723e-09
0.00036955759
0.00075422999
0.00077344495
0.00041592848
9.825826e-06
1.2063317e-08
9.8223689e-09
9.0343077e-09
8.917476e-09
8.4642671e-09
8.1875447e-09
7.8866254e-09
7.7130593e-09
7.6435005e-09
7.7237558e-09
7.82522e-09
7.8363316e-09
7.7643883e-09
7.662224e-09
7.5717274e-09
7.5256577e-09
7.5201872e-09
7.5280653e-09
7.5286653e-09
7.5243539e-09
7.5212278e-09
7.5209965e-09
7.5209384e-09
7.518681e-09
7.5171143e-09
7.5176377e-09
7.5158604e-09
7.510801e-09
7.5187043e-09
7.5590506e-09
7.5850885e-09
7.5615487e-09
7.46943e-09
7.3994615e-09
7.3648041e-09
7.3526793e-09
7.3496697e-09
7.3491423e-09
7.3490778e-09
7.3490723e-09
7.3490721e-09
7.3490722e-09
7.3490722e-09
7.3490722e-09
7.3490723e-09
0.00036818843
0.00074085022
0.00074445569
0.00035646659
3.7222984e-06
1.0821759e-08
9.7302015e-09
8.9836119e-09
8.8820971e-09
8.462795e-09
8.2056663e-09
7.9132295e-09
7.7269118e-09
7.6430671e-09
7.7012368e-09
7.816336e-09
7.8455498e-09
7.7867701e-09
7.6909647e-09
7.5981257e-09
7.5400597e-09
7.5268928e-09
7.5306567e-09
7.5318123e-09
7.5268126e-09
7.5219598e-09
7.520145e-09
7.5200621e-09
7.5184688e-09
7.517463e-09
7.5185302e-09
7.5171609e-09
7.5127459e-09
7.5231562e-09
7.5657627e-09
7.5918836e-09
7.5594802e-09
7.4638708e-09
7.3957791e-09
7.3631913e-09
7.3521958e-09
7.3495697e-09
7.3491282e-09
7.3490764e-09
7.3490723e-09
7.3490721e-09
7.3490722e-09
7.3490722e-09
7.3490722e-09
7.3490723e-09
0.00036670581
0.00072593311
0.00071365109
0.00029986159
1.3497365e-06
1.0103558e-08
9.645991e-09
8.9336949e-09
8.8441015e-09
8.4559443e-09
8.2193908e-09
7.9384783e-09
7.7438339e-09
7.6501434e-09
7.6812125e-09
7.8088129e-09
7.8523191e-09
7.8060527e-09
7.7179384e-09
7.6250478e-09
7.5588038e-09
7.535509e-09
7.5344977e-09
7.5355643e-09
7.5301835e-09
7.5238161e-09
7.5199279e-09
7.5193076e-09
7.5184212e-09
7.5179825e-09
7.51948e-09
7.5184883e-09
7.5150024e-09
7.5284014e-09
7.5725841e-09
7.598412e-09
7.5562535e-09
7.4580438e-09
7.3921135e-09
7.3616618e-09
7.3517587e-09
7.3494835e-09
7.3491165e-09
7.3490753e-09
7.3490722e-09
7.3490721e-09
7.3490722e-09
7.3490722e-09
7.3490722e-09
7.3490723e-09
0.00036502077
0.00070932953
0.00068022809
0.00024573569
5.0058512e-07
9.6670214e-09
9.5829766e-09
8.8850929e-09
8.8041304e-09
8.4445724e-09
8.2287475e-09
7.9619128e-09
7.7633518e-09
7.6588141e-09
7.6694077e-09
7.7967627e-09
7.8527135e-09
7.8225312e-09
7.7429692e-09
7.6517301e-09
7.5802045e-09
7.5467797e-09
7.5405609e-09
7.5399626e-09
7.5344635e-09
7.5268999e-09
7.520698e-09
7.5188201e-09
7.5186045e-09
7.5187942e-09
7.5205626e-09
7.5198826e-09
7.5176335e-09
7.5344897e-09
7.5793759e-09
7.6045054e-09
7.5518164e-09
7.4520322e-09
7.3884959e-09
7.3602213e-09
7.351366e-09
7.3494097e-09
7.349107e-09
7.3490745e-09
7.3490722e-09
7.3490721e-09
7.3490722e-09
7.3490722e-09
7.3490722e-09
7.3490723e-09
0.00036301868
0.00069065932
0.00064136271
0.00019433106
2.0049671e-07
9.394675e-09
9.4704694e-09
8.8371622e-09
8.762894e-09
8.4295697e-09
8.2339826e-09
7.9833127e-09
7.7850876e-09
7.6684256e-09
7.6618581e-09
7.780175e-09
7.8491404e-09
7.8365182e-09
7.7660633e-09
7.6778184e-09
7.6029137e-09
7.560889e-09
7.5487051e-09
7.5451476e-09
7.5395025e-09
7.5308375e-09
7.5224633e-09
7.5187906e-09
7.5190054e-09
7.5199589e-09
7.5218618e-09
7.5214305e-09
7.5207447e-09
7.5415177e-09
7.5860752e-09
7.6098368e-09
7.5461823e-09
7.4458564e-09
7.3849383e-09
7.3588697e-09
7.3510143e-09
7.3493468e-09
7.3490993e-09
7.3490739e-09
7.3490721e-09
7.3490721e-09
7.3490722e-09
7.3490722e-09
7.3490722e-09
7.3490723e-09
0.00036070909
0.00067028242
0.00059641409
0.00014619801
9.0632186e-08
9.2135776e-09
9.4054728e-09
8.7913327e-09
8.7205798e-09
8.4117824e-09
8.2354243e-09
8.0024795e-09
7.8084896e-09
7.6789634e-09
7.6578225e-09
7.7639088e-09
7.8441783e-09
7.8484756e-09
7.7873669e-09
7.7031811e-09
7.6262236e-09
7.5773086e-09
7.558389e-09
7.5513552e-09
7.5449092e-09
7.5352082e-09
7.5250922e-09
7.5194356e-09
7.5195366e-09
7.5214449e-09
7.5233949e-09
7.5231531e-09
7.524385e-09
7.5495599e-09
7.5927179e-09
7.6140097e-09
7.539476e-09
7.4395846e-09
7.3815072e-09
7.3576269e-09
7.3507058e-09
7.3492942e-09
7.3490933e-09
7.3490734e-09
7.3490721e-09
7.3490721e-09
7.3490722e-09
7.3490722e-09
7.3490722e-09
7.3490723e-09
0.00035820486
0.00064893159
0.00054631816
0.00010208129
4.7462065e-08
9.0859788e-09
9.3245777e-09
8.746774e-09
8.6778133e-09
8.3920185e-09
8.2335173e-09
8.0191863e-09
7.8323408e-09
7.6915664e-09
7.6574155e-09
7.749714e-09
7.8386069e-09
7.8596287e-09
7.8068704e-09
7.7275907e-09
7.6496272e-09
7.5950995e-09
7.5692593e-09
7.5586142e-09
7.5503794e-09
7.5397247e-09
7.5280885e-09
7.5207966e-09
7.5202256e-09
7.52325e-09
7.5252199e-09
7.5250358e-09
7.5285987e-09
7.5586045e-09
7.5995799e-09
7.6167719e-09
7.5317114e-09
7.4332021e-09
7.3782272e-09
7.3564989e-09
7.3504394e-09
7.3492511e-09
7.3490885e-09
7.349073e-09
7.3490721e-09
7.3490721e-09
7.3490722e-09
7.3490722e-09
7.3490722e-09
7.3490723e-09
0.00035552606
0.000626881
0.0004943616
6.385407e-05
2.8826143e-08
8.989917e-09
9.2548529e-09
8.7037341e-09
8.6345601e-09
8.371e-09
8.228737e-09
8.0332173e-09
7.8555282e-09
7.7073156e-09
7.6619185e-09
7.7379015e-09
7.8357461e-09
7.8692867e-09
7.8247383e-09
7.7510809e-09
7.6730042e-09
7.6136654e-09
7.5810509e-09
7.566377e-09
7.5557342e-09
7.5441209e-09
7.531322e-09
7.5229728e-09
7.5211875e-09
7.5253101e-09
7.5274063e-09
7.5270823e-09
7.5332959e-09
7.5684651e-09
7.6068347e-09
7.6180015e-09
7.522954e-09
7.4266871e-09
7.3750781e-09
7.3554734e-09
7.3502097e-09
7.3492158e-09
7.3490848e-09
7.3490727e-09
7.3490721e-09
7.3490721e-09
7.3490722e-09
7.3490722e-09
7.3490722e-09
7.3490723e-09
0.00035257051
0.00060303642
0.00044364698
3.4315315e-05
1.99544e-08
8.9128386e-09
9.1851828e-09
8.6617552e-09
8.5909597e-09
8.3493639e-09
8.221625e-09
8.0444881e-09
7.8773016e-09
7.7261451e-09
7.6722614e-09
7.7278297e-09
7.8336794e-09
7.8738226e-09
7.8411086e-09
7.7737053e-09
7.696328e-09
7.6328136e-09
7.5937153e-09
7.574306e-09
7.5609834e-09
7.5482875e-09
7.5347589e-09
7.5254284e-09
7.5226223e-09
7.5274874e-09
7.5299707e-09
7.5294238e-09
7.5382434e-09
7.5787504e-09
7.6144768e-09
7.6179413e-09
7.5136659e-09
7.4202882e-09
7.3721488e-09
7.354564e-09
7.3500154e-09
7.3491873e-09
7.3490819e-09
7.3490725e-09
7.3490721e-09
7.3490721e-09
7.3490722e-09
7.3490722e-09
7.3490722e-09
7.3490723e-09
0.00034956111
0.00057846097
0.00039107839
1.5613005e-05
1.5448611e-08
8.8478549e-09
9.1171892e-09
8.6207619e-09
8.5475734e-09
8.3277148e-09
8.2127432e-09
8.0531721e-09
7.8974833e-09
7.746929e-09
7.6849583e-09
7.7201067e-09
7.8284696e-09
7.8742063e-09
7.8559441e-09
7.795269e-09
7.7193535e-09
7.6523107e-09
7.6070738e-09
7.5823341e-09
7.5661793e-09
7.5521416e-09
7.5382419e-09
7.5280624e-09
7.5248183e-09
7.5296506e-09
7.5328593e-09
7.5322597e-09
7.5436464e-09
7.5892606e-09
7.6224913e-09
7.6162929e-09
7.5040011e-09
7.4141151e-09
7.3694796e-09
7.3537714e-09
7.3498533e-09
7.3491645e-09
7.3490797e-09
7.3490724e-09
7.3490721e-09
7.3490721e-09
7.3490722e-09
7.3490722e-09
7.3490722e-09
7.3490723e-09
0.00034693279
0.0005560329
0.00033840821
6.2025307e-06
1.3035771e-08
8.7910946e-09
9.051011e-09
8.5810594e-09
8.5083789e-09
8.3065269e-09
8.2026645e-09
8.0596418e-09
7.9164129e-09
7.7690571e-09
7.6986692e-09
7.7188327e-09
7.8197855e-09
7.8747777e-09
7.8691568e-09
7.8156218e-09
7.7419234e-09
7.6720634e-09
7.6210092e-09
7.5905142e-09
7.5712787e-09
7.5556055e-09
7.5415926e-09
7.5310977e-09
7.5273673e-09
7.5316632e-09
7.5357763e-09
7.5355793e-09
7.5497541e-09
7.5998274e-09
7.6309683e-09
7.6121909e-09
7.4938857e-09
7.4080732e-09
7.3670154e-09
7.3530749e-09
7.349717e-09
7.349146e-09
7.3490779e-09
7.3490723e-09
7.3490721e-09
7.3490721e-09
7.3490722e-09
7.3490722e-09
7.3490722e-09
7.3490723e-09
0.00034445866
0.00053233513
0.00028577438
2.259513e-06
1.168721e-08
8.7405707e-09
8.9875231e-09
8.5437451e-09
8.4740589e-09
8.2861337e-09
8.1918992e-09
8.0643246e-09
7.9343417e-09
7.7925644e-09
7.7128538e-09
7.7183226e-09
7.8119487e-09
7.8754591e-09
7.881256e-09
7.8345458e-09
7.7638783e-09
7.6920033e-09
7.6355704e-09
7.599036e-09
7.5761921e-09
7.5586368e-09
7.5446862e-09
7.5345387e-09
7.5300372e-09
7.5335799e-09
7.5384352e-09
7.5391081e-09
7.5567586e-09
7.6099591e-09
7.6393333e-09
7.6059869e-09
7.4837561e-09
7.4022755e-09
7.3647584e-09
7.3524653e-09
7.3496027e-09
7.3491312e-09
7.3490766e-09
7.3490722e-09
7.3490721e-09
7.3490721e-09
7.3490722e-09
7.3490722e-09
7.3490722e-09
7.3490723e-09
0.00034238196
0.00050761733
0.0002341403
8.0397806e-07
1.0908627e-08
8.6949757e-09
8.927528e-09
8.5089417e-09
8.4418847e-09
8.2667405e-09
8.180878e-09
8.0676002e-09
7.9513224e-09
7.8177417e-09
7.7280966e-09
7.7202767e-09
7.8062681e-09
7.8754242e-09
7.8932467e-09
7.8517067e-09
7.7849854e-09
7.7119789e-09
7.6507555e-09
7.6081514e-09
7.5809465e-09
7.5612794e-09
7.5472725e-09
7.5380925e-09
7.533356e-09
7.5357978e-09
7.540397e-09
7.5427459e-09
7.5650026e-09
7.6194091e-09
7.6467921e-09
7.5977229e-09
7.473912e-09
7.3968547e-09
7.362737e-09
7.3519408e-09
7.3495081e-09
7.3491194e-09
7.3490756e-09
7.3490722e-09
7.3490721e-09
7.3490721e-09
7.3490722e-09
7.3490722e-09
7.3490722e-09
7.3490723e-09
0.00034087508
0.00048188326
0.00018393678
3.012583e-07
1.0432652e-08
8.6536291e-09
8.8713874e-09
8.4765482e-09
8.411077e-09
8.2483248e-09
8.1698988e-09
8.0697564e-09
7.9672147e-09
7.8436375e-09
7.7464819e-09
7.7279931e-09
7.80162e-09
7.874295e-09
7.9004691e-09
7.8667471e-09
7.8048958e-09
7.7317548e-09
7.6664421e-09
7.6179516e-09
7.5857302e-09
7.5636513e-09
7.5492215e-09
7.5411342e-09
7.537234e-09
7.5383116e-09
7.5412188e-09
7.54625e-09
7.5741946e-09
7.6283894e-09
7.6528905e-09
7.5873645e-09
7.4642307e-09
7.3917568e-09
7.3609239e-09
7.3514909e-09
7.3494302e-09
7.34911e-09
7.3490748e-09
7.3490721e-09
7.3490721e-09
7.3490721e-09
7.3490722e-09
7.3490722e-09
7.3490722e-09
7.3490723e-09
0.000340025
0.00045679156
0.00013678063
1.2607296e-07
1.0121278e-08
8.6161324e-09
8.8189605e-09
8.4467781e-09
8.382599e-09
8.2311051e-09
8.1591034e-09
8.0708796e-09
7.9816283e-09
7.8691426e-09
7.7691302e-09
7.7417832e-09
7.7978211e-09
7.8709127e-09
7.9006857e-09
7.8791333e-09
7.8228828e-09
7.7507661e-09
7.682312e-09
7.628427e-09
7.59089e-09
7.5658211e-09
7.5505028e-09
7.5431832e-09
7.5407825e-09
7.5411569e-09
7.5421393e-09
7.549561e-09
7.5837807e-09
7.6371343e-09
7.6577867e-09
7.57562e-09
7.4548018e-09
7.3870406e-09
7.359318e-09
7.3511086e-09
7.3493664e-09
7.3491026e-09
7.3490742e-09
7.3490721e-09
7.3490721e-09
7.3490721e-09
7.3490722e-09
7.3490722e-09
7.3490722e-09
7.3490723e-09
0.00033915292
0.00042500299
9.3095294e-05
6.0913605e-08
9.9027767e-09
8.5821345e-09
8.7698918e-09
8.4197602e-09
8.3568301e-09
8.2154265e-09
8.1488173e-09
8.0711713e-09
7.994443e-09
7.8937525e-09
7.7947741e-09
7.7592198e-09
7.7955609e-09
7.8658283e-09
7.9001339e-09
7.8882855e-09
7.8381668e-09
7.7683266e-09
7.6979178e-09
7.6394163e-09
7.5966604e-09
7.567932e-09
7.5512024e-09
7.5441651e-09
7.543165e-09
7.5443031e-09
7.5441087e-09
7.5534953e-09
7.5937944e-09
7.6452373e-09
7.6608754e-09
7.562805e-09
7.4456586e-09
7.3827075e-09
7.3579014e-09
7.3507844e-09
7.3493143e-09
7.3490967e-09
7.3490737e-09
7.3490721e-09
7.3490721e-09
7.3490721e-09
7.3490722e-09
7.3490722e-09
7.3490722e-09
7.3490723e-09
0.00033847013
0.00039110647
5.6917206e-05
3.4604959e-08
9.7379541e-09
8.5511853e-09
8.7238449e-09
8.3953717e-09
8.3336436e-09
8.2014837e-09
8.1394073e-09
8.0709696e-09
8.0058436e-09
7.9177123e-09
7.8224277e-09
7.7775197e-09
7.7959981e-09
7.8604068e-09
7.8983518e-09
7.894622e-09
7.8499519e-09
7.7836106e-09
7.7126112e-09
7.6505494e-09
7.6030466e-09
7.5703104e-09
7.55172e-09
7.5443573e-09
7.5441713e-09
7.5469569e-09
7.5472672e-09
7.5590198e-09
7.6047307e-09
7.6525553e-09
7.6617695e-09
7.5489876e-09
7.4367987e-09
7.3787506e-09
7.3566658e-09
7.3505124e-09
7.349272e-09
7.349092e-09
7.3490734e-09
7.3490721e-09
7.3490721e-09
7.3490721e-09
7.3490722e-09
7.3490722e-09
7.3490722e-09
7.3490723e-09
0.0003375131
0.00035236852
3.1129307e-05
2.280735e-08
9.6049953e-09
8.5231489e-09
8.6806274e-09
8.3735059e-09
8.3129503e-09
8.1894418e-09
8.1311811e-09
8.0706569e-09
8.0160698e-09
7.9411037e-09
7.8524186e-09
7.7970512e-09
7.8002629e-09
7.8552063e-09
7.8941322e-09
7.8957234e-09
7.8575806e-09
7.7957523e-09
7.725595e-09
7.6612434e-09
7.6097705e-09
7.5731766e-09
7.5525671e-09
7.5443252e-09
7.5443128e-09
7.5484961e-09
7.5512076e-09
7.5667245e-09
7.616915e-09
7.6598351e-09
7.6606527e-09
7.5346845e-09
7.4283495e-09
7.3751788e-09
7.3555961e-09
7.3502851e-09
7.3492376e-09
7.3490884e-09
7.3490731e-09
7.3490721e-09
7.3490721e-09