/*--------------------------------*- C++ -*----------------------------------*\
| =========                 |                                                 |
| \\      /  F ield         | OpenFOAM: The Open Source CFD Toolbox           |
|  \\    /   O peration     | Version:  2306                                  |
|   \\  /    A nd           | Website:  www.openfoam.com                      |
|    \\/     M anipulation  |                                                 |
\*---------------------------------------------------------------------------*/
FoamFile
{
    version     2.0;
    format      ascii;
    arch        "LSB;label=32;scalar=64";
    class       volScalarField;
    location    "0.002";
    object      nuTilda;
}
// * * * * * * * * * * * * * * * * * * * * * * * * * * * * * * * * * * * * * //

dimensions      [0 2 -1 0 0 0 0];

internalField   nonuniform List<scalar> 
20000
(
0.00043198623
0.0010420902
0.0013623879
0.0014424409
0.0012233268
0.00057993827
7.1019294e-05
1.1046595e-05
1.032111e-05
1.0270815e-05
1.0253007e-05
1.0220357e-05
1.0215394e-05
1.0239548e-05
1.0260461e-05
1.0254683e-05
1.0227146e-05
1.0194776e-05
1.0169491e-05
1.0149935e-05
1.0133075e-05
1.011746e-05
1.0102405e-05
1.008826e-05
1.0075793e-05
1.0064877e-05
1.0055254e-05
1.0047005e-05
1.0039899e-05
1.0033484e-05
1.0027724e-05
1.0022685e-05
1.0018063e-05
1.0013856e-05
1.0010285e-05
1.0006846e-05
1.0003411e-05
1.0000944e-05
1.0000514e-05
1.0000146e-05
1.0000043e-05
1.0000003e-05
1.0000001e-05
9.9999999e-06
9.9999999e-06
9.9999999e-06
9.9999999e-06
1e-05
1e-05
1e-05
0.00042840875
0.0010269693
0.00133473
0.001401228
0.001171096
0.00051573081
5.6586788e-05
1.0820916e-05
1.0314008e-05
1.0278562e-05
1.0262891e-05
1.0218395e-05
1.0196214e-05
1.0212093e-05
1.023304e-05
1.0233392e-05
1.0213032e-05
1.018556e-05
1.0162762e-05
1.0144345e-05
1.0128184e-05
1.0113397e-05
1.0099248e-05
1.0085769e-05
1.0073829e-05
1.0063392e-05
1.0054107e-05
1.0046053e-05
1.0039112e-05
1.0032864e-05
1.0027172e-05
1.0022196e-05
1.001769e-05
1.0013554e-05
1.001005e-05
1.0006987e-05
1.0003875e-05
1.0001068e-05
1.0000544e-05
1.0000211e-05
1.0000029e-05
1.0000005e-05
1e-05
9.9999999e-06
9.9999999e-06
9.9999999e-06
9.9999999e-06
1e-05
1e-05
1e-05
0.00042523779
0.0010132657
0.0013089402
0.0013608964
0.0011182797
0.00045327967
4.4850099e-05
1.0678224e-05
1.0311994e-05
1.0287964e-05
1.0277873e-05
1.0222061e-05
1.0183667e-05
1.0187607e-05
1.0205803e-05
1.0210624e-05
1.0197196e-05
1.0175203e-05
1.0155455e-05
1.0138445e-05
1.012299e-05
1.0108992e-05
1.0095791e-05
1.0083088e-05
1.0071747e-05
1.0061857e-05
1.0052991e-05
1.0045174e-05
1.0038399e-05
1.0032322e-05
1.0026711e-05
1.0021763e-05
1.0017374e-05
1.0013319e-05
1.0009761e-05
1.000664e-05
1.0004192e-05
1.0001256e-05
1.0000385e-05
1.0000167e-05
1.0000029e-05
1.0000005e-05
1e-05
9.9999999e-06
9.9999999e-06
9.9999999e-06
9.9999999e-06
1e-05
1e-05
1e-05
0.0004221462
0.0010001084
0.0012845915
0.0013253292
0.0010669542
0.00039742913
3.5959509e-05
1.059258e-05
1.0313799e-05
1.0294674e-05
1.029174e-05
1.0233461e-05
1.0181027e-05
1.01689e-05
1.0181811e-05
1.0188907e-05
1.0181302e-05
1.0164634e-05
1.0148156e-05
1.0132728e-05
1.0117962e-05
1.0104639e-05
1.0092341e-05
1.0080418e-05
1.0069653e-05
1.0060289e-05
1.0051857e-05
1.0044306e-05
1.0037695e-05
1.0031783e-05
1.0026285e-05
1.0021357e-05
1.0017075e-05
1.0013114e-05
1.000945e-05
1.00064e-05
1.0004286e-05
1.0001694e-05
1.000039e-05
1.0000141e-05
1.0000028e-05
1.0000006e-05
1.0000001e-05
9.9999999e-06
9.9999999e-06
9.9999999e-06
9.9999999e-06
1e-05
1e-05
1e-05
0.00041916736
0.0009873071
0.0012610312
0.0012883929
0.0010152634
0.0003466512
2.9223862e-05
1.0543677e-05
1.0317701e-05
1.0295532e-05
1.0299242e-05
1.0248448e-05
1.0179988e-05
1.0155957e-05
1.0161116e-05
1.01683e-05
1.0165263e-05
1.0153673e-05
1.0140674e-05
1.0127054e-05
1.0113014e-05
1.0100275e-05
1.0088835e-05
1.0077722e-05
1.006754e-05
1.0058695e-05
1.0050716e-05
1.0043464e-05
1.0037028e-05
1.0031268e-05
1.002591e-05
1.0021021e-05
1.0016794e-05
1.0012936e-05
1.0009237e-05
1.0006154e-05
1.0004298e-05
1.0001913e-05
1.0000482e-05
1.0000117e-05
1.0000025e-05
1.0000006e-05
1.0000001e-05
9.9999999e-06
9.9999999e-06
9.9999999e-06
9.9999999e-06
1e-05
1e-05
1e-05
0.00041625188
0.00097472433
0.0012373314
0.0012522511
0.00096352038
0.00030083851
2.4179911e-05
1.0519061e-05
1.032337e-05
1.0290357e-05
1.030133e-05
1.0262508e-05
1.0184151e-05
1.0151419e-05
1.0144387e-05
1.0149468e-05
1.0149469e-05
1.0142438e-05
1.0133003e-05
1.0121411e-05
1.0108171e-05
1.0095928e-05
1.0085276e-05
1.0074991e-05
1.0065403e-05
1.0057058e-05
1.004954e-05
1.0042614e-05
1.0036372e-05
1.0030756e-05
1.0025552e-05
1.0020731e-05
1.0016521e-05
1.0012768e-05
1.0009116e-05
1.0005972e-05
1.0004247e-05
1.0001984e-05
1.0000661e-05
1.0000123e-05
1.0000022e-05
1.0000005e-05
1.0000001e-05
9.9999999e-06
9.9999999e-06
9.9999999e-06
9.9999999e-06
1e-05
1e-05
1e-05
0.00041351023
0.00096286551
0.00121474
0.0012174684
0.00091137857
0.0002591653
2.0446284e-05
1.0510785e-05
1.0331572e-05
1.0280441e-05
1.0299722e-05
1.0272301e-05
1.0194007e-05
1.0149645e-05
1.0132079e-05
1.0132934e-05
1.0134266e-05
1.0131042e-05
1.0125117e-05
1.0115746e-05
1.0103424e-05
1.0091613e-05
1.008166e-05
1.0072212e-05
1.0063241e-05
1.0055377e-05
1.0048316e-05
1.0041741e-05
1.0035717e-05
1.0030247e-05
1.0025194e-05
1.0020476e-05
1.0016265e-05
1.0012594e-05
1.0009023e-05
1.0005892e-05
1.0004177e-05
1.0001951e-05
1.0000722e-05
1.0000175e-05
1.0000026e-05
1.0000004e-05
1e-05
9.9999999e-06
9.9999999e-06
9.9999999e-06
9.9999999e-06
1e-05
1e-05
1e-05
0.00041088154
0.0009513463
0.0011925494
0.0011828905
0.00085832173
0.00022244541
1.76967e-05
1.0513529e-05
1.0344136e-05
1.0267867e-05
1.0291843e-05
1.0276095e-05
1.0206087e-05
1.0151263e-05
1.0126038e-05
1.0119222e-05
1.0120065e-05
1.0119655e-05
1.0117019e-05
1.0109994e-05
1.0098744e-05
1.0087329e-05
1.0077975e-05
1.0069359e-05
1.006104e-05
1.0053647e-05
1.0047029e-05
1.0040822e-05
1.0035041e-05
1.0029727e-05
1.0024813e-05
1.0020233e-05
1.0016036e-05
1.0012401e-05
1.0008939e-05
1.0005837e-05
1.0004098e-05
1.0001865e-05
1.0000704e-05
1.000021e-05
1.0000041e-05
1.0000003e-05
1e-05
9.9999999e-06
9.9999999e-06
9.9999999e-06
9.9999999e-06
1e-05
1e-05
1e-05
0.00040842758
0.00094028122
0.0011709556
0.0011490018
0.00080438773
0.00018881387
1.5675691e-05
1.0523388e-05
1.0360401e-05
1.0259418e-05
1.0277436e-05
1.0274017e-05
1.0216486e-05
1.0157635e-05
1.0123345e-05
1.0108814e-05
1.0107295e-05
1.0108497e-05
1.0108737e-05
1.0104144e-05
1.0094142e-05
1.0083127e-05
1.0074259e-05
1.0066443e-05
1.0058812e-05
1.0051889e-05
1.0045691e-05
1.0039859e-05
1.0034339e-05
1.0029195e-05
1.0024406e-05
1.0019967e-05
1.0015832e-05
1.0012193e-05
1.000885e-05
1.0005766e-05
1.0004011e-05
1.0001771e-05
1.0000657e-05
1.0000195e-05
1.0000043e-05
1.0000006e-05
1e-05
9.9999999e-06
9.9999999e-06
9.9999999e-06
9.9999999e-06
1e-05
1e-05
1e-05
0.00040610215
0.00092953937
0.0011496128
0.0011149057
0.00074921795
0.0001584912
1.4218743e-05
1.0537865e-05
1.0379492e-05
1.0256316e-05
1.0260371e-05
1.0268506e-05
1.0223007e-05
1.0167764e-05
1.0123839e-05
1.0103015e-05
1.0096397e-05
1.0097834e-05
1.0100338e-05
1.0098154e-05
1.008958e-05
1.0079011e-05
1.0070522e-05
1.0063447e-05
1.0056539e-05
1.0050104e-05
1.0044303e-05
1.0038845e-05
1.0033604e-05
1.0028645e-05
1.0023977e-05
1.001966e-05
1.0015638e-05
1.0011982e-05
1.0008739e-05
1.000569e-05
1.000392e-05
1.0001676e-05
1.000061e-05
1.0000172e-05
1.0000038e-05
1.0000006e-05
1.0000001e-05
9.9999999e-06
9.9999999e-06
9.9999999e-06
9.9999999e-06
1e-05
1e-05
1e-05
0.00040392363
0.00091906896
0.0011285079
0.0010795851
0.00069272873
0.00013142369
1.3184989e-05
1.0555017e-05
1.0400975e-05
1.0256293e-05
1.0243621e-05
1.0255155e-05
1.022477e-05
1.0178442e-05
1.0128269e-05
1.01004e-05
1.008782e-05
1.008797e-05
1.0091927e-05
1.0092004e-05
1.0085024e-05
1.0074989e-05
1.0066789e-05
1.0060368e-05
1.0054205e-05
1.0048289e-05
1.0042868e-05
1.0037772e-05
1.0032826e-05
1.0028063e-05
1.0023521e-05
1.0019297e-05
1.0015421e-05
1.0011774e-05
1.0008594e-05
1.0005591e-05
1.0003821e-05
1.0001586e-05
1.0000565e-05
1.0000156e-05
1.0000033e-05
1.0000005e-05
1.0000001e-05
9.9999999e-06
9.9999999e-06
9.9999999e-06
9.9999999e-06
1e-05
1e-05
1e-05
0.00040182987
0.00090859947
0.0011074086
0.0010442915
0.00063502865
0.00010762318
1.2463927e-05
1.0573214e-05
1.0424296e-05
1.0258668e-05
1.0229722e-05
1.0236226e-05
1.0221658e-05
1.0187198e-05
1.0136499e-05
1.0100986e-05
1.0082957e-05
1.0079249e-05
1.0083655e-05
1.0085696e-05
1.0080436e-05
1.0071063e-05
1.0063085e-05
1.0057209e-05
1.005179e-05
1.0046438e-05
1.0041392e-05
1.0036636e-05
1.0031997e-05
1.0027438e-05
1.0023036e-05
1.0018886e-05
1.0015147e-05
1.0011564e-05
1.0008418e-05
1.0005465e-05
1.0003695e-05
1.0001491e-05
1.000052e-05
1.000014e-05
1.0000028e-05
1.0000004e-05
1e-05
9.9999999e-06
9.9999999e-06
9.9999999e-06
9.9999999e-06
1e-05
1e-05
1e-05
0.00039980344
0.00089792434
0.0010856939
0.0010086015
0.00057614346
8.7006686e-05
1.196782e-05
1.0590835e-05
1.0448176e-05
1.0263923e-05
1.0220563e-05
1.0215515e-05
1.021427e-05
1.0192691e-05
1.0147172e-05
1.0105201e-05
1.0080929e-05
1.0072044e-05
1.0075715e-05
1.0079256e-05
1.0075777e-05
1.006722e-05
1.0059438e-05
1.0053987e-05
1.004928e-05
1.0044538e-05
1.0039882e-05
1.003544e-05
1.0031111e-05
1.002677e-05
1.0022515e-05
1.0018443e-05
1.0014798e-05
1.0011331e-05
1.0008211e-05
1.0005317e-05
1.0003549e-05
1.0001383e-05
1.0000473e-05
1.0000124e-05
1.0000024e-05
1.0000003e-05
1e-05
9.9999999e-06
9.9999999e-06
9.9999999e-06
9.9999999e-06
1e-05
1e-05
1e-05
0.00039782233
0.00088697082
0.0010626285
0.00097231126
0.0005166535
6.9534771e-05
1.1631361e-05
1.0606409e-05
1.0471223e-05
1.0272121e-05
1.0217449e-05
1.0195647e-05
1.020336e-05
1.0194427e-05
1.0157909e-05
1.0113166e-05
1.0080953e-05
1.0066973e-05
1.0068348e-05
1.0072747e-05
1.0071018e-05
1.0063444e-05
1.0055874e-05
1.0050727e-05
1.0046667e-05
1.0042572e-05
1.0038341e-05
1.0034195e-05
1.0030165e-05
1.0026061e-05
1.0021956e-05
1.0017986e-05
1.0014387e-05
1.0011059e-05
1.0007997e-05
1.0005161e-05
1.0003395e-05
1.0001274e-05
1.0000426e-05
1.0000109e-05
1.000002e-05
1.0000003e-05
1e-05
9.9999999e-06
9.9999999e-06
9.9999999e-06
9.9999999e-06
1e-05
1e-05
1e-05
0.00039593041
0.00087607203
0.0010392285
0.00093490282
0.00045717289
5.5037234e-05
1.1404391e-05
1.0618525e-05
1.0492216e-05
1.0283058e-05
1.0216202e-05
1.0178745e-05
1.0189473e-05
1.0192921e-05
1.0166841e-05
1.0123792e-05
1.0084208e-05
1.0065442e-05
1.0061832e-05
1.0066264e-05
1.0066138e-05
1.0059706e-05
1.0052407e-05
1.0047457e-05
1.004395e-05
1.0040519e-05
1.0036765e-05
1.0032909e-05
1.0029158e-05
1.0025311e-05
1.002136e-05
1.0017518e-05
1.0013947e-05
1.0010737e-05
1.0007768e-05
1.0005013e-05
1.0003251e-05
1.0001167e-05
1.0000379e-05
1.0000094e-05
1.0000017e-05
1.0000002e-05
1e-05
9.9999999e-06
9.9999999e-06
9.9999999e-06
9.9999999e-06
1e-05
1e-05
1e-05
0.00039407042
0.00086492975
0.0010156191
0.00089574118
0.00039978972
4.3311741e-05
1.1250719e-05
1.0626241e-05
1.0510212e-05
1.0296184e-05
1.0217828e-05
1.0166206e-05
1.0174801e-05
1.0188641e-05
1.0173026e-05
1.013513e-05
1.0091114e-05
1.0064976e-05
1.0056476e-05
1.005991e-05
1.0061107e-05
1.0055952e-05
1.0049025e-05
1.0044192e-05
1.0041125e-05
1.0038348e-05
1.0035128e-05
1.0031585e-05
1.0028086e-05
1.0024511e-05
1.002073e-05
1.0017025e-05
1.0013507e-05
1.0010375e-05
1.0007528e-05
1.0004866e-05
1.0003116e-05
1.0001066e-05
1.0000336e-05
1.000008e-05
1.0000014e-05
1.0000002e-05
1e-05
9.9999999e-06
9.9999999e-06
9.9999999e-06
9.9999999e-06
1e-05
1e-05
1e-05
0.00039219742
0.00085335506
0.00099089052
0.00085419483
0.00034490004
3.4099014e-05
1.1144181e-05
1.0629189e-05
1.0524465e-05
1.0310468e-05
1.0222033e-05
1.0161598e-05
1.0160693e-05
1.0179701e-05
1.0176118e-05
1.0145601e-05
1.010078e-05
1.0066634e-05
1.0053066e-05
1.0053927e-05
1.0055993e-05
1.0052185e-05
1.0045758e-05
1.0040997e-05
1.0038239e-05
1.0036065e-05
1.0033425e-05
1.0030235e-05
1.0026967e-05
1.0023661e-05
1.0020073e-05
1.0016501e-05
1.0013074e-05
1.0009995e-05
1.0007268e-05
1.0004718e-05
1.0002981e-05
1.000097e-05
1.0000298e-05
1.0000069e-05
1.0000012e-05
1.0000002e-05
1e-05
9.9999999e-06
9.9999999e-06
9.9999999e-06
9.9999999e-06
1e-05
1e-05
1e-05
0.00039032297
0.00084144082
0.00096509923
0.00080983016
0.0002930979
2.7065911e-05
1.1066766e-05
1.0627523e-05
1.0534497e-05
1.0324416e-05
1.0228423e-05
1.0159827e-05
1.014839e-05
1.0168408e-05
1.017602e-05
1.0154284e-05
1.0111379e-05
1.00714e-05
1.0052303e-05
1.0048545e-05
1.0050857e-05
1.004838e-05
1.0042598e-05
1.0037904e-05
1.0035331e-05
1.0033678e-05
1.003164e-05
1.0028856e-05
1.0025815e-05
1.002276e-05
1.00194e-05
1.0015951e-05
1.0012649e-05
1.0009628e-05
1.0006998e-05
1.0004571e-05
1.000283e-05
1.000088e-05
1.0000263e-05
1.000006e-05
1.000001e-05
1.0000001e-05
1e-05
9.9999999e-06
9.9999999e-06
9.9999999e-06
9.9999999e-06
1e-05
1e-05
1e-05
0.00038846157
0.00082930502
0.00093831552
0.0007634004
0.00024518895
2.186263e-05
1.100703e-05
1.0621769e-05
1.0540274e-05
1.0337097e-05
1.0236512e-05
1.015892e-05
1.013829e-05
1.0156109e-05
1.0174013e-05
1.0160754e-05
1.0121625e-05
1.0078886e-05
1.0052203e-05
1.0044081e-05
1.0045807e-05
1.0044535e-05
1.0039535e-05
1.0034945e-05
1.003245e-05
1.0031209e-05
1.0029762e-05
1.0027434e-05
1.002464e-05
1.0021807e-05
1.0018704e-05
1.0015385e-05
1.0012222e-05
1.0009283e-05
1.0006736e-05
1.0004426e-05
1.0002654e-05
1.0000794e-05
1.0000231e-05
1.0000051e-05
1.0000009e-05
1.0000001e-05
1e-05
9.9999999e-06
9.9999999e-06
9.9999999e-06
9.9999999e-06
1e-05
1e-05
1e-05
0.00038663615
0.00081713743
0.00091068493
0.00071397755
0.00020196661
1.8133851e-05
1.0957549e-05
1.0612616e-05
1.054194e-05
1.0347912e-05
1.0245409e-05
1.0159397e-05
1.013047e-05
1.0143515e-05
1.0168577e-05
1.016461e-05
1.0130757e-05
1.0087629e-05
1.0054133e-05
1.0041566e-05
1.0040995e-05
1.0040665e-05
1.0036557e-05
1.0032144e-05
1.0029645e-05
1.0028692e-05
1.0027798e-05
1.0025959e-05
1.0023444e-05
1.0020812e-05
1.0017973e-05
1.0014814e-05
1.0011786e-05
1.0008962e-05
1.0006479e-05
1.000429e-05
1.0002441e-05
1.0000712e-05
1.0000201e-05
1.0000044e-05
1.0000008e-05
1.0000001e-05
1e-05
9.9999999e-06
9.9999999e-06
9.9999999e-06
9.9999999e-06
1e-05
1e-05
1e-05
0.00038490908
0.00080517849
0.0008834761
0.00066119841
0.00016523755
1.5545258e-05
1.0913821e-05
1.0600761e-05
1.0539811e-05
1.0356487e-05
1.0254299e-05
1.016153e-05
1.0126414e-05
1.0131265e-05
1.0161068e-05
1.0165527e-05
1.0138366e-05
1.0096489e-05
1.0058611e-05
1.0040656e-05
1.0036618e-05
1.0036814e-05
1.0033656e-05
1.0029516e-05
1.0026968e-05
1.0026177e-05
1.0025766e-05
1.0024427e-05
1.0022226e-05
1.0019791e-05
1.0017203e-05
1.0014237e-05
1.0011341e-05
1.0008648e-05
1.0006247e-05
1.0004159e-05
1.0002199e-05
1.0000633e-05
1.0000174e-05
1.0000038e-05
1.0000007e-05
1.0000001e-05
1e-05
9.9999999e-06
9.9999999e-06
9.9999999e-06
9.9999999e-06
1e-05
1e-05
1e-05
0.00038327569
0.00079332231
0.00085776678
0.00060515491
0.00013283884
1.3773917e-05
1.0873199e-05
1.0586838e-05
1.0534295e-05
1.0362644e-05
1.0262512e-05
1.0165254e-05
1.0124957e-05
1.0120279e-05
1.0153119e-05
1.0165154e-05
1.0144256e-05
1.0104794e-05
1.0064831e-05
1.0040494e-05
1.0032976e-05
1.0033053e-05
1.0030828e-05
1.002707e-05
1.0024464e-05
1.0023716e-05
1.0023696e-05
1.0022852e-05
1.002099e-05
1.0018765e-05
1.0016405e-05
1.0013656e-05
1.0010894e-05
1.0008341e-05
1.0006026e-05
1.0004048e-05
1.0001921e-05
1.0000558e-05
1.0000149e-05
1.0000032e-05
1.0000006e-05
1.0000001e-05
9.9999999e-06
9.9999999e-06
9.9999999e-06
9.9999999e-06
9.9999999e-06
1e-05
1e-05
1e-05
0.00038175382
0.00078124616
0.00083078723
0.00054595425
0.0001051715
1.2589087e-05
1.083413e-05
1.0571344e-05
1.0526058e-05
1.0366326e-05
1.0269683e-05
1.0170386e-05
1.0124062e-05
1.0111163e-05
1.0143536e-05
1.0162924e-05
1.0148393e-05
1.0112195e-05
1.0071744e-05
1.0042023e-05
1.0031096e-05
1.0029488e-05
1.0028076e-05
1.0024804e-05
1.0022166e-05
1.0021364e-05
1.0021624e-05
1.0021249e-05
1.0019741e-05
1.0017744e-05
1.0015601e-05
1.0013078e-05
1.0010459e-05
1.000804e-05
1.0005822e-05
1.0003954e-05
1.0001637e-05
1.0000486e-05
1.0000125e-05
1.0000027e-05
1.0000005e-05
1.0000001e-05
9.9999999e-06
9.9999999e-06
9.9999999e-06
9.9999999e-06
9.9999999e-06
1e-05
1e-05
1e-05
0.0003803244
0.00076904391
0.0008035285
0.00048483903
8.194994e-05
1.1817914e-05
1.0796349e-05
1.0554818e-05
1.0515867e-05
1.0367619e-05
1.0275618e-05
1.0176411e-05
1.0123727e-05
1.0104076e-05
1.0133088e-05
1.0158114e-05
1.015084e-05
1.0118505e-05
1.0078674e-05
1.0045508e-05
1.0030148e-05
1.0026262e-05
1.002541e-05
1.0022707e-05
1.0020094e-05
1.001916e-05
1.0019572e-05
1.0019629e-05
1.0018482e-05
1.0016728e-05
1.0014802e-05
1.001251e-05
1.0010046e-05
1.0007756e-05
1.0005623e-05
1.0003865e-05
1.0001408e-05
1.0000428e-05
1.0000105e-05
1.0000023e-05
1.0000004e-05
1e-05
9.9999999e-06
9.9999999e-06
9.9999999e-06
9.9999999e-06
9.9999999e-06
1e-05
1e-05
1e-05
0.00037900273
0.00075665293
0.00077574464
0.00042346723
6.3140821e-05
1.1327721e-05
1.076214e-05
1.0537759e-05
1.050414e-05
1.0366661e-05
1.0280165e-05
1.0182616e-05
1.0124368e-05
1.0098892e-05
1.0122437e-05
1.0151932e-05
1.0151513e-05
1.0123542e-05
1.0085165e-05
1.0050173e-05
1.0029954e-05
1.0023751e-05
1.0022908e-05
1.0020807e-05
1.0018306e-05
1.00172e-05
1.0017617e-05
1.0018031e-05
1.0017249e-05
1.0015733e-05
1.0014023e-05
1.0011968e-05
1.0009675e-05
1.0007493e-05
1.0005434e-05
1.0003762e-05
1.0001231e-05
1.0000382e-05
1.0000093e-05
1.0000022e-05
1.0000004e-05
1e-05
9.9999999e-06
9.9999999e-06
9.9999999e-06
9.9999999e-06
9.9999999e-06
1e-05
1e-05
1e-05
0.00037768385
0.00074335651
0.00074693147
0.00036641749
4.8430113e-05
1.1021638e-05
1.0734424e-05
1.0520569e-05
1.049124e-05
1.0363685e-05
1.0283239e-05
1.0188508e-05
1.0126122e-05
1.0095841e-05
1.0111988e-05
1.0145829e-05
1.0151121e-05
1.0127329e-05
1.0091018e-05
1.0055299e-05
1.0031179e-05
1.0022583e-05
1.0020647e-05
1.0019117e-05
1.0016832e-05
1.0015569e-05
1.001583e-05
1.001649e-05
1.0016076e-05
1.0014784e-05
1.0013275e-05
1.0011452e-05
1.0009351e-05
1.000727e-05
1.0005261e-05
1.0003638e-05
1.0001093e-05
1.0000337e-05
1.0000083e-05
1.0000022e-05
1.0000004e-05
1e-05
9.9999999e-06
9.9999999e-06
9.9999999e-06
9.9999999e-06
1e-05
1e-05
1e-05
1e-05
0.00037625743
0.00072853802
0.0007163374
0.0003132316
3.7169382e-05
1.0831436e-05
1.0708629e-05
1.0503422e-05
1.0477404e-05
1.0358928e-05
1.028479e-05
1.0193803e-05
1.0128732e-05
1.0095126e-05
1.0102199e-05
1.0140011e-05
1.0149772e-05
1.012993e-05
1.0096108e-05
1.0060436e-05
1.0033734e-05
1.0021981e-05
1.0018776e-05
1.001765e-05
1.00157e-05
1.0014374e-05
1.0014317e-05
1.0015041e-05
1.001499e-05
1.0013907e-05
1.0012564e-05
1.0010958e-05
1.0009051e-05
1.0007067e-05
1.0005105e-05
1.0003513e-05
1.0000979e-05
1.0000291e-05
1.0000072e-05
1.0000021e-05
1.0000003e-05
1e-05
9.9999999e-06
9.9999999e-06
9.9999999e-06
9.9999999e-06
1e-05
1e-05
1e-05
1e-05
0.00037463787
0.00071205158
0.0006831749
0.00026399679
2.885759e-05
1.0709857e-05
1.0688483e-05
1.0486481e-05
1.0462817e-05
1.0352652e-05
1.0284832e-05
1.0198352e-05
1.0132032e-05
1.0094782e-05
1.0094952e-05
1.0132562e-05
1.0146197e-05
1.0131444e-05
1.0100384e-05
1.0065336e-05
1.0037059e-05
1.0022199e-05
1.0017636e-05
1.0016434e-05
1.0014925e-05
1.0013656e-05
1.0013199e-05
1.0013734e-05
1.0014011e-05
1.0013142e-05
1.0011915e-05
1.0010499e-05
1.000878e-05
1.0006904e-05
1.000496e-05
1.0003413e-05
1.0000881e-05
1.0000252e-05
1.0000062e-05
1.0000018e-05
1.0000003e-05
1e-05
9.9999999e-06
9.9999999e-06
9.9999999e-06
9.9999999e-06
1e-05
1e-05
1e-05
1e-05
0.0003727174
0.00069352347
0.00064466371
0.00021942767
2.2901167e-05
1.0630924e-05
1.0654238e-05
1.0469557e-05
1.0447685e-05
1.0345123e-05
1.028344e-05
1.0202082e-05
1.0135885e-05
1.0094586e-05
1.0088942e-05
1.0123466e-05
1.0141174e-05
1.0131978e-05
1.0103855e-05
1.0069892e-05
1.0040713e-05
1.002331e-05
1.00172e-05
1.0015521e-05
1.001447e-05
1.00133e-05
1.0012485e-05
1.0012633e-05
1.0013133e-05
1.0012506e-05
1.0011357e-05
1.0010099e-05
1.0008551e-05
1.0006783e-05
1.0004853e-05
1.0003274e-05
1.0000799e-05
1.000022e-05
1.0000053e-05
1.0000016e-05
1.0000002e-05
1e-05
9.9999999e-06
9.9999999e-06
9.9999999e-06
9.9999999e-06
1e-05
1e-05
1e-05
1e-05
0.00037050478
0.00067331511
0.00060021049
0.00018021207
1.8754672e-05
1.0576527e-05
1.0633046e-05
1.0453065e-05
1.0432047e-05
1.0336588e-05
1.0280711e-05
1.0204927e-05
1.01401e-05
1.0094524e-05
1.0083918e-05
1.0114296e-05
1.0135528e-05
1.0131679e-05
1.0106571e-05
1.0074061e-05
1.0044461e-05
1.0025148e-05
1.0017301e-05
1.0015e-05
1.0014216e-05
1.0013174e-05
1.0012137e-05
1.0011811e-05
1.001233e-05
1.0011991e-05
1.0010899e-05
1.0009761e-05
1.000837e-05
1.000671e-05
1.0004765e-05
1.0003021e-05
1.0000733e-05
1.0000202e-05
1.0000051e-05
1.0000014e-05
1.0000002e-05
1e-05
9.9999999e-06
9.9999999e-06
9.9999999e-06
9.9999999e-06
1e-05
1e-05
1e-05
1e-05
0.00036810833
0.00065215758
0.00055080899
0.00014634377
1.5942458e-05
1.0536803e-05
1.0607096e-05
1.0436755e-05
1.0416084e-05
1.0327288e-05
1.0276783e-05
1.0206815e-05
1.0144272e-05
1.0094961e-05
1.0079913e-05
1.0105617e-05
1.0129503e-05
1.013094e-05
1.0108535e-05
1.0077779e-05
1.0048147e-05
1.002742e-05
1.001783e-05
1.0014896e-05
1.0014073e-05
1.0013191e-05
1.0011989e-05
1.0011281e-05
1.0011605e-05
1.0011593e-05
1.0010557e-05
1.0009474e-05
1.0008226e-05
1.000667e-05
1.0004703e-05
1.0002652e-05
1.0000652e-05
1.0000183e-05
1.0000051e-05
1.0000014e-05
1.0000002e-05
1e-05
9.9999999e-06
9.9999999e-06
9.9999999e-06
9.9999999e-06
1e-05
1e-05
1e-05
1e-05
0.000365547
0.00063032679
0.0004997898
0.0001173918
1.4066599e-05
1.05058e-05
1.0584053e-05
1.0420711e-05
1.0399786e-05
1.0317445e-05
1.02718e-05
1.0207676e-05
1.0148032e-05
1.0096242e-05
1.0077337e-05
1.0097525e-05
1.0124174e-05
1.0129545e-05
1.0109812e-05
1.0081071e-05
1.005175e-05
1.0029954e-05
1.0018709e-05
1.0015046e-05
1.0013993e-05
1.001327e-05
1.0012005e-05
1.0011077e-05
1.0010998e-05
1.0011293e-05
1.0010351e-05
1.0009236e-05
1.0008098e-05
1.0006603e-05
1.0004693e-05
1.0002241e-05
1.000055e-05
1.0000145e-05
1.0000042e-05
1.0000011e-05
1.0000001e-05
1e-05
9.9999999e-06
9.9999999e-06
9.9999999e-06
9.9999999e-06
1e-05
1e-05
1e-05
1e-05
0.00036272516
0.00060674661
0.00045029319
9.2678503e-05
1.2825376e-05
1.0480043e-05
1.0560786e-05
1.0404803e-05
1.0383196e-05
1.0307249e-05
1.0265925e-05
1.0207477e-05
1.015113e-05
1.0098325e-05
1.0076481e-05
1.0089804e-05
1.0118911e-05
1.0126325e-05
1.0110452e-05
1.0083961e-05
1.0055279e-05
1.0032698e-05
1.001994e-05
1.0015351e-05
1.0013991e-05
1.0013382e-05
1.0012173e-05
1.0011018e-05
1.0010576e-05
1.0011046e-05
1.0010286e-05
1.0009079e-05
1.0007948e-05
1.0006479e-05
1.0004653e-05
1.0001893e-05
1.0000497e-05
1.0000124e-05
1.0000038e-05
1.0000009e-05
1.0000001e-05
9.9999999e-06
9.9999999e-06
9.9999999e-06
9.9999999e-06
9.9999999e-06
1e-05
1e-05
1e-05
1e-05
0.0003598544
0.00058247677
0.00039945177
7.2044244e-05
1.2025956e-05
1.04576e-05
1.0537757e-05
1.0389001e-05
1.0366467e-05
1.0296869e-05
1.0259316e-05
1.0206262e-05
1.0153499e-05
1.0100827e-05
1.0076184e-05
1.0082643e-05
1.0112437e-05
1.0121596e-05
1.011045e-05
1.0086401e-05
1.005868e-05
1.0035588e-05
1.0021483e-05
1.0015802e-05
1.0014092e-05
1.0013505e-05
1.0012442e-05
1.001107e-05
1.0010431e-05
1.0010807e-05
1.0010339e-05
1.0009065e-05
1.0007824e-05
1.0006321e-05
1.0004553e-05
1.0001607e-05
1.0000476e-05
1.0000127e-05
1.0000042e-05
1.0000009e-05
1.0000001e-05
9.9999999e-06
9.9999999e-06
9.9999999e-06
9.9999999e-06
9.9999999e-06
1e-05
1e-05
1e-05
1e-05
0.0003573469
0.00056036084
0.00034922583
5.5406472e-05
1.1521932e-05
1.0437342e-05
1.0514981e-05
1.0373367e-05
1.0350784e-05
1.0286433e-05
1.0252137e-05
1.0204139e-05
1.0155239e-05
1.0103532e-05
1.0075995e-05
1.0077381e-05
1.0104648e-05
1.0116763e-05
1.0109796e-05
1.0088369e-05
1.0061933e-05
1.0038609e-05
1.0023322e-05
1.0016433e-05
1.0014295e-05
1.0013619e-05
1.0012753e-05
1.0011304e-05
1.0010426e-05
1.0010528e-05
1.0010408e-05
1.0009163e-05
1.0007736e-05
1.0006173e-05
1.0004413e-05
1.0001341e-05
1.0000407e-05
1.0000111e-05
1.0000041e-05
1.0000008e-05
1.0000001e-05
9.9999999e-06
9.9999999e-06
9.9999999e-06
9.9999999e-06
9.9999999e-06
1e-05
1e-05
1e-05
1e-05
0.00035498622
0.00053703385
0.00030013082
4.2345794e-05
1.1207543e-05
1.0418657e-05
1.0492685e-05
1.035822e-05
1.0336352e-05
1.0276035e-05
1.0244537e-05
1.0201236e-05
1.0156423e-05
1.0106441e-05
1.007573e-05
1.0072154e-05
1.0096939e-05
1.0111808e-05
1.0108666e-05
1.0089822e-05
1.0065009e-05
1.0041767e-05
1.0025493e-05
1.0017324e-05
1.0014582e-05
1.0013717e-05
1.0013069e-05
1.0011728e-05
1.0010487e-05
1.0010235e-05
1.0010398e-05
1.0009271e-05
1.0007649e-05
1.0005959e-05
1.0004262e-05
1.0001179e-05
1.000035e-05
1.0000094e-05
1.0000037e-05
1.0000006e-05
1.0000001e-05
9.9999999e-06
9.9999999e-06
9.9999999e-06
9.9999999e-06
9.9999999e-06
1e-05
1e-05
1e-05
1e-05
0.00035300264
0.00051275527
0.00025359186
3.24494e-05
1.1011909e-05
1.0401195e-05
1.0471131e-05
1.0343614e-05
1.0322353e-05
1.0265734e-05
1.0236643e-05
1.0197665e-05
1.0157065e-05
1.0109639e-05
1.0075574e-05
1.0067517e-05
1.0089739e-05
1.0106475e-05
1.0107402e-05
1.0090689e-05
1.0067853e-05
1.0045037e-05
1.0028012e-05
1.0018568e-05
1.0014967e-05
1.0013814e-05
1.0013299e-05
1.0012238e-05
1.0010782e-05
1.001006e-05
1.0010159e-05
1.0009265e-05
1.0007615e-05
1.0005753e-05
1.0004072e-05
1.0001076e-05
1.0000325e-05
1.0000093e-05
1.0000036e-05
1.0000006e-05
1e-05
9.9999999e-06
9.9999999e-06
9.9999999e-06
9.9999999e-06
9.9999999e-06
1e-05
1e-05
1e-05
1e-05
0.00035155776
0.00048754587
0.0002105638
2.5295044e-05
1.0885553e-05
1.0384776e-05
1.0450442e-05
1.0329521e-05
1.0308546e-05
1.0255519e-05
1.0228539e-05
1.0193511e-05
1.0157112e-05
1.0112805e-05
1.0076195e-05
1.0064538e-05
1.0082688e-05
1.0100653e-05
1.0104537e-05
1.0090893e-05
1.0070374e-05
1.0048372e-05
1.0030855e-05
1.0020203e-05
1.0015519e-05
1.0013952e-05
1.00134e-05
1.0012629e-05
1.0011284e-05
1.0010004e-05
1.000953e-05
1.0009008e-05
1.0007618e-05
1.0005632e-05
1.0003724e-05
1.000096e-05
1.0000285e-05
1.0000085e-05
1.0000032e-05
1.0000005e-05
1e-05
9.9999999e-06
9.9999999e-06
9.9999999e-06
9.9999999e-06
9.9999999e-06
1e-05
1e-05
1e-05
1e-05
0.00035073311
0.00046304411
0.00017262625
2.0307708e-05
1.0799039e-05
1.0369274e-05
1.0430577e-05
1.0315994e-05
1.0295218e-05
1.0245449e-05
1.0220261e-05
1.0188794e-05
1.0156432e-05
1.0115567e-05
1.007794e-05
1.0063309e-05
1.0075729e-05
1.0093984e-05
1.0099388e-05
1.009029e-05
1.0072373e-05
1.0051609e-05
1.0033932e-05
1.0022237e-05
1.001636e-05
1.0014154e-05
1.0013361e-05
1.0012741e-05
1.0011698e-05
1.0010084e-05
1.00089e-05
1.000844e-05
1.0007458e-05
1.0005621e-05
1.0003362e-05
1.000089e-05
1.0000256e-05
1.0000077e-05
1.0000028e-05
1.0000004e-05
1e-05
9.9999999e-06
9.9999999e-06
9.9999999e-06
9.9999999e-06
9.9999999e-06
1e-05
1e-05
1e-05
1e-05
0.00034988674
0.00043214364
0.00013935641
1.6913072e-05
1.0735738e-05
1.0354592e-05
1.0411437e-05
1.0303076e-05
1.028248e-05
1.0235622e-05
1.02119e-05
1.0183562e-05
1.0154973e-05
1.0117755e-05
1.0080381e-05
1.0063031e-05
1.0069095e-05
1.0086662e-05
1.0093994e-05
1.0088725e-05
1.0073636e-05
1.0054552e-05
1.0037113e-05
1.0024626e-05
1.0017571e-05
1.0014468e-05
1.0013212e-05
1.001255e-05
1.0011754e-05
1.0010284e-05
1.0008557e-05
1.000779e-05
1.0007086e-05
1.0005566e-05
1.0002938e-05
1.0000865e-05
1.000025e-05
1.0000077e-05
1.0000025e-05
1.0000003e-05
1e-05
9.9999998e-06
9.9999999e-06
9.9999999e-06
9.9999999e-06
9.9999999e-06
1e-05
1e-05
1e-05
1e-05
0.00034921887
0.00039940931
0.00011170367
1.46724e-05
1.0686056e-05
1.0340585e-05
1.0392922e-05
1.0290718e-05
1.0270288e-05
1.0226084e-05
1.0203553e-05
1.0177905e-05
1.0152783e-05
1.0119436e-05
1.0083187e-05
1.0062797e-05
1.0063169e-05
1.0079152e-05
1.0088243e-05
1.0086357e-05
1.0073948e-05
1.0056958e-05
1.0040201e-05
1.0027256e-05
1.001915e-05
1.0014993e-05
1.0013081e-05
1.001215e-05
1.0011383e-05
1.0010334e-05
1.0008522e-05
1.0007322e-05
1.0006661e-05
1.0005376e-05
1.0002504e-05
1.0000793e-05
1.0000233e-05
1.0000073e-05
1.0000021e-05
1.0000003e-05
1e-05
9.9999998e-06
9.9999999e-06
9.9999999e-06
9.9999999e-06
9.9999999e-06
1e-05
1e-05
1e-05
1e-05
0.00034829145
0.00036236026
8.9414593e-05
1.3212046e-05
1.0644451e-05
1.0327215e-05
1.0374972e-05
1.0278881e-05
1.02586e-05
1.0216872e-05
1.0195299e-05
1.0171927e-05
1.0149922e-05
1.0120628e-05
1.0086452e-05
1.0062729e-05
1.0058331e-05
1.0071669e-05
1.0081783e-05
1.008246e-05
1.007313e-05
1.0058572e-05
1.0042952e-05
1.0029937e-05
1.0021011e-05
1.0015811e-05
1.0013134e-05
1.0011723e-05
1.0010755e-05
1.0010025e-05
1.0008662e-05
1.000724e-05
1.0006348e-05
1.0005174e-05
1.0002107e-05
1.0000695e-05
1.0000205e-05
1.0000067e-05
1.0000018e-05
1.0000002e-05
1e-05
9.9999998e-06
9.9999999e-06
9.9999999e-06
9.9999999e-06
9.9999999e-06
1e-05
1e-05
1e-05
1e-05
0.00034680233
0.00032224675
7.0777012e-05
1.2260167e-05
1.06078e-05
1.031444e-05
1.035757e-05
1.0267544e-05
1.0247411e-05
1.0208007e-05
1.0187205e-05
1.0165724e-05
1.0146437e-05
1.0121168e-05
1.0089967e-05
1.0063438e-05
1.005499e-05
1.0064424e-05
1.0074587e-05
1.0077032e-05
1.0071066e-05
1.0059144e-05
1.0045083e-05
1.0032421e-05
1.0022986e-05
1.0016876e-05
1.0013393e-05
1.001145e-05
1.0010113e-05
1.0009413e-05
1.0008847e-05
1.0007595e-05
1.0006343e-05
1.0005052e-05
1.0001834e-05
1.0000609e-05
1.000018e-05
1.0000061e-05
1.0000015e-05
1.0000002e-05
1e-05
9.9999998e-06
9.9999999e-06
9.9999999e-06
9.9999999e-06
9.9999999e-06
1e-05
1e-05
1e-05
1e-05
0.00034450374
0.0002748211
5.5945159e-05
1.1653317e-05
1.0574432e-05
1.0302275e-05
1.034068e-05
1.0256692e-05
1.0236708e-05
1.0199501e-05
1.0179327e-05
1.0159402e-05
1.0142385e-05
1.0120853e-05
1.0093067e-05
1.0065624e-05
1.0053864e-05
1.0057778e-05
1.0067047e-05
1.0070938e-05
1.0067687e-05
1.0058472e-05
1.0046307e-05
1.0034416e-05
1.0024838e-05
1.0018056e-05
1.0013789e-05
1.0011308e-05
1.0009598e-05
1.0008689e-05
1.00089e-05
1.0008141e-05
1.00066e-05
1.0005009e-05
1.0001666e-05
1.0000538e-05
1.0000159e-05
1.0000056e-05
1.0000013e-05
1.0000001e-05
9.9999999e-06
9.9999998e-06
9.9999999e-06
9.9999999e-06
9.9999999e-06
9.9999999e-06
1e-05
1e-05
1e-05
1e-05