/*--------------------------------*- C++ -*----------------------------------*\
| =========                 |                                                 |
| \\      /  F ield         | OpenFOAM: The Open Source CFD Toolbox           |
|  \\    /   O peration     | Version:  2306                                  |
|   \\  /    A nd           | Website:  www.openfoam.com                      |
|    \\/     M anipulation  |                                                 |
\*---------------------------------------------------------------------------*/
FoamFile
{
    version     2.0;
    format      ascii;
    arch        "LSB;label=32;scalar=64";
    class       volVectorField;
    location    "0.002";
    object      U;
}
// * * * * * * * * * * * * * * * * * * * * * * * * * * * * * * * * * * * * * //

dimensions      [0 1 -1 0 0 0 0];

internalField   nonuniform List<vector> 
20000
(
(73.640557 1.7851326e-17 -0.22674679)
(87.562618 -7.8225999e-18 -0.12009922)
(96.426173 2.8679706e-17 -0.18321998)
(103.81957 -1.7671116e-17 -0.20682235)
(110.2539 -1.6457615e-17 -0.23939609)
(115.12925 2.2585397e-17 -0.28409454)
(116.23854 -1.7928697e-17 -0.25414151)
(115.9952 -2.3111454e-17 -0.17682799)
(115.76915 1.3101295e-17 -0.14057703)
(115.70142 3.6497061e-17 -0.032263728)
(115.57109 -4.7399543e-17 0.013622591)
(115.41673 -1.3431078e-17 0.14423038)
(115.12062 6.4109768e-17 0.21024348)
(114.7106 -7.3122717e-17 0.34887594)
(114.15089 4.1008778e-17 0.43621497)
(113.50188 -2.552336e-17 0.57722382)
(112.78672 3.7083957e-17 0.69357323)
(112.04148 -4.303387e-17 0.8585843)
(111.25254 8.4484795e-17 1.0322943)
(110.41662 1.3895284e-17 1.2583659)
(109.52938 -6.1743191e-17 1.5194939)
(108.5977 -5.9527881e-18 1.839027)
(107.63437 -4.3004919e-17 2.2125516)
(106.65947 3.9662534e-17 2.651283)
(105.69352 3.1757338e-18 3.1502519)
(104.75898 2.742802e-17 3.7035829)
(103.87894 -2.6320899e-17 4.2941502)
(103.07049 9.4835808e-17 4.8975287)
(102.34383 1.4175642e-16 5.4824547)
(101.7022 -4.9378928e-17 6.0182195)
(101.15002 2.4085999e-17 6.4840551)
(100.68882 -8.3293082e-17 6.8674546)
(100.3093 1.9069791e-16 7.1522276)
(100.06077 4.09239e-17 7.358167)
(99.913542 -1.3834236e-16 7.4531665)
(99.726809 1.6365085e-16 7.378354)
(99.68636 -1.0713879e-17 7.5530488)
(99.943642 -6.8933252e-17 8.3999388)
(100.23815 2.3019607e-16 9.605363)
(100.43042 9.4511602e-17 10.447098)
(100.49137 -1.5993784e-16 10.817557)
(100.49929 -1.2463472e-16 10.936295)
(100.50019 -2.8300735e-16 10.964297)
(100.50001 -1.6512013e-16 10.969286)
(100.5 4.4566052e-17 10.969931)
(100.5 2.6810687e-17 10.969995)
(100.5 -7.2766223e-17 10.97)
(100.5 2.8334098e-17 10.97)
(100.5 -1.0650687e-16 10.97)
(100.5 4.3766256e-18 10.97)
(73.571754 4.9159366e-17 -0.53282991)
(87.526216 -9.2109639e-18 -0.45777153)
(96.417155 1.7879102e-17 -0.56181532)
(103.83218 -4.2543173e-17 -0.61294454)
(110.26494 2.4697144e-17 -0.66953008)
(115.02111 -2.8022707e-17 -0.72696933)
(115.88348 8.1651393e-17 -0.7006609)
(115.64781 -3.6161868e-17 -0.62428056)
(115.42133 1.4630074e-17 -0.59451568)
(115.36643 -2.8424156e-17 -0.4826117)
(115.25015 -3.4750815e-17 -0.44142521)
(115.12168 8.6931753e-17 -0.30388552)
(114.85378 -6.4185713e-17 -0.23697548)
(114.47684 9.5608774e-18 -0.088488826)
(113.94546 -2.7643299e-17 0.0052770669)
(113.31726 8.0860389e-17 0.15778858)
(112.61156 -2.5370898e-17 0.28360872)
(111.86837 5.5522014e-18 0.46073895)
(111.07706 -5.6086828e-17 0.6468867)
(110.23748 3.0033493e-17 0.88852148)
(109.34653 -4.5724076e-17 1.1680362)
(108.41187 -2.0678516e-17 1.5096271)
(107.44639 6.3448464e-17 1.9084821)
(106.47104 -1.2859192e-16 2.3763586)
(105.5081 -4.7227026e-17 2.9076573)
(104.58077 -8.7685091e-17 3.4952725)
(103.7124 7.2262245e-17 4.1205274)
(102.91986 -5.9962332e-17 4.757752)
(102.21194 -2.9726432e-16 5.3741998)
(101.59007 -5.1172462e-18 5.9383831)
(101.05653 -2.2167448e-17 6.4300602)
(100.61021 1.8969115e-17 6.8369246)
(100.24437 7.2275224e-17 7.1456929)
(100.00721 -1.7165859e-16 7.3794875)
(99.856118 -1.6486217e-16 7.4911213)
(99.644903 -2.2783406e-16 7.4394672)
(99.596122 -4.1112891e-16 7.5700806)
(99.862708 1.7344878e-16 8.3742201)
(100.19878 -7.1579215e-16 9.5702195)
(100.41382 1.154951e-16 10.426166)
(100.48483 -2.9131041e-16 10.808841)
(100.49819 6.2427427e-16 10.933596)
(100.49995 -2.2314373e-16 10.96369)
(100.49998 3.9526562e-16 10.969181)
(100.5 1.0603559e-16 10.96992)
(100.5 -2.5431753e-16 10.969994)
(100.5 6.0546632e-16 10.97)
(100.5 -4.275227e-16 10.97)
(100.5 -9.3180481e-17 10.97)
(100.5 -1.9156646e-17 10.97)
(73.519584 -1.8799261e-16 -0.81894362)
(87.511929 -1.0620093e-16 -0.813027)
(96.432686 7.0586061e-17 -0.94716958)
(103.86992 9.764781e-17 -1.0293496)
(110.30078 -1.2900164e-16 -1.1150753)
(114.91519 -7.2457636e-18 -1.1867929)
(115.53987 6.8834641e-17 -1.1631026)
(115.30834 8.8521701e-17 -1.084315)
(115.07584 -6.3641567e-17 -1.0597395)
(115.02767 -6.5465925e-17 -0.94230145)
(114.91938 5.5295081e-17 -0.90528201)
(114.81146 1.7146991e-17 -0.76020043)
(114.5673 -6.6363076e-17 -0.69223219)
(114.22045 3.835691e-17 -0.53350201)
(113.7165 -8.18557e-17 -0.43261199)
(113.11002 -5.5523718e-17 -0.26769149)
(112.41547 1.0373927e-16 -0.13120332)
(111.6754 -2.0938042e-17 0.059081976)
(110.88201 -3.2829461e-17 0.25895877)
(110.0385 -4.7207034e-17 0.51734434)
(109.14338 -2.7932678e-17 0.81683523)
(108.20566 4.4833813e-17 1.1823326)
(107.23832 1.452629e-16 1.6087471)
(106.26346 -6.0934207e-17 2.1075803)
(105.3048 -8.6458249e-17 2.6728446)
(104.38637 8.7083776e-17 3.295959)
(103.53162 -7.427798e-17 3.9563403)
(102.75722 -2.2100083e-17 4.6272067)
(102.0705 4.1693851e-16 5.2742525)
(101.47084 -1.419683e-16 5.8653293)
(100.95795 2.7228128e-16 6.3807044)
(100.52867 6.2107511e-17 6.8088051)
(100.17857 -4.4767512e-16 7.1394608)
(99.954027 -3.1481643e-16 7.397252)
(99.801415 4.2815371e-16 7.5233951)
(99.573611 -3.9148036e-16 7.4798582)
(99.510102 1.4381505e-16 7.6052518)
(99.767868 -5.0701616e-16 8.3768374)
(100.14076 2.0773096e-16 9.5547276)
(100.38547 -8.8548203e-16 10.413628)
(100.4746 2.5341026e-16 10.802768)
(100.49548 5.7503106e-16 10.931506)
(100.49941 5.2591519e-16 10.963198)
(100.49992 -7.2454534e-16 10.969095)
(100.49999 1.0481344e-15 10.96991)
(100.5 6.4676217e-18 10.969993)
(100.5 -1.7588207e-15 10.97)
(100.5 1.1032326e-16 10.97)
(100.5 3.2279115e-17 10.97)
(100.5 3.9163808e-16 10.97)
(73.459689 1.4556438e-16 -1.1108389)
(87.487527 -1.5605019e-16 -1.1713759)
(96.438394 7.5091912e-17 -1.3378635)
(103.89676 -7.6910471e-17 -1.4511395)
(110.32592 7.7878722e-17 -1.5662857)
(114.79519 1.1049207e-16 -1.649897)
(115.20351 -5.0179765e-17 -1.6291211)
(114.97724 -1.3682315e-16 -1.5475865)
(114.73309 1.0799529e-16 -1.5304018)
(114.68652 -7.9673802e-17 -1.4070556)
(114.58055 2.5114361e-17 -1.3759174)
(114.48894 -3.5124283e-17 -1.2230233)
(114.26507 1.2906116e-17 -1.1550605)
(113.94642 2.7467664e-17 -0.9857228)
(113.46952 7.3662251e-17 -0.87789843)
(112.88576 -4.3398161e-17 -0.6998009)
(112.20385 3.4259715e-17 -0.55191357)
(111.46805 -2.4660111e-17 -0.34738659)
(110.67305 1.0953229e-17 -0.13287739)
(109.82553 3.1202433e-17 0.1432209)
(108.92603 9.980148e-17 0.46373029)
(107.98529 8.7615254e-18 0.85437511)
(107.01653 5.3542755e-17 1.3096966)
(106.04271 2.7763001e-16 1.8409006)
(105.08928 4.815835e-17 2.441459)
(104.18111 -1.5055565e-16 3.1012158)
(103.34162 -1.6670185e-16 3.7974283)
(102.58691 1.3675957e-16 4.5014765)
(101.92273 -7.8907241e-17 5.1780477)
(101.3463 1.9249023e-16 5.7945242)
(100.85504 2.4852367e-16 6.332112)
(100.44367 1.00315e-16 6.779789)
(100.10964 -3.0677358e-16 7.1315704)
(99.897937 2.1765061e-16 7.4114621)
(99.744314 3.724011e-16 7.5472315)
(99.504181 2.2454933e-16 7.5167914)
(99.426551 -4.8566707e-16 7.6435967)
(99.679611 1.2857065e-16 8.3899146)
(100.08575 -4.5689685e-16 9.5469542)
(100.35833 -6.5472067e-17 10.404045)
(100.46451 5.9602228e-16 10.797745)
(100.4929 -6.3714123e-16 10.929749)
(100.49889 2.5083315e-15 10.962779)
(100.49985 -1.83109e-16 10.969021)
(100.49999 -1.0896864e-15 10.969901)
(100.5 -1.7752548e-16 10.969993)
(100.5 2.3183741e-15 10.97)
(100.5 3.6628911e-16 10.97)
(100.5 5.7356914e-16 10.97)
(100.5 -4.491821e-16 10.97)
(73.402234 1.0215042e-16 -1.4087534)
(87.465668 1.6301839e-16 -1.5332394)
(96.446703 -1.0495271e-16 -1.7341854)
(103.92749 6.6339699e-17 -1.8798055)
(110.35508 -1.7964543e-19 -2.0260138)
(114.66733 -1.4630259e-16 -2.1197985)
(114.87884 -1.244587e-17 -2.1023341)
(114.65586 1.207445e-16 -2.0167395)
(114.39451 -7.3876118e-17 -2.0083091)
(114.34387 2.1204179e-17 -1.8781713)
(114.234 -3.8278524e-17 -1.8539651)
(114.15355 1.2848016e-16 -1.6926505)
(113.94572 -1.4234157e-16 -1.6253121)
(113.65242 -1.9952729e-17 -1.4449059)
(113.20156 6.7426676e-17 -1.330099)
(112.64112 -2.4194638e-17 -1.1380765)
(111.97343 3.8351759e-17 -0.9779382)
(111.24326 1.1621799e-16 -0.75808458)
(110.44735 -8.3455819e-17 -0.52784977)
(109.59584 -9.8726374e-17 -0.2329425)
(108.69168 -1.6169719e-17 0.10982623)
(107.74796 -2.86956e-16 0.52705843)
(106.77828 -8.1258938e-17 1.012949)
(105.80637 -2.2978531e-16 1.5781294)
(104.85937 -2.0932016e-16 2.2154215)
(103.9631 2.6069894e-16 2.9129852)
(103.14079 3.4828598e-16 3.6457009)
(102.40771 1.5392571e-16 4.3830771)
(101.76791 6.7841659e-17 5.0887888)
(101.2163 -5.1826149e-16 5.7299379)
(100.74761 -8.5658661e-16 6.2876382)
(100.35444 3.5427955e-16 6.7520364)
(100.03751 1.4456609e-15 7.1236805)
(99.839614 1.1338017e-16 7.4231109)
(99.685885 -1.5567223e-15 7.5646038)
(99.435241 5.9723242e-16 7.5459303)
(99.344364 -3.7028386e-16 7.6855149)
(99.592497 9.1867208e-16 8.4163855)
(100.02948 4.8351864e-16 9.5505655)
(100.33031 -4.8408167e-16 10.399384)
(100.45413 -2.4994041e-15 10.794325)
(100.49019 5.9632267e-16 10.92842)
(100.49836 -3.6422586e-15 10.962451)
(100.49978 -3.1728265e-16 10.968963)
(100.49998 1.9963813e-16 10.969894)
(100.5 3.7633942e-16 10.969992)
(100.5 -1.3587416e-15 10.97)
(100.5 4.0969863e-16 10.97)
(100.5 -1.0981069e-16 10.97)
(100.5 8.6636445e-17 10.97)
(73.345893 -4.7926459e-17 -1.7128488)
(87.44405 1.1643356e-16 -1.9021709)
(96.456248 -5.6160908e-17 -2.1390842)
(103.96054 1.1004098e-16 -2.3175666)
(110.38662 -1.7245793e-17 -2.49567)
(114.52073 1.0556246e-16 -2.59723)
(114.56433 -4.5287874e-17 -2.5830519)
(114.34333 -3.8496879e-17 -2.4915786)
(114.06012 3.3523427e-18 -2.4928675)
(114.00027 -5.2418553e-17 -2.3546528)
(113.88057 -7.687409e-17 -2.3383671)
(113.80605 5.7382175e-18 -2.1680321)
(113.60991 6.3723236e-17 -2.102061)
(113.33886 9.8592508e-17 -1.910325)
(112.91266 -2.9913854e-17 -1.7886456)
(112.37581 -3.4572662e-17 -1.5821464)
(111.72377 -8.888494e-18 -1.4089858)
(111.00068 -1.067761e-18 -1.1727337)
(110.20479 -3.612826e-17 -0.92565624)
(109.34951 1.4524272e-17 -0.61079133)
(108.44054 -4.1686646e-17 -0.24450088)
(107.49389 1.7740913e-16 0.20076479)
(106.52387 2.546281e-16 0.71890491)
(105.55481 3.8167139e-16 1.3197298)
(104.61553 5.1867901e-16 1.9952164)
(103.7329 -7.4942096e-17 2.7317499)
(102.92977 6.7745456e-17 3.5016448)
(102.22025 5.0643192e-16 4.2723126)
(101.60648 -9.813105e-17 5.0064948)
(101.08105 -1.7378226e-16 5.6712955)
(100.63598 4.209227e-17 6.2481758)
(100.26195 -1.0872633e-15 6.728956)
(99.962337 -1.8267936e-15 7.1183252)
(99.778286 -1.1523683e-15 7.4341188)
(99.62422 1.7167094e-15 7.5794125)
(99.364037 1.1331343e-15 7.5689344)
(99.26241 4.9999176e-16 7.7278325)
(99.508603 -1.9807168e-16 8.4534837)
(99.974119 -8.2776386e-16 9.5655519)
(100.30239 1.5811741e-15 10.400265)
(100.44364 2.5579134e-15 10.792839)
(100.4874 -6.0323069e-16 10.927593)
(100.49782 1.7535173e-15 10.96223)
(100.49971 -1.623837e-16 10.968923)
(100.49997 -2.5635254e-16 10.969889)
(100.5 -1.1278224e-15 10.969992)
(100.5 -8.7874725e-16 10.97)
(100.5 -5.8603682e-16 10.97)
(100.5 -1.7552524e-16 10.97)
(100.5 1.5511704e-16 10.97)
(73.293646 -3.298657e-16 -2.0212826)
(87.426127 -7.4871611e-17 -2.2752203)
(96.469994 9.6057256e-17 -2.549546)
(103.99788 -6.172093e-17 -2.7611747)
(110.42435 3.7427405e-17 -2.9725369)
(114.36373 4.0619963e-17 -3.0797301)
(114.25941 -1.2615465e-16 -3.0698323)
(114.03909 5.0370684e-17 -2.970956)
(113.73028 -6.1179767e-18 -2.9830796)
(113.65647 1.4420512e-16 -2.8356107)
(113.52119 -5.2728201e-17 -2.828296)
(113.44712 -3.3742331e-17 -2.6484272)
(113.258 6.0282303e-18 -2.5845217)
(113.00561 2.6787722e-17 -2.3812964)
(112.60225 -5.607288e-17 -2.2528802)
(112.0888 7.1392709e-17 -2.031492)
(111.45365 -2.124714e-17 -1.844582)
(110.73913 1.3367052e-16 -1.5909227)
(109.94442 -6.3437843e-17 -1.3257907)
(109.08577 -1.719118e-17 -0.98976172)
(108.17194 2.2698515e-17 -0.59864563)
(107.22242 -2.4905294e-16 -0.12385734)
(106.2527 -2.2676644e-16 0.42829207)
(105.28759 -3.8681509e-17 1.0665237)
(104.35752 -7.9837854e-17 1.7817033)
(103.49041 -1.3354043e-16 2.5583399)
(102.70864 -4.0521595e-16 3.3660451)
(102.02475 -1.5095565e-16 4.1699723)
(101.43875 -1.1434403e-16 4.9319711)
(100.94083 1.3873412e-15 5.6193766)
(100.52023 -2.1450672e-16 6.2141841)
(100.16584 -5.5453386e-17 6.7099466)
(99.884215 1.3870573e-15 7.1161499)
(99.71432 1.0942399e-15 7.4470551)
(99.559691 9.117861e-17 7.5942596)
(99.289782 -1.4913887e-15 7.590005)
(99.178304 -7.0615327e-16 7.7695203)
(99.427424 5.3442593e-16 8.4990924)
(99.920553 -3.8857105e-16 9.5919057)
(100.27513 1.8660647e-15 10.407588)
(100.43358 -3.9994262e-16 10.793712)
(100.48478 -5.7758778e-16 10.927364)
(100.49733 -2.0183432e-15 10.962132)
(100.49965 1.987774e-17 10.968902)
(100.49997 2.9007844e-16 10.969886)
(100.5 -1.2692972e-15 10.969991)
(100.5 2.9399318e-15 10.97)
(100.5 8.6052122e-16 10.97)
(100.5 5.5065003e-16 10.97)
(100.5 5.0292513e-17 10.97)
(73.245264 2.3573431e-16 -2.3347651)
(87.413007 -2.6545996e-16 -2.6528221)
(96.489653 4.369818e-17 -2.9675024)
(104.04165 -3.6652208e-17 -3.2125069)
(110.46792 1.2805856e-16 -3.4581139)
(114.19709 -6.2827831e-17 -3.5675274)
(113.96294 7.5066078e-17 -3.562809)
(113.74216 -1.0679433e-16 -3.4545659)
(113.40491 -9.5393223e-17 -3.4784466)
(113.31296 1.3463311e-16 -3.320509)
(113.15676 -6.12547e-17 -3.3229591)
(113.0776 1.8803488e-17 -3.1330818)
(112.89068 -5.5896946e-17 -3.0718329)
(112.65301 -3.1555332e-17 -2.8570899)
(112.27025 -9.2777342e-17 -2.7220692)
(111.77955 7.1076047e-17 -2.4855527)
(111.16224 -7.8616191e-17 -2.2842232)
(110.45773 8.0184754e-19 -2.0121932)
(109.66551 -1.867006e-17 -1.7277361)
(108.8036 -4.7585336e-17 -1.3692348)
(107.88505 1.5757699e-16 -0.95194042)
(106.93283 1.5112548e-17 -0.44609083)
(105.96417 -1.9858349e-16 0.14190653)
(105.00438 -4.8863968e-16 0.81941544)
(104.08525 -9.9502809e-17 1.5758432)
(103.23579 -2.8745618e-16 2.3936866)
(102.47777 -5.5294295e-17 3.2397756)
(101.82177 -7.514051e-16 4.0768697)
(101.2654 -5.4365914e-16 4.8659844)
(100.79634 -1.0178332e-15 5.5748817)
(100.40111 1.6675763e-15 6.1864597)
(100.06704 5.1209019e-16 6.6962201)
(99.803798 1.9487275e-16 7.1180019)
(99.648054 -6.2600017e-16 7.4624258)
(99.492511 -8.6173105e-16 7.610565)
(99.213584 -5.6576689e-16 7.6139499)
(99.092423 2.712244e-15 7.8117861)
(99.348777 -3.8141748e-15 8.5496756)
(99.871066 4.5765031e-15 9.6279997)
(100.25085 -4.4868289e-15 10.421887)
(100.4249 -1.2948173e-16 10.797292)
(100.48251 1.8451445e-16 10.927853)
(100.49691 -1.5577787e-15 10.962168)
(100.49959 8.8698006e-16 10.968901)
(100.49996 -1.8375037e-15 10.969886)
(100.5 1.8890899e-15 10.969991)
(100.5 -1.6275892e-15 10.97)
(100.5 -6.184108e-16 10.97)
(100.5 -2.2239346e-15 10.97)
(100.5 -1.4578421e-16 10.97)
(73.204144 -4.3549491e-17 -2.6566183)
(87.408228 -5.4096821e-17 -3.0329783)
(96.518493 -7.8345258e-17 -3.3919763)
(104.09423 3.4026629e-17 -3.670893)
(110.51623 -3.5231844e-18 -3.9517998)
(114.02053 -1.0169631e-16 -4.0600197)
(113.67257 8.9083435e-17 -4.0616868)
(113.45045 1.4032232e-16 -3.9423734)
(113.08298 -3.254425e-16 -3.9787274)
(112.96953 2.7025492e-16 -3.8090589)
(112.7878 6.9800031e-17 -3.8217643)
(112.69819 -8.6959326e-20 -3.6213835)
(112.50864 2.6221724e-17 -3.5631681)
(112.28148 -4.2859682e-17 -3.3369629)
(111.91669 6.8729221e-17 -3.1954405)
(111.44764 -1.9193834e-16 -2.9437122)
(110.84878 9.826386e-17 -2.7273533)
(110.15557 4.4926911e-17 -2.4360843)
(109.36722 -2.64066e-19 -2.1309788)
(108.5029 4.9720649e-17 -1.7486943)
(107.57981 -2.6993933e-16 -1.3038185)
(106.62501 4.2516297e-16 -0.76537055)
(105.65818 3.3291328e-16 -0.13969702)
(104.70517 2.1456956e-16 0.57896828)
(103.79889 1.3252469e-16 1.3781568)
(102.96933 4.1120721e-16 2.2381465)
(102.23751 7.2802054e-16 3.1229665)
(101.6117 -1.6250251e-16 3.992914)
(101.0868 1.3867088e-16 4.8082426)
(100.64787 -1.9760377e-16 5.5373323)
(100.27875 -1.2387168e-15 6.1643309)
(99.965595 -1.0164042e-16 6.6870839)
(99.721191 -3.5495774e-16 7.1231378)
(99.579471 -6.9357689e-17 7.4793009)
(99.422123 -1.3102888e-15 7.6276087)
(99.133863 6.86127e-16 7.6375728)
(99.00441 1.1853741e-15 7.8550941)
(99.272337 6.868216e-16 8.6027799)
(99.826365 -1.3075274e-15 9.6679363)
(100.23103 2.8682486e-15 10.442264)
(100.4177 1.3485688e-15 10.803576)
(100.48051 1.15852e-15 10.929184)
(100.49652 5.1490459e-15 10.962366)
(100.49954 5.6284292e-16 10.968922)
(100.49996 3.7386171e-15 10.969887)
(100.5 3.3841007e-16 10.969991)
(100.5 -9.5723289e-16 10.97)
(100.5 1.5455527e-15 10.97)
(100.5 1.559675e-15 10.97)
(100.5 -2.4440729e-16 10.97)
(73.16949 8.6503532e-17 -2.9844728)
(87.411284 4.7050086e-17 -3.4204202)
(96.556549 1.2812231e-16 -3.8249722)
(104.15604 -1.1146894e-16 -4.138528)
(110.5663 -3.0646193e-16 -4.4554695)
(113.83159 1.206541e-16 -4.5582384)
(113.38515 1.9882396e-17 -4.566949)
(113.16124 1.1192131e-16 -4.4345512)
(112.76302 -1.2129338e-16 -4.483495)
(112.62568 4.4957001e-18 -4.3006788)
(112.41473 1.4668065e-16 -4.3238016)
(112.30968 -1.5320287e-16 -4.1125192)
(112.11277 1.693387e-16 -4.0575669)
(111.89168 -1.2086941e-16 -3.8201383)
(111.54188 9.0029739e-17 -3.6721923)
(111.09289 8.6977209e-17 -3.4053438)
(110.51266 -2.2992786e-16 -3.1734073)
(109.83184 2.7216105e-16 -2.8621017)
(109.04876 -1.4656181e-16 -2.5350299)
(108.18288 -8.177377e-17 -2.1275479)
(107.25561 4.4101622e-16 -1.6535384)
(106.29848 5.1926873e-17 -1.080871)
(105.33433 -6.0669535e-16 -0.41563933)
(104.38976 2.7541387e-16 0.34612943)
(103.4985 -4.1869203e-16 1.189634)
(102.6913 1.5129041e-16 2.0926381)
(101.98829 9.694941e-17 3.0163853)
(101.39509 3.8529348e-16 3.9187337)
(100.90355 6.6430947e-16 4.7592583)
(100.49599 3.7415467e-16 5.5071538)
(100.15365 -5.6155143e-16 6.1481138)
(99.861986 8.8762926e-16 6.6828809)
(99.636879 -1.7947021e-16 7.1320079)
(99.508872 2.3584517e-16 7.4979089)
(99.348667 4.1629374e-16 7.64545)
(99.050987 -2.0087482e-15 7.6618719)
(98.914305 -4.8556029e-15 7.8995444)
(99.198743 3.6605803e-15 8.6591758)
(99.787191 -1.3733071e-15 9.7110212)
(100.21358 -1.8305011e-15 10.463275)
(100.4117 -3.8332351e-15 10.81131)
(100.47898 -1.8310065e-15 10.931376)
(100.49621 -3.532937e-15 10.96276)
(100.49949 8.6290526e-16 10.968973)
(100.49995 -8.6614194e-16 10.969892)
(100.5 -2.8176779e-15 10.969992)
(100.5 -7.3169737e-16 10.97)
(100.5 -3.3499416e-15 10.97)
(100.5 2.3804446e-15 10.97)
(100.5 7.4351753e-18 10.97)
(73.14006 5.0725423e-16 -3.3175644)
(87.421954 1.7008535e-16 -3.8141478)
(96.604604 -1.1004894e-16 -4.2654904)
(104.22799 2.3268786e-16 -4.6141214)
(110.61453 -2.0446428e-16 -4.9674833)
(113.62773 2.0709584e-16 -5.0603091)
(113.09802 -2.1874604e-16 -5.0769596)
(112.87217 2.0739715e-17 -4.9299409)
(112.4436 2.3416689e-18 -4.9917747)
(112.28087 1.8992868e-17 -4.7947561)
(112.03794 -3.6652758e-17 -4.828331)
(111.9129 6.6624912e-17 -4.6059155)
(111.70402 -1.8267131e-17 -4.5542728)
(111.48442 3.8795851e-17 -4.3059727)
(111.14628 -1.3734236e-16 -4.1516168)
(110.7153 -1.4204236e-17 -3.8698564)
(110.1534 9.617534e-17 -3.6218323)
(109.48579 -1.7379811e-16 -3.289772)
(108.70932 3.0134486e-16 -2.9393735)
(107.84296 2.0563988e-16 -2.5052058)
(106.91205 4.519401e-17 -2.0003823)
(105.95292 -1.2456251e-16 -1.3917847)
(104.99236 3.4735982e-17 -0.68508217)
(104.05805 -4.7670038e-16 0.12176304)
(103.18425 4.5958038e-16 1.0111492)
(102.40208 -1.1088676e-16 1.9579405)
(101.7306 -8.9527663e-16 2.9206142)
(101.17248 -4.5481708e-16 3.8547265)
(100.71619 8.075886e-17 4.7192828)
(100.34118 -6.6973027e-16 5.4844969)
(100.02618 9.1725083e-16 6.1378698)
(99.756517 1.7318009e-15 6.6836071)
(99.551266 -9.1283107e-16 7.1447944)
(99.43663 -4.2531563e-16 7.5181734)
(99.271884 2.2504041e-15 7.6644867)
(98.964529 9.9373173e-16 7.6867328)
(98.822208 -1.1232649e-16 7.9456648)
(99.128494 -1.8759929e-15 8.7188718)
(99.752704 -1.9708016e-15 9.7572421)
(100.19945 5.9538776e-16 10.48634)
(100.40726 5.5713416e-15 10.819792)
(100.47795 2.1822814e-15 10.93375)
(100.49603 4.2145242e-15 10.963278)
(100.49947 3.4258731e-16 10.969056)
(100.49995 -1.7224836e-15 10.969901)
(100.5 7.1052522e-16 10.969992)
(100.5 5.9401903e-16 10.97)
(100.5 3.8102183e-15 10.97)
(100.5 -3.1655232e-15 10.97)
(100.5 -4.5281197e-16 10.97)
(73.116582 8.7235431e-16 -3.6549464)
(87.44118 -7.038289e-16 -4.2127433)
(96.664458 9.6321646e-17 -4.7125443)
(104.31209 1.409136e-16 -5.0973855)
(110.65718 -1.1522945e-16 -5.4873594)
(113.40561 4.2442052e-16 -5.5659335)
(112.80871 -2.3215863e-16 -5.5916256)
(112.58078 2.6483023e-17 -5.4286529)
(112.12295 -1.1200068e-16 -5.5035175)
(111.93412 6.1398949e-17 -5.2912953)
(111.65739 -1.4870697e-16 -5.3349949)
(111.50844 5.4278002e-17 -5.1012518)
(111.2833 2.6863659e-17 -5.0526806)
(111.06057 7.9540312e-17 -4.7939318)
(110.73047 -1.5915341e-16 -4.6330671)
(110.31498 5.0689916e-17 -4.336702)
(109.77064 2.0628083e-16 -4.0721058)
(109.1167 -2.7114109e-16 -3.7186216)
(108.34811 -2.0688049e-16 -3.3435159)
(107.48242 -1.7447806e-16 -2.8810652)
(106.54862 -4.406749e-18 -2.3435916)
(105.588 -6.8907675e-17 -1.6972353)
(104.63203 3.1993458e-16 -0.94711417)
(103.70998 4.0786091e-16 -0.093224288)
(102.85633 2.0616586e-16 0.84359669)
(102.10209 -1.0001722e-15 1.8348456)
(101.465 -1.0461214e-16 2.8362234)
(100.94448 -9.9050573e-16 3.8012413)
(100.52531 -6.0754699e-16 4.6885058)
(100.18396 1.6735421e-15 5.469434)
(99.89675 -5.6315221e-16 6.1336218)
(99.649503 -3.992489e-15 6.6891895)
(99.464757 -2.0102997e-16 7.1616227)
(99.362966 6.8176927e-16 7.5401597)
(99.191473 -3.4753326e-16 7.6842122)
(98.874416 1.5911612e-15 7.7125516)
(98.728178 9.7513499e-16 7.9939866)
(99.062499 1.6770968e-15 8.7819608)
(99.723102 5.4733421e-16 9.8064078)
(100.18887 2.258739e-15 10.51091)
(100.40446 -4.1465254e-15 10.828917)
(100.47746 -1.2662585e-15 10.93634)
(100.49598 -1.0324148e-15 10.963839)
(100.49947 -2.8598579e-16 10.969148)
(100.49995 2.0216902e-15 10.969912)
(100.5 1.0041793e-15 10.969993)
(100.5 1.9400767e-15 10.97)
(100.5 -2.4847806e-15 10.97)
(100.5 5.35708e-16 10.97)
(100.5 1.3221643e-15 10.97)
(73.098291 -3.3446651e-16 -3.9997429)
(87.467994 2.3827765e-16 -4.6207056)
(96.735732 1.0904338e-16 -5.1704778)
(104.40965 -7.4532812e-17 -5.5922117)
(110.68945 -2.8654711e-16 -6.0171919)
(113.15865 4.4942274e-16 -6.0767375)
(112.51375 -3.221718e-16 -6.111925)
(112.28397 3.3999104e-16 -5.9313167)
(111.79877 -1.25354e-16 -6.0188719)
(111.58403 -1.5638958e-16 -5.7904198)
(111.27272 9.8265177e-17 -5.8435255)
(111.09671 -6.0612605e-17 -5.5983181)
(110.8514 1.4290382e-16 -5.5523138)
(110.62096 -8.6681854e-17 -5.2835831)
(110.29505 6.6636003e-17 -5.1159979)
(109.89215 -1.43141e-17 -4.805379)
(109.3641 -1.3141314e-16 -4.5237263)
(108.72393 1.9121791e-16 -4.1482019)
(107.9643 6.7296172e-17 -3.7469426)
(107.10052 -1.7526396e-16 -3.2544825)
(106.16481 -1.713038e-16 -2.6823569)
(105.2034 -5.0992562e-16 -1.9962747)
(104.25316 4.5905548e-16 -1.2007482)
(103.34552 7.0010911e-16 -0.29788275)
(102.51498 -1.8437942e-16 0.68786977)
(101.79185 1.1106427e-15 1.7241343)
(101.1921 1.4457588e-15 2.7637545)
(100.71172 1.9553724e-15 3.7585517)
(100.3315 -6.2269964e-16 4.6670186)
(100.02484 -2.1514294e-15 5.4619144)
(99.765754 1.3588359e-15 6.1352816)
(99.541225 1.3101896e-15 6.699444)
(99.377578 -6.414747e-17 7.1823156)
(99.287375 -1.6499677e-15 7.5640102)
(99.10709 -1.3700531e-16 7.7042781)
(98.780644 2.2336936e-15 7.7388728)
(98.63259 -7.7562533e-16 8.0446212)
(99.001761 -3.1807018e-15 8.8482591)
(99.699243 -3.071132e-16 9.8580711)
(100.1819 3.9573349e-16 10.536696)
(100.40324 1.572173e-15 10.838492)
(100.47747 2.7316554e-15 10.939056)
(100.49605 -1.3600427e-15 10.964427)
(100.49949 7.7650877e-16 10.969243)
(100.49995 4.3505547e-16 10.969924)
(100.5 -3.8960389e-15 10.969994)
(100.5 -1.3689038e-15 10.97)
(100.5 -4.9060628e-16 10.97)
(100.5 4.2782598e-15 10.97)
(100.5 -9.1666604e-17 10.97)
(73.083141 -1.3232895e-15 -4.3488615)
(87.500654 9.6505878e-16 -5.0333395)
(96.81653 -4.4195742e-16 -5.6349359)
(104.52057 -2.4751233e-16 -6.0948453)
(110.70588 4.3032362e-16 -6.552623)
(112.88356 -8.1511182e-17 -6.5898351)
(112.21083 -1.5938142e-16 -6.6359612)
(111.97951 6.7963682e-17 -6.4368548)
(111.46906 -1.8221151e-16 -6.5371638)
(111.22912 4.4287369e-17 -6.2919621)
(110.88321 1.4005233e-16 -6.3537437)
(110.67773 4.6060356e-17 -6.0970726)
(110.40883 -2.0640402e-16 -6.0528908)
(110.16628 -1.4755086e-18 -5.7746283)
(109.8406 1.8753451e-16 -5.5999543)
(109.44709 -1.8070321e-17 -5.2754192)
(108.93362 1.9644692e-16 -4.9762226)
(108.30692 -1.5156855e-16 -4.5780806)
(107.55718 2.713929e-16 -4.1491755)
(106.69663 6.2394502e-16 -3.6248223)
(105.7602 -4.8352983e-16 -3.0158636)
(104.79896 5.5288623e-16 -2.2879238)
(103.85575 -4.3807002e-16 -1.4449524)
(102.96481 -6.3689737e-16 -0.49124017)
(102.16055 -6.4746504e-16 0.54484215)
(101.47194 -5.5529697e-17 1.6265531)
(100.91258 -7.9718261e-16 2.7037263)
(100.47482 -1.0450194e-15 3.7268863)
(100.13531 1.4318891e-15 4.6548555)
(99.864207 1.6918522e-15 5.4618398)
(99.63348 -1.2525365e-15 6.1427118)
(99.431849 -1.0583918e-16 6.7141888)
(99.289687 7.4366967e-16 7.2063774)
(99.210004 2.6095072e-15 7.5896961)
(99.01818 -1.2142878e-15 7.7245303)
(98.682824 -1.6994227e-15 7.7655562)
(98.53557 2.8844761e-15 8.0978413)
(98.947256 4.8427811e-15 8.9177114)
(99.681491 -3.1905721e-16 9.911894)
(100.17855 -2.9285413e-15 10.563409)
(100.40353 -3.1724123e-17 10.848342)
(100.47792 -2.8210324e-15 10.941834)
(100.49621 -8.8067316e-16 10.965022)
(100.49952 -5.0831504e-15 10.969339)
(100.49996 1.0373876e-16 10.969935)
(100.5 1.0571426e-14 10.969995)
(100.5 1.8573927e-16 10.97)
(100.5 8.2875358e-16 10.97)
(100.5 -6.7039989e-15 10.97)
(100.5 -1.4067645e-15 10.97)
(73.074629 4.4491839e-16 -4.7041534)
(87.541685 4.5464359e-17 -5.4530033)
(96.907667 -4.315062e-16 -6.1077686)
(104.6467 2.7015631e-16 -6.6071629)
(110.70284 2.4147745e-16 -7.0942915)
(112.57874 -5.2456672e-16 -7.1072949)
(111.89697 2.7330317e-16 -7.1657936)
(111.66444 -1.1830744e-16 -6.9470968)
(111.13109 1.7400684e-16 -7.0595908)
(110.8672 -7.8854112e-19 -6.7968819)
(110.48748 -4.7028329e-17 -6.8660364)
(110.25104 1.1842131e-16 -6.5977246)
(109.95577 -6.3054493e-17 -6.5542373)
(109.6971 2.1836614e-17 -6.2667835)
(109.36767 -7.6793385e-17 -6.0844722)
(108.98014 1.5629329e-16 -5.7463166)
(108.47914 -2.4976585e-16 -5.4290665)
(107.86523 -1.2508995e-16 -5.007753)
(107.1261 -4.9782333e-18 -4.5496938)
(106.27013 -5.0392325e-17 -3.9914304)
(105.33438 4.7532493e-16 -3.3432703)
(104.37456 -2.6769079e-16 -2.5711553)
(103.43989 -1.4596503e-16 -1.6786251)
(102.5681 -5.3341266e-16 -0.67226996)
(101.7935 9.145803e-17 0.41539919)
(101.14302 1.6772738e-16 1.5428415)
(100.62722 1.3709586e-16 2.6566725)
(100.23448 1.5509227e-15 3.7064929)
(99.93726 -2.3693567e-17 4.6520597)
(99.702441 4.5442121e-16 5.4691655)
(99.500124 -1.3259443e-15 6.1558486)
(99.321475 -1.5691977e-15 6.7334161)
(99.201024 -1.5618631e-15 7.2333349)
(99.131828 -2.943959e-15 7.6166799)
(98.923775 -3.852217e-15 7.7451779)
(98.580547 4.1100485e-16 7.7929248)
(98.437177 1.3389369e-15 8.1543207)
(98.899513 -1.3530788e-15 8.9906597)
(99.670663 1.307556e-15 9.9676567)
(100.17916 3.5214003e-15 10.590816)
(100.40538 -3.0538802e-16 10.858359)
(100.47881 -9.5313234e-16 10.944627)
(100.49646 5.6974873e-16 10.965611)
(100.49957 2.5389042e-15 10.969431)
(100.49996 -3.8011792e-15 10.969946)
(100.5 -3.8238467e-15 10.969996)
(100.5 -2.6793232e-15 10.97)
(100.5 -6.2763798e-15 10.97)
(100.5 3.1250987e-16 10.97)
(100.5 -2.6305761e-15 10.97)
(73.067107 7.7227456e-16 -5.0671471)
(87.585548 -6.1446523e-16 -5.8819569)
(97.004139 2.3689404e-16 -6.5914538)
(104.78437 1.7144253e-16 -7.1314367)
(110.67324 -1.8530232e-16 -7.6437869)
(112.26745 3.9443031e-17 -7.6301083)
(111.56839 -2.0254562e-16 -7.7012061)
(111.33545 1.1633818e-16 -7.461657)
(110.78188 -1.6722806e-16 -7.5856868)
(110.49588 -1.2254921e-16 -7.3048957)
(110.08393 -3.9642573e-17 -7.380071)
(109.81593 1.0909498e-17 -7.1000805)
(109.49225 4.6985944e-17 -7.0560189)
(109.21387 4.5040608e-17 -6.75969)
(108.8768 1.0346359e-16 -6.5690917)
(108.49167 -9.6026713e-17 -6.2175412)
(108.00065 1.9383952e-16 -5.8816915)
(107.39846 -1.4298148e-17 -5.4365546)
(106.66946 -1.3310757e-17 -4.9477938)
(105.81951 -5.3997086e-16 -4.3535351)
(104.88618 -4.7461029e-16 -3.6635961)
(103.92944 3.6388266e-16 -2.8447592)
(103.00523 -6.9106155e-17 -1.9004407)
(102.15533 1.1727804e-15 -0.83970005)
(101.41407 1.0470534e-16 0.30066161)
(100.80566 -1.0923137e-15 1.4739788)
(100.33679 -5.4655308e-16 2.6234306)
(99.991554 -6.7307551e-16 3.6979962)
(99.738178 2.4611028e-16 4.659081)
(99.540329 -4.662471e-16 5.4843182)
(99.366469 -6.4117431e-17 6.1751152)
(99.210918 4.3090178e-16 6.7576621)
(99.112198 -1.7613632e-16 7.2635087)
(99.051477 2.5891973e-15 7.6451047)
(98.824677 7.9471611e-15 7.7677959)
(98.475023 -3.9108535e-15 7.8224605)
(98.340293 -1.5045196e-15 8.2143993)
(98.858449 -2.5149117e-15 9.0659365)
(99.665919 1.5406168e-15 10.023703)
(100.18298 -7.7580079e-16 10.617846)
(100.40839 -1.4485185e-15 10.868083)
(100.47998 3.2599094e-15 10.94729)
(100.49675 2.6973619e-15 10.96616)
(100.49961 5.1667358e-15 10.969516)
(100.49997 4.8955436e-15 10.969955)
(100.5 -5.7974097e-17 10.969997)
(100.5 -6.419198e-16 10.97)
(100.5 5.4426569e-15 10.97)
(100.5 1.3910059e-15 10.97)
(100.5 1.5545411e-15 10.97)
(73.059168 -1.2747813e-16 -5.4355217)
(87.630345 -9.5433889e-16 -6.3170681)
(97.103184 5.3248065e-16 -7.0833864)
(104.93227 2.4007805e-16 -7.6657199)
(110.61069 1.457047e-16 -8.1992278)
(111.94135 -5.1354536e-16 -8.156087)
(111.22342 2.06383e-16 -8.2402018)