/*--------------------------------*- C++ -*----------------------------------*\
| =========                 |                                                 |
| \\      /  F ield         | OpenFOAM: The Open Source CFD Toolbox           |
|  \\    /   O peration     | Version:  2306                                  |
|   \\  /    A nd           | Website:  www.openfoam.com                      |
|    \\/     M anipulation  |                                                 |
\*---------------------------------------------------------------------------*/
FoamFile
{
    version     2.0;
    format      ascii;
    arch        "LSB;label=32;scalar=64";
    class       volScalarField;
    location    "0.002";
    object      yPlus;
}
// * * * * * * * * * * * * * * * * * * * * * * * * * * * * * * * * * * * * * //

dimensions      [0 0 0 0 0 0 0];

internalField   uniform 0;

boundaryField
{
    upper
    {
        type            calculated;
        value           nonuniform List<scalar> 
150
(
53.252666
53.129225
53.032403
52.933916
52.841363
52.743898
52.648403
52.554476
52.464796
52.382774
52.308311
52.241948
52.18293
52.132837
52.095098
52.069799
52.055581
52.054896
52.064739
52.087615
52.123553
52.173747
52.23704
52.312012
52.405851
52.515567
52.640116
52.784911
52.941232
53.112198
53.29799
53.499809
53.713114
53.938808
54.178259
54.429901
54.692543
54.969099
55.261597
55.568499
55.889543
56.22801
56.583208
56.960779
57.342641
57.733758
58.121511
58.502405
58.872685
59.226362
59.573317
59.929449
60.298285
60.661212
61.019091
61.374515
61.735237
62.146463
62.640061
63.293587
64.157061
65.401883
67.003784
68.864979
70.845086
72.811431
74.600166
76.071297
77.077306
77.428094
76.834211
74.908372
71.541702
66.362018
59.339258
38.595877
41.931676
43.205641
44.108978
44.698842
45.135194
45.468024
45.73737
45.956799
46.136188
46.2824
46.401547
46.497377
46.573014
46.631817
46.673087
46.704498
46.721135
46.726771
46.718031
46.70235
46.675603
46.642911
46.600615
46.558622
46.510337
46.459394
46.399341
46.338474
46.272647
46.203522
46.124729
46.049999
45.974408
45.902346
45.830466
45.766755
45.712804
45.669903
45.633274
45.610613
45.60265
45.609833
45.629383
45.665473
45.719057
45.791064
45.880427
45.988175
46.119109
46.271334
46.447347
46.641329
46.858536
47.090819
47.343636
47.604212
47.878096
48.157646
48.44778
48.743002
49.040856
49.345003
49.653202
49.970644
50.285477
50.605201
50.917106
51.240387
51.559207
51.882524
52.186561
52.505368
52.81698
53.140497
)
;
    }
    lower
    {
        type            calculated;
        value           nonuniform List<scalar> 
150
(
64.15708
63.73243
63.335861
62.948872
62.578278
62.223457
61.885974
61.565309
61.263189
60.979227
60.712116
60.461366
60.227086
60.006673
59.802305
59.610686
59.429473
59.25997
59.100997
58.953588
58.815108
58.683055
58.558104
58.438203
58.323934
58.205028
58.078731
57.946886
57.810199
57.673961
57.539473
57.406943
57.276788
57.154352
57.04334
56.933108
56.815582
56.686434
56.542751
56.375316
56.186577
55.977655
55.755748
55.535451
55.326501
55.114754
54.881377
54.622619
54.329896
53.9917
53.61287
53.196705
52.731989
52.206183
51.626864
51.042384
50.474963
49.87724
49.178342
48.317298
47.243542
45.904879
44.238549
42.15985
39.552877
36.142077
31.507135
24.981869
16.88071
7.7434331
11.91445
23.800643
35.349763
47.881344
58.950024
48.859495
53.238106
54.643565
55.662738
56.269019
56.693612
56.984962
57.190276
57.338831
57.442182
57.515721
57.560632
57.587579
57.602036
57.609466
57.609148
57.604157
57.599718
57.594368
57.592819
57.589326
57.592909
57.601654
57.623879
57.646156
57.676578
57.709378
57.756062
57.802663
57.856474
57.909783
57.974144
58.035816
58.098708
58.161035
58.232745
58.307129
58.388251
58.4776
58.582239
58.697785
58.825608
58.967033
59.125358
59.299025
59.485613
59.687239
59.901713
60.126274
60.357352
60.595916
60.835799
61.075681
61.313667
61.549996
61.779739
62.005033
62.222087
62.4316
62.629889
62.820406
63.000033
63.170526
63.326727
63.477091
63.619929
63.752266
63.867885
63.971758
64.062694
64.140307
64.20398
64.263361
64.314627
64.355437
)
;
    }
    inlet
    {
        type            calculated;
        value           uniform 0;
    }
    outlet
    {
        type            calculated;
        value           uniform 0;
    }
    back
    {
        type            empty;
    }
    front
    {
        type            empty;
    }
}


// ************************************************************************* //
