/*--------------------------------*- C++ -*----------------------------------*\
| =========                 |                                                 |
| \\      /  F ield         | OpenFOAM: The Open Source CFD Toolbox           |
|  \\    /   O peration     | Version:  2306                                  |
|   \\  /    A nd           | Website:  www.openfoam.com                      |
|    \\/     M anipulation  |                                                 |
\*---------------------------------------------------------------------------*/
FoamFile
{
    version     2.0;
    format      ascii;
    arch        "LSB;label=32;scalar=64";
    class       volScalarField;
    location    "175";
    object      div(phi);
}
// * * * * * * * * * * * * * * * * * * * * * * * * * * * * * * * * * * * * * //

dimensions      [0 0 -1 0 0 0 0];

internalField   nonuniform List<scalar> 
10720
(
0.000477652
-0.000435859
0.0001896
-0.000249662
8.01203e-05
1.79055e-05
1.28007e-05
0.000124558
4.79925e-05
5.19362e-05
4.35994e-05
3.41881e-05
2.41638e-05
1.97955e-05
1.64345e-05
1.98959e-05
2.23733e-05
3.3258e-05
3.9415e-05
5.68316e-05
5.40475e-05
7.63916e-05
1.3351e-05
6.49731e-06
-3.05145e-05
-1.8273e-05
-9.65438e-06
-4.58785e-06
3.44171e-05
2.90501e-05
0.000221318
-0.0002019
-3.24098e-05
-2.69467e-05
-2.8675e-05
0.000200938
0.000191852
-0.000255635
0.000109186
-0.000464766
0.000702657
-3.57258e-05
0.000289529
7.62747e-05
-3.16525e-05
-0.000287636
-8.65566e-05
-2.19179e-05
4.55435e-07
-8.15733e-06
9.31197e-06
-3.7145e-07
1.3326e-05
4.7828e-06
1.6708e-05
6.98581e-06
1.73344e-05
-1.82885e-06
4.46976e-06
-1.59902e-05
-1.73257e-05
-1.06785e-05
-1.27513e-05
-1.04456e-05
-8.97013e-06
-1.24496e-06
8.2684e-06
1.25045e-05
9.73572e-06
1.51336e-05
8.82798e-07
2.69587e-06
-2.64456e-05
-5.29338e-05
2.16004e-05
1.33656e-05
-2.19713e-05
-2.0586e-05
0.000140288
-0.000157798
8.64069e-05
-0.000146618
6.7125e-05
2.24655e-05
0.000145676
4.21086e-06
6.19008e-05
4.50459e-05
4.04078e-05
3.56091e-05
3.29542e-05
2.80471e-05
2.42607e-05
2.05689e-05
1.5786e-05
1.40236e-05
8.9377e-06
8.39674e-06
-5.09364e-06
-1.51508e-05
-6.32593e-05
-8.45642e-05
-9.34157e-05
-4.21991e-05
2.88122e-05
0.000104621
0.00014081
0.000156562
0.000301517
-8.12152e-05
6.43528e-05
2.39603e-05
1.26428e-05
0.000125118
8.64471e-05
-4.14873e-05
0.000212093
9.47931e-05
0.000215537
6.45613e-05
0.000102616
-1.12335e-05
-0.000149926
9.42338e-05
-1.76963e-05
5.82995e-06
-3.76017e-06
3.617e-06
7.51434e-06
1.09199e-05
1.95206e-05
1.58882e-05
2.26226e-05
1.47215e-05
1.65004e-05
8.10643e-07
-2.06608e-06
-1.58472e-05
-1.32599e-05
3.87334e-06
1.33321e-05
1.14829e-05
-7.09339e-06
-2.21226e-05
-3.57958e-05
-4.68559e-05
-2.26848e-05
-3.70377e-05
-4.52761e-05
-4.86725e-05
-5.44841e-05
-7.20314e-05
-5.15855e-05
-1.27911e-05
-3.61694e-05
-7.91814e-06
-0.000503434
0.000227883
-0.000293182
0.000117238
1.84985e-05
9.018e-05
2.69127e-05
0.000105363
2.54439e-05
2.80747e-05
2.4546e-05
2.08766e-05
1.934e-05
1.72516e-05
2.04346e-05
2.19002e-05
2.74701e-05
3.11441e-05
3.90414e-05
4.47329e-05
5.04277e-05
5.60038e-05
4.54412e-05
3.94372e-05
2.58834e-05
1.73122e-05
-2.26388e-05
-9.48989e-06
-3.91876e-05
-3.07108e-05
1.20529e-05
-9.80932e-05
-4.94615e-05
-3.84175e-05
-3.44011e-05
0.000111029
0.00010409
-0.00015977
2.32307e-05
0.00036977
-0.000125087
9.78658e-05
-6.41143e-05
-5.06314e-05
7.14708e-05
-7.17042e-05
5.16205e-05
2.69259e-05
1.19547e-05
1.14652e-05
4.4268e-06
1.44383e-05
7.27341e-06
1.50695e-05
7.3415e-06
1.08997e-05
5.15381e-06
2.65231e-07
-3.22721e-06
-1.52183e-05
-1.59857e-05
-2.18338e-05
-2.13709e-05
-2.34397e-05
-1.60681e-05
-1.92414e-06
8.44929e-06
3.11346e-05
1.30091e-05
2.08509e-05
1.83278e-05
1.49654e-05
-1.67634e-05
-4.36371e-05
4.86145e-05
1.65086e-05
-1.37349e-05
-1.96355e-05
0.000234134
-0.000209738
6.09968e-05
-2.26767e-05
3.50223e-06
0.000107442
8.36712e-05
-2.35291e-05
2.58543e-05
1.84643e-05
1.70862e-05
2.10871e-05
2.06786e-05
2.42689e-05
2.45664e-05
2.53205e-05
2.50788e-05
2.29054e-05
2.19606e-05
1.69717e-05
1.32284e-05
7.5713e-08
-1.95803e-05
-4.62512e-05
-5.38986e-05
-4.47136e-05
3.75062e-07
6.61481e-05
0.000103489
0.00013667
0.000200975
-8.11575e-06
6.9147e-05
2.95196e-05
1.85499e-05
8.99457e-05
5.19723e-05
-1.57358e-05
0.000153254
-0.000113857
1.56273e-05
-5.42531e-05
-9.53129e-05
1.71284e-05
-7.98093e-05
8.45311e-05
4.07364e-05
2.21102e-05
1.92999e-05
9.88784e-06
1.31549e-05
1.60466e-05
1.61691e-05
1.97779e-05
1.40132e-05
1.3812e-05
3.07375e-06
-2.16661e-06
-1.40075e-05
-1.94728e-05
-1.89281e-05
-7.25071e-06
4.80467e-06
8.07696e-06
-7.45991e-07
-1.36232e-05
-3.01952e-05
-3.84036e-05
-3.24386e-05
-4.66666e-05
-5.03601e-05
-5.82282e-05
-6.19812e-05
-8.27844e-05
-5.65277e-05
-2.38276e-05
-3.98612e-05
-6.3085e-06
0.000163182
4.08994e-06
-5.93515e-06
-2.5095e-05
0.000129283
-2.86121e-06
-9.2351e-06
4.79512e-05
8.50283e-07
5.47914e-06
9.59224e-06
1.05871e-05
1.16648e-05
1.41313e-05
1.50028e-05
1.94925e-05
2.08199e-05
2.65745e-05
2.95366e-05
3.77326e-05
4.15603e-05
4.85552e-05
4.61916e-05
4.29971e-05
3.48906e-05
1.44567e-05
-9.60567e-08
-1.51893e-05
-2.70607e-05
-5.29135e-05
-5.32537e-05
-6.46442e-05
-5.84865e-05
-5.63265e-05
-4.01714e-05
0.000101398
9.82908e-05
-0.000150983
1.48771e-05
-8.03642e-05
-4.02661e-06
-0.000150222
1.10882e-05
-8.16627e-05
4.6423e-05
2.52014e-05
3.95791e-05
3.00934e-05
1.58455e-05
1.09138e-05
1.42345e-05
1.12521e-05
1.97281e-05
1.21816e-05
1.69335e-05
7.57272e-06
8.58949e-06
7.38471e-07
-1.65042e-06
-9.58324e-06
-1.26979e-05
-1.7973e-05
-2.24845e-05
-2.35593e-05
-2.03824e-05
-8.74493e-06
5.0331e-06
2.89773e-05
9.07054e-06
2.54408e-05
2.52153e-05
2.33842e-05
-8.64596e-06
-3.52344e-05
6.68416e-05
1.76384e-05
-1.08944e-05
-1.94381e-05
-2.83632e-05
4.44476e-05
5.40546e-05
8.38837e-05
-3.1321e-05
7.40846e-05
2.88831e-05
-2.78086e-05
4.49964e-06
5.35213e-06
1.07298e-05
9.99165e-06
1.76103e-05
1.82729e-05
2.35594e-05
2.46172e-05
2.71878e-05
2.7611e-05
2.65447e-05
2.61317e-05
2.07193e-05
1.73614e-05
3.15915e-07
-1.27249e-05
-3.55686e-05
-3.66436e-05
-2.5656e-05
3.12105e-05
6.78282e-05
0.000115213
0.000142312
3.77928e-05
7.54408e-05
3.82234e-05
2.36886e-05
8.57593e-05
4.7434e-05
-1.63791e-05
0.000117867
5.62368e-06
-0.000103169
-4.93268e-05
-7.20216e-05
1.53545e-05
1.64478e-05
4.05539e-05
3.21107e-05
2.81624e-05
1.7587e-05
1.56948e-05
1.29536e-05
1.68313e-05
1.77543e-05
1.86316e-05
1.56309e-05
8.24112e-06
3.36866e-06
-6.4352e-06
-1.41045e-05
-2.00521e-05
-1.98065e-05
-1.1803e-05
-1.27473e-06
6.26635e-06
5.28275e-06
-2.65073e-06
-1.58164e-05
-2.35349e-05
-2.90659e-05
-4.12463e-05
-4.84021e-05
-5.55208e-05
-6.10013e-05
-7.89079e-05
-5.20304e-05
-2.97296e-05
-3.82685e-05
-4.66851e-06
-7.42259e-05
0.000117323
3.84585e-05
2.91133e-05
0.000101423
-1.83026e-05
-1.2928e-05
1.74731e-05
-5.35942e-07
7.87416e-06
7.9906e-06
1.14404e-05
1.13342e-05
1.20134e-05
1.33129e-05
1.31619e-05
1.61992e-05
1.67509e-05
2.18776e-05
2.46791e-05
3.09466e-05
3.32241e-05
3.79551e-05
3.501e-05
3.29127e-05
1.8751e-05
5.44711e-06
2.05441e-06
-2.55574e-05
-4.71231e-05
-8.9346e-05
-5.02466e-05
-6.24172e-05
-6.8188e-05
-5.06962e-05
0.000101411
0.000110533
-0.000158479
2.8095e-05
1.40511e-05
-0.000102255
-4.92313e-06
-1.27805e-05
6.21466e-05
1.38661e-05
3.01845e-05
3.5375e-05
2.18083e-05
1.67981e-05
1.11973e-05
1.04549e-05
1.60849e-05
1.51981e-05
1.98406e-05
1.2281e-05
1.2431e-05
5.79359e-06
6.1751e-06
-1.39528e-06
-2.4705e-06
-8.71659e-06
-1.18579e-05
-1.72797e-05
-2.07832e-05
-1.95888e-05
-1.43056e-05
-2.2979e-06
2.08394e-05
8.2649e-06
1.9234e-05
2.91034e-05
2.50357e-05
-2.78929e-06
-2.33746e-05
7.57296e-05
2.03938e-05
-8.32013e-06
-1.44579e-05
0.000146071
4.97322e-05
9.48391e-05
4.15089e-05
-2.94045e-06
2.51103e-05
-7.20109e-07
-1.73843e-05
7.32119e-07
1.09537e-05
1.39236e-05
1.79229e-05
1.57937e-05
2.33083e-05
2.24252e-05
2.70426e-05
2.76431e-05
3.022e-05
3.04903e-05
2.92494e-05
2.94281e-05
2.39196e-05
1.99845e-05
4.06825e-06
-8.64239e-06
-2.83965e-05
-2.88508e-05
-5.82959e-06
2.76556e-05
7.07101e-05
8.81453e-05
5.39729e-05
7.33855e-05
4.20475e-05
2.69167e-05
7.68138e-05
5.21965e-05
-2.60108e-05
8.96244e-05
-6.60824e-05
1.00906e-05
-4.74708e-05
0.000142343
1.20283e-05
3.56674e-05
2.1414e-05
3.28793e-05
2.35921e-05
1.86608e-05
1.20668e-05
1.28417e-05
1.28103e-05
1.88178e-05
1.68233e-05
1.39084e-05
8.00324e-06
3.4728e-06
-4.25509e-06
-1.0483e-05
-1.66286e-05
-1.6881e-05
-1.26686e-05
-4.40945e-06
3.6678e-06
7.33747e-06
4.8569e-06
-2.9838e-06
-8.78038e-06
-1.82781e-05
-2.94414e-05
-3.91971e-05
-4.92507e-05
-5.63521e-05
-7.09252e-05
-4.22304e-05
-3.02716e-05
-3.38139e-05
-3.74642e-06
5.07946e-05
9.08873e-05
-1.47739e-05
9.22007e-05
-1.67219e-05
-3.70445e-05
-2.35309e-06
8.36991e-06
5.76626e-06
1.16455e-05
1.72491e-05
1.45684e-05
1.68371e-05
1.47667e-05
1.41321e-05
1.30526e-05
1.20369e-05
1.30954e-05
1.32579e-05
1.70785e-05
1.80034e-05
2.35866e-05
2.30818e-05
2.92606e-05
2.11548e-05
2.38636e-05
6.81454e-06
1.15552e-05
-1.2464e-05
-4.00892e-05
-8.79146e-05
-3.33084e-05
-6.3328e-05
-7.11721e-05
-5.44365e-05
8.6731e-05
0.000113734
-0.00016545
3.6153e-05
3.56554e-05
-6.55756e-05
0.000107467
-3.84946e-05
7.65368e-05
2.51031e-05
2.25291e-05
1.46056e-05
2.38059e-05
1.34874e-05
9.82637e-06
9.40057e-06
1.21734e-05
1.6499e-05
1.45097e-05
1.29461e-05
8.25962e-06
9.1677e-06
4.40429e-06
3.9837e-06
-1.30875e-06
-2.74766e-06
-7.30162e-06
-1.14106e-05
-1.52802e-05
-1.74143e-05
-1.56562e-05
-8.53166e-06
1.01776e-05
1.82721e-06
1.46712e-05
2.27365e-05
2.60523e-05
-1.54337e-07
-1.41303e-05
7.7614e-05
2.06311e-05
-6.44632e-06
-1.09714e-05
0.000101594
8.69163e-05
0.000181979
-4.05932e-05
7.5966e-05
5.78363e-05
-1.18661e-05
-1.0109e-05
1.85677e-05
-6.43016e-07
1.03852e-05
1.62707e-05
2.44737e-05
2.25393e-05
2.83995e-05
2.7161e-05
2.97378e-05
3.06881e-05
3.12267e-05
3.14682e-05
3.04159e-05
3.00613e-05
2.62483e-05
1.87353e-05
6.47751e-06
-1.19032e-05
-2.31661e-05
-2.32275e-05
-2.58308e-06
2.60847e-05
4.8105e-05
4.63019e-05
5.90331e-05
4.12654e-05
2.68534e-05
6.05538e-05
4.97179e-05
-3.04532e-05
6.36961e-05
-1.97433e-05
4.76511e-05
-3.76746e-05
0.000122191
3.43223e-05
8.85773e-08
1.29483e-05
5.37255e-05
9.71915e-06
1.21927e-05
1.06472e-05
8.04925e-06
1.3371e-05
1.40011e-05
1.50657e-05
1.00238e-05
9.3617e-06
4.06817e-06
1.80248e-06
-6.37504e-06
-9.59559e-06
-1.30162e-05
-1.03271e-05
-5.82044e-06
8.57609e-07
6.09162e-06
6.63202e-06
4.59137e-06
6.16771e-07
-6.70893e-06
-1.55857e-05
-2.69923e-05
-3.86482e-05
-5.07824e-05
-6.25945e-05
-3.28856e-05
-2.9117e-05
-2.97497e-05
-4.08277e-06
0.000138468
7.72039e-05
-1.9597e-05
8.08193e-05
2.53278e-05
-4.1865e-05
7.07476e-05
5.74082e-05
-2.5867e-05
2.55313e-05
2.58322e-05
1.87226e-05
1.65146e-05
1.98937e-05
1.67518e-05
1.52282e-05
1.20152e-05
1.07613e-05
9.89856e-06
9.28959e-06
1.20282e-05
1.05208e-05
1.7596e-05
1.2397e-05
2.14695e-05
9.06764e-06
1.91234e-05
3.81233e-06
4.47481e-06
-3.09787e-05
-7.05589e-05
-3.80067e-05
-5.06384e-05
-7.23624e-05
-5.21295e-05
6.92235e-05
0.000105792
-0.000155537
4.0117e-05
2.74833e-05
1.9772e-05
2.15457e-05
5.94087e-05
4.46993e-05
5.72636e-05
2.98661e-05
2.15796e-05
1.04247e-05
3.06087e-06
4.44458e-06
7.4579e-06
9.73304e-06
1.2554e-05
1.06334e-05
8.92762e-06
8.1176e-06
7.64516e-06
6.99674e-06
3.91194e-06
1.89936e-06
-9.37232e-07
-2.91341e-06
-7.10114e-06
-1.03093e-05
-1.36421e-05
-1.44168e-05
-1.09964e-05
9.06789e-07
-1.69663e-06
5.61784e-06
1.77195e-05
1.86195e-05
2.64092e-06
-8.33626e-06
7.26826e-05
2.19061e-05
-6.03058e-06
-5.58392e-06
5.0677e-05
6.74657e-05
9.28104e-05
-1.61822e-06
1.14778e-05
7.24955e-05
3.32024e-05
-2.10231e-05
0.00011332
-6.18066e-06
-1.89533e-06
2.66248e-05
2.26839e-05
2.78431e-05
2.63544e-05
2.77941e-05
2.72741e-05
2.7622e-05
2.88594e-05
2.91174e-05
2.88322e-05
2.99469e-05
2.78101e-05
2.49509e-05
1.55847e-05
2.2117e-06
-1.21882e-05
-2.25338e-05
-1.68415e-05
-1.01382e-06
1.88852e-05
2.90845e-05
3.89495e-05
3.25505e-05
2.52465e-05
4.72894e-05
4.57895e-05
-2.98086e-05
4.174e-05
5.73953e-05
3.14616e-05
3.99997e-05
-2.71275e-06
6.24175e-05
1.58948e-06
5.93188e-05
2.50066e-05
6.14152e-07
-2.95216e-06
1.94315e-06
6.19834e-06
8.64535e-06
1.13351e-05
8.89583e-06
9.53808e-06
7.03212e-06
9.22207e-06
3.56948e-06
9.58808e-07
-5.5062e-06
-6.94174e-06
-8.26523e-06
-5.45311e-06
-1.65377e-06
2.80195e-06
5.0847e-06
5.66423e-06
4.94348e-06
7.37472e-07
-4.49776e-06
-1.4181e-05
-2.7176e-05
-4.17647e-05
-5.43171e-05
-2.40744e-05
-2.65436e-05
-2.60771e-05
-4.7274e-06
7.29832e-05
7.98002e-05
-2.54923e-05
4.98492e-05
4.18233e-05
-9.49972e-07
2.53103e-05
9.60878e-05
-3.07815e-05
8.28852e-05
3.55096e-05
8.95323e-06
1.78572e-05
1.79053e-05
1.92874e-05
1.41603e-05
1.17164e-05
8.39463e-06
6.62524e-06
5.8283e-06
4.11096e-06
6.85408e-06
4.66642e-06
1.02253e-05
5.63851e-06
1.17096e-05
6.23843e-06
1.17322e-05
1.83238e-06
-1.37057e-05
-5.37081e-05
-2.78838e-05
-5.23678e-05
-6.27229e-05
-5.17071e-05
5.47718e-05
9.48002e-05
-0.000138803
3.71887e-05
1.4349e-05
3.29829e-05
1.55098e-05
6.23975e-05
-5.88467e-06
5.04145e-05
2.68443e-05
4.40425e-05
-9.91531e-06
-2.47417e-06
2.65419e-06
4.16587e-06
8.21566e-06
7.06129e-06
7.83768e-06
5.70788e-06
8.25082e-06
7.60744e-06
7.56321e-06
4.05891e-06
2.59533e-06
4.40006e-07
-1.12692e-06
-3.89065e-06
-6.87486e-06
-9.73367e-06
-1.15169e-05
-1.04719e-05
-3.6836e-06
-4.80214e-06
6.11983e-07
8.70251e-06
1.23752e-05
-4.29205e-07
-2.90111e-06
6.71787e-05
2.22296e-05
-3.97624e-06
-2.52081e-06
2.03035e-05
8.46157e-06
6.04893e-05
-1.21414e-05
-1.2422e-07
4.93559e-05
4.51284e-05
-1.27168e-05
7.8183e-05
1.68762e-05
1.27471e-05
2.03988e-05
2.46292e-05
2.2381e-05
2.26964e-05
2.13536e-05
2.00405e-05
2.10043e-05
2.24999e-05
2.37158e-05
2.55944e-05
2.54365e-05
2.77262e-05
2.37486e-05
2.21072e-05
9.39061e-06
1.95972e-06
-1.48959e-05
-1.22356e-05
-1.29347e-05
6.32282e-06
1.05866e-05
1.96778e-05
1.75785e-05
1.92902e-05
3.71705e-05
4.07455e-05
-2.75998e-05
2.64168e-05
4.96563e-05
2.16814e-05
3.36572e-05
-1.26086e-05
5.14468e-05
-4.48018e-06
4.14633e-05
1.61278e-05
1.72303e-05
-4.33055e-06
2.04607e-06
4.20465e-06
6.83306e-06
6.57057e-06
6.86181e-06
5.87613e-06
9.59402e-06
8.09939e-06
7.6428e-06
2.19067e-06
-2.65764e-08
-4.31292e-06
-4.90521e-06
-5.40962e-06
-3.03181e-06
-5.48085e-07
1.63985e-06
3.62687e-06
4.25401e-06
3.62902e-06
1.21593e-06
-4.40347e-06
-1.60284e-05
-3.14136e-05
-4.5297e-05
-1.70777e-05
-2.37929e-05
-2.33954e-05
-5.59311e-06
5.20071e-05
3.08724e-05
-3.3202e-05
3.45179e-05
2.66493e-05
-9.34752e-06
4.452e-06
7.26993e-05
-5.65675e-06
5.64352e-06
7.52974e-05
-1.00086e-05
1.3594e-05
1.72138e-05
1.29193e-05
1.0161e-05
6.58158e-06
5.36201e-06
3.55592e-06
1.94893e-06
1.57519e-06
7.08385e-07
2.19843e-06
1.24198e-06
3.66979e-06
1.59029e-06
6.11693e-06
4.05425e-06
6.97452e-06
-8.18035e-06
-3.4154e-05
-2.74954e-05
-4.09636e-05
-6.47256e-05
-4.34094e-05
4.2611e-05
8.47528e-05
-0.000121787
2.98104e-05
3.44692e-06
2.18306e-05
5.96257e-06
4.65732e-05
-1.76036e-05
3.63552e-05
-3.77558e-06
1.94128e-05
-8.03854e-06
4.74666e-06
1.04435e-06
4.78988e-06
4.16684e-06
6.09906e-06
3.61304e-06
7.08729e-06
6.41897e-06
9.00046e-06
5.24888e-06
4.66949e-06
1.71194e-06
1.0802e-06
-5.99793e-07
-2.27761e-06
-4.3212e-06
-6.68982e-06
-8.00056e-06
-8.15347e-06
-4.80743e-06
-5.25629e-06
-2.30259e-06
2.81064e-06
5.11819e-06
-4.93563e-06
-2.65315e-06
5.69123e-05
2.232e-05
-2.69922e-06
1.54078e-06
1.99613e-06
6.07938e-07
4.56018e-05
-1.42694e-05
-8.44881e-06
3.31747e-05
2.91041e-05
-2.80441e-05
4.50105e-05
3.83998e-05
-3.54234e-05
6.95704e-05
-3.15095e-06
1.43783e-05
1.20472e-05
1.04845e-05
1.22863e-05
1.25442e-05
1.59332e-05
1.90891e-05
2.02734e-05
2.32068e-05
2.26107e-05
2.45594e-05
2.05231e-05
1.76875e-05
8.83948e-06
7.738e-08
-4.54375e-06
-6.99409e-06
1.7868e-07
1.9339e-06
3.9805e-06
3.13313e-06
9.46779e-06
2.88067e-05
3.57773e-05
-2.40664e-05
1.75269e-05
2.8627e-05
1.18741e-05
2.06536e-05
-1.87357e-05
3.54139e-05
-1.30742e-05
2.48783e-05
-2.77124e-06
7.33534e-06
4.7642e-06
2.95054e-06
2.84585e-06
3.97991e-06
4.61579e-06
4.13965e-06
6.54107e-06
7.41243e-06
8.40143e-06
5.54138e-06
4.44068e-06
4.6915e-07
-9.67009e-07
-3.82924e-06
-4.02481e-06
-4.09723e-06
-2.86149e-06
-1.43589e-06
1.26606e-07
1.79831e-06
2.53216e-06
2.63891e-06
7.13166e-07
-7.78912e-06
-2.10313e-05
-3.57849e-05
-1.08866e-05
-2.07436e-05
-2.11353e-05
-6.14993e-06
1.99345e-05
3.05414e-05
-2.61571e-05
2.23111e-05
1.8065e-05
-1.44644e-05
-5.01522e-06
5.2488e-05
-1.40479e-05
-1.78499e-06
4.9872e-05
-1.9005e-05
3.45567e-05
9.30177e-06
5.65477e-06
3.42815e-06
2.84654e-06
3.08812e-06
3.0843e-06
1.48066e-06
6.90567e-07
-4.61029e-07
-2.25266e-08
-8.3639e-07
4.03645e-07
-1.33909e-06
2.31846e-06
7.64335e-07
6.24821e-06
-4.69003e-06
-1.93645e-05
-2.32164e-05
-3.50122e-05
-5.50711e-05
-4.1558e-05
3.42938e-05
7.31631e-05
-0.000103647
2.41758e-05
-4.24136e-06
1.16677e-05
-4.51957e-07
3.22731e-05
-1.80097e-05
2.39387e-05
-9.31384e-06
1.53751e-05
1.99761e-06
4.31417e-06
2.53733e-06
1.04484e-06
4.51905e-06
2.353e-06
5.43072e-06
4.29332e-06
7.94411e-06
5.03171e-06
5.64763e-06
2.39503e-06
2.11313e-06
2.53775e-07
-1.52619e-07
-1.55224e-06
-2.58849e-06
-4.06978e-06
-5.08351e-06
-5.04465e-06
-4.06769e-06
-3.69234e-06
-2.88268e-06
-2.57912e-07
2.04225e-07
-9.14182e-06
-3.59511e-06
4.8866e-05
2.19488e-05
-3.53352e-07
3.59121e-06
-2.24792e-07
-4.84635e-06
3.10299e-05
-1.5613e-05
-8.69521e-06
2.18665e-05
1.95328e-05
-2.88617e-05
3.02472e-05
2.20315e-05
-1.3129e-05
1.37548e-05
1.53901e-05
-1.83912e-06
4.18575e-06
5.17678e-06
5.85318e-06
1.02044e-05
1.21117e-05
1.60998e-05
1.82258e-05
1.9156e-05
2.07798e-05
2.0743e-05
2.09499e-05
1.89719e-05
1.54415e-05
9.6898e-06
5.67516e-06
1.92353e-06
1.79494e-06
1.67169e-07
-3.89945e-06
-5.64492e-06
-1.50098e-06
2.03235e-05
2.76606e-05
-1.99688e-05
1.22594e-05
2.15666e-05
5.09654e-06
1.23777e-05
-1.78241e-05
2.40437e-05
-1.43805e-05
1.75076e-05
-4.92141e-06
6.86679e-06
2.06018e-06
4.22382e-06
4.94456e-06
-1.75723e-06
2.27935e-06
3.79836e-06
5.02239e-06
5.8609e-06
4.95868e-06
4.86989e-06
2.57294e-06
1.87515e-06
-7.94643e-07
-1.8286e-06
-3.5008e-06
-4.06285e-06
-4.10669e-06
-3.62164e-06
-2.56635e-06
-1.18222e-06
1.76197e-07
1.40227e-06
1.7282e-06
-3.16631e-06
-1.27407e-05
-2.68217e-05
-5.53394e-06
-1.68289e-05
-1.94463e-05
-6.35773e-06
2.25483e-05
1.36486e-05
-2.32012e-05
1.71367e-05
1.03081e-05
-1.43197e-05
-7.6765e-06
3.66734e-05
-1.29449e-05
-3.88399e-06
2.47235e-05
6.29603e-06
4.15192e-06
1.08496e-05
3.54675e-06
1.88467e-06
4.61181e-06
5.30819e-06
5.46891e-06
4.10266e-06
1.78909e-06
1.37109e-06
-6.99083e-07
7.02204e-07
-1.79581e-06
1.22361e-07
-2.4242e-06
1.83787e-06
3.35169e-07
4.74958e-07
-1.47026e-05
-1.41808e-05
-2.9499e-05
-4.38371e-05
-3.72591e-05
2.56232e-05
6.35948e-05
-8.77127e-05
1.53178e-05
-4.32986e-06
6.86621e-06
-1.25081e-06
2.19291e-05
-1.68741e-05
1.67006e-05
-1.04074e-05
1.18342e-05
1.65681e-06
1.9686e-06
4.80649e-06
-1.3767e-06
2.57893e-06
1.1142e-06
1.59766e-06
5.32318e-06
3.17646e-06
5.06644e-06
2.31215e-06
2.7988e-06
6.23891e-07
6.37457e-07
-5.20106e-07
-6.64535e-07
-1.82456e-06
-2.24827e-06
-2.67465e-06
-2.79364e-06
-2.02009e-06
-2.17101e-06
-1.65572e-06
-1.01854e-06
-2.77808e-06
-9.69954e-06
-8.54311e-06
3.75742e-05
1.98776e-05
1.41204e-06
5.82838e-06
-1.06974e-06
-2.53851e-06
2.47748e-05
-1.27738e-05
-8.7689e-06
1.59599e-05
1.10333e-05
-2.39293e-05
2.18905e-05
1.45281e-05
-1.14216e-05
3.51208e-06
2.06675e-06
5.8685e-06
-4.29676e-06
3.48533e-06
8.28192e-06
8.8944e-06
1.26899e-05
1.43717e-05
1.63973e-05
1.66896e-05
1.75618e-05
1.78195e-05
1.83967e-05
1.84622e-05
1.70474e-05
1.51061e-05
1.15097e-05
9.40619e-06
4.44994e-06
3.21856e-06
-5.80872e-06
-7.45402e-06
-9.74989e-06
1.37898e-05
1.83515e-05
-1.6425e-05
1.03087e-05
1.37504e-05
3.39593e-06
7.15839e-06
-1.51365e-05
1.66233e-05
-1.24444e-05
1.26601e-05
-3.93629e-06
4.78138e-06
3.87956e-06
2.65965e-06
8.7768e-06
-4.62424e-06
3.71864e-07
2.32126e-06
2.85161e-06
3.12486e-06
3.1119e-06
2.38238e-06
2.32468e-06
8.78205e-07
3.25232e-07
-1.26332e-06
-2.83559e-06
-3.94106e-06
-4.49737e-06
-4.61919e-06
-4.12547e-06
-3.22247e-06
-2.04379e-06
-6.16297e-07
6.3502e-07
-1.91914e-06
-7.8125e-06
-1.98296e-05
-1.66546e-06
-1.24388e-05
-1.69184e-05
-6.48349e-06
1.02351e-05
1.62411e-05
-1.65946e-05
1.23143e-05
7.35108e-06
-1.30703e-05
-6.25094e-06
2.72712e-05
-1.04343e-05
-3.77903e-06
1.7043e-05
-2.70372e-06
3.24246e-06
-3.98077e-06
6.81658e-06
7.08469e-06
5.3132e-06
7.6642e-06
7.01458e-06
6.27842e-06
4.22218e-06
2.0511e-06
1.67124e-06
1.86354e-07
6.7392e-07
-1.58326e-06
-8.66811e-07
-1.81036e-06
2.86687e-07
-2.44487e-06
-8.11237e-06
-1.17362e-05
-2.0039e-05
-3.2958e-05
-3.11737e-05
2.17448e-05
5.49645e-05
-6.99697e-05
1.01563e-05
-4.52176e-06
4.48448e-06
-1.60704e-06
1.55339e-05
-1.29248e-05
1.17816e-05
-8.25839e-06
8.79006e-06
1.07751e-06
2.96988e-06
4.58551e-06
-2.50052e-06
4.21812e-06
-5.17472e-07
2.91546e-06
9.96897e-07
3.2145e-06
1.22006e-06
2.59074e-06
6.87317e-07
1.09505e-06
-1.15497e-07
-1.6016e-07
-1.18987e-06
-1.22141e-06
-1.35974e-06
-1.34742e-06
-9.4683e-07
-7.3709e-07
-3.63999e-07
-6.23669e-07
-6.52696e-07
-3.23159e-06
-9.43938e-06
-1.14883e-05
3.18307e-05
1.81027e-05
2.92973e-06
8.11414e-06
-4.67039e-07
-2.58428e-06
1.77824e-05
-1.13325e-05
-6.19803e-06
1.16566e-05
8.31833e-06
-1.87379e-05
1.62689e-05
9.77313e-06
-1.06605e-05
2.86381e-06
-2.72649e-06
3.35931e-06
5.49133e-06
-8.17111e-06
-2.91893e-06
8.85166e-06
1.09374e-05
1.26702e-05
1.36305e-05
1.37737e-05
1.37624e-05
1.41581e-05
1.44945e-05
1.54266e-05
1.55226e-05
1.52509e-05
1.3397e-05
1.20521e-05
7.00528e-06
6.04974e-06
-3.55669e-06
-4.73923e-06
-1.20472e-05
9.21211e-06
1.0534e-05
-1.38204e-05
9.91009e-06
1.23676e-05
1.94916e-06
4.78846e-06
-1.16867e-05
1.1649e-05
-9.96255e-06
9.03695e-06
-3.8299e-06
3.71887e-06
2.19434e-06
2.2814e-06
8.16388e-06
-2.05476e-06
2.47228e-06
8.50893e-07
1.8056e-06
1.43443e-06
1.40887e-06
1.34457e-06
9.94772e-07
1.00929e-06
2.91911e-07
-1.24418e-06
-2.59804e-06
-3.84306e-06
-4.29669e-06
-4.58114e-06
-4.50384e-06
-4.0638e-06
-3.37183e-06
-2.25372e-06
-1.11331e-06
-2.3722e-06
-5.98784e-06
-1.43126e-05
4.96312e-07
-8.30782e-06
-1.39141e-05
-6.22156e-06
1.29904e-05
8.23538e-06
-1.37404e-05
1.03781e-05
4.58484e-06
-1.06044e-05
-4.83309e-06
2.01327e-05
-8.63669e-06
-2.58769e-06
1.17434e-05
-2.93446e-06
1.04544e-06
3.79843e-06
-1.14696e-05
6.62726e-06
2.19927e-05
6.24599e-06
8.04971e-06
6.79047e-06
4.51944e-06
3.07815e-06
1.6562e-06
1.57483e-06
4.95265e-07
-1.92078e-07
-1.88457e-06
-1.52089e-06
-2.63316e-06
-2.10939e-06
-7.68888e-06
-6.92598e-06
-1.58681e-05
-1.99106e-05
-2.49112e-05
1.87196e-05
4.23069e-05
-5.50945e-05
7.23073e-06
-3.10401e-06
3.50732e-06
-6.00958e-07
1.10336e-05
-1.03881e-05
8.34953e-06
-7.09004e-06
6.11309e-06
5.07e-07
2.18661e-06
4.06563e-07
1.67077e-07
4.43285e-06
-2.12908e-07
6.31127e-08
1.81093e-06
-3.09949e-07
1.83735e-06
2.85419e-07
1.28128e-06
2.61429e-07
-1.05625e-07
-1.19877e-06
-1.48474e-06
-1.44036e-06
-1.04031e-06
-5.70672e-07
-1.39595e-07
2.20335e-07
4.33854e-07
1.15951e-07
-7.09366e-08
-3.41213e-06
-7.09439e-06
-1.16899e-05
2.3387e-05
1.43793e-05
5.00773e-06
8.6967e-06
-1.99779e-07
-1.03778e-06
1.47133e-05
-8.50983e-06
-5.20446e-06
9.62444e-06
5.10124e-06
-1.41506e-05
1.284e-05
7.26197e-06
-8.4914e-06
2.14471e-06
1.611e-06
-3.4917e-06
1.44854e-05
4.25828e-06
5.22759e-06
2.05984e-05
1.28083e-05
9.72763e-06
1.00315e-05
9.78003e-06
1.00272e-05
9.73258e-06
1.03782e-05
1.08641e-05
1.23127e-05
1.20888e-05
1.25617e-05
1.09091e-05
8.72444e-06
6.90201e-06
6.04352e-07
-1.42117e-06
-9.13257e-06
6.178e-06
5.06646e-06
-1.17809e-05
9.88033e-06
8.78672e-06
1.78842e-06
2.86319e-06
-8.98342e-06
8.27223e-06
-7.68849e-06
6.35481e-06
-3.22429e-06
2.63989e-06
1.09999e-06
2.23486e-06
2.43254e-06
-8.63444e-07
3.23046e-06
3.99888e-07
-1.03809e-06
3.12479e-06
-6.5818e-07
9.58103e-07
8.54169e-07
8.05403e-07
-2.67472e-07
-1.32022e-06
-2.93723e-06
-3.36429e-06
-3.69817e-06
-3.88033e-06
-4.00233e-06
-3.97493e-06
-3.75158e-06
-3.12239e-06
-2.56629e-06
-3.30874e-06
-5.64401e-06
-1.1191e-05
4.88954e-07
-5.59591e-06
-1.07524e-05
-5.9774e-06
6.71258e-06
9.37013e-06
-9.88295e-06
7.89517e-06
3.75577e-06
-8.60925e-06
-3.06737e-06
1.61281e-05
-6.30676e-06
-1.97824e-06
9.83219e-06
-9.76006e-07
2.21168e-06
1.10041e-05
-5.49421e-06
2.90913e-05
2.16251e-05
1.27284e-05
8.08098e-06
5.85943e-06
3.7708e-06
2.40814e-06
1.67264e-06
1.34968e-06
9.89525e-07
-1.89378e-07
-1.17628e-06
-2.25036e-06
-2.55167e-06
-3.50886e-06
-5.46878e-06
-6.0096e-06
-1.04077e-05
-1.30154e-05
-1.67057e-05
1.3698e-05
3.03801e-05
-3.90686e-05
4.61234e-06
-3.17524e-06
2.58027e-06
-6.03538e-07
8.01503e-06
-7.55196e-06
5.91023e-06
-5.37663e-06
4.3562e-06
2.97998e-07
1.58516e-06
-9.43525e-08
2.42183e-07
3.02241e-06
-1.99491e-06
-4.57987e-07
4.76665e-06
3.9675e-08
9.51823e-07
-2.88444e-07
7.0174e-07
2.56259e-07
-8.58665e-07
-1.99395e-06
-2.10891e-06
-1.72179e-06
-8.9528e-07
-3.3485e-07
1.40331e-07
4.19753e-07
6.09883e-07
3.18459e-07
-7.24623e-08
-2.91545e-06
-5.42353e-06
-1.0684e-05
1.72719e-05
1.26086e-05
4.82931e-06
9.44303e-06
-4.94366e-07
-1.55352e-06
1.07636e-05
-7.36231e-06
-3.32412e-06
7.66297e-06
4.69838e-06
-1.09254e-05
1.05243e-05
6.43189e-06
-6.18467e-06
4.20392e-06
4.66802e-06
-1.07378e-06
2.85834e-05
3.91946e-06
3.22432e-05
1.00277e-05
6.85098e-06
5.74095e-06
5.88647e-06
6.32278e-06
6.17406e-06
6.27993e-06
6.03422e-06
7.21948e-06
7.88957e-06
9.04001e-06
9.3161e-06
9.31613e-06
8.17115e-06
7.24835e-06
3.62736e-06
9.09884e-07
-1.85127e-06
5.14529e-06
3.19435e-06
-9.18005e-06
9.37547e-06
7.50531e-06
9.77772e-07
1.9728e-06
-6.76664e-06
5.88981e-06
-5.90765e-06
4.4746e-06
-2.7835e-06
1.93009e-06
5.23062e-07
1.45283e-06
2.11834e-06
-1.41647e-06
3.04514e-06
4.39564e-06
2.25105e-06
3.66045e-06
-1.87521e-06
1.02179e-06
-5.15588e-07
-2.47332e-07
-6.86751e-07
-2.02311e-06
-2.5148e-06
-2.7928e-06
-2.66361e-06
-2.85439e-06
-3.1152e-06
-3.3473e-06
-3.46671e-06
-3.33373e-06
-3.32652e-06
-3.91005e-06
-6.14221e-06
-8.62777e-06
-6.53757e-07
-3.77769e-06
-8.36017e-06
-5.46867e-06
6.70038e-06
4.33634e-06
-8.75798e-06
6.74789e-06
2.55756e-06
-6.73702e-06
-2.15832e-06
1.30101e-05
-4.80233e-06
-1.02448e-06
9.87904e-06
9.97542e-07
3.72017e-06
1.51927e-05
-9.42956e-06
2.64256e-05
-8.23751e-06
3.82796e-06
3.6981e-06
2.61483e-06
1.83819e-06
1.17817e-06
1.00664e-06
8.94232e-07
9.78941e-07
7.51596e-08
-6.69669e-07
-1.8026e-06
-2.20103e-06
-3.27619e-06
-3.94318e-06
-4.91782e-06
-6.81722e-06
-8.86461e-06
-1.04291e-05
1.04862e-05
1.82878e-05
-2.69995e-05
4.06674e-06
-1.9551e-06
1.80637e-06
-5.83817e-08
5.73645e-06
-5.9231e-06
4.19814e-06
-4.39312e-06
3.01151e-06
-1.38372e-07
9.38589e-07
1.97459e-07
1.96846e-07
1.03777e-06
3.68137e-06
1.07538e-06
1.00751e-05
-2.10482e-06
4.94921e-06
-4.20408e-06
-9.40296e-07
-1.81238e-06
-2.41903e-06
-2.4235e-06
-2.43956e-06
-1.45909e-06
-7.88752e-07
-3.00959e-07
2.91724e-08
2.35378e-07
3.38369e-07
8.95474e-08
-3.39625e-07
-2.42816e-06
-4.49825e-06
-7.83926e-06
1.15378e-05
9.86039e-06
5.09086e-06
8.60312e-06
-9.5168e-07
-1.17586e-06
8.73844e-06
-5.77193e-06
-2.82584e-06
6.65671e-06
3.44436e-06
-8.51559e-06
9.0955e-06
6.415e-06
-3.99041e-06
5.21884e-06
5.62135e-06
-3.09434e-06
2.41075e-05
-1.52628e-05
2.19556e-05
-9.87754e-06
-6.1477e-06
7.95585e-07
2.57027e-06
3.34643e-06
3.63088e-06
3.343e-06
3.39996e-06
3.89016e-06
4.90877e-06
5.67708e-06
6.67703e-06
6.87314e-06
7.16623e-06
6.40609e-06
5.29553e-06
1.6311e-06
5.0995e-06
4.50495e-06
3.24812e-06
-6.2119e-06
8.01619e-06
1.94008e-06
2.96185e-07
1.05418e-06
-5.09631e-06
4.19102e-06
-4.44161e-06
3.11438e-06
-2.28982e-06
1.19835e-06
3.88837e-07
9.53545e-07
-1.02967e-08
3.69628e-06
-3.55715e-06
1.94454e-05
-1.44452e-06
1.11111e-05
-6.41771e-06
-1.50676e-06
-4.13619e-06
-3.86448e-06
-2.61746e-06
-1.99082e-06
-1.9477e-06
-1.55181e-06
-1.60506e-06
-1.79318e-06
-2.16942e-06
-2.53257e-06
-2.88052e-06
-3.07688e-06
-3.39841e-06
-4.11673e-06
-5.95589e-06
-7.03128e-06
-1.80772e-06
-3.25311e-06
-6.65828e-06
-5.02383e-06
1.7716e-06
3.7213e-06
-6.82429e-06
5.31658e-06
2.27985e-06
-5.36699e-06
-1.35259e-06
1.13491e-05
-3.51422e-06
-5.23562e-07
9.41596e-06
1.97024e-06
3.37566e-06
1.28534e-05
-1.23352e-05
1.89528e-05
-1.99573e-05
7.50818e-06
9.22636e-06
-6.27165e-07
8.20859e-07
8.03682e-07
4.49255e-07
7.88409e-07
6.89549e-07
5.98208e-07
-3.59607e-07
-7.41987e-07
-1.67837e-06
-2.01377e-06
-2.97435e-06
-3.2571e-06
-5.08581e-06
-5.54455e-06
-2.22119e-06
6.41215e-06
9.45198e-06
-1.74753e-05
3.46811e-06
-1.10797e-06
-4.42253e-07
-6.70971e-07
4.07811e-06
-4.28439e-06
2.95975e-06
-3.2363e-06
1.97638e-06
-2.10155e-07
4.73399e-07
6.2943e-08
5.39799e-07
-2.0735e-06
1.03999e-05
-3.27861e-06
1.21368e-05
-2.10407e-08
-1.90109e-06
-3.09136e-06
-7.49674e-06
-4.13414e-06
-2.39577e-06
-2.42008e-06
-1.47393e-06
-9.48531e-07
-4.93845e-07
-3.09128e-07
-1.60488e-07
-1.04717e-07
-5.99521e-08
-2.82595e-07
-6.07874e-07
-2.07945e-06
-3.60788e-06
-5.57796e-06
6.41703e-06
8.15914e-06
4.42612e-06
7.42673e-06
-4.11574e-07
7.37996e-07
7.42861e-06
-4.87496e-06
-1.68403e-06
5.46826e-06
3.52935e-06
-7.02633e-06
7.82308e-06
5.83022e-06
-3.05428e-06
4.80673e-06
4.64273e-06
-3.20417e-06
1.85499e-05
-1.18267e-05
1.17271e-05
-5.56505e-07
-2.41785e-06
8.44805e-06
3.84236e-06
2.79405e-06
2.46385e-06
1.96667e-06
1.7414e-06
1.97972e-06
2.65031e-06
3.3907e-06
4.21093e-06
4.85196e-06
5.39721e-06
5.25134e-06
5.2166e-06
3.81228e-06
-6.70468e-07
6.2038e-06
3.42111e-06
-2.52077e-06
5.63691e-06
-1.09211e-06
-4.56677e-07
4.64721e-07
-3.89138e-06
2.99325e-06
-3.37372e-06
2.12823e-06
-1.84467e-06
6.56849e-07
3.95912e-07
2.89831e-07
-4.89776e-07
3.24182e-07
1.91405e-06
1.15809e-05
1.09469e-05
-3.07195e-06
2.11994e-06
-9.63554e-06
-4.63835e-06
-2.49258e-06
-2.03913e-06
-1.32397e-06
-5.48612e-07
-4.9503e-07
-6.00966e-07
-8.98435e-07
-1.39631e-06
-1.734e-06
-2.27945e-06
-2.47909e-06
-3.14284e-06
-3.63157e-06
-5.64178e-06
-5.49488e-06
-2.61759e-06
-2.74198e-06
-5.5592e-06
-4.52637e-06
4.92183e-06
3.53783e-06
-5.46834e-06
4.84591e-06
1.72706e-06
-4.27245e-06
-1.1142e-06
9.47592e-06
-2.9461e-06
-5.51231e-07
8.30084e-06
1.51723e-06
2.58231e-06
9.94341e-06
-1.19291e-05
1.71821e-05
-6.5775e-06
1.5623e-05
1.02952e-05
4.30529e-06
2.84065e-06
1.51322e-06
9.76077e-07
6.91937e-07
9.40404e-07
5.77582e-07
3.19362e-07
-3.60295e-07