/*--------------------------------*- C++ -*----------------------------------*\
| =========                 |                                                 |
| \\      /  F ield         | OpenFOAM: The Open Source CFD Toolbox           |
|  \\    /   O peration     | Version:  2306                                  |
|   \\  /    A nd           | Website:  www.openfoam.com                      |
|    \\/     M anipulation  |                                                 |
\*---------------------------------------------------------------------------*/
FoamFile
{
    version     2.0;
    format      ascii;
    arch        "LSB;label=32;scalar=64";
    class       volVectorField;
    location    "175";
    object      momentError;
}
// * * * * * * * * * * * * * * * * * * * * * * * * * * * * * * * * * * * * * //

dimensions      [0 1 -2 0 0 0 0];

internalField   nonuniform List<vector> 
10720
(
(0.744316 -3.04973 -6.9484e-15)
(0.544883 -3.00116 2.24579e-14)
(0.0761708 -2.51871 -4.47444e-14)
(-0.143979 -2.39254 1.81474e-14)
(-0.311018 -2.14953 1.04571e-13)
(-0.433421 -1.90251 -1.67194e-13)
(-0.533771 -1.66985 8.73869e-14)
(-0.576044 -1.41315 -1.08336e-13)
(-0.578628 -1.18971 -2.47328e-13)
(-0.555673 -0.973326 3.35435e-13)
(-0.513573 -0.826975 1.21457e-13)
(-0.364384 -0.54613 -2.24255e-13)
(-0.246655 -0.360263 -3.2874e-13)
(-0.142911 -0.198772 -5.62618e-14)
(-0.0232074 -0.0505723 -1.37747e-13)
(0.100802 0.0811647 -3.06571e-13)
(0.241301 0.191568 -1.45327e-13)
(0.401581 0.280899 8.25218e-13)
(0.586382 0.35185 4.21581e-13)
(0.791498 0.394499 -5.94453e-13)
(0.960975 0.406597 1.06483e-13)
(1.03575 0.347249 1.5326e-13)
(0.806328 0.232717 -6.63534e-14)
(0.407274 0.149902 -1.56001e-13)
(0.232019 0.0831696 3.74833e-14)
(0.148934 0.00989538 -2.14597e-15)
(0.144031 -0.0212051 4.12723e-14)
(0.144 -0.0285696 -1.64193e-14)
(0.146506 -0.0247673 4.40354e-14)
(0.154083 -0.0200384 1.55543e-13)
(0.152855 -0.0163008 3.12184e-14)
(0.117812 -0.0109709 -1.29492e-13)
(0.0938206 -0.00842705 -5.01993e-15)
(0.075404 -0.00779788 -2.17023e-13)
(0.0621987 -0.00776365 -2.86332e-13)
(0.0579364 -0.00774261 1.16693e-13)
(0.0609558 -0.00952565 -1.12963e-14)
(0.0289077 -0.00981921 6.59955e-16)
(-0.0218964 -0.00557087 -6.64624e-14)
(0.830456 -2.84796 -1.12923e-14)
(0.89358 -2.29658 2.80283e-14)
(0.889009 -1.71198 1.31674e-15)
(0.760385 -1.23512 3.68802e-14)
(0.640464 -0.860347 -3.2484e-14)
(0.485261 -0.467225 -9.90563e-14)
(0.185384 -0.0996416 -8.78653e-14)
(0.0140516 0.0356477 2.6521e-14)
(0.0847905 -0.0711675 -8.55159e-14)
(0.222663 -0.1885 9.71632e-14)
(0.245343 -0.160292 -5.88999e-14)
(0.209472 -0.116127 -1.4471e-13)
(0.195773 -0.0997844 -1.6274e-13)
(0.189083 -0.0857545 1.29491e-14)
(0.171039 -0.0689941 1.31068e-13)
(0.150268 -0.0560103 3.91827e-14)
(0.133257 -0.0462053 -4.93874e-14)
(0.117805 -0.0382094 -3.47681e-14)
(0.103437 -0.0316367 -2.14135e-14)
(0.0908248 -0.0265575 3.81892e-14)
(0.08047 -0.0223983 1.68114e-14)
(0.07189 -0.0191035 2.43182e-14)
(0.0650226 -0.0161818 -3.26692e-14)
(0.0592329 -0.0139073 -2.36789e-14)
(0.0537681 -0.011155 1.7329e-14)
(0.0482193 -0.0107273 1.14232e-14)
(0.0445063 -0.00912992 6.28838e-15)
(0.0426953 -0.00163223 -1.2964e-15)
(0.0405438 0.00344479 -2.44479e-16)
(0.03829 0.00357123 3.47432e-16)
(0.0361607 0.00290391 -5.71852e-16)
(0.0340166 0.00276835 -2.2897e-15)
(0.0317463 0.00285611 -1.07551e-15)
(0.0296633 0.00300463 -5.65884e-15)
(0.0279065 0.00315312 -5.26458e-15)
(0.0284817 0.0033515 1.74491e-15)
(0.0332236 0.00357089 -1.7404e-15)
(0.0250159 0.00309925 -1.06188e-14)
(0.0208392 0.00735015 -2.11968e-14)
(-0.239322 -2.1353 -1.36469e-14)
(-0.464159 -2.1319 5.21727e-15)
(-0.612857 -1.81219 6.66864e-15)
(-0.836853 -1.76487 -3.08518e-14)
(-0.984103 -1.64325 1.995e-14)
(-1.08024 -1.49771 7.5884e-14)
(-1.17888 -1.33803 1.0051e-13)
(-1.22392 -1.16929 9.71572e-14)
(-1.22377 -1.00551 -3.91242e-15)
(-1.2152 -0.859329 1.85802e-13)
(-1.16018 -0.693459 -2.04464e-13)
(-1.15641 -0.739283 -1.16388e-13)
(-1.13933 -0.720911 4.40204e-13)
(-1.12799 -0.65374 1.26423e-13)
(-1.04526 -0.623822 -1.17159e-13)
(-0.972164 -0.590229 -1.73543e-14)
(-0.883542 -0.572509 3.37441e-13)
(-0.770301 -0.559188 -1.55344e-13)
(-0.612379 -0.550448 -4.84445e-13)
(-0.387196 -0.530309 1.86585e-13)
(-0.0285291 -0.473841 2.3303e-13)
(0.422322 -0.341967 4.51344e-14)
(0.903934 -0.119138 -1.22597e-13)
(1.16225 0.0607414 1.90705e-13)
(1.06061 0.0880057 -4.12313e-14)
(0.922955 0.0652739 -7.0542e-14)
(0.798145 0.0415322 -3.01087e-14)
(0.627031 0.0121108 5.43068e-15)
(0.429844 -0.00323321 -1.57119e-14)
(0.259232 -0.0131437 -1.79347e-14)
(0.154004 -0.0197181 -2.0451e-14)
(0.130362 -0.0226709 3.85271e-14)
(0.123895 -0.0220285 -1.89241e-13)
(0.114495 -0.0195378 -2.22629e-13)
(0.103273 -0.0171812 1.6451e-13)
(0.109825 -0.0165473 -3.84012e-14)
(0.107476 -0.0184305 3.43008e-14)
(0.0875756 -0.0177933 -1.42843e-14)
(0.149132 -0.0261179 -4.38894e-14)
(-0.0852031 -2.00962 -4.33449e-15)
(0.112074 -1.68851 1.28133e-13)
(0.267096 -1.31901 -8.84819e-15)
(0.33035 -1.02068 -1.31894e-13)
(0.357723 -0.738315 -2.53142e-14)
(0.336601 -0.452607 1.29091e-13)
(0.21399 -0.200061 9.79345e-14)
(0.134985 -0.108107 6.44194e-14)
(0.172856 -0.148161 -7.21379e-14)
(0.24181 -0.172959 -1.58963e-14)
(0.266939 -0.128512 1.01186e-13)
(0.253252 -0.0941697 -5.4092e-15)
(0.240207 -0.076787 1.26029e-14)
(0.228741 -0.0574092 -2.40924e-14)
(0.209838 -0.0393009 -3.21621e-14)
(0.187595 -0.0279076 1.37767e-14)
(0.167874 -0.019918 1.6996e-14)
(0.14994 -0.0140849 -5.70906e-14)
(0.13336 -0.0100541 2.64903e-14)
(0.118593 -0.00773011 1.75289e-14)
(0.106147 -0.0060878 1.44542e-14)
(0.0956636 -0.00501458 3.12141e-14)
(0.0869113 -0.00406165 4.0446e-14)
(0.0792158 -0.00276768 1.70717e-14)
(0.072019 -0.000746121 -1.45895e-14)
(0.0651709 0.00135904 8.45639e-16)
(0.0586738 0.0026165 -5.11116e-15)
(0.0533523 0.00293979 -1.82274e-15)
(0.0491451 0.00200081 3.23365e-16)
(0.045311 0.00120105 -7.82054e-17)
(0.0420404 0.00156076 5.14232e-16)
(0.0391944 0.00253637 8.34496e-16)
(0.0367421 0.00330737 2.18458e-15)
(0.034475 0.00380741 3.56789e-15)
(0.0327237 0.00417157 1.52829e-15)
(0.0344441 0.00446257 -1.9234e-15)
(0.0356529 0.00466514 -2.79279e-16)
(0.0327595 0.00521494 3.48116e-15)
(0.0204113 0.00578212 8.86641e-15)
(0.149522 -1.73159 -5.50135e-15)
(0.0358757 -1.71826 -5.66232e-17)
(-0.108828 -1.4723 -4.62452e-15)
(-0.246478 -1.48818 1.39543e-14)
(-0.343219 -1.42925 3.67797e-15)
(-0.428084 -1.32843 -3.11614e-14)
(-0.50907 -1.23124 -1.0342e-13)
(-0.5578 -1.11923 -9.19315e-14)
(-0.580667 -0.995211 -1.08779e-13)
(-0.589699 -0.876862 1.11238e-14)
(-0.579005 -0.76267 2.57445e-13)
(-0.554073 -0.640618 6.96247e-14)
(-0.525556 -0.517937 -9.79521e-14)
(-0.483311 -0.420812 -2.37022e-13)
(-0.483695 -0.321144 1.08838e-13)
(-0.506992 -0.237712 1.43805e-13)
(-0.529335 -0.188549 -9.31549e-14)
(-0.567535 -0.161554 -1.85899e-13)
(-0.642608 -0.164708 3.13482e-13)
(-0.765275 -0.202146 -9.43424e-14)
(-0.94446 -0.271512 -1.2101e-13)
(-1.09815 -0.32634 1.80188e-13)
(-1.06555 -0.272044 6.83296e-14)
(-0.753219 -0.116088 -2.66667e-15)
(-0.38121 0.0199104 -3.26314e-14)
(-0.132866 0.072349 4.09153e-15)
(0.0050231 0.0539459 -3.03603e-14)
(0.124874 0.0230506 2.112e-14)
(0.228131 0.00938434 -3.28258e-14)
(0.309197 0.00416712 -7.29285e-14)
(0.325843 -0.00344403 7.01945e-14)
(0.2601 -0.0108092 3.001e-14)
(0.17029 -0.0155156 -1.22259e-13)
(0.113696 -0.0175052 7.65343e-14)
(0.0935877 -0.0178109 2.03261e-14)
(0.100013 -0.0183645 -3.7265e-14)
(0.113454 -0.0204158 -1.04035e-13)
(0.0989417 -0.019848 2.92562e-14)
(0.140744 -0.0284141 1.04181e-14)
(0.23416 -1.64163 3.02055e-14)
(0.291206 -1.39465 -2.86304e-14)
(0.330949 -1.0904 -1.00754e-13)
(0.34759 -0.869537 4.53442e-14)
(0.334591 -0.654852 1.85264e-14)
(0.293921 -0.439093 -6.54993e-14)
(0.217464 -0.239254 1.58655e-14)
(0.18358 -0.179523 -1.16888e-13)
(0.226715 -0.20126 -8.27663e-14)
(0.264921 -0.194799 -8.63321e-14)
(0.277163 -0.16489 9.82044e-14)
(0.264757 -0.138717 1.52886e-14)
(0.247855 -0.117632 -1.43251e-14)
(0.23138 -0.0956774 -8.07121e-14)
(0.211573 -0.0760409 -5.75609e-14)
(0.189361 -0.0612301 3.74982e-14)
(0.168777 -0.0496579 -2.12159e-14)
(0.150347 -0.0404295 -4.33159e-14)
(0.133535 -0.033462 -3.91235e-15)
(0.118509 -0.0284296 -3.9418e-14)
(0.105741 -0.0244855 -4.20754e-14)
(0.0949798 -0.0212984 -8.22551e-14)
(0.0858472 -0.0183858 -6.20323e-14)
(0.0776643 -0.0153815 -1.72818e-14)
(0.0700752 -0.0120341 3.7238e-15)
(0.0629432 -0.00909949 -9.54023e-16)
(0.0564739 -0.0071308 -9.81684e-15)
(0.0510593 -0.00518385 4.04074e-15)
(0.046391 -0.00284865 4.95853e-16)
(0.0421601 -0.000553871 -1.56473e-16)
(0.0387482 0.00146075 -1.0209e-16)
(0.0359862 0.00238364 -7.438e-16)
(0.0335526 0.00289808 -1.28479e-15)
(0.0313642 0.00328474 -1.74786e-15)
(0.0296382 0.00363258 9.13332e-16)
(0.0297155 0.00404442 -5.2199e-16)
(0.0303963 0.00442605 1.42484e-14)
(0.029045 0.00469498 8.5983e-15)
(0.0260688 0.00609738 -1.02202e-13)
(-0.0616541 -1.378 8.13075e-15)
(-0.175254 -1.36457 -2.54391e-15)
(-0.272673 -1.18127 5.95342e-16)
(-0.404376 -1.1916 -7.30017e-15)
(-0.493095 -1.13244 4.99169e-16)
(-0.571212 -1.04637 3.37865e-14)
(-0.648316 -0.964669 5.6272e-14)
(-0.695578 -0.867054 5.30164e-14)
(-0.72116 -0.760496 -1.29639e-13)
(-0.733724 -0.657756 -1.08879e-13)
(-0.725946 -0.556083 1.37799e-13)
(-0.703893 -0.460216 2.51179e-13)
(-0.666026 -0.38307 1.33747e-13)
(-0.619569 -0.325345 -4.63944e-13)
(-0.58351 -0.268041 -1.59989e-13)
(-0.50192 -0.259288 3.79916e-13)
(-0.44592 -0.239119 8.38299e-14)
(-0.390827 -0.227578 -1.2336e-13)
(-0.344601 -0.225658 -2.26936e-13)
(-0.320662 -0.235947 1.9712e-13)
(-0.352111 -0.260115 4.35371e-14)
(-0.481349 -0.280469 -2.22364e-13)
(-0.681935 -0.255583 1.6492e-13)
(-0.800003 -0.162345 -1.12183e-13)
(-0.743143 -0.0556709 -3.74116e-14)
(-0.607189 0.00116999 3.53974e-14)
(-0.518761 0.0216078 -4.50883e-14)
(-0.396639 0.00509488 9.92189e-15)
(-0.362439 0.00993311 1.37595e-14)
(-0.250575 0.0167686 2.1145e-14)
(-0.111038 0.0136454 -1.01299e-14)
(0.0428955 0.00387629 2.52126e-14)
(0.147095 -0.00563209 2.08793e-13)
(0.169508 -0.0117765 6.00538e-14)
(0.134876 -0.0157887 -8.14405e-14)
(0.114423 -0.0196166 -1.1692e-13)
(0.107 -0.0228919 1.86488e-14)
(0.104124 -0.0226129 -3.03181e-14)
(0.153908 -0.0324918 4.76503e-14)
(0.0372571 -1.30877 1.91856e-14)
(0.124643 -1.13822 -3.74105e-14)
(0.197087 -0.912795 -4.60565e-15)
(0.243826 -0.751835 -3.31223e-14)
(0.262414 -0.583619 -1.84032e-14)
(0.249243 -0.411429 7.33024e-14)
(0.212731 -0.269931 -1.84531e-13)
(0.206883 -0.230543 1.6812e-13)
(0.250616 -0.236607 1.79576e-15)
(0.273682 -0.214321 -1.19652e-13)
(0.281192 -0.180029 -7.15767e-14)
(0.273172 -0.14775 -1.99069e-14)
(0.257647 -0.119763 5.79489e-14)
(0.240401 -0.0944597 1.28884e-13)
(0.221072 -0.0724958 2.1231e-14)
(0.199621 -0.055078 -4.68575e-14)
(0.179067 -0.0418482 2.18643e-14)
(0.160257 -0.0317526 4.92427e-14)
(0.143023 -0.0243037 -3.64322e-15)
(0.127382 -0.0190406 -7.62688e-15)
(0.113833 -0.01525 -2.10301e-14)
(0.102182 -0.0124233 5.15408e-14)
(0.0920196 -0.0100573 3.00783e-14)
(0.0827436 -0.00772677 -1.0541e-14)
(0.074205 -0.00511444 -1.61578e-14)
(0.0664211 -0.00270927 -6.71001e-15)
(0.0593937 -0.000914969 1.18185e-14)
(0.0533088 0.000741146 -8.23565e-16)
(0.0479071 0.00212419 -4.46151e-16)
(0.0430051 0.00289068 1.61936e-16)
(0.0387635 0.00302529 -1.30156e-16)
(0.0355692 0.00308769 -8.38543e-17)
(0.032824 0.00329128 4.6483e-16)
(0.0300903 0.00277867 9.7946e-16)
(0.0289962 0.00585092 -2.0864e-15)
(0.0283105 0.00700096 7.6113e-15)
(0.0260941 0.00271094 -1.29046e-14)
(0.0260687 0.00423273 -2.86098e-14)
(0.0261028 0.00675967 -5.24659e-16)
(-0.00932327 -1.14777 -4.09904e-15)
(-0.0908863 -1.13514 5.16875e-15)
(-0.165089 -0.995143 -4.40857e-16)
(-0.264907 -1.01859 -3.33919e-15)
(-0.330046 -0.98052 -2.61241e-14)
(-0.388356 -0.920752 3.28972e-14)
(-0.449352 -0.871447 1.10439e-14)
(-0.486244 -0.804539 -6.68467e-14)
(-0.509477 -0.728589 -5.66113e-14)
(-0.522421 -0.654506 -1.18225e-13)
(-0.518712 -0.578467 1.73372e-14)
(-0.50405 -0.505159 -1.30008e-13)
(-0.479395 -0.438361 7.93643e-15)
(-0.450529 -0.376595 3.47644e-13)
(-0.417233 -0.322539 -2.29837e-13)
(-0.391992 -0.258971 -1.6541e-13)
(-0.377812 -0.202718 9.99609e-14)
(-0.362238 -0.165538 -1.30001e-13)
(-0.345383 -0.140823 8.4368e-14)
(-0.329832 -0.126883 -1.43685e-13)
(-0.321259 -0.121878 -1.59515e-13)
(-0.331683 -0.11686 1.81193e-13)
(-0.374124 -0.0925827 -4.01432e-14)
(-0.423854 -0.0416799 8.87089e-14)
(-0.425242 0.00921406 5.61238e-14)
(-0.377699 0.032396 6.08652e-15)
(-0.305142 0.0246456 1.07388e-13)
(-0.342743 0.0249765 -2.0863e-14)
(-0.320533 0.0205786 2.23086e-14)
(-0.330746 0.0239606 -5.49191e-14)
(-0.321666 0.0242195 -1.54146e-13)
(-0.283719 0.0243749 -8.42233e-17)
(-0.167333 0.0151878 1.39549e-13)
(-0.0803513 0.0135046 -3.16629e-14)
(0.0593919 -0.00419504 -1.08216e-13)
(0.116488 -0.0152532 1.20561e-13)
(0.108862 -0.0232202 -4.23549e-14)
(0.108376 -0.0260802 -1.79289e-14)
(0.156406 -0.0340031 -3.86208e-16)
(0.0625324 -1.09001 2.05815e-14)
(0.121486 -0.958179 1.47438e-14)
(0.171106 -0.777189 -3.20348e-14)
(0.207199 -0.652111 7.91021e-14)
(0.224162 -0.518784 1.86592e-13)
(0.218716 -0.381327 -6.36114e-14)
(0.207674 -0.289398 -7.35528e-14)
(0.219512 -0.261913 1.43812e-13)
(0.255202 -0.251728 1.29486e-13)
(0.273517 -0.224412 3.3894e-14)
(0.278566 -0.191634 -5.07573e-14)
(0.272197 -0.160105 5.83057e-14)
(0.257817 -0.131976 4.57995e-14)
(0.240587 -0.107215 -3.37567e-15)
(0.221789 -0.0858707 -9.32048e-14)
(0.201058 -0.0682854 3.62227e-15)
(0.180887 -0.054555 3.62253e-15)
(0.162033 -0.0437441 1.99994e-16)
(0.144764 -0.0353009 1.49557e-14)
(0.128973 -0.0288667 -5.47434e-15)
(0.115129 -0.0239575 1.20658e-14)
(0.103104 -0.0200564 -2.6138e-14)
(0.0924937 -0.0166754 -1.49142e-14)
(0.0827268 -0.0134418 1.49656e-14)
(0.0738072 -0.0102227 2.01169e-14)
(0.0658185 -0.007366 1.1482e-15)
(0.0586573 -0.00516835 -1.12084e-15)
(0.0524459 -0.00333645 -3.00988e-15)
(0.046963 -0.00179808 5.82602e-16)
(0.0419838 -0.000632443 -6.89269e-17)
(0.0374823 0.000283965 -2.72021e-16)
(0.0340097 0.00126976 1.96309e-17)
(0.0311105 0.00193591 -7.58761e-16)
(0.0286515 0.00358038 -9.44739e-16)
(0.026271 -8.16714e-05 -7.99415e-16)
(0.0247545 -0.000649288 -6.23804e-16)
(0.0239325 0.00609209 9.9483e-15)
(0.0235761 0.00420594 -1.09902e-14)
(0.0243959 0.00617659 5.85546e-15)
(-0.0395063 -0.95796 1.8999e-15)
(-0.111236 -0.946343 6.28061e-16)
(-0.171038 -0.836809 3.27611e-15)
(-0.25865 -0.858251 -2.2961e-15)
(-0.31585 -0.827718 -1.13333e-15)
(-0.36801 -0.778154 1.47335e-14)
(-0.424778 -0.737304 7.27604e-15)
(-0.461069 -0.680527 3.90834e-14)
(-0.486684 -0.615673 6.53989e-14)
(-0.504231 -0.55094 -3.10941e-14)
(-0.506298 -0.483268 -7.79715e-15)
(-0.498369 -0.416614 7.36182e-14)
(-0.481921 -0.354647 -1.42204e-13)
(-0.457409 -0.298711 -2.83418e-13)
(-0.428953 -0.249038 1.71978e-13)
(-0.400403 -0.202555 2.64133e-13)
(-0.361369 -0.185418 -3.50332e-13)
(-0.336976 -0.174305 5.96486e-14)
(-0.315049 -0.170735 1.11064e-13)
(-0.299217 -0.171451 -1.11002e-13)
(-0.295014 -0.173532 8.40536e-14)
(-0.302543 -0.165034 -8.55909e-14)
(-0.313796 -0.128798 -1.68519e-13)
(-0.311056 -0.0657586 -4.96316e-14)
(-0.281435 -0.00812561 -1.15005e-13)
(-0.23583 0.0197611 5.55501e-14)
(-0.200278 0.0217279 -1.59932e-14)
(-0.181878 0.0144723 -1.07949e-14)
(-0.179345 0.0129588 2.11235e-14)
(-0.184976 0.0152772 4.18918e-14)
(-0.196449 0.016902 3.26244e-14)
(-0.217082 0.0218658 -4.46981e-14)
(-0.251451 0.020632 -1.1561e-13)
(-0.243818 0.0208628 -1.47475e-13)
(-0.203142 0.028377 3.18271e-14)
(-0.0705413 0.0066136 7.61099e-14)
(0.0520493 -0.0135377 8.82395e-14)
(0.10369 -0.0252384 4.19003e-14)
(0.155959 -0.0346513 3.05051e-14)
(0.0261557 -0.911643 8.77333e-15)
(0.0820642 -0.810973 -2.1108e-14)
(0.131085 -0.667854 1.06636e-14)
(0.167425 -0.569245 -7.25242e-15)
(0.186967 -0.46129 5.93992e-15)
(0.189597 -0.349631 -7.98086e-14)
(0.194478 -0.290855 -2.96574e-14)
(0.219594 -0.274454 -3.23892e-14)
(0.249265 -0.257441 2.80262e-14)
(0.265052 -0.22877 1.35034e-13)
(0.269824 -0.196978 -2.99491e-14)
(0.265437 -0.166015 -5.89602e-14)
(0.253484 -0.137346 3.22597e-15)
(0.238059 -0.111888 -5.12813e-14)
(0.22086 -0.0897985 1.65376e-14)
(0.201751 -0.0710006 2.52572e-14)
(0.18272 -0.0557502 3.91375e-14)
(0.164558 -0.0434896 1.48073e-14)
(0.147698 -0.0337578 -1.75159e-14)
(0.132121 -0.0262446 2.22253e-14)
(0.118206 -0.0205382 2.46606e-14)
(0.105888 -0.0161182 1.78499e-14)
(0.0948212 -0.0125113 3.66697e-15)
(0.0845254 -0.00934645 -1.39827e-14)
(0.0751086 -0.00640513 1.13738e-14)
(0.066777 -0.00384123 3.20006e-15)
(0.0593475 -0.00188316 -1.08032e-14)
(0.0528834 -0.000284048 1.15222e-15)
(0.047199 0.00107824 -7.6804e-17)
(0.0420673 0.00210296 1.55116e-16)
(0.0374698 0.0028544 3.91741e-16)
(0.0338037 0.00329477 -7.1749e-17)
(0.0309672 0.00358397 2.97029e-16)
(0.0285469 0.00332483 5.91488e-16)
(0.025973 0.00476348 1.09861e-15)
(0.0243101 0.00490438 -1.10281e-14)
(0.024011 0.00335331 3.50019e-15)
(0.0227813 0.00434552 4.27154e-14)
(0.0229922 0.00693186 3.06247e-14)
(-0.0344574 -0.81383 3.14663e-15)
(-0.0921245 -0.805828 6.34971e-16)
(-0.140763 -0.720897 -1.42812e-15)
(-0.213346 -0.743428 3.63657e-15)
(-0.258137 -0.72065 -7.53048e-15)
(-0.302736 -0.684132 -3.39374e-16)
(-0.351711 -0.656395 2.24626e-14)
(-0.383259 -0.611719 -1.06399e-14)
(-0.406269 -0.560119 -3.78984e-14)
(-0.423023 -0.509137 2.61685e-14)
(-0.426486 -0.454643 -5.96954e-14)
(-0.421586 -0.400585 -1.47584e-13)
(-0.409176 -0.350025 1.03943e-13)
(-0.388954 -0.303216 3.69835e-13)
(-0.365316 -0.26081 -1.45052e-14)
(-0.338332 -0.224839 -3.94596e-13)
(-0.31256 -0.189422 3.26943e-13)
(-0.299534 -0.162607 2.30083e-13)
(-0.29032 -0.145618 1.23649e-13)
(-0.284832 -0.135457 5.83208e-14)
(-0.287579 -0.130424 -2.88718e-14)
(-0.299311 -0.122418 1.61096e-13)
(-0.312673 -0.0979281 1.1177e-13)
(-0.307728 -0.0525599 -1.03236e-14)
(-0.27225 -0.00633136 2.12048e-13)
(-0.220597 0.018784 -6.49096e-14)
(-0.175747 0.0213459 -7.5456e-15)
(-0.14945 0.0155108 5.61516e-15)
(-0.134786 0.0135934 -1.98837e-14)
(-0.123996 0.0146231 -2.05093e-14)
(-0.116837 0.0143331 -1.51419e-14)
(-0.119269 0.0141437 4.73639e-14)
(-0.149216 0.0202272 -2.26186e-14)
(-0.14651 0.010966 -1.26666e-13)
(-0.190194 0.0198556 -2.04507e-14)
(-0.219443 0.0282763 -1.03985e-13)
(-0.117753 0.0104249 -6.08874e-14)
(0.0115128 -0.0122646 6.68384e-15)
(0.134303 -0.0306809 -2.71532e-14)
(0.0198309 -0.775223 -9.76692e-15)
(0.0664073 -0.69534 1.2244e-14)
(0.108143 -0.579212 -2.5992e-14)
(0.140957 -0.498811 -4.0244e-15)
(0.160338 -0.409568 7.00212e-15)
(0.16578 -0.318823 1.23594e-14)
(0.178594 -0.277908 7.91984e-14)
(0.211252 -0.273507 -1.01827e-13)
(0.237108 -0.254319 -3.32306e-14)
(0.252052 -0.226659 -3.0353e-14)
(0.257698 -0.197221 1.16625e-13)
(0.255039 -0.168288 -4.56264e-14)
(0.245364 -0.140942 -5.42552e-15)
(0.232071 -0.116438 1.81127e-14)
(0.216639 -0.0950205 1.77481e-14)
(0.199137 -0.0764255 1.22807e-14)
(0.181433 -0.0610185 -7.57616e-14)
(0.164152 -0.048469 -2.78959e-14)
(0.147828 -0.0383797 3.53301e-14)
(0.132577 -0.0304065 1.51099e-15)
(0.118775 -0.0242138 3.57257e-14)
(0.106339 -0.0193237 -1.00514e-14)
(0.0950299 -0.0152995 1.41055e-15)
(0.0844492 -0.0118064 2.36363e-14)
(0.0748083 -0.00869594 -1.96882e-14)
(0.0663414 -0.00605042 -6.74099e-15)
(0.0588235 -0.00398171 6.24187e-15)
(0.0522698 -0.00230219 2.04616e-15)
(0.0465234 -0.000884772 -1.09571e-17)
(0.0413659 0.000207532 -1.96492e-16)
(0.0367573 0.000950261 4.43422e-16)
(0.0329505 0.00151572 1.05767e-16)
(0.0301976 0.00194616 -6.35183e-16)
(0.0277209 0.00228974 9.87015e-17)
(0.0256973 0.0025853 -2.72678e-15)
(0.0243398 0.0030396 6.84991e-15)
(0.0233636 0.00352294 -1.74442e-15)
(0.0224004 0.00369971 -1.77111e-15)
(0.0232042 0.00542645 -4.20521e-14)
(-0.0382924 -0.69585 1.45115e-15)
(-0.0887439 -0.692681 1.66543e-15)
(-0.129 -0.62496 -8.19472e-16)
(-0.19213 -0.644634 -2.08583e-15)
(-0.237341 -0.626874 -3.34289e-15)
(-0.269583 -0.595915 1.52286e-14)
(-0.311318 -0.573402 1.27774e-14)
(-0.34196 -0.536812 -5.00371e-14)
(-0.365383 -0.493565 2.11981e-14)
(-0.38382 -0.449731 1.07997e-13)
(-0.389944 -0.401691 4.54091e-14)
(-0.388905 -0.353509 2.1606e-14)
(-0.381127 -0.307686 -1.84395e-13)
(-0.365781 -0.264433 -4.21836e-13)
(-0.346078 -0.225202 -2.98493e-13)
(-0.323117 -0.190411 1.17891e-13)
(-0.299021 -0.159099 -7.24969e-14)
(-0.280035 -0.14274 -3.72116e-13)
(-0.270223 -0.134711 -1.93502e-13)
(-0.264106 -0.130965 1.59078e-13)
(-0.265317 -0.127602 1.59802e-13)
(-0.274432 -0.118686 -9.38379e-14)
(-0.287252 -0.0955878 -3.77511e-14)
(-0.288406 -0.0559373 1.61976e-15)
(-0.263862 -0.0144996 -6.03643e-14)
(-0.221763 0.0105611 6.25642e-14)
(-0.18198 0.0164107 7.13061e-15)
(-0.155099 0.0136353 4.26642e-15)
(-0.137867 0.0128401 -4.39166e-15)
(-0.122767 0.013769 5.16156e-14)
(-0.108133 0.0130754 3.45346e-14)
(-0.0958151 0.0119225 -3.33806e-15)
(-0.0865332 0.0104782 1.12197e-13)
(-0.0881817 0.00995672 7.75099e-14)
(-0.0862861 0.00282309 -4.05204e-14)
(-0.132093 0.0112333 7.10143e-14)
(-0.197207 0.0208253 5.92468e-14)
(-0.138356 0.00621884 -3.6336e-14)
(0.0492145 -0.015977 -3.00503e-14)
(0.00935865 -0.663694 7.47063e-15)
(0.0507097 -0.59951 -1.2102e-14)
(0.0883052 -0.504669 2.96037e-15)
(0.118795 -0.43865 6.19676e-14)
(0.1379 -0.364591 3.51085e-15)
(0.149049 -0.301864 1.01132e-13)
(0.169496 -0.276381 1.36538e-13)
(0.200697 -0.263571 -5.11437e-14)
(0.222007 -0.245397 -7.24661e-14)
(0.236083 -0.220211 -5.48947e-14)
(0.242928 -0.193598 -1.01063e-13)
(0.242224 -0.167159 -5.04627e-15)
(0.234822 -0.141616 -4.25162e-14)
(0.223837 -0.118366 5.78184e-14)
(0.210418 -0.0976956 1.92843e-14)
(0.194785 -0.0793423 -3.05169e-14)
(0.178688 -0.0637472 -3.5872e-15)
(0.162598 -0.0507351 -2.50846e-14)
(0.147111 -0.0400387 2.82369e-15)
(0.132427 -0.031375 -1.73805e-14)
(0.118943 -0.0244981 -3.28458e-14)
(0.106594 -0.0190161 1.4518e-14)
(0.0952036 -0.0145527 -2.7027e-14)
(0.0844554 -0.0108022 -9.84608e-15)
(0.0746807 -0.00760739 6.05972e-15)
(0.0661047 -0.00496382 3.79989e-15)
(0.058495 -0.00289218 1.47765e-15)
(0.0518465 -0.00123544 -9.74935e-16)
(0.0460202 0.000147921 -4.02258e-16)
(0.0408177 0.00121976 -7.96992e-17)
(0.0361817 0.00197857 -7.36047e-16)
(0.032203 0.00248675 3.24768e-16)
(0.0295104 0.00291181 2.10749e-15)
(0.0271171 0.00314966 -6.67553e-18)
(0.0251594 0.00335226 2.22759e-15)
(0.0238058 0.00355032 -3.37431e-15)
(0.0229779 0.00386122 -5.87518e-15)
(0.022022 0.00397486 3.50043e-15)
(0.0233529 0.00527594 -2.24256e-14)
(-0.0370677 -0.599958 2.47088e-15)
(-0.0818605 -0.618796 4.21107e-15)
(-0.114926 -0.547433 -1.54032e-16)
(-0.168424 -0.563489 -6.28342e-16)
(-0.214076 -0.559211 -2.89584e-15)
(-0.242902 -0.524169 -5.96186e-15)
(-0.28201 -0.506843 -4.43303e-15)
(-0.298818 -0.477325 -5.02897e-14)
(-0.31689 -0.442004 -8.61041e-16)
(-0.335056 -0.40751 1.8329e-14)
(-0.342724 -0.367742 -2.26609e-14)
(-0.343879 -0.327093 1.38156e-13)
(-0.339313 -0.287973 1.45793e-13)
(-0.327753 -0.250457 2.70185e-14)
(-0.311694 -0.216251 2.72178e-13)
(-0.292145 -0.185931 -5.67323e-14)
(-0.27031 -0.160521 -6.00352e-16)
(-0.252037 -0.138883 2.11929e-13)
(-0.246382 -0.127325 9.91801e-14)
(-0.243666 -0.119504 -2.96072e-14)
(-0.246249 -0.112206 -1.20727e-13)
(-0.253734 -0.101742 -1.0916e-14)
(-0.263005 -0.0818686 -9.27309e-14)
(-0.263734 -0.0499702 -7.98597e-14)
(-0.244997 -0.0156809 4.82373e-14)
(-0.21147 0.00682629 -3.06639e-14)
(-0.17834 0.0138247 -5.58091e-14)
(-0.155003 0.0128127 6.37285e-15)
(-0.139872 0.0124719 -3.0806e-15)
(-0.126926 0.0133815 -3.75605e-15)
(-0.11413 0.0129592 8.12753e-14)
(-0.102013 0.0119825 -2.91662e-14)
(-0.090621 0.0112034 -3.87097e-14)
(-0.0795813 0.00939016 2.2551e-13)
(-0.0727549 0.00736541 3.70039e-14)
(-0.0712397 0.00143022 -8.27521e-14)
(-0.128528 0.00975743 -1.60971e-14)
(-0.205923 0.011924 2.63813e-14)
(-0.069611 0.00508999 -4.83426e-15)
(0.00412149 -0.572643 -1.33259e-14)
(0.040223 -0.520161 -3.15496e-14)
(0.0735681 -0.441966 5.12472e-14)
(0.10105 -0.387073 9.82889e-14)
(0.118982 -0.324952 6.4541e-14)
(0.134234 -0.281579 -1.66106e-13)
(0.154975 -0.265197 -1.1235e-13)
(0.186729 -0.255312 -3.86249e-14)
(0.207664 -0.23349 6.90103e-14)
(0.219165 -0.210419 7.20968e-14)
(0.226701 -0.186887 2.64214e-14)
(0.227867 -0.163302 2.33012e-14)
(0.22273 -0.140067 -2.63271e-14)
(0.214031 -0.118597 -8.68748e-14)
(0.202593 -0.0991471 1.30988e-14)
(0.188842 -0.0815633 2.67558e-14)
(0.174409 -0.0663101 1.82437e-14)
(0.159568 -0.0532908 5.05092e-14)
(0.14505 -0.0423986 -2.80805e-14)
(0.131061 -0.0334232 -2.09925e-14)
(0.118009 -0.0261763 -1.49297e-14)
(0.105858 -0.0203317 -3.1633e-15)
(0.0945117 -0.0155581 2.4105e-14)
(0.0837417 -0.011579 1.60194e-14)
(0.0739571 -0.00827111 1.85468e-14)
(0.0653773 -0.0055934 6.24073e-15)
(0.0577609 -0.00350232 -1.31167e-18)
(0.05109 -0.00184868 2.10227e-15)
(0.0452463 -0.000485533 -2.96627e-16)
(0.0400472 0.000585196 2.62547e-16)
(0.0354268 0.00133819 -3.30837e-16)
(0.031378 0.0018437 9.30877e-18)
(0.0287169 0.00224912 -1.28543e-15)
(0.0264147 0.00248986 5.12101e-16)
(0.0245476 0.00270666 3.73513e-15)
(0.0232758 0.00296065 -8.96908e-16)
(0.0225899 0.00337468 8.53262e-16)
(0.0215681 0.00369808 -7.93705e-15)
(0.022734 0.00542691 7.90894e-15)
(-0.0362208 -0.520197 -3.01795e-15)
(-0.0753958 -0.536511 1.54764e-16)
(-0.105215 -0.495283 -1.90664e-15)
(-0.149959 -0.492285 -1.51376e-15)
(-0.180871 -0.47753 8.12365e-15)
(-0.224693 -0.473869 -3.01703e-15)
(-0.258112 -0.451845 2.78452e-14)
(-0.276406 -0.422557 1.92733e-14)
(-0.294639 -0.39305 5.22254e-15)
(-0.299827 -0.364934 -1.63107e-15)
(-0.306617 -0.331529 7.29066e-15)
(-0.309651 -0.296454 -3.10379e-14)
(-0.307871 -0.261965 -1.34078e-13)
(-0.299992 -0.228123 3.57581e-14)
(-0.288083 -0.196723 1.84058e-14)
(-0.272128 -0.168583 5.15975e-14)
(-0.25365 -0.144048 -5.18126e-16)
(-0.234715 -0.123829 -9.26567e-14)
(-0.22879 -0.11297 -1.37413e-13)
(-0.226527 -0.106878 -1.18101e-13)
(-0.228477 -0.100775 -6.90306e-14)
(-0.23417 -0.0912593 -5.57835e-14)
(-0.24085 -0.0738429 1.91505e-14)
(-0.240835 -0.0468164 6.64325e-14)
(-0.225378 -0.0172474 -3.57132e-14)
(-0.197587 0.00359804 -1.35781e-14)
(-0.169201 0.0116658 4.39409e-14)
(-0.148323 0.0121902 2.07935e-15)
(-0.134614 0.0123489 2.42675e-14)
(-0.123514 0.0133314 -3.02554e-14)
(-0.113202 0.0131845 -1.00061e-13)
(-0.103942 0.012342 -5.46782e-14)
(-0.0952484 0.0114724 3.46044e-14)
(-0.0867293 0.0101561 -1.5039e-14)
(-0.0774761 0.00836238 2.03675e-14)
(-0.0666915 0.00573356 3.05185e-14)
(-0.0660032 0.00312923 5.48678e-15)
(-0.166825 0.00511156 -1.67098e-14)
(-0.139958 0.019476 4.48174e-14)
(-0.000251781 -0.496612 -2.43502e-14)
(0.0316862 -0.453302 1.52927e-14)
(0.0613962 -0.388428 4.4354e-14)
(0.0861959 -0.34244 1.3463e-14)
(0.103153 -0.289965 1.04471e-13)
(0.120417 -0.260282 1.91625e-14)
(0.146301 -0.250825 -4.81929e-15)
(0.167163 -0.240565 -9.33403e-14)
(0.190892 -0.22393 -3.79926e-14)
(0.203256 -0.199968 5.72458e-14)
(0.210436 -0.178456 6.41719e-14)
(0.212836 -0.157494 1.04693e-13)
(0.209667 -0.136613 9.92472e-14)
(0.203141 -0.117094 -2.07854e-14)
(0.193734 -0.0991169 -8.16808e-15)
(0.181798 -0.0825155 1.58486e-14)
(0.169009 -0.0678269 3.43162e-15)
(0.155513 -0.0549903 1.09143e-14)
(0.142044 -0.0440164 3.05163e-14)
(0.128861 -0.0347878 -8.37e-17)
(0.116373 -0.02719 -1.25072e-14)
(0.104563 -0.0209665 -5.75014e-15)
(0.0934028 -0.0158503 2.71104e-15)
(0.0827324 -0.0116103 1.16107e-15)
(0.0730489 -0.00814599 -3.80961e-15)
(0.0645354 -0.00538956 -8.62028e-15)
(0.0569575 -0.00325059 5.66343e-16)
(0.0502931 -0.00157878 -1.34511e-15)
(0.0444483 -0.000217942 4.30502e-16)
(0.0392628 0.000858181 6.80058e-17)
(0.034664 0.00162507 1.90616e-16)
(0.0306175 0.00214889 1.50355e-15)
(0.0279099 0.00255637 2.14687e-15)
(0.0256814 0.00279238 -1.58068e-15)
(0.0238902 0.00296543 -5.51457e-15)
(0.0226817 0.00316095 -2.45869e-16)
(0.0221173 0.00351445 -2.21541e-14)
(0.0210348 0.00376213 1.02652e-15)
(0.0224349 0.00521484 1.63965e-14)
(-0.0344408 -0.453101 -6.07416e-15)
(-0.0686613 -0.467629 -2.60276e-15)
(-0.0946788 -0.432187 7.4845e-16)
(-0.133343 -0.431433 -6.25349e-16)
(-0.160523 -0.419497 4.68086e-15)
(-0.186594 -0.401223 5.95945e-15)
(-0.216604 -0.390708 -3.06842e-15)
(-0.26168 -0.386935 -2.41725e-14)
(-0.269456 -0.353986 -4.90135e-14)
(-0.28536 -0.329121 2.78267e-14)
(-0.278019 -0.300933 2.43676e-14)
(-0.27879 -0.271212 1.48016e-14)
(-0.277468 -0.241555 6.11285e-14)
(-0.271576 -0.211873 3.78682e-15)
(-0.262658 -0.18383 3.28971e-14)
(-0.250091 -0.158211 -5.00429e-14)
(-0.234646 -0.135783 -5.41123e-14)
(-0.217883 -0.116907 6.32081e-14)
(-0.210358 -0.104338 1.25341e-13)
(-0.209296 -0.0971586 6.37415e-14)
(-0.211294 -0.0904217 4.53322e-14)
(-0.21597 -0.0808239 3.30473e-14)
(-0.220949 -0.0653832 6.23177e-14)
(-0.220558 -0.042767 -3.55848e-14)
(-0.207741 -0.0177287 -5.61502e-14)
(-0.184451 0.00108378 3.49675e-15)
(-0.159807 0.00967396 -1.95918e-14)
(-0.140669 0.0114097 -6.67897e-15)
(-0.127526 0.012054 -4.14155e-14)
(-0.11708 0.0130674 2.21351e-14)
(-0.107772 0.0130621 5.62527e-14)
(-0.0999082 0.0122991 1.24234e-13)
(-0.0933615 0.0114644 1.21839e-14)
(-0.0877229 0.0103536 -1.15016e-13)
(-0.0815966 0.00867735 2.12383e-15)
(-0.0773557 0.00661093 -2.02768e-14)
(-0.0574488 0.00336557 2.06785e-14)
(-0.108419 -0.00146087 1.5058e-14)
(-0.144671 0.0225081 8.09774e-15)
(-0.00302969 -0.432801 9.7768e-15)
(0.0250887 -0.396721 2.41041e-14)
(0.051572 -0.342527 -3.83635e-14)
(0.0738642 -0.303461 -2.8929e-14)
(0.0898421 -0.258477 -1.91701e-14)
(0.107235 -0.238271 1.05726e-14)
(0.136306 -0.236687 7.51128e-14)
(0.158877 -0.224672 -9.2106e-14)
(0.169462 -0.209701 8.44697e-17)
(0.186249 -0.190005 2.43808e-14)
(0.194377 -0.169924 -1.07406e-13)
(0.197775 -0.150905 -1.61921e-13)
(0.196262 -0.132061 2.18561e-14)
(0.191709 -0.114383 2.43343e-14)
(0.184186 -0.0979203 -1.69709e-14)
(0.173995 -0.0824862 -1.62863e-14)
(0.162753 -0.0685853 -3.71856e-14)
(0.150592 -0.056188 3.33865e-14)
(0.138216 -0.0453761 2.90681e-14)
(0.125888 -0.036096 9.00906e-15)
(0.114039 -0.0283134 3.01758e-14)
(0.102677 -0.0218457 2.81008e-14)
(0.0917846 -0.0164856 1.12637e-15)
(0.0813356 -0.012046 -4.15464e-14)
(0.0718462 -0.00845217 -8.83582e-15)
(0.0634767 -0.0056282 -2.35922e-15)
(0.0559934 -0.00345215 -7.35084e-15)