/*--------------------------------*- C++ -*----------------------------------*\
| =========                 |                                                 |
| \\      /  F ield         | OpenFOAM: The Open Source CFD Toolbox           |
|  \\    /   O peration     | Version:  2306                                  |
|   \\  /    A nd           | Website:  www.openfoam.com                      |
|    \\/     M anipulation  |                                                 |
\*---------------------------------------------------------------------------*/
FoamFile
{
    version     2.0;
    format      ascii;
    arch        "LSB;label=32;scalar=64";
    class       volScalarField;
    location    "175";
    object      nuTilda;
}
// * * * * * * * * * * * * * * * * * * * * * * * * * * * * * * * * * * * * * //

dimensions      [0 2 -1 0 0 0 0];

internalField   nonuniform List<scalar> 
10720
(
6.21773e-05
6.53282e-05
6.93563e-05
7.43619e-05
8.06082e-05
8.85093e-05
9.87149e-05
0.000111766
0.000128887
0.000151511
0.000181817
0.000223288
0.000280237
0.000360371
0.000476421
0.00065061
0.000921971
0.0013647
0.00213127
0.00352458
0.00640921
0.0125039
0.0295915
0.072324
0.0958728
0.0988591
0.0992174
0.101756
0.104811
0.106444
0.106253
0.104707
0.102095
0.0985063
0.0938056
0.0878826
0.079561
0.0697924
0.0446002
5.93216e-05
5.67219e-05
5.40086e-05
5.1339e-05
4.86102e-05
4.58315e-05
4.30961e-05
4.09246e-05
4.33104e-05
4.7449e-05
5.32341e-05
6.10849e-05
7.17462e-05
8.65139e-05
0.000107229
0.000136937
0.000180509
0.000246187
0.000348495
0.000512669
0.000789878
0.00126831
0.00216911
0.00385724
0.00753624
0.0150993
0.0334907
0.0676738
0.0944522
0.105683
0.108975
0.109888
0.109969
0.109459
0.108445
0.107039
0.104882
0.102435
0.0930432
3.81145e-05
3.78971e-05
3.76979e-05
3.75298e-05
3.73346e-05
3.7152e-05
3.70132e-05
3.68882e-05
3.683e-05
3.68561e-05
3.69306e-05
3.73647e-05
3.91765e-05
4.33655e-05
5.20835e-05
6.88916e-05
0.000101526
0.00016418
0.000290942
0.00055571
0.00115086
0.00262731
0.00601985
0.0174696
0.0347116
0.0562393
0.0827267
0.111944
0.137388
0.153196
0.159658
0.160784
0.159426
0.156415
0.152283
0.147133
0.142161
0.134303
0.137274
3.82858e-05
3.85157e-05
3.87107e-05
3.89709e-05
3.92344e-05
3.95002e-05
3.97615e-05
3.99919e-05
3.98321e-05
3.95317e-05
3.91404e-05
3.86685e-05
3.81233e-05
3.75019e-05
3.67694e-05
3.59016e-05
3.48089e-05
3.34242e-05
3.15503e-05
2.89647e-05
2.51593e-05
1.97756e-05
1.1831e-05
4.79696e-06
9.5377e-06
0.000120992
0.000582019
0.00437812
0.0145607
0.0292999
0.0443286
0.0556129
0.0623168
0.0660528
0.0684175
0.0703885
0.0721014
0.0756676
0.0789963
4.03181e-05
4.03495e-05
4.03824e-05
4.04176e-05
4.04604e-05
4.05078e-05
4.05615e-05
4.06238e-05
4.06967e-05
4.07813e-05
4.08812e-05
4.10017e-05
4.11397e-05
4.13512e-05
4.14554e-05
4.09189e-05
3.76864e-05
3.4042e-05
7.30095e-06
3.55532e-05
3.91081e-05
6.6769e-05
2.96445e-05
0.000246807
0.00189388
0.00536044
0.0117375
0.0241288
0.0459773
0.0777751
0.114237
0.146329
0.168315
0.181201
0.188457
0.191629
0.193198
0.188415
0.19734
4.02949e-05
4.02611e-05
4.02355e-05
4.01976e-05
4.01652e-05
4.01295e-05
4.00956e-05
4.00671e-05
4.00819e-05
4.01154e-05
4.01561e-05
4.02015e-05
4.02556e-05
4.03155e-05
4.03826e-05
4.04562e-05
4.05394e-05
4.0634e-05
4.07465e-05
4.08825e-05
4.10558e-05
4.12765e-05
4.15842e-05
4.19105e-05
4.23289e-05
4.18491e-05
4.19466e-05
3.10023e-05
0.000115898
0.000831635
0.00312742
0.00774333
0.0145462
0.0228046
0.0315733
0.0400343
0.0474283
0.0540633
0.0636386
4.00099e-05
4.00073e-05
4.00074e-05
4.00088e-05
4.00109e-05
4.00159e-05
4.0025e-05
4.00374e-05
4.00558e-05
4.00808e-05
4.01137e-05
4.01567e-05
4.02124e-05
4.02828e-05
4.0375e-05
4.04914e-05
4.02816e-05
3.98777e-05
3.65649e-05
3.20623e-05
3.23364e-06
1.91368e-05
6.90925e-06
5.06647e-05
0.000395717
0.00116736
0.000698878
0.000987406
0.00236791
0.0091238
0.0257867
0.0560029
0.0968259
0.137991
0.17079
0.193627
0.210612
0.219088
0.234827
4.00096e-05
4.00138e-05
4.00178e-05
4.00222e-05
4.00302e-05
4.00353e-05
4.00389e-05
4.00428e-05
4.00399e-05
4.00356e-05
4.00297e-05
4.00235e-05
4.00182e-05
4.00129e-05
4.00078e-05
4.00022e-05
3.99964e-05
3.99891e-05
3.99815e-05
3.99741e-05
3.99662e-05
3.99577e-05
3.99473e-05
3.9938e-05
3.99277e-05
3.99364e-05
3.99186e-05
4.00659e-05
3.97644e-05
4.02543e-05
3.66537e-05
3.5529e-05
0.000244004
0.00108771
0.00314708
0.0070827
0.0133533
0.0221539
0.0396165
4.00565e-05
4.00576e-05
4.00576e-05
4.00585e-05
4.00607e-05
4.00636e-05
4.00677e-05
4.00734e-05
4.0081e-05
4.00913e-05
4.01048e-05
4.01227e-05
4.01463e-05
4.01768e-05
4.02172e-05
4.02678e-05
4.03442e-05
4.03735e-05
4.04264e-05
4.00276e-05
3.58954e-05
3.05346e-05
4.87638e-06
6.06414e-06
1.80127e-07
0
0.000149618
0.000214559
0.000521688
0.00205303
0.000552074
0.00451896
0.0192701
0.0511006
0.0979043
0.146856
0.189199
0.221401
0.251469
4.00547e-05
4.00518e-05
4.00518e-05
4.00488e-05
4.00505e-05
4.00491e-05
4.00456e-05
4.00434e-05
4.00433e-05
4.00447e-05
4.00464e-05
4.00485e-05
4.0051e-05
4.00535e-05
4.00565e-05
4.00599e-05
4.00637e-05
4.0068e-05
4.0073e-05
4.00784e-05
4.00843e-05
4.00908e-05
4.0098e-05
4.0106e-05
4.01163e-05
4.01249e-05
4.01519e-05
4.01096e-05
4.03983e-05
3.92086e-05
4.47519e-05
1.98861e-05
6.52263e-05
2.44904e-08
0.000737693
0.00168791
0.000770097
0.00173011
0.0139013
4.00471e-05
4.00463e-05
4.00468e-05
4.00472e-05
4.00471e-05
4.00476e-05
4.00485e-05
4.00499e-05
4.00522e-05
4.00556e-05
4.00602e-05
4.00666e-05
4.00752e-05
4.00868e-05
4.01024e-05
4.01237e-05
4.01531e-05
4.01745e-05
4.02533e-05
4.03826e-05
4.07178e-05
4.07435e-05
3.81213e-05
2.9934e-05
9.13563e-07
6.23705e-06
4.42294e-06
1.00392e-06
0
0
0.000123876
0.00102555
0.00454504
0.00498328
0.0241411
0.0673392
0.128178
0.191107
0.245559
4.00455e-05
4.00444e-05
4.00447e-05
4.00425e-05
4.00446e-05
4.00447e-05
4.00424e-05
4.00418e-05
4.00424e-05
4.00434e-05
4.00447e-05
4.00459e-05
4.0047e-05
4.00477e-05
4.00486e-05
4.00495e-05
4.00505e-05
4.00517e-05
4.00529e-05
4.00542e-05
4.00555e-05
4.00567e-05
4.00577e-05
4.00586e-05
4.00587e-05
4.00595e-05
4.00607e-05
4.0064e-05
4.00653e-05
4.00756e-05
4.00656e-05
4.01566e-05
3.89568e-05
3.33427e-05
9.28217e-06
5.58848e-06
0.000182551
0.000453895
0.00246291
4.0047e-05
4.00459e-05
4.00459e-05
4.00455e-05
4.0045e-05
4.00448e-05
4.00448e-05
4.00453e-05
4.00461e-05
4.00474e-05
4.00493e-05
4.00518e-05
4.00552e-05
4.00598e-05
4.00661e-05
4.00749e-05
4.0087e-05
4.01e-05
4.01155e-05
4.01222e-05
4.0239e-05
4.04474e-05
4.14383e-05
4.15889e-05
3.78158e-05
3.11591e-05
2.18991e-05
4.89705e-06
6.63027e-06
3.55103e-06
0
0
0
0.00115864
0.000440442
0.0123452
0.0529332
0.13055
0.214219
4.00464e-05
4.00458e-05
4.0046e-05
4.00435e-05
4.00444e-05
4.00444e-05
4.00423e-05
4.0042e-05
4.00434e-05
4.00448e-05
4.0046e-05
4.00471e-05
4.0048e-05
4.00486e-05
4.00494e-05
4.00502e-05
4.00511e-05
4.00523e-05
4.00537e-05
4.00553e-05
4.00572e-05
4.00594e-05
4.00618e-05
4.00646e-05
4.00679e-05
4.0072e-05
4.00769e-05
4.0083e-05
4.00899e-05
4.01001e-05
4.01049e-05
4.01149e-05
4.02547e-05
3.95934e-05
3.83577e-05
2.50388e-05
7.79838e-06
0
0.000589618
4.00457e-05
4.00446e-05
4.00447e-05
4.00447e-05
4.00447e-05
4.00453e-05
4.0046e-05
4.00468e-05
4.00479e-05
4.0049e-05
4.00503e-05
4.00518e-05
4.00535e-05
4.00557e-05
4.00584e-05
4.00621e-05
4.00673e-05
4.00735e-05
4.00796e-05
4.00863e-05
4.00846e-05
4.00633e-05
4.02824e-05
4.08563e-05
4.17333e-05
4.15652e-05
4.0276e-05
3.65264e-05
3.11823e-05
1.69805e-05
7.92999e-06
3.80539e-06
0
0
0.000102614
3.08103e-05
0.00734367
0.061668
0.160087
4.00457e-05
4.00458e-05
4.00462e-05
4.00438e-05
4.00437e-05
4.00437e-05
4.0042e-05
4.00424e-05
4.00439e-05
4.00451e-05
4.00462e-05
4.00472e-05
4.00479e-05
4.00484e-05
4.00489e-05
4.00494e-05
4.005e-05
4.00507e-05
4.00516e-05
4.00526e-05
4.00538e-05
4.00551e-05
4.00565e-05
4.00581e-05
4.00598e-05
4.00617e-05
4.00639e-05
4.00663e-05
4.0069e-05
4.00717e-05
4.00751e-05
4.00741e-05
4.00992e-05
4.00711e-05
4.04253e-05
3.89957e-05
3.24795e-05
8.95927e-06
0
4.00455e-05
4.00443e-05
4.00444e-05
4.00446e-05
4.00447e-05
4.00453e-05
4.00461e-05
4.00467e-05
4.00474e-05
4.00481e-05
4.00486e-05
4.00492e-05
4.00495e-05
4.00499e-05
4.00505e-05
4.00515e-05
4.00529e-05
4.00549e-05
4.00572e-05
4.00598e-05
4.00631e-05
4.00514e-05
4.00297e-05
4.00819e-05
4.03932e-05
4.08801e-05
4.14237e-05
4.19681e-05
4.18807e-05
3.94045e-05
3.48231e-05
1.78782e-05
7.28212e-06
0
0
7.15698e-06
0.00201309
0.0141618
0.097381
4.00457e-05
4.0046e-05
4.00465e-05
4.00446e-05
4.00437e-05
4.00435e-05
4.00422e-05
4.0043e-05
4.00443e-05
4.00454e-05
4.00464e-05
4.00472e-05
4.00479e-05
4.00483e-05
4.00487e-05
4.00491e-05
4.00496e-05
4.00501e-05
4.00507e-05
4.00515e-05
4.00525e-05
4.00536e-05
4.0055e-05
4.00565e-05
4.00583e-05
4.00606e-05
4.00633e-05
4.00667e-05
4.00706e-05
4.00752e-05
4.00807e-05
4.00866e-05
4.00939e-05
4.00987e-05
4.01751e-05
4.03005e-05
4.1087e-05
3.69582e-05
5.78738e-06
4.00457e-05
4.00446e-05
4.00451e-05
4.00456e-05
4.00458e-05
4.00467e-05
4.00474e-05
4.00481e-05
4.00489e-05
4.00497e-05
4.00504e-05
4.00513e-05
4.00522e-05
4.00532e-05
4.00542e-05
4.00554e-05
4.00568e-05
4.00585e-05
4.006e-05
4.00612e-05
4.00628e-05
4.00634e-05
4.00529e-05
4.00302e-05
4.00292e-05
4.01045e-05
4.02879e-05
4.06627e-05
4.12212e-05
4.18477e-05
4.24053e-05
4.00161e-05
3.13854e-05
9.06371e-06
9.55217e-07
0
0
0.00430786
0.0491064
4.00459e-05
4.00461e-05
4.00466e-05
4.00452e-05
4.00438e-05
4.00435e-05
4.00425e-05
4.00434e-05
4.00447e-05
4.00456e-05
4.00465e-05
4.00472e-05
4.00478e-05
4.00482e-05
4.00486e-05
4.00488e-05
4.00491e-05
4.00495e-05
4.00499e-05
4.00504e-05
4.00511e-05
4.0052e-05
4.0053e-05
4.00542e-05
4.00556e-05
4.00573e-05
4.00593e-05
4.00618e-05
4.00646e-05
4.00678e-05
4.00714e-05
4.00759e-05
4.00789e-05
4.00933e-05
4.00677e-05
4.02619e-05
3.9611e-05
4.4699e-05
2.25083e-05
4.00463e-05
4.00456e-05
4.00463e-05
4.00469e-05
4.00474e-05
4.00482e-05
4.00486e-05
4.00492e-05
4.00497e-05
4.00502e-05
4.00507e-05
4.00513e-05
4.00518e-05
4.00524e-05
4.0053e-05
4.00536e-05
4.00541e-05
4.00545e-05
4.0055e-05
4.00557e-05
4.00567e-05
4.00587e-05
4.00599e-05
4.00562e-05
4.00428e-05
4.0027e-05
4.00213e-05
4.00499e-05
4.0162e-05
4.04705e-05
4.10733e-05
4.20263e-05
4.2165e-05
3.76917e-05
4.39761e-06
1.19486e-07
0
0.000441357
0.0211338
4.00462e-05
4.00464e-05
4.00468e-05
4.00459e-05
4.00441e-05
4.00436e-05
4.00429e-05
4.00438e-05
4.0045e-05
4.00458e-05
4.00466e-05
4.00472e-05
4.00478e-05
4.00481e-05
4.00484e-05
4.00486e-05
4.00488e-05
4.0049e-05
4.00493e-05
4.00497e-05
4.00502e-05
4.00508e-05
4.00516e-05
4.00526e-05
4.00538e-05
4.00553e-05
4.00571e-05
4.00594e-05
4.00621e-05
4.00653e-05
4.0069e-05
4.00737e-05
4.00772e-05
4.00898e-05
4.00657e-05
4.02068e-05
3.96292e-05
4.20461e-05
3.65883e-05
4.00469e-05
4.00466e-05
4.00474e-05
4.0048e-05
4.00485e-05
4.00492e-05
4.00497e-05
4.00501e-05
4.00504e-05
4.00507e-05
4.00511e-05
4.00516e-05
4.00521e-05
4.00527e-05
4.00534e-05
4.00542e-05
4.0055e-05
4.00559e-05
4.00568e-05
4.00577e-05
4.00584e-05
4.00593e-05
4.00606e-05
4.0062e-05
4.00615e-05
4.00571e-05
4.00474e-05
4.00301e-05
4.00061e-05
4.0013e-05
4.00875e-05
4.0476e-05
4.12023e-05
4.29395e-05
3.93276e-05
8.66966e-06
0
0.000169291
0.00773016
4.00467e-05
4.00468e-05
4.0047e-05
4.00464e-05
4.00446e-05
4.00439e-05
4.00435e-05
4.00443e-05
4.00452e-05
4.0046e-05
4.00467e-05
4.00473e-05
4.00477e-05
4.0048e-05
4.00483e-05
4.00485e-05
4.00486e-05
4.00487e-05
4.00489e-05
4.00491e-05
4.00494e-05
4.00498e-05
4.00504e-05
4.00511e-05
4.00521e-05
4.00533e-05
4.00549e-05
4.00568e-05
4.00591e-05
4.00618e-05
4.0065e-05
4.00688e-05
4.00726e-05
4.00795e-05
4.00773e-05
4.01171e-05
4.00095e-05
4.0317e-05
4.02935e-05
4.00475e-05
4.00473e-05
4.00482e-05
4.00488e-05
4.00493e-05
4.00498e-05
4.00501e-05
4.00503e-05
4.00506e-05
4.00507e-05
4.0051e-05
4.00514e-05
4.00518e-05
4.00523e-05
4.00529e-05
4.00535e-05
4.00542e-05
4.0055e-05
4.00558e-05
4.00566e-05
4.00576e-05
4.00587e-05
4.006e-05
4.00615e-05
4.00632e-05
4.00648e-05
4.00655e-05
4.0064e-05
4.00538e-05
4.00335e-05
3.99981e-05
3.99914e-05
4.00988e-05
4.05649e-05
4.45216e-05
3.47978e-05
4.76451e-06
5.32804e-05
0.00232052
4.00474e-05
4.00474e-05
4.00474e-05
4.00469e-05
4.0045e-05
4.00443e-05
4.0044e-05
4.00447e-05
4.00455e-05
4.00462e-05
4.00468e-05
4.00473e-05
4.00477e-05
4.0048e-05
4.00482e-05
4.00483e-05
4.00484e-05
4.00484e-05
4.00485e-05
4.00486e-05
4.00487e-05
4.0049e-05
4.00494e-05
4.005e-05
4.00508e-05
4.00519e-05
4.00532e-05
4.00549e-05
4.0057e-05
4.00596e-05
4.00625e-05
4.0066e-05
4.007e-05
4.00745e-05
4.00807e-05
4.00824e-05
4.01149e-05
4.00054e-05
4.04155e-05
4.00482e-05
4.0048e-05
4.00489e-05
4.00493e-05
4.00497e-05
4.005e-05
4.00502e-05
4.00503e-05
4.00505e-05
4.00507e-05
4.00508e-05
4.00511e-05
4.00515e-05
4.0052e-05
4.00526e-05
4.00532e-05
4.00539e-05
4.00547e-05
4.00556e-05
4.00565e-05
4.00574e-05
4.00584e-05
4.00596e-05
4.0061e-05
4.00625e-05
4.00643e-05
4.00663e-05
4.00692e-05
4.00719e-05
4.0071e-05
4.00628e-05
4.00301e-05
4.00021e-05
3.98108e-05
4.06775e-05
4.62313e-05
1.74839e-05
1.14637e-05
0.000457205
4.00482e-05
4.00482e-05
4.00478e-05
4.00473e-05
4.00455e-05
4.00447e-05
4.00445e-05
4.00451e-05
4.00458e-05
4.00464e-05
4.00469e-05
4.00474e-05
4.00478e-05
4.0048e-05
4.00482e-05
4.00482e-05
4.00482e-05
4.00482e-05
4.00482e-05
4.00482e-05
4.00483e-05
4.00484e-05
4.00487e-05
4.00492e-05
4.00499e-05
4.00507e-05
4.00519e-05
4.00534e-05
4.00552e-05
4.00574e-05
4.00601e-05
4.00631e-05
4.00668e-05
4.00707e-05
4.00769e-05
4.00779e-05
4.01038e-05
4.00517e-05
4.01915e-05
4.00489e-05
4.00487e-05
4.00494e-05
4.00497e-05
4.005e-05
4.00502e-05
4.00503e-05
4.00503e-05
4.00504e-05
4.00505e-05
4.00506e-05
4.00508e-05
4.00512e-05
4.00516e-05
4.00521e-05
4.00527e-05
4.00533e-05
4.0054e-05
4.00548e-05
4.00556e-05
4.00565e-05
4.00576e-05
4.00587e-05
4.00601e-05
4.00615e-05
4.00631e-05
4.00649e-05
4.00671e-05
4.00706e-05
4.00748e-05
4.00803e-05
4.00819e-05
4.00636e-05
4.00489e-05
3.93168e-05
4.31572e-05
3.98974e-05
1.26488e-06
6.49932e-06
4.0049e-05
4.00489e-05
4.00483e-05
4.00476e-05
4.00459e-05
4.00451e-05
4.00449e-05
4.00455e-05
4.00462e-05
4.00466e-05
4.00471e-05
4.00475e-05
4.00478e-05
4.00479e-05
4.0048e-05
4.00481e-05
4.0048e-05
4.0048e-05
4.0048e-05
4.0048e-05
4.0048e-05
4.00481e-05
4.00483e-05
4.00486e-05
4.00491e-05
4.00498e-05
4.00507e-05
4.0052e-05
4.00535e-05
4.00555e-05
4.00578e-05
4.00605e-05
4.00638e-05
4.00675e-05
4.00723e-05
4.00766e-05
4.00869e-05
4.00867e-05
4.01078e-05
4.00496e-05
4.00493e-05
4.00499e-05
4.00501e-05
4.00502e-05
4.00503e-05
4.00503e-05
4.00503e-05
4.00503e-05
4.00504e-05
4.00505e-05
4.00507e-05
4.00509e-05
4.00513e-05
4.00517e-05
4.00522e-05
4.00527e-05
4.00534e-05
4.00541e-05
4.00549e-05
4.00558e-05
4.00568e-05
4.00579e-05
4.00591e-05
4.00605e-05
4.0062e-05
4.00636e-05
4.00655e-05
4.00679e-05
4.00713e-05
4.00759e-05
4.00867e-05
4.00831e-05
4.01436e-05
3.98365e-05
3.94881e-05
4.76101e-05
5.77599e-06
1.49701e-06
4.00497e-05
4.00496e-05
4.00487e-05
4.00479e-05
4.00463e-05
4.00455e-05
4.00454e-05
4.00459e-05
4.00464e-05
4.00468e-05
4.00472e-05
4.00475e-05
4.00477e-05
4.00478e-05
4.00479e-05
4.00479e-05
4.00479e-05
4.00479e-05
4.00478e-05
4.00478e-05
4.00477e-05
4.00477e-05
4.00478e-05
4.0048e-05
4.00483e-05
4.00488e-05
4.00496e-05
4.00506e-05
4.00519e-05
4.00535e-05
4.00555e-05
4.00579e-05
4.00607e-05
4.00641e-05
4.00682e-05
4.00731e-05
4.00787e-05
4.00894e-05
4.0093e-05
4.00501e-05
4.00499e-05
4.00504e-05
4.00504e-05
4.00504e-05
4.00505e-05
4.00504e-05
4.00503e-05
4.00503e-05
4.00503e-05
4.00504e-05
4.00506e-05
4.00507e-05
4.00509e-05
4.00513e-05
4.00517e-05
4.00523e-05
4.00529e-05
4.00535e-05
4.00543e-05
4.00551e-05
4.00561e-05
4.00571e-05
4.00583e-05
4.00596e-05
4.0061e-05
4.00625e-05
4.00643e-05
4.00664e-05
4.0069e-05
4.00722e-05
4.00782e-05
4.00887e-05
4.00787e-05
4.03223e-05
3.85543e-05
4.63963e-05
2.03126e-05
1.39851e-06
4.00503e-05
4.00503e-05
4.00492e-05
4.00481e-05
4.00467e-05
4.0046e-05
4.00458e-05
4.00463e-05
4.00467e-05
4.0047e-05
4.00472e-05
4.00475e-05
4.00477e-05
4.00477e-05
4.00478e-05
4.00478e-05
4.00478e-05
4.00477e-05
4.00477e-05
4.00476e-05
4.00475e-05
4.00474e-05
4.00473e-05
4.00474e-05
4.00475e-05
4.00479e-05
4.00485e-05
4.00493e-05
4.00504e-05
4.00517e-05
4.00534e-05
4.00555e-05
4.0058e-05
4.0061e-05
4.00646e-05
4.00691e-05
4.0074e-05
4.00833e-05
4.00893e-05
4.00505e-05
4.00502e-05
4.00507e-05
4.00506e-05
4.00506e-05
4.00506e-05
4.00505e-05
4.00504e-05
4.00503e-05
4.00503e-05
4.00503e-05
4.00504e-05
4.00504e-05
4.00507e-05
4.0051e-05
4.00513e-05
4.00518e-05
4.00523e-05
4.00529e-05
4.00536e-05
4.00544e-05
4.00552e-05
4.00563e-05
4.00574e-05
4.00586e-05
4.00599e-05
4.00614e-05
4.00631e-05
4.0065e-05
4.00674e-05
4.00706e-05
4.00722e-05
4.00899e-05
4.00383e-05
4.03541e-05
3.91533e-05
4.25773e-05
3.77774e-05
3.8267e-06
4.00508e-05
4.00509e-05
4.00498e-05
4.00484e-05
4.00472e-05
4.00466e-05
4.00464e-05
4.00466e-05
4.00469e-05
4.00472e-05
4.00473e-05
4.00475e-05
4.00475e-05
4.00476e-05
4.00476e-05
4.00476e-05
4.00476e-05
4.00476e-05
4.00474e-05
4.00473e-05
4.00471e-05
4.00469e-05
4.00468e-05
4.00467e-05
4.00468e-05
4.00471e-05
4.00475e-05
4.00482e-05
4.00491e-05
4.00502e-05
4.00517e-05
4.00535e-05
4.00557e-05
4.00584e-05
4.00616e-05
4.00655e-05
4.00702e-05
4.00777e-05
4.00849e-05
4.00509e-05
4.00506e-05
4.00509e-05
4.00508e-05
4.00507e-05
4.00506e-05
4.00505e-05
4.00503e-05
4.00502e-05
4.00501e-05
4.00501e-05
4.00502e-05
4.00503e-05
4.00504e-05
4.00506e-05
4.00509e-05
4.00514e-05
4.00518e-05
4.00524e-05
4.0053e-05
4.00537e-05
4.00545e-05
4.00554e-05
4.00565e-05
4.00576e-05
4.00588e-05
4.00602e-05
4.00618e-05
4.00636e-05
4.00658e-05
4.00691e-05
4.007e-05
4.00847e-05
4.00494e-05
4.0204e-05
3.9863e-05
4.00966e-05
4.36605e-05
2.16755e-05
4.00513e-05
4.00515e-05
4.00504e-05
4.00488e-05
4.00478e-05
4.00472e-05
4.00469e-05
4.0047e-05
4.00472e-05
4.00472e-05
4.00474e-05
4.00473e-05
4.00474e-05
4.00474e-05
4.00474e-05
4.00474e-05
4.00474e-05
4.00472e-05
4.00471e-05
4.00469e-05
4.00467e-05
4.00465e-05
4.00463e-05
4.00462e-05
4.00462e-05
4.00464e-05
4.00467e-05
4.00472e-05
4.0048e-05
4.0049e-05
4.00503e-05
4.00519e-05
4.00538e-05
4.00562e-05
4.00591e-05
4.00626e-05
4.00669e-05
4.00735e-05
4.00802e-05
4.00513e-05
4.00509e-05
4.00511e-05
4.00509e-05
4.00508e-05
4.00507e-05
4.00505e-05
4.00503e-05
4.00502e-05
4.00501e-05
4.005e-05
4.00501e-05
4.00502e-05
4.00502e-05
4.00504e-05
4.00507e-05
4.00511e-05
4.00515e-05
4.00519e-05
4.00525e-05
4.00531e-05
4.00538e-05
4.00546e-05
4.00556e-05
4.00566e-05
4.00577e-05
4.0059e-05
4.00605e-05
4.00622e-05
4.00642e-05
4.00671e-05
4.0069e-05
4.0077e-05
4.00713e-05
4.00904e-05
4.01921e-05
3.94049e-05
4.32472e-05
3.39081e-05
4.00518e-05
4.00521e-05
4.00509e-05
4.00492e-05
4.00483e-05
4.00478e-05
4.00474e-05
4.00474e-05
4.00473e-05
4.00473e-05
4.00473e-05
4.00472e-05
4.00472e-05
4.00473e-05
4.00472e-05
4.00471e-05
4.0047e-05
4.00469e-05
4.00467e-05
4.00465e-05
4.00463e-05
4.00461e-05
4.00459e-05
4.00457e-05
4.00457e-05
4.00458e-05
4.0046e-05
4.00465e-05
4.00471e-05
4.00479e-05
4.0049e-05
4.00504e-05
4.00521e-05
4.00542e-05
4.00568e-05
4.006e-05
4.00639e-05
4.00699e-05
4.0076e-05
4.00517e-05
4.00512e-05
4.00513e-05
4.00511e-05
4.00509e-05
4.00507e-05
4.00505e-05
4.00503e-05
4.00502e-05
4.00501e-05
4.00501e-05
4.00501e-05
4.00502e-05
4.00503e-05
4.00504e-05
4.00506e-05
4.00509e-05
4.00513e-05
4.00517e-05
4.00521e-05
4.00527e-05
4.00533e-05
4.0054e-05
4.00548e-05
4.00557e-05
4.00567e-05
4.00579e-05
4.00592e-05
4.00608e-05
4.00626e-05
4.0065e-05
4.00679e-05
4.00711e-05
4.00809e-05
4.0053e-05
4.02287e-05
3.95786e-05
4.15453e-05
3.91662e-05
4.00523e-05
4.00526e-05
4.00515e-05
4.00496e-05
4.00489e-05
4.00484e-05
4.00478e-05
4.00476e-05
4.00475e-05
4.00474e-05
4.00473e-05
4.00472e-05
4.00471e-05
4.0047e-05
4.0047e-05
4.00469e-05
4.00467e-05
4.00466e-05
4.00464e-05
4.00462e-05
4.0046e-05
4.00457e-05
4.00455e-05
4.00454e-05
4.00453e-05
4.00453e-05
4.00454e-05
4.00457e-05
4.00462e-05
4.00469e-05
4.00478e-05
4.0049e-05
4.00504e-05
4.00523e-05
4.00546e-05
4.00575e-05
4.00611e-05
4.00665e-05
4.00723e-05
4.0052e-05
4.00515e-05
4.00516e-05
4.00513e-05
4.00511e-05
4.00509e-05
4.00507e-05
4.00505e-05
4.00504e-05
4.00503e-05
4.00502e-05
4.00503e-05
4.00503e-05
4.00505e-05
4.00505e-05
4.00507e-05
4.0051e-05
4.00513e-05
4.00516e-05
4.0052e-05
4.00525e-05
4.0053e-05
4.00536e-05
4.00543e-05
4.00551e-05
4.00559e-05
4.00569e-05
4.00581e-05
4.00595e-05
4.00611e-05
4.00632e-05
4.00661e-05
4.00679e-05
4.00793e-05
4.00558e-05
4.01649e-05
3.98795e-05
4.04548e-05
4.05198e-05
4.00527e-05
4.0053e-05
4.0052e-05
4.005e-05
4.00493e-05
4.00488e-05
4.00482e-05
4.00479e-05
4.00476e-05
4.00474e-05
4.00473e-05
4.00472e-05
4.0047e-05
4.00468e-05
4.00467e-05
4.00466e-05
4.00465e-05
4.00463e-05
4.00461e-05
4.00459e-05
4.00457e-05
4.00454e-05
4.00452e-05
4.0045e-05
4.00448e-05
4.00448e-05
4.00448e-05
4.0045e-05
4.00453e-05
4.00458e-05
4.00466e-05
4.00476e-05
4.00488e-05
4.00504e-05
4.00524e-05
4.00549e-05
4.00582e-05
4.00631e-05
4.00686e-05
4.00523e-05
4.00519e-05
4.00519e-05
4.00515e-05
4.00512e-05
4.00511e-05
4.00509e-05
4.00507e-05
4.00506e-05
4.00506e-05
4.00505e-05
4.00506e-05
4.00506e-05
4.00507e-05
4.00509e-05
4.0051e-05
4.00512e-05
4.00514e-05
4.00517e-05
4.0052e-05
4.00524e-05
4.00529e-05
4.00534e-05
4.00539e-05
4.00546e-05
4.00553e-05
4.00561e-05
4.00571e-05
4.00583e-05
4.00598e-05
4.00616e-05
4.00642e-05
4.0066e-05
4.00739e-05
4.00658e-05
4.01074e-05
4.00506e-05
4.00646e-05
4.04966e-05
4.0053e-05
4.00533e-05
4.00523e-05
4.00503e-05
4.00497e-05
4.00492e-05
4.00485e-05
4.0048e-05
4.00477e-05
4.00474e-05
4.00473e-05
4.00471e-05
4.00469e-05
4.00467e-05
4.00465e-05
4.00464e-05
4.00462e-05
4.0046e-05
4.00458e-05
4.00456e-05
4.00454e-05
4.00451e-05
4.00448e-05
4.00445e-05
4.00443e-05
4.00442e-05
4.00442e-05
4.00443e-05
4.00445e-05
4.00449e-05
4.00455e-05
4.00463e-05
4.00474e-05
4.00487e-05
4.00505e-05
4.00527e-05
4.00556e-05
4.006e-05
4.0065e-05
4.00525e-05
4.00521e-05
4.00521e-05
4.00517e-05
4.00515e-05
4.00514e-05
4.00512e-05
4.00511e-05
4.0051e-05
4.0051e-05
4.0051e-05
4.0051e-05
4.00511e-05
4.00512e-05
4.00513e-05
4.00513e-05
4.00515e-05
4.00517e-05
4.0052e-05
4.00523e-05
4.00526e-05
4.0053e-05
4.00535e-05
4.00539e-05
4.00545e-05
4.00551e-05
4.00558e-05
4.00566e-05
4.00576e-05
4.00588e-05
4.00603e-05
4.00624e-05
4.00646e-05
4.00691e-05
4.00708e-05
4.00795e-05
4.01009e-05
4.00158e-05
4.0263e-05
4.00532e-05
4.00535e-05
4.00527e-05
4.00507e-05
4.00501e-05
4.00496e-05
4.00487e-05
4.00482e-05
4.00478e-05
4.00475e-05
4.00472e-05
4.0047e-05
4.00469e-05
4.00465e-05
4.00463e-05
4.00461e-05
4.0046e-05
4.00458e-05
4.00456e-05
4.00454e-05
4.00451e-05
4.00448e-05
4.00444e-05
4.00441e-05
4.00439e-05
4.00438e-05
4.00437e-05
4.00437e-05
4.00439e-05
4.00442e-05
4.00447e-05
4.00453e-05
4.00462e-05
4.00474e-05
4.00489e-05
4.00509e-05
4.00534e-05
4.00573e-05
4.00618e-05
4.00527e-05
4.00524e-05
4.00523e-05
4.00519e-05
4.00518e-05
4.00517e-05
4.00516e-05
4.00515e-05
4.00515e-05
4.00515e-05
4.00515e-05
4.00516e-05
4.00516e-05
4.00517e-05
4.00518e-05
4.00518e-05
4.0052e-05
4.00521e-05
4.00524e-05
4.00526e-05
4.00529e-05
4.00532e-05
4.00535e-05
4.00539e-05
4.00544e-05
4.00549e-05
4.00555e-05
4.00562e-05
4.0057e-05
4.0058e-05
4.00593e-05
4.0061e-05
4.00632e-05
4.0066e-05
4.00706e-05
4.0071e-05
4.00978e-05
4.00519e-05
4.0129e-05
4.00534e-05
4.00538e-05
4.0053e-05
4.0051e-05
4.00504e-05
4.00499e-05
4.00489e-05
4.00483e-05
4.00479e-05
4.00475e-05
4.00472e-05
4.00469e-05
4.00467e-05
4.00463e-05
4.00461e-05
4.0046e-05
4.00458e-05
4.00456e-05
4.00453e-05
4.0045e-05
4.00448e-05
4.00445e-05
4.00441e-05
4.00438e-05
4.00436e-05
4.00434e-05
4.00433e-05
4.00433e-05
4.00433e-05
4.00435e-05
4.00439e-05
4.00444e-05
4.00451e-05
4.00461e-05
4.00474e-05
4.00491e-05
4.00514e-05
4.00548e-05
4.00589e-05
4.0053e-05
4.00526e-05
4.00524e-05
4.00522e-05
4.00521e-05
4.00521e-05
4.00521e-05
4.00521e-05
4.00521e-05
4.00521e-05
4.00522e-05
4.00522e-05
4.00523e-05
4.00523e-05
4.00524e-05
4.00525e-05
4.00525e-05
4.00526e-05
4.00527e-05
4.00529e-05
4.00531e-05
4.00533e-05
4.00536e-05
4.00539e-05
4.00543e-05
4.00547e-05
4.00552e-05
4.00558e-05
4.00565e-05
4.00574e-05
4.00585e-05
4.00599e-05
4.00618e-05
4.00641e-05
4.00683e-05
4.00694e-05
4.00845e-05
4.00784e-05
4.00874e-05
4.00537e-05
4.0054e-05
4.00532e-05
4.00514e-05
4.00507e-05
4.00501e-05
4.00492e-05
4.00485e-05
4.00479e-05
4.00474e-05
4.00471e-05
4.00468e-05
4.00465e-05
4.00462e-05
4.0046e-05
4.00458e-05
4.00455e-05
4.00453e-05
4.0045e-05
4.00448e-05
4.00445e-05
4.00442e-05
4.00439e-05
4.00436e-05
4.00433e-05
4.00431e-05
4.00429e-05
4.00428e-05
4.00428e-05
4.00429e-05
4.00431e-05
4.00434e-05
4.0044e-05
4.00448e-05
4.00458e-05
4.00473e-05
4.00493e-05
4.00523e-05
4.00561e-05
4.00533e-05
4.00529e-05
4.00526e-05
4.00525e-05
4.00525e-05
4.00525e-05
4.00527e-05
4.00527e-05
4.00528e-05
4.00529e-05
4.00529e-05
4.00529e-05
4.0053e-05
4.0053e-05
4.0053e-05
4.00531e-05
4.00531e-05
4.00531e-05
4.00532e-05
4.00534e-05
4.00535e-05
4.00537e-05
4.00539e-05
4.00542e-05
4.00544e-05
4.00548e-05
4.00551e-05
4.00556e-05
4.00562e-05
4.00569e-05
4.00578e-05
4.00589e-05
4.00605e-05
4.00625e-05
4.00657e-05
4.00686e-05
4.00753e-05
4.00847e-05
4.00821e-05
4.00539e-05
4.00542e-05
4.00535e-05
4.00517e-05
4.0051e-05
4.00503e-05
4.00494e-05
4.00486e-05
4.0048e-05
4.00474e-05
4.0047e-05
4.00467e-05
4.00464e-05
4.00462e-05
4.00458e-05
4.00455e-05
4.00453e-05
4.00451e-05
4.00449e-05
4.00446e-05
4.00444e-05
4.0044e-05
4.00437e-05
4.00434e-05
4.00431e-05
4.00428e-05
4.00426e-05
4.00424e-05
4.00423e-05
4.00423e-05
4.00423e-05
4.00426e-05
4.0043e-05
4.00436e-05
4.00445e-05
4.00457e-05
4.00474e-05
4.005e-05
4.00533e-05
4.00536e-05
4.00532e-05
4.00529e-05
4.00529e-05
4.0053e-05
4.00531e-05
4.00533e-05
4.00534e-05
4.00535e-05
4.00536e-05
4.00536e-05
4.00537e-05
4.00537e-05
4.00537e-05
4.00537e-05
4.00538e-05
4.00537e-05
4.00537e-05
4.00538e-05
4.00539e-05
4.0054e-05
4.00541e-05
4.00543e-05
4.00545e-05
4.00547e-05
4.00549e-05
4.00552e-05
4.00556e-05
4.0056e-05
4.00566e-05
4.00573e-05
4.00582e-05
4.00595e-05
4.00612e-05
4.00636e-05
4.00671e-05
4.00705e-05
4.00815e-05
4.00827e-05
4.00541e-05
4.00544e-05
4.00536e-05
4.0052e-05
4.00512e-05
4.00505e-05
4.00496e-05
4.00487e-05
4.0048e-05
4.00474e-05
4.0047e-05
4.00466e-05
4.00463e-05
4.00461e-05
4.00457e-05
4.00454e-05
4.00452e-05
4.0045e-05
4.00447e-05
4.00444e-05
4.00441e-05
4.00438e-05
4.00435e-05
4.00432e-05
4.00429e-05
4.00426e-05
4.00423e-05
4.00421e-05
4.00419e-05
4.00418e-05
4.00418e-05
4.00419e-05
4.00422e-05
4.00427e-05
4.00433e-05
4.00443e-05
4.00458e-05
4.00479e-05
4.00508e-05
4.00539e-05
4.00534e-05
4.00532e-05
4.00533e-05
4.00535e-05
4.00537e-05
4.00539e-05
4.00541e-05
4.00542e-05
4.00543e-05
4.00544e-05
4.00544e-05
4.00544e-05
4.00544e-05
4.00544e-05
4.00544e-05
4.00544e-05
4.00544e-05
4.00543e-05
4.00544e-05
4.00544e-05
4.00545e-05
4.00546e-05
4.00547e-05
4.00548e-05
4.0055e-05
4.00552e-05
4.00555e-05
4.00559e-05
4.00563e-05
4.00569e-05
4.00577e-05
4.00587e-05
4.00601e-05
4.0062e-05
4.00651e-05
4.00678e-05
4.00766e-05
4.00811e-05
4.00542e-05
4.00544e-05
4.00537e-05
4.00521e-05
4.00513e-05
4.00506e-05
4.00497e-05
4.00488e-05
4.0048e-05
4.00474e-05
4.00469e-05
4.00465e-05
4.00462e-05
4.00459e-05
4.00456e-05
4.00453e-05
4.00451e-05
4.00448e-05
4.00445e-05
4.00442e-05
4.00439e-05
4.00436e-05
4.00433e-05
4.00431e-05
4.00428e-05
4.00425e-05
4.00422e-05
4.00419e-05
4.00416e-05
4.00415e-05
4.00414e-05
4.00414e-05
4.00416e-05
4.00419e-05
4.00424e-05
4.00432e-05
4.00444e-05
4.00462e-05
4.00486e-05
4.0054e-05
4.00536e-05
4.00534e-05
4.00537e-05
4.00539e-05
4.00541e-05
4.00544e-05
4.00546e-05
4.00548e-05
4.0055e-05
4.00551e-05
4.00551e-05
4.00551e-05
4.00551e-05
4.00551e-05
4.00551e-05
4.00551e-05
4.00549e-05
4.00549e-05
4.00549e-05
4.0055e-05
4.0055e-05
4.0055e-05
4.00551e-05
4.00551e-05
4.00552e-05
4.00554e-05
4.00556e-05
4.00558e-05
4.00562e-05
4.00566e-05
4.00572e-05
4.00581e-05
4.00592e-05
4.00607e-05
4.00633e-05
4.00656e-05
4.00725e-05
4.00778e-05
4.00543e-05
4.00544e-05
4.00537e-05
4.00522e-05
4.00513e-05
4.00506e-05
4.00497e-05
4.00488e-05
4.0048e-05
4.00474e-05
4.00469e-05
4.00465e-05
4.00461e-05
4.00458e-05
4.00456e-05
4.00452e-05
4.00449e-05
4.00446e-05
4.00444e-05
4.00441e-05
4.00438e-05
4.00435e-05
4.00432e-05
4.00429e-05
4.00427e-05
4.00424e-05
4.00421e-05
4.00418e-05
4.00415e-05
4.00413e-05
4.00411e-05
4.0041e-05
4.00411e-05
4.00413e-05
4.00416e-05
4.00422e-05
4.00432e-05
4.00448e-05
4.00467e-05
4.00541e-05
4.00538e-05
4.00537e-05
4.0054e-05
4.00543e-05
4.00546e-05
4.00549e-05
4.00552e-05
4.00554e-05
4.00556e-05
4.00557e-05
4.00558e-05
4.00559e-05
4.00558e-05
4.00558e-05
4.00558e-05
4.00558e-05
4.00556e-05
4.00556e-05
4.00556e-05
4.00555e-05
4.00555e-05
4.00555e-05
4.00555e-05
4.00555e-05
4.00556e-05
4.00557e-05
4.00558e-05
4.00559e-05
4.00562e-05
4.00565e-05
4.00569e-05
4.00576e-05
4.00585e-05
4.00597e-05
4.00617e-05
4.00637e-05
4.00693e-05
4.00742e-05
4.00543e-05
4.00544e-05
4.00537e-05
4.00522e-05
4.00513e-05
4.00506e-05
4.00497e-05
4.00488e-05
4.0048e-05
4.00473e-05
4.00468e-05
4.00464e-05
4.00461e-05
4.00457e-05
4.00455e-05
4.00451e-05
4.00448e-05
4.00445e-05
4.00442e-05
4.00439e-05
4.00436e-05
4.00433e-05
4.00431e-05
4.00428e-05
4.00426e-05
4.00423e-05
4.00421e-05
4.00418e-05
4.00415e-05
4.00412e-05
4.0041e-05
4.00408e-05
4.00407e-05
4.00407e-05
4.0041e-05
4.00414e-05
4.00421e-05
4.00434e-05
4.0045e-05
4.00541e-05
4.00539e-05
4.00539e-05
4.00543e-05
4.00546e-05
4.00549e-05
4.00553e-05
4.00556e-05
4.00559e-05
4.00562e-05
4.00563e-05
4.00565e-05
4.00566e-05
4.00566e-05
4.00566e-05
4.00565e-05
4.00565e-05
4.00564e-05
4.00563e-05
4.00562e-05
4.00561e-05
4.0056e-05
4.0056e-05
4.00559e-05
4.00559e-05
4.00558e-05
4.00559e-05
4.00559e-05
4.0056e-05
4.00562e-05
4.00564e-05
4.00567e-05
4.00572e-05
4.00579e-05
4.00588e-05
4.00605e-05
4.0062e-05
4.00667e-05
4.00711e-05
4.00543e-05
4.00544e-05
4.00537e-05
4.00523e-05
4.00513e-05
4.00505e-05
4.00496e-05
4.00487e-05
4.0048e-05
4.00473e-05
4.00468e-05
4.00464e-05
4.0046e-05
4.00457e-05
4.00453e-05
4.00451e-05
4.00447e-05
4.00444e-05
4.00441e-05
4.00438e-05
4.00435e-05
4.00433e-05
4.0043e-05
4.00428e-05
4.00426e-05
4.00424e-05
4.00421e-05