/*--------------------------------*- C++ -*----------------------------------*\
| =========                 |                                                 |
| \\      /  F ield         | OpenFOAM: The Open Source CFD Toolbox           |
|  \\    /   O peration     | Version:  2306                                  |
|   \\  /    A nd           | Website:  www.openfoam.com                      |
|    \\/     M anipulation  |                                                 |
\*---------------------------------------------------------------------------*/
FoamFile
{
    version     2.0;
    format      ascii;
    arch        "LSB;label=32;scalar=64";
    class       volScalarField;
    location    "175";
    object      p;
}
// * * * * * * * * * * * * * * * * * * * * * * * * * * * * * * * * * * * * * //

dimensions      [0 2 -2 0 0 0 0];

internalField   nonuniform List<scalar> 
10720
(
-48.8751
-119.231
-202.013
-283.888
-359.895
-437.428
-506.496
-564.793
-615.639
-655.716
-686.582
-709.524
-725.623
-735.781
-740.138
-738.073
-730.457
-716.22
-696.7
-671.714
-644.197
-616.571
-592.019
-564.271
-524.648
-475.038
-424.42
-379.883
-341.243
-304.959
-269.113
-233.521
-198.226
-162.888
-127.117
-89.9165
-51.5793
-7.20622
27.7467
21.2747
85.1512
152.828
215.733
269.196
309.135
331.756
338.676
335.173
321.028
299.375
275.528
251.754
228.861
207.505
187.472
168.784
150.995
133.833
116.794
99.8269
82.618
65.2629
48.1795
33.2581
21.5431
11.9568
4.21529
-1.50224
-5.24087
-7.24877
-7.67206
-6.59293
-4.01713
0.0657622
6.01635
14.4173
28.5559
52.5664
51.655
-1.78225
-61.7394
-125.543
-191.233
-258.581
-324.087
-385.677
-442.645
-493.243
-537.184
-574.47
-605.073
-628.965
-645.993
-655.773
-659.04
-655.652
-646.567
-632.145
-614.63
-596.014
-577.899
-554.718
-518.833
-471.677
-422.493
-378.58
-340.176
-304.021
-268.254
-232.726
-197.511
-162.276
-126.62
-89.5273
-51.2791
-6.90259
27.4323
99.6802
145.379
190.826
234.475
272.731
302.941
321.95
329.478
327.005
315.413
297.703
277.186
255.685
234.159
213.322
193.376
174.419
156.259
138.69
121.375
104.209
86.9844
69.7852
53.0419
38.2434
26.3228
16.5812
8.59564
2.33249
-2.1061
-4.73449
-5.65078
-4.95896
-2.6911
1.1534
6.92596
15.1931
29.2544
52.3141
64.6583
16.665
-37.4584
-97.2677
-159.407
-223.235
-287.171
-348.592
-405.925
-458.154
-504.025
-543.044
-574.838
-599.481
-617.257
-628.517
-633.361
-631.793
-624.375
-611.664
-595.235
-576.827
-557.832
-534.961
-502.225
-459.642
-414.443
-373.027
-336.08
-300.977
-266.071
-231.215
-196.462
-161.516
-126.047
-89.0938
-50.9574
-6.66656
27.5302
107.899
149.78
191.298
230.463
264.115
290.609
307.868
315.8
315.07
306.369
291.883
273.908
254.156
233.783
213.602
194.02
175.208
157.117
139.594
122.388
105.358
88.3627
71.4648
55.0512
40.297
28.1117
18.113
9.93974
3.57981
-0.88053
-3.50931
-4.46643
-3.86921
-1.73023
1.9834
7.64091
15.8187
29.7434
51.911
85.5318
45.2621
-0.787528
-51.4866
-104.798
-160.665
-217.434
-273.359
-327.132
-377.594
-423.626
-464.5
-499.711
-529.08
-552.477
-570.061
-581.362
-586.318
-585.165
-578.382
-567.049
-552.509
-535.758
-514.766
-485.273
-447.008
-405.539
-366.468
-330.897
-296.851
-262.889
-228.834
-194.738
-160.325
-125.259
-88.5959
-50.6568
-6.57878
27.6805
121.562
156.086
190.617
223.804
252.695
275.989
291.969
300.244
301.023
294.858
283.357
268.25
250.961
232.567
213.853
195.289
177.125
159.432
142.146
125.114
108.228
91.4109
74.7348
58.5619
43.8609
31.4871
21.2655
12.8659
6.24429
1.46166
-1.54147
-2.86901
-2.59684
-0.718878
2.80142
8.32227
16.4006
30.1497
51.4607
90.8426
54.9977
13.8133
-31.8449
-79.9838
-131.02
-183.584
-236.087
-287.532
-336.764
-382.642
-424.358
-461.223
-492.725
-518.539
-538.413
-552.01
-559.331
-560.544
-556.162
-547.042
-534.326
-518.788
-499.031
-471.798
-436.608
-397.836
-360.468
-325.903
-292.67
-259.489
-226.147
-192.677
-158.81
-124.217
-87.9687
-50.3555
-6.62611
27.6635
122.989
153.625
184.356
213.9
239.65
260.702
275.748
284.26
286.25
282.208
273.283
260.786
245.841
229.39
212.18
194.708
177.294
160.102
143.16
126.401
109.762
93.2112
76.8319
60.9578
46.3875
33.899
23.4791
14.8643
8.01547
3.00026
-0.210055
-1.70259
-1.55936
0.209629
3.6344
9.06714
17.0518
30.5883
51.0008
93.8173
62.0674
25.4033
-15.2134
-58.0421
-103.784
-151.166
-198.926
-246.333
-292.335
-335.969
-376.468
-413.09
-445.226
-472.436
-494.339
-510.794
-521.585
-526.681
-526.353
-521.156
-511.884
-499.042
-481.634
-457.219
-425.314
-389.453
-354.076
-320.77
-288.481
-256.101
-223.443
-190.565
-157.229
-123.11
-87.2997
-50.0837
-6.83822
27.4451
122.297
149.343
176.672
203.141
226.341
245.605
259.878
268.516
271.425
269.069
262.291
252.104
239.39
224.937
209.412
193.289
176.908
160.487
144.12
127.813
111.554
95.352
79.3087
63.7401
49.3261
36.7735
26.1915
17.3949
10.3489
5.11744
1.68439
-0.0358218
-0.119864
1.42983
4.65728
9.91943
17.7468
31.0106
50.4997
93.1551
64.4992
31.3213
-5.46316
-44.172
-85.7336
-129.019
-172.924
-216.96
-260.196
-301.798
-341.083
-377.299
-409.793
-438.039
-461.576
-480.007
-493.021
-500.434
-502.444
-499.501
-492.241
-481.058
-465.305
-443.194
-414.227
-381.129
-347.728
-315.696
-284.357
-252.783
-220.804
-188.487
-155.638
-121.983
-86.6414
-49.8957
-7.24684
26.9968
118.887
143.247
167.993
192.066
213.25
231.079
244.682
253.346
256.944
255.912
250.894
242.685
231.981
219.418
205.566
190.848
175.593
160.051
144.363
128.595
112.785
96.9844
81.313
66.0728
51.8526
39.2942
28.5922
19.6373
12.4055
6.9597
3.29865
1.35558
1.06577
2.43534
5.51259
10.6478
18.3482
31.3344
49.923
90.9815
64.9633
34.7787
1.34388
-33.7427
-71.532
-110.985
-151.138
-191.674
-231.8
-270.795
-308.091
-342.997
-374.872
-403.154
-427.325
-446.91
-461.643
-471.294
-475.87
-475.605
-470.882
-461.924
-448.263
-428.616
-402.554
-372.198
-340.839
-310.186
-279.892
-249.214
-217.996
-186.313
-153.998
-120.819
-85.9593
-49.7595
-7.81905
26.2752
114.38
136.485
159.069
181.148
200.655
217.295
230.29
238.894
243.006
243
239.405
232.863
223.927
213.106
200.876
187.59
173.552
159.012
144.137
129.034
113.782
98.4673
83.2276
68.3539
54.3725
41.8687
31.0953
22.0158
14.6242
8.98571
5.11514
2.96154
2.46808
3.64488
6.54629
11.5177
19.0454
31.6853
49.3447
87.6878
63.8599
36.1832
5.55291
-26.4873
-61.0532
-97.204
-134.07
-171.474
-208.726
-245.226
-280.513
-313.967
-344.989
-373.027
-397.537
-418.014
-434.074
-445.411
-451.87
-453.561
-450.747
-443.568
-431.702
-414.234
-390.796
-363.012
-333.662
-304.421
-275.211
-245.461
-215.036
-184.022
-152.282
-119.611
-85.2485
-49.6245
-8.46708
25.2872
109.147
129.392
150.178
170.584
188.676
204.306
216.74
225.23
229.705
230.494
228.043
222.888
215.479
206.224
195.509
183.621
170.823
157.346
143.363
129.006
114.385
99.616
84.8512
70.3756
56.6691
44.2698
33.4682
24.2937
16.7627
10.9453
6.87126
4.50682
3.80684
4.78971
7.51641
12.3252
19.6767
31.9522
48.7052
83.8048
61.8569
36.3456
8.1457
-21.2513
-52.9897
-86.1967
-120.086
-154.581
-189.074
-223.072
-256.209
-287.936
-317.732
-345.068
-369.398
-390.209
-407.07
-419.661
-427.739
-431.261
-430.342
-425.01
-415.013
-399.698
-378.768
-353.473
-326.141
-298.369
-270.295
-241.511
-211.917
-181.606
-150.472
-118.346
-84.5122
-49.4725
-9.15673
24.1039
103.606
122.265
141.515
160.487
177.363
192.106
204.021
212.358
217.079
218.48
216.945
212.935
206.829
198.957
189.63
179.073
167.503
155.122
142.091
128.554
114.639
100.48
86.2437
72.2082
58.8204
46.5809
35.8026
26.571
18.9296
12.9558
8.69404
6.12954
5.22841
6.01574
8.55957
13.189
20.3376
32.2005
48.0353
79.5896
59.2644
35.6296
9.54039
-17.5613
-46.8289
-77.4414
-108.687
-140.548
-172.497
-204.133
-235.17
-265.128
-293.556
-319.977
-343.874
-364.731
-382.101
-395.603
-404.935
-409.917
-410.566
-406.849
-398.559
-385.228
-366.617
-343.675
-318.326
-292.052
-265.152
-237.371
-208.641
-179.066
-148.573
-117.023
-83.7565
-49.3086
-9.90463
22.7816
97.9581
115.253
133.175
150.902
166.719
180.672
192.095
200.256
205.133
207
206.196
203.129
198.127
191.46
183.382
174.066
163.681
152.392
140.344
127.674
114.52
101.025
87.3624
73.8038
60.7741
48.7431
38.0354
28.783
21.0579
14.9477
10.5117
7.75354
6.65357
7.24443
9.60197
14.0444
20.9758
32.3996
47.3291
75.2337
56.3315
34.3466
10.1131
-14.9733
-42.0583
-70.3668
-99.2393
-128.706
-158.304
-187.71
-216.701
-244.863
-271.819
-297.141
-320.348
-340.952
-358.495
-372.569
-382.853
-389.053
-391.095
-388.882
-382.221
-370.767
-354.331
-333.623
-310.221
-285.469
-259.783
-233.04
-205.21
-176.406
-146.587
-115.648
-82.9873
-49.1533
-10.7217
21.3326
92.3507
108.454
125.212
141.838
156.724
169.962
180.917
188.885
193.848
196.068
195.848
193.555
189.48
183.855
176.889
168.71
159.444
149.223
138.164
126.391
114.04
101.255
88.2086
75.1663
62.5353
50.7615
40.1737
30.9406
23.1633
16.9414
12.3493
9.40937
8.11684
8.51144
10.6772
14.9197
21.6124
32.5629
46.5921
70.8599
53.2133
32.6903
10.1015
-13.2024
-38.3502
-64.6048
-91.3491
-118.655
-146.104
-173.427
-200.478
-226.885
-252.335
-276.461
-298.828
-318.976
-336.461
-350.848
-361.81
-368.971
-372.177
-371.285
-366.113
-356.393
-341.967
-323.362
-301.852
-278.633
-254.192
-228.518
-201.622
-173.625
-144.513
-114.22
-82.2039
-49.0217
-11.6067
19.7649
86.8666
101.924
117.644
133.29
147.346
159.932
170.442
178.204
183.199
185.682
185.927
184.267
180.972
176.242
170.254
163.102
154.878
145.679
135.595
124.73
113.207
101.166
88.7716
76.2816
64.0876
52.6157
42.1946
33.021
25.2231
18.9148
14.185
11.0749
9.59582
9.79497
11.7651
15.7979
22.2344
32.6857
45.8266
66.5477
50.0199
30.8048
9.68484
-12.0291
-35.4453
-59.861
-84.6911
-110.039
-135.528
-160.921
-186.132
-210.849
-234.799
-257.674
-279.09
-298.618
-315.838
-330.31
-341.702
-349.604
-353.78
-354.053
-350.239
-342.12
-329.555
-312.924
-293.243
-271.555
-248.383
-223.807
-197.875
-170.718
-142.35
-112.737
-81.4036
-48.9166
-12.5581
18.0913
81.563
95.6856
110.481
125.243
138.551
150.535
160.621
168.171
173.156
175.83
176.444
175.303
172.659
168.695
163.561
157.328
150.061
141.827
132.688
122.724
112.04
100.764
89.0518
77.1464
65.4249
54.2975
44.0888
35.0156
27.2309
20.8636
16.0173
12.7515
11.0942
11.1002
12.8709
16.6829
22.8447
32.7722
45.0368
62.3487
46.8275
28.7886
8.99149
-11.2967
-33.1581
-55.9161
-79.0209
-102.593
-126.286
-149.903
-173.389
-196.493
-218.985
-240.596
-260.994
-279.79
-296.591
-310.971
-322.588
-331.027
-335.985
-337.258
-334.658
-327.997
-317.14
-302.349
-284.423
-264.253
-242.364
-218.909
-193.969
-167.686
-140.097
-111.199
-80.5859
-48.8332
-13.5734
16.3211
76.4724
89.7545
103.713
117.675
130.3
141.727
151.411
158.741
163.688
166.493
167.397
166.682
164.584
161.272
156.88
151.465
145.067
137.73
129.491
120.406
110.56
100.062
89.0522
77.7576
66.54
55.7959
45.8426
36.9104
29.1732
22.7756
17.8351
14.4292
12.6031
12.419
13.9876
17.569
23.4389
32.8226
44.2266
58.2958
43.6875
26.7145
8.11511
-10.8868
-31.341
-52.5994
-74.142
-96.0985
-118.151
-140.136
-162.018
-183.589
-204.674
-225.036
-244.381
-262.367
-278.633
-292.774
-304.439
-313.238
-318.808
-320.924
-319.397
-314.053
-304.757
-291.675
-275.422
-256.744
-236.145
-213.829
-189.908
-164.529
-137.751
-109.606
-79.7506
-48.7697
-14.6453
14.4601
71.6124
84.1338
97.3304
110.562
122.56
133.467
142.768
149.877
154.761
157.654
158.782
158.415
156.773
154.017
150.269
145.574
139.959
133.447
126.056
117.817
108.793
99.073
88.7781
78.1153
67.4302
57.1039
47.4461
38.6942
31.0395
24.6411
19.6305
16.1021
14.118
13.7486
15.1127
18.4542
24.0159
32.8395
43.3999
54.4112
40.6338
24.6315
7.12493
-10.7102
-29.8854
-49.7827
-69.9035
-90.3879
-110.942
-131.423
-151.818
-171.948
-191.682
-210.826
-229.114
-246.245
-261.894
-275.679
-287.252
-296.251
-302.28
-305.092
-304.496
-300.327
-292.447
-280.943
-266.274
-249.05
-229.74
-208.575
-185.693
-161.247
-135.315
-107.956
-78.8975
-48.7243
-15.7657
12.5158
66.9906
78.8203
91.3184
103.877
115.297
125.717
134.653
141.54
146.342
149.288
150.589
150.503
149.245
146.961
143.769
139.707
134.793
129.034
122.431
114.996
106.769
97.8179
88.2411
78.2239
68.0932
58.2154
48.8895
40.3557
32.8181
26.4492
21.3937
17.7616
15.6319
15.083
16.2417
19.335
24.5737
32.8249
42.5609
50.7062
37.6893
22.5796
6.07034
-10.6975
-28.7074
-47.3611
-66.1865
-85.3247
-104.505
-123.601
-142.62
-161.405
-179.856
-197.822
-215.064
-231.319
-246.29
-259.631
-270.999
-280.061
-286.411
-289.783
-289.982
-286.852
-280.247
-270.191
-257.012
-241.197
-223.163
-203.156
-181.33
-157.842
-132.787
-106.251
-78.0251
-48.6962
-16.926
10.5
62.6089
73.804
85.6582
97.5967
108.479
118.442
127.028
133.694
138.401
141.373
142.806
142.947
142.009
140.128
137.415
133.907
129.616
124.539
118.663
111.983
104.52
96.3189
87.4555
78.0907
68.5309
59.1269
50.1652
41.8849
34.4984
28.1896
23.1151
19.3996
17.1379
16.417
17.3699
20.2079
25.1105
32.7815
41.7147
47.1861
34.87
20.5808
4.99176
-10.7999
-27.7399
-45.255
-62.8922
-80.7991
-98.7174
-116.538
-134.282
-151.816
-169.055
-185.887
-202.11
-217.483
-231.743
-244.575
-255.653
-264.663
-271.214
-275.018
-275.884
-273.659
-268.194
-259.458
-247.671
-233.21
-216.432
-197.583
-176.825
-154.317
-130.17
-104.489
-77.1325
-48.6835
-18.1178
8.42459
58.4646
69.0745
80.333
91.6965
102.075
111.607
119.859
126.306
130.909
133.884
135.416
135.741
135.069
133.532
131.232
128.208
124.468
120.004
114.793
108.817
102.078
94.5999
86.4367
77.7248
68.7476
59.8375
51.2678
43.2731
36.0702
29.8517
24.7849
21.0073
18.6285
17.7443
18.4925
21.0695
25.6248
32.7118
40.8657
43.8524
32.1849
18.6547
3.91463
-10.9768
-26.933
-43.4
-59.9477
-76.7219
-93.4798
-110.124
-126.686
-143.052
-159.156
-174.907
-190.142
-204.645
-218.178
-230.456
-241.176
-250.04
-256.687
-260.812
-262.223
-260.778
-256.323
-248.781
-238.288
-225.117
-209.568
-191.869
-172.186
-150.678
-127.464
-102.672
-76.2179
-48.683
-19.3324
6.30234
54.5522
64.6206
75.3258
86.1531
96.0602
105.183
113.116
119.348
123.839
126.799
128.405
128.877
128.427
127.182
125.239
122.637
119.384
115.469
110.861
105.534
99.4741
92.6876
85.2054
77.1398
68.7495
60.3477
52.1933
44.513
37.5243
31.4257
26.3931
22.5755
20.0956
19.0582
19.6041
21.9161
26.1152
32.6187
40.0185
40.7034
29.6382
16.8131
2.86098
-11.199
-26.2461
-41.7469
-57.2899
-73.0208
-88.7085
-104.267
-119.736
-135.016
-150.057
-164.783
-179.066
-192.718
-205.52
-217.216
-227.529
-236.173
-242.826
-247.17
-249.018
-248.234
-244.664
-238.199
-228.897
-216.949
-202.591
-186.029
-167.423
-146.929
-124.672
-100.798
-75.2793
-48.6904
-20.5603
4.14728
50.8655
60.4297
70.6186
80.9441
90.4074
99.1437
106.771
112.792
117.166
120.097
121.754
122.347
122.079
121.084
119.45
117.215
114.391
110.964
106.902
102.169
96.7415
90.6091
83.783
76.3504
68.5453
60.6609
52.9399
45.5989
38.8524
32.902
27.93
24.095
21.5311
20.3518
20.6992
22.7438
26.5804
32.5051
39.1777
37.7357
27.2318
15.0636
1.84473
-11.4436
-25.6482
-40.2542
-54.8695
-69.6345
-84.3344
-98.8897
-113.347
-127.616
-141.663
-155.427
-168.796
-181.621
-193.7
-204.799
-214.669
-223.038
-229.62
-234.096
-236.28
-236.049
-233.249
-227.745
-219.535
-208.736
-195.526
-180.08
-162.547
-143.076
-121.798
-98.8694
-74.3146
-48.7011
-21.7912
1.97401
47.3958
56.4893
66.1946
76.0485
85.0937
93.4638
100.797
106.612
110.866
113.758
115.449
116.138
116.023
115.237
113.871
111.958
109.51
106.517
102.945
98.754
93.9101
88.3912
82.1907
75.3726
68.1462
60.7829
53.5081
46.5268
40.0475
34.2717
29.3862
25.5564
22.9264
21.6175
21.7719
23.5487
27.0192
32.3736
38.3482
34.9444
24.9648
13.4108
0.877174
-11.6948
-25.1149
-38.8908
-52.6454
-66.5178
-80.3017
-93.9279
-107.445
-120.775
-133.893
-146.754
-159.257
-171.282
-182.653
-193.153
-202.556
-210.607
-217.054
-221.587
-224.022
-224.243
-222.104
-217.451
-210.235
-200.509
-188.397
-174.041
-157.572
-139.13
-118.846
-96.8863
-73.3215
-48.7097
-23.0158
-0.203722
44.1335
52.7877
62.0385
71.4479
80.0982
88.1205
95.172
100.785
104.917
107.762
109.472
110.239
110.252
109.645
108.508
106.876
104.759
102.15
99.0167
95.3158
91.0081
86.0606
80.4519
74.2253
67.5653
60.7209
53.9004
47.2944
41.1039
35.5273
30.7525
26.9506
24.273
22.8479
22.8163
24.3271
27.4306
32.227
37.5339
32.3234
22.8351
11.8572
-0.0351745
-11.938
-24.6272
-37.6302
-50.5857
-63.6284
-76.5645
-89.3291
-101.974
-114.429
-126.68
-138.691
-150.378
-161.636
-172.317
-182.222
-191.145
-198.849
-205.112
-209.637
-212.245
-212.829
-211.251
-207.346
-201.029
-192.3
-181.231
-167.931
-152.51
-135.097
-115.82
-94.8499
-72.2976
-48.7096
-24.2231
-2.37073
41.0704
49.3114
58.1349
67.125
75.4015
83.0917
89.8724
95.2886
99.2994
102.091
103.81
104.636
104.758
104.302
103.363
101.976
100.151
97.8815
95.139
91.8801
88.0614
83.6425
78.5896
72.9274
66.8167
60.4842
54.1205
47.9017
42.0177
36.6616
32.0208
28.2687
25.5619
24.0349
23.826
25.0748
27.8136
32.0676
36.7391
29.8657
20.8398
10.4029
-0.887474
-12.1638
-24.1703
-36.4516
-48.6623
-60.9343
-73.0821
-85.046
-96.8798
-108.522
-119.963
-131.179
-142.095
-152.623
-162.638
-171.958
-180.396
-187.735
-193.773
-198.237
-200.952
-201.818
-200.711
-197.46
-191.949
-184.138
-174.055
-161.772
-147.38
-130.991
-112.726
-92.7621
-71.2397
-48.6945
-25.4027
-4.51253
38.1967
46.0494
54.4692
63.0623
70.9837
78.3576
84.8787
90.1048
93.9942
96.728
98.445
99.3187
99.5312
99.2055
98.4365
97.2632
95.6936
93.7247
91.3301
88.4681
85.0935
81.1601
76.6253
71.498
65.9156
60.0839
54.1749
48.3498
42.7861
37.6695
33.1834
29.502
26.785
25.1709
24.7949
25.7879
28.1673
31.8979
35.9672
27.5648
18.9746
9.04735
-1.67738
-12.366
-23.7328
-35.3392
-46.8551
-58.4081
-69.8217
-81.0416
-92.1206
-103.005
-113.692
-124.161
-134.354
-144.188
-153.561
-162.314
-170.269
-177.231
-183.015
-187.376
-190.14
-191.22
-190.501
-187.813
-183.022
-176.053
-166.894
-155.587
-142.197
-126.82
-109.572
-90.6236
-70.1461
-48.6566
-26.5436
-6.614
35.5037
42.9896
51.0278
59.2438
66.8283
73.9005
80.1717
85.2136
88.9832
91.656
93.3644
94.2742
94.5628
94.3492
93.7264
92.7383
91.3941
89.6905
87.6049
85.0981
82.1248
78.6351
74.5802
69.9554
64.878
59.5317
54.0711
48.6417
43.4082
38.5463
34.2338
30.6429
27.9341
26.2483
25.7167
26.4624
28.4905
31.7195
35.2214
25.4139
17.2345
7.78854
-2.40309
-12.5393
-23.3056
-34.2797
-45.1454
-56.0272
-66.7558
-77.2825
-87.6591
-97.8378
-107.82
-117.593
-127.103
-136.283
-145.043
-153.244
-160.726
-167.305
-172.815
-177.037
-179.804
-181.035
-180.633
-178.43
-174.276
-168.071
-159.775
-149.398
-136.98
-122.6
-106.363
-88.4386
-69.0133
-48.5888
-27.6366
-8.66038
32.9817
40.121
47.7975
55.6562
62.9192
69.7041
75.7349
80.5981
84.2496
86.8594
88.5535
89.4904
89.8421
89.7256
89.2295
88.4022
87.2567
85.7875
83.9755
81.7856
79.1732
76.0874
72.4745
68.3195
63.7203
58.8405
53.8177
48.7823
43.8847
39.2894
35.1665
31.6841
29.0013
27.2596
26.5854
27.0944
28.7826
31.5341
34.5041
23.4053
15.6149
6.62361
-3.06428
-12.6808
-22.8819
-33.2622
-43.5198
-53.7731
-63.8623
-73.7422
-83.4644
-92.9847
-102.309
-111.429
-120.301
-128.864
-137.039
-144.71
-151.728
-157.927
-163.148
-167.206
-169.936
-171.268
-171.118
-169.326
-165.733
-160.221
-152.725
-143.227
-131.746
-118.342
-103.109
-86.208
-67.8396
-48.4847
-28.6706
-10.6385
30.6218
37.4329
44.7668
52.2851
59.2421
65.7523
71.5521
76.2423
79.778
82.3236
83.9991
84.9556
85.3604
85.327
84.9417
84.2546
83.2826
82.02
80.4508
78.5431
76.2544
73.5346
70.3268
66.6076
62.4583
58.0237
53.4249
48.7774
44.2175
39.8971
35.9773
32.6194
29.9795
28.1978
27.395
27.6801
29.0422
31.3428
33.8172
21.5323
14.1103
5.54957
-3.66173
-12.7883
-22.4575
-32.279
-41.9654
-51.6303
-61.1217
-70.3966
-79.5081
-88.4148
-97.1249
-105.635
-113.907
-121.891
-129.511
-136.672
-143.242
-149.064
-153.992
-157.864
-160.527
-161.916
-161.963
-160.516
-157.414
-152.526
-145.767
-137.097
-126.516
-114.061
-99.8184
-83.9359
-66.6223
-48.3347
-29.6369
-12.5354
28.4157
34.9154
41.9236
49.1178
55.7828
62.0303
67.6084
72.131
75.5534
78.0343
79.6878
80.658
81.1071
81.146
80.8567
80.2915
79.471
78.3916
77.0376
75.3806
73.3818
70.9919
68.1532
64.8364
61.1078
57.0946
52.9032
48.6345
44.4103
40.3697
36.663
33.4439
30.8625
29.0565
28.1401
28.2158
29.2686
31.1463
33.1618
19.788
12.7153
4.56332
-4.19722
-12.8608
-22.0276
-31.3232
-40.4726
-49.5852
-58.5163
-67.2264
-75.7667
-84.1004
-92.2372
-100.177
-107.887
-115.325
-122.423
-129.098
-135.234
-140.687
-145.32
-148.995
-151.564
-152.975
-153.171
-152.012
-149.336
-145.007
-138.925
-131.031
-121.306
-109.772
-96.4992
-81.6262
-65.3596
-48.1338
-30.5253
-14.3389
26.3548
32.5586
39.2572
46.1426
52.5287
58.5245
63.8898
68.2503
71.5624
73.9784
75.6072
76.5863
77.072
77.173
76.9694
76.5098
75.8211
74.904
73.7405
72.3061
70.5656
68.4723
65.9688
63.0215
59.6838
56.0672
52.2639
48.3614
44.4676
40.7084
37.2222
34.1533
31.6448
29.8296
28.8154
28.6981
29.4604
30.9449
32.5383
18.1654
11.4246
3.66036
-4.67224
-12.8981
-21.5905
-30.39
-39.034
-47.628
-56.0339
-64.2146
-72.2211
-80.0193
-87.6201
-95.0265
-102.21
-109.136
-115.743
-121.955
-127.675
-132.77
-137.11
-140.578
-143.036
-144.44
-144.744
-143.822
-141.516
-137.684
-132.22
-125.049
-116.136
-105.489
-93.1626
-79.2822
-64.0506
-47.8747
-31.3284
-16.0385
24.4314
30.3539
36.7574
43.3483
49.4675
55.2225
60.3828
64.5875
67.792
70.1436
71.7455
72.7291
73.2457
73.4002
73.2708
72.9053
72.332
71.5562
70.5616
69.325
67.8147
65.9872
63.7869
61.177
58.2006
54.9547
51.5184
47.9672
44.3956
40.9159
37.6544
34.745
32.322
30.5122
29.4165
29.1238
29.6165
30.7385
31.9463
16.6583
10.2326
2.83706
-5.08952
-12.9009
-21.1444
-29.4755
-37.6438
-45.7499
-53.6625
-61.3476
-68.8541
-76.1513
-83.2512
-90.1588
-96.8508
-103.295
-109.441
-115.215
-120.535
-125.285
-129.339
-132.595
-134.928
-136.302
-136.682
-135.953
-133.963
-130.574
-125.671
-119.17
-111.025
-101.226
-89.8175
-76.9091
-62.6946
-47.5516
-32.0385
-17.6248
22.6376
28.2926
34.4147
40.7237
46.5882
52.1122
57.0757
61.1298
64.2296
66.5176
68.0915
69.0765
69.6185
69.819
69.7543
69.4727
68.9998
68.3472
67.5028
66.4414
65.1356
63.5457
61.6186
59.3159
56.6716
53.7698
50.6785
47.4615
44.2009
40.9961
37.9609
35.2175
32.891
31.1001
29.9393
29.4898
29.7355
30.5263
31.3847
15.2599
9.13427
2.08925
-5.45136
-12.8697
-20.6884
-28.5766
-36.2957
-43.9427
-51.3917
-58.612
-65.6504
-72.4791
-79.111
-85.5523
-91.7833
-97.7766
-103.487
-108.85
-113.791
-118.208
-121.984
-125.027
-127.226
-128.552
-128.98
-128.406
-126.688
-123.69
-119.295
-113.414
-105.989
-96.999
-86.4745
-74.5117
-61.2909
-47.1599
-32.649
-19.089
20.9662
26.3662
32.2197
38.2595
43.8799
49.1827
53.957
57.8655
60.8641
63.0894
64.6341
65.6175
66.1802
66.421
66.4128
66.2043
65.8212
65.2767
64.5635
63.6572
62.5331
61.1553
59.4736
57.4493
55.1087
52.5246
49.7552
46.854
43.8912
40.954
38.1436
35.5707
33.3495
31.5903
30.3805
29.7937
29.816
30.3073
30.8518
13.9641
8.12431
1.41314
-5.76065
-12.806
-20.222
-27.6912
-34.9867
-42.2003
-49.2135
-55.9973
-62.5968
-68.9868
-75.181
-81.1866
-86.987
-92.5579
-97.8611
-102.836
-107.417
-111.515
-115.023
-117.856
-119.916
-121.181
-121.634
-121.184
-119.697
-117.043
-113.107
-107.796
-101.043
-92.82
-83.1436
-72.0957
-59.841
-46.6951
-33.1544
-20.4246
19.4102
24.567
30.1639
35.9462
41.333
46.4235
51.0156
54.784
57.6843
59.8478
61.3626
62.3421
62.9217
63.1971
63.2387
63.0947
62.7906
62.3409
61.7422
60.9736
60.011
58.8218
57.3596
55.5866
53.5227
51.2307
48.7597
46.1545
43.4748
40.7956
38.2062
35.8055
33.6968
31.9806
30.7376
30.0332
29.8567
30.0802
30.3452
12.7652
7.19765
0.80446
-6.0201
-12.7113
-19.7455
-26.8181
-33.7129
-40.5185
-47.1212
-53.4948
-59.683
-65.6623
-71.4466
-77.0447
-82.4419
-87.6182
-92.5384
-97.1508
-101.392
-105.185
-108.436
-111.064
-112.983
-114.178
-114.638
-114.284
-112.994
-110.643
-107.12
-102.33
-96.2036
-88.7029
-79.835
-69.6667
-58.3458
-46.1553
-33.5511
-21.6261
17.9626
22.8873
28.2391
33.7749
38.9377
43.8246
48.2416
51.8748
54.6798
56.7826
58.2674
59.2408
59.8342
60.1394
60.2247
60.137
59.9034
59.5364
59.0375
58.3911
57.5713
56.5495
55.2834
53.7364
51.9235
49.8983
47.7026
45.3731
42.96
40.5275
38.1533
35.9244
33.9332
32.2701
31.0087
30.2067
29.8563
29.8431
29.8619
11.6571
6.34937
0.25941
-6.23278
-12.5874
-19.2591
-25.9558
-32.472
-38.8923
-45.1084
-51.0966
-56.8986
-62.4929
-67.8942
-73.1111
-78.1319
-82.9383
-87.5004
-91.7712
-95.6933
-99.1987
-102.203
-104.632
-106.411
-107.529
-107.984
-107.705
-106.581
-104.496
-101.342
-97.0289
-91.4826
-84.6597
-76.5582
-67.2313
-56.8076
-45.5389
-33.8358
-22.6895
16.6173
21.3204
26.4376
31.7373
36.6856
41.3768
45.6253
49.1279
51.8407
53.8843
55.3386
56.3046
56.9086
57.2394
57.3628
57.3248
57.1527
56.8592
56.4485
55.9084
55.2147
54.3412
53.25
51.906
50.3196
48.5372
46.5938
44.5194
42.3557
40.1571
37.9901
35.9308
34.0603
32.459
31.1931
30.313
29.8134
29.5941
29.3986
10.6344
5.57473
-0.226173
-6.40157
-12.4361
-18.7638
-25.1042
-31.2621
-37.3186
-43.1705
-48.7957
-54.2354
-59.4688
-64.5112
-69.3721
-74.0407
-78.5021
-82.7289
-86.6798
-90.3029
-93.5369
-96.3063
-98.5439
-100.186
-101.224
-101.662
-101.44
-100.457
-98.6043
-95.7826
-91.9028
-86.8915
-80.7015
-73.3229
-64.7953
-55.2297
-44.8451
-34.0072
-23.6126
15.368
19.8593
24.7521
29.8256
34.5682
39.0714
43.1576
46.5345
49.1578
51.1434
52.5671
53.5243
54.1366
54.4893
54.6458
54.6515
54.5335
54.3049
53.971
53.5235
52.9414
52.1997
51.2636
50.1009
48.7183
47.1557
45.4424
43.6027
41.6708
39.692
37.7231
35.8292
34.0808
32.5485
31.2909
30.3513
29.727
29.3311
28.9516
9.69195
4.86912
-0.655866
-6.5294
-12.2596
-18.2602
-24.2628
-30.0816
-35.794
-41.3026
-46.5868
-51.6859
-56.5812
-61.2878
-65.8154
-70.1552
-74.2939
-78.2079
-81.8594
-85.2021
-88.1812
-90.7286
-92.784
-94.2929
-95.2495
-95.6638
-95.4843
-94.6195
-92.971
-90.446
-86.9596
-82.4402
-76.8383
-70.1373
-62.3658
-53.6158
-44.0755
-34.0649
-24.3941
14.2089
18.4978
23.1755
28.0323
32.5775
36.9001
40.8301
44.0856
46.6222
48.5513
49.9441
50.8913
51.5095
51.8809
52.0663
52.1103
52.0396
51.8687
51.6014
51.2343
50.7513
50.1258
49.3271
48.3258
47.1261
45.7617
44.2572
42.6321
40.914
39.1405
37.3591
35.625
33.9986
32.5408
31.3028
30.3216
29.5961
29.0517
28.5168
8.82473
4.22797
-1.03355
-6.61908
-12.0598
-17.7494
-23.4315
-28.9291
-34.3167
-39.5014
-44.4645
-49.2437
-53.8219
-58.2142
-62.4304
-66.4627
-70.3006
-73.9222
-77.2946
-80.3752
-83.1144
-85.4528
-87.3361
-88.7168
-89.5929
-89.9784
-89.8298
-89.0654
-87.5957
-85.3355
-82.2053
-78.1366
-73.0786
-67.0101
-59.9491
-51.9702
-43.2321
-34.0104
-25.0351
13.1344
17.2296
21.7015
26.3503
30.7061
34.8552
38.6348
41.7729
44.2257
46.0994
47.4614
48.3976
49.0196
49.4067
49.6172
49.6945
49.6653
49.5443
49.3364
49.0401
48.6426
48.1194
47.4424
46.5847
45.5483
44.3619
43.0459
41.6159
40.094
38.5107
36.9054
35.3243
33.8183
32.4392
31.2307
30.2245
29.4201
28.7539
28.0905
8.02783
3.64719
-1.36274
-6.67371
-11.8387
-17.2327
-22.6105
-27.8041
-32.8843
-37.7635
-42.4241
-46.9027
-51.1837
-55.2817
-59.2066
-62.9524
-66.5093
-69.8588
-72.9703
-75.8072
-78.3217
-80.4632
-82.1851
-83.4442
-84.2414
-84.5949
-84.4684
-83.7889
-82.4761
-80.4523
-77.6441
-73.9865
-69.4297
-63.9485
-57.5519
-50.2981
-42.3185
-33.8461
-25.5372
12.1394
16.0493
20.3238
24.7733
28.9471
32.9293
36.564
39.5888
41.9603
43.7797
45.1111
46.0353
46.6593
47.0594
47.2914
47.3978
47.4049
47.3276
47.1716
46.9367
46.6134
46.1804
45.6112
44.8805
43.9895
42.9622
41.8157
40.5622
39.2191
37.811
36.3699
34.934
33.5456
32.2478
31.0775
30.0611
29.1983
28.4354
27.6685
7.29678
3.12266
-1.64701
-6.6959
-11.5985
-16.7114
-21.8002
-26.7057
-31.4953
-36.0861
-40.4622
-44.6584
-48.6603
-52.4828
-56.1357
-59.6136
-62.909
-66.0045
-68.8735
-71.4825
-73.7886
-75.7468
-77.3166
-78.4604
-79.182
-79.5021
-79.3909
-78.7835
-77.6086
-75.7956
-73.2778
-69.9946
-65.8975
-60.959
-55.1803
-48.6052
-41.339
-33.5759
-25.9034
11.2187
14.9512
19.0368
23.2947
27.2939
31.1155
34.6103
37.5258
39.8184
41.5849
42.8856
43.7969
44.4212
44.8319
45.0824
45.2138
45.2524
45.2132
45.1031
44.921
44.6617
44.3083
43.8338
43.2154
42.4532
41.5677
40.573
39.4782
38.2972
37.0494
35.7605
34.4613
33.1865
31.9714
30.8465
29.8331
28.9307
28.0944
27.2469
6.62708
2.65051
-1.88952
-6.6885
-11.341
-16.1866
-21.0009
-25.6336
-30.1484
-34.467
-38.575
-42.5057
-46.2461
-49.8106
-53.2092
-56.4376
-59.4887
-62.3482
-64.9915
-67.3888
-69.5013
-71.2888
-72.7165
-73.7522
-74.4021
-74.6886
-74.5876
-74.0418
-72.988
-71.3632
-69.107
-66.1634
-62.4866
-58.0472
-52.8406
-46.8971
-40.2991
-33.2047
-26.1386
10.3676
13.9303
17.8345
21.9088
25.74
29.4071
32.7673
35.577
37.7929
39.5075
40.7777
41.6753
42.2985
42.7175
42.9834
43.1365
43.2023
43.1961
43.1253
42.99
42.7867
42.5017
42.11
41.5906
40.9426
40.183
39.3233
38.3709
37.3361
36.2341
35.0851
33.9138
32.7477
31.6156
30.5416
29.5427
28.6179
27.7293
26.8222
6.01479
2.22697
-2.09356
-6.65402
-11.0683
-15.6597
-20.2135
-24.5874
-28.8422
-32.9039
-36.7593
-40.4406
-43.9357
-47.2588
-50.4199
-53.4153
-56.2396
-58.8794
-61.3131
-63.5138
-65.4466
-67.076
-68.3714
-69.3065
-69.8889
-70.1425
-70.0481
-69.5553
-68.6082
-67.1513
-65.1304
-62.4945
-59.2003
-55.2182
-50.5384
-45.18
-39.2047
-32.7385
-26.2481
9.58157
12.9816
16.7119
20.6099
24.2798
27.7981
31.0284
33.7355
35.8771
37.541
38.7808
39.6638
40.2844
40.7095
40.9885
41.16
41.2493
41.2715
41.2348
41.1401
40.9849
40.7588
40.4398
40.0077
39.4602
38.8118
38.0721
37.2465
36.3429
35.3727
34.3517
33.2991
32.2365
31.1863
30.1676
29.193
28.2608
27.3386
26.391
5.45583
1.8486
-2.26214
-6.595
-10.7824
-15.1318
-19.4382
-23.5668
-27.5757
-31.395
-35.0126
-38.4594
-41.7245
-44.8217
-47.7609
-50.5393
-53.1522
-55.5881
-57.8274
-59.846
-61.6125
-63.0953
-64.2683
-65.1107
-65.6304
-65.8523
-65.7617
-65.3149
-64.4623
-63.1552
-61.3457
-58.9877
-56.0407
-52.4758
-48.2791
-43.4601
-38.0627
-32.184
-26.2383
8.85634
12.1006
15.6642
19.3927
22.9074
26.2824
29.3872
31.9954
34.0647
35.6787
36.8881
37.756
38.3726
38.8021
39.0915
39.2785
39.3878
39.4345
39.4271
39.3679
39.2536
39.0778
38.8229
38.4672
38.0078
37.4573
36.8237
36.1108
35.3243
34.4728
33.5681
32.625
31.6599
30.6899
29.7293
28.7871
27.8605
26.9215
25.9503
4.94655
1.51206
-2.39828
-6.51375
-10.4851
-14.6041
-18.6756
-22.5717
-26.3482
-29.9385
-33.332
-36.5585
-39.608
-42.4938
-45.2262
-47.8021
-50.2188
-52.4651
-54.5244
-56.3744
-57.9881
-59.335
-60.3947
-61.1519
-61.614
-61.8062
-61.7179
-61.311
-60.5423
-59.369
-57.7492
-55.6415
-53.009
-49.8232
-46.0675
-41.7436
-36.8801
-31.5489
-26.1166
8.18782
11.2827
14.6863
18.2521
21.6176