/*--------------------------------*- C++ -*----------------------------------*\
| =========                 |                                                 |
| \\      /  F ield         | OpenFOAM: The Open Source CFD Toolbox           |
|  \\    /   O peration     | Version:  2306                                  |
|   \\  /    A nd           | Website:  www.openfoam.com                      |
|    \\/     M anipulation  |                                                 |
\*---------------------------------------------------------------------------*/
FoamFile
{
    version     2.0;
    format      ascii;
    arch        "LSB;label=32;scalar=64";
    class       volSymmTensorField;
    location    "175";
    object      turbulenceProperties:devReff;
}
// * * * * * * * * * * * * * * * * * * * * * * * * * * * * * * * * * * * * * //

dimensions      [0 2 -2 0 0 0 0];

internalField   nonuniform List<symmTensor> 
10720
(
(0.00159863 0.00408509 -1.11959e-21 -0.00172965 -2.16766e-20 0.000131016)
(0.00232152 0.00468316 1.29753e-21 -0.00241548 1.35941e-19 9.39574e-05)
(0.00349796 0.00524149 -2.92755e-20 -0.00368758 -4.18699e-19 0.000189617)
(0.00507332 0.00596796 1.17334e-19 -0.00531005 8.44593e-19 0.000236732)
(0.00717661 0.00660519 -2.17665e-19 -0.00743553 -8.00399e-19 0.00025892)
(0.0100581 0.00698508 -1.68352e-19 -0.0104359 -4.3682e-19 0.00037778)
(0.0138359 0.00710153 3.19959e-19 -0.014306 1.20983e-18 0.000470086)
(0.0185902 0.0066117 -8.10465e-19 -0.0191545 -2.18652e-18 0.000564261)
(0.0244866 0.00515715 -2.00235e-19 -0.025211 5.79887e-19 0.000724473)
(0.031635 0.00249597 6.00476e-19 -0.0325098 1.22352e-18 0.00087476)
(0.0401829 -0.00189013 1.53771e-18 -0.0412457 5.65443e-19 0.00106282)
(0.0505478 -0.00856321 -3.46047e-18 -0.0518353 -3.20595e-18 0.00128751)
(0.0632192 -0.0184076 6.53683e-19 -0.064776 8.46032e-19 0.00155681)
(0.0790821 -0.0329704 2.62201e-18 -0.0809942 1.24429e-18 0.00191211)
(0.0995566 -0.0548051 -3.98401e-18 -0.101967 -6.19547e-18 0.00241052)
(0.126976 -0.0882322 -4.28016e-18 -0.130081 -2.5015e-18 0.00310462)
(0.164588 -0.141058 1.85521e-17 -0.168787 1.71545e-17 0.00419923)
(0.218243 -0.227202 1.77836e-17 -0.224015 3.25869e-17 0.00577175)
(0.297627 -0.374543 -3.39751e-17 -0.305979 -5.19349e-17 0.00835181)
(0.41759 -0.633894 -1.90849e-18 -0.429741 1.41458e-17 0.0121504)
(0.619175 -1.14145 -2.61064e-17 -0.637819 4.74007e-17 0.0186443)
(0.935987 -2.12593 -4.25358e-18 -0.963316 3.79582e-17 0.0273288)
(1.57266 -4.63221 -1.37061e-16 -1.622 -5.10189e-16 0.0493367)
(2.40669 -10.2715 2.9861e-16 -2.49768 4.83972e-16 0.0909948)
(1.68124 -12.5944 3.54098e-17 -1.73957 -6.68293e-16 0.0583282)
(0.635124 -12.4371 3.94544e-16 -0.635226 5.38918e-16 0.000102016)
(-0.115567 -12.1536 -7.38607e-17 0.138759 -7.62569e-17 -0.0231923)
(-0.690177 -12.1997 2.72596e-16 0.711073 2.21065e-16 -0.0208965)
(-1.20152 -12.3151 7.54812e-16 1.21502 1.16735e-15 -0.0134945)
(-1.6662 -12.2463 4.56758e-16 1.67263 1.93823e-15 -0.00643326)
(-2.06805 -11.9379 -1.45198e-15 2.06585 -1.8777e-15 0.00219866)
(-2.38878 -11.4291 -5.10732e-16 2.37834 -7.05235e-16 0.0104381)
(-2.6111 -10.7294 4.13136e-17 2.59564 -4.39976e-15 0.0154621)
(-2.72315 -9.85351 -2.63475e-15 2.70674 -7.12113e-15 0.016416)
(-2.70696 -8.7911 9.95141e-16 2.69174 9.04167e-16 0.0152288)
(-2.55147 -7.5653 1.27658e-15 2.53954 1.15733e-15 0.0119232)
(-2.19237 -5.98795 -1.24483e-16 2.17887 -5.33955e-16 0.0134938)
(-1.69752 -4.44364 -1.62696e-15 1.69579 -1.42459e-17 0.00172949)
(-0.694201 -1.3768 -2.80471e-16 0.696351 -2.82137e-15 -0.00215017)
(0.00095607 0.00356339 2.93403e-21 -0.0010058 5.34311e-20 4.97257e-05)
(0.000554353 0.00306803 -3.90128e-21 -0.000640383 -1.37579e-21 8.60297e-05)
(0.000199025 0.00250646 -2.30581e-20 -0.000243817 -1.3056e-19 4.47918e-05)
(-3.65666e-05 0.00200653 9.29001e-21 4.00122e-06 8.84668e-20 3.25654e-05)
(-0.000142765 0.00153398 2.80159e-21 0.000125626 -1.43219e-20 1.71392e-05)
(-0.000134573 0.00112123 -3.7967e-20 0.000136989 1.19783e-19 -2.41616e-06)
(-4.81746e-05 0.000803458 -1.98856e-19 7.4739e-05 1.59996e-19 -2.65644e-05)
(8.43437e-05 0.000617533 1.39514e-19 -4.75323e-05 -5.64578e-20 -3.68114e-05)
(0.000263375 0.000620537 2.28064e-19 -0.000239922 -1.16393e-19 -2.34533e-05)
(0.000511009 0.00075375 -1.45855e-19 -0.000508914 3.43925e-20 -2.0952e-06)
(0.000863791 0.00105302 -3.93523e-20 -0.000874502 1.78956e-19 1.07116e-05)
(0.00137513 0.00161599 2.50555e-19 -0.00139369 9.80797e-20 1.85528e-05)
(0.00211874 0.00261232 4.59292e-19 -0.00215048 -7.26015e-20 3.17404e-05)
(0.00318421 0.00427819 -1.45787e-20 -0.00323782 -2.53728e-19 5.36117e-05)
(0.00464088 0.00685729 -6.92642e-20 -0.00471859 -1.74173e-19 7.77127e-05)
(0.00650984 0.0106425 3.97051e-20 -0.00662212 -6.08938e-20 0.00011228)
(0.00890355 0.0160676 -2.08022e-19 -0.0090538 6.65665e-19 0.000150254)
(0.0120806 0.0240507 7.49183e-19 -0.0122847 2.68184e-19 0.00020403)
(0.01661 0.0364 3.32335e-19 -0.0168863 -1.2054e-18 0.000276255)
(0.0233326 0.0564797 -1.35008e-18 -0.0237346 -3.32349e-19 0.000401997)
(0.0339113 0.0911197 -4.53549e-18 -0.0345202 -1.97518e-18 0.000608925)
(0.0505016 0.152698 -3.37703e-18 -0.0515103 -8.72828e-19 0.00100873)
(0.0781158 0.271915 6.37883e-18 -0.0799509 -6.22042e-19 0.00183518)
(0.119802 0.502126 -7.84871e-18 -0.123548 1.25149e-18 0.00374648)
(0.189689 1.01311 4.20482e-18 -0.197807 -6.91069e-18 0.00811843)
(0.286856 2.08059 -1.30145e-16 -0.303755 3.38057e-18 0.0168995)
(0.425436 4.6985 -8.07321e-17 -0.465351 1.1576e-17 0.0399154)
(0.432214 9.60764 6.76089e-17 -0.514427 3.21288e-19 0.0822125)
(0.00814213 13.4959 8.82532e-18 -0.113378 -4.95377e-20 0.105236)
(-0.635936 15.1231 6.28007e-17 0.537181 -1.39098e-18 0.0987552)
(-1.28019 15.5449 -4.41954e-16 1.19772 -3.78635e-18 0.0824661)
(-1.87033 15.5586 1.58262e-16 1.80281 2.23087e-17 0.0675222)
(-2.39874 15.3916 -1.90975e-15 2.34277 -1.61027e-16 0.055964)
(-2.85809 15.0865 -3.49109e-15 2.81103 -2.08709e-16 0.0470564)
(-3.24649 14.659 1.07183e-15 3.20602 1.15822e-16 0.0404714)
(-3.56826 14.1312 1.03518e-15 3.53286 1.60431e-16 0.0354016)
(-3.80797 13.4019 1.46418e-15 3.77575 2.64891e-16 0.0322199)
(-3.95334 12.5787 -2.93053e-16 3.92312 -3.78205e-17 0.0302202)
(-3.67967 10.1671 -4.60136e-15 3.67333 -7.92644e-16 0.00634586)
(0.000577112 -0.000452156 1.42368e-22 -0.000519266 3.87594e-21 -5.78468e-05)
(0.000491634 -0.000539275 2.85146e-20 -0.000426064 6.94734e-20 -6.55705e-05)
(0.000371945 -0.000615324 -2.62071e-20 -0.000293289 -4.6428e-20 -7.86555e-05)
(0.000252016 -0.000645524 -1.85213e-20 -0.00016181 -5.1492e-20 -9.02059e-05)
(0.000135271 -0.000639669 1.21148e-19 -3.63909e-05 2.34247e-19 -9.88802e-05)
(2.55899e-05 -0.00060623 4.72297e-20 8.20317e-05 7.33238e-20 -0.000107622)
(-5.79391e-05 -0.000548236 2.23467e-19 0.000173172 2.05682e-19 -0.000115233)
(-0.000114665 -0.000476758 -1.14786e-19 0.000234884 -2.23467e-20 -0.000120218)
(-0.000147862 -0.000403143 1.62993e-19 0.000271609 1.13344e-19 -0.000123747)
(-0.000157238 -0.000334724 -5.64387e-21 0.000282966 2.41134e-22 -0.000125728)
(-0.000150139 -0.000276867 -2.2125e-19 0.000275823 -1.88959e-19 -0.000125685)
(-0.000133191 -0.000236586 2.83887e-19 0.000258006 3.52552e-19 -0.000124814)
(-0.000111713 -0.00021979 1.72556e-19 0.000238945 8.66863e-20 -0.000127232)
(-8.83486e-05 -0.000233928 -3.5624e-20 0.000228067 1.88949e-20 -0.000139719)
(-5.5735e-05 -0.000315705 -2.10295e-19 0.000236215 3.48506e-20 -0.00018048)
(3.24359e-05 -0.000585306 4.35879e-19 0.00026165 4.97012e-19 -0.000294086)
(0.000348899 -0.00135863 7.66299e-19 0.000198107 -8.51073e-19 -0.000547005)
(0.00124193 -0.00317438 -4.13844e-18 -0.000293921 -5.30084e-18 -0.000948009)
(0.00343859 -0.00750308 5.05966e-19 -0.0018914 6.73294e-18 -0.0015472)
(0.00890075 -0.0187924 6.95377e-18 -0.00639283 -1.97589e-18 -0.00250792)
(0.0231821 -0.0511791 1.34605e-17 -0.0191244 5.47766e-18 -0.00405765)
(0.0619609 -0.15156 -2.23836e-17 -0.0556043 -2.0004e-17 -0.00635654)
(0.150081 -0.433385 6.52787e-17 -0.141966 1.48529e-16 -0.00811546)
(0.395523 -1.43897 2.24766e-19 -0.38827 -1.21954e-16 -0.00725257)
(0.613743 -2.96833 -2.40407e-16 -0.625552 1.33407e-16 0.0118086)
(0.667366 -4.59932 -9.87594e-17 -0.707099 -5.41586e-16 0.0397332)
(0.529814 -6.17068 -8.70699e-19 -0.588903 6.444e-17 0.0590881)
(0.2081 -7.38698 -2.70949e-16 -0.272976 -3.79744e-16 0.064876)
(-0.224456 -7.82249 -4.75239e-16 0.166478 -2.51322e-15 0.0579788)
(-0.614445 -7.3575 -1.723e-16 0.576362 -3.19945e-15 0.0380835)
(-0.849054 -6.3373 5.02674e-16 0.838793 4.51935e-15 0.0102617)
(-0.932481 -5.22057 -9.08817e-16 0.947179 -8.09423e-17 -0.014698)
(-0.928764 -4.28875 -7.08139e-15 0.957175 1.29547e-15 -0.0284109)
(-0.882274 -3.57616 8.48933e-15 0.912798 1.48178e-14 -0.0305241)
(-0.821643 -3.03793 -1.43892e-15 0.847171 -7.47827e-16 -0.0255278)
(-0.747447 -2.62105 3.35761e-15 0.7687 -4.8951e-15 -0.0212531)
(-0.700753 -2.33011 -1.4867e-15 0.714669 1.48936e-15 -0.0139159)
(-0.551286 -2.08032 3.25055e-15 0.583731 3.95446e-16 -0.0324445)
(-0.781548 -2.27008 5.6903e-15 0.691762 7.92129e-15 0.0897859)
(0.000641905 -0.000336779 9.34697e-21 -0.000593196 2.21513e-20 -4.87097e-05)
(0.000679202 -0.000216658 -1.27238e-20 -0.000633918 -9.65029e-20 -4.52845e-05)
(0.000685051 -6.92557e-05 -1.89516e-20 -0.000649679 -1.06109e-19 -3.53723e-05)
(0.00064628 9.24146e-05 -7.32761e-21 -0.000621389 1.65606e-19 -2.48912e-05)
(0.000555899 0.000239553 3.11324e-21 -0.000543464 4.03016e-20 -1.24351e-05)
(0.000419566 0.000350902 3.99564e-20 -0.000417208 -1.53366e-19 -2.35743e-06)
(0.000263744 0.000405446 6.56442e-20 -0.000267771 -2.2644e-19 4.02715e-06)
(0.000127056 0.000405792 -3.22744e-19 -0.000136502 1.1142e-20 9.44587e-06)
(1.81166e-05 0.000372555 4.34979e-20 -2.83101e-05 2.10415e-19 1.01936e-05)
(-7.06786e-05 0.000313377 -2.01346e-21 6.53571e-05 -1.23026e-19 5.32152e-06)
(-0.000123988 0.000240592 -7.98141e-20 0.000126405 -7.63938e-20 -2.4174e-06)
(-0.00014262 0.000174403 -5.90689e-20 0.000151715 -8.12282e-20 -9.09412e-06)
(-0.000140242 0.000122759 -1.06853e-20 0.00015365 1.85815e-20 -1.34084e-05)
(-0.000127451 8.54864e-05 3.68237e-20 0.000143257 9.78513e-20 -1.58052e-05)
(-0.000110666 6.0213e-05 6.42396e-20 0.000127607 2.37879e-20 -1.69408e-05)
(-9.3712e-05 4.37145e-05 -9.26009e-20 0.000110887 -3.60363e-21 -1.71745e-05)
(-7.81986e-05 3.33884e-05 8.38584e-20 9.49653e-05 7.51124e-21 -1.67667e-05)
(-6.49429e-05 2.70805e-05 -1.04193e-20 8.08932e-05 -2.78134e-20 -1.59503e-05)
(-5.39382e-05 2.30823e-05 -3.4561e-20 6.88479e-05 5.25664e-20 -1.49097e-05)
(-4.49498e-05 2.04031e-05 -2.62942e-20 5.87936e-05 2.74399e-20 -1.38438e-05)
(-3.77187e-05 1.84206e-05 -6.3147e-20 5.06284e-05 6.7983e-20 -1.29096e-05)
(-3.24474e-05 1.69863e-05 -8.8287e-20 4.48469e-05 4.43271e-20 -1.23995e-05)
(-2.90171e-05 1.60649e-05 -1.2632e-19 4.16575e-05 1.12258e-20 -1.26404e-05)
(-2.67356e-05 1.6078e-05 5.66345e-20 4.05185e-05 4.68036e-21 -1.37829e-05)
(-2.45387e-05 1.79118e-05 -4.09481e-21 3.97793e-05 5.07228e-21 -1.52407e-05)
(-0.00025045 0.000235153 5.64572e-19 0.000432674 1.30132e-19 -0.000182224)
(-0.00128574 0.00149936 2.91049e-18 0.00233714 -1.97251e-19 -0.0010514)
(-0.00911364 0.0129378 1.12581e-18 0.0171401 -3.76743e-19 -0.00802646)
(-0.0269514 0.048357 -7.64067e-19 0.0514653 7.14242e-20 -0.0245138)
(-0.0456472 0.106612 5.1091e-17 0.0864548 2.57859e-18 -0.0408076)
(-0.0586016 0.175634 4.10272e-16 0.106456 7.79716e-18 -0.0478542)
(-0.066629 0.24067 2.43614e-16 0.112215 1.38886e-17 -0.0455857)
(-0.0737928 0.294893 1.78573e-15 0.113021 1.19221e-16 -0.0392281)
(-0.0829197 0.340356 2.57441e-15 0.115852 1.45044e-16 -0.0329323)
(-0.0952476 0.380633 -5.79131e-16 0.123381 -8.7657e-17 -0.0281335)
(-0.109686 0.420717 -4.96597e-16 0.135009 -8.28372e-17 -0.0253228)
(-0.130196 0.461124 -1.24027e-15 0.153136 -5.00402e-16 -0.0229397)
(-0.14869 0.558099 -2.54713e-15 0.17588 -1.40784e-17 -0.02719)
(-0.209728 0.785652 -2.05662e-15 0.198785 1.35033e-15 0.0109427)
(0.000335051 -0.000306097 1.80013e-21 -0.000360419 2.61216e-21 2.53682e-05)
(0.000261024 -0.000365653 -2.74607e-20 -0.000291776 -6.50896e-20 3.07513e-05)
(0.000164909 -0.000407452 -5.85715e-21 -0.000200838 -3.4089e-21 3.59288e-05)
(5.74432e-05 -0.000421168 2.30705e-20 -0.000100976 4.8618e-20 4.35332e-05)
(-4.80328e-05 -0.000409022 -7.15721e-20 -1.45991e-06 -1.44022e-19 4.94927e-05)
(-0.000147666 -0.000369743 -8.11765e-20 9.22135e-05 -1.32591e-19 5.54521e-05)
(-0.000231436 -0.00030719 -1.64991e-19 0.0001694 -2.42795e-19 6.20356e-05)
(-0.000292443 -0.000230792 -1.30289e-20 0.000225065 -2.11042e-21 6.73782e-05)
(-0.00033044 -0.000146697 -7.33054e-20 0.000258456 -1.71775e-19 7.19842e-05)
(-0.000345992 -6.34342e-05 3.02979e-19 0.000269927 3.43494e-19 7.60656e-05)
(-0.000342245 1.33541e-05 -4.9192e-20 0.000263474 6.72753e-20 7.87703e-05)
(-0.000324907 8.01915e-05 3.4443e-20 0.000244891 2.07674e-20 8.00162e-05)
(-0.00030075 0.000135148 -2.31353e-19 0.00022159 -2.93723e-19 7.91604e-05)
(-0.000274172 0.000179995 1.48584e-19 0.000197454 -1.37316e-20 7.67182e-05)
(-0.000247275 0.000214502 4.31389e-20 0.000174706 1.34215e-19 7.25689e-05)
(-0.000218077 0.000234751 5.33687e-20 0.000152442 2.53772e-20 6.5635e-05)
(-0.000175623 0.000226958 -2.42148e-19 0.000122494 -1.40878e-19 5.31292e-05)
(-0.000140985 0.000212629 1.99148e-19 9.93305e-05 1.48932e-19 4.16547e-05)
(-9.35535e-05 0.000160851 4.78256e-20 6.75052e-05 2.39867e-22 2.60484e-05)
(-0.000113511 0.000216331 -2.72439e-19 8.51526e-05 -4.0255e-20 2.83585e-05)
(-0.000102932 0.000213088 3.06985e-19 8.11684e-05 -1.22568e-19 2.17637e-05)
(-0.000178837 0.000398098 1.80752e-20 0.000150142 3.26512e-19 2.86948e-05)
(-1.82081e-05 4.29721e-05 4.65401e-20 1.71815e-05 -7.01971e-20 1.02652e-06)
(0.000361632 -0.0012392 -1.06572e-18 -0.000276255 -1.1434e-18 -8.53767e-05)
(0.00609605 -0.0254087 3.07045e-18 -0.00507226 9.83796e-18 -0.0010238)
(0.0191234 -0.109271 -2.01721e-17 -0.0162792 4.82098e-18 -0.00284419)
(0.034742 -0.306379 1.11028e-17 -0.0300141 7.36189e-19 -0.00472792)
(0.0447031 -0.740133 -9.96337e-18 -0.0384031 5.81506e-17 -0.00629999)
(0.0218959 -1.5549 -3.55329e-16 -0.0152514 1.92839e-16 -0.00664444)
(-0.0812966 -2.73303 1.6737e-16 0.0856663 2.89467e-16 -0.00436974)
(-0.292751 -3.94075 1.37717e-15 0.290812 -5.03881e-16 0.00193954)
(-0.562111 -4.69166 -2.47731e-15 0.551715 1.9498e-15 0.0103964)
(-0.77821 -4.7609 5.13575e-16 0.76397 8.49109e-15 0.0142395)
(-0.876402 -4.35516 -5.62096e-17 0.8665 -5.87184e-15 0.00990197)
(-0.877413 -3.79777 2.89247e-15 0.874117 -2.21892e-15 0.00329605)
(-0.808143 -3.25485 -1.3682e-14 0.810119 5.58197e-16 -0.00197622)
(-0.737836 -2.82746 4.74646e-15 0.737051 -1.59382e-15 0.000784468)
(-0.500718 -2.38787 4.95733e-15 0.514266 -1.50011e-15 -0.0135481)
(-0.782389 -2.64916 -1.00533e-14 0.76608 2.96643e-15 0.0163083)
(0.000395305 -0.000230222 -3.69425e-21 -0.000418394 -7.0197e-21 2.30891e-05)
(0.000434391 -0.000148153 -1.34681e-20 -0.000452823 -1.73919e-20 1.84326e-05)
(0.00045747 -4.77312e-05 5.74355e-20 -0.000471601 1.18878e-19 1.41317e-05)
(0.000451057 5.89836e-05 1.11311e-20 -0.000459889 -1.65836e-20 8.83186e-06)
(0.000410906 0.00016384 7.67393e-21 -0.000415935 -8.8202e-20 5.02903e-06)
(0.000336238 0.000249737 -2.59347e-20 -0.000337921 6.75938e-20 1.68337e-06)
(0.000238253 0.000302706 2.85598e-20 -0.00023788 1.47343e-19 -3.72409e-07)
(0.000136215 0.000318549 1.6042e-19 -0.000137008 1.64359e-19 7.92454e-07)
(4.40052e-05 0.00030738 5.69448e-20 -4.53519e-05 -1.30536e-19 1.34667e-06)
(-3.13309e-05 0.000270953 1.12831e-19 3.02717e-05 6.91881e-20 1.0592e-06)
(-8.003e-05 0.000218211 -8.32682e-20 7.85595e-05 2.17862e-20 1.47052e-06)
(-0.000103172 0.000164133 -1.11197e-20 0.000100439 6.8712e-20 2.73309e-06)
(-0.00010873 0.000116892 7.61402e-21 0.000104377 -6.29789e-20 4.35311e-06)
(-0.000103746 7.88685e-05 1.14667e-19 9.76683e-05 -7.92345e-20 6.07799e-06)
(-9.34568e-05 5.02857e-05 7.49498e-21 8.59602e-05 -1.18993e-20 7.49668e-06)
(-8.13265e-05 2.96249e-05 -1.24471e-20 7.26477e-05 5.09641e-20 8.67886e-06)
(-6.94916e-05 1.52867e-05 8.28235e-20 5.99674e-05 -9.42826e-20 9.52419e-06)
(-5.90272e-05 5.42818e-06 1.30166e-20 4.88978e-05 1.12387e-20 1.01295e-05)
(-5.03992e-05 -1.45779e-06 9.46535e-20 3.99414e-05 -7.17622e-21 1.04578e-05)
(-4.33356e-05 -6.63412e-06 1.00959e-19 3.26443e-05 2.10457e-20 1.06913e-05)
(-3.754e-05 -1.08395e-05 2.58159e-19 2.67273e-05 -3.45257e-20 1.08127e-05)
(-3.2451e-05 -1.47972e-05 3.32856e-19 2.14667e-05 -5.043e-20 1.09842e-05)
(-2.73288e-05 -1.89475e-05 1.97043e-19 1.60648e-05 1.52594e-20 1.1264e-05)
(-2.06924e-05 -2.28362e-05 4.51851e-20 8.65505e-06 -8.92851e-21 1.20373e-05)
(-1.25767e-05 -2.49536e-05 -4.87425e-20 -7.85334e-07 2.23927e-20 1.3362e-05)
(-4.45503e-06 -2.41614e-05 1.82281e-19 -9.95029e-06 -2.80079e-20 1.44053e-05)
(2.49125e-06 -2.25164e-05 -4.91824e-20 -1.84719e-05 -3.98667e-21 1.59807e-05)
(5.62627e-06 -1.36846e-05 -3.1265e-20 -1.78159e-05 5.99703e-22 1.21896e-05)
(6.3594e-05 -8.05548e-05 3.09878e-20 -0.000161308 -7.40694e-22 9.77139e-05)
(0.000508877 -0.000274346 -1.52354e-18 -0.00117259 -4.53346e-20 0.000663709)
(0.00150075 0.000516185 -9.02628e-18 -0.00332708 1.05451e-19 0.00182633)
(0.00234757 0.00503846 -5.65973e-17 -0.00530013 -3.23855e-18 0.00295256)
(0.00181611 0.0162443 -1.37891e-16 -0.00504773 -3.02301e-18 0.00323162)
(-0.000857894 0.035666 -3.41544e-16 -0.00171573 -2.09973e-17 0.00257362)
(-0.00586642 0.0628368 -8.69485e-16 0.00437103 -8.40134e-17 0.0014954)
(-0.0118128 0.0954454 2.18549e-16 0.0113754 -1.32986e-17 0.000437406)
(-0.0197036 0.130394 -1.18519e-15 0.0197134 1.93281e-16 -9.79079e-06)
(-0.00987431 0.15657 2.98422e-15 0.0107289 5.37209e-16 -0.000854589)
(-0.0386904 0.266928 4.68929e-15 0.0306357 9.59427e-16 0.00805471)
(0.000305206 -0.000252689 9.41976e-21 -0.000296282 1.59074e-20 -8.92401e-06)
(0.000259017 -0.00030061 -1.30222e-20 -0.000249127 -2.3416e-20 -9.88974e-06)
(0.000196541 -0.000342129 -5.94507e-21 -0.000183833 -3.71826e-21 -1.27079e-05)
(0.000126453 -0.000369268 7.06934e-20 -0.000111183 1.03134e-19 -1.52695e-05)
(5.38669e-05 -0.000378227 4.53165e-20 -3.56567e-05 8.13897e-20 -1.82102e-05)
(-1.86869e-05 -0.000369205 5.78171e-20 4.03339e-05 1.09239e-19 -2.1647e-05)
(-8.37634e-05 -0.000344061 8.76511e-20 0.000108904 1.01026e-19 -2.51406e-05)
(-0.000136527 -0.000305781 -4.99696e-20 0.000165169 -7.73031e-20 -2.86417e-05)
(-0.00017548 -0.000258928 -1.79596e-19 0.000207895 -1.77445e-19 -3.24149e-05)
(-0.000199279 -0.000208847 2.32357e-19 0.000235094 1.30975e-19 -3.58145e-05)
(-0.000209189 -0.000159444 1.95967e-19 0.000248226 1.65724e-19 -3.9037e-05)
(-0.000207382 -0.000113892 2.53798e-19 0.000249121 1.21644e-19 -4.17388e-05)
(-0.000196312 -7.43026e-05 -4.17056e-19 0.000239934 -1.33781e-19 -4.36225e-05)
(-0.000178899 -4.14467e-05 -3.55639e-19 0.000223255 -2.3845e-19 -4.43563e-05)
(-0.000157243 -1.55448e-05 4.70158e-19 0.000201484 1.47764e-19 -4.42401e-05)
(-0.000133026 6.45085e-06 9.52472e-20 0.000175266 5.84456e-20 -4.22404e-05)
(-0.000107526 2.50336e-05 -7.0678e-20 0.000146006 7.34574e-21 -3.84802e-05)
(-8.46697e-05 4.08473e-05 -2.29829e-19 0.000118428 -1.50611e-19 -3.37582e-05)
(-6.1284e-05 5.19516e-05 5.24394e-20 8.72357e-05 -2.01061e-20 -2.59517e-05)
(-4.60776e-05 6.18312e-05 2.24852e-19 6.48858e-05 6.94147e-20 -1.88082e-05)
(-3.43866e-05 6.55455e-05 -2.66251e-19 4.59323e-05 -7.65244e-20 -1.15457e-05)
(-3.64036e-05 8.94453e-05 1.4715e-19 4.5411e-05 2.05533e-20 -9.00737e-06)
(-3.28433e-05 0.000105967 -4.34978e-20 3.93008e-05 -9.43972e-21 -6.45745e-06)
(-5.38556e-05 0.000267774 -2.10327e-19 6.57267e-05 1.05057e-19 -1.18712e-05)
(-0.000358891 0.00430378 2.30069e-18 0.00053261 -7.4418e-19 -0.000173719)
(0.000332371 0.0105353 -5.44948e-18 9.29336e-05 7.33164e-18 -0.000425305)
(0.000674844 0.00472237 3.64132e-20 -0.000476898 -7.08468e-20 -0.000197946)
(0.00121333 0.00375466 2.25277e-18 -0.00101504 -8.07309e-19 -0.000198288)
(0.00285626 -9.88199e-05 4.17742e-18 -0.00253005 1.01169e-17 -0.000326217)
(0.00821385 -0.0434863 1.67427e-17 -0.00734946 -8.3166e-17 -0.000864391)
(0.00684028 -0.255506 -4.97761e-17 -0.00520958 -2.87213e-16 -0.0016307)
(-0.0377904 -0.815704 1.61686e-15 0.0399606 4.26589e-16 -0.00217018)
(-0.172211 -1.72113 2.47996e-15 0.173522 5.66088e-16 -0.00131049)
(-0.384436 -2.62146 -1.47215e-15 0.382725 -1.97228e-15 0.00171123)
(-0.585621 -3.13512 -6.57014e-15 0.580857 1.3152e-15 0.0047638)
(-0.686734 -3.20625 4.42709e-15 0.683792 4.51242e-15 0.00294225)
(-0.714839 -3.07005 -9.45621e-15 0.710325 -1.31281e-16 0.00451419)
(-0.528533 -2.7547 -1.22877e-14 0.537223 1.78067e-15 -0.00868977)
(-0.741576 -2.95502 8.90121e-15 0.714947 -3.41634e-15 0.0266292)
(0.000340351 -0.000193095 -1.45907e-20 -0.000334441 -2.92827e-20 -5.90984e-06)
(0.000362126 -0.00013021 -5.27105e-21 -0.000357029 2.11712e-20 -5.09691e-06)
(0.000370018 -5.26976e-05 4.82012e-20 -0.000367654 8.98132e-20 -2.36399e-06)
(0.000360016 2.89368e-05 -2.15058e-20 -0.000358954 -2.31047e-22 -1.06169e-06)
(0.000328012 0.000108382 1.78286e-20 -0.000328227 1.12657e-19 2.14298e-07)
(0.000273816 0.000176092 5.61818e-20 -0.000274037 -1.86628e-20 2.2091e-07)
(0.000204249 0.00022325 5.87422e-20 -0.000204038 -1.83775e-21 -2.11254e-07)
(0.000130032 0.000245803 -1.46561e-19 -0.000130168 -8.81678e-20 1.363e-07)
(5.85016e-05 0.000245409 -7.79961e-20 -5.93056e-05 6.99801e-21 8.04e-07)
(-3.26984e-06 0.000224303 1.34882e-19 2.16349e-06 5.69117e-20 1.10635e-06)
(-4.78554e-05 0.000189766 6.123e-20 4.69281e-05 -5.28543e-21 9.27308e-07)
(-7.4767e-05 0.000151411 7.37165e-20 7.43645e-05 -4.51145e-20 4.02412e-07)
(-8.75802e-05 0.000115477 -1.16316e-19 8.79638e-05 -7.13857e-20 -3.83624e-07)
(-9.05654e-05 8.4801e-05 -1.41456e-19 9.18273e-05 2.73925e-20 -1.26195e-06)
(-8.73836e-05 6.04555e-05 1.37083e-20 8.95647e-05 3.62579e-20 -2.18111e-06)
(-8.09927e-05 4.19882e-05 4.33825e-20 8.3994e-05 -1.28794e-20 -3.00127e-06)
(-7.3432e-05 2.85295e-05 -1.08374e-19 7.71692e-05 -7.29887e-21 -3.73721e-06)
(-6.5938e-05 1.88856e-05 -3.58208e-21 7.02779e-05 -1.67308e-20 -4.33985e-06)
(-5.91922e-05 1.18952e-05 -4.12149e-20 6.40235e-05 -7.55791e-21 -4.83127e-06)
(-5.33113e-05 6.50778e-06 8.74752e-20 5.8474e-05 -4.90195e-20 -5.16276e-06)
(-4.82361e-05 2.05152e-06 -9.5557e-20 5.36547e-05 -3.09988e-20 -5.41853e-06)
(-4.36839e-05 -2.04496e-06 -1.97058e-19 4.92884e-05 -2.11638e-20 -5.60459e-06)
(-3.91829e-05 -6.11867e-06 9.6761e-21 4.49539e-05 -2.86616e-20 -5.77104e-06)
(-3.40165e-05 -9.91658e-06 5.10024e-20 3.98939e-05 -2.7634e-20 -5.8774e-06)
(-2.83954e-05 -1.22947e-05 1.53162e-19 3.45452e-05 -1.07798e-20 -6.1498e-06)
(-2.34537e-05 -1.3019e-05 -1.43925e-19 3.02069e-05 -6.95292e-21 -6.75311e-06)
(-1.95569e-05 -1.28593e-05 -2.45424e-20 2.69927e-05 7.00059e-21 -7.43576e-06)
(-1.65641e-05 -1.23436e-05 1.4901e-20 2.46512e-05 1.02709e-21 -8.08711e-06)
(-1.36532e-05 -1.13504e-05 -6.8686e-21 2.19234e-05 -2.22165e-22 -8.2702e-06)
(-1.10411e-05 -1.02931e-05 -1.0154e-20 1.90738e-05 8.46274e-23 -8.03274e-06)
(-7.05732e-06 -7.68628e-06 -1.52149e-20 1.312e-05 -1.20024e-21 -6.06269e-06)
(-4.1126e-06 -5.57093e-06 4.57553e-20 8.44654e-06 1.42228e-21 -4.33394e-06)
(-3.11989e-05 -5.79141e-05 2.12371e-18 8.01965e-05 1.55543e-19 -4.89977e-05)
(1.50213e-06 -3.54843e-05 1.96707e-17 0.00011052 1.75738e-18 -0.000112023)
(0.000247308 0.000663213 8.16019e-17 -0.000149342 1.0189e-17 -9.79661e-05)
(0.000907631 0.00353585 -1.79324e-16 -0.000979842 -2.68855e-17 7.22112e-05)
(0.00158489 0.0116629 7.60114e-16 -0.00209029 1.11975e-16 0.000505406)
(0.00682977 0.0286794 -4.96574e-16 -0.00734263 -1.68773e-16 0.000512853)
(-0.00308529 0.106906 -3.37488e-16 -0.00176536 -1.4112e-15 0.00485065)
(0.000222851 -0.000192069 -1.35321e-20 -0.000225679 -1.97785e-20 2.82729e-06)
(0.00018505 -0.000227637 2.60747e-21 -0.000189179 3.99984e-21 4.12886e-06)
(0.000136065 -0.000257482 1.6143e-20 -0.000140652 1.7611e-20 4.58699e-06)
(8.02895e-05 -0.000275797 -9.86524e-20 -8.61565e-05 -1.38257e-19 5.86697e-06)
(2.18042e-05 -0.000280462 -7.22398e-20 -2.90259e-05 -8.43031e-20 7.22173e-06)
(-3.71195e-05 -0.000270873 1.68278e-19 2.86458e-05 2.00024e-19 8.47371e-06)
(-9.12236e-05 -0.00024769 -1.78345e-19 8.10562e-05 -2.19941e-19 1.01675e-05)
(-0.000136617 -0.000213059 -8.03204e-20 0.000124635 -5.37709e-20 1.19818e-05)
(-0.000171057 -0.000169934 -1.9154e-19 0.000157266 -1.43081e-19 1.37911e-05)
(-0.000193183 -0.000122468 -3.59114e-20 0.000177331 -6.4807e-20 1.5852e-05)
(-0.000203084 -7.40871e-05 2.40394e-20 0.000185177 -8.53831e-21 1.79073e-05)
(-0.000201891 -2.7913e-05 -1.31689e-19 0.000181917 -1.73571e-19 1.99745e-05)
(-0.000191537 1.35317e-05 4.27253e-19 0.000169564 2.92014e-19 2.19722e-05)
(-0.000174388 4.86848e-05 -1.40416e-19 0.000150691 -2.44305e-20 2.36967e-05)
(-0.000152675 7.724e-05 -3.44669e-19 0.00012756 -1.50565e-19 2.51153e-05)
(-0.000128888 9.85171e-05 2.28457e-19 0.000103165 4.43377e-21 2.57229e-05)
(-0.000104687 0.000111535 -1.66071e-19 7.98899e-05 -9.56659e-20 2.47976e-05)
(-8.0616e-05 0.000116995 2.15348e-21 5.77536e-05 1.2171e-19 2.28624e-05)
(-5.7842e-05 0.000116072 -3.97427e-20 3.7657e-05 -3.11867e-20 2.0185e-05)
(-3.72737e-05 0.000108832 -2.78535e-19 2.04744e-05 -1.92708e-19 1.67993e-05)
(-1.91971e-05 8.93136e-05 1.87425e-19 7.39805e-06 1.8281e-19 1.17991e-05)
(-9.19399e-06 7.52476e-05 4.22827e-21 1.33486e-06 -1.256e-19 7.85913e-06)
(-3.72219e-06 6.51118e-05 3.8312e-20 -1.22808e-06 1.17578e-20 4.95027e-06)
(5.69693e-07 7.26849e-05 1.10332e-19 -4.59321e-06 -5.05759e-21 4.02351e-06)
(6.22005e-06 7.8441e-05 -3.72132e-20 -9.48685e-06 -1.20462e-20 3.2668e-06)
(1.11316e-05 8.04122e-05 1.2524e-19 -1.35454e-05 2.02255e-20 2.4138e-06)
(0.000201421 0.00117326 -1.01321e-19 -0.000224072 2.46464e-21 2.26512e-05)
(0.000329668 0.00176362 -3.0059e-19 -0.000348984 -1.90129e-19 1.93156e-05)
(0.00086589 0.00425577 -5.61076e-21 -0.00088648 1.15674e-18 2.05902e-05)
(0.0035858 0.0152813 -4.40319e-17 -0.00358885 3.63612e-18 3.04545e-06)
(0.000975602 0.00327404 -3.61526e-18 -0.000965131 6.17241e-19 -1.04711e-05)
(0.00681709 0.0134064 1.52919e-17 -0.00670955 -9.25575e-17 -0.000107537)
(0.0181048 -0.0224792 3.68709e-16 -0.0176505 -4.67354e-16 -0.00045422)
(0.00250104 -0.298015 -2.14559e-15 -0.0012337 1.10213e-16 -0.00126734)
(-0.100071 -0.967841 3.85451e-15 0.101747 1.49272e-15 -0.00167618)
(-0.284361 -1.80884 -8.20476e-16 0.285627 3.83806e-16 -0.00126598)
(-0.471947 -2.45221 -1.47501e-15 0.469007 3.63908e-15 0.00294005)
(-0.458869 -2.70215 6.60902e-16 0.468024 2.40745e-16 -0.00915489)
(-0.689676 -3.05788 -1.62138e-14 0.654767 4.15182e-15 0.034909)
(0.000252604 -0.000148866 8.68727e-21 -0.000255583 3.18442e-21 2.97897e-06)
(0.00027299 -0.000102685 -3.139e-20 -0.000274632 -4.39613e-20 1.64238e-06)
(0.000283804 -4.60902e-05 3.58422e-21 -0.000285343 2.01718e-20 1.5392e-06)
(0.000280849 1.48609e-05 1.76179e-20 -0.000281639 -5.81349e-20 7.89518e-07)
(0.000261243 7.55e-05 -1.40466e-19 -0.000261774 -1.97375e-19 5.30892e-07)
(0.00022446 0.000129032 -1.43741e-19 -0.000224377 7.63791e-20 -8.31488e-08)
(0.000174697 0.000169123 1.99703e-19 -0.000174374 1.00555e-19 -3.22942e-07)
(0.00011924 0.000192115 -6.54826e-20 -0.000119161 -1.83521e-19 -7.88302e-08)
(6.36535e-05 0.000197878 -8.63455e-20 -6.38215e-05 2.45884e-20 1.67997e-07)
(1.35274e-05 0.000187392 -5.85791e-20 -1.38425e-05 -1.01944e-19 3.1516e-07)
(-2.54021e-05 0.000165237 2.00041e-20 2.51052e-05 3.15325e-20 2.96945e-07)
(-5.16267e-05 0.000137578 -3.97499e-20 5.13428e-05 -4.99701e-20 2.83892e-07)
(-6.65501e-05 0.000109265 -8.23485e-20 6.61973e-05 1.07818e-19 3.5275e-07)
(-7.26857e-05 8.32174e-05 8.78162e-20 7.2176e-05 4.8322e-20 5.09755e-07)
(-7.26184e-05 6.10516e-05 7.33216e-20 7.18874e-05 -3.33693e-20 7.3094e-07)
(-6.87808e-05 4.31571e-05 -1.50707e-20 6.7758e-05 -2.93783e-20 1.02276e-06)
(-6.30155e-05 2.92871e-05 4.37328e-20 6.16723e-05 9.1697e-21 1.34325e-06)
(-5.66437e-05 1.87603e-05 -6.53792e-20 5.49739e-05 1.66335e-20 1.66985e-06)
(-5.04657e-05 1.07923e-05 4.6289e-20 4.84946e-05 -1.4973e-21 1.9711e-06)
(-4.48117e-05 4.58419e-06 -6.05464e-20 4.2562e-05 -2.70575e-20 2.24977e-06)
(-3.97391e-05 -4.84287e-07 5.8892e-20 3.72621e-05 4.30338e-21 2.47704e-06)
(-3.50576e-05 -4.91551e-06 7.81862e-20 3.23899e-05 1.60788e-20 2.66772e-06)
(-3.03884e-05 -8.99405e-06 -5.9397e-21 2.75713e-05 7.01886e-21 2.81708e-06)
(-2.51279e-05 -1.25578e-05 -1.47083e-19 2.21118e-05 7.30038e-22 3.01608e-06)
(-1.92873e-05 -1.48099e-05 -5.43582e-20 1.60396e-05 -2.181e-20 3.24764e-06)
(-1.37076e-05 -1.54947e-05 -1.60848e-20 1.02727e-05 2.31384e-20 3.43484e-06)
(-8.83129e-06 -1.52109e-05 5.96363e-20 5.08985e-06 5.22105e-22 3.74144e-06)
(-4.62264e-06 -1.43565e-05 2.07883e-21 4.55714e-07 -4.06131e-22 4.16692e-06)
(-1.0543e-06 -1.32863e-05 -3.34115e-21 -3.60577e-06 2.23346e-22 4.66008e-06)
(1.79147e-06 -1.13863e-05 3.76663e-20 -6.57969e-06 3.51353e-22 4.78822e-06)
(4.58553e-06 -1.21056e-05 3.37225e-20 -1.03934e-05 1.12919e-21 5.80787e-06)
(3.24756e-06 -5.83068e-06 -8.92403e-20 -6.13075e-06 -5.19685e-21 2.88319e-06)
(1.29977e-05 -1.8899e-05 -8.28904e-19 -2.16626e-05 -6.34893e-20 8.66488e-06)
(3.40091e-06 -4.29806e-06 -4.15854e-20 -5.04221e-06 -3.72402e-21 1.6413e-06)
(0.000248177 -0.000272989 2.07942e-18 -0.000327617 1.08062e-19 7.94397e-05)
(0.000585472 -0.000481346 -9.2915e-18 -0.000678302 3.22753e-18 9.28307e-05)
(0.00027248 -9.86004e-05 -1.34016e-17 -0.000293918 -1.06279e-17 2.14375e-05)
(0.000933422 0.00021266 5.57992e-17 -0.000910402 4.08626e-18 -2.30201e-05)
(0.00389489 0.0202226 -2.96107e-16 -0.00529884 5.18408e-17 0.00140396)
(0.000183905 -0.000157607 1.18991e-20 -0.00018287 1.35948e-20 -1.03553e-06)
(0.000156129 -0.00018635 -2.9788e-20 -0.000155201 -3.52161e-20 -9.28341e-07)
(0.000119408 -0.000211693 -2.33157e-21 -0.000117905 -5.03799e-21 -1.50327e-06)
(7.73605e-05 -0.000229349 -1.21556e-20 -7.55733e-05 -6.72739e-21 -1.7872e-06)
(3.2743e-05 -0.000237252 9.79617e-20 -3.05979e-05 1.11856e-19 -2.14508e-06)
(-1.33839e-05 -0.000235003 7.49457e-20 1.62122e-05 6.19453e-20 -2.82838e-06)
(-5.70228e-05 -0.000222647 1.23917e-21 6.04733e-05 2.98439e-20 -3.45046e-06)
(-9.5242e-05 -0.00020125 1.86388e-19 9.94408e-05 1.79696e-19 -4.19881e-06)
(-0.00012632 -0.000172642 -2.30073e-20 0.000131488 -2.92465e-21 -5.1684e-06)