/*--------------------------------*- C++ -*----------------------------------*\
| =========                 |                                                 |
| \\      /  F ield         | OpenFOAM: The Open Source CFD Toolbox           |
|  \\    /   O peration     | Version:  2306                                  |
|   \\  /    A nd           | Website:  www.openfoam.com                      |
|    \\/     M anipulation  |                                                 |
\*---------------------------------------------------------------------------*/
FoamFile
{
    version     2.0;
    format      ascii;
    arch        "LSB;label=32;scalar=64";
    class       volScalarField;
    location    "175";
    object      turbulenceProperties:k;
}
// * * * * * * * * * * * * * * * * * * * * * * * * * * * * * * * * * * * * * //

dimensions      [0 2 -2 0 0 0 0];

internalField   nonuniform List<scalar> 
10720
(
0.0193037
0.0224869
0.0265386
0.0320148
0.0384622
0.0466265
0.0570128
0.0698301
0.0860688
0.106789
0.133528
0.169008
0.216655
0.282279
0.375466
0.512459
0.72058
1.04962
1.59645
2.53501
4.3377
7.75632
16.3293
35.1986
42.3633
41.5069
40.5103
40.7287
41.2437
41.1946
40.3813
38.913
36.799
34.0656
30.6508
26.6039
21.2453
15.8528
5.14018
0.0164507
0.0141276
0.0115156
0.00926718
0.00713936
0.00521835
0.00367926
0.00278955
0.00306233
0.0042174
0.00626622
0.00936837
0.0138632
0.0202732
0.0292784
0.0419829
0.0602801
0.0876587
0.130542
0.200406
0.32055
0.532526
0.939627
1.71785
3.43391
7.00069
15.7284
32.0622
44.9852
50.4457
51.9776
52.2183
51.9065
51.1641
50.0287
48.5637
46.4225
43.9321
36.0341
0.00308076
0.00306483
0.0030304
0.002944
0.00281009
0.00265547
0.00247259
0.00226667
0.00206247
0.00186133
0.00167113
0.00152663
0.00148707
0.00160665
0.00203066
0.0031043
0.00569173
0.0117331
0.0269721
0.0676569
0.184135
0.540749
1.52243
4.96856
10.105
15.4998
20.6529
24.6363
26.0828
24.6043
21.3095
17.6807
14.6371
12.2904
10.5015
9.09493
8.11711
7.18908
7.96747
0.00305217
0.00300959
0.00292474
0.00279934
0.00262749
0.00240071
0.00213898
0.00188905
0.00164979
0.00141084
0.00118638
0.000992761
0.000828663
0.000688895
0.00057022
0.000470267
0.000385519
0.000313847
0.00025101
0.000193567
0.000136583
8.07203e-05
2.81919e-05
4.60349e-06
1.84487e-05
0.00170251
0.0092894
0.073216
0.240846
0.465026
0.689537
0.885491
1.04943
1.19313
1.32734
1.46575
1.61185
1.94189
2.70611
0.00206527
0.00204763
0.00200027
0.00192838
0.00185306
0.00177016
0.00168615
0.00161043
0.00154518
0.00149416
0.00145502
0.00143012
0.00142213
0.00142997
0.0014394
0.00140851
0.00120868
0.000990003
4.60129e-05
0.000987788
0.00102477
0.00183674
0.00015602
0.00418092
0.0864145
0.368572
1.02635
2.47017
5.18235
9.11322
13.1706
15.7477
16.0757
14.8042
12.9908
11.1791
9.73964
8.13719
9.19983
0.00208213
0.0020802
0.0020749
0.00203847
0.00197245
0.00185967
0.00170639
0.00153526
0.00137609
0.00120863
0.00102957
0.000857127
0.000702827
0.000569764
0.000460013
0.000371661
0.000303045
0.000251179
0.000213615
0.00018678
0.000168423
0.000156671
0.00015042
0.000147287
0.000147562
0.000146887
0.000155996
9.10857e-05
0.000697183
0.00438782
0.0122529
0.0257054
0.0576139
0.119537
0.210216
0.320418
0.439491
0.522949
0.897992
0.00173965
0.00174331
0.00173457
0.00171994
0.00169013
0.00164579
0.00159053
0.00152163
0.00144293
0.00135589
0.00126259
0.00116472
0.00106294
0.000958484
0.000853111
0.000742572
0.000628512
0.000532897
0.000412153
0.000323666
3.86799e-06
0.000163583
2.51578e-05
0.0012714
0.0141449
0.0348906
0.0156753
0.0129645
0.00909187
0.147159
0.851632
2.72164
5.76538
8.83062
10.6291
10.9283
10.5051
9.35224
10.1452
0.00172108
0.00169311
0.00164935
0.00159655
0.00152988
0.00144182
0.00133947
0.00123148
0.00111751
0.000993225
0.000865972
0.000747164
0.00064208
0.00055128
0.000474502
0.00041015
0.000357214
0.000314073
0.000279468
0.000251294
0.000228398
0.000209149
0.000191869
0.000173634
0.000154856
0.000139274
0.000127481
0.000119196
0.000107997
9.70508e-05
6.53338e-05
4.33457e-05
0.000354052
0.000595246
0.0023514
0.0121869
0.0394074
0.0984617
0.357094
0.00130783
0.00130534
0.00129492
0.00127647
0.00124818
0.00120987
0.00116354
0.00110991
0.00105075
0.000989587
0.000928466
0.000869757
0.000815956
0.000768916
0.000729427
0.000697249
0.000664313
0.000623251
0.000574395
0.000510817
0.000378889
0.000265942
7.31552e-06
1.25925e-05
1.20317e-08
0
0.00396165
0.00584866
0.0142346
0.0520701
0.0111957
0.0499451
0.0957155
0.993229
3.2433
6.10342
8.32269
9.13838
10.4374
0.00130436
0.00129509
0.0012767
0.0012472
0.00120538
0.00114637
0.0010762
0.00100114
0.000920547
0.000832007
0.000740202
0.000650507
0.000566161
0.000488594
0.000418959
0.000357778
0.000305214
0.00026103
0.000224717
0.000195169
0.000171376
0.000152036
0.000135752
0.00012023
0.000104419
8.97963e-05
7.82358e-05
7.0299e-05
6.70087e-05
6.17242e-05
7.68141e-05
1.52764e-05
0.000123218
1.8326e-11
0.00136317
0.00267247
0.000992929
0.00313785
0.0694339
0.00107081
0.00107524
0.00107469
0.00107064
0.00106003
0.00104289
0.00101996
0.000990388
0.000954775
0.000914079
0.000868668
0.000819598
0.000768048
0.000714925
0.000661217
0.000606159
0.000546247
0.000483956
0.000425486
0.000373119
0.000330847
0.000294251
0.000241475
0.000149643
1.42264e-07
6.46864e-06
3.17852e-06
1.67465e-07
0
0
0.00195135
0.0186681
0.0795943
0.0625494
0.0922392
0.916958
3.47824
6.63328
9.56162
0.00106119
0.00104793
0.00102863
0.00100293
0.000969633
0.000926117
0.00087647
0.000823035
0.000764482
0.000699952
0.000632531
0.000565504
0.000501345
0.000441506
0.000387071
0.000338764
0.000296802
0.00026105
0.00023109
0.000206148
0.000185343
0.000167558
0.000151553
0.000135588
0.000118945
0.000103062
8.91942e-05
7.75851e-05
6.78532e-05
5.9736e-05
5.28168e-05
4.62499e-05
3.6968e-05
2.24896e-05
1.43054e-06
4.44283e-07
0.000169901
0.000723912
0.00802992
0.000866557
0.000870247
0.000870769
0.000868434
0.000861464
0.000849452
0.000832668
0.000810645
0.000783557
0.000752144
0.000716945
0.000678837
0.000638977
0.000598463
0.000558299
0.000519682
0.000484644
0.000452335
0.000419709
0.00038554
0.000352131
0.000320786
0.000302231
0.000273319
0.000203164
0.000122045
5.25755e-05
2.31184e-06
3.86225e-06
1.07804e-06
0
0
0
0.013784
0.00545027
0.0982605
0.333917
2.77105
7.07781
0.00085947
0.000849904
0.000835985
0.000816609
0.000791293
0.00075911
0.00072325
0.000684004
0.000640567
0.000593103
0.000543262
0.000492885
0.000443481
0.00039607
0.000351565
0.000310698
0.000273875
0.000241332
0.000213073
0.000188771
0.000167957
0.000149932
0.000133794
0.00011828
0.000102715
8.79382e-05
7.49446e-05
6.40194e-05
5.49367e-05
4.75825e-05
4.20955e-05
3.85347e-05
3.65114e-05
3.3844e-05
3.06615e-05
1.33843e-05
1.31591e-06
0
0.00172637
0.00071793
0.000722734
0.000725572
0.000726632
0.000724636
0.000719205
0.000710528
0.000698007
0.000681624
0.000661727
0.000638294
0.000611776
0.000582694
0.000551523
0.000518822
0.000485284
0.000450698
0.000413965
0.000376502
0.000340747
0.000308519
0.000281107
0.000261448
0.000246691
0.000230687
0.000199017
0.000158726
0.000111145
7.02501e-05
1.87002e-05
3.71359e-06
8.07075e-07
0
0
0.000593747
0.000112161
0.0532991
0.438012
3.71284
0.000710654
0.000701891
0.000690133
0.000674271
0.00065429
0.000629774
0.000603115
0.000573663
0.000540954
0.000505546
0.000468186
0.000430023
0.000391993
0.000354792
0.00031916
0.000285801
0.00025515
0.000227572
0.000203202
0.000181901
0.000163321
0.000146934
0.000132013
0.000117605
0.000103202
8.94249e-05
7.70489e-05
6.62958e-05
5.69412e-05
4.8779e-05
4.17533e-05
3.57254e-05
3.05529e-05
2.61499e-05
2.30161e-05
2.00132e-05
1.37516e-05
1.59107e-06
0
0.000598825
0.000603474
0.000606897
0.00060898
0.000608911
0.000606333
0.000601266
0.000593172
0.000581971
0.000567768
0.000550521
0.000530472
0.000507971
0.000483381
0.000457237
0.000429979
0.00040217
0.000374854
0.000348221
0.000322163
0.000297001
0.000273422
0.000252283
0.000233254
0.000214892
0.00019417
0.000171579
0.000150332
0.000129009
0.000100267
6.9722e-05
1.69336e-05
2.61143e-06
0
0
2.72826e-06
0.0117261
0.0706679
1.23192
0.000592425
0.000585027
0.000575471
0.000562543
0.000546715
0.00052784
0.000507505
0.000484967
0.000460031
0.000433254
0.000404989
0.000375889
0.000346519
0.000317306
0.00028876
0.000261413
0.000235689
0.000211924
0.000190336
0.000170957
0.000153638
0.000138044
0.000123671
0.000109877
9.63047e-05
8.33488e-05
7.16457e-05
6.14429e-05
5.26106e-05
4.49974e-05
3.85704e-05
3.33746e-05
2.94052e-05
2.66272e-05
2.50167e-05
2.51751e-05
2.68493e-05
2.81904e-05
1.1542e-06
0.000504742
0.000509305
0.000513167
0.000516134
0.000517518
0.000517179
0.000515043
0.000510634
0.000503884
0.000494785
0.000483178
0.000469187
0.000452984
0.000434744
0.000414756
0.000393306
0.000370838
0.000347366
0.000322939
0.000298475
0.000275191
0.00025397
0.000235019
0.000217244
0.000198621
0.000178231
0.000157512
0.000139587
0.000125698
0.000114568
0.000104476
8.37965e-05
4.76555e-05
3.78979e-06
4.11953e-08
0
0
0.0211678
0.293332
0.000498863
0.000492418
0.000484406
0.000473669
0.000460906
0.000446205
0.000430345
0.000412803
0.000393594
0.000373095
0.000351485
0.000329153
0.000306387
0.000283416
0.000260616
0.000238376
0.00021702
0.000196894
0.000178215
0.000161095
0.000145498
0.000131219
0.000117913
0.000105148
9.26539e-05
8.0717e-05
6.98357e-05
6.02293e-05
5.18041e-05
4.44214e-05
3.80298e-05
3.25989e-05
2.80538e-05
2.44678e-05
2.18216e-05
2.12429e-05
2.07847e-05
3.47286e-05
1.57083e-05
0.000428497
0.000432805
0.000436704
0.000439969
0.000442097
0.000442987
0.000442458
0.000440247
0.000436196
0.000430263
0.000422265
0.00041222
0.000400205
0.000386295
0.000370688
0.000353616
0.000335324
0.000316211
0.000296678
0.000277075
0.000257965
0.000239799
0.0002228
0.000206341
0.000188895
0.000169629
0.000149714
0.000131606
0.00011701
0.000106108
9.81966e-05
9.27142e-05
8.48543e-05
6.34191e-05
8.45969e-07
6.43339e-10
0
0.00141776
0.0864754
0.000423214
0.000417623
0.000410906
0.000401934
0.000391525
0.000379922
0.000367336
0.00035349
0.000338546
0.000322694
0.000306008
0.00028873
0.000271013
0.000252956
0.000234769
0.000216726
0.000199066
0.000182058
0.000165933
0.000150824
0.000136753
0.000123629
0.000111244
9.93233e-05
8.77081e-05
7.66135e-05
6.64237e-05
5.73492e-05
4.93521e-05
4.23411e-05
3.62888e-05
3.12034e-05
2.7082e-05
2.39773e-05
2.18234e-05
2.15008e-05
2.12371e-05
2.99197e-05
3.69705e-05
0.000366225
0.000370257
0.000374071
0.000377434
0.000379989
0.000381653
0.0003823
0.000381636
0.000379521
0.000375936
0.000370751
0.000363851
0.00035526
0.000345013
0.000333199
0.000319951
0.000305455
0.000290016
0.000273715
0.000256856
0.000240117
0.000224048
0.00020884
0.00019402
0.000178434
0.000161323
0.000143449
0.000126696
0.000112469
0.000100945
9.15898e-05
8.49129e-05
8.05411e-05
8.07024e-05
6.41308e-05
3.22841e-06
0
0.0005013
0.0302884
0.000361488
0.00035658
0.000350884
0.000343351
0.000334779
0.000325457
0.000315354
0.000304294
0.000292552
0.000280165
0.000267164
0.000253713
0.000239865
0.000225621
0.000211124
0.000196534
0.000181998
0.000167732
0.000153919
0.000140714
0.000128189
0.000116316
0.000104966
9.398e-05
8.33001e-05
7.30863e-05
6.36403e-05
5.51499e-05
4.76094e-05
4.09541e-05
3.51564e-05
3.02201e-05
2.61199e-05
2.29098e-05
2.05993e-05
1.99365e-05
1.99857e-05
2.54357e-05
4.03833e-05
0.000314758
0.00031848
0.000322109
0.00032542
0.000328139
0.000330216
0.000331552
0.000331875
0.000331104
0.000329119
0.000325818
0.000321187
0.000315086
0.000307531
0.000298577
0.000288297
0.000276799
0.000264328
0.000251053
0.000237201
0.000223177
0.000209393
0.000195977
0.00018264
0.000168619
0.000153365
0.000137424
0.000122277
0.000109113
9.80774e-05
8.86984e-05
8.0882e-05
7.47794e-05
7.12529e-05
7.9386e-05
4.89122e-05
9.53372e-07
0.000109778
0.00923766
0.000310537
0.000306216
0.000301338
0.000294981
0.000287873
0.000280277
0.000272069
0.000263158
0.00025382
0.000244078
0.000233858
0.000223304
0.000212422
0.000201176
0.000189605
0.000177811
0.000165885
0.000153977
0.000142225
0.000130764
0.00011968
0.000108987
9.86328e-05
8.85509e-05
7.87371e-05
6.93335e-05
6.0575e-05
5.26327e-05
4.55286e-05
3.92259e-05
3.37126e-05
2.90065e-05
2.51072e-05
2.20669e-05
1.98964e-05
1.91926e-05
1.92991e-05
2.33832e-05
3.69898e-05
0.00027187
0.000275271
0.000278674
0.000281853
0.000284601
0.000286905
0.000288648
0.000289617
0.000289728
0.00028893
0.000287013
0.00028401
0.000279849
0.000274423
0.000267774
0.000259934
0.000250958
0.000241022
0.000230257
0.000218778
0.000206885
0.000194995
0.000183219
0.000171359
0.000158875
0.000145359
0.00013121
0.000117592
0.000105551
9.52953e-05
8.65005e-05
7.89057e-05
7.25586e-05
6.71003e-05
6.58389e-05
8.04845e-05
1.22324e-05
5.41917e-06
0.00177681
0.000268094
0.000264295
0.000260074
0.00025468
0.000248748
0.00024248
0.000235729
0.000228502
0.000221014
0.000213248
0.000205179
0.000196845
0.000188254
0.000179336
0.000170101
0.00016058
0.000150813
0.000140907
0.000130963
0.000121085
0.000111349
0.000101801
9.2436e-05
8.32575e-05
7.42985e-05
6.5682e-05
5.76042e-05
5.02148e-05
4.35535e-05
3.76069e-05
3.23722e-05
2.78716e-05
2.41035e-05
2.11193e-05
1.89403e-05
1.81266e-05
1.81223e-05
2.16225e-05
3.32057e-05
0.000235841
0.000238926
0.000242086
0.000245078
0.000247765
0.000250153
0.000252109
0.000253472
0.000254178
0.000254152
0.000253261
0.000251451
0.000248715
0.000244902
0.000240018
0.000234092
0.00022715
0.000219278
0.000210624
0.000201259
0.000191341
0.000181223
0.000171006
0.000160553
0.000149501
0.000137562
0.000125026
0.000112805
0.000101801
9.22885e-05
8.40739e-05
7.6982e-05
7.09221e-05
6.61368e-05
6.03e-05
6.92894e-05
5.86563e-05
6.23215e-08
2.15612e-06
0.000232455
0.000229108
0.000225439
0.000220829
0.000215847
0.000210619
0.000205021
0.000199108
0.000193051
0.00018681
0.000180409
0.000173769
0.000166946
0.000159854
0.000152461
0.000144776
0.000136798
0.000128581
0.000120196
0.000111721
0.000103232
9.47764e-05
8.63738e-05
7.80523e-05
6.98921e-05
6.20188e-05
5.45893e-05
4.77333e-05
4.15036e-05
3.5906e-05
3.09483e-05
2.66601e-05
2.30494e-05
2.017e-05
1.80425e-05
1.71709e-05
1.70704e-05
1.99891e-05
2.99019e-05
0.000205355
0.000208153
0.000211061
0.000213845
0.000216428
0.000218803
0.000220855
0.000222451
0.00022354
0.000224044
0.000223883
0.000222944
0.000221217
0.000218661
0.000215172
0.000210773
0.000205475
0.000199311
0.000192418
0.000184814
0.000176586
0.000168016
0.000159212
0.00015009
0.000140385
0.000129898
0.000118847
0.000107942
9.79383e-05
8.91463e-05
8.14698e-05
7.48203e-05
6.91018e-05
6.47102e-05
6.01824e-05
5.72967e-05
7.84742e-05
1.23873e-06
1.04662e-07
0.00020233
0.000199361
0.000196162
0.0001922
0.000187992
0.000183588
0.000178905
0.000174033
0.000169081
0.000164058
0.000158888
0.000153611
0.00014816
0.000142487
0.000136558
0.000130337
0.000123819
0.00011702
0.00010998
0.000102752
9.539e-05
8.79459e-05
8.04507e-05
7.29636e-05
6.5576e-05
5.84113e-05
5.16019e-05
4.52646e-05
3.94594e-05
3.42068e-05
2.95235e-05
2.54437e-05
2.19798e-05
1.91855e-05
1.70844e-05
1.61376e-05
1.59504e-05
1.83626e-05
2.692e-05
0.000179401
0.000181938
0.000184594
0.000187174
0.000189616
0.000191919
0.000193985
0.000195702
0.000197014
0.000197871
0.00019818
0.000197907
0.000196937
0.000195291
0.000192896
0.000189691
0.000185699
0.000180929
0.000175482
0.000169368
0.000162618
0.000155429
0.000147913
0.000140024
0.000131573
0.000122413
0.000112716
0.000103033
9.39929e-05
8.59124e-05
7.87718e-05
7.25225e-05
6.71558e-05
6.27492e-05
5.9857e-05
5.32123e-05
7.2762e-05
1.46007e-05
8.37988e-08
0.000176706
0.00017407
0.000171261
0.000167841
0.000164265
0.000160524
0.000156578
0.000152533
0.000148466
0.000144364
0.000140179
0.000135954
0.000131564
0.000127009
0.000122234
0.000117198
0.00011187
0.000106256
0.000100364
9.42261e-05
8.78798e-05
8.13628e-05
7.47153e-05
6.80099e-05
6.13515e-05
5.48516e-05
4.8632e-05
4.27949e-05
3.7403e-05
3.24886e-05
2.80759e-05
2.42029e-05
2.08879e-05
1.81857e-05
1.61211e-05
1.51109e-05
1.48458e-05
1.68102e-05
2.41653e-05
0.000157191
0.000159483
0.000161899
0.00016428
0.00016656
0.000168765
0.000170786
0.000172539
0.000173978
0.000175058
0.000175699
0.000175868
0.000175488
0.000174507
0.000172945
0.000170675
0.000167727
0.000164093
0.000159837
0.000154968
0.000149485
0.000143498
0.000137136
0.000130374
0.00012307
0.000115117
0.00010665
9.80977e-05
8.99773e-05
8.25962e-05
7.59944e-05
7.01469e-05
6.5112e-05
6.07926e-05
5.81921e-05
5.30366e-05
6.02962e-05
4.66973e-05
5.79931e-07
0.000154786
0.000152442
0.000149968
0.000147002
0.000143944
0.000140742
0.000137398
0.000134013
0.000130646
0.000127265
0.000123876
0.000120436
0.000116905
0.000113221
0.000109358
0.000105269
0.000100914
9.62817e-05
9.13629e-05
8.61664e-05
8.07189e-05
7.50515e-05
6.91964e-05
6.32198e-05
5.72333e-05
5.13602e-05
4.57014e-05
4.03454e-05
3.53555e-05
3.0772e-05
2.66254e-05
2.29561e-05
1.97874e-05
1.7174e-05
1.51421e-05
1.40701e-05
1.37324e-05
1.53252e-05
2.16148e-05
0.000138091
0.000140154
0.000142355
0.000144534
0.000146657
0.000148735
0.000150685
0.000152418
0.000153912
0.000155119
0.000155977
0.000156438
0.000156489
0.000156009
0.000155052
0.000153533
0.000151408
0.000148691
0.000145405
0.000141571
0.00013716
0.000132223
0.00012689
0.000121149
0.000114888
0.000108027
0.000100672
9.31585e-05
8.5908e-05
7.92074e-05
7.31377e-05
6.7704e-05
6.29716e-05
5.89058e-05
5.59886e-05
5.29909e-05
5.20746e-05
5.85012e-05
1.71194e-05
0.000135942
0.000133852
0.000131667
0.000129088
0.000126451
0.000123699
0.000120846
0.000117996
0.000115184
0.000112389
0.000109606
0.000106791
0.000103936
0.000100935
9.77989e-05
9.44741e-05
9.09116e-05
8.70875e-05
8.29851e-05
7.86015e-05
7.39416e-05
6.90262e-05
6.38853e-05
5.85893e-05
5.32429e-05
4.7957e-05
4.28246e-05
3.79255e-05
3.33221e-05
2.90593e-05
2.51723e-05
2.17027e-05
1.86789e-05
1.61546e-05
1.41572e-05
1.30307e-05
1.26261e-05
1.39073e-05
1.92586e-05
0.000121592
0.000123449
0.000125449
0.000127441
0.000129402
0.00013135
0.000133197
0.000134882
0.000136379
0.000137647
0.000138633
0.000139307
0.000139636
0.000139562
0.000139044
0.000138102
0.000136624
0.000134634
0.000132133
0.00012915
0.000125644
0.000121618
0.000117187
0.000112356
0.000107033
0.000101155
9.48052e-05
8.82417e-05
8.18074e-05
7.57623e-05
7.02117e-05
6.51927e-05
6.0753e-05
5.69757e-05
5.38382e-05
5.18882e-05
4.84885e-05
5.50276e-05
3.79818e-05
0.000119672
0.000117806
0.000115871
0.000113623
0.000111332
0.000108954
0.000106508
0.000104089
0.000101724
9.93968e-05
9.70877e-05
9.47805e-05
9.24465e-05
9.00025e-05
8.74461e-05
8.47298e-05
8.18069e-05
7.8647e-05
7.52242e-05
7.15277e-05
6.75563e-05
6.33157e-05
5.88248e-05
5.41497e-05
4.9391e-05
4.46489e-05
4.00095e-05
3.55438e-05
3.13111e-05
2.73582e-05
2.37237e-05
2.0449e-05
1.75677e-05
1.51309e-05
1.31682e-05
1.19931e-05
1.15279e-05
1.25588e-05
1.71e-05
0.000107286
0.000108959
0.00011077
0.000112589
0.000114394
0.000116204
0.00011794
0.000119553
0.000121018
0.000122302
0.00012336
0.000124167
0.000124685
0.000124898
0.000124718
0.000124185
0.000123228
0.000121814
0.000119952
0.000117672
0.00011492
0.000111675
0.00010803
0.000104002
9.95163e-05
9.45165e-05
8.90666e-05
8.33668e-05
7.76932e-05
7.22751e-05
6.72293e-05
6.26171e-05
5.84746e-05
5.49459e-05
5.18266e-05
5.00153e-05
4.68896e-05
4.88085e-05
4.62878e-05
0.00010557
0.000103901
0.000102185
0.000100219
9.82175e-05
9.61512e-05
9.40441e-05
9.19798e-05
8.9978e-05
8.80247e-05
8.60942e-05
8.41922e-05
8.22603e-05
8.02739e-05
7.81725e-05
7.594e-05
7.35325e-05
7.09173e-05
6.80643e-05
6.49532e-05
6.1572e-05
5.79243e-05
5.40206e-05
4.99121e-05
4.56878e-05
4.14473e-05
3.72683e-05
3.32111e-05
2.9331e-05
2.56751e-05
2.22839e-05
1.91985e-05
1.64564e-05
1.41053e-05
1.21784e-05
1.09618e-05
1.04431e-05
1.12756e-05
1.51264e-05
9.48363e-05
9.63433e-05
9.79868e-05
9.96396e-05
0.000101298
0.000102972
0.000104592
0.000106118
0.00010753
0.000108797
0.000109881
0.000110762
0.000111414
0.000111805
0.000111902
0.000111665
0.000111112
0.000110155
0.000108807
0.000107094
0.000104963
0.000102382
9.94174e-05
9.60903e-05
9.23439e-05
8.81243e-05
8.34766e-05
7.85572e-05
7.35862e-05
6.87611e-05
6.42028e-05
5.99854e-05
5.61473e-05
5.28317e-05
4.98598e-05
4.78789e-05
4.54996e-05
4.42568e-05
4.57899e-05
9.33053e-05
9.18087e-05
9.02832e-05
8.85587e-05
8.68035e-05
8.50008e-05
8.31763e-05
8.14033e-05
7.96974e-05
7.80435e-05
7.64271e-05
7.48389e-05
7.32334e-05
7.16052e-05
6.98634e-05
6.80233e-05
6.60363e-05
6.38659e-05
6.1483e-05
5.8865e-05
5.59953e-05
5.28647e-05
4.94783e-05
4.58785e-05
4.2146e-05
3.83685e-05
3.46143e-05
3.09385e-05
2.73908e-05
2.40178e-05
2.08604e-05
1.79588e-05
1.53521e-05
1.30849e-05
1.1194e-05
9.94237e-06
9.37861e-06
1.00596e-05
1.33326e-05
8.39702e-05
8.53285e-05
8.68156e-05
8.83179e-05
8.98368e-05
9.13771e-05
9.28831e-05
9.43145e-05
9.56589e-05
9.68865e-05
9.79681e-05
9.88845e-05
9.96176e-05
0.000100131
0.000100423
0.000100417
0.000100149
9.95585e-05
9.86184e-05
9.73585e-05
9.57384e-05
9.37178e-05
9.13351e-05
8.86169e-05
8.55182e-05
8.19857e-05
7.80497e-05
7.38316e-05
6.95049e-05
6.52371e-05
6.11446e-05
5.73076e-05
5.37718e-05
5.06581e-05
4.78618e-05
4.57345e-05
4.37776e-05
4.13095e-05
4.24875e-05
8.26032e-05
8.12612e-05
7.99023e-05
7.83838e-05
7.68387e-05
7.52608e-05
7.3672e-05
7.21419e-05
7.06792e-05
6.92702e-05
6.79045e-05
6.6562e-05
6.52354e-05
6.38658e-05
6.24378e-05
6.09081e-05
5.92561e-05
5.74493e-05
5.54559e-05
5.32523e-05
5.08189e-05
4.81395e-05
4.52107e-05
4.20668e-05
3.8777e-05
3.54211e-05
3.20565e-05
2.87349e-05
2.55003e-05
2.23966e-05
1.94636e-05
1.67396e-05
1.42642e-05
1.20792e-05
1.02249e-05
8.94346e-06
8.34001e-06
8.91052e-06
1.17112e-05
7.446e-05
7.56835e-05
7.70282e-05
7.83938e-05
7.9779e-05
8.1194e-05
8.25857e-05
8.39215e-05
8.51877e-05
8.63627e-05
8.74176e-05
8.83414e-05
8.91132e-05
8.97107e-05
9.01213e-05
9.02994e-05
9.02446e-05
8.99319e-05
8.93154e-05
8.84197e-05
8.7216e-05
8.56638e-05
8.37738e-05
8.15792e-05
7.90401e-05
7.61072e-05
7.27985e-05
6.92068e-05
6.54662e-05
6.17177e-05
5.80673e-05
5.45973e-05
5.13558e-05
4.84448e-05
4.58103e-05
4.36334e-05
4.17795e-05
3.90822e-05
3.90533e-05
7.32363e-05
7.20363e-05
7.08223e-05
6.94818e-05
6.81178e-05
6.6731e-05
6.53421e-05
6.40127e-05
6.27502e-05
6.15419e-05
6.03794e-05
5.92456e-05
5.81279e-05
5.69781e-05
5.57942e-05
5.45094e-05
5.3132e-05
5.16256e-05
4.99579e-05
4.81043e-05
4.6042e-05
4.37506e-05
4.12213e-05
3.84797e-05
3.55858e-05
3.2609e-05
2.96041e-05
2.66105e-05
2.3669e-05
2.08202e-05
1.81011e-05
1.55481e-05
1.32005e-05
1.10964e-05
9.27864e-06
7.97216e-06
7.33471e-06
7.82628e-06
1.02471e-05
6.6115e-05
6.7217e-05
6.84317e-05
6.96726e-05
7.09339e-05
7.22305e-05
7.35121e-05
7.47513e-05
7.59374e-05
7.70491e-05
7.80648e-05
7.89738e-05
7.97594e-05
8.04046e-05
8.08929e-05
8.11995e-05
8.1299e-05
8.12071e-05
8.08463e-05
8.02395e-05
7.93763e-05
7.8208e-05
7.67302e-05
7.49782e-05
7.29211e-05
7.05084e-05
6.77478e-05
6.47091e-05
6.14962e-05
5.82236e-05
5.4988e-05
5.18671e-05
4.89094e-05
4.62037e-05
4.37168e-05
4.15606e-05
3.96733e-05
3.70373e-05
3.6056e-05
6.50189e-05
6.39452e-05
6.2859e-05
6.16733e-05
6.0466e-05
5.9242e-05
5.80242e-05
5.68647e-05
5.57682e-05
5.47255e-05
5.37278e-05
5.27619e-05
5.18077e-05
5.08436e-05
4.98448e-05
4.8771e-05
4.762e-05
4.63601e-05
4.49612e-05
4.33958e-05
4.16433e-05
3.96822e-05
3.75009e-05
3.51159e-05
3.2578e-05
2.99446e-05
2.7266e-05
2.4574e-05
2.19052e-05
1.92952e-05
1.6779e-05
1.43901e-05
1.21661e-05
1.01413e-05
8.35986e-06
7.03224e-06
6.36608e-06
6.81007e-06
8.93436e-06
5.87746e-05
5.97688e-05
6.08657e-05
6.19901e-05
6.31384e-05
6.43231e-05
6.55005e-05
6.66443e-05
6.77496e-05
6.87933e-05
6.97602e-05
7.06397e-05
7.14204e-05
7.2086e-05
7.26211e-05
7.30227e-05
7.32362e-05
7.32918e-05
7.31354e-05
7.27562e-05
7.2162e-05
7.1309e-05
7.01762e-05
6.88006e-05
6.71539e-05
6.51883e-05
6.29034e-05
6.03512e-05
5.76115e-05
5.47741e-05
5.19232e-05
4.91311e-05
4.64461e-05
4.39399e-05
4.15979e-05
3.94925e-05
3.75584e-05
3.50032e-05
3.34273e-05
5.77943e-05
5.68326e-05
5.5859e-05
5.48085e-05
5.37373e-05
5.26539e-05
5.15827e-05
5.05656e-05
4.96088e-05
4.87032e-05
4.78418e-05
4.70129e-05
4.61944e-05
4.53787e-05
4.45287e-05
4.36366e-05
4.26653e-05
4.16017e-05
4.04204e-05
3.90956e-05
3.76056e-05
3.5928e-05
3.40478e-05
3.19758e-05
2.97531e-05
2.74301e-05
2.50462e-05
2.26309e-05
2.02143e-05
1.78277e-05
1.55038e-05
1.3272e-05
1.1167e-05
9.22033e-06
7.4755e-06
6.12944e-06
5.43872e-06
5.86281e-06
7.76313e-06
5.23061e-05
5.3202e-05
5.41925e-05
5.52103e-05
5.62542e-05
5.73353e-05
5.84132e-05
5.94672e-05
6.04907e-05
6.14655e-05
6.23771e-05
6.32182e-05
6.39792e-05
6.46463e-05
6.52094e-05
6.56581e-05
6.59628e-05
6.61231e-05
6.6118e-05
6.59171e-05
6.5534e-05
6.49331e-05
6.40867e-05
6.30238e-05
6.17234e-05
6.01397e-05
5.82667e-05
5.61409e-05
5.3822e-05
5.13804e-05
4.88856e-05
4.64019e-05
4.39764e-05
4.1668e-05
3.94667e-05
3.74277e-05
3.54757e-05
3.29771e-05
3.10418e-05
5.14285e-05
5.05675e-05
4.96941e-05
4.87607e-05
4.78087e-05
4.6847e-05
4.59016e-05
4.50071e-05
4.4168e-05
4.33766e-05
4.26276e-05
4.19109e-05
4.1208e-05
4.0509e-05
3.97843e-05
3.90345e-05
3.82035e-05
3.73035e-05
3.63039e-05
3.51814e-05
3.39155e-05
3.24823e-05
3.0863e-05
2.9065e-05
2.712e-05
2.50718e-05
2.29536e-05
2.07896e-05
1.86048e-05
1.6427e-05
1.42841e-05
1.22027e-05
1.02134e-05
8.34424e-06
6.63607e-06
5.2723e-06
4.55794e-06
4.98667e-06
6.72639e-06
4.65957e-05
4.74017e-05
4.82961e-05
4.92163e-05
5.01646e-05
5.11503e-05
5.21346e-05
5.31031e-05
5.40465e-05
5.49525e-05
5.5806e-05
5.66027e-05
5.73331e-05
5.79888e-05
5.85598e-05
5.90349e-05
5.93986e-05
5.96305e-05
5.97464e-05
5.96847e-05
5.94693e-05
5.90694e-05
5.84566e-05
5.76504e-05
5.66374e-05
5.53761e-05
5.38535e-05
5.20959e-05
5.01463e-05
4.80584e-05
4.58895e-05
4.3694e-05
4.15113e-05
3.93966e-05
3.73365e-05
3.53739e-05
3.34315e-05
3.0988e-05
2.88369e-05
4.5808e-05
4.50374e-05
4.42542e-05
4.34231e-05
4.25758e-05
4.17214e-05
4.08839e-05
4.00941e-05
3.93548e-05
3.86597e-05
3.80048e-05
3.73802e-05
3.67725e-05
3.61667e-05
3.55509e-05
3.49044e-05
3.41994e-05
3.34355e-05
3.25885e-05
3.16361e-05
3.05569e-05
2.93293e-05
2.79333e-05
2.6372e-05
2.46713e-05
2.28673e-05
2.09876e-05
1.90521e-05
1.70811e-05
1.50981e-05
1.31265e-05
1.11895e-05
9.31373e-06
7.52235e-06
5.85174e-06
4.46944e-06
3.72805e-06
4.18294e-06
5.81397e-06
4.15443e-05
4.22707e-05
4.30766e-05
4.39092e-05
4.47695e-05
4.56657e-05
4.65639e-05
4.74504e-05
4.83178e-05
4.91553e-05
4.99504e-05
5.06986e-05
5.13942e-05
5.20283e-05
5.25946e-05
5.30803e-05
5.34852e-05
5.37687e-05
5.39572e-05
5.40069e-05
5.39202e-05
5.36785e-05
5.32534e-05
5.26603e-05
5.18857e-05
5.08931e-05
4.9668e-05
4.82269e-05
4.65996e-05
4.48257e-05
4.29505e-05
4.102e-05
3.90674e-05
3.71352e-05
3.52183e-05
3.33367e-05
3.1426e-05
2.90498e-05
2.67802e-05
4.08371e-05
4.0148e-05
3.94457e-05
3.87038e-05
3.7949e-05
3.71892e-05
3.64453e-05
3.57458e-05
3.50919e-05
3.4479e-05
3.39033e-05
3.33559e-05
3.28265e-05
3.2298e-05
3.177e-05
3.12091e-05
3.06172e-05
2.99628e-05
2.92392e-05
2.84268e-05
2.75046e-05
2.64507e-05
2.52462e-05
2.38905e-05
2.24035e-05
2.08167e-05
1.91512e-05
1.74231e-05
1.56484e-05
1.38461e-05
1.20365e-05
1.0238e-05
8.47362e-06
6.7612e-06
5.13062e-06
3.72851e-06
2.95237e-06
3.45562e-06
5.01838e-06
3.70691e-05
3.77238e-05
3.84496e-05
3.92028e-05
3.99828e-05
4.07961e-05
4.16146e-05
4.24241e-05
4.32201e-05
4.39914e-05
4.47287e-05
4.54277e-05
4.60837e-05
4.66893e-05
4.72403e-05
4.77259e-05
4.81428e-05
4.84697e-05
4.87053e-05
4.88343e-05
4.88444e-05
4.87241e-05
4.84488e-05
4.8027e-05
4.74481e-05
4.66798e-05
4.57062e-05
4.45355e-05
4.31881e-05
4.16921e-05
4.00815e-05
3.83924e-05
3.66538e-05
3.48983e-05
3.31206e-05
3.13299e-05
2.94682e-05
2.71762e-05
2.48614e-05
3.64347e-05
3.58181e-05
3.51889e-05
3.45253e-05
3.38526e-05
3.31757e-05
3.25141e-05
3.18926e-05
3.13127e-05
3.07695e-05
3.02607e-05
2.97796e-05
2.93153e-05
2.88549e-05
2.83934e-05
2.79098e-05
2.74069e-05
2.68408e-05
2.62212e-05
2.55267e-05
2.47371e-05
2.38311e-05
2.27905e-05
2.1613e-05
2.03142e-05
1.89186e-05
1.74448e-05
1.59039e-05
1.43088e-05
1.26744e-05
1.10172e-05
9.35222e-06
7.69777e-06
6.06715e-06
4.4812e-06
3.05851e-06
2.23324e-06
2.81105e-06
4.33476e-06
3.30994e-05
3.36891e-05
3.43427e-05
3.50234e-05
3.57298e-05
3.64678e-05
3.72116e-05
3.79499e-05
3.86785e-05
3.93868e-05
4.00675e-05
4.07169e-05
4.13311e-05
4.19044e-05
4.2433e-05
4.29102e-05
4.33286e-05
4.36771e-05
4.39412e-05
4.41336e-05
4.42167e-05
4.41897e-05
4.40322e-05
4.3747e-05
4.3325e-05
4.27395e-05
4.19744e-05
4.10312e-05
3.99232e-05
3.86694e-05
3.7294e-05
3.5825e-05
3.42833e-05
3.26954e-05
3.10543e-05
2.93634e-05
2.75644e-05
2.53672e-05
2.30684e-05
3.25303e-05
3.19782e-05
3.14146e-05
3.08214e-05
3.02209e-05
2.96173e-05
2.90281e-05
2.84747e-05
2.79588e-05
2.7476e-05
2.70251e-05
2.65989e-05
2.6189e-05
2.57879e-05
2.53807e-05
2.4968e-05
2.4522e-05
2.40439e-05
2.35108e-05
2.29139e-05
2.22349e-05
2.14542e-05
2.05537e-05
1.95298e-05
1.83955e-05
1.71697e-05
1.5867e-05
1.44953e-05
1.30643e-05
1.15856e-05
1.00721e-05
8.53612e-06
6.99114e-06
5.44627e-06
3.91244e-06
2.47191e-06
1.57123e-06
2.25996e-06
3.75945e-06
2.95728e-05
3.01043e-05
3.06928e-05
3.13073e-05
3.19464e-05
3.26152e-05
3.32905e-05
3.39625e-05
3.46279e-05
3.52765e-05
3.59028e-05
3.65036e-05
3.70755e-05
3.76145e-05
3.81168e-05
3.85779e-05
3.89888e-05
3.93507e-05
3.96346e-05
3.98599e-05
4e-05
4.00434e-05
3.99761e-05
3.97984e-05
3.95026e-05
3.90661e-05
3.84724e-05
3.77201e-05
3.68155e-05
3.57705e-05
3.46017e-05
3.33291e-05
3.19688e-05
3.05379e-05
2.90305e-05
2.74421e-05
2.57218e-05
2.36327e-05
2.13907e-05
2.90629e-05
2.85689e-05
2.80639e-05
2.75334e-05
2.69972e-05
2.64586e-05
2.59332e-05
2.544e-05
2.498e-05
2.45496e-05
2.41481e-05
2.37699e-05
2.34074e-05
2.30531e-05
2.2697e-05
2.23343e-05
2.19483e-05
2.15406e-05
2.10752e-05
2.05604e-05
1.99756e-05
1.9302e-05
1.85229e-05
1.76335e-05
1.66428e-05
1.55668e-05
1.44161e-05
1.31966e-05
1.19153e-05
1.05811e-05
9.20368e-06
7.79224e-06
6.35719e-06
4.90385e-06
3.43416e-06
1.98886e-06
9.6849e-07
1.81786e-06
3.28901e-06
2.64371e-05
2.69151e-05
2.7445e-05
2.79998e-05
2.85774e-05
2.91827e-05
2.97953e-05
3.04063e-05
3.10125e-05
3.16055e-05
3.21801e-05
3.27337e-05
3.32636e-05
3.37667e-05
3.424e-05
3.46799e-05
3.50801e-05
3.54375e-05
3.57386e-05
3.59795e-05
3.61565e-05
3.62503e-05