/*--------------------------------*- C++ -*----------------------------------*\
| =========                 |                                                 |
| \\      /  F ield         | OpenFOAM: The Open Source CFD Toolbox           |
|  \\    /   O peration     | Version:  2306                                  |
|   \\  /    A nd           | Website:  www.openfoam.com                      |
|    \\/     M anipulation  |                                                 |
\*---------------------------------------------------------------------------*/
FoamFile
{
    version     2.0;
    format      ascii;
    arch        "LSB;label=32;scalar=64";
    class       volScalarField;
    location    "175";
    object      turbulenceProperties:I;
}
// * * * * * * * * * * * * * * * * * * * * * * * * * * * * * * * * * * * * * //

dimensions      [0 0 0 0 0 0 0];

internalField   nonuniform List<scalar> 
10720
(
0.00417898
0.00414931
0.00416546
0.0042899
0.00444955
0.00467529
0.00498447
0.00536598
0.00583843
0.00642018
0.00712956
0.00800862
0.00911496
0.0105304
0.0123895
0.0148946
0.0183781
0.0234016
0.0310491
0.0432356
0.0650354
0.105571
0.198151
0.373756
0.465021
0.441615
0.393021
0.355663
0.33094
0.314989
0.304506
0.297589
0.293796
0.292123
0.292341
0.294565
0.30212
0.313628
0.430422
0.00423639
0.00440164
0.00459533
0.00504041
0.00579049
0.00726279
0.0107086
0.0172075
0.0124908
0.00839314
0.00718393
0.00699932
0.00728269
0.00785823
0.00865782
0.00967916
0.0109649
0.0126104
0.0147643
0.0176272
0.0215485
0.0269126
0.0347201
0.0457574
0.0634367
0.0893569
0.132716
0.188324
0.222237
0.234948
0.238748
0.24037
0.241578
0.242612
0.243583
0.244683
0.24611
0.249523
0.256232
0.00184156
0.00168475
0.00154394
0.00141149
0.00128884
0.00117891
0.00107834
0.000985768
0.000903701
0.000830116
0.000764758
0.000713772
0.000689816
0.000703715
0.000778244
0.000949363
0.00127262
0.00181633
0.00275229
0.00438982
0.00737802
0.0131033
0.0233024
0.0456683
0.0712312
0.0963457
0.121248
0.143827
0.15928
0.164335
0.160616
0.152823
0.145236
0.139751
0.137147
0.13759
0.14591
0.158506
0.294391
0.00201201
0.00222574
0.00251484
0.00292977
0.00355386
0.00453458
0.00600583
0.00717009
0.00614691
0.0042788
0.00302959
0.00227947
0.00179726
0.00146217
0.00121532
0.00102548
0.000873366
0.00074786
0.000638807
0.00053828
0.000435366
0.000323124
0.000184799
7.24956e-05
0.000141562
0.00133329
0.00306669
0.00851486
0.0153448
0.0212844
0.0259657
0.0295575
0.0323971
0.0348602
0.0372071
0.0396752
0.0425146
0.0476879
0.0613424
0.00159599
0.00146875
0.00134442
0.00122772
0.00112735
0.00103834
0.000961241
0.000897389
0.000845305
0.000804398
0.000772773
0.000749957
0.000735811
0.000729313
0.000726238
0.000714977
0.000660201
0.000595897
0.000127978
0.000589247
0.000594114
0.000785482
0.000226809
0.00117754
0.00545174
0.0115979
0.0200918
0.0326095
0.0499411
0.0709205
0.092301
0.109761
0.120344
0.124902
0.126821
0.128664
0.13534
0.14292
0.234149
0.00174336
0.00191873
0.00216087
0.00248457
0.00291948
0.00348175
0.00409654
0.00444181
0.00414961
0.00338844
0.00263791
0.0020635
0.00164362
0.00133226
0.00109815
0.000918837
0.000781027
0.000675025
0.000594676
0.000533677
0.000488076
0.000454639
0.000431338
0.000414572
0.000404831
0.000395942
0.000401613
0.000303068
0.000830556
0.00207003
0.0034462
0.00498629
0.0074777
0.0108203
0.014463
0.018061
0.0215584
0.0240527
0.0339788
0.00150255
0.00139728
0.00129592
0.00120375
0.00111944
0.0010411
0.000969799
0.000904156
0.00084398
0.000788545
0.000737287
0.00068949
0.000644225
0.000600806
0.000558733
0.00051574
0.000471394
0.000433034
0.000381463
0.000339708
3.73797e-05
0.000244408
9.60603e-05
0.000683812
0.00229518
0.00365281
0.00249155
0.0023088
0.00197331
0.00814557
0.0203189
0.03826
0.0597134
0.0804243
0.0969495
0.108871
0.120941
0.132446
0.197499
0.00161434
0.00174483
0.00191088
0.00212913
0.00239912
0.00270871
0.00300097
0.00315114
0.00303168
0.00266792
0.0022341
0.00184942
0.00154165
0.00130163
0.00111488
0.000967896
0.000851413
0.000758167
0.000683152
0.000621564
0.000570564
0.000527227
0.000488905
0.000451674
0.000415953
0.000386428
0.000363618
0.000346969
0.000326899
0.000307607
0.000251191
0.000204137
0.000583496
0.000758497
0.00151564
0.0034796
0.00635403
0.0102463
0.0208579
0.00132434
0.00123791
0.00115285
0.00107249
0.000998412
0.000928554
0.00086403
0.000804874
0.000750612
0.000701717
0.000658024
0.000619492
0.000586291
0.000558516
0.000536004
0.000518417
0.000502393
0.000484725
0.000464947
0.000439345
0.000380129
0.000320623
5.3616e-05
7.10432e-05
2.22534e-06
0
0.00132574
0.00164255
0.00260807
0.00506908
0.00238815
0.0051384
0.00730753
0.0245859
0.0475144
0.0714383
0.0941862
0.114571
0.167268
0.00141661
0.00152127
0.00165085
0.00180967
0.00198995
0.00217678
0.00233668
0.00241456
0.002357
0.00216477
0.00190501
0.00164239
0.00140756
0.00120773
0.00104105
0.000902724
0.000788089
0.00069321
0.000614925
0.000550166
0.0004966
0.000451836
0.000413528
0.000378058
0.000343586
0.000312063
0.000286408
0.000267846
0.000258782
0.000246501
0.000273668
0.000121765
0.000345855
1.337e-07
0.00115885
0.00163483
0.00101008
0.00182614
0.00908072
0.00120323
0.00113499
0.00106655
0.00100193
0.00094197
0.000884981
0.000832003
0.000782789
0.000736916
0.000694348
0.000654683
0.000617667
0.000583164
0.00055093
0.000520793
0.000491921
0.00046232
0.000432371
0.000404244
0.000378727
0.000357886
0.000339619
0.000310412
0.000247373
7.75458e-06
5.33948e-05
3.83254e-05
9.01289e-06
0
0
0.00104186
0.00328903
0.00692017
0.00625522
0.00781311
0.0258957
0.0551819
0.0869538
0.13719
0.0012738
0.00135178
0.00144597
0.00155809
0.00167865
0.00179675
0.00189367
0.00193997
0.00190826
0.00179662
0.00163389
0.00145455
0.00128156
0.00112555
0.000989835
0.000873979
0.000776065
0.000693816
0.00062495
0.000567142
0.000518288
0.000476228
0.000438808
0.000403277
0.000368319
0.000335675
0.000306914
0.00028227
0.000261104
0.00024303
0.000227315
0.000212129
0.000189593
0.000148184
3.75519e-05
2.10855e-05
0.000417938
0.000877806
0.00307178
0.00108175
0.00102651
0.000970201
0.000916098
0.000865479
0.000816594
0.000770454
0.000727123
0.000686178
0.000647751
0.0006117
0.000577907
0.000546445
0.000517341
0.000490608
0.000466419
0.000445419
0.000427011
0.00040952
0.000391991
0.000375198
0.000359585
0.000351392
0.000337573
0.000295338
0.000233372
0.000156688
3.3663e-05
4.46081e-05
2.41819e-05
0
0
0
0.00304538
0.00196092
0.0085321
0.0164679
0.0518301
0.103867
0.00113809
0.00119892
0.00127069
0.00135296
0.00143714
0.00151627
0.00157983
0.00160968
0.00159055
0.00152141
0.00141551
0.00129124
0.00116349
0.00104142
0.000929741
0.000830118
0.000742547
0.000666377
0.000600589
0.000543858
0.000494871
0.000452153
0.000414046
0.000378396
0.000343886
0.000311493
0.000282548
0.000257439
0.000235814
0.000217641
0.000203568
0.000194181
0.00018891
0.000182216
0.000174227
0.000115959
3.68404e-05
0
0.00142104
0.000980117
0.000935991
0.000890322
0.000846017
0.00080439
0.000763824
0.000725353
0.000689041
0.000654529
0.000621947
0.000591088
0.000561837
0.000534171
0.000508002
0.000483264
0.000459976
0.000437724
0.000415629
0.000394014
0.000373801
0.00035577
0.000340627
0.000330401
0.000323838
0.000317273
0.000299864
0.00027342
0.000234039
0.00019053
0.00010079
4.61356e-05
2.21392e-05
0
0
0.00066215
0.000296738
0.00667139
0.0199392
0.0685952
0.00102433
0.00107127
0.0011258
0.00118675
0.00124706
0.00130232
0.00134627
0.00136667
0.00135448
0.00130939
0.00123784
0.00115012
0.00105555
0.000960956
0.000870817
0.000787592
0.000712282
0.000645226
0.000586169
0.000534427
0.000489071
0.000448981
0.000412803
0.000378873
0.000346182
0.000315436
0.000287621
0.00026293
0.000240869
0.000221006
0.000203258
0.000187381
0.000173133
0.000160424
0.000151153
0.000141961
0.000119198
4.12437e-05
0
0.000889346
0.000853663
0.000816241
0.000779475
0.000744743
0.000710546
0.000677808
0.000646649
0.000616748
0.000588226
0.000560957
0.000534836
0.000509878
0.000486052
0.00046339
0.000441885
0.000421586
0.000402809
0.000385452
0.000369247
0.000354155
0.000340412
0.000328506
0.000318359
0.000309163
0.000298554
0.000286066
0.000273488
0.000259077
0.000233873
0.000200052
0.000101354
4.10259e-05
0
0
4.68387e-05
0.00320177
0.0080482
0.0375318
0.000924636
0.000961512
0.00100381
0.00104991
0.00109437
0.00113449
0.00116606
0.00118058
0.00117251
0.00114188
0.00109207
0.00102901
0.000958491
0.000885241
0.00081284
0.000743638
0.000679039
0.000619809
0.000566209
0.000518096
0.000475023
0.000436268
0.000400858
0.000367619
0.000335793
0.000305794
0.000278461
0.000254076
0.000232334
0.00021294
0.000195914
0.000181573
0.000170234
0.000162203
0.00015786
0.000159462
0.000166748
0.000173733
3.6573e-05
0.000810277
0.000781378
0.000750732
0.000720355
0.000691479
0.000662858
0.000635298
0.000608933
0.000583503
0.000559122
0.000535657
0.000513029
0.00049125
0.000470283
0.00045013
0.000430792
0.000412334
0.000394563
0.000377292
0.000360824
0.000345688
0.000332316
0.000320835
0.000310574
0.000300102
0.000288412
0.000275983
0.000265036
0.000256932
0.000250935
0.000245563
0.000225823
0.000175289
5.10301e-05
5.51644e-06
0
0
0.00447636
0.0179794
0.000838473
0.000867618
0.000900731
0.00093611
0.000969566
0.0009996
0.00102294
0.00103358
0.00102811
0.00100661
0.000970994
0.000924862
0.000871804
0.000814965
0.00075706
0.000700054
0.000645309
0.000593829
0.000546128
0.000502403
0.000462541
0.000426127
0.000392499
0.000360855
0.000330624
0.00030211
0.00027598
0.000252475
0.000231332
0.000212231
0.00019508
0.000179894
0.000166636
0.00015578
0.000147674
0.000146684
0.000146862
0.000192948
0.000134596
0.000740518
0.000716978
0.000691731
0.000666485
0.000642391
0.000618326
0.000594958
0.000572531
0.000550752
0.000529744
0.000509384
0.000489583
0.000470361
0.000451682
0.000433565
0.000416044
0.000399139
0.000382939
0.000367532
0.000352976
0.00033947
0.000327178
0.000316186
0.000306042
0.000295561
0.000283773
0.000271001
0.000258898
0.000249157
0.000242538
0.000238932
0.000238224
0.000234382
0.000208936
2.49785e-05
7.15917e-07
0
0.00116882
0.00973789
0.000763229
0.000786491
0.000812761
0.000840322
0.000865961
0.000888981
0.000906622
0.000914589
0.000910825
0.000895334
0.000869277
0.000834944
0.000794635
0.000750413
0.000704166
0.000657418
0.000611333
0.000566863
0.000524674
0.000485128
0.000448321
0.000414106
0.000382097
0.00035178
0.000322809
0.00029543
0.00027016
0.000247257
0.000226561
0.000207855
0.000191108
0.000176452
0.000164096
0.000154517
0.000147934
0.000147789
0.000148608
0.000179194
0.000205997
0.000678947
0.000659704
0.000638849
0.000617825
0.000597706
0.000577471
0.000557752
0.000538723
0.000520134
0.000502131
0.00048463
0.000467488
0.00045073
0.000434337
0.000418314
0.000402689
0.0003875
0.000372841
0.000358643
0.000344971
0.000332142
0.000320413
0.000309853
0.000300082
0.000290144
0.000279156
0.000267238
0.000255608
0.000245563
0.000237626
0.000231634
0.000228714
0.000228952
0.000236169
0.000217717
5.06903e-05
0
0.000695095
0.00576185
0.000697349
0.000716022
0.000737062
0.000758809
0.000778776
0.00079669
0.000810286
0.000816367
0.000813722
0.000802302
0.000782855
0.000756927
0.000726003
0.000691394
0.000654448
0.000616248
0.000577681
0.00053959
0.0005026
0.000467187
0.000433605
0.000401875
0.00037179
0.000343071
0.000315592
0.000289557
0.000265388
0.000243324
0.000223275
0.000205065
0.000188642
0.000174098
0.000161523
0.000151341
0.000143973
0.000142518
0.000144309
0.000165301
0.000214793
0.000624302
0.000608499
0.00059121
0.000573654
0.000556806
0.000539756
0.000523081
0.000506925
0.000491096
0.000475653
0.000460559
0.000445741
0.000431132
0.000416729
0.000402547
0.000388613
0.000374956
0.000361681
0.00034882
0.000336435
0.000324711
0.000313841
0.000303844
0.00029444
0.000284929
0.000274623
0.000263573
0.000252742
0.000243203
0.000235318
0.000228843
0.000223952
0.000221209
0.0002224
0.000242624
0.000197498
2.88066e-05
0.000324229
0.0031724
0.000639304
0.000654394
0.000671369
0.000688719
0.000704486
0.000718608
0.00072923
0.000733953
0.000732028
0.000723474
0.000708702
0.000688831
0.000664859
0.000637649
0.000608061
0.000576867
0.000544722
0.000512287
0.000480106
0.000448638
0.000418206
0.000388942
0.000360809
0.000333722
0.000307691
0.000282936
0.000259801
0.000238521
0.000219067
0.00020132
0.000185262
0.000171013
0.00015873
0.000148835
0.000141744
0.00014004
0.00014195
0.000158556
0.000205103
0.000575621
0.000562589
0.000548217
0.000533527
0.0005194
0.000505038
0.00049093
0.000477228
0.000463739
0.000450572
0.000437594
0.000424798
0.000412153
0.000399589
0.000387132
0.000374808
0.000362642
0.00035073
0.000339114
0.000327813
0.000316975
0.000306832
0.000297397
0.000288445
0.000279431
0.000269807
0.000259585
0.000249528
0.000240575
0.000233087
0.000226916
0.000221949
0.000218499
0.000216292
0.000221307
0.000253629
0.000103166
7.18334e-05
0.00138397
0.000587889
0.000600162
0.000613939
0.000627905
0.0006405
0.000651741
0.000660107
0.000663839
0.000662412
0.000655838
0.000644482
0.000629057
0.000610299
0.000588752
0.000565008
0.000539547
0.000512812
0.000485313
0.000457487
0.000429732
0.000402363
0.000375592
0.000349491
0.000324129
0.000299621
0.000276195
0.000254164
0.000233745
0.000214958
0.000197734
0.000182066
0.000168075
0.000155892
0.000145906
0.000138543
0.000136297
0.000137687
0.000152522
0.000193899
0.000532056
0.000521267
0.000509297
0.000496972
0.000485114
0.00047301
0.000461071
0.000449449
0.000437976
0.000426732
0.000415634
0.00040461
0.000393688
0.000382761
0.000371844
0.000360979
0.000350188
0.000339532
0.000329097
0.000318898
0.000309009
0.000299652
0.000290841
0.00028239
0.000273893
0.000264919
0.000255459
0.00024611
0.000237679
0.000230552
0.000224672
0.000220007
0.00021664
0.000215209
0.000212121
0.000235545
0.000225933
7.68981e-06
4.79306e-05
0.000542111
0.00055214
0.000563387
0.000574701
0.000584854
0.000593865
0.000600516
0.00060348
0.000602389
0.000597255
0.000588424
0.000576285
0.000561459
0.000544293
0.000525149
0.000504348
0.000482159
0.00045892
0.000434963
0.000410615
0.000386179
0.000361879
0.000337841
0.000314201
0.000291193
0.000269091
0.000248163
0.000228614
0.000210502
0.000193801
0.000178529
0.000164817
0.000152808
0.000142889
0.000135463
0.000132851
0.000133758
0.000146688
0.000183607
0.000492895
0.00048395
0.000473959
0.000463604
0.000453651
0.000443446
0.00043335
0.000423505
0.000413763
0.000404181
0.000394721
0.00038525
0.00037581
0.000366371
0.000356864
0.000347339
0.000337821
0.000328346
0.000319023
0.000309844
0.000300853
0.000292247
0.000284063
0.000276157
0.000268206
0.000259875
0.000251148
0.000242492
0.000234581
0.000227801
0.000222162
0.000217706
0.000214486
0.000213367
0.00021225
0.000214367
0.00026129
3.42407e-05
1.0503e-05
0.000501167
0.000509375
0.000518604
0.000527818
0.000536064
0.000543324
0.000548634
0.000551
0.000550117
0.000546089
0.000539047
0.00052946
0.00051763
0.000503842
0.000488345
0.000471297
0.000452873
0.00043328
0.000412743
0.000391506
0.000369814
0.000347887
0.000325878
0.000303996
0.00028252
0.000261751
0.000241939
0.000223286
0.000205878
0.000189726
0.000174868
0.000161439
0.000149577
0.000139653
0.000132056
0.000128982
0.000129414
0.000140622
0.000173853
0.000457552
0.000450131
0.000441775
0.000433076
0.000424719
0.000416117
0.000407587
0.000399262
0.000390992
0.00038285
0.000374771
0.000366703
0.000358573
0.000350423
0.000342198
0.00033388
0.000325517
0.000317138
0.000308841
0.000300629
0.00029252
0.000284664
0.00027712
0.000269785
0.0002624
0.000254701
0.000246674
0.000238685
0.000231295
0.000224874
0.000219481
0.000215176
0.000212113
0.00021062
0.000212026
0.000206755
0.000251513
0.000117406
9.35177e-06
0.00046438
0.000471115
0.000478701
0.000486239
0.000492971
0.000498837
0.00050309
0.000504976
0.000504253
0.000500997
0.000495342
0.000487682
0.000478137
0.00046699
0.000454373
0.000440373
0.000425062
0.00040857
0.000391017
0.000372576
0.000353429
0.000333754
0.000313717
0.000293558
0.000273602
0.000254149
0.000235457
0.000217714
0.000201026
0.000185439
0.000171006
0.000157867
0.000146164
0.000136255
0.000128512
0.000124994
0.000124963
0.000134566
0.00016439
0.000425542
0.000419377
0.000412383
0.00040508
0.00039806
0.000390822
0.000383623
0.000376591
0.000369592
0.000362689
0.000355826
0.000348945
0.000342007
0.000334979
0.000327893
0.000320667
0.000313361
0.000305995
0.000298651
0.000291345
0.000284078
0.000276945
0.000270039
0.000263285
0.000256472
0.000249393
0.000242035
0.000234687
0.000227815
0.000221763
0.000216635
0.000212489
0.000209551
0.000207837
0.000209419
0.000206592
0.000228861
0.000209659
2.44878e-05
0.00043118
0.000436711
0.000442962
0.000449146
0.000454659
0.000459404
0.000462817
0.000464307
0.000463685
0.000460997
0.000456441
0.000450192
0.000442466
0.000433371
0.000423039
0.000411497
0.000398758
0.000384879
0.000369912
0.000353946
0.000337118
0.000319571
0.000301444
0.000282961
0.000264473
0.000246326
0.000228754
0.000211934
0.000195986
0.000180981
0.000166988
0.000154146
0.000142601
0.000132692
0.000124774
0.000120786
0.000120288
0.000128495
0.000155177
0.000396446
0.000391319
0.000385476
0.000379339
0.000373459
0.000367372
0.000361315
0.000355386
0.000349479
0.000343643
0.000337832
0.000331973
0.000326083
0.000320051
0.000313955
0.000307734
0.000301382
0.000294945
0.000288477
0.000282014
0.00027554
0.000269111
0.000262837
0.00025667
0.000250431
0.000243954
0.000237234
0.000230501
0.000224139
0.000218464
0.000213609
0.000209647
0.000206791
0.000205131
0.000205787
0.000206691
0.000212599
0.000234285
0.000132451
0.000401098
0.000405639
0.000410793
0.000415881
0.000420391
0.000424235
0.000426967
0.000428134
0.000427568
0.000425334
0.000421579
0.000416438
0.000410135
0.000402647
0.000394139
0.000384593
0.000373974
0.000362284
0.000349531
0.000335751
0.00032101
0.000305409
0.000289067
0.000272214
0.000255189
0.000238326
0.000221859
0.000205961
0.00019076
0.000176347
0.000162802
0.000150263
0.000138877
0.000128966
0.000120866
0.000116405
0.000115436
0.000122409
0.000146208
0.00036991
0.00036565
0.000360773
0.000355626
0.000350708
0.000345608
0.000340517
0.000335538
0.000330568
0.000325652
0.000320748
0.000315797
0.000310795
0.000305685
0.000300444
0.00029512
0.000289629
0.000284031
0.000278362
0.000272676
0.000266949
0.000261199
0.00025554
0.00024995
0.000244278
0.000238389
0.00023228
0.000226136
0.000220274
0.000214979
0.0002104
0.000206636
0.000203848
0.000202302
0.000202178
0.000204722
0.000205069
0.000226834
0.000196425
0.000373745
0.000377466
0.000381716
0.000385908
0.000389586
0.000392695
0.000394875
0.000395765
0.000395231
0.000393339
0.000390191
0.000385941
0.000380727
0.000374545
0.000367499
0.000359561
0.000350677
0.000340817
0.000329943
0.000318057
0.000305187
0.00029138
0.000276717
0.000261408
0.000245786
0.000230168
0.000214787
0.000199807
0.00018536
0.000171546
0.000158457
0.000146223
0.000134997
0.000125075
0.000116776
0.00011183
0.000110387
0.00011632
0.000137532
0.000345634
0.000342106
0.000338041
0.000333735
0.000329634
0.000325372
0.000321109
0.000316945
0.000312782
0.000308659
0.000304543
0.000300379
0.000296149
0.000291842
0.00028737
0.000282812
0.000278113
0.000273273
0.000268339
0.000263375
0.000258341
0.000253237
0.000248172
0.000243143
0.000238025
0.000232702
0.000227176
0.000221594
0.000216221
0.000211308
0.00020701
0.000203446
0.000200739
0.000199239
0.000198755
0.000201189
0.000201587
0.000213258
0.000215917
0.000348789
0.000351828
0.000355331
0.000358783
0.000361772
0.000364272
0.000365999
0.000366659
0.000366141
0.000364509
0.000361833
0.000358285
0.000353911
0.000348798
0.000342909
0.000336264
0.0003288
0.000320464
0.000311195
0.000300955
0.00028973
0.000277546
0.000264447
0.000250599
0.000236304
0.000221887
0.000207567
0.000193495
0.000179799
0.000166586
0.000153954
0.000142026
0.000130957
0.000121011
0.000112499
0.00010706
0.000105143
0.000110209
0.000129139
0.000323363
0.000320449
0.000317078
0.000313482
0.000310081
0.000306533
0.000302981
0.000299515
0.000296047
0.00029261
0.000289172
0.000285686
0.000282143
0.000278508
0.000274753
0.000270857
0.000266868
0.000262716
0.000258453
0.000254141
0.000249744
0.000245251
0.000240754
0.000236264
0.000231683
0.000226906
0.000221932
0.000216886
0.000211986
0.000207451
0.000203437
0.000200074
0.000197469
0.000195955
0.000195345
0.000197045
0.000198508
0.000202712
0.000213866
0.000325954
0.000328419
0.000331298
0.000334135
0.000336553
0.000338551
0.000339902
0.000340365
0.000339849
0.000338409
0.000336124
0.00033311
0.000329417
0.000325145
0.000320178
0.000314591
0.000308299
0.000301229
0.00029331
0.000284487
0.000274719
0.000263987
0.000252309
0.000239819
0.000226795
0.000213533
0.000200238
0.000187052
0.000174096
0.000161481
0.000149306
0.000137685
0.000126768
0.000116787
0.000108042
0.000102094
9.97098e-05
0.000104085
0.00012105
0.000302879
0.000300486
0.000297699
0.000294712
0.000291906
0.000288968
0.000286028
0.000283161
0.000280291
0.000277446
0.000274598
0.000271703
0.000268756
0.000265712
0.00026258
0.000259284
0.0002559
0.000252376
0.000248716
0.000244993
0.000241182
0.000237263
0.000233302
0.000229328
0.000225262
0.000221004
0.000216554
0.000212018
0.000207574
0.000203412
0.000199684
0.000196518
0.000194024
0.000192478
0.000191798
0.000192786
0.000194653
0.000195501
0.000205191
0.000304997
0.000306984
0.00030934
0.000311659
0.0003136
0.000315183
0.000316217
0.000316514
0.000315992
0.000314704
0.000312721
0.000310115
0.000307004
0.000303346
0.000299182
0.000294444
0.000289101
0.000283081
0.000276302
0.000268693
0.000260197
0.000250765
0.000240381
0.000229148
0.000217311
0.000205145
0.000192829
0.000180502
0.000168277
0.000156257
0.00014454
0.000133227
0.000122457
0.000112431
0.000103433
9.69534e-05
9.40887e-05
9.79454e-05
0.000113283
0.000283995
0.000282042
0.000279751
0.000277286
0.000274984
0.000272571
0.000270155
0.000267805
0.000265448
0.000263113
0.000260772
0.00025839
0.000255954
0.000253437
0.000250828
0.000248084
0.000245232
0.000242262
0.000239149
0.000235959
0.000232683
0.000229297
0.000225839
0.000222353
0.000218771
0.000215005
0.00021105
0.000206997
0.000202988
0.000199193
0.000195749
0.000192785
0.000190402
0.000188832
0.000188056
0.000188513
0.000190106
0.000189824
0.000195974
0.000285709
0.000287304
0.000289217
0.000291102
0.000292645
0.000293879
0.000294648
0.000294799
0.000294265
0.000293093
0.000291348
0.000289093
0.000286413
0.000283279
0.000279746
0.000275685
0.00027113
0.000265992
0.00026018
0.000253617
0.000246226
0.00023794
0.000228718
0.000218632
0.000207894
0.00019675
0.000185377
0.000173881
0.000162369
0.000150939
0.000139676
0.000128671
0.000118046
0.000107964
9.86899e-05
9.16491e-05
8.82902e-05
9.17766e-05
0.000105817
0.000266545
0.000264965
0.000263097
0.00026108
0.000259208
0.000257246
0.000255279
0.000253372
0.00025146
0.000249564
0.000247663
0.000245723
0.000243734
0.000241673
0.00023952
0.000237257
0.000234872
0.000232408
0.000229789
0.00022708
0.000224295
0.000221395
0.000218401
0.000215369
0.000212243
0.000208938
0.000205448
0.000201846
0.000198251
0.000194807
0.000191642
0.000188876
0.000186606
0.000185024
0.000184128
0.000184193
0.000185208
0.000184474
0.000187617
0.000267919
0.000269185
0.000270724
0.000272245
0.000273454
0.000274393
0.000274942
0.00027497
0.00027442
0.000273338
0.000271779
0.000269802
0.000267455
0.000264765
0.000261717
0.000258243
0.000254345
0.000249941
0.000244943
0.000239258
0.000232813
0.000225527
0.000217344
0.000208305
0.000198589
0.000188407
0.000177922
0.000167223
0.000156403
0.000145547
0.000134733
0.000124032
0.000113549
0.000103401
9.38221e-05
8.61771e-05
8.23008e-05
8.55934e-05
9.86766e-05
0.000250387
0.000249127
0.000247618
0.00024598
0.00024448
0.000242902
0.000241324
0.000239795
0.000238267
0.000236749
0.000235228
0.000233669
0.000232069
0.000230402
0.000228648
0.000226819
0.000224846
0.000222805
0.000220637
0.000218359
0.000216012
0.000213558
0.000210996
0.000208388
0.000205688
0.000202813
0.000199755
0.000196575
0.000193374
0.000190267
0.000187371
0.0001848
0.000182642
0.00018105
0.000180034
0.000179768
0.00018017
0.000179038
0.000180021
0.000251477
0.000252465
0.000253686
0.0002549
0.000255828
0.000256519
0.000256884
0.000256805
0.000256238
0.000255226
0.000253818
0.000252064
0.000249994
0.00024766
0.000245005
0.00024204
0.000238671
0.000234863
0.000230536
0.0002256
0.000219971
0.000213563
0.000206303
0.000198209
0.000189427
0.000180146
0.000170495
0.000160555
0.000150402
0.000140105
0.000129733
0.000119336
0.000108987
9.87644e-05
8.8852e-05
8.05436e-05
7.61102e-05
7.93996e-05
9.18673e-05
0.000235399
0.000234409
0.000233207
0.000231893
0.00023071
0.000229464
0.000228216
0.000227017
0.000225816
0.000224625
0.00022343
0.000222202
0.000220937
0.000219612
0.000218213
0.000216736
0.000215148
0.000213474
0.000211699
0.000209808
0.000207849
0.000205796
0.00020363
0.000201411
0.000199103
0.000196628
0.000193973
0.000191189
0.000188357
0.000185575
0.000182943
0.000180562
0.000178516
0.000176925
0.000175789
0.000175227
0.000175082
0.000173501
0.000172906
0.000236248
0.000237003
0.000237955
0.000238909
0.000239601
0.000240082
0.000240291
0.000240124
0.000239541
0.000238583
0.000237295
0.000235721
0.000233889
0.000231833
0.000229512
0.000226951
0.000224001
0.000220696
0.000216937
0.000212641
0.000207724
0.000202089
0.000195649
0.000188406
0.000180474
0.000172017
0.000163144
0.000153921
0.000144404
0.000134653
0.000124715
0.00011462
0.000104408
9.41071e-05
8.38312e-05
7.47765e-05
6.9708e-05
7.32087e-05
8.54133e-05
0.000221472
0.000220709
0.00021977
0.000218733
0.000217822
0.000216861
0.000215896
0.00021498
0.000214059
0.00021315
0.000212235
0.000211293
0.000210315
0.000209286
0.000208192
0.000207024
0.000205768
0.000204411
0.000202999
0.000201455
0.000199849
0.000198153
0.000196348
0.00019448
0.000192527
0.000190417
0.000188131
0.000185711
0.000183222
0.000180745
0.000178366
0.000176172
0.000174231
0.000172652
0.000171408
0.000170577
0.000169953
0.000167931
0.000166133
0.000222113
0.000222674
0.000223402
0.000224132
0.000224627
0.000224936
0.000225011
0.000224767
0.00022417
0.000223255
0.000222065
0.000220636
0.000218998
0.000217163
0.000215134
0.00021287
0.000210299
0.000207418
0.000204145
0.000200396
0.000196084
0.000191115
0.000185394
0.000178907
0.000171744
0.000164043
0.000155894
0.000147346
0.000138441
0.00012922
0.000119712
0.000109923
9.98602e-05
8.94864e-05
7.88233e-05
6.89131e-05
6.30696e-05
6.70321e-05
7.93219e-05
0.000208508
0.00020794
0.000207223
0.000206425
0.000205745
0.000205025
0.000204306
0.00020363
0.00020295
0.000202281
0.000201609
0.00020091
0.000200183
0.00019941
0.000198581
0.000197682
0.000196724
0.000195649
0.000194529
0.000193305
0.000192009
0.000190632
0.000189149
0.000187604
0.000185975
0.000184195
0.000182246
0.00018016
0.000177989
0.000175796
0.000173655
0.00017164
0.000169808
0.000168236
0.000166903
0.000165822
0.000164781
0.000162364
0.00015963
0.000208973
0.000209372
0.000209911
0.00021045
0.000210779
0.000210945
0.000210908
0.000210601
0.00020999
0.000209111
0.000208003
0.000206693
0.000205214
0.000203562
0.00020177
0.000199752
0.000197527
0.000194992
0.000192118
0.000188827
0.000185034
0.00018064
0.000175549
0.000169735
0.000163265
0.000156258
0.000148781
0.00014087
0.000132549
0.000123843
0.000114762
0.000105286
9.53849e-05
8.49547e-05
7.38946e-05
6.29965e-05
5.61465e-05
6.09093e-05
7.36189e-05
0.000196421
0.000196019
0.00019549
0.000194897
0.000194416
0.000193902
0.000193392
0.000192921
0.000192449
0.000191987
0.000191522
0.000191033
0.00019052
0.000189966
0.000189364
0.000188701
0.00018798
0.000187175
0.000186303
0.000185354
0.00018433
0.000183232
0.000182039
0.000180781
0.000179443
0.000177964
0.000176322
0.000174542
0.000172664
0.000170738
0.000168822
0.000166977
0.00016525
0.000163697
0.000162284
0.000160987
0.000159582
0.000156835
0.000153384
0.000196739
0.000197001
0.000197383
0.000197759
0.000197951
0.000197996
0.000197867
0.000197506
0.000196885
0.000196036
0.000194994
0.000193788
0.00019244
0.000190951
0.000189336
0.000187545
0.000185594
0.00018334
0.000180807
0.00017791
0.000174563
0.000170668
0.000166131
0.000160915
0.000155072
0.000148695
0.00014184
0.000134524
0.00012676
0.000118552
0.000109895
0.000100743
9.10272e-05
8.05755e-05
6.91339e-05
5.71004e-05
4.8847e-05
5.49196e-05
6.83546e-05
0.000185138
0.000184877
0.000184509
0.00018409
0.000183777
0.00018344
0.000183108
0.000182812
0.000182518
0.000182231
0.000181943
0.000181634
0.000181304
0.000180939
0.00018053
0.000180072
0.000179558
0.000178977
0.000178318
0.000177623
0.00017684
0.000175989
0.000175052
0.000174049
0.000172967
0.000171754
0.000170388
0.000168882
0.000167269
0.000165587
0.000163881
0.0001622
0.000160574
0.000159044
0.000157565
0.000156091
0.000154372
0.000151345
0.000147373
0.000185332
0.000185479
0.000185729
0.00018597
0.000186046
0.000185992
0.000185787
0.000185381
0.000184753
0.00018393
0.000182947
0.000181824
0.000180583
0.000179239
0.000177767
0.000176188
0.000174411
0.000172444
0.000170199
0.000167632
0.000164664
0.000161201
0.000157146
0.000152459
0.00014718
0.000141379
0.000135099
0.000128341
0.000121105
0.000113383
0.000105148
9.63387e-05
8.68425e-05
7.64243e-05
6.46595e-05
5.13682e-05
4.09824e-05
4.92278e-05
6.3599e-05
0.00017459
0.000174449
0.000174217
0.000173946
0.000173776
0.000173589
0.000173408
0.000173262
0.000173118
0.000172981
0.000172844
0.000172688
0.000172514
0.00017231
0.000172069
0.000171785
0.000171447
0.000171069
0.000170601
0.000170106
0.000169543
0.000168909
0.000168194
0.000167416
0.000166562
0.000165585
0.000164462
0.000163203
0.000161829
0.000160368
0.000158854
0.000157323
0.000155797
0.000154294
0.000152765
0.000151138
0.000149168
0.000145926
0.000141581
0.000174681
0.000174733
0.000174872
0.000175
0.00017498
0.000174844
0.000174577
0.000174137
0.000173505
0.000172706
0.000171772
0.000170723
0.000169577
0.000168344
0.000167012
0.000165578
0.000163991
0.000162256
0.000160237
0.000157954
0.000155314
0.000152227
0.000148601
0.000144389
0.000139615
0.000134339
0.000128586
0.00012235
0.000115617
0.000108369
0.000100562
9.21146e-05
8.28864e-05
7.25863e-05
6.06284e-05
4.61032e-05
3.21815e-05
4.41368e-05
5.94354e-05
0.00016472
0.000164677
0.000164561
0.000164417
0.000164367
0.000164306
0.000164254