/*--------------------------------*- C++ -*----------------------------------*\
| =========                 |                                                 |
| \\      /  F ield         | OpenFOAM: The Open Source CFD Toolbox           |
|  \\    /   O peration     | Version:  2306                                  |
|   \\  /    A nd           | Website:  www.openfoam.com                      |
|    \\/     M anipulation  |                                                 |
\*---------------------------------------------------------------------------*/
FoamFile
{
    version     2.0;
    format      ascii;
    arch        "LSB;label=32;scalar=64";
    class       volSymmTensorField;
    location    "175";
    object      turbulenceProperties:R;
}
// * * * * * * * * * * * * * * * * * * * * * * * * * * * * * * * * * * * * * //

dimensions      [0 2 -2 0 0 0 0];

internalField   nonuniform List<symmTensor> 
10720
(
(0.0140108 0.0029173 -7.99536e-22 0.0116339 -1.548e-20 0.0129627)
(0.0167115 0.00347009 9.61433e-22 0.0132015 1.00729e-19 0.0150609)
(0.0203855 0.00403545 -2.25393e-20 0.0148533 -3.22358e-19 0.0178384)
(0.0253969 0.00476854 9.3753e-20 0.0171003 6.74849e-19 0.0215323)
(0.0315783 0.00546412 -1.80062e-19 0.0194905 -6.62127e-19 0.0258557)
(0.0396715 0.00596351 -1.43731e-19 0.0221747 -3.72935e-19 0.0314068)
(0.050156 0.00623492 2.80914e-19 0.0254483 1.06219e-18 0.0384212)
(0.0632651 0.00594359 -7.28567e-19 0.0293345 -1.96557e-18 0.0470606)
(0.0798325 0.00472892 -1.83608e-19 0.0342616 5.31734e-19 0.0580435)
(0.100681 0.00232661 5.59731e-19 0.0408886 1.1405e-18 0.0720079)
(0.126989 -0.00178605 1.45303e-18 0.0500445 5.34306e-19 0.0900232)
(0.160986 -0.00818486 -3.30757e-18 0.0631268 -3.0643e-18 0.113902)
(0.205444 -0.0177634 6.30807e-19 0.0819278 8.16425e-19 0.145939)
(0.265117 -0.0320735 2.55069e-18 0.109395 1.21044e-18 0.190046)
(0.347814 -0.0536748 -3.90184e-18 0.150447 -6.06769e-18 0.252672)
(0.466691 -0.0868949 -4.21529e-18 0.21353 -2.46358e-18 0.344697)
(0.643208 -0.139544 1.83529e-17 0.313411 1.69704e-17 0.484541)
(0.916404 -0.225549 1.76542e-17 0.477364 3.23499e-17 0.705479)
(1.36054 -0.372793 -3.38164e-17 0.759748 -5.16923e-17 1.07261)
(2.10642 -0.632101 -1.90309e-18 1.26148 1.41057e-17 1.70212)
(3.51001 -1.13967 -2.60658e-17 2.25498 4.73269e-17 2.91042)
(6.10612 -2.12423 -4.25018e-18 4.20833 3.79279e-17 5.19818)
(12.4583 -4.63064 -1.37014e-16 9.26473 -5.10017e-16 10.9355)
(25.8721 -10.2701 2.98568e-16 20.9684 4.83905e-16 23.5567)
(29.9233 -12.5931 3.54061e-17 26.5028 -6.68223e-16 28.3005)
(28.3064 -12.4359 3.94504e-16 27.0361 5.38864e-16 27.6714)
(26.8913 -12.1524 -7.38533e-17 27.1456 -7.62492e-17 26.9837)
(26.4624 -12.1985 2.72569e-16 27.8635 2.21043e-16 27.1316)
(26.2944 -12.314 7.5474e-16 28.7107 1.16724e-15 27.4823)
(25.797 -12.2451 4.56715e-16 29.1355 1.93805e-15 27.4566)
(24.853 -11.9368 -1.45184e-15 28.9865 -1.87752e-15 26.9231)
(23.5534 -11.428 -5.10684e-16 28.3201 -7.05168e-16 25.9524)
(21.9218 -10.7284 4.13096e-17 27.1281 -4.39933e-15 24.5481)
(19.9875 -9.85251 -2.63448e-15 25.4169 -7.1204e-15 22.7268)
(17.7272 -8.79016 9.95035e-16 23.1253 9.04071e-16 20.4491)
(15.1848 -7.56444 1.27643e-15 20.2752 1.1572e-15 17.7479)
(11.9714 -5.9872 -1.24468e-16 16.3421 -5.33888e-16 14.177)
(8.87129 -4.44301 -1.62673e-15 12.2641 -1.42438e-17 10.5703)
(2.73274 -1.37649 -2.80408e-16 4.12298 -2.82074e-15 3.42464)
(0.011623 0.00244472 2.01294e-21 0.0102771 3.66572e-20 0.0110012)
(0.00978263 0.00201571 -2.56316e-21 0.00899768 -9.03902e-22 0.00947494)
(0.00780103 0.00156087 -1.43592e-20 0.00752526 -8.1305e-20 0.00770499)
(0.00615674 0.00117341 5.43277e-21 0.00618046 5.17352e-20 0.00619717)
(0.00468227 0.000830648 1.51706e-21 0.0048276 -7.75531e-21 0.00476885)
(0.00341259 0.000552501 -1.87087e-20 0.0035464 5.90246e-20 0.00347771)
(0.00243161 0.000354005 -8.76163e-20 0.00248577 7.04945e-20 0.00244114)
(0.00189317 0.000245023 5.53558e-20 0.00184084 -2.24011e-20 0.00184509)
(0.00215871 0.000276029 1.01448e-19 0.00193483 -5.17742e-20 0.00203112)
(0.00307819 0.000393222 -7.60906e-20 0.00254611 1.79422e-20 0.00281051)
(0.00470627 0.000644632 -2.40905e-20 0.00364213 1.09552e-19 0.00418404)
(0.00721346 0.0011374 1.76352e-19 0.00526464 6.90328e-20 0.00625864)
(0.0109046 0.00204975 3.60382e-19 0.00755479 -5.69666e-20 0.00926707)
(0.0162151 0.00362719 -1.23603e-20 0.0107703 -2.15119e-19 0.0135609)
(0.0236614 0.00612078 -6.18248e-20 0.0153072 -1.55466e-19 0.0195883)
(0.0339984 0.00982504 3.66552e-20 0.0218751 -5.62163e-20 0.0280922)
(0.0485961 0.0151757 -1.96476e-19 0.0316355 6.28715e-19 0.0403286)
(0.0700374 0.0230903 7.19265e-19 0.0466451 2.57475e-19 0.058635)
(0.103171 0.0353763 3.22988e-19 0.0706168 -1.1715e-18 0.0872966)
(0.156489 0.0553962 -1.32418e-18 0.110325 -3.25974e-19 0.133998)
(0.247187 0.0899797 -4.47875e-18 0.179612 -1.95047e-18 0.214301)
(0.405124 0.151504 -3.3506e-18 0.30391 -8.65999e-19 0.356018)
(0.704175 0.270667 6.34955e-18 0.546834 -6.19187e-19 0.628244)
(1.26472 0.500828 -7.82842e-18 1.022 1.24826e-18 1.14897)
(2.47871 1.01176 4.19925e-18 2.09173 -6.90154e-18 2.29738)
(4.95379 2.07922 -1.30059e-16 4.36357 3.37833e-18 4.68402)
(10.9109 4.6971 -8.0708e-17 10.0204 1.15725e-17 10.5255)
(21.8069 9.60622 6.7599e-17 20.8604 3.2124e-19 21.457)
(29.9982 13.4945 8.82438e-18 29.8767 -4.95324e-20 30.0953)
(32.9946 15.1216 6.27947e-17 34.1676 -1.39085e-18 33.7292)
(33.3716 15.5435 -4.41913e-16 35.8493 -3.78601e-18 34.7342)
(32.942 15.5572 1.58248e-16 36.6149 2.23067e-17 34.8797)
(32.2058 15.3902 -1.90958e-15 36.9469 -1.61012e-16 34.6603)
(31.2516 15.0851 -3.49077e-15 36.9202 -2.0869e-16 34.1565)
(30.1063 14.6577 1.07173e-15 36.5582 1.15812e-16 33.3929)
(28.8079 14.1298 1.03509e-15 35.9083 1.60416e-16 32.4112)
(27.1407 13.4006 1.46404e-15 34.7237 2.64865e-16 30.9805)
(25.3351 12.5775 -2.93024e-16 33.2108 -3.78168e-17 29.3183)
(20.3434 10.166 -4.60086e-15 27.6957 -7.92558e-16 24.0291)
(0.00224892 -0.000152843 4.81247e-23 0.00187831 1.31019e-21 0.00203428)
(0.00220715 -0.000179814 9.50779e-21 0.00190115 2.31649e-20 0.00202136)
(0.00214272 -0.00020258 -8.62803e-21 0.00192371 -1.52853e-20 0.00199437)
(0.00204474 -0.000210228 -6.03184e-21 0.00190997 -1.67694e-20 0.00193329)
(0.00191689 -0.00020568 3.8954e-20 0.00186169 7.53203e-20 0.0018416)
(0.00177845 -0.000192588 1.5004e-20 0.00179638 2.32936e-20 0.00173613)
(0.00163016 -0.000172555 7.03352e-20 0.0017029 6.47375e-20 0.00161213)
(0.00147533 -0.000148798 -3.5825e-20 0.00158442 -6.97449e-21 0.00147359)
(0.00132901 -0.000125327 5.06702e-20 0.00145941 3.52356e-20 0.00133651)
(0.00119192 -0.000104242 -1.75764e-21 0.00132901 7.50954e-23 0.00120173)
(0.00106709 -8.66596e-05 -6.92513e-20 0.00120042 -5.91443e-20 0.00107475)
(0.000974842 -7.62228e-05 9.14622e-20 0.00110088 1.13585e-19 0.000977541)
(0.00095112 -7.92135e-05 6.21902e-20 0.0010775 3.12422e-20 0.000945527)
(0.0010317 -0.00010431 -1.58849e-20 0.00117279 8.42533e-21 0.0010088)
(0.00132057 -0.000188101 -1.25296e-19 0.00149452 2.07644e-20 0.00124624)
(0.00209441 -0.000448837 3.3425e-19 0.00227018 3.81129e-19 0.00184402)
(0.00410265 -0.00120001 6.76833e-19 0.00396947 -7.5171e-19 0.00331135)
(0.00898726 -0.00297831 -3.88282e-18 0.00754628 -4.97342e-18 0.00693259)
(0.0213042 -0.00725026 4.88917e-19 0.0161538 6.50607e-18 0.0164864)
(0.0538477 -0.0184595 6.83059e-18 0.038825 -1.94089e-18 0.0426411)
(0.145739 -0.0507381 1.33445e-17 0.103797 5.43047e-18 0.118734)
(0.422225 -0.150986 -2.22987e-17 0.305106 -1.99281e-17 0.354167)
(1.16478 -0.432667 6.51704e-17 0.873222 1.48282e-16 1.00685)
(3.70767 -1.43815 2.24637e-19 2.92433 -1.21885e-16 3.30513)
(7.35023 -2.96748 -2.40338e-16 6.11129 1.33369e-16 6.74847)
(11.0004 -4.5985 -9.87419e-17 9.6262 -5.41489e-16 10.3729)
(14.2983 -6.16993 -8.70594e-19 13.1798 6.44322e-17 13.8277)
(16.6322 -7.38632 -2.70924e-16 16.1512 -3.7971e-16 16.489)
(17.1641 -7.82192 -4.75204e-16 17.555 -2.51304e-15 17.4465)
(15.7885 -7.35702 -1.72289e-16 16.9792 -3.19924e-15 16.4409)
(13.3574 -6.3369 5.02642e-16 15.0451 4.51907e-15 14.2166)
(10.8547 -5.22025 -9.08761e-16 12.7343 -8.09373e-17 11.7724)
(8.82935 -4.28848 -7.08095e-15 10.7152 1.29539e-15 9.72965)
(7.31138 -3.57593 8.48879e-15 9.10634 1.48168e-14 8.16308)
(6.17944 -3.03773 -1.43883e-15 7.84814 -7.47778e-16 6.9755)
(5.31589 -2.62087 3.35738e-15 6.83193 -4.89477e-15 6.04204)
(4.7107 -2.32995 -1.4866e-15 6.12603 1.48925e-15 5.39749)
(4.24147 -2.08016 3.25031e-15 5.37641 3.95416e-16 4.76028)
(4.53015 -2.26992 5.68988e-15 6.00336 7.92071e-15 5.40142)
(0.00225409 -0.00011506 3.19337e-21 0.00183212 7.56795e-21 0.00201814)
(0.00224174 -7.50718e-05 -4.40878e-21 0.00178674 -3.34381e-20 0.0019907)
(0.00219001 -2.42816e-05 -6.6446e-21 0.00172205 -3.72028e-20 0.00193743)
(0.00209636 3.29074e-05 -2.60924e-21 0.00164496 5.89695e-20 0.00185736)
(0.00195269 8.66275e-05 1.12581e-21 0.00155513 1.45739e-20 0.00174716)
(0.00175453 0.000128849 1.46717e-20 0.00144728 -5.6315e-20 0.00159961)
(0.00152427 0.000151092 2.44628e-20 0.0013262 -8.43843e-20 0.00142749)
(0.00130732 0.000153171 -1.21824e-19 0.00120784 4.20567e-21 0.00126293)
(0.00110664 0.000139384 1.62739e-20 0.00108927 7.87225e-20 0.00110367)
(0.000914558 0.000115276 -7.40652e-22 0.000964599 -4.52553e-20 0.000942515)
(0.000746327 8.65283e-05 -2.8705e-20 0.00083638 -2.74749e-20 0.000790049)
(0.000611964 6.09918e-05 -2.06574e-20 0.000714898 -2.8407e-20 0.00065866)
(0.00050501 4.15189e-05 -3.61394e-21 0.000604409 6.28455e-21 0.000547907)
(0.000417831 2.779e-05 1.19707e-20 0.000505833 3.18096e-20 0.000454125)
(0.000345885 1.86415e-05 1.98881e-20 0.000419653 7.36455e-21 0.000374902)
(0.000286213 1.2734e-05 -2.69745e-20 0.000345812 -1.04973e-21 0.000308508)
(0.000236021 8.9629e-06 2.25113e-20 0.000282506 2.01635e-21 0.000252512)
(0.000193646 6.49904e-06 -2.50051e-21 0.000228645 -6.6749e-21 0.000205404)
(0.000156397 4.68289e-06 -7.01167e-21 0.000181307 1.06646e-20 0.000164315)
(0.000122055 3.17294e-06 -4.08909e-21 0.000138188 4.26726e-21 0.000126892)
(8.74037e-05 1.78319e-06 -6.1129e-21 9.59561e-05 6.58105e-21 8.98053e-05)
(5.25109e-05 6.81967e-07 -3.54455e-21 5.56141e-05 1.77965e-21 5.33157e-05)
(1.86374e-05 8.70603e-08 -6.8456e-22 1.90204e-05 6.08355e-23 1.87261e-05)
(3.06504e-06 2.37753e-09 8.37477e-24 3.07498e-06 6.92104e-25 3.06695e-06)
(1.22426e-05 4.12179e-08 -9.42283e-24 1.23907e-05 1.16721e-23 1.2264e-05)
(0.000907192 0.000213902 5.1355e-19 0.00152858 1.18372e-19 0.000969253)
(0.00492896 0.00147399 2.86124e-18 0.00849052 -1.93913e-19 0.00515932)
(0.0397178 0.0129083 1.12325e-18 0.0659117 -3.75884e-19 0.0408025)
(0.133631 0.0483238 -7.63542e-19 0.211994 7.13752e-20 0.136067)
(0.264386 0.106576 5.10736e-17 0.396443 2.57771e-18 0.269224)
(0.401103 0.175594 4.10179e-16 0.566123 7.7954e-18 0.411848)
(0.52371 0.240627 2.4357e-16 0.702522 1.38861e-17 0.54475)
(0.62584 0.294846 1.78544e-15 0.812624 1.19201e-16 0.660399)
(0.712516 0.340305 2.57402e-15 0.911257 1.45022e-16 0.762495)
(0.789663 0.380578 -5.79046e-16 1.00826 -8.76442e-17 0.856767)
(0.867499 0.420657 -4.96526e-16 1.11216 -8.28255e-17 0.95185)
(0.944385 0.46106 -1.2401e-15 1.22768 -5.00332e-16 1.05163)
(1.14592 0.558025 -2.54679e-15 1.47045 -1.40765e-17 1.26741)
(1.59437 0.785553 -2.05636e-15 2.00283 1.35015e-15 1.81501)
(0.00150559 -0.000117616 6.91687e-22 0.00123836 1.0037e-21 0.0013866)
(0.00146555 -0.000140738 -1.05695e-20 0.00125278 -2.50527e-20 0.00137692)
(0.0013971 -0.000157104 -2.25838e-21 0.00125608 -1.31439e-21 0.00134737)
(0.00130777 -0.0001627 8.91229e-21 0.00124658 1.87815e-20 0.0013024)
(0.00121677 -0.000158371 -2.77123e-20 0.00123481 -5.57643e-20 0.00125454)
(0.00112279 -0.000143525 -3.15107e-20 0.0012159 -5.14687e-20 0.00120163)
(0.001034 -0.000119585 -6.42287e-20 0.00119004 -9.45168e-20 0.00114825)
(0.000959399 -9.01414e-05 -5.08874e-21 0.00116152 -8.24273e-22 0.00109994)
(0.00090056 -5.75169e-05 -2.87415e-20 0.00113145 -6.73493e-20 0.00105834)
(0.000859848 -2.49819e-05 1.1932e-19 0.00110241 1.35276e-19 0.00102606)
(0.000834525 5.28667e-06 -1.94743e-20 0.00107432 2.66332e-20 0.0010012)
(0.000823981 3.19452e-05 1.37208e-20 0.00105097 8.27294e-21 0.000985287)
(0.000827424 5.42205e-05 -9.28174e-20 0.00103698 -1.1784e-19 0.000979842)
(0.000842131 7.29925e-05 6.02544e-20 0.00103339 -5.5685e-21 0.000984426)
(0.000858799 8.74417e-05 1.75856e-20 0.00103082 5.47128e-20 0.000989183)
(0.000852506 9.3116e-05 2.11692e-20 0.000999476 1.00661e-20 0.000965043)
(0.000748007 7.46651e-05 -7.96621e-20 0.000846083 -4.63464e-20 0.000823263)
(0.00062439 5.37097e-05 5.03044e-20 0.000685093 3.76199e-20 0.000670524)
(3.06012e-05 1.27453e-07 3.78954e-23 3.07288e-05 1.90063e-25 3.06959e-05)
(0.00062629 6.14345e-05 -7.73682e-20 0.000682708 -1.14318e-20 0.000666579)
(0.000646231 7.64917e-05 1.10198e-19 0.000712318 -4.3998e-20 0.000690993)
(0.00109001 0.000299355 1.35919e-20 0.00133739 2.45525e-19 0.00124607)
(0.000100965 7.19586e-06 7.79334e-21 0.000106891 -1.17548e-20 0.000104186)
(0.00313451 -0.00118984 -1.02328e-18 0.00252203 -1.09785e-18 0.0027053)
(0.0636737 -0.0252752 3.05432e-18 0.0525641 9.78628e-18 0.0565913)
(0.264802 -0.109067 -2.01346e-17 0.229465 4.812e-18 0.242875)
(0.718945 -0.306118 1.10934e-17 0.654244 7.35563e-19 0.679509)
(1.69147 -0.739826 -9.95924e-18 1.60839 5.81265e-17 1.64048)
(3.47679 -1.55456 -3.55252e-16 3.43965 1.92798e-16 3.44826)
(5.99419 -2.73268 1.67348e-16 6.16113 2.8943e-16 6.07111)
(8.4877 -3.9404 1.37705e-15 9.07121 -5.03837e-16 8.78236)
(9.93638 -4.69134 -2.47714e-15 11.0501 1.94967e-15 10.5088)
(9.93895 -4.76062 5.13545e-16 11.481 8.49059e-15 10.7314)
(8.99314 -4.35492 -5.62065e-17 10.7359 -5.87151e-15 9.8794)
(7.78315 -3.79757 2.89231e-15 9.53459 -2.2188e-15 8.66381)
(6.64466 -3.25468 -1.36813e-14 8.26284 5.58168e-16 7.45079)
(5.7553 -2.82731 4.74622e-15 7.23011 -1.59373e-15 6.49388)
(4.9241 -2.38774 4.95707e-15 5.93903 -1.50003e-15 5.41125)
(5.35087 -2.64903 -1.00528e-14 6.89926 2.96628e-15 6.14953)
(0.00153979 -8.83503e-05 -1.41771e-21 0.00122752 -2.69389e-21 0.00139695)
(0.0015532 -5.67515e-05 -5.15909e-21 0.00121334 -6.66216e-21 0.00139386)
(0.00155826 -1.82585e-05 2.19707e-20 0.00120287 4.54743e-20 0.00138867)
(0.00153117 2.25166e-05 4.24922e-21 0.00118342 -6.33065e-21 0.00136235)
(0.00147155 6.24343e-05 2.92429e-21 0.00115647 -3.3611e-20 0.00131689)
(0.00136766 9.49813e-05 -9.86364e-21 0.00111126 2.57076e-20 0.00124042)
(0.00122804 0.000114913 1.08419e-20 0.00104729 5.59345e-20 0.00113745)
(0.00107514 0.000120739 6.08038e-20 0.000971578 6.22968e-20 0.00102381)
(0.000934089 0.0001166 2.16012e-20 0.000900193 -4.95169e-20 0.000917907)
(0.000793849 0.000102971 4.28794e-20 0.00081726 2.62937e-20 0.000806158)
(0.000655897 8.3112e-05 -3.17151e-20 0.0007163 8.29789e-21 0.000686938)
(0.000532025 6.26699e-05 -4.24575e-21 0.000609768 2.62359e-20 0.000572462)
(0.000426914 4.47636e-05 2.91577e-21 0.000508522 -2.41176e-20 0.000470219)
(0.000339984 3.03006e-05 4.40542e-20 0.000417366 -3.04411e-20 0.000382177)
(0.00027064 1.93893e-05 2.88993e-21 0.00033982 -4.58816e-21 0.000309566)
(0.000216292 1.1468e-05 -4.81835e-21 0.000275897 1.97286e-20 0.000251134)
(0.00017501 5.94391e-06 3.22042e-20 0.000225347 -3.66598e-20 0.000205733)
(0.000144386 2.12125e-06 5.08668e-21 0.000186561 4.39192e-21 0.000171411)
(0.000122598 -5.73066e-07 3.7209e-20 0.000158111 -2.82102e-21 0.000146521)
(0.000107363 -2.62651e-06 3.99707e-20 0.000137444 8.33218e-21 0.000128753)
(9.72861e-05 -4.3301e-06 1.03127e-19 0.000122959 -1.37921e-20 0.000116602)
(9.1337e-05 -5.978e-06 1.34472e-19 0.00011312 -2.03735e-20 0.000108885)
(8.90677e-05 -7.77369e-06 8.08417e-20 0.000106871 6.26055e-21 0.000104901)
(8.95649e-05 -9.52034e-06 1.88375e-20 0.0001018 -3.72227e-21 0.00010321)
(9.30251e-05 -1.06135e-05 -2.07316e-20 9.80403e-05 9.52428e-21 0.000104058)
(9.6073e-05 -1.00428e-05 7.57661e-20 9.37888e-05 -1.16416e-20 0.000103912)
(0.000105038 -9.40344e-06 -2.05399e-20 9.62828e-05 -1.66494e-21 0.000110671)
(6.18064e-05 -2.63324e-06 -6.0161e-21 5.72956e-05 1.15397e-22 6.30693e-05)
(0.000522281 -7.28264e-05 2.80149e-20 0.000318956 -6.69632e-22 0.000553128)
(0.00342804 -0.000271084 -1.50542e-18 0.00176657 -4.47956e-20 0.00358103)
(0.00966454 0.00051454 -8.99751e-18 0.0048521 1.05115e-19 0.00998909)
(0.0194815 0.00503196 -5.65243e-17 0.0118436 -3.23438e-18 0.0200857)
(0.0402241 0.0162331 -1.37796e-16 0.033365 -3.02093e-18 0.0416386)
(0.078834 0.0356504 -3.41394e-16 0.0779765 -2.09881e-17 0.082264)
(0.13428 0.0628169 -8.69209e-16 0.144514 -8.39868e-17 0.141639)
(0.201802 0.0954216 2.18494e-16 0.224984 -1.32953e-17 0.214049)
(0.273294 0.130366 -1.18494e-15 0.312703 1.93241e-16 0.292984)
(0.33876 0.156541 2.98367e-15 0.359359 5.37109e-16 0.347778)
(0.559977 0.266886 4.68856e-15 0.629292 9.59276e-16 0.606715)
(0.00127509 -9.54756e-05 3.55914e-21 0.00104782 6.01043e-21 0.0011564)
(0.00126006 -0.000113565 -4.91954e-21 0.00106809 -8.84613e-21 0.00115847)
(0.00123063 -0.000129251 -2.24596e-21 0.00108693 -1.4047e-21 0.00115158)
(0.0011944 -0.000139515 2.6709e-20 0.00110462 3.89654e-20 0.00114085)
(0.00114711 -0.000142916 1.71232e-20 0.00111328 3.07537e-20 0.00111987)
(0.00109013 -0.000139546 2.18527e-20 0.00111244 4.12881e-20 0.00108901)
(0.00102868 -0.000130107 3.31453e-20 0.00110153 3.8203e-20 0.00105084)
(0.000962759 -0.00011571 -1.89089e-20 0.00107692 -2.92522e-20 0.00100358)
(0.000895482 -9.80802e-05 -6.80295e-20 0.0010407 -6.7215e-20 0.000949673)
(0.000828337 -7.9218e-05 8.81359e-20 0.0009931 4.96802e-20 0.000890341)
(0.000762234 -6.0588e-05 7.44666e-20 0.00093605 6.29747e-20 0.000826891)
(0.000697491 -4.33803e-05 9.66695e-20 0.000871368 4.63329e-20 0.000760583)
(0.000633625 -2.83872e-05 -1.59336e-19 0.000800293 -5.1111e-20 0.00069196)
(0.00057038 -1.58953e-05 -1.36392e-19 0.00072461 -9.14484e-20 0.000621978)
(0.000508135 -5.99134e-06 1.8121e-19 0.000646397 5.69519e-20 0.000551689)
(0.000443456 2.50187e-06 3.69402e-20 0.000563022 2.26673e-20 0.000478665)
(0.000377773 9.60006e-06 -2.71041e-20 0.000474999 2.817e-21 0.000404251)
(0.000323507 1.5321e-05 -8.62044e-20 0.000399685 -5.64914e-20 0.000342603)
(0.00025606 1.58595e-05 1.60084e-20 0.000301399 -6.13789e-21 0.000266846)
(0.000205971 1.3159e-05 4.78533e-20 0.000229586 1.4773e-20 0.000211774)
(2.57761e-06 2.00208e-09 -8.13262e-24 2.58006e-06 -2.33743e-24 2.57831e-06)
(0.000107765 3.17077e-06 5.21637e-21 0.000110665 7.286e-22 0.000108736)
(1.6751e-05 6.73665e-08 -2.76529e-23 1.67968e-05 -6.00112e-24 1.67677e-05)
(0.000816657 0.000153843 -1.20838e-19 0.00088536 6.03578e-20 0.000840778)
(0.00907991 0.0041971 2.24366e-18 0.00994932 -7.25735e-19 0.0092605)
(0.0235899 0.0104458 -5.40319e-18 0.0233525 7.26936e-18 0.0228387)
(0.0111155 0.00465568 3.5899e-20 0.00998002 -6.98463e-20 0.010255)
(0.00984414 0.00371701 2.23017e-18 0.00763812 -7.99212e-19 0.00844668)
(0.0089055 -9.84043e-05 4.15985e-18 0.00354184 1.00743e-17 0.0057364)
(0.106311 -0.0434387 1.67244e-17 0.0907646 -8.30749e-17 0.0972426)
(0.574593 -0.255407 -4.97568e-17 0.562547 -2.87102e-16 0.566125)
(1.77664 -0.815559 1.61657e-15 1.85438 4.26513e-16 1.81225)
(3.67139 -1.72095 2.4797e-15 4.01709 5.6603e-16 3.84227)
(5.50267 -2.62127 -1.47204e-15 6.26978 -1.97214e-15 5.88879)
(6.50048 -3.13494 -6.56976e-15 7.66689 1.31512e-15 7.09083)
(6.59884 -3.20608 4.42686e-15 7.9693 4.51218e-15 7.28848)
(6.28858 -3.06991 -9.45576e-15 7.71368 -1.31275e-16 7.0079)
(5.70632 -2.75458 -1.22871e-14 6.77203 1.78059e-15 6.22614)
(6.02194 -2.95489 8.90084e-15 7.4784 -3.41619e-15 6.79011)
(0.00127598 -7.29571e-05 -5.51282e-21 0.00102103 -1.10639e-20 0.00114516)
(0.00126559 -4.92087e-05 -1.99202e-21 0.000993813 8.00098e-21 0.00112681)
(0.00123943 -1.99198e-05 1.82202e-20 0.000960592 3.39496e-20 0.00109867)
(0.00120049 1.09408e-05 -8.13118e-21 0.000928651 -8.73573e-23 0.00106397)
(0.001144 4.09964e-05 6.74384e-21 0.000895768 4.26135e-20 0.00102)
(0.00106482 6.66273e-05 2.12573e-20 0.000857529 -7.06138e-21 0.000961299)
(0.000970279 8.4487e-05 2.22304e-20 0.000815767 -6.9548e-22 0.000892903)
(0.000870204 9.30417e-05 -5.54766e-20 0.000771713 -3.33734e-20 0.000821036)
(0.000767146 9.28777e-05 -2.95185e-20 0.000722561 2.64848e-21 0.00074531)
(0.000660913 8.48697e-05 5.10354e-20 0.000662969 2.15338e-20 0.000662569)
(0.000559213 7.17788e-05 2.31602e-20 0.000595065 -1.99921e-21 0.000577665)
(0.000469838 5.72516e-05 2.78738e-20 0.000526228 -1.70587e-20 0.000498262)
(0.000394947 4.36515e-05 -4.39687e-20 0.000461304 -2.69844e-20 0.000427908)
(0.000333296 3.20463e-05 -5.34564e-20 0.000402222 1.03516e-20 0.000367043)
(0.000283322 2.28397e-05 5.17891e-21 0.000350171 1.3698e-20 0.00031551)
(0.000242844 1.5858e-05 1.63846e-20 0.000305156 -4.86424e-21 0.0002723)
(0.000210418 1.07715e-05 -4.09172e-20 0.000267278 -2.75573e-21 0.000236732)
(0.000184497 7.12749e-06 -1.35189e-21 0.000235905 -6.31426e-21 0.000207744)
(0.000163982 4.4874e-06 -1.55481e-20 0.000210465 -2.85119e-21 0.00018449)
(0.000147426 2.45402e-06 3.2986e-20 0.000189579 -1.84848e-20 0.000165583)
(0.000134084 7.73273e-07 -3.60179e-20 0.000172489 -1.16843e-20 0.000150223)
(0.000122975 -7.70438e-07 -7.42414e-20 0.000158002 -7.97344e-21 0.000137321)
(0.000113159 -2.30388e-06 3.64337e-21 0.000144839 -1.07921e-20 0.00012574)
(0.000102954 -3.732e-06 1.91942e-20 0.00013077 -1.03998e-20 0.000113544)
(9.25572e-05 -4.62432e-06 5.76077e-20 0.000116231 -4.05452e-21 0.000100924)
(8.40232e-05 -4.89911e-06 -5.41597e-20 0.000104216 -2.61643e-21 9.03078e-05)
(7.76354e-05 -4.83427e-06 -9.22637e-21 9.5135e-05 2.63177e-21 8.21922e-05)
(7.31863e-05 -4.67825e-06 5.64752e-21 8.8807e-05 3.89268e-22 7.63991e-05)
(6.6909e-05 -4.23048e-06 -2.56004e-21 8.0169e-05 -8.28048e-23 6.89153e-05)
(6.04727e-05 -3.94142e-06 -3.88816e-21 7.20043e-05 3.24055e-23 6.16246e-05)
(4.13882e-05 -2.36083e-06 -4.67323e-21 4.75856e-05 -3.68653e-22 4.16937e-05)
(2.77313e-05 -1.57922e-06 1.29705e-20 3.12915e-05 4.03182e-22 2.76686e-05)
(0.000206093 -5.55802e-05 2.03812e-18 0.000312999 1.49274e-19 0.000189011)
(0.000398319 -3.51609e-05 1.94914e-17 0.000506344 1.74136e-18 0.000285829)
(0.00181413 0.000661112 8.13435e-17 0.00141873 1.01567e-17 0.00146995)
(0.00903096 0.00353087 -1.79071e-16 0.00714614 -2.68476e-17 0.00819671)
(0.0278553 0.0116542 7.59545e-16 0.0241829 1.11891e-16 0.0267766)
(0.0724679 0.0286664 -4.9635e-16 0.0583018 -1.68697e-16 0.0661538)
(0.234978 0.106879 -3.37402e-16 0.236298 -1.41084e-15 0.242912)
(0.000956303 -7.2757e-05 -5.12607e-21 0.000786396 -7.49225e-21 0.000872956)
(0.000940327 -8.62357e-05 9.87786e-22 0.000798558 1.51526e-21 0.000871789)
(0.000914822 -9.75418e-05 6.11544e-21 0.000809994 6.67155e-21 0.000865015)
(0.000881398 -0.000104486 -3.73744e-20 0.00081834 -5.23785e-20 0.000853204)
(0.000840384 -0.000106266 -2.73713e-20 0.000821125 -3.1942e-20 0.000834859)
(0.00079251 -0.000102649 6.37697e-20 0.000817432 7.57999e-20 0.000809788)
(0.000741113 -9.38843e-05 -6.75999e-20 0.000806414 -8.33665e-20 0.000779544)
(0.000688143 -8.07833e-05 -3.04541e-20 0.000787199 -2.03877e-20 0.000744486)
(0.000635612 -6.44589e-05 -7.26546e-20 0.000760151 -5.42733e-20 0.000705728)
(0.000586406 -4.64802e-05 -1.36295e-20 0.000727027 -2.45963e-20 0.000665741)
(0.000541843 -2.81393e-05 9.13048e-21 0.00068931 -3.24296e-21 0.000625778)
(0.000503082 -1.06121e-05 -5.00663e-20 0.000649 -6.5989e-20 0.000587432)
(0.000471057 5.15119e-06 1.62645e-19 0.000608519 1.11162e-19 0.000552335)
(0.000446115 1.85639e-05 -5.35418e-20 0.000570071 -9.31557e-21 0.000521647)
(0.00042794 2.95173e-05 -1.31715e-19 0.000535032 -5.75385e-20 0.000495882)
(0.000415443 3.77518e-05 8.75447e-20 0.000504365 1.69902e-21 0.000474689)
(0.000402593 4.29169e-05 -6.39016e-20 0.000473616 -3.68108e-20 0.000452417)
(0.000384432 4.50891e-05 8.29936e-22 0.000437758 4.6906e-20 0.000424311)
(0.000360574 4.48607e-05 -1.53602e-20 0.000397484 -1.20534e-20 0.000390731)
(0.000326448 4.11608e-05 -1.05343e-19 0.000348288 -7.28831e-20 0.000346898)
(0.000247003 2.60053e-05 5.45722e-20 0.000254747 5.32283e-20 0.000256028)
(0.000175606 1.38202e-05 7.76578e-22 0.00017754 -2.30681e-20 0.000178738)
(4.87642e-06 1.02818e-08 6.04982e-24 4.87682e-06 1.85666e-24 4.87779e-06)
(8.39522e-06 2.74354e-08 4.16455e-23 8.39328e-06 -1.90902e-24 8.39653e-06)
(8.02111e-09 2.3072e-14 -1.09456e-29 8.0211e-09 -3.54316e-30 8.02111e-09)
(0 0 0 0 0 0)
(0.00282864 0.00109245 -9.43414e-20 0.00243246 2.29487e-21 0.00266219)
(0.00421359 0.00168237 -2.86741e-19 0.0035662 -1.8137e-19 0.00391753)
(0.0103393 0.00417553 -5.50497e-21 0.00861995 1.13493e-18 0.00950992)
(0.0382818 0.0152072 -4.38184e-17 0.0311419 3.61849e-18 0.0347164)
(0.00842204 0.00321567 -3.55081e-18 0.00651591 6.06237e-19 0.00745355)
(0.0400988 0.0133768 1.52581e-17 0.026602 -9.23532e-17 0.0331894)
(0.0819057 -0.0224675 3.68518e-16 0.046169 -4.67112e-16 0.0633564)
(0.664653 -0.297957 -2.14518e-15 0.660919 1.10191e-16 0.660886)
(2.06214 -0.967742 3.85412e-15 2.26394 1.49257e-15 2.16053)
(3.78461 -1.80871 -8.2042e-16 4.35455 3.8378e-16 4.06768)
(5.07654 -2.45208 -1.47493e-15 6.01745 3.63889e-15 5.5514)
(5.63341 -2.70203 6.60873e-16 6.56026 2.40734e-16 6.0831)
(6.2686 -3.05776 -1.62131e-14 7.61299 4.15166e-15 6.99316)
(0.00096525 -5.63859e-05 3.29048e-21 0.000772763 1.20616e-21 0.000870699)
(0.000966775 -3.88877e-05 -1.18877e-20 0.000759386 -1.66485e-20 0.000864013)
(0.000958614 -1.74548e-05 1.35738e-21 0.000743073 7.63925e-21 0.000851718)
(0.000937807 5.62704e-06 6.67096e-21 0.000724823 -2.20126e-20 0.000831763)
(0.000902514 2.85905e-05 -5.31919e-20 0.000704457 -7.47423e-20 0.000803787)
(0.000849236 4.88584e-05 -5.4428e-20 0.000679283 2.89212e-20 0.000764212)
(0.0007836 6.40267e-05 7.56038e-20 0.000651449 3.80682e-20 0.000717341)
(0.000712563 7.27219e-05 -2.47874e-20 0.00062232 -6.9469e-20 0.000667396)
(0.000637793 7.49032e-05 -3.26845e-20 0.000589539 9.30749e-21 0.000613761)
(0.000559792 7.09393e-05 -2.21758e-20 0.000549431 -3.85921e-20 0.00055479)
(0.000483851 6.25581e-05 7.57349e-21 0.000502973 1.19381e-20 0.000493581)
(0.000414123 5.20925e-05 -1.50509e-20 0.000453111 -1.89207e-20 0.000433779)
(0.000352239 4.13777e-05 -3.11848e-20 0.000402509 4.083e-20 0.000377574)
(0.0002982 3.15182e-05 3.32599e-20 0.000353066 1.83017e-20 0.000325922)
(0.000251798 2.31268e-05 2.77748e-20 0.000306537 -1.26405e-20 0.000279583)
(0.000212459 1.63512e-05 -5.70995e-21 0.00026419 -1.11308e-20 0.000238906)
(0.000179596 1.10985e-05 1.65728e-20 0.000226847 3.47492e-21 0.000203985)
(0.000152549 7.11102e-06 -2.47818e-20 0.000194857 6.30488e-21 0.000174653)
(0.000130678 4.09188e-06 1.75504e-20 0.000168198 -5.677e-22 0.000150559)
(0.000113117 1.73861e-06 -2.2963e-20 0.000146255 -1.02619e-20 0.000130966)
(9.91744e-05 -1.83732e-07 2.23428e-20 0.000128388 1.63264e-21 0.000115191)
(8.80521e-05 -1.86554e-06 2.96733e-20 0.00011365 6.10223e-21 0.00010237)
(7.89639e-05 -3.41478e-06 -2.25513e-21 0.00010097 2.66486e-21 9.1571e-05)
(7.06088e-05 -4.76993e-06 -5.58678e-20 8.85523e-05 2.77296e-22 8.1299e-05)
(6.22827e-05 -5.6285e-06 -2.06589e-20 7.57087e-05 -8.28889e-21 7.08471e-05)
(5.46522e-05 -5.89156e-06 -6.1159e-21 6.37702e-05 8.79793e-21 6.11703e-05)
(4.87943e-05 -5.7922e-06 2.2709e-20 5.40954e-05 1.98813e-22 5.35819e-05)
(4.51098e-05 -5.4542e-06 7.89773e-22 4.70391e-05 -1.54294e-22 4.84491e-05)
(4.42656e-05 -5.12726e-06 -1.28937e-21 4.3281e-05 8.61905e-23 4.64708e-05)
(4.17963e-05 -4.11137e-06 1.36005e-20 3.87737e-05 1.26867e-22 4.28784e-05)
(5.33767e-05 -5.72154e-06 1.59385e-20 4.62971e-05 5.33694e-22 5.39544e-05)
(1.03174e-05 -2.39069e-07 -3.65903e-21 9.93287e-06 -2.13081e-22 1.03025e-05)
(9.17655e-05 -1.39884e-05 -6.13527e-19 6.61111e-05 -4.69926e-20 8.85585e-05)
(1.22174e-11 -4.31994e-19 -4.17971e-33 1.22174e-11 -3.74298e-34 1.22174e-11)
(0.00115364 -0.000269335 2.05159e-18 0.000585551 1.06615e-19 0.000987158)
(0.00236367 -0.000478511 -9.23677e-18 0.00110734 3.20852e-18 0.00187393)
(0.000930937 -9.73355e-05 -1.32297e-17 0.000371805 -1.04916e-17 0.000683115)
(0.00301995 0.000211438 5.54785e-17 0.00118673 4.06278e-18 0.00206901)
(0.0501813 0.0202081 -2.95894e-16 0.0409942 5.18035e-17 0.0476922)
(0.0007835 -5.96716e-05 4.50512e-21 0.000644635 5.14714e-21 0.000713479)
(0.000775938 -7.05512e-05 -1.12776e-20 0.000658071 -1.33326e-20 0.000716477)
(0.000761667 -8.01479e-05 -8.82741e-22 0.00067182 -1.9074e-21 0.00071589)
(0.000743052 -8.68344e-05 -4.60227e-21 0.000685149 -2.54707e-21 0.000713086)
(0.000719083 -8.98265e-05 3.70894e-20 0.000695101 4.23498e-20 0.000705874)
(0.000690192 -8.89772e-05 2.83761e-20 0.000701398 2.34539e-20 0.000694189)
(0.000658382 -8.43035e-05 4.69201e-22 0.000702871 1.13001e-20 0.000678667)
(0.000624194 -7.62074e-05 7.05796e-20 0.000697914 6.80453e-20 0.000658669)
(0.000588677 -6.53826e-05 -8.71327e-21 0.000686314 -1.10762e-21 0.00063456)
(0.000553074 -5.28743e-05 -2.43326e-20 0.000668039 -1.14538e-20 0.000607045)
(0.000517771 -3.96208e-05 4.7811e-20 0.00064323 1.78854e-20 0.000576335)
(0.000483286 -2.6518e-05 -6.42876e-20 0.000612769 -2.49227e-20 0.000543141)
(0.000450006 -1.43807e-05 -1.13852e-19 0.000577816 -8.87057e-20 0.000508273)
(0.000417988 -3.71699e-06 -4.7611e-20 0.000539538 1.20847e-20 0.000472324)
(0.000387257 5.18663e-06 2.05314e-19 0.000499183 9.25672e-20 0.000435993)
(0.000356835 1.20825e-05 -1.48395e-19 0.000456706 -6.7538e-20 0.000398778)
(0.000324121 1.73892e-05 -3.57524e-20 0.000409695 3.10028e-20 0.000358678)
(0.00029032 2.10887e-05 6.67945e-20 0.000360254 4.34849e-20 0.000317337)
(0.000258824 2.34676e-05 -4.23229e-20 0.00031334 -2.67333e-22 0.000278809)
(0.000230825 2.46235e-05 -1.39282e-20 0.000270867 3.50053e-20 0.000244546)
(0.000208646 2.51543e-05 1.96836e-20 0.000235956 -1.2869e-20 0.000217091)
(0.000189735 2.44023e-05 -1.46299e-19 0.000205221 1.46723e-20 0.000193547)
(0.000159635 1.87371e-05 1.1924e-21 0.000163767 -1.88455e-20 0.000159547)
(0.000100588 7.55705e-06 -3.21528e-20 9.93058e-05 3.29221e-21 9.93923e-05)
(9.48445e-08 6.83747e-12 8.14059e-27 9.4841e-08 2.39557e-27 9.48424e-08)
(4.318e-06 1.39595e-08 -5.4699e-24 4.30726e-06 -2.34761e-23 4.31202e-06)
(2.12057e-06 3.37605e-09 -2.92543e-25 2.11756e-06 -2.87037e-26 2.11892e-06)
(1.11647e-07 9.18123e-12 1.84051e-27 1.11639e-07 5.88925e-29 1.11643e-07)
(0 0 0 0 0 0)
(0 0 0 0 0 0)