/*--------------------------------*- C++ -*----------------------------------*\
| =========                 |                                                 |
| \\      /  F ield         | OpenFOAM: The Open Source CFD Toolbox           |
|  \\    /   O peration     | Version:  2306                                  |
|   \\  /    A nd           | Website:  www.openfoam.com                      |
|    \\/     M anipulation  |                                                 |
\*---------------------------------------------------------------------------*/
FoamFile
{
    version     2.0;
    format      ascii;
    arch        "LSB;label=32;scalar=64";
    class       volScalarField;
    location    "175";
    object      turbulenceProperties:epsilon;
}
// * * * * * * * * * * * * * * * * * * * * * * * * * * * * * * * * * * * * * //

dimensions      [0 2 -3 0 0 0 0];

internalField   nonuniform List<scalar> 
10720
(
0.243897
0.320595
0.42821
0.59104
0.798623
1.08181
1.46341
1.95059
2.57869
3.38297
4.41108
5.75581
7.53725
9.94983
13.3157
18.1639
25.3431
36.3282
53.8125
82.0475
132.108
216.509
405.489
770.87
842.359
784.219
744.315
733.59
730.329
717.418
690.609
650.767
596.874
530.129
450.679
362.411
255.293
162.039
26.6583
0.182113
0.137574
0.0935697
0.0618803
0.0374233
0.0203136
0.0102181
0.00591069
0.00707323
0.0131518
0.0278811
0.0580664
0.113941
0.20871
0.356844
0.57798
0.905466
1.40446
2.20046
3.52531
5.85389
10.0616
18.3164
34.4275
70.4102
146.062
332.399
683.563
964.137
1083.56
1115.63
1116.63
1102.52
1076.2
1038.58
991.504
924.63
847.865
627.993
0.00723396
0.00715955
0.00699956
0.00660591
0.00601826
0.00537377
0.00465869
0.00391471
0.00324097
0.00263971
0.00212792
0.00177625
0.00168441
0.00194655
0.00295459
0.00588772
0.014205
0.0377039
0.112519
0.370671
1.32575
5.00832
17.3261
63.5903
132.376
192.231
232.021
243.984
222.829
177.823
127.988
87.4918
60.473
43.4578
32.5888
25.2989
20.8562
17.317
20.8097
0.00710003
0.00690263
0.00651817
0.00597005
0.00525825
0.00438841
0.00348253
0.0027153
0.00207153
0.00151553
0.00107213
0.00075102
0.000523379
0.00036171
0.000247722
0.000168315
0.000112869
7.44848e-05
4.72368e-05
2.76007e-05
1.32106e-05
4.22332e-06
4.08429e-07
6.97928e-09
1.57555e-07
0.00107349
0.00667192
0.0550982
0.179271
0.332124
0.482662
0.634461
0.795271
0.969839
1.15881
1.37351
1.62149
2.2426
4.17154
0.00324376
0.0031884
0.00304244
0.00282748
0.00261072
0.00238214
0.00216117
0.00197118
0.00181441
0.00169629
0.00160824
0.00155324
0.00153545
0.00155165
0.00157177
0.00150694
0.0011135
0.000742716
8.59206e-07
0.000742175
0.000799957
0.00210734
1.8027e-05
0.0031869
0.177433
1.1404
4.03857
11.3797
26.2859
48.0524
68.3313
76.2632
69.0921
54.4283
40.2968
29.3473
22.0951
15.8141
19.2999
0.00329707
0.00329115
0.00327455
0.00316077
0.00295953
0.00263091
0.00221522
0.00179326
0.00144067
0.00111131
0.000806354
0.000558822
0.000375699
0.00024688
0.000160911
0.000105022
6.98119e-05
4.79516e-05
3.46735e-05
2.65016e-05
2.15401e-05
1.86291e-05
1.7159e-05
1.64371e-05
1.64779e-05
1.63507e-05
1.84364e-05
6.20054e-06
0.00018772
0.00104178
0.00216024
0.00384001
0.0102688
0.0281965
0.0629833
0.115402
0.183263
0.22763
0.570212
0.00230273
0.00231244
0.00228931
0.00225084
0.00217349
0.00206093
0.00192482
0.00176165
0.00158408
0.00139868
0.00121275
0.00103195
0.000859393
0.000698701
0.000553427
0.000419211
0.000300434
0.000216119
0.000129394
7.87514e-05
4.04679e-09
1.71116e-05
2.49928e-07
0.00117045
0.0227522
0.0469272
0.0158213
0.00765996
0.00157092
0.10681
1.26567
5.95199
15.4482
25.4298
29.7676
27.7557
23.5792
17.9649
19.7237
0.00225384
0.00218116
0.00206985
0.00193945
0.00178083
0.00158171
0.00136511
0.00115385
0.000950169
0.00075058
0.000570576
0.000424759
0.000313684
0.00023124
0.000171315
0.000128
9.70924e-05
7.50577e-05
5.94297e-05
4.80517e-05
3.96947e-05
3.32865e-05
2.80137e-05
2.29424e-05
1.82487e-05
1.47607e-05
1.23673e-05
1.08095e-05
8.87767e-06
7.16377e-06
3.25171e-06
1.42906e-06
2.31163e-05
1.46586e-05
7.90604e-05
0.000943627
0.00523337
0.0196923
0.144844
0.00130133
0.00129638
0.00127576
0.00123968
0.00118534
0.00111367
0.00103
0.000937248
0.000839972
0.000745025
0.00065582
0.000575489
0.000506473
0.000449738
0.000404702
0.00036975
0.000335598
0.000295377
0.000250859
0.000198536
0.000109258
5.27023e-05
1.77698e-08
5.86893e-08
9.24263e-15
0
0.00471434
0.00717316
0.0174779
0.0594284
0.0102169
0.0248405
0.021394
0.868732
4.83488
11.4147
16.4748
16.9735
19.4944
0.00129444
0.00127611
0.00124014
0.00118348
0.00110545
0.000999859
0.000881205
0.00076258
0.000644745
0.000526683
0.000416865
0.000321956
0.000243877
0.000181629
0.000133546
9.73893e-05
7.08747e-05
5.18393e-05
3.84193e-05
2.89797e-05
2.23444e-05
1.75855e-05
1.40201e-05
1.09971e-05
8.29481e-06
6.13418e-06
4.65619e-06
3.75966e-06
3.41424e-06
2.90189e-06
4.42424e-06
1.51604e-07
9.63598e-06
7.9066e-21
0.000113355
0.00019041
5.76107e-05
0.000256095
0.0156062
0.000872401
0.000879646
0.000878738
0.000872135
0.000854928
0.000827503
0.000791515
0.000746282
0.000693574
0.000635705
0.000574107
0.000511072
0.000448798
0.000388854
0.000332616
0.00027952
0.000226985
0.000178162
0.000137694
0.000105861
8.31794e-05
6.57921e-05
4.4443e-05
1.66185e-05
2.91013e-12
1.57047e-08
3.19524e-09
4.22718e-12
0
0
0.0013781
0.0152917
0.0627247
0.0353299
0.0158594
0.56188
4.24736
10.3608
16.7541
0.000856799
0.000835521
0.000805037
0.000765309
0.000715336
0.00065257
0.000584482
0.000515387
0.000444663
0.000372764
0.00030441
0.000243313
0.000191235
0.000148309
0.000113992
8.73143e-05
6.7023e-05
5.18488e-05
4.06305e-05
3.2333e-05
2.6136e-05
2.13608e-05
1.74749e-05
1.39872e-05
1.07641e-05
8.08126e-06
6.05281e-06
4.57971e-06
3.50285e-06
2.71485e-06
2.12239e-06
1.62718e-06
1.04117e-06
3.82352e-07
9.34823e-10
7.01463e-11
7.11287e-06
5.19551e-05
0.00117811
0.000571332
0.000576209
0.0005769
0.000573811
0.000564638
0.000549
0.000527521
0.000499984
0.000467128
0.000430423
0.000391079
0.000350608
0.000310641
0.000272495
0.000237145
0.000205471
0.000178695
0.00015566
0.000134011
0.000113079
9.4311e-05
7.8239e-05
6.9298e-05
5.66518e-05
3.14606e-05
1.11423e-05
1.86487e-06
1.77837e-09
5.77126e-09
3.29397e-10
0
0
0
0.00737928
0.003035
0.0351943
0.0947899
2.64681
10.5233
0.000562025
0.000549585
0.000531731
0.000507369
0.000476398
0.000438435
0.000397992
0.000355971
0.000312194
0.000267643
0.00022455
0.000184835
0.000149638
0.000119354
9.40383e-05
7.3446e-05
5.70685e-05
4.43119e-05
3.45418e-05
2.71117e-05
2.14626e-05
1.7103e-05
1.36194e-05
1.0644e-05
8.02682e-06
5.88344e-06
4.27321e-06
3.11812e-06
2.29609e-06
1.72247e-06
1.34811e-06
1.12966e-06
1.01391e-06
8.72048e-07
7.16501e-07
1.26664e-07
7.2602e-10
0
0.000227462
0.000392157
0.000397423
0.000400549
0.000401721
0.000399517
0.00039355
0.000384112
0.000370692
0.000353495
0.000333158
0.000309979
0.000284758
0.000258328
0.000231428
0.000204797
0.000179174
0.000154544
0.000130377
0.000107846
8.83345e-05
7.24153e-05
6.0121e-05
5.19867e-05
4.62318e-05
4.03415e-05
3.00387e-05
1.91611e-05
9.40943e-06
3.69222e-06
2.12447e-07
5.83007e-09
1.91109e-10
0
0
0.000153032
9.39075e-06
0.0174076
0.139999
3.87498
0.000384247
0.00037483
0.000362376
0.000345912
0.000325714
0.000301763
0.000276756
0.000250386
0.000222647
0.000194454
0.000166775
0.000140694
0.000116909
9.57726e-05
7.75012e-05
6.21469e-05
4.95317e-05
3.9403e-05
3.14158e-05
2.51744e-05
2.02944e-05
1.6426e-05
1.32593e-05
1.05229e-05
8.10323e-06
6.08416e-06
4.51663e-06
3.3439e-06
2.46679e-06
1.81026e-06
1.32634e-06
9.71021e-07
7.10168e-07
5.20258e-07
4.02785e-07
3.05134e-07
1.42443e-07
1.13648e-09
0
0.000272832
0.000277085
0.000280237
0.000282164
0.0002821
0.000279716
0.00027506
0.000267704
0.000257689
0.000245265
0.00023059
0.0002141
0.000196323
0.000177775
0.000159065
0.000140665
0.000123058
0.000106908
9.22564e-05
7.89651e-05
6.71119e-05
5.68798e-05
4.84264e-05
4.13931e-05
3.51137e-05
2.86403e-05
2.2335e-05
1.71209e-05
1.26116e-05
7.65586e-06
3.69181e-06
1.78158e-07
2.764e-09
0
0
2.99106e-09
0.00307365
0.0158685
0.701294
0.000267031
0.000260403
0.000251965
0.000240773
0.000227415
0.000211983
0.000195965
0.000178945
0.000161017
0.000142817
0.00012479
0.000107501
9.13582e-05
7.66035e-05
6.34404e-05
5.19933e-05
4.22639e-05
3.41706e-05
2.75634e-05
2.22364e-05
1.79591e-05
1.44986e-05
1.16366e-05
9.18547e-06
7.05636e-06
5.28546e-06
3.90537e-06
2.87226e-06
2.10583e-06
1.54045e-06
1.13182e-06
8.47418e-07
6.57823e-07
5.39397e-07
4.7606e-07
4.82005e-07
5.47367e-07
6.05544e-07
4.81733e-10
0.000193836
0.000197357
0.000200361
0.000202684
0.000203773
0.000203505
0.000201828
0.000198387
0.000193176
0.000186262
0.000177625
0.000167488
0.000156119
0.000143799
0.00013088
0.000117692
0.00010463
9.18038e-05
7.93461e-05
6.77797e-05
5.76169e-05
4.90735e-05
4.20239e-05
3.59089e-05
3.00161e-05
2.41669e-05
1.88688e-05
1.48082e-05
1.19931e-05
9.94709e-06
8.25824e-06
5.34278e-06
1.70109e-06
6.48465e-09
2.49517e-13
0
0
0.00468061
0.0788484
0.000189346
0.000184486
0.000178531
0.000170704
0.00016163
0.000151483
0.000140906
0.000129653
0.000117867
0.000105909
9.39954e-05
8.24307e-05
7.14224e-05
6.11141e-05
5.16768e-05
4.32334e-05
3.58339e-05
2.94957e-05
2.41648e-05
1.97449e-05
1.61066e-05
1.31004e-05
1.05781e-05
8.41181e-06
6.53154e-06
4.95697e-06
3.71057e-06
2.75993e-06
2.04179e-06
1.50129e-06
1.10033e-06
8.08497e-07
5.98764e-07
4.55462e-07
3.62287e-07
3.43215e-07
3.28894e-07
9.04554e-07
1.68177e-07
0.000139698
0.000142521
0.0001451
0.000147278
0.000148706
0.000149305
0.000148949
0.000147464
0.000144762
0.000140851
0.000135663
0.000129285
0.000121858
0.000113534
0.000104546
9.51379e-05
8.55496e-05
7.60751e-05
6.69669e-05
5.84096e-05
5.06303e-05
4.37503e-05
3.77673e-05
3.23935e-05
2.71479e-05
2.18932e-05
1.70543e-05
1.31777e-05
1.04149e-05
8.55988e-06
7.32181e-06
6.51092e-06
5.45156e-06
3.06556e-06
2.25693e-10
2.15225e-17
0
0.00020494
0.0159229
0.000136274
0.000132698
0.000128463
0.000122915
0.000116631
0.000109821
0.000102665
9.50714e-05
8.72029e-05
7.92277e-05
7.12458e-05
6.34275e-05
5.58821e-05
4.86838e-05
4.19349e-05
3.57367e-05
3.015e-05
2.5218e-05
2.09488e-05
1.73075e-05
1.42287e-05
1.16288e-05
9.4155e-06
7.50572e-06
5.85286e-06
4.46579e-06
3.35685e-06
2.5023e-06
1.85308e-06
1.36397e-06
1.0019e-06
7.40764e-07
5.57999e-07
4.37384e-07
3.62347e-07
3.51633e-07
3.43359e-07
6.78017e-07
1.04116e-06
0.000102044
0.000104304
0.000106464
0.000108387
0.000109859
0.000110823
0.000111199
0.000110813
0.000109588
0.000107527
0.000104582
0.000100725
9.60248e-05
9.05651e-05
8.44688e-05
7.78854e-05
7.09876e-05
6.3993e-05
5.70013e-05
5.01957e-05
4.38663e-05
3.81917e-05
3.31826e-05
2.86402e-05
2.42236e-05
1.98005e-05
1.56563e-05
1.22133e-05
9.62466e-06
7.75327e-06
6.38204e-06
5.4817e-06
4.92413e-06
4.91883e-06
3.1322e-06
4.60415e-09
0
6.67572e-05
0.00534044
9.94216e-05
9.67402e-05
9.36747e-05
8.96954e-05
8.52732e-05
8.05903e-05
7.56645e-05
7.045e-05
6.51179e-05
5.97204e-05
5.43061e-05
4.89755e-05
4.37753e-05
3.87305e-05
3.39132e-05
2.93878e-05
2.52014e-05
2.14056e-05
1.8025e-05
1.50649e-05
1.25025e-05
1.02938e-05
8.38281e-06
6.71988e-06
5.27937e-06
4.06407e-06
3.08143e-06
2.31407e-06
1.72453e-06
1.27608e-06
9.40351e-07
6.94817e-07
5.19063e-07
3.99312e-07
3.22832e-07
3.02371e-07
3.0392e-07
4.92018e-07
1.24027e-06
7.53783e-05
7.71714e-05
7.89402e-05
8.05714e-05
8.19233e-05
8.29637e-05
8.36366e-05
8.37993e-05
8.34102e-05
8.24135e-05
8.07683e-05
7.84887e-05
7.5535e-05
7.1956e-05
6.7827e-05
6.32368e-05
5.82933e-05
5.31585e-05
4.79532e-05
4.28076e-05
3.78954e-05
3.33588e-05
2.9221e-05
2.53791e-05
2.16319e-05
1.7895e-05
1.43682e-05
1.13756e-05
9.05822e-06
7.31881e-06
5.9863e-06
4.97778e-06
4.25423e-06
3.85922e-06
4.73028e-06
1.81679e-06
2.98326e-10
8.55394e-06
0.00165482
7.33701e-05
7.13428e-05
6.90877e-05
6.62035e-05
6.30517e-05
5.97683e-05
5.63188e-05
5.269e-05
4.90168e-05
4.53263e-05
4.161e-05
3.7939e-05
3.43315e-05
3.07926e-05
2.73522e-05
2.40552e-05
2.09366e-05
1.80386e-05
1.53903e-05
1.30097e-05
1.08976e-05
9.03736e-06
7.40175e-06
5.96592e-06
4.71683e-06
3.65744e-06
2.79175e-06
2.10766e-06
1.57709e-06
1.17066e-06
8.64702e-07
6.40137e-07
4.79594e-07
3.70473e-07
3.01175e-07
2.80243e-07
2.83348e-07
4.16035e-07
1.04035e-06
5.62361e-05
5.76522e-05
5.90861e-05
6.04419e-05
6.16263e-05
6.26278e-05
6.3391e-05
6.38174e-05
6.38664e-05
6.35148e-05
6.26749e-05
6.13702e-05
5.95852e-05
5.72968e-05
5.4554e-05
5.14063e-05
4.79171e-05
4.4198e-05
4.03378e-05
3.64161e-05
3.25645e-05
2.89288e-05
2.55403e-05
2.23409e-05
1.92041e-05
1.60757e-05
1.30983e-05
1.05205e-05
8.4762e-06
6.90908e-06
5.69272e-06
4.73721e-06
4.00593e-06
3.42688e-06
3.29429e-06
4.82226e-06
9.20732e-08
1.48646e-08
0.000310729
5.46848e-05
5.3146e-05
5.14619e-05
4.93495e-05
4.70775e-05
4.47351e-05
4.22787e-05
3.9726e-05
3.71649e-05
3.45992e-05
3.20303e-05
2.94809e-05
2.69639e-05
2.44696e-05
2.20145e-05
1.96191e-05
1.7305e-05
1.51063e-05
1.30495e-05
1.11551e-05
9.43328e-06
7.88484e-06
6.50093e-06
5.27398e-06
4.20003e-06
3.28234e-06
2.52464e-06
1.91846e-06
1.44323e-06
1.07602e-06
7.97312e-07
5.91025e-07
4.42019e-07
3.39341e-07
2.72928e-07
2.49981e-07
2.49852e-07
3.55714e-07
8.38719e-07
4.23185e-05
4.34331e-05
4.45894e-05
4.56983e-05
4.67061e-05
4.76107e-05
4.8358e-05
4.88825e-05
4.91548e-05
4.91448e-05
4.8801e-05
4.81059e-05
4.70648e-05
4.56326e-05
4.38306e-05
4.1693e-05
3.92569e-05
3.6583e-05
3.37523e-05
3.08176e-05
2.78549e-05
2.4987e-05
2.22489e-05
1.9612e-05
1.70049e-05
1.43972e-05
1.18927e-05
9.6814e-06
7.88461e-06
6.47992e-06
5.37765e-06
4.50867e-06
3.82688e-06
3.32796e-06
2.76921e-06
3.62318e-06
2.61833e-06
6.5713e-13
1.78088e-09
4.1112e-05
3.99366e-05
3.86678e-05
3.71026e-05
3.54477e-05
3.37511e-05
3.1981e-05
3.01628e-05
2.83556e-05
2.65518e-05
2.47633e-05
2.29741e-05
2.12053e-05
1.94419e-05
1.76852e-05
1.59472e-05
1.4238e-05
1.2579e-05
1.09919e-05
9.49655e-06
8.1081e-06
6.8343e-06
5.6762e-06
4.63516e-06
3.71662e-06
2.92644e-06
2.26729e-06
1.73354e-06
1.31057e-06
9.80892e-07
7.28719e-07
5.40765e-07
4.04204e-07
3.09523e-07
2.47668e-07
2.24316e-07
2.21694e-07
3.03986e-07
6.80221e-07
3.2085e-05
3.29653e-05
3.38929e-05
3.4793e-05
3.56386e-05
3.64248e-05
3.71114e-05
3.76497e-05
3.80192e-05
3.81907e-05
3.8136e-05
3.78168e-05
3.72331e-05
3.63775e-05
3.52258e-05
3.38002e-05
3.21225e-05
3.02239e-05
2.81695e-05
2.59871e-05
2.37246e-05
2.14777e-05
1.92859e-05
1.7139e-05
1.49944e-05
1.28378e-05
1.07463e-05
8.86461e-06
7.29767e-06
6.04621e-06
5.04972e-06
4.25897e-06
3.63285e-06
3.18545e-06
2.75659e-06
2.49974e-06
4.54922e-06
5.54333e-10
2.01624e-12
3.11466e-05
3.02394e-05
2.92768e-05
2.81059e-05
2.6889e-05
2.56439e-05
2.43524e-05
2.3044e-05
2.17513e-05
2.0478e-05
1.92078e-05
1.7953e-05
1.67015e-05
1.5447e-05
1.41882e-05
1.2925e-05
1.16646e-05
1.04187e-05
9.20289e-06
8.0329e-06
6.92307e-06
5.8847e-06
4.92439e-06
4.05047e-06
3.27177e-06
2.59589e-06
2.02592e-06
1.55886e-06
1.18466e-06
8.90256e-07
6.63168e-07
4.92547e-07
3.67562e-07
2.80044e-07
2.22065e-07
1.98132e-07
1.9356e-07
2.56528e-07
5.51332e-07
2.44874e-05
2.51847e-05
2.59255e-05
2.66551e-05
2.73553e-05
2.80239e-05
2.86305e-05
2.91394e-05
2.95314e-05
2.97891e-05
2.9882e-05
2.97998e-05
2.95086e-05
2.90171e-05
2.83099e-05
2.73768e-05
2.62366e-05
2.49062e-05
2.34291e-05
2.18248e-05
2.012e-05
1.83802e-05
1.66457e-05
1.49174e-05
1.31711e-05
1.14009e-05
9.66617e-06
8.07673e-06
6.72156e-06
5.61553e-06
4.72082e-06
4.00145e-06
3.43109e-06
2.99563e-06
2.72471e-06
2.15782e-06
3.93782e-06
1.39679e-07
1.24928e-12
2.37572e-05
2.30536e-05
2.23158e-05
2.14334e-05
2.05298e-05
1.96052e-05
1.86534e-05
1.77019e-05
1.67706e-05
1.58567e-05
1.49505e-05
1.4063e-05
1.31694e-05
1.22734e-05
1.13677e-05
1.04504e-05
9.52182e-06
8.59016e-06
7.66387e-06
6.75517e-06
5.87586e-06
5.03669e-06
4.2473e-06
3.51915e-06
2.86381e-06
2.28914e-06
1.79944e-06
1.3934e-06
1.0644e-06
8.03069e-07
5.9973e-07
4.45679e-07
3.31953e-07
2.51619e-07
1.9773e-07
1.73723e-07
1.67681e-07
2.14989e-07
4.44271e-07
1.87994e-05
1.93517e-05
1.99426e-05
2.05335e-05
2.11073e-05
2.16697e-05
2.2192e-05
2.26498e-05
2.30293e-05
2.33162e-05
2.34871e-05
2.35323e-05
2.34309e-05
2.31695e-05
2.27567e-05
2.21631e-05
2.14041e-05
2.04866e-05
1.94376e-05
1.82714e-05
1.70013e-05
1.56668e-05
1.43083e-05
1.29321e-05
1.15236e-05
1.00824e-05
8.65381e-06
7.32151e-06
6.15952e-06
5.19039e-06
4.39381e-06
3.74363e-06
3.22542e-06
2.81191e-06
2.5751e-06
2.14262e-06
2.74913e-06
1.6621e-06
9.89506e-11
1.82286e-05
1.76806e-05
1.71116e-05
1.64414e-05
1.57645e-05
1.5071e-05
1.43633e-05
1.36643e-05
1.29863e-05
1.23229e-05
1.16753e-05
1.10358e-05
1.03981e-05
9.75312e-06
9.09898e-06
8.43127e-06
7.74812e-06
7.05311e-06
6.35087e-06
5.64897e-06
4.95729e-06
4.28561e-06
3.64302e-06
3.04089e-06
2.49225e-06
2.007e-06
1.58911e-06
1.23846e-06
9.51058e-07
7.2045e-07
5.39365e-07
4.00944e-07
2.97896e-07
2.24403e-07
1.74444e-07
1.50617e-07
1.43474e-07
1.78684e-07
3.55444e-07
1.45084e-05
1.49452e-05
1.54184e-05
1.5894e-05
1.63643e-05
1.68314e-05
1.72754e-05
1.76751e-05
1.80234e-05
1.83072e-05
1.85102e-05
1.86199e-05
1.86319e-05
1.85179e-05
1.82914e-05
1.79347e-05
1.74417e-05
1.68212e-05
1.6086e-05
1.52488e-05
1.43135e-05
1.33016e-05
1.22502e-05
1.11668e-05
1.00423e-05
8.87868e-06
7.71091e-06
6.60281e-06
5.615e-06
4.77322e-06
4.06969e-06
3.48744e-06
3.01687e-06
2.64002e-06
2.3844e-06
2.13707e-06
2.06306e-06
2.57792e-06
1.96958e-07
1.40604e-05
1.36315e-05
1.319e-05
1.26784e-05
1.21658e-05
1.1642e-05
1.11112e-05
1.05933e-05
1.00943e-05
9.61044e-06
9.14041e-06
8.67681e-06
8.2192e-06
7.75138e-06
7.27715e-06
6.79077e-06
6.28829e-06
5.77039e-06
5.23955e-06
4.70062e-06
4.15979e-06
3.62511e-06
3.10525e-06
2.61175e-06
2.15684e-06
1.74984e-06
1.39534e-06
1.09435e-06
8.44807e-07
6.42486e-07
4.821e-07
3.58359e-07
2.65456e-07
1.98554e-07
1.5249e-07
1.29188e-07
1.21289e-07
1.4715e-07
2.82175e-07
1.12487e-05
1.15949e-05
1.19735e-05
1.2357e-05
1.27402e-05
1.31265e-05
1.34984e-05
1.38421e-05
1.41509e-05
1.44154e-05
1.46227e-05
1.47651e-05
1.4835e-05
1.48192e-05
1.47095e-05
1.45108e-05
1.42019e-05
1.37911e-05
1.32834e-05
1.26904e-05
1.20108e-05
1.12535e-05
1.04483e-05
9.60457e-06
8.71607e-06
7.7851e-06
6.83833e-06
5.92424e-06
5.09177e-06
4.36705e-06
3.75058e-06
3.23353e-06
2.80807e-06
2.46977e-06
2.20518e-06
2.04798e-06
1.79042e-06
2.28442e-06
1.09274e-06
1.08962e-05
1.05591e-05
1.0215e-05
9.82264e-06
9.4304e-06
9.03189e-06
8.631e-06
8.24337e-06
7.87305e-06
7.51689e-06
7.1717e-06
6.8349e-06
6.50241e-06
6.16315e-06
5.81801e-06
5.46218e-06
5.09182e-06
4.70607e-06
4.30536e-06
3.89262e-06
3.47237e-06
3.05012e-06
2.63278e-06
2.23094e-06
1.85605e-06
1.51676e-06
1.21793e-06
9.61219e-07
7.45916e-07
5.69468e-07
4.28209e-07
3.18154e-07
2.34812e-07
1.74187e-07
1.3193e-07
1.09434e-07
1.01108e-07
1.19998e-07
2.22468e-07
8.75736e-06
9.03269e-06
9.33553e-06
9.64456e-06
9.95623e-06
1.02739e-05
1.05832e-05
1.08745e-05
1.11428e-05
1.13804e-05
1.15781e-05
1.17301e-05
1.18283e-05
1.18686e-05
1.18345e-05
1.17336e-05
1.15535e-05
1.12897e-05
1.09472e-05
1.05351e-05
1.0048e-05
9.48858e-06
8.87935e-06
8.22953e-06
7.53487e-06
6.79677e-06
6.03554e-06
5.28776e-06
4.59251e-06
3.9743e-06
3.43873e-06
2.98309e-06
2.60143e-06
2.2969e-06
2.0436e-06
1.90269e-06
1.67394e-06
1.80683e-06
1.632e-06
8.4795e-06
8.21356e-06
7.94444e-06
7.6418e-06
7.33956e-06
7.034e-06
6.72909e-06
6.43692e-06
6.1598e-06
5.89526e-06
5.63951e-06
5.39309e-06
5.14842e-06
4.90278e-06
4.64945e-06
4.38768e-06
4.11389e-06
3.82647e-06
3.52479e-06
3.20993e-06
2.88444e-06
2.55279e-06
2.22031e-06
1.89543e-06
1.58816e-06
1.30704e-06
1.05676e-06
8.39194e-07
6.54557e-07
5.01556e-07
3.77814e-07
2.80431e-07
2.06046e-07
1.51376e-07
1.12842e-07
9.14226e-08
8.29748e-08
9.67288e-08
1.74079e-07
6.84289e-06
7.0621e-06
7.3051e-06
7.55362e-06
7.80712e-06
8.06725e-06
8.32315e-06
8.56788e-06
8.79733e-06
9.00589e-06
9.18621e-06
9.33407e-06
9.44425e-06
9.51065e-06
9.52729e-06
9.48685e-06
9.39316e-06
9.23212e-06
9.00758e-06
8.72616e-06
8.38229e-06
7.97512e-06
7.51994e-06
7.02502e-06
6.48791e-06
5.90852e-06
5.30172e-06
4.69525e-06
4.11982e-06
3.59724e-06
3.1361e-06
2.73761e-06
2.39848e-06
2.12354e-06
1.89142e-06
1.74381e-06
1.57551e-06
1.48917e-06
1.59394e-06
6.62374e-06
6.41294e-06
6.20161e-06
5.96698e-06
5.73279e-06
5.49716e-06
5.26371e-06
5.04171e-06
4.83261e-06
4.63412e-06
4.44414e-06
4.26136e-06
4.08049e-06
3.90106e-06
3.71358e-06
3.52054e-06
3.31787e-06
3.10336e-06
2.87611e-06
2.63638e-06
2.3856e-06
2.12631e-06
1.86263e-06
1.60145e-06
1.35148e-06
1.12007e-06
9.11605e-07
7.28273e-07
5.70828e-07
4.38897e-07
3.31085e-07
2.45385e-07
1.7932e-07
1.30265e-07
9.53377e-08
7.52087e-08
6.6921e-08
7.69915e-08
1.35241e-07
5.36464e-06
5.5396e-06
5.73438e-06
5.93456e-06
6.14044e-06
6.35281e-06
6.56393e-06
6.76781e-06
6.96213e-06
7.14197e-06
7.30232e-06
7.43957e-06
7.55028e-06
7.62831e-06
7.67282e-06
7.67198e-06
7.6311e-06
7.54132e-06
7.39956e-06
7.21171e-06
6.97368e-06
6.68242e-06
6.34695e-06
5.97479e-06
5.56423e-06
5.11404e-06
4.63479e-06
4.14735e-06
3.6755e-06
3.23798e-06
2.84446e-06
2.49866e-06
2.19984e-06
1.95242e-06
1.74285e-06
1.59125e-06
1.45812e-06
1.29832e-06
1.37238e-06
5.19139e-06
5.02408e-06
4.85746e-06
4.67459e-06
4.49213e-06
4.30953e-06
4.1295e-06
3.95975e-06
3.80081e-06
3.65078e-06
3.50825e-06
3.37091e-06
3.23787e-06
3.10335e-06
2.96613e-06
2.82257e-06
2.67154e-06
2.5111e-06
2.33986e-06
2.1576e-06
1.96492e-06
1.76319e-06
1.55517e-06
1.3464e-06
1.14405e-06
9.54599e-07
7.81858e-07
6.28224e-07
4.94749e-07
3.81645e-07
2.8823e-07
2.13198e-07
1.54807e-07
1.11012e-07
7.95451e-08
6.08557e-08
5.29201e-08
6.04075e-08
1.04348e-07
4.21828e-06
4.35805e-06
4.5143e-06
4.67578e-06
4.84248e-06
5.01579e-06
5.1892e-06
5.35843e-06
5.52135e-06
5.6747e-06
5.81419e-06
5.93772e-06
6.04193e-06
6.12322e-06
6.17939e-06
6.20384e-06
6.19631e-06
6.15344e-06
6.06936e-06
5.94823e-06
5.78739e-06
5.58322e-06
5.33957e-06
5.06347e-06
4.75317e-06
4.40697e-06
4.03211e-06
3.64405e-06
3.26077e-06
2.89804e-06
2.56536e-06
2.26791e-06
2.0066e-06
1.78555e-06
1.59663e-06
1.44847e-06
1.32795e-06
1.16218e-06
1.15998e-06
4.08077e-06
3.94813e-06
3.81619e-06
3.6731e-06
3.53031e-06
3.38803e-06
3.24847e-06
3.11764e-06
2.99587e-06
2.88161e-06
2.77377e-06
2.67059e-06
2.57077e-06
2.47007e-06
2.3685e-06
2.26067e-06
2.14786e-06
2.0278e-06
1.89891e-06
1.76061e-06
1.61289e-06
1.45634e-06
1.29282e-06
1.12657e-06
9.63493e-07
8.09043e-07
6.66805e-07
5.38767e-07
4.26241e-07
3.2981e-07
2.49291e-07
1.83929e-07
1.3258e-07
9.3682e-08
6.5503e-08
4.83552e-08
4.09313e-08
4.66013e-08
7.98892e-08
3.32575e-06
3.43754e-06
3.56291e-06
3.6933e-06
3.82824e-06
3.96946e-06
4.11158e-06
4.25136e-06
4.38735e-06
4.51675e-06
4.63662e-06
4.74523e-06
4.84011e-06
4.91873e-06
4.97865e-06
5.01645e-06
5.02876e-06
5.0174e-06
4.97291e-06
4.89854e-06
4.79371e-06
4.65363e-06
4.47942e-06
4.27719e-06
4.04571e-06
3.78242e-06
3.49203e-06
3.1858e-06
2.87729e-06
2.5792e-06
2.30049e-06
2.04676e-06
1.81998e-06
1.62418e-06
1.45403e-06
1.31414e-06
1.19744e-06
1.04368e-06
9.88989e-07
3.21639e-06
3.11104e-06
3.00625e-06
2.89392e-06
2.78172e-06
2.67025e-06
2.5616e-06
2.46024e-06
2.36628e-06
2.27863e-06
2.1963e-06
2.11804e-06
2.04213e-06
1.96683e-06
1.89031e-06
1.80974e-06
1.72533e-06
1.63525e-06
1.53805e-06
1.43282e-06
1.31942e-06
1.19808e-06
1.06999e-06
9.38216e-07
8.07507e-07
6.82233e-07
5.65638e-07
4.59461e-07
3.65084e-07
2.83266e-07
2.14204e-07
1.57552e-07
1.12615e-07
7.82495e-08
5.3173e-08
3.76253e-08
3.08343e-08
3.52851e-08
6.07313e-08
2.62827e-06
2.71794e-06
2.81861e-06
2.92372e-06
3.03303e-06
3.14792e-06
3.26422e-06
3.37922e-06
3.49223e-06
3.60067e-06
3.70259e-06
3.79654e-06
3.88092e-06
3.9536e-06
4.0125e-06
4.05701e-06
4.08077e-06
4.08697e-06
4.06953e-06
4.02745e-06
3.96193e-06
3.86881e-06
3.74688e-06
3.60142e-06
3.43109e-06
3.23317e-06
3.01049e-06
2.77115e-06
2.52526e-06
2.28264e-06
2.0512e-06
1.83653e-06
1.64128e-06
1.46893e-06
1.3165e-06
1.18661e-06
1.07321e-06
9.32156e-07
8.50098e-07
2.54132e-06
2.45745e-06
2.37398e-06
2.28553e-06
2.19707e-06
2.10937e-06
2.02442e-06
1.94538e-06
1.87245e-06
1.80471e-06
1.74144e-06
1.68162e-06
1.62357e-06
1.56675e-06
1.5086e-06
1.44876e-06
1.38498e-06
1.31679e-06
1.24308e-06
1.16292e-06
1.07597e-06
9.82116e-07
8.82011e-07
7.77929e-07
6.73535e-07
5.72469e-07
4.77287e-07
3.89673e-07
3.10896e-07
2.41818e-07
1.82882e-07
1.34021e-07
9.48781e-08
6.46827e-08
4.25182e-08
2.85848e-08
2.25053e-08
2.61518e-08
4.58524e-08
2.08159e-06
2.15351e-06
2.23444e-06
2.31916e-06
2.40768e-06
2.50112e-06
2.59605e-06
2.69057e-06
2.78398e-06
2.87444e-06
2.96033e-06
3.0407e-06
3.11435e-06
3.17964e-06
3.23527e-06
3.27995e-06
3.31046e-06
3.32656e-06
3.32605e-06
3.30587e-06
3.26756e-06
3.2079e-06
3.12482e-06
3.02203e-06
2.8986e-06
2.75176e-06
2.58303e-06
2.39799e-06
2.20398e-06
2.00855e-06
1.81823e-06
1.63817e-06
1.47138e-06
1.32096e-06
1.18507e-06
1.06577e-06
9.57496e-07
8.27356e-07
7.33102e-07
2.01232e-06
1.9455e-06
1.87888e-06
1.80897e-06
1.73903e-06
1.66976e-06
1.60305e-06
1.54119e-06
1.48426e-06
1.43154e-06
1.38253e-06
1.33643e-06
1.29199e-06
1.24853e-06
1.20425e-06
1.15929e-06
1.11046e-06
1.05875e-06
1.00277e-06
9.41722e-07
8.75169e-07
8.02768e-07
7.24724e-07
6.42741e-07
5.59596e-07
4.78266e-07
4.00867e-07
3.28843e-07
2.63357e-07
2.05312e-07
1.5524e-07
1.13294e-07
7.93668e-08
5.29748e-08
3.35056e-08
2.11492e-08
1.58063e-08
1.89196e-08
3.44234e-08
1.65189e-06
1.70953e-06
1.77465e-06
1.84292e-06
1.91463e-06
1.99061e-06
2.06795e-06
2.1455e-06
2.22242e-06
2.29755e-06
2.36947e-06
2.43761e-06
2.50092e-06
2.55845e-06
2.60908e-06
2.65159e-06
2.68437e-06
2.70537e-06
2.7159e-06
2.71029e-06
2.69076e-06
2.65469e-06
2.5999e-06
2.52867e-06
2.44059e-06
2.3331e-06
2.20656e-06
2.06488e-06
1.91322e-06
1.75722e-06
1.60219e-06
1.45255e-06
1.31105e-06
1.18087e-06
1.0606e-06
9.52018e-07
8.50331e-07
7.3056e-07
6.32652e-07
1.59651e-06
1.54325e-06
1.49004e-06
1.4346e-06
1.37917e-06
1.32437e-06
1.27173e-06
1.22307e-06
1.17839e-06
1.13713e-06
1.09893e-06
1.06311e-06
1.02882e-06
9.95205e-07
9.61605e-07
9.2695e-07
8.89882e-07
8.50574e-07
8.08021e-07
7.61483e-07
7.1042e-07
6.54483e-07
5.93665e-07
5.29155e-07
4.63107e-07
3.97858e-07
3.35137e-07
2.76175e-07
2.21987e-07
1.73436e-07
1.31098e-07
9.52612e-08
6.60001e-08
4.30531e-08
2.60535e-08
1.51986e-08
1.05744e-08
1.33124e-08
2.5718e-08
1.31314e-06
1.35946e-06
1.4118e-06
1.4669e-06
1.52494e-06
1.5866e-06
1.64963e-06
1.71305e-06
1.77625e-06
1.83835e-06
1.89831e-06
1.9556e-06
2.00963e-06
2.05953e-06
2.10461e-06
2.14365e-06
2.17648e-06
2.19962e-06
2.21507e-06
2.21915e-06
2.21203e-06
2.19225e-06
2.15766e-06
2.10987e-06
2.04825e-06
1.97063e-06
1.8769e-06
1.76956e-06
1.65216e-06
1.52877e-06
1.40354e-06
1.2802e-06
1.16122e-06
1.0492e-06
9.43672e-07
8.45523e-07
7.51375e-07
6.42038e-07
5.45631e-07
1.26882e-06
1.22636e-06
1.18383e-06
1.13972e-06
1.0957e-06
1.05226e-06
1.01059e-06
9.72168e-07
9.36932e-07
9.04486e-07
8.74537e-07
8.46527e-07
8.19868e-07
7.93681e-07
7.67942e-07
7.41066e-07
7.13226e-07
6.83061e-07
6.50471e-07
6.14825e-07
5.75581e-07
5.32318e-07
4.84939e-07
4.34257e-07
3.8188e-07
3.29703e-07
2.79054e-07
2.30966e-07
1.8631e-07
1.45866e-07
1.10229e-07
7.97496e-08
5.46306e-08
3.47812e-08
2.00279e-08
1.05771e-08
6.63188e-09
9.08546e-09
1.9161e-08
1.04547e-06
1.08273e-06
1.12479e-06
1.16929e-06
1.21629e-06
1.26627e-06
1.31759e-06
1.36935e-06
1.42121e-06
1.47239e-06
1.52216e-06
1.57011e-06
1.61578e-06
1.65853e-06
1.6979e-06
1.73299e-06
1.7634e-06
1.78743e-06
1.80485e-06
1.81442e-06
1.81517e-06
1.80624e-06
1.78589e-06
1.75493e-06
1.71288e-06
1.65785e-06
1.58942e-06
1.50904e-06
1.41911e-06
1.3225e-06
1.22229e-06
1.12144e-06
1.02217e-06
9.26604e-07
8.34602e-07
7.46792e-07
6.60675e-07
5.61891e-07
4.70246e-07
1.01e-06
9.76098e-07
9.42106e-07
9.06914e-07
8.71918e-07
8.37399e-07
8.04334e-07
7.73878e-07
7.45991e-07
7.20336e-07
6.96711e-07
6.74732e-07
6.53857e-07
6.33484e-07
6.13382e-07
5.92666e-07
5.71499e-07
5.48133e-07
5.23119e-07
4.95775e-07
4.65579e-07
4.321e-07
3.95188e-07
3.55409e-07
3.13975e-07
2.72319e-07
2.31541e-07
1.92444e-07
1.55777e-07
1.22222e-07
9.23506e-08
6.65469e-08
4.50845e-08
2.8007e-08
1.52787e-08
7.11732e-09
3.79461e-09
6.01219e-09
1.42963e-08
8.33544e-07
8.63509e-07
8.97342e-07
9.33264e-07
9.7129e-07
1.01183e-06
1.05353e-06
1.09575e-06
1.13822e-06
1.18029e-06
1.22144e-06
1.26135e-06
1.29969e-06
1.336e-06
1.36992e-06
1.40091e-06
1.42836e-06
1.45143e-06
1.46903e-06
1.48193e-06
1.48752e-06
1.48569e-06
1.47513e-06
1.45608e-06
1.42812e-06
1.38978e-06
1.34047e-06
1.2809e-06
1.21266e-06
1.13769e-06
1.0582e-06
9.76469e-07
8.94237e-07
8.13316e-07
7.33719e-07
6.5599e-07
5.78066e-07
4.8958e-07
4.04864e-07
8.05128e-07
7.78029e-07
7.50848e-07
7.22761e-07
6.94871e-07
6.67393e-07
6.41105e-07
6.16896e-07
5.94744e-07
5.7438e-07
5.55687e-07
5.38298e-07
5.21836e-07
5.05971e-07
4.90119e-07
4.74309e-07
4.57517e-07
4.3985e-07
4.20564e-07
3.99478e-07
3.76155e-07
3.50205e-07
3.21422e-07
2.90196e-07
2.57467e-07
2.24295e-07
1.91552e-07
1.59865e-07
1.29858e-07
1.02125e-07
7.71856e-08
5.54395e-08
3.71872e-08
2.25682e-08
1.16465e-08
4.64904e-09
1.87835e-09
3.88595e-09
1.07534e-08
6.65387e-07
6.89518e-07
7.16743e-07
7.45729e-07
7.76484e-07
8.09335e-07
8.43195e-07
8.77582e-07
9.12306e-07
9.46802e-07
9.80717e-07
1.01381e-06
1.04583e-06
1.07646e-06
1.1054e-06
1.13231e-06
1.15656e-06
1.17813e-06
1.19519e-06
1.20881e-06
1.21733e-06
1.21997e-06
1.21587e-06
1.20509e-06
1.18724e-06
1.16115e-06
1.12612e-06
1.08251e-06
1.03121e-06
9.73501e-07
9.10922e-07
8.45151e-07
7.77569e-07
7.0952e-07
6.41204e-07
5.72952e-07
5.03369e-07
4.2492e-07
3.48119e-07
6.42637e-07
6.20975e-07
5.99217e-07
5.76781e-07
5.54534e-07
5.32631e-07
5.11688e-07
4.9241e-07
4.74766e-07
4.58546e-07
4.4367e-07
4.29883e-07
4.16869e-07
4.04345e-07
3.91951e-07
3.79524e-07
3.66519e-07
3.53029e-07
3.37939e-07
3.21632e-07
3.03595e-07
2.83465e-07
2.61045e-07
2.36577e-07
2.10741e-07
1.84372e-07
1.58122e-07
1.32503e-07
1.0802e-07
8.51843e-08
6.44498e-08
4.61979e-08
3.07489e-08
1.82967e-08
8.97302e-09
3.00958e-09
7.13655e-10
2.51432e-09
8.23052e-09
5.31761e-07
5.51163e-07
5.73079e-07
5.96482e-07
6.21347e-07
6.47947e-07
6.75434e-07
7.03421e-07
7.31746e-07
7.6e-07
7.87883e-07
8.15223e-07
8.41834e-07
8.67489e-07
8.91979e-07
9.15044e-07
9.36284e-07
9.55461e-07
9.71767e-07
9.84911e-07
9.94625e-07
9.99794e-07
9.99819e-07
9.94601e-07