/*--------------------------------*- C++ -*----------------------------------*\
| =========                 |                                                 |
| \\      /  F ield         | OpenFOAM: The Open Source CFD Toolbox           |
|  \\    /   O peration     | Version:  2306                                  |
|   \\  /    A nd           | Website:  www.openfoam.com                      |
|    \\/     M anipulation  |                                                 |
\*---------------------------------------------------------------------------*/
FoamFile
{
    version     2.0;
    format      ascii;
    arch        "LSB;label=32;scalar=64";
    class       volScalarField;
    location    "775";
    object      div(phi);
}
// * * * * * * * * * * * * * * * * * * * * * * * * * * * * * * * * * * * * * //

dimensions      [0 0 -1 0 0 0 0];

internalField   nonuniform List<scalar> 
1340
(
-6.56545e-06
4.90586e-06
-3.5737e-06
2.93302e-06
-2.2369e-06
-5.14996e-07
-3.12797e-06
-1.68389e-06
-7.38763e-07
7.1395e-07
9.03874e-07
1.14083e-06
6.9673e-07
6.72423e-07
3.72338e-07
4.97184e-07
2.96832e-07
5.76657e-07
1.86022e-07
5.98327e-07
-7.22582e-07
-4.93174e-07
-4.80279e-06
-6.23707e-06
-7.42952e-06
-5.69682e-06
-3.41007e-06
-2.11175e-06
-3.17172e-06
-3.4331e-06
6.2012e-06
-1.88314e-05
-2.23509e-06
3.56782e-07
9.09022e-06
5.13941e-06
-5.63032e-06
-1.31006e-07
-1.20135e-06
-1.04822e-06
4.23181e-06
1.74217e-06
-3.23936e-06
1.35883e-06
-2.29502e-06
2.19563e-06
-2.38959e-06
-1.18148e-06
-2.36308e-06
-1.67323e-06
-9.33986e-08
8.00872e-07
9.60876e-07
1.04042e-06
6.65884e-07
6.85307e-07
4.00731e-07
5.52078e-07
3.34532e-07
5.25861e-07
1.99219e-07
3.50035e-07
-4.32633e-07
-6.54774e-07
-2.61281e-06
-3.148e-06
-3.85495e-06
-3.44144e-06
-3.0595e-06
-2.44558e-06
-2.57777e-06
-2.39786e-06
2.5008e-06
-1.01299e-05
-2.81692e-06
-2.6662e-06
1.24524e-06
9.70141e-08
-2.71474e-06
9.94891e-07
-6.74947e-07
2.27979e-06
5.99442e-07
5.81817e-06
-3.80349e-06
3.74846e-06
-2.7789e-06
5.03116e-07
-2.54921e-06
-1.89352e-06
-6.79748e-07
3.15039e-07
6.95191e-07
1.18949e-06
8.64282e-07
9.08376e-07
5.85513e-07
6.26024e-07
4.81245e-07
5.41152e-07
5.35602e-07
4.92864e-07
4.79472e-07
6.35897e-08
-1.51005e-07
-1.43009e-06
-2.17794e-06
-2.76048e-06
-2.37633e-06
-2.31642e-06
-6.80556e-07
-1.41317e-06
-1.60573e-06
2.89756e-06
-1.01981e-05
-5.60832e-07
1.45158e-06
7.28078e-06
-4.21423e-06
2.7435e-06
-4.6506e-07
2.38457e-06
8.54551e-07
1.604e-06
-2.83839e-06
2.39361e-06
-1.16927e-06
7.75303e-07
-2.07812e-06
-1.58084e-06
-1.0838e-06
-3.82958e-07
3.99126e-07
9.00363e-07
1.02817e-06
8.56371e-07
8.55775e-07
5.8631e-07
7.26245e-07
4.87164e-07
6.92627e-07
4.56753e-07
5.97951e-07
2.7437e-07
1.47232e-07
-5.58813e-07
-1.41841e-06
-2.41686e-06
-2.72799e-06
-3.04424e-06
-2.5573e-06
-2.3298e-06
-2.19747e-06
-1.89809e-06
6.913e-07
-6.89239e-06
-2.8398e-06
-2.76597e-06
1.19498e-09
1.92803e-06
5.34083e-07
2.11006e-06
1.83847e-06
1.18778e-06
-1.17968e-06
1.74738e-07
1.95875e-07
-1.25216e-06
-1.00461e-06
-1.50212e-06
-7.62584e-07
7.94706e-08
3.88502e-07
9.53666e-07
8.10424e-07
9.83642e-07
6.95712e-07
8.255e-07
6.04634e-07
7.12741e-07
5.77622e-07
6.78732e-07
5.67311e-07
5.56465e-07
2.64935e-07
-3.17758e-08
-8.37989e-07
-1.70251e-06
-2.2685e-06
-2.8635e-06
-2.34063e-06
-1.75491e-06
-1.08683e-06
-1.66885e-06
1.45722e-06
-7.60566e-06
-7.95364e-07
2.90761e-06
7.6391e-06
1.56624e-06
1.31595e-06
2.55011e-06
9.08237e-07
1.02283e-06
7.87508e-07
-5.80258e-08
-1.13182e-06
-1.4002e-07
-1.51714e-06
-6.97737e-07
-2.94456e-07
-4.25058e-08
6.04869e-07
7.44225e-07
8.12446e-07
7.81543e-07
6.85692e-07
7.91499e-07
6.15609e-07
7.64946e-07
5.54312e-07
7.26576e-07
4.43223e-07
5.382e-07
7.47648e-08
-9.76037e-08
-9.87437e-07
-1.42429e-06
-2.22263e-06
-2.38706e-06
-2.61741e-06
-2.48961e-06
-2.72702e-06
-2.14138e-06
-4.27672e-07
-6.04565e-06
-3.50557e-06
-3.13612e-06
-2.69856e-07
8.73967e-07
2.06311e-06
1.92592e-06
9.46558e-07
1.85969e-06
-1.31675e-06
-1.54181e-08
-1.09654e-06
-5.12012e-07
-5.31611e-07
-2.4258e-07
1.80203e-07
5.19198e-07
5.75439e-07
7.40168e-07
6.01553e-07
8.07863e-07
6.71592e-07
8.25029e-07
6.4689e-07
7.38384e-07
6.10794e-07
6.47316e-07
4.98769e-07
3.8672e-07
1.09105e-07
-3.44004e-07
-9.65372e-07
-1.57679e-06
-2.15283e-06
-2.59676e-06
-1.69374e-06
-1.79302e-06
-1.27909e-06
5.66411e-07
-5.90225e-06
-8.3753e-08
3.56468e-06
8.83554e-06
6.39117e-07
2.52248e-06
5.11013e-07
1.49869e-06
-1.1511e-06
-6.83534e-07
-6.69792e-07
-6.19315e-07
-4.38009e-07
-2.64745e-07
-1.3503e-07
1.84978e-07
3.60519e-07
6.10039e-07
4.82512e-07
5.2978e-07
6.61712e-07
6.55825e-07
7.8552e-07
6.14892e-07
7.47603e-07
5.12698e-07
6.34822e-07
3.08466e-07
3.35106e-07
-1.58992e-07
-3.52354e-07
-1.03189e-06
-1.29751e-06
-1.92784e-06
-2.07629e-06
-2.61293e-06
-2.81775e-06
-2.57436e-06
-1.04949e-06
-5.11955e-06
-3.882e-06
-3.18845e-06
-5.06024e-07
1.65176e-06
3.7487e-07
1.72323e-06
-1.98958e-06
-1.79631e-07
-3.53857e-07
-1.02113e-06
-3.68949e-07
-4.34797e-07
-2.7831e-07
-6.79822e-08
9.48703e-08
3.78778e-07
2.84166e-07
3.81181e-07
5.23202e-07
5.26242e-07
7.99501e-07
6.80622e-07
8.04723e-07
6.06062e-07
7.07317e-07
5.05456e-07
5.7725e-07
3.19948e-07
3.50896e-07
-1.22841e-07
-2.61674e-07
-9.70232e-07
-1.18333e-06
-2.17377e-06
-1.57152e-06
-1.98594e-06
-1.2168e-06
-1.96672e-07
-3.54569e-06
-6.92382e-08
4.75718e-06
8.38224e-06
-2.00276e-07
1.64552e-06
-1.42079e-06
-2.89806e-07
-9.72079e-08
-1.04035e-07
8.51641e-08
6.4175e-08
7.90193e-07
-1.02269e-08
3.0804e-07
4.94761e-07
6.65286e-07
6.51572e-07
7.27387e-07
5.82959e-07
6.14126e-07
4.39098e-07
4.01642e-07
1.97209e-07
3.21902e-08
-2.36376e-07
-5.71618e-07
-8.5328e-07
-1.34472e-06
-1.62013e-06
-2.40082e-06
-2.66438e-06
-2.98148e-06
-1.26339e-06
-4.6531e-06
-4.21398e-06
-3.14525e-06
-8.34013e-07
-1.37997e-07
-1.48399e-07
9.73341e-07
-2.63095e-07
2.73597e-07
1.70509e-08
4.48743e-07
5.36584e-07
7.71487e-07
6.35718e-07
7.55192e-07
5.03717e-07
6.47551e-07
3.40158e-07
5.52047e-07
1.4569e-07
3.89855e-07
-2.74203e-07
5.08722e-08
-9.99016e-07
-7.39654e-07
-1.83514e-06
-1.09665e-06
-1.95138e-06
7.23257e-07
-2.67159e-06
8.42348e-07
4.81217e-06
7.7868e-06
-3.80512e-07
9.09862e-07
-2.91811e-07
-4.4298e-08
2.68065e-07
4.61624e-07
6.00127e-07
6.70185e-07
5.79828e-07
5.50941e-07
3.79589e-07
3.54476e-07
1.28599e-07
7.72365e-08
-2.03275e-07
-3.14843e-07
-6.14014e-07
-8.83087e-07
-1.23922e-06
-1.92584e-06
-2.39159e-06
-2.86006e-06
-1.47595e-06
-4.2789e-06
-4.68733e-06
-3.27746e-06
-1.17867e-06
-5.12319e-07
-3.04011e-08
-1.15924e-08
1.56312e-07
4.51475e-07
5.52254e-07
7.35634e-07
5.97744e-07
6.61143e-07
4.07479e-07
5.23239e-07
2.48191e-07
4.45672e-07
9.39821e-08
3.08165e-07
-8.4155e-08
4.43498e-08
-6.14269e-07
-5.4988e-07
-1.18038e-06
-9.00638e-07
5.96973e-07
-1.0346e-06
1.0736e-06
5.44935e-06
7.02193e-06
-1.06146e-07
-1.97314e-08
6.37459e-08
3.03672e-07
5.56045e-07
5.72348e-07
6.52616e-07
3.92028e-07
4.46202e-07
1.48771e-07
2.07411e-07
-1.09898e-07
-4.82791e-08
-3.82343e-07
-3.04041e-07
-7.54886e-07
-7.5474e-07
-1.58409e-06
-1.75473e-06
-2.58265e-06
-1.41614e-06
-4.08674e-06
-4.71465e-06
-3.67576e-06
-1.26765e-06
-1.68015e-07
-8.84731e-08
3.56656e-08
2.65908e-07
5.2034e-07
6.52412e-07
6.44599e-07
5.38965e-07
4.67148e-07
3.27203e-07
3.31754e-07
2.00982e-07
2.74124e-07
1.20586e-07
3.1635e-07
5.11552e-08
2.12993e-07
-3.18538e-07
-6.25676e-08
-5.44819e-07
1.2263e-06
-4.18466e-08
1.46552e-06
6.28134e-06
6.47105e-06
-2.65532e-07
7.4757e-08
1.82334e-07
4.57169e-07
6.25362e-07
4.70777e-07
4.77475e-07
1.98208e-07
2.55815e-07
-5.05625e-08
2.82525e-08
-2.7025e-07
-1.47625e-07
-4.19983e-07
-3.69779e-07
-7.01978e-07
-9.66899e-07
-1.42642e-06
-1.83812e-06
-1.53826e-06
-3.51427e-06
-4.60174e-06
-3.69804e-06
-1.35891e-06
-2.21311e-07
1.67973e-07
4.80497e-07
5.40449e-07
5.86495e-07
4.10963e-07
3.96298e-07
2.31001e-07
2.41164e-07
1.26315e-07
1.91888e-07
1.30962e-07
3.02828e-07
2.35807e-07
4.31565e-07
1.52014e-07
4.94664e-07
1.35365e-07
1.6124e-06
4.48659e-07
2.2021e-06
5.87042e-06
6.94107e-06
-4.86884e-08
2.46589e-07
3.57205e-07
4.53053e-07
4.22224e-07
2.40511e-07
2.35345e-07
4.26338e-08
2.54466e-08
-1.59568e-07
-1.52378e-07
-2.63889e-07
-2.42131e-07
-3.49879e-07
-4.54931e-07
-6.92927e-07
-1.00384e-06
-1.2943e-06
-1.49141e-06
-2.95694e-06
-4.07662e-06
-3.53581e-06
-1.30331e-06
5.41104e-08
2.82023e-07
4.14656e-07
3.07736e-07
3.47839e-07
1.79893e-07
2.49535e-07
4.69635e-08
1.60107e-07
-2.76283e-10
2.10364e-07
1.15032e-07
4.27644e-07
2.97996e-07
6.21004e-07
4.6134e-07
9.5446e-07
1.12327e-06
1.24345e-06
1.90569e-06
5.74365e-06
6.7537e-06
1.40702e-07
2.85934e-07
2.71783e-07
1.48175e-07
1.34225e-07
9.88348e-08
3.78363e-08
-6.04098e-08
-1.49957e-07
-2.02025e-07
-2.25374e-07
-2.31535e-07
-2.62952e-07
-3.7307e-07
-4.76929e-07
-7.72667e-07
-9.15383e-07
-1.46428e-06
-2.35294e-06
-3.46119e-06
-3.02165e-06
-1.13686e-06
1.62956e-07
1.43169e-08
1.67838e-07
9.4168e-08
1.86064e-07
6.32429e-08
1.05639e-07
-3.61288e-08
6.2819e-08
-6.06176e-09
1.79741e-07
1.89044e-07
4.03423e-07
4.34543e-07
6.70476e-07
8.0337e-07
1.09222e-06
1.07516e-06
1.941e-06
4.67535e-06
6.52293e-06
-5.8807e-08
5.21657e-07
-7.57227e-08
5.59495e-09
4.4272e-08
2.31332e-08
-9.7903e-08
-1.54728e-07
-2.27223e-07
-2.21062e-07
-2.2735e-07
-2.48719e-07
-3.22487e-07
-4.0536e-07
-6.23863e-07
-7.74076e-07
-1.33279e-06
-1.89982e-06
-2.8113e-06
-2.4219e-06
-9.5197e-07
-4.59128e-07
-2.83999e-07
-9.00745e-08
2.85725e-08
7.79665e-08
-1.05379e-08
-2.60561e-08
-8.25895e-08
-1.91513e-08
-7.35593e-09
1.32871e-07
1.78509e-07
3.82777e-07
4.16052e-07
7.31153e-07
6.83176e-07
1.0096e-06
1.53897e-06
3.56601e-06
5.72272e-06
3.26236e-07
-4.40676e-07
-3.37403e-07
-5.8213e-08
-3.64033e-08
-8.61223e-08
-2.00687e-07
-2.16539e-07
-2.62296e-07
-2.11044e-07
-2.87095e-07
-2.74315e-07
-4.23345e-07
-5.08298e-07
-7.43778e-07
-1.14358e-06
-1.56201e-06
-2.27094e-06
-1.82122e-06
-1.02673e-06
-1.03279e-06
-4.26783e-07
-2.48744e-07
-2.13044e-08
1.00989e-08
-3.19213e-08
-1.00758e-07
-1.17974e-07
-1.24762e-07
-7.98577e-08
-3.68249e-08
7.16228e-08
1.45636e-07
2.76691e-07
4.16664e-07
4.5894e-07
7.2035e-07
1.08502e-06
2.68223e-06
4.1929e-06
-8.94926e-07
-1.70901e-07
-6.96869e-08
-2.27421e-08
-1.37207e-07
-1.69688e-07
-2.68197e-07
-2.21345e-07
-2.69439e-07
-2.35817e-07
-3.15815e-07
-3.57371e-07
-4.7917e-07
-6.60911e-07
-9.58813e-07
-1.31665e-06
-1.76471e-06
-1.38794e-06
-1.51871e-06
-2.25263e-07
-1.67389e-07
3.97836e-09
-2.11106e-08
-4.99059e-08
-1.37969e-07
-1.41651e-07
-1.77474e-07
-1.42324e-07
-1.31278e-07
-4.66588e-08
-2.2839e-09
1.11584e-07
1.76046e-07
2.53957e-07
4.09215e-07
7.36627e-07
1.79017e-06
2.87588e-06
-7.38347e-07
3.4361e-07
2.26935e-09
-4.28775e-08
-9.51887e-08
-1.97824e-07
-2.17971e-07
-2.46519e-07
-2.23494e-07
-2.46814e-07
-2.64541e-07
-3.27061e-07
-4.01188e-07
-5.70276e-07
-7.74969e-07
-1.07421e-06
-1.3824e-06
-9.00421e-07
-2.08562e-06
-4.9804e-07
-1.81561e-07
-7.41328e-08
-1.26904e-07
-1.21251e-07
-1.88028e-07
-1.5956e-07
-2.01633e-07
-1.46752e-07
-1.413e-07
-6.5749e-08
-3.42529e-08
3.54353e-08
7.52384e-08
1.68841e-07
5.13661e-07
1.01157e-06
2.90642e-07
2.44e-07
-1.70268e-07
-2.98298e-07
-1.82464e-07
-2.09807e-07
-2.13119e-07
-2.2229e-07
-2.02195e-07
-2.07858e-07
-2.24581e-07
-2.61674e-07
-3.28236e-07
-4.47186e-07
-6.05822e-07
-8.22394e-07
-1.03387e-06
-1.2412e-06
9.98708e-08
-6.60184e-07
-2.356e-07
-2.1318e-07
-1.73325e-07
-1.89475e-07
-1.69885e-07
-1.91746e-07
-1.75634e-07
-1.83209e-07
-1.433e-07
-1.29287e-07
-8.42637e-08
-6.69351e-08
-2.31892e-08
2.35377e-08
2.1959e-07
1.3507e-06
-1.14477e-06
-5.72673e-07
-1.95631e-07
-2.03682e-07
-2.07091e-07
-2.15765e-07
-1.92344e-07
-1.82104e-07
-1.63717e-07
-1.81789e-07
-1.96105e-07
-2.49644e-07
-3.2364e-07
-4.41421e-07
-5.86937e-07
-5.64113e-07
-1.34328e-06
2.20114e-06
8.94544e-08
-1.62066e-07
-2.01928e-07
-2.01091e-07
-1.85095e-07
-1.69107e-07
-1.70321e-07
-1.62105e-07
-1.50887e-07
-1.35065e-07
-1.18106e-07
-9.97102e-08
-7.38328e-08
-2.29258e-08
6.44284e-08
1.55439e-06
-2.67296e-06
-4.6078e-07
-4.13936e-08
-1.79655e-07
-2.16107e-07
-1.86465e-07
-1.76899e-07
-1.38721e-07
-1.36958e-07
-1.41153e-07
-1.51085e-07
-1.77352e-07
-2.16874e-07
-2.91941e-07
-3.66219e-07
-2.45945e-07
-1.33685e-06
-3.53e-07
-2.01619e-07
-1.82759e-07
-1.58587e-07
-1.32178e-07
-1.41255e-07
-1.46965e-07
-1.52375e-07
-1.43076e-07
-1.29027e-07
-1.09683e-07
-8.56371e-08
-3.06516e-08
-2.06523e-08
1.01449e-06
2.69145e-08
-1.33575e-07
-1.50538e-07
-1.47035e-07
-1.19249e-07
-1.18657e-07
-1.32741e-07
-1.32548e-07
-1.36834e-07
-1.28763e-07
-1.40011e-07
-1.72246e-07
-2.03185e-07
-6.13904e-08
-1.0195e-06
-3.99029e-07
-2.23606e-07
-1.69811e-07
-1.04734e-07
-1.08931e-07
-1.3273e-07
-1.63048e-07
-1.7411e-07
-1.55932e-07
-1.32948e-07
-1.0608e-07
-7.90046e-08
-2.73635e-08
-9.15117e-08
8.42582e-07
7.61136e-08
-1.18686e-07
-2.32301e-07
-1.45804e-07
-1.28747e-07
-1.53458e-07
-1.64141e-07
-1.65155e-07
-1.33607e-07
-1.01456e-07
-8.68529e-08
-9.43979e-08
-9.56435e-08
7.73916e-08
-8.64194e-07
-3.77518e-07
-3.63304e-07
-1.43937e-07
-1.29486e-07
-1.34374e-07
-1.70265e-07
-2.04598e-07
-1.82103e-07
-1.5072e-07
-1.08858e-07
-8.66444e-08
-5.9161e-08
-9.03528e-09
-1.59361e-07
7.24569e-07
-2.28242e-07
-2.09072e-07
-1.54165e-07
-1.74471e-07
-1.90882e-07
-1.92543e-07
-1.60088e-07
-1.05607e-07
-6.38402e-08
-4.23631e-08
-3.7985e-08
-4.58538e-08
1.94875e-07
-8.02701e-07
-3.12757e-07
-1.37912e-07
-1.35262e-07
-1.42276e-07
-1.95606e-07
-1.72805e-07
-1.38571e-07
-8.99727e-08
-5.86975e-08
-5.00636e-08
-4.30807e-08
4.13396e-08
-2.69079e-07
3.64001e-07
-2.95001e-07
-9.64189e-08
-1.1205e-07
-1.82472e-07
-1.11182e-07
-1.12176e-07
-8.9468e-08
-4.25491e-08
-1.88246e-08
-1.46648e-08
1.34035e-08
-6.28745e-08
-1.01175e-07
-4.01773e-07
1.47e-07
-3.76116e-08
-1.21646e-07
1.7131e-08
-3.05625e-08
-7.86854e-08
-3.80455e-08
-2.53006e-08
-1.92546e-08
-1.29517e-08
-3.76369e-08
-1.37109e-07
1.00353e-07
1.11522e-07
-1.67417e-07
2.57516e-08
5.47888e-08
6.05743e-08
-3.16622e-08
3.07797e-08
-3.99841e-08
-1.86972e-08
1.18342e-09
-4.95013e-09
-2.7976e-08
1.63888e-07
-1.85556e-07
1.22371e-07
-8.55044e-08
1.33163e-07
4.00947e-08
1.55531e-07
-3.59488e-08
-3.48563e-08
9.44323e-11
-4.95415e-09
-1.44209e-09
3.17457e-08
-1.67897e-07
3.67417e-07
-1.10465e-07
2.30162e-07
7.54456e-08
2.08547e-07
1.78564e-08
-4.30616e-08
-2.95913e-09
-1.47234e-08
1.96477e-08
5.07681e-10
-3.40495e-08
2.28346e-07
-2.48691e-07
-7.04993e-08
1.65839e-07
9.18287e-08
8.08339e-09
1.66863e-08
-2.88289e-09
5.1316e-08
1.8204e-08
3.34098e-08
4.89678e-08
-1.47314e-07
1.95125e-07
2.87969e-07
1.01019e-07
4.65317e-08
3.20475e-08
8.112e-09
5.02623e-08
1.67472e-08
7.10839e-08
1.28013e-08
-1.5288e-08
1.64772e-07
-1.65946e-07
-1.14815e-07
8.18223e-08
6.4989e-08
3.79384e-08
2.80754e-08
2.54574e-08
6.62419e-08
2.70468e-08
6.85338e-08
3.64355e-08
-1.25382e-07
1.1983e-07
-4.74391e-08
8.94953e-08
-4.07099e-11
5.1744e-08
-1.28771e-09
1.91612e-08
3.39586e-08
-7.0087e-08
-2.22111e-08
8.82646e-08
-1.10704e-07
2.11639e-07
2.1628e-08
6.21019e-08
-3.21826e-08
-3.78252e-09
-2.24741e-08
-1.13341e-07
1.94919e-08
-2.18521e-08
-6.53138e-08
8.701e-08
-1.71283e-08
2.57581e-08
-1.03971e-08
-2.12347e-08
-3.14339e-08
-8.93998e-08
-7.14941e-09
-7.73488e-08
3.1441e-09
1.23651e-07
-2.30093e-08
1.24573e-07
1.41388e-08
-8.30276e-09
-1.95515e-08
-4.40394e-08
-3.03879e-08
-5.91838e-08
-8.58645e-10
6.20767e-08
-7.1988e-08
4.94739e-08
-5.1156e-08
1.9425e-09
-1.77734e-08
-1.96762e-08
-3.19217e-08
-3.53841e-08
-3.6993e-08
-7.88642e-09
-8.81298e-08
5.22891e-08
-9.36376e-08
1.15381e-07
-2.73773e-08
2.78066e-09
-3.44501e-08
-1.03425e-08
-4.04985e-08
-1.82898e-08
-5.52748e-08
-4.78012e-10
-1.06785e-07
-1.51724e-07
5.73839e-08
-2.08295e-08
1.13344e-08
-2.69439e-08
-8.64568e-09
-1.98924e-08
-5.56037e-08
-1.39814e-08
-2.21604e-08
-9.32928e-08
3.04483e-09
-1.02067e-08
-8.27044e-09
-9.03797e-09
-4.66032e-08
8.99723e-09
-6.46417e-08
3.02917e-08
4.36637e-08
2.6588e-09
-4.11223e-09
-9.66179e-09
-2.07472e-08
3.88704e-09
-6.37035e-08
1.72478e-08
-5.65584e-08
-3.57652e-08
-2.75677e-09
-1.26872e-08
-1.62639e-08
-1.16801e-08
-4.01714e-08
1.11613e-08
-3.66226e-08
1.74467e-08
4.27206e-08
-3.66098e-09
-7.18012e-09
-1.23057e-08
-1.76723e-08
3.59439e-09
-1.67605e-08
9.96935e-09
-1.79971e-08
-2.653e-08
-9.5783e-10
-1.18794e-08
-1.074e-08
-8.77237e-09
-8.60349e-09
-6.25428e-09
-7.16969e-09
-1.07183e-08
3.58176e-08
-2.43554e-09
-6.32304e-09
-7.1903e-09
-1.12173e-08
-1.20317e-08
-7.64795e-09
-1.4666e-08
-9.29555e-10
6.17311e-10
-1.08388e-09
-9.16557e-09
-5.35112e-09
-4.48431e-09
-1.70081e-08
-5.59793e-09
2.77218e-08
3.69531e-09
-6.41354e-09
-6.39295e-11
-1.98211e-09
-2.17237e-08
-1.10005e-10
-2.31104e-08
1.55379e-08
-1.72894e-09
1.06928e-09
-1.77211e-08
9.69637e-09
-2.22503e-08
1.30757e-08
-2.64286e-08
-1.36297e-09
-5.70545e-09
1.13953e-08
-1.54374e-08
1.60858e-08
-1.5639e-08
1.25125e-08
-6.27274e-10
1.22644e-09
-1.265e-08
6.46249e-09
-1.04847e-08
1.44651e-08
-1.51243e-08
2.55103e-10
-4.31066e-09
8.16979e-10
-1.19908e-09
8.3304e-09
3.29346e-10
2.12208e-08
2.6086e-09
1.68611e-09
-6.61288e-10
-4.25856e-10
1.76962e-09
-8.17279e-09
2.15576e-09
-1.74285e-09
-2.18554e-09
1.00205e-09
-4.27097e-09
1.98842e-08
2.57136e-09
2.5968e-09
1.49572e-10
-2.56798e-09
3.87483e-10
-5.84059e-09
3.50311e-09
4.71623e-10
1.13107e-10
1.35597e-09
-2.65478e-09
2.28905e-08
1.66437e-10
2.60973e-09
2.1332e-09
-1.42083e-09
2.52434e-09
-1.86958e-08
9.80328e-09
4.86222e-09
-2.07481e-09
4.01743e-09
-3.96148e-09
-6.92952e-09
4.69051e-11
9.08618e-09
-2.19815e-09
1.10335e-08
1.79451e-08
1.2992e-08
7.53195e-09
1.48635e-08
5.19175e-09
3.23747e-09
8.61573e-09
9.44243e-09
5.97588e-09
8.89238e-09
2.00766e-08
6.53962e-09
5.46647e-09
6.53314e-09
1.07414e-08
8.00449e-09
5.22438e-09
6.03187e-09
2.25098e-08
6.51251e-09
4.96156e-09
5.49594e-09
)
;

boundaryField
{
    inlet
    {
        type            extrapolatedCalculated;
        value           nonuniform List<scalar> 4(2.25098e-08 6.51251e-09 4.96156e-09 5.49594e-09);
    }
    outlet
    {
        type            extrapolatedCalculated;
        value           nonuniform List<scalar> 0();
    }
    walls
    {
        type            extrapolatedCalculated;
        value           nonuniform List<scalar> 
42
(
-6.56545e-06
4.90586e-06
-3.5737e-06
2.93302e-06
-2.2369e-06
-5.14996e-07
-3.12797e-06
-1.68389e-06
-7.38763e-07
7.1395e-07
9.03874e-07
1.14083e-06
6.9673e-07
6.72423e-07
3.72338e-07
4.97184e-07
2.96832e-07
5.76657e-07
1.86022e-07
5.98327e-07
-7.22582e-07
-4.93174e-07
-4.80279e-06
-6.23707e-06
-7.42952e-06
-5.69682e-06
-3.41007e-06
-2.11175e-06
-3.17172e-06
-3.4331e-06
6.2012e-06
-1.88314e-05
-2.23509e-06
3.56782e-07
9.09022e-06
5.13941e-06
-5.63032e-06
-1.31006e-07
-1.20135e-06
-1.04822e-06
4.23181e-06
1.74217e-06
)
;
    }
    frontAndBack
    {
        type            empty;
    }
    procBoundary5to0
    {
        type            processor;
        value           nonuniform List<scalar> 4(-8.2434e-07 1.07683e-06 -2.32496e-08 1.82311e-06);
    }
    procBoundary5to1
    {
        type            processor;
        value           nonuniform List<scalar> 
13
(
6.49154e-06
4.91153e-06
4.91153e-06
1.14179e-06
1.47162e-06
1.47162e-06
2.93816e-07
1.60626e-06
1.60626e-06
-3.53238e-07
1.12534e-06
2.62179e-06
2.62179e-06
)
;
    }
    procBoundary5to4
    {
        type            processor;
        value           nonuniform List<scalar> 
95
(
-1.55756e-06
-7.05489e-07
-8.72092e-07
-8.72092e-07
-3.35458e-07
-2.52776e-07
-2.52776e-07
-2.98176e-07
4.46417e-07
4.46417e-07
1.30608e-06
1.30608e-06
7.23712e-07
7.23712e-07
8.49281e-08
9.524e-08
9.524e-08
-4.0375e-08
-4.0375e-08
-1.28161e-07
-5.55017e-09
-5.55017e-09
5.03274e-08
2.14108e-07
2.14108e-07
6.42616e-08
6.52407e-07
6.52407e-07
-4.58557e-07
2.587e-07
-1.36685e-07
-1.36685e-07
-7.06106e-07
-7.45478e-08
3.09804e-07
3.09804e-07
-4.51546e-07
2.5851e-07
1.77385e-07
1.77385e-07
-4.5195e-07
1.97825e-07
8.20627e-08
8.20627e-08
-2.50062e-07
2.06297e-07
-3.84498e-07
1.37534e-07
-2.50762e-07
-2.50762e-07
-1.65676e-07
-3.41762e-09
-2.41932e-07
2.21288e-07
1.96548e-07
1.96548e-07
-7.79326e-08
2.24484e-07
-1.53286e-07
1.826e-07
2.20465e-07
2.20465e-07
-4.69915e-08
1.61415e-07
-4.89559e-08
1.17821e-07
-1.06963e-07
1.17012e-07
1.37309e-07
1.37309e-07
-4.81865e-08
6.59039e-08
-4.03484e-08
5.35604e-08
-2.63697e-08
4.37397e-08
4.43932e-09
-1.27642e-08
-1.27642e-08
1.73425e-08
-2.18215e-08
2.58444e-08
-1.59209e-08
2.3351e-08
-1.2314e-08
2.33934e-08
-1.73628e-08
2.27052e-08
2.71937e-08
2.71937e-08
-5.22962e-09
2.1045e-08
-1.88894e-09
1.71516e-08
9.44232e-09
)
;
    }
    procBoundary5to6
    {
        type            processor;
        value           nonuniform List<scalar> 
86
(
-2.77325e-05
-1.02396e-05
-1.83673e-05
-6.62573e-06
-1.91408e-05
-7.90585e-06
-2.16278e-05
-9.77444e-06
-2.11514e-05
-1.00685e-05
-1.79353e-05
-9.62947e-06
-1.45936e-05
-8.93355e-06
-1.13458e-05
-7.76718e-06
-8.58745e-06
-6.22799e-06
-6.27531e-06
-4.5946e-06
-4.63284e-06
-3.30134e-06
-3.68569e-06
-2.28854e-06
-2.50872e-06
-1.72686e-06
-1.75453e-06
-1.28349e-06
-1.19713e-06
-1.61021e-06
-5.15928e-08
-1.4341e-06
1.66675e-07
2.89234e-06
2.89234e-06
-1.61893e-06
1.06274e-06
-1.27499e-06
9.30006e-07
-1.07455e-06
8.18794e-07
-8.92687e-07
4.1584e-07
-3.45311e-07
3.00572e-07
-1.9499e-07
2.90744e-07
2.90744e-07
-5.75649e-08
3.90388e-08
-5.96284e-08
-1.68008e-08
8.77245e-09
1.0222e-08
1.23206e-08
-2.05163e-08
3.49797e-08
3.49797e-08
2.54131e-08
-4.0283e-08
5.18286e-09
-3.67867e-08
-4.35552e-09
-1.56758e-08
-2.08853e-08
-2.08853e-08
-2.2448e-08
-9.55676e-09
-2.2326e-08
1.55062e-08
-6.92448e-09
1.23718e-08
6.75794e-09
6.75794e-09
-1.32803e-09
-4.30778e-09
-1.01864e-09
-5.23463e-10
3.97109e-09
7.6339e-10
2.1241e-08
1.27832e-08
1.1533e-08
1.1533e-08
9.68423e-09
1.09377e-08
)
;
    }
}


// ************************************************************************* //
