# p  FACE_DATA 300
# x y z  p
0.29787915 -0.05 0.060005454 13964.451
0.29366024 -0.05 0.059998184 13970.954
0.28948669 -0.05 0.059982824 13979.777
0.28535801 -0.05 0.05995956 13988.982
0.28127374 -0.05 0.05992843 13999.86
0.27723342 -0.05 0.059889544 14011.529
0.27323659 -0.05 0.059843055 14024.756
0.2692828 -0.05 0.059789027 14038.984
0.26537161 -0.05 0.059727601 14053.766
0.26150257 -0.05 0.05965892 14069.411
0.25767524 -0.05 0.059583046 14086.057
0.2538892 -0.05 0.059500074 14103.352
0.25014401 -0.05 0.059410118 14121.234
0.24643926 -0.05 0.059313284 14139.66
0.24277452 -0.05 0.059209674 14158.652
0.23914938 -0.05 0.059099387 14178.242
0.23556344 -0.05 0.058982537 14198.269
0.23201627 -0.05 0.058859254 14218.814
0.2285075 -0.05 0.058729541 14240.447
0.22503671 -0.05 0.058593532 14261.569
0.22160352 -0.05 0.058451379 14283.774
0.21820754 -0.05 0.058303115 14306.542
0.21484838 -0.05 0.058148846 14329.928
0.21152567 -0.05 0.05798866 14353.681
0.20823903 -0.05 0.057822651 14377.885
0.20498809 -0.05 0.057650874 14402.675
0.20177248 -0.05 0.057473468 14427.341
0.19859184 -0.05 0.057290478 14453.297
0.1954458 -0.05 0.057101994 14478.752
0.19233402 -0.05 0.056908168 14505.015
0.18925614 -0.05 0.056708999 14531.972
0.18621181 -0.05 0.056504563 14559.419
0.1832007 -0.05 0.056294919 14587.371
0.18022246 -0.05 0.05608023 14614.853
0.17727675 -0.05 0.055860526 14643.856
0.17436324 -0.05 0.055635849 14672.279
0.1714816 -0.05 0.055406376 14701.32
0.16863151 -0.05 0.055172052 14731.775
0.16581265 -0.05 0.054932944 14762.098
0.16302469 -0.05 0.054689208 14792.968
0.16026733 -0.05 0.054440898 14824.338
0.15754024 -0.05 0.054188056 14856.299
0.15484313 -0.05 0.053930725 14888.549
0.15217569 -0.05 0.053668978 14921.03
0.14953762 -0.05 0.053402889 14954.001
0.14692863 -0.05 0.053132457 14988.016
0.14434842 -0.05 0.052857799 15021.503
0.14179669 -0.05 0.052579044 15055.995
0.13927317 -0.05 0.05229612 15091.971
0.13677757 -0.05 0.052009061 15128.074
0.13430961 -0.05 0.051717985 15164.403
0.13186901 -0.05 0.051422994 15200.921
0.1294555 -0.05 0.05112408 15239.005
0.12706881 -0.05 0.050821224 15277.231
0.12470868 -0.05 0.050514504 15315.23
0.12237483 -0.05 0.05020403 15353.072
0.12006701 -0.05 0.049889836 15392.77
0.11778495 -0.05 0.049571874 15433.364
0.11552842 -0.05 0.049250263 15473.87
0.11329715 -0.05 0.048924992 15516.019
0.1110909 -0.05 0.048596121 15557.67
0.10890943 -0.05 0.048263656 15601.911
0.10675251 -0.05 0.047927554 15645.912
0.10461987 -0.05 0.047587958 15690.102
0.1025113 -0.05 0.047244937 15734.556
0.10042655 -0.05 0.046898432 15780.918
0.098365405 -0.05 0.046548446 15827.191
0.096327639 -0.05 0.046195043 15874.603
0.094313028 -0.05 0.045838237 15922.279
0.092321357 -0.05 0.045478019 15971.573
0.090352417 -0.05 0.04511438 16020.941
0.088405979 -0.05 0.044747421 16070.758
0.086481845 -0.05 0.044377096 16122.237
0.084579815 -0.05 0.044003384 16173.903
0.082699669 -0.05 0.043626385 16226.278
0.080841229 -0.05 0.043246005 16280.805
0.0790043 -0.05 0.042862236 16334.828
0.077188666 -0.05 0.0424752 16389.769
0.07539416 -0.05 0.04208479 16447.15
0.073620599 -0.05 0.041690997 16504.834
0.071867788 -0.05 0.041293877 16563.978
0.070135557 -0.05 0.040893384 16624.44
0.068423743 -0.05 0.040489458 16686.805
0.066732169 -0.05 0.040082112 16749.248
0.065060663 -0.05 0.039671361 16813.187
0.063409062 -0.05 0.039257174 16877.986
0.061777219 -0.05 0.038839488 16945.157
0.060164984 -0.05 0.038418265 17012.781
0.058572196 -0.05 0.037993513 17081.956
0.056998721 -0.05 0.037565159 17152.647
0.055444419 -0.05 0.03713316 17225.511
0.053909142 -0.05 0.036697516 17299.914
0.052392764 -0.05 0.03625817 17375.585
0.050895177 -0.05 0.035815009 17449.809
0.049416244 -0.05 0.035368033 17523.297
0.047955856 -0.05 0.034917167 17600.724
0.046513915 -0.05 0.034462309 17681.579
0.045090302 -0.05 0.034003445 17765.174
0.043684931 -0.05 0.033540468 17851.683
0.042297731 -0.05 0.03307324 17940.507
0.040928604 -0.05 0.032601734 18030.681
0.039577476 -0.05 0.032125845 18123.631
0.038244291 -0.05 0.03164545 18218.589
0.036928981 -0.05 0.031160474 18317.419
0.0356315 -0.05 0.030670795 18420.809
0.03435181 -0.05 0.030176299 18530.494
0.033089918 -0.05 0.029676761 18649.774
0.031845783 -0.05 0.029172106 18778.093
0.030619394 -0.05 0.02866221 18916.207
0.029410776 -0.05 0.028146878 19058.109
0.028219949 -0.05 0.027625962 19206.913
0.027046957 -0.05 0.027099267 19363.166
0.025891857 -0.05 0.026566614 19525.718
0.02475474 -0.05 0.026027768 19692.184
0.023635681 -0.05 0.025482558 19862.295
0.022534817 -0.05 0.024930717 20037.569
0.021452274 -0.05 0.024372036 20221.246
0.020388213 -0.05 0.023806274 20418.005
0.019342865 -0.05 0.023233111 20627.134
0.018316468 -0.05 0.022652259 20845.033
0.017309264 -0.05 0.02206346 21071.994
0.016321577 -0.05 0.021466368 21309.41
0.015353757 -0.05 0.020860645 21555.805
0.014406156 -0.05 0.020245997 21815.051
0.013479274 -0.05 0.019622013 22091.792
0.012573638 -0.05 0.018988323 22388.62
0.0116898 -0.05 0.018344552 22706.93
0.010828378 -0.05 0.017690314 23043.85
0.0099901249 -0.05 0.017025149 23402.388
0.0091759198 -0.05 0.016348644 23781.054
0.008386597 -0.05 0.0156605 24179.95
0.0076231725 -0.05 0.014960218 24604
0.0068867853 -0.05 0.014247452 25056.391
0.0061787359 -0.05 0.013521944 25539.203
0.0055003792 -0.05 0.012783302 26049.377
0.0048530826 -0.05 0.012031363 26588.06
0.0042385571 -0.05 0.011266143 27154.934
0.0036585397 -0.05 0.010487553 27748.806
0.0031148319 -0.05 0.0096957287 28365.966
0.0026094399 -0.05 0.0088912322 29003.618
0.0021442246 -0.05 0.0080745628 29659.961
0.0017210465 -0.05 0.0072465895 30329.813
0.0013418093 -0.05 0.0064087151 30998.699
0.0010080919 -0.05 0.0055623679 31654.882
0.00072127228 -0.05 0.0047092571 32288.178
0.00048251081 -0.05 0.0038515496 32890.181
0.00029236329 -0.05 0.0029916287 33448.74
0.0001508317 -0.05 0.0021320102 33950.643
5.7495879e-05 -0.05 0.0012752716 34384.727
1.1394864e-05 -0.05 0.00042397109 34738.996
0.99768066 -0.05 0.00033611804 26721.227
0.99304169 -0.05 0.0010063364 26661.193
0.98840215 -0.05 0.0016726212 26579.761
0.98376207 -0.05 0.0023350721 26505.953
0.97912143 -0.05 0.0029936636 26430.756
0.97448026 -0.05 0.00364841 26357.027
0.96983855 -0.05 0.0042993733 26283.612
0.96519632 -0.05 0.0049465845 26210.868
0.96055356 -0.05 0.0055900577 26138.644
0.95591031 -0.05 0.0062298653 26066.942
0.95126654 -0.05 0.0068660327 25995.844
0.94662227 -0.05 0.0074985225 25925.392
0.94197753 -0.05 0.0081274235 25855.542
0.9373323 -0.05 0.008752761 25786.441
0.93268659 -0.05 0.0093745713 25717.964
0.92804042 -0.05 0.0099928964 25650.252
0.92339378 -0.05 0.010607714 25583.274
0.91874669 -0.05 0.011219031 25517.057
0.91409914 -0.05 0.011826962 25451.411
0.90945116 -0.05 0.012431486 25386.653
0.90480273 -0.05 0.013032571 25322.506
0.90015387 -0.05 0.013630361 25259.068
0.89550457 -0.05 0.014224739 25196.563
0.89085486 -0.05 0.014815813 25134.521
0.88620473 -0.05 0.01540363 25073.431
0.88155418 -0.05 0.0159881 25012.954
0.87690323 -0.05 0.016569356 24953.08
0.87225187 -0.05 0.017147383 24893.873
0.86760011 -0.05 0.017722168 24835.29
0.86294796 -0.05 0.018293719 24777.346
0.85829541 -0.05 0.018862095 24719.912
0.85364248 -0.05 0.019427289 24663.164
0.84898916 -0.05 0.01998931 24606.869
0.84433547 -0.05 0.020548224 24551.183
0.83968139 -0.05 0.021103928 24496.247
0.83502695 -0.05 0.021656533 24441.572
0.83037214 -0.05 0.022206072 24387.584
0.82571697 -0.05 0.022752481 24333.967
0.82106143 -0.05 0.023295768 24280.959
0.81640552 -0.05 0.023835961 24228.181
0.81174928 -0.05 0.024373126 24175.836
0.80709266 -0.05 0.024907211 24123.853
0.80243571 -0.05 0.025438235 24072.249
0.7977784 -0.05 0.025966147 24021.176
0.79312074 -0.05 0.026490982 23970.309
0.78846275 -0.05 0.027012845 23919.701
0.78380442 -0.05 0.027531686 23869.532
0.77914574 -0.05 0.028047403 23819.873
0.77448674 -0.05 0.028560079 23770.266
0.7698274 -0.05 0.029069753 23721.055
0.76516772 -0.05 0.02957633 23672.102
0.7605077 -0.05 0.030079852 23623.28
0.75584737 -0.05 0.030580367 23574.519
0.75118671 -0.05 0.03107785 23525.967
0.74652573 -0.05 0.031572241 23477.638
0.74186441 -0.05 0.032063551 23429.45
0.73720278 -0.05 0.032551782 23381.412
0.73254082 -0.05 0.03303698 23333.351
0.72787854 -0.05 0.033519069 23285.668
0.72321595 -0.05 0.033998064 23237.838
0.71855304 -0.05 0.034473962 23190.447
0.71388981 -0.05 0.03494667 23143.085
0.70922626 -0.05 0.035416302 23095.625
0.7045624 -0.05 0.035882849 23048.176
0.69989823 -0.05 0.036346252 23000.712
0.69523375 -0.05 0.036806454 22953.356
0.69056894 -0.05 0.037263403 22905.998
0.68590382 -0.05 0.037717206 22858.338
0.68123839 -0.05 0.038167801 22810.923
0.67657265 -0.05 0.038615123 22763.278
0.67190661 -0.05 0.039059237 22715.64
0.66724025 -0.05 0.039500049 22668.109
0.66257357 -0.05 0.039937521 22620.485
0.6579066 -0.05 0.040371712 22572.58
0.65323931 -0.05 0.040802591 22524.571
0.64857171 -0.05 0.041230085 22476.395
0.6439038 -0.05 0.041654149 22428.067
0.63923558 -0.05 0.042074786 22379.32
0.63456705 -0.05 0.042492 22330.249
0.62989822 -0.05 0.042905734 22280.809
0.62522907 -0.05 0.043315943 22230.977
0.6205596 -0.05 0.043722625 22180.613
0.61588983 -0.05 0.044125719 22129.874
0.61121975 -0.05 0.044525219 22078.412
0.60654937 -0.05 0.044921074 22026.532
0.60187867 -0.05 0.045313219 21973.799
0.59720766 -0.05 0.045701683 21920.265
0.59253634 -0.05 0.046086399 21865.916
0.58786471 -0.05 0.046467288 21810.673
0.58319277 -0.05 0.046844345 21754.246
0.57852051 -0.05 0.047217535 21696.583
0.57384795 -0.05 0.047586814 21637.098
0.56917507 -0.05 0.047952124 21575.355
0.56450189 -0.05 0.048313436 21510.508
0.55982839 -0.05 0.048670677 21442.352
0.55515457 -0.05 0.04902381 21370.371
0.55048045 -0.05 0.04937281 21295.202
0.54580601 -0.05 0.04971755 21217.421
0.54113126 -0.05 0.050058049 21137.557
0.5364562 -0.05 0.050394263 21055.907
0.53178083 -0.05 0.050726133 20971.777
0.52710515 -0.05 0.051053569 20884.217
0.52242915 -0.05 0.051376464 20790.804
0.51775284 -0.05 0.051694815 20687.34
0.51307623 -0.05 0.052008601 20566.443
0.5083993 -0.05 0.052317708 20417.857
0.50372205 -0.05 0.052622097 20228.23
0.4990445 -0.05 0.052921701 19982.523
0.49436664 -0.05 0.053216429 19661.144
0.48968848 -0.05 0.053506199 19248.318
0.48501001 -0.05 0.053790938 18736.159
0.48033122 -0.05 0.054070626 18140.085
0.47565213 -0.05 0.05434516 17500.089
0.47097274 -0.05 0.054614471 16876.646
0.46629305 -0.05 0.054878504 16324.128
0.46161306 -0.05 0.055137129 15872.981
0.45693276 -0.05 0.055390258 15529.038
0.45225217 -0.05 0.05563783 15273.636
0.44757129 -0.05 0.055879797 15086.661
0.44289011 -0.05 0.056116052 14947.055
0.43820865 -0.05 0.05634646 14839.914
0.43352689 -0.05 0.056570934 14753.122
0.42884485 -0.05 0.056789428 14679.05
0.42416254 -0.05 0.057001839 14613.353
0.41947995 -0.05 0.057208045 14552.875
0.41479707 -0.05 0.057407955 14496.095
0.41011393 -0.05 0.057601449 14441.697
0.40543053 -0.05 0.057788457 14389.279
0.40074687 -0.05 0.057968848 14339.134
0.39606296 -0.05 0.058142512 14291.339
0.3913788 -0.05 0.05830933 14246.309
0.38669439 -0.05 0.058469176 14203.802
0.38200975 -0.05 0.058621944 14163.974
0.37732488 -0.05 0.058767528 14127.039
0.37263978 -0.05 0.058905769 14093.624
0.36795448 -0.05 0.059036526 14063.3
0.36326896 -0.05 0.059159727 14036.177
0.35858325 -0.05 0.059275201 14012.684
0.35389736 -0.05 0.059382803 13992.483
0.34921128 -0.05 0.05948244 13975.788
0.34452504 -0.05 0.059573923 13962.907
0.33983865 -0.05 0.059657062 13953.35
0.33515211 -0.05 0.059731741 13946.582
0.33046544 -0.05 0.059797856 13942.622
0.32577866 -0.05 0.059855197 13940.953
0.32109177 -0.05 0.059903555 13940.51
0.31640481 -0.05 0.059942821 13941.575
0.31171778 -0.05 0.059972784 13944.172
0.30703069 -0.05 0.059993273 13948.302
0.30234357 -0.05 0.060004087 13955.578
