# p  FACE_DATA 300
# x y z  p
0.29787915 -0.05 -0.060005454 21758.688
0.29366024 -0.05 -0.059998184 21754.897
0.28948669 -0.05 -0.059982824 21752.639
0.28535801 -0.05 -0.05995956 21751.283
0.28127374 -0.05 -0.05992843 21750.945
0.27723341 -0.05 -0.059889544 21750.989
0.27323659 -0.05 -0.059843056 21752.057
0.2692828 -0.05 -0.059789027 21754.16
0.26537161 -0.05 -0.059727601 21756.835
0.26150257 -0.05 -0.05965892 21760.435
0.25767524 -0.05 -0.059583046 21765.154
0.2538892 -0.05 -0.059500074 21770.893
0.25014401 -0.05 -0.059410118 21777.644
0.24643926 -0.05 -0.059313284 21785.421
0.24277452 -0.05 -0.059209673 21794.174
0.23914938 -0.05 -0.059099387 21803.859
0.23556343 -0.05 -0.058982537 21814.256
0.23201627 -0.05 -0.058859254 21825.545
0.2285075 -0.05 -0.058729541 21838.454
0.22503671 -0.05 -0.058593532 21851.53
0.22160352 -0.05 -0.058451379 21865.83
0.21820754 -0.05 -0.058303115 21880.967
0.21484838 -0.05 -0.058148846 21897.086
0.21152567 -0.05 -0.05798866 21914.117
0.20823903 -0.05 -0.057822651 21932.149
0.20498809 -0.05 -0.057650874 21951.267
0.20177248 -0.05 -0.057473468 21970.813
0.19859184 -0.05 -0.057290478 21991.879
0.1954458 -0.05 -0.057101994 22012.948
0.19233402 -0.05 -0.056908168 22035.124
0.18925614 -0.05 -0.056708999 22058.589
0.18621181 -0.05 -0.056504562 22083.219
0.18320071 -0.05 -0.056294919 22108.921
0.18022246 -0.05 -0.056080229 22134.728
0.17727675 -0.05 -0.055860526 22162.299
0.17436324 -0.05 -0.05563585 22189.927
0.1714816 -0.05 -0.055406376 22218.525
0.16863151 -0.05 -0.055172052 22248.977
0.16581265 -0.05 -0.054932944 22279.87
0.16302469 -0.05 -0.054689208 22311.542
0.16026732 -0.05 -0.054440898 22344.034
0.15754024 -0.05 -0.054188056 22377.624
0.15484313 -0.05 -0.053930725 22412.116
0.15217569 -0.05 -0.053668978 22447.451
0.14953762 -0.05 -0.053402888 22483.933
0.14692863 -0.05 -0.053132457 22521.937
0.14434842 -0.05 -0.052857799 22559.806
0.14179669 -0.05 -0.052579044 22598.753
0.13927317 -0.05 -0.05229612 22639.536
0.13677758 -0.05 -0.052009061 22681.178
0.13430961 -0.05 -0.051717985 22723.508
0.13186901 -0.05 -0.051422993 22766.161
0.1294555 -0.05 -0.051124081 22810.642
0.12706881 -0.05 -0.050821224 22856.289
0.12470868 -0.05 -0.050514504 22902.797
0.12237483 -0.05 -0.05020403 22949.594
0.120067 -0.05 -0.049889836 22997.934
0.11778495 -0.05 -0.049571874 23047.418
0.11552842 -0.05 -0.049250263 23097.222
0.11329715 -0.05 -0.048924992 23148.844
0.1110909 -0.05 -0.048596121 23200.522
0.10890943 -0.05 -0.048263656 23254.938
0.10675251 -0.05 -0.047927554 23309.822
0.10461987 -0.05 -0.047587958 23365.337
0.1025113 -0.05 -0.047244937 23421.341
0.10042655 -0.05 -0.046898432 23479.272
0.098365405 -0.05 -0.046548446 23537.564
0.096327639 -0.05 -0.046195043 23597.399
0.094313028 -0.05 -0.045838237 23658.35
0.092321357 -0.05 -0.045478019 23721.41
0.090352417 -0.05 -0.04511438 23785.144
0.088405979 -0.05 -0.044747421 23849.691
0.086481845 -0.05 -0.044377096 23916.168
0.084579815 -0.05 -0.044003384 23983.415
0.082699669 -0.05 -0.043626384 24051.809
0.080841229 -0.05 -0.043246005 24122.687
0.0790043 -0.05 -0.042862236 24193.949
0.077188665 -0.05 -0.0424752 24266.432
0.07539416 -0.05 -0.042084789 24341.33
0.073620599 -0.05 -0.041690997 24416.833
0.071867788 -0.05 -0.041293877 24493.778
0.070135557 -0.05 -0.040893385 24572.199
0.068423742 -0.05 -0.040489457 24652.932
0.066732169 -0.05 -0.040082112 24734.822
0.065060663 -0.05 -0.039671361 24818.992
0.063409062 -0.05 -0.039257174 24904.564
0.061777219 -0.05 -0.038839488 24992.156
0.060164984 -0.05 -0.038418265 25080.495
0.058572196 -0.05 -0.037993513 25171.231
0.056998721 -0.05 -0.037565159 25264.172
0.055444419 -0.05 -0.03713316 25359.162
0.053909142 -0.05 -0.036697516 25455.61
0.052392764 -0.05 -0.036258171 25554.632
0.050895177 -0.05 -0.035815009 25655.82
0.049416244 -0.05 -0.035368033 25758.726
0.047955856 -0.05 -0.034917167 25864.44
0.046513915 -0.05 -0.034462309 25972.22
0.045090302 -0.05 -0.034003445 26082.338
0.043684931 -0.05 -0.033540468 26196.041
0.042297731 -0.05 -0.03307324 26313.193
0.040928604 -0.05 -0.032601735 26433.166
0.039577476 -0.05 -0.032125845 26557.048
0.038244292 -0.05 -0.03164545 26684.497
0.036928981 -0.05 -0.031160474 26815.723
0.0356315 -0.05 -0.030670795 26950.639
0.03435181 -0.05 -0.030176299 27090.262
0.033089918 -0.05 -0.029676761 27235.11
0.031845783 -0.05 -0.029172106 27382.472
0.030619394 -0.05 -0.028662209 27534.646
0.029410776 -0.05 -0.028146878 27690.539
0.028219949 -0.05 -0.027625962 27851.371
0.027046957 -0.05 -0.027099267 28016.654
0.025891857 -0.05 -0.026566614 28187.365
0.02475474 -0.05 -0.026027768 28363.412
0.023635681 -0.05 -0.025482558 28545.13
0.022534817 -0.05 -0.024930718 28733.154
0.021452274 -0.05 -0.024372036 28926.169
0.020388213 -0.05 -0.023806274 29124.822
0.019342865 -0.05 -0.023233111 29329.069
0.018316468 -0.05 -0.022652259 29540.223
0.017309264 -0.05 -0.02206346 29759.565
0.016321577 -0.05 -0.021466368 29987.72
0.015353757 -0.05 -0.020860644 30223.355
0.014406156 -0.05 -0.020245997 30467.063
0.013479274 -0.05 -0.019622013 30719.031
0.012573638 -0.05 -0.018988322 30978.825
0.0116898 -0.05 -0.018344552 31246.242
0.010828378 -0.05 -0.017690314 31520.987
0.0099901248 -0.05 -0.017025149 31803.842
0.0091759198 -0.05 -0.016348644 32093.88
0.008386597 -0.05 -0.0156605 32389.943
0.0076231725 -0.05 -0.014960218 32693.837
0.0068867853 -0.05 -0.014247452 33001.75
0.0061787359 -0.05 -0.013521943 33312.345
0.0055003792 -0.05 -0.012783302 33622.105
0.0048530826 -0.05 -0.012031363 33927.784
0.0042385571 -0.05 -0.011266143 34225.786
0.0036585397 -0.05 -0.010487553 34510.782
0.0031148318 -0.05 -0.0096957287 34773.774
0.0026094399 -0.05 -0.0088912322 35003.617
0.0021442246 -0.05 -0.0080745628 35196.37
0.0017210465 -0.05 -0.0072465895 35353.889
0.0013418093 -0.05 -0.0064087151 35459.881
0.0010080919 -0.05 -0.0055623679 35502.188
0.00072127228 -0.05 -0.0047092571 35480.108
0.00048251081 -0.05 -0.0038515496 35387.664
0.00029236329 -0.05 -0.0029916286 35221.349
0.0001508317 -0.05 -0.0021320102 34988.888
5.7495879e-05 -0.05 -0.0012752716 34679.324
1.1394864e-05 -0.05 -0.00042397109 34287.641
0.99768066 -0.05 -0.00033611804 26466.484
0.99304169 -0.05 -0.0010063364 26353.13
0.98840215 -0.05 -0.0016726212 26231.734
0.98376207 -0.05 -0.0023350721 26128.681
0.97912144 -0.05 -0.0029936636 26030.675
0.97448026 -0.05 -0.00364841 25939.784
0.96983855 -0.05 -0.0042993733 25853.768
0.96519632 -0.05 -0.0049465845 25772.447
0.96055357 -0.05 -0.0055900577 25695.109
0.95591031 -0.05 -0.0062298653 25621.227
0.95126654 -0.05 -0.0068660327 25550.678
0.94662228 -0.05 -0.0074985225 25483.149
0.94197752 -0.05 -0.0081274235 25418.174
0.9373323 -0.05 -0.008752761 25355.803
0.93268659 -0.05 -0.0093745713 25295.524
0.92804042 -0.05 -0.0099928964 25237.495
0.92339379 -0.05 -0.010607714 25181.493
0.91874669 -0.05 -0.011219031 25127.422
0.91409915 -0.05 -0.011826962 25074.733
0.90945116 -0.05 -0.012431486 25024.007
0.90480273 -0.05 -0.013032571 24974.52
0.90015387 -0.05 -0.013630361 24926.349
0.89550457 -0.05 -0.014224739 24879.843
0.89085486 -0.05 -0.014815813 24833.966
0.88620473 -0.05 -0.01540363 24789.673
0.88155418 -0.05 -0.0159881 24746.3
0.87690323 -0.05 -0.016569356 24703.825
0.87225187 -0.05 -0.017147383 24662.404
0.86760011 -0.05 -0.017722168 24621.904
0.86294795 -0.05 -0.018293719 24582.337
0.85829541 -0.05 -0.018862095 24543.407
0.85364248 -0.05 -0.01942729 24505.454
0.84898916 -0.05 -0.01998931 24468.019
0.84433547 -0.05 -0.020548224 24431.392
0.8396814 -0.05 -0.021103928 24395.738
0.83502695 -0.05 -0.021656533 24360.2
0.83037214 -0.05 -0.022206072 24325.58
0.82571696 -0.05 -0.022752481 24291.416
0.82106143 -0.05 -0.023295768 24258.102
0.81640553 -0.05 -0.023835961 24224.999
0.81174927 -0.05 -0.024373126 24192.4
0.80709266 -0.05 -0.024907211 24160.219
0.80243571 -0.05 -0.025438235 24128.455
0.7977784 -0.05 -0.025966147 24097.403
0.79312074 -0.05 -0.026490982 24066.438
0.78846275 -0.05 -0.027012845 24035.68
0.78380442 -0.05 -0.027531686 24005.436
0.77914575 -0.05 -0.028047403 23975.795
0.77448674 -0.05 -0.028560079 23946.073
0.76982739 -0.05 -0.029069752 23916.912
0.76516771 -0.05 -0.02957633 23888.135
0.7605077 -0.05 -0.030079852 23859.537
0.75584737 -0.05 -0.030580367 23831.055
0.75118671 -0.05 -0.03107785 23802.934
0.74652573 -0.05 -0.031572241 23775.199
0.74186441 -0.05 -0.032063551 23747.701
0.73720278 -0.05 -0.032551782 23720.459
0.73254083 -0.05 -0.03303698 23693.16
0.72787854 -0.05 -0.033519069 23666.432
0.72321595 -0.05 -0.033998064 23639.422
0.71855304 -0.05 -0.034473962 23613.119
0.71388981 -0.05 -0.034946671 23586.863
0.70922626 -0.05 -0.035416302 23560.481
0.7045624 -0.05 -0.03588285 23534.203
0.69989823 -0.05 -0.036346252 23508.075
0.69523375 -0.05 -0.036806454 23482.323
0.69056894 -0.05 -0.037263403 23456.784
0.68590382 -0.05 -0.037717206 23430.931
0.68123839 -0.05 -0.038167801 23405.681
0.67657265 -0.05 -0.038615123 23380.203
0.67190661 -0.05 -0.039059237 23354.893
0.66724025 -0.05 -0.039500049 23329.931
0.66257357 -0.05 -0.039937521 23305.063
0.6579066 -0.05 -0.040371712 23280.016
0.65323931 -0.05 -0.040802591 23255.173
0.64857171 -0.05 -0.041230085 23230.433
0.6439038 -0.05 -0.041654149 23205.934
0.63923558 -0.05 -0.042074786 23181.299
0.63456705 -0.05 -0.042492 23156.795
0.62989821 -0.05 -0.042905734 23132.346
0.62522906 -0.05 -0.043315943 23108.002
0.62055961 -0.05 -0.043722625 23083.531
0.61588983 -0.05 -0.044125719 23059.336
0.61121975 -0.05 -0.044525219 23034.871
0.60654937 -0.05 -0.044921074 23010.879
0.60187867 -0.05 -0.045313219 22986.688
0.59720766 -0.05 -0.045701683 22962.549
0.59253634 -0.05 -0.046086399 22938.512
0.58786471 -0.05 -0.046467288 22914.711
0.58319277 -0.05 -0.046844345 22890.788
0.57852051 -0.05 -0.047217535 22867.108
0.57384795 -0.05 -0.047586814 22843.263
0.56917507 -0.05 -0.047952124 22819.661
0.56450189 -0.05 -0.048313436 22795.812
0.55982839 -0.05 -0.048670677 22772.425
0.55515457 -0.05 -0.04902381 22748.713
0.55048045 -0.05 -0.04937281 22725.423
0.54580601 -0.05 -0.04971755 22702.161
0.54113126 -0.05 -0.050058049 22678.676
0.5364562 -0.05 -0.050394263 22655.224
0.53178083 -0.05 -0.050726133 22631.668
0.52710515 -0.05 -0.05105357 22608.506
0.52242915 -0.05 -0.051376464 22585.501
0.51775284 -0.05 -0.051694815 22562.446
0.51307623 -0.05 -0.052008601 22539.455
0.5083993 -0.05 -0.052317709 22516.742
0.50372205 -0.05 -0.052622098 22493.857
0.4990445 -0.05 -0.052921702 22471.266
0.49436664 -0.05 -0.053216428 22448.635
0.48968848 -0.05 -0.053506199 22426.351
0.48501001 -0.05 -0.053790938 22404.042
0.48033122 -0.05 -0.054070627 22381.869
0.47565213 -0.05 -0.05434516 22359.95
0.47097274 -0.05 -0.05461447 22337.96
0.46629305 -0.05 -0.054878504 22316.09
0.46161306 -0.05 -0.055137129 22294.528
0.45693277 -0.05 -0.055390258 22273.1
0.45225217 -0.05 -0.05563783 22251.843
0.44757129 -0.05 -0.055879797 22230.55
0.44289011 -0.05 -0.056116052 22209.746
0.43820865 -0.05 -0.056346461 22189.243
0.43352689 -0.05 -0.056570934 22168.998
0.42884486 -0.05 -0.056789429 22148.582
0.42416254 -0.05 -0.057001839 22128.572
0.41947994 -0.05 -0.057208045 22108.679
0.41479707 -0.05 -0.057407955 22089.301
0.41011393 -0.05 -0.057601449 22070.19
0.40543053 -0.05 -0.057788457 22051.329
0.40074687 -0.05 -0.057968847 22032.917
0.39606296 -0.05 -0.058142512 22014.67
0.3913788 -0.05 -0.05830933 21996.911
0.38669439 -0.05 -0.058469176 21979.414
0.38200975 -0.05 -0.058621944 21962.406
0.37732488 -0.05 -0.058767528 21945.77
0.37263978 -0.05 -0.058905769 21929.993
0.36795448 -0.05 -0.059036525 21914.521
0.36326896 -0.05 -0.059159726 21899.494
0.35858325 -0.05 -0.059275201 21885.133
0.35389735 -0.05 -0.059382803 21871.107
0.34921128 -0.05 -0.05948244 21857.449
0.34452504 -0.05 -0.059573923 21844.724
0.33983865 -0.05 -0.059657063 21832.724
0.33515211 -0.05 -0.059731741 21821.344
0.33046544 -0.05 -0.059797856 21810.392
0.32577866 -0.05 -0.059855197 21800.551
0.32109177 -0.05 -0.059903556 21791.29
0.31640481 -0.05 -0.059942821 21782.6
0.31171777 -0.05 -0.059972784 21774.26
0.30703069 -0.05 -0.059993273 21766.412
0.30234356 -0.05 -0.060004087 21761.402
