/*--------------------------------*- C++ -*----------------------------------*\
| =========                 |                                                 |
| \\      /  F ield         | OpenFOAM: The Open Source CFD Toolbox           |
|  \\    /   O peration     | Version:  2306                                  |
|   \\  /    A nd           | Website:  www.openfoam.com                      |
|    \\/     M anipulation  |                                                 |
\*---------------------------------------------------------------------------*/
FoamFile
{
    version     2.0;
    format      ascii;
    arch        "LSB;label=32;scalar=64";
    class       volScalarField;
    location    "975";
    object      div(phi);
}
// * * * * * * * * * * * * * * * * * * * * * * * * * * * * * * * * * * * * * //

dimensions      [0 0 -1 0 0 0 0];

internalField   nonuniform List<scalar> 
1340
(
-3.13029e-05
-7.74968e-05
2.26307e-05
-6.04558e-05
-1.34131e-05
-7.08745e-05
-5.29834e-05
-8.52328e-05
-1.99859e-05
-2.5969e-05
4.1742e-05
-1.11168e-05
-9.00162e-06
-4.69604e-05
-3.45357e-05
-6.30027e-05
-2.03413e-05
-1.76882e-05
4.53652e-05
-1.79499e-06
-1.01264e-05
-3.94849e-05
-2.34516e-05
-4.90399e-05
-2.26617e-05
-1.63797e-05
4.90152e-05
-7.33795e-07
-1.1766e-05
-3.62242e-05
-1.56449e-05
-3.78528e-05
-2.1787e-05
-1.37038e-05
5.15273e-05
-1.72671e-07
-1.15479e-05
-2.90097e-05
-1.01727e-05
-2.90114e-05
-1.83407e-05
-1.18113e-05
4.99255e-05
-1.65769e-06
-1.06092e-05
-2.17098e-05
-6.00021e-06
-2.16157e-05
-1.48099e-05
-9.89802e-06
4.50463e-05
-1.95328e-06
-9.49377e-06
-1.53206e-05
-3.03649e-06
-1.57184e-05
-1.15244e-05
-1.00121e-05
4.03161e-05
-2.86173e-06
-8.02039e-06
-1.07043e-05
-1.0593e-06
-1.18669e-05
-8.75143e-06
-9.46913e-06
3.4845e-05
-3.09212e-06
-6.25888e-06
-6.65368e-06
1.19791e-07
-8.94302e-06
-6.43642e-06
-9.3751e-06
3.02183e-05
-3.26946e-06
-4.50965e-06
-3.62461e-06
1.02098e-06
-6.9378e-06
-4.81279e-06
-9.0796e-06
2.48269e-05
-3.18067e-06
-3.18668e-06
-1.56277e-06
1.62275e-06
-5.29587e-06
-3.86568e-06
-7.32666e-06
2.06058e-05
-3.23744e-06
-2.19576e-06
-3.84598e-07
1.9587e-06
-4.12275e-06
-2.66283e-06
-4.92463e-06
1.5398e-05
-3.04084e-06
-1.68879e-06
-5.82135e-08
1.66836e-06
-3.20307e-06
-1.88448e-06
-2.70867e-06
1.14185e-05
-2.90036e-06
-1.28958e-06
-1.90143e-07
1.15262e-06
-2.50883e-06
-1.29483e-06
-8.48298e-07
7.69774e-06
-2.59103e-06
-1.64359e-06
-3.49063e-07
4.01187e-07
-1.87203e-06
-9.58953e-08
7.91929e-08
4.65729e-06
-1.87612e-06
-1.47437e-06
-5.04353e-07
-1.27823e-07
-1.36845e-06
1.49356e-07
3.54394e-07
2.59651e-06
-1.16757e-06
2.90174e-06
-9.89354e-07
-4.88259e-07
-4.1845e-07
-9.4716e-07
-1.66246e-06
5.23334e-08
3.24305e-07
1.36659e-06
-6.48863e-07
1.0659e-06
-6.63033e-07
-4.33625e-07
-4.83288e-07
-6.48709e-07
-1.31876e-06
3.84346e-08
2.52886e-07
6.12735e-07
-2.42356e-07
9.40541e-07
-4.15035e-07
-3.48597e-07
-4.19209e-07
-4.40936e-07
-1.11824e-06
4.74934e-08
1.3265e-07
2.9614e-07
-7.26911e-08
8.34229e-07
-2.49548e-07
-2.50081e-07
-3.10703e-07
-3.01408e-07
-9.3416e-07
3.56079e-08
6.64036e-08
1.533e-07
-8.80323e-09
4.23557e-07
-1.67832e-07
-1.63392e-07
-2.1186e-07
-2.06269e-07
-3.62856e-07
6.53249e-08
2.76179e-08
8.33717e-08
4.87091e-09
3.08804e-07
-9.3776e-08
-9.35251e-08
-1.46088e-07
-1.35916e-07
-2.04222e-07
2.49999e-08
-7.7964e-09
3.35632e-08
3.50538e-09
2.9603e-07
2.31087e-07
-7.57481e-08
-6.79616e-08
-9.63122e-08
-1.01451e-07
-6.15609e-08
-2.3269e-07
-1.64158e-08
-3.45959e-08
-4.27233e-09
1.3377e-09
3.66207e-08
1.37165e-07
-7.31019e-08
-5.37058e-08
-6.93758e-08
-7.39663e-08
-6.44836e-08
-1.90151e-07
-3.54031e-08
-5.11066e-08
-1.78428e-08
-1.01735e-08
-2.1093e-08
7.84601e-08
-6.5373e-08
-3.79349e-08
-5.21826e-08
-5.35494e-08
7.70181e-09
-1.29855e-07
-2.87591e-08
-5.13058e-08
-2.99711e-08
-1.17096e-08
6.73843e-09
5.34504e-08
-4.86704e-08
-3.19209e-08
-3.87059e-08
-4.53938e-08
1.23831e-08
-6.86545e-08
-2.07154e-08
-4.35861e-08
-3.92376e-08
-1.40805e-08
-2.39713e-08
3.51564e-08
4.96999e-09
-1.58865e-08
-2.28748e-08
-4.35777e-08
3.37025e-08
5.94152e-08
4.6957e-08
8.61346e-10
-9.30059e-09
-4.76495e-08
-2.49303e-08
2.64866e-08
4.73453e-08
1.13347e-08
3.23367e-08
-1.12492e-08
-1.5357e-08
-5.49106e-08
-4.28333e-08
-2.6405e-09
4.07736e-08
-5.43496e-09
-2.3154e-09
-4.08203e-08
-2.63671e-08
4.857e-09
1.30487e-08
-1.87284e-08
1.49357e-08
-3.46581e-09
9.18012e-09
-4.03669e-08
-4.04621e-08
-2.10523e-08
1.72008e-08
3.77317e-09
3.13383e-08
-1.6955e-08
5.0988e-09
-4.48161e-09
1.04983e-09
-1.21184e-08
2.80192e-08
-1.12158e-08
2.59228e-08
-2.86122e-08
-1.8709e-08
-2.23379e-08
2.20943e-09
-2.40403e-08
1.43064e-08
-2.56227e-08
-9.06492e-09
-2.36559e-08
-1.75931e-08
-1.53248e-08
-2.8147e-08
2.18593e-09
-2.78687e-08
-7.5639e-09
-2.01412e-08
-2.42283e-08
-1.55507e-08
-1.84024e-08
-7.62062e-09
-2.17308e-08
-1.64133e-09
-1.9556e-08
-2.37888e-09
-1.11763e-08
-1.11953e-08
-1.21879e-08
-1.37371e-08
-9.43719e-09
-1.22548e-08
-1.03825e-08
-1.69175e-08
-2.41439e-08
-5.96178e-09
-9.02787e-09
-1.07239e-08
-9.64455e-09
-1.06854e-08
-1.11813e-08
-1.46302e-08
1.59883e-08
-2.16194e-09
-3.46799e-09
-6.58624e-09
-5.28604e-09
-1.73517e-08
-8.40628e-09
-1.17319e-08
-6.78734e-09
1.53586e-09
-4.5063e-09
-1.69415e-09
-2.52894e-08
-6.87e-09
-1.60405e-08
-1.33168e-08
1.20988e-08
-4.45052e-09
-3.35185e-10
-2.74905e-08
1.16124e-09
-2.92912e-08
-4.31847e-09
-8.71989e-09
6.49714e-09
-3.46617e-09
-1.42206e-09
-1.37225e-08
2.31188e-09
-1.93462e-08
2.77814e-09
-8.59309e-09
1.71358e-09
-1.58576e-09
-1.93273e-09
-5.96183e-09
-1.0676e-09
-8.73593e-09
1.67469e-09
-5.70839e-09
-1.31946e-09
-1.06362e-08
-4.8075e-09
-4.54116e-09
-4.1564e-09
-5.53076e-09
-4.52328e-09
-5.58775e-09
-5.07322e-09
-7.73168e-09
-6.79918e-09
-1.31559e-09
-1.80679e-09
-4.44311e-09
-5.66762e-09
-5.65268e-09
-6.65164e-09
-6.77376e-09
-7.21886e-09
-5.80284e-09
-7.08592e-10
-1.75135e-09
-1.42542e-09
-3.22734e-09
-4.76511e-09
-4.91503e-09
-4.24681e-09
-5.16194e-09
-3.55783e-09
4.09735e-09
1.47757e-09
3.58584e-10
-1.01439e-09
-6.02436e-10
-1.75599e-09
-1.77144e-09
-1.5318e-09
-4.72809e-10
7.4043e-10
4.6544e-09
3.79064e-09
2.70354e-09
1.78835e-09
1.49766e-09
2.37018e-09
6.47704e-10
1.87742e-09
2.27381e-08
7.24281e-09
6.06101e-09
4.9456e-09
5.29609e-09
4.6134e-09
4.12772e-09
3.42108e-09
4.18895e-09
1.28993e-08
6.94729e-09
6.3103e-09
6.20341e-09
6.1909e-09
5.26572e-09
6.13281e-09
3.67596e-09
3.96464e-09
1.15986e-08
5.88142e-09
5.75917e-09
5.91517e-09
6.00583e-09
6.65823e-09
6.94117e-09
6.18278e-09
5.37741e-09
5.92055e-09
8.73958e-09
5.8758e-09
5.16042e-09
6.06121e-09
6.25394e-09
6.35008e-09
6.11195e-09
5.15562e-09
4.17748e-09
4.5681e-09
8.88077e-09
4.18711e-09
4.19549e-09
3.86554e-09
3.84135e-09
3.37935e-09
3.11271e-09
2.36615e-09
2.2947e-09
1.84568e-09
-0.000148234
7.76476e-05
-3.53869e-05
4.44727e-05
-3.34708e-05
1.86563e-05
-2.46787e-05
2.26871e-06
-2.02703e-05
-8.22551e-06
-1.47612e-05
-1.16629e-05
-8.82134e-06
-1.08763e-05
-4.8642e-06
-8.98208e-06
-2.34742e-06
-7.0035e-06
-1.66957e-06
-4.90475e-06
-1.01959e-06
-3.03226e-06
-9.57209e-07
-1.63751e-06
-1.19645e-06
-8.07211e-07
-1.34126e-06
-5.11737e-07
-1.37902e-06
-5.62838e-07
-1.35053e-06
-5.80371e-07
-1.06876e-06
-5.81541e-07
-6.71673e-07
-5.02167e-07
-4.1814e-07
-3.93208e-07
-2.27481e-07
-2.88605e-07
-1.29417e-07
-1.96803e-07
-8.15285e-08
-1.34486e-07
-5.87803e-08
-7.86727e-08
-5.31862e-08
-5.08364e-08
-3.41115e-08
-3.8562e-08
-2.16856e-08
-3.12636e-08
1.30689e-08
-2.95363e-08
-1.29031e-09
-4.42441e-08
-3.80391e-08
-4.01988e-08
-4.39168e-08
1.02849e-08
-2.89235e-08
-1.67579e-08
-3.73813e-08
-1.58919e-08
-1.61022e-08
-1.02218e-08
7.12876e-10
-6.79795e-09
-1.57737e-08
-2.14155e-09
-1.43752e-08
-1.20343e-08
-1.03026e-08
-1.82461e-09
-1.93248e-09
3.9411e-09
7.27137e-09
1.03738e-08
8.75603e-09
5.9701e-09
-6.47794e-05
4.77197e-05
-1.82258e-05
3.65416e-05
-2.05534e-05
2.50907e-05
-1.70516e-05
1.49994e-05
-1.57323e-05
7.47222e-06
-1.25667e-05
2.7803e-06
-9.24075e-06
2.53895e-07
-5.25738e-06
-7.12374e-07
-2.82136e-06
-9.33289e-07
-1.08605e-06
-8.90995e-07
-3.39614e-07
-7.4448e-07
-1.88551e-07
-5.4434e-07
-1.06288e-07
-3.59307e-07
-2.78151e-07
-2.06768e-07
-4.12724e-07
-6.98776e-08
-3.48341e-07
-1.015e-07
-2.89916e-07
-1.59761e-07
-2.65407e-07
-2.28184e-07
-1.89864e-07
-2.53685e-07
-1.55448e-07
-2.26206e-07
-1.17909e-07
-1.73311e-07
-8.95081e-08
-1.1089e-07
-7.02338e-08
-7.68681e-08
-4.86575e-08
-4.63608e-08
-4.2049e-08
-2.48806e-08
-2.80819e-08
-2.7226e-09
-1.59117e-08
2.0916e-08
-1.84132e-08
7.08955e-09
-2.77533e-08
-1.70936e-08
-3.20928e-09
-4.73681e-08
-1.18866e-08
-2.51781e-08
-1.1001e-09
-2.58849e-08
-1.94761e-08
-1.37296e-08
-1.67516e-08
-5.96604e-09
3.5079e-09
-1.94841e-08
-7.80907e-09
-6.74079e-09
-1.52435e-10
-9.76102e-10
1.75602e-09
8.19107e-09
3.54355e-09
1.17449e-08
6.57621e-09
-1.59718e-05
3.02319e-05
-2.12174e-06
2.89564e-05
-4.08842e-06
2.56414e-05
-4.39751e-06
2.0896e-05
-5.29619e-06
1.70641e-05
-5.18489e-06
1.37384e-05
-5.91729e-06
9.2208e-06
-5.10599e-06
5.32525e-06
-4.25754e-06
2.59928e-06
-3.10748e-06
1.20154e-06
-2.20449e-06
7.21777e-07
-1.19582e-06
6.90234e-07
-7.43595e-07
7.29438e-07
-3.97022e-07
6.43077e-07
-2.11191e-07
3.55174e-07
-2.54475e-07
1.14203e-07
-2.48648e-07
-7.18331e-08
-1.78894e-07
-1.60864e-07
-1.6173e-07
-1.82929e-07
-1.1727e-07
-1.70492e-07
-9.0396e-08
-1.38587e-07
-6.95003e-08
-1.10415e-07
-5.60833e-08
-6.85453e-08
-5.15893e-08
-4.28575e-08
-3.59645e-08
-2.69367e-08
-2.94026e-08
-1.77066e-08
1.79751e-09
-1.14823e-08
2.48307e-08
-7.98126e-09
1.83225e-08
-1.23362e-08
-2.81742e-08
7.80212e-09
-2.66363e-08
-1.24616e-08
-3.58498e-08
-1.27809e-08
-1.3032e-08
-7.30469e-09
6.22199e-09
-3.50046e-09
-1.66139e-08
-5.59764e-09
-1.2884e-08
-7.23216e-09
-1.4475e-08
1.25427e-08
-1.79519e-09
2.40377e-09
8.83492e-09
4.2125e-09
1.48431e-05
3.83108e-05
5.89518e-06
2.70798e-05
-1.22567e-06
2.05017e-05
-4.5198e-06
1.53097e-05
-5.29252e-06
1.17801e-05
-6.09737e-06
9.55626e-06
-6.01342e-06
7.47132e-06
-5.89302e-06
5.19392e-06
-4.69686e-06
3.42899e-06
-3.92846e-06
2.08198e-06
-2.75743e-06
1.11612e-06
-2.15837e-06
4.28471e-07
-1.61887e-06
3.42496e-08
-1.18999e-06
-1.64019e-07
-9.77686e-07
-1.48666e-07
-6.15609e-07
-1.20724e-07
-3.49628e-07
-1.05213e-07
-2.22012e-07
-1.27133e-07
-1.17597e-07
-1.50814e-07
-9.04812e-08
-1.50389e-07
-7.17527e-08
-1.2996e-07
-6.13942e-08
-8.9591e-08
-5.045e-08
-6.7726e-08
-3.62283e-08
-4.31956e-08
-3.51003e-08
-2.7305e-08
-2.73895e-08
-1.83556e-08
-2.17794e-08
1.59484e-09
-5.39376e-09
2.20344e-08
-4.66988e-09
1.52874e-08
1.34654e-08
-3.63631e-08
-1.21613e-08
-2.3958e-08
2.56115e-09
-2.06806e-08
-1.06624e-08
-1.00549e-08
-1.67493e-08
-3.95642e-09
-1.28933e-09
-1.11773e-08
-5.87847e-09
-7.06241e-09
-1.90106e-09
1.66437e-10
6.29669e-09
9.7584e-09
-2.58459e-09
-2.32398e-05
1.28526e-05
-4.51555e-06
1.17964e-05
-4.47761e-06
1.12045e-05
-4.37386e-06
1.00089e-05
-3.93573e-06
8.51827e-06
-3.88683e-06
7.49917e-06
-3.79407e-06
6.55429e-06
-3.97391e-06
5.05622e-06
-3.53502e-06
3.58099e-06
-3.16231e-06
2.33154e-06
-2.53978e-06
1.47558e-06
-2.14188e-06
9.67862e-07
-1.47038e-06
7.1979e-07
-1.1119e-06
5.40955e-07
-6.48416e-07
3.17169e-07
-4.59767e-07
1.0571e-07
-3.61128e-07
-6.22135e-08
-2.48838e-07
-1.37493e-07
-1.9769e-07
-1.4697e-07
-1.23589e-07
-1.28422e-07
-7.74345e-08
-1.02224e-07
-4.78731e-08
-8.84947e-08
-3.66723e-08
-5.95926e-08
-3.58449e-08
-4.09499e-08
-2.66385e-08
-2.649e-08
-2.72715e-08
-2.12509e-08
-2.04636e-08
-1.55119e-08
-1.52253e-09
-6.89101e-09
2.65483e-08
2.29515e-09
-1.92088e-08
8.62664e-09
-1.67481e-08
9.00798e-13
-3.13779e-08
-4.34943e-09
-1.24796e-08
-1.8792e-08
4.44354e-09
-8.6221e-09
2.14923e-09
-6.1207e-09
-7.72275e-09
-1.03288e-08
-9.46022e-09
1.81154e-08
-6.33521e-09
-3.75616e-09
-2.00674e-05
9.17299e-06
-5.09963e-06
6.93477e-06
-4.94642e-06
6.03031e-06
-4.60348e-06
5.31994e-06
-4.18805e-06
4.52815e-06
-3.6306e-06
3.94937e-06
-3.46544e-06
3.5797e-06
-3.16395e-06
3.17133e-06
-2.94121e-06
2.54523e-06
-2.41956e-06
1.94695e-06
-2.17876e-06
1.34346e-06
-1.71655e-06
7.78826e-07
-1.5713e-06
2.55764e-07
-1.35115e-06
-7.93348e-08
-1.18779e-06
-1.94364e-07
-8.98875e-07
-1.90128e-07
-5.8014e-07
-1.258e-07
-3.59285e-07
-9.30095e-08
-1.79314e-07
-9.13598e-08
-1.05511e-07
-9.60662e-08
-6.55372e-08
-9.33405e-08
-4.93406e-08
-6.86732e-08
-3.58782e-08
-5.65262e-08
-2.34698e-08
-3.89912e-08
-2.44003e-08
-2.75378e-08
-2.08407e-08
-1.89368e-08
-2.50932e-08
-1.74261e-08
-1.83956e-08
1.90348e-09
-1.11736e-08
1.09403e-08
2.18015e-08
-1.09791e-08
5.07104e-09
-1.98471e-08
1.0719e-08
-1.57152e-08
-6.67956e-09
5.43731e-09
-2.34767e-08
3.77098e-09
-8.73271e-09
2.98842e-09
-2.189e-09
2.85595e-10
-2.97963e-09
-9.7105e-09
-1.48411e-05
6.48086e-06
-3.66635e-06
5.16068e-06
-3.31572e-06
4.68561e-06
-3.04128e-06
4.35473e-06
-2.7996e-06
3.93266e-06
-2.4724e-06
3.43746e-06
-2.32155e-06
3.10325e-06
-2.21762e-06
2.794e-06
-2.19719e-06
2.2845e-06
-1.97177e-06
1.72906e-06
-1.7897e-06
1.20305e-06
-1.51862e-06
7.95261e-07
-1.38277e-06
5.41388e-07
-1.05686e-06
3.93348e-07
-7.92899e-07
2.36031e-07
-5.88108e-07
1.21992e-07
-4.34801e-07
1.27441e-08
-2.94876e-07
-4.82343e-08
-2.24157e-07
-6.65167e-08
-1.38069e-07
-6.34561e-08
-8.08906e-08
-5.43702e-08
-4.09909e-08
-5.83284e-08
-2.62343e-08
-4.59084e-08
-2.46522e-08
-3.64118e-08
-1.77709e-08
-2.46771e-08
-2.0441e-08
-2.16307e-08
-2.02867e-08
-2.16733e-08
-1.65575e-08
-1.85642e-08
1.70795e-08
1.45664e-08
8.37509e-09
2.96475e-08
6.9752e-09
2.7096e-08
-1.80074e-08
3.04008e-09
4.19919e-09
-2.14171e-08
8.52362e-09
-1.35844e-08
1.01903e-08
-1.08879e-08
-7.2853e-09
-1.77986e-08
-1.14489e-05
6.90399e-06
-2.30482e-06
4.32876e-06
-2.9018e-06
3.34123e-06
-2.939e-06
2.84772e-06
-2.80205e-06
2.49007e-06
-2.57584e-06
2.10768e-06
-2.29881e-06
1.8039e-06
-2.19033e-06
1.6047e-06
-2.02435e-06
1.44142e-06
-1.85689e-06
1.2097e-06
-1.53233e-06
9.8234e-07
-1.36295e-06
7.20139e-07
-1.07895e-06
4.2046e-07
-1.00168e-06
1.3991e-07
-9.4888e-07
1.95097e-08
-7.57339e-07
-1.46317e-08
-5.50035e-07
2.1423e-08
-3.57467e-07
4.89803e-08
-1.75361e-07
3.82371e-08
-9.36485e-08
4.32143e-09
-5.30075e-08
-2.85463e-08
-4.11982e-08
-3.36837e-08
-2.91623e-08
-3.8595e-08
-1.73408e-08
-3.22108e-08
-1.74895e-08
-2.77443e-08
-1.61396e-08
-2.09146e-08
-2.29038e-08
-1.47108e-08
-2.16025e-08
-1.03837e-09
2.11386e-09
1.65618e-08
4.28866e-08
1.86675e-08
4.33564e-08
-1.0833e-08
1.59916e-08
-5.47927e-09
-9.16034e-09
2.0958e-08
-3.62473e-08
2.11823e-09
-1.61835e-08
-1.24029e-05
4.7798e-06
-2.82156e-06
3.53832e-06
-2.7054e-06
2.93465e-06
-2.44373e-06
2.5965e-06
-2.18401e-06
2.35685e-06
-1.95699e-06
2.09075e-06
-1.71495e-06
1.795e-06
-1.55623e-06
1.58863e-06
-1.45384e-06
1.43544e-06
-1.36751e-06
1.23339e-06
-1.19505e-06
1.01156e-06
-1.04859e-06
7.86441e-07
-8.80728e-07
6.1675e-07
-8.28038e-07
4.94992e-07
-5.73599e-07
3.70844e-07
-5.10625e-07
2.63114e-07
-3.93136e-07
1.7329e-07
-2.67376e-07
1.01158e-07
-2.0725e-07
5.3302e-08
-1.34964e-07
2.47839e-08
-8.47738e-08
6.78992e-09
-4.38435e-08
-1.85308e-08
-2.60847e-08
-2.58311e-08
-2.17716e-08
-2.90532e-08
-1.47189e-08
-2.43569e-08
-1.63531e-08
-2.33894e-08
-1.40302e-08
-2.18809e-08
-1.87757e-08
-1.95305e-09
-5.62511e-09
3.26121e-08
3.74355e-09
4.73652e-08
-1.49877e-08
3.06522e-08
-3.58083e-08
3.52469e-09
1.45772e-08
-3.52762e-08
-7.64438e-06
3.15635e-06
-2.30598e-06
2.49748e-06
-2.10924e-06
2.06783e-06
-1.92531e-06
1.739e-06
-1.78518e-06
1.53807e-06
-1.64397e-06
1.40551e-06
-1.45939e-06
1.27698e-06
-1.25835e-06
1.18198e-06
-1.13386e-06
1.13753e-06
-1.00769e-06
1.09414e-06
-9.17301e-07
9.88337e-07
-7.52691e-07
8.62855e-07
-6.75966e-07
6.74493e-07
-5.37059e-07
4.62499e-07
-5.99609e-07
3.05508e-07
-5.17352e-07
2.28547e-07
-4.01819e-07
2.00408e-07
-2.9764e-07
1.86361e-07
-1.59e-07
1.53579e-07
-8.80665e-08
9.54685e-08
-5.29467e-08
3.3696e-08
-4.55122e-08
2.24924e-09
-3.41566e-08
-1.79938e-08
-1.9709e-08
-2.12854e-08
-1.76434e-08
-2.39193e-08
-1.6476e-08
-1.96054e-08
-2.27212e-08
-2.43489e-08
-5.4113e-09
-2.93561e-08
2.00745e-08
-3.17058e-08
3.18532e-08
-4.12501e-08
4.46007e-08
-4.76523e-08
-7.65911e-06
1.6948e-06
-2.44748e-06
1.59798e-06
-2.08487e-06
1.51076e-06
-1.78537e-06
1.34443e-06
-1.54705e-06
1.24709e-06
-1.36595e-06
1.19313e-06
-1.18915e-06
1.1413e-06
-1.0204e-06
1.06526e-06
-8.80215e-07
1.02157e-06
-7.82602e-07
9.90443e-07
-7.06414e-07
9.12337e-07
-6.09819e-07
7.98488e-07
-5.35782e-07
6.76527e-07
-4.62872e-07
5.64231e-07
-4.23127e-07
4.40183e-07
-3.52871e-07
3.3377e-07
-3.44055e-07
2.41164e-07
-2.61184e-07
1.7241e-07
-2.07423e-07
1.12383e-07
-1.53387e-07
6.44383e-08
-1.14106e-07
3.55664e-08
-6.98282e-08
6.55803e-09
-4.08238e-08
-5.53414e-09
-2.6144e-08
-1.87951e-08
-1.72683e-08
-2.44617e-08
-1.24367e-08
-2.21387e-08
-1.94779e-08
-1.43984e-08
-3.12709e-08
9.54149e-09
-4.95796e-08
-2.54905e-06
3.33127e-06
-8.86349e-08
2.29259e-06
-7.94063e-07
1.74133e-06
-9.77072e-07
1.36613e-06
-9.85709e-07
1.1182e-06
-9.39823e-07
9.70137e-07
-8.82274e-07
8.69427e-07
-8.00196e-07
7.7586e-07
-7.0564e-07
6.98686e-07
-6.37585e-07
6.49654e-07
-5.78481e-07
6.09776e-07
-5.24711e-07
5.45653e-07
-4.53916e-07
4.764e-07
-3.9806e-07
3.97369e-07
-3.40873e-07
3.36013e-07
-3.30772e-07
2.93072e-07
-2.53201e-07
2.66458e-07
-2.04155e-07
2.29391e-07
-1.44836e-07
1.65789e-07
-9.76073e-08
1.19168e-07
-7.60618e-08
5.43878e-08
-6.2374e-08
2.13655e-08
-4.07413e-08
1.20444e-09
-2.42329e-08
-1.10105e-08
-2.10359e-08
-1.99424e-09
-5.0514e-06
1.75792e-06
-1.59283e-06
1.32085e-06
-1.78924e-06
1.15853e-06
-1.69675e-06
1.01201e-06
-1.50627e-06
8.4883e-07
-1.32161e-06
7.35493e-07
-1.18259e-06
6.57729e-07
-1.06742e-06
6.00159e-07
-9.43597e-07
5.36034e-07
-8.40536e-07
4.86757e-07
-7.53296e-07
4.54369e-07
-6.80696e-07
4.24458e-07
-5.77347e-07
3.84958e-07
-4.96262e-07
3.44724e-07
-4.12413e-07
3.0111e-07
-3.55269e-07
2.59936e-07
-2.83442e-07
2.0345e-07
-2.3649e-07
1.62273e-07
-2.80987e-07
3.42872e-07
)
;

boundaryField
{
    inlet
    {
        type            extrapolatedCalculated;
        value           nonuniform List<scalar> 
11
(
8.88077e-09
4.18711e-09
4.19549e-09
3.86554e-09
3.84135e-09
3.37935e-09
3.11271e-09
2.36615e-09
2.2947e-09
1.84568e-09
5.9701e-09
)
;
    }
    outlet
    {
        type            extrapolatedCalculated;
        value           nonuniform List<scalar> 0();
    }
    walls
    {
        type            extrapolatedCalculated;
        value           nonuniform List<scalar> 4(-3.13029e-05 -7.74968e-05 2.26307e-05 -6.04558e-05);
    }
    frontAndBack
    {
        type            empty;
    }
    procBoundary6to2
    {
        type            processor;
        value           nonuniform List<scalar> 
13
(
0.000133178
8.63625e-05
4.79468e-05
7.84748e-05
8.45729e-06
2.28859e-05
1.48606e-05
1.25e-05
4.42777e-06
7.05564e-06
3.23682e-06
6.49824e-06
1.7134e-06
)
;
    }
    procBoundary6to3
    {
        type            processor;
        value           uniform 5.75165e-06;
    }
    procBoundary6to5
    {
        type            processor;
        value           nonuniform List<scalar> 
86
(
7.89869e-06
-1.84317e-06
7.47329e-06
-2.47299e-06
8.24094e-06
-2.58827e-06
9.71454e-06
-2.53757e-06
9.50545e-06
-2.37784e-06
8.82868e-06
-2.26784e-06
8.01258e-06
-1.90157e-06
7.23984e-06
-1.62913e-06
7.59875e-06
-1.30546e-06
7.26378e-06
-9.81979e-07
6.89092e-06
-7.54328e-07
5.96122e-06
-8.6934e-07
4.31547e-06
-1.49131e-06
2.92181e-06
-2.17223e-06
3.20335e-07
6.61194e-08
-1.11784e-06
2.20132e-06
-2.6699e-06
-2.6699e-06
-1.36093e-06
1.01733e-06
-1.05013e-06
8.46103e-07
-8.95723e-07
7.32792e-07
-8.38527e-07
3.66952e-07
-4.22728e-07
1.11972e-07
1.23842e-07
-1.14174e-07
-1.14174e-07
-2.57377e-07
1.99452e-07
-1.7374e-07
1.21846e-07
-1.16504e-07
8.8042e-08
-2.43788e-08
4.90135e-08
-9.61897e-08
-9.61897e-08
-1.0996e-07
-2.40759e-08
3.10357e-08
-5.97964e-08
1.81369e-08
-2.1052e-08
-1.04546e-08
-1.04546e-08
-1.51009e-08
-6.41949e-09
-2.43634e-08
1.36459e-08
-1.63749e-08
1.49671e-08
1.7692e-09
1.7692e-09
2.30421e-09
-4.59807e-09
4.45971e-10
-2.72685e-09
2.92155e-09
-3.84773e-09
1.21714e-08
5.7968e-09
1.03526e-08
1.03526e-08
7.08284e-09
5.69751e-09
5.04008e-09
)
;
    }
    procBoundary6to7
    {
        type            processor;
        value           nonuniform List<scalar> 
91
(
1.12423e-08
1.12423e-08
1.77411e-08
1.77411e-08
1.99509e-08
1.99509e-08
1.35795e-08
9.63316e-09
1.35795e-08
1.48161e-08
-1.11547e-08
9.63316e-09
2.14254e-08
2.71537e-09
-8.68104e-09
-1.11547e-08
2.741e-09
8.2465e-09
-2.07915e-08
2.71537e-09
8.6158e-09
3.58097e-08
-1.14422e-08
-1.36279e-08
8.2465e-09
1.96751e-08
2.28158e-08
-5.2412e-08
5.38647e-08
-4.38277e-08
3.58097e-08
3.24521e-08
-2.48678e-08
-1.96442e-08
-2.3905e-08
-3.30507e-08
-1.4749e-08
-3.38459e-08
2.28158e-08
-1.28709e-08
-2.9254e-07
9.54178e-08
-1.20647e-07
5.23053e-08
-9.25463e-08
3.39571e-08
-5.44653e-08
1.95945e-08
-4.63958e-08
4.92208e-10
-3.98755e-08
-2.48678e-08
-7.88424e-09
-4.71667e-07
1.68977e-06
4.49872e-07
1.14725e-06
1.67007e-07
9.00762e-07
1.80815e-08
7.06644e-07
-9.23714e-08
5.58712e-07
-1.23044e-07
4.8275e-07
-1.48715e-07
4.39977e-07
-1.44069e-07
4.11398e-07
-1.57984e-07
3.84982e-07
-1.52854e-07
3.80655e-07
-1.6495e-07
3.83841e-07
-1.76642e-07
3.73704e-07
-1.81906e-07
3.4358e-07
-1.9526e-07
3.00075e-07
-1.83541e-07
2.33709e-07
-2.06481e-07
1.63471e-07
-2.1749e-07
1.16773e-07
-2.01279e-07
7.71671e-08
-2.9254e-07
-1.59246e-07
)
;
    }
}


// ************************************************************************* //
