/*--------------------------------*- C++ -*----------------------------------*\
| =========                 |                                                 |
| \\      /  F ield         | OpenFOAM: The Open Source CFD Toolbox           |
|  \\    /   O peration     | Version:  2306                                  |
|   \\  /    A nd           | Website:  www.openfoam.com                      |
|    \\/     M anipulation  |                                                 |
\*---------------------------------------------------------------------------*/
FoamFile
{
    version     2.0;
    format      ascii;
    arch        "LSB;label=32;scalar=64";
    class       volScalarField;
    location    "775";
    object      magR;
}
// * * * * * * * * * * * * * * * * * * * * * * * * * * * * * * * * * * * * * //

dimensions      [0 2 -2 0 0 0 0];

internalField   nonuniform List<scalar> 
1340
(
8.17022e-07
1.6082e-06
1.82046e-07
7.4807e-07
8.14492e-07
1.61056e-06
2.01322e-07
3.23698e-07
1.78385e-07
7.50889e-07
8.14761e-07
1.61128e-06
3.72367e-07
3.27808e-07
3.0755e-07
2.11162e-07
3.31197e-07
1.76226e-07
7.5393e-07
8.16984e-07
1.61117e-06
5.32374e-07
4.93409e-07
4.61529e-07
4.31857e-07
4.00931e-07
3.71794e-07
3.2942e-07
3.11118e-07
2.21717e-07
3.38417e-07
1.75368e-07
7.57089e-07
8.20518e-07
1.61069e-06
7.47083e-07
7.00405e-07
6.53802e-07
6.08381e-07
5.6384e-07
5.21955e-07
4.85621e-07
4.55933e-07
4.28108e-07
3.98965e-07
3.71402e-07
3.31412e-07
3.15118e-07
2.3283e-07
3.45189e-07
1.75694e-07
7.60094e-07
8.24828e-07
1.60995e-06
1.01674e-06
9.73157e-07
9.29753e-07
8.86823e-07
8.44465e-07
8.02533e-07
7.6061e-07
7.18338e-07
6.75685e-07
6.33013e-07
5.91349e-07
5.50254e-07
5.1145e-07
4.7782e-07
4.50341e-07
4.24385e-07
3.97089e-07
3.7113e-07
3.33734e-07
3.19483e-07
2.44385e-07
3.51397e-07
1.77107e-07
7.62889e-07
8.29494e-07
1.60867e-06
1.37063e-06
1.3392e-06
1.30692e-06
1.27388e-06
1.24021e-06
1.20596e-06
1.17125e-06
1.13614e-06
1.10066e-06
1.06474e-06
1.02831e-06
9.91309e-07
9.53799e-07
9.15917e-07
8.77947e-07
8.40145e-07
8.02594e-07
7.65176e-07
7.27538e-07
6.89415e-07
6.5081e-07
6.12094e-07
5.74209e-07
5.36586e-07
5.00923e-07
4.70041e-07
4.44766e-07
4.2069e-07
3.95288e-07
3.70969e-07
3.36369e-07
3.24174e-07
2.56292e-07
3.5692e-07
1.7953e-07
7.65368e-07
8.33906e-07
1.60722e-06
1.34574e-06
1.40178e-06
1.23799e-06
1.26843e-06
1.26994e-06
1.3278e-06
1.35868e-06
1.38912e-06
1.41566e-06
1.44074e-06
1.46379e-06
1.4847e-06
1.50293e-06
1.51859e-06
1.53222e-06
1.54306e-06
1.5515e-06
1.55761e-06
1.56149e-06
1.56329e-06
1.56305e-06
1.56091e-06
1.5571e-06
1.55174e-06
1.54491e-06
1.53674e-06
1.5274e-06
1.51701e-06
1.50555e-06
1.49321e-06
1.47996e-06
1.46588e-06
1.45102e-06
1.43535e-06
1.41894e-06
1.40177e-06
1.38379e-06
1.36508e-06
1.3455e-06
1.32509e-06
1.30388e-06
1.28175e-06
1.25873e-06
1.23477e-06
1.20996e-06
1.18426e-06
1.15774e-06
1.13052e-06
1.10262e-06
1.07416e-06
1.04523e-06
1.01579e-06
9.85808e-07
9.55224e-07
9.23947e-07
8.92023e-07
8.59554e-07
8.26766e-07
7.93879e-07
7.60973e-07
7.27953e-07
6.94532e-07
6.60516e-07
6.25947e-07
5.9118e-07
5.57056e-07
5.22904e-07
4.90423e-07
4.62307e-07
4.39209e-07
4.17015e-07
3.93542e-07
3.70898e-07
3.39302e-07
3.29169e-07
2.68473e-07
3.61692e-07
1.82863e-07
7.67266e-07
8.37826e-07
1.60582e-06
1.38281e-06
1.10324e-06
1.00993e-06
1.10196e-06
1.12268e-06
1.15906e-06
1.18112e-06
1.20548e-06
1.22724e-06
1.24788e-06
1.2667e-06
1.28363e-06
1.29857e-06
1.31153e-06
1.32272e-06
1.33171e-06
1.33884e-06
1.34425e-06
1.34783e-06
1.34975e-06
1.35015e-06
1.34908e-06
1.34668e-06
1.34312e-06
1.33841e-06
1.3327e-06
1.32615e-06
1.31871e-06
1.31052e-06
1.30165e-06
1.29209e-06
1.28193e-06
1.27113e-06
1.25975e-06
1.24779e-06
1.23519e-06
1.22199e-06
1.20815e-06
1.19361e-06
1.17835e-06
1.16235e-06
1.14558e-06
1.12795e-06
1.10946e-06
1.09017e-06
1.06998e-06
1.04902e-06
1.02733e-06
1.00495e-06
9.8201e-07
9.58551e-07
9.34553e-07
9.09969e-07
8.84743e-07
8.58752e-07
8.32016e-07
8.04593e-07
7.76674e-07
7.4844e-07
7.19958e-07
6.91173e-07
6.61858e-07
6.31873e-07
6.01277e-07
5.70409e-07
5.40001e-07
5.09287e-07
4.8e-07
4.54635e-07
4.33666e-07
4.13351e-07
3.91829e-07
3.70913e-07
3.42507e-07
3.34442e-07
2.80824e-07
3.65668e-07
1.86878e-07
7.68922e-07
8.40799e-07
1.60508e-06
1.05615e-06
9.30983e-07
8.96653e-07
9.79765e-07
9.89364e-07
1.01463e-06
1.0326e-06
1.05188e-06
1.06938e-06
1.08573e-06
1.10039e-06
1.11388e-06
1.12571e-06
1.13598e-06
1.14476e-06
1.15201e-06
1.15773e-06
1.16221e-06
1.16525e-06
1.16692e-06
1.16755e-06
1.16708e-06
1.16561e-06
1.16313e-06
1.15993e-06
1.15601e-06
1.15136e-06
1.14612e-06
1.14033e-06
1.13404e-06
1.12725e-06
1.12004e-06
1.11235e-06
1.10424e-06
1.09571e-06
1.08671e-06
1.07723e-06
1.06724e-06
1.05672e-06
1.04557e-06
1.0338e-06
1.02136e-06
1.00813e-06
9.94189e-07
9.79454e-07
9.63896e-07
9.47645e-07
9.30679e-07
9.13095e-07
8.94974e-07
8.76344e-07
8.572e-07
8.37494e-07
8.17123e-07
7.95952e-07
7.73987e-07
7.5124e-07
7.27839e-07
7.0396e-07
6.79678e-07
6.54948e-07
6.29602e-07
6.03538e-07
5.7685e-07
5.49808e-07
5.23031e-07
4.95725e-07
4.6964e-07
4.46985e-07
4.28084e-07
4.09662e-07
3.90112e-07
3.70988e-07
3.45984e-07
3.39993e-07
2.93253e-07
3.68875e-07
1.91556e-07
7.693e-07
8.43505e-07
1.60549e-06
9.00185e-07
8.32715e-07
8.06927e-07
8.67393e-07
8.7234e-07
8.92197e-07
9.06429e-07
9.21361e-07
9.34811e-07
9.47387e-07
9.58699e-07
9.69038e-07
9.78143e-07
9.86053e-07
9.92835e-07
9.98509e-07
1.00298e-06
1.00653e-06
1.00901e-06
1.01049e-06
1.01119e-06
1.01108e-06
1.01019e-06
1.00861e-06
1.00658e-06
1.00387e-06
1.00072e-06
9.97191e-07
9.93204e-07
9.88892e-07
9.84223e-07
9.79292e-07
9.73981e-07
9.68421e-07
9.62537e-07
9.56299e-07
9.49721e-07
9.42753e-07
9.35328e-07
9.27438e-07
9.19013e-07
9.09996e-07
9.00342e-07
8.90034e-07
8.78996e-07
8.67281e-07
8.54919e-07
8.41925e-07
8.28407e-07
8.14407e-07
7.99969e-07
7.85067e-07
7.69663e-07
7.53572e-07
7.36715e-07
7.19041e-07
7.00467e-07
6.8119e-07
6.61321e-07
6.40904e-07
6.19982e-07
5.98411e-07
5.76079e-07
5.53133e-07
5.29768e-07
5.06477e-07
4.82481e-07
4.5952e-07
4.39498e-07
4.22582e-07
4.06024e-07
3.88435e-07
3.7118e-07
3.49727e-07
3.45817e-07
3.05477e-07
3.71411e-07
1.95972e-07
7.68933e-07
8.44656e-07
1.60937e-06
7.97245e-07
7.38111e-07
7.13213e-07
7.59556e-07
7.63118e-07
7.78506e-07
7.89259e-07
8.0053e-07
8.10476e-07
8.20021e-07
8.28549e-07
8.36264e-07
8.43208e-07
8.49126e-07
8.54305e-07
8.5874e-07
8.6222e-07
8.64963e-07
8.67052e-07
8.68407e-07
8.69195e-07
8.69372e-07
8.69013e-07
8.68255e-07
8.67053e-07
8.65431e-07
8.63629e-07
8.61466e-07
8.58968e-07
8.56252e-07
8.53475e-07
8.50387e-07
8.47152e-07
8.43605e-07
8.39916e-07
8.36194e-07
8.31921e-07
8.27458e-07
8.22706e-07
8.1759e-07
8.11936e-07
8.05891e-07
7.99271e-07
7.92003e-07
7.84267e-07
7.75823e-07
7.66856e-07
7.5741e-07
7.4744e-07
7.37165e-07
7.26485e-07
7.15401e-07
7.03932e-07
6.91767e-07
6.78832e-07
6.65139e-07
6.50468e-07
6.35002e-07
6.18955e-07
6.02222e-07
5.84955e-07
5.67096e-07
5.48443e-07
5.29182e-07
5.09465e-07
4.89666e-07
4.68969e-07
4.49168e-07
4.31777e-07
4.16868e-07
4.02202e-07
3.86647e-07
3.71458e-07
3.53785e-07
3.52098e-07
3.17866e-07
3.73246e-07
2.04246e-07
7.64159e-07
8.49074e-07
1.61363e-06
6.82217e-07
6.31584e-07
6.09268e-07
6.44902e-07
6.46294e-07
6.57593e-07
6.64715e-07
6.71856e-07
6.79401e-07
6.8544e-07
6.91144e-07
6.96969e-07
7.01506e-07
7.05408e-07
7.09358e-07
7.12745e-07
7.14833e-07
7.17267e-07
7.18959e-07
7.2019e-07
7.21237e-07
7.21521e-07
7.21925e-07
7.22037e-07
7.21604e-07
7.21197e-07
7.20655e-07
7.19891e-07
7.1901e-07
7.17809e-07
7.16913e-07
7.15826e-07
7.14506e-07
7.12906e-07
7.11673e-07
7.10202e-07
7.08271e-07
7.06255e-07
7.04145e-07
7.01728e-07
6.98774e-07
6.95733e-07
6.9189e-07
6.87743e-07
6.83285e-07
6.77977e-07
6.72466e-07
6.66622e-07
6.60188e-07
6.53747e-07
6.46938e-07
6.39739e-07
6.32398e-07
6.24286e-07
6.15409e-07
6.05842e-07
5.95328e-07
5.83862e-07
5.71867e-07
5.59186e-07
5.45935e-07
5.32154e-07
5.17594e-07
5.02465e-07
4.86809e-07
4.70861e-07
4.53868e-07
4.37635e-07
4.23129e-07
4.10407e-07
3.979e-07
3.8471e-07
3.71976e-07
3.58861e-07
3.59181e-07
3.32438e-07
3.71744e-07
2.20323e-07
7.49683e-07
8.41231e-07
1.55937e-06
5.60012e-07
5.24409e-07
5.07904e-07
5.32035e-07
5.32136e-07
5.39515e-07
5.43198e-07
5.47531e-07
5.52316e-07
5.55557e-07
5.59209e-07
5.62938e-07
5.65493e-07
5.67877e-07
5.70786e-07
5.72941e-07
5.74206e-07
5.76335e-07
5.77399e-07
5.78755e-07
5.79981e-07
5.80257e-07
5.81282e-07
5.82198e-07
5.82352e-07
5.82961e-07
5.83304e-07
5.8371e-07
5.84259e-07
5.84445e-07
5.8483e-07
5.85417e-07
5.85618e-07
5.85811e-07
5.86502e-07
5.86671e-07
5.86799e-07
5.86884e-07
5.869e-07
5.86588e-07
5.86084e-07
5.85309e-07
5.83985e-07
5.82679e-07
5.8075e-07
5.7845e-07
5.76096e-07
5.73422e-07
5.70452e-07
5.67534e-07
5.64481e-07
5.61078e-07
5.57606e-07
5.53463e-07
5.48617e-07
5.43048e-07
5.36597e-07
5.2926e-07
5.21402e-07
5.12944e-07
5.03971e-07
4.9449e-07
4.84337e-07
4.73614e-07
4.62253e-07
4.50423e-07
4.3747e-07
4.25056e-07
4.13606e-07
4.03258e-07
3.93154e-07
3.82667e-07
3.72959e-07
3.65001e-07
3.67528e-07
3.47988e-07
3.69119e-07
2.37893e-07
7.49028e-07
8.34317e-07
1.55714e-06
4.57245e-07
4.31031e-07
4.17615e-07
4.34676e-07
4.34306e-07
4.38203e-07
4.40515e-07
4.4373e-07
4.45369e-07
4.4783e-07
4.50427e-07
4.52164e-07
4.53796e-07
4.55571e-07
4.57608e-07
4.58641e-07
4.6014e-07
4.61597e-07
4.62349e-07
4.63895e-07
4.6513e-07
4.65666e-07
4.66965e-07
4.68133e-07
4.68779e-07
4.70216e-07
4.71116e-07
4.72134e-07
4.73549e-07
4.74706e-07
4.75862e-07
4.77481e-07
4.78695e-07
4.80069e-07
4.81822e-07
4.83133e-07
4.84552e-07
4.86036e-07
4.87351e-07
4.88438e-07
4.89552e-07
4.90265e-07
4.90869e-07
4.9137e-07
4.91324e-07
4.91343e-07
4.91306e-07
4.91071e-07
4.90856e-07
4.90677e-07
4.90605e-07
4.90289e-07
4.89802e-07
4.88944e-07
4.8733e-07
4.85069e-07
4.82053e-07
4.7825e-07
4.7406e-07
4.69359e-07
4.64228e-07
4.58711e-07
4.52601e-07
4.45883e-07
4.38532e-07
4.30562e-07
4.21451e-07
4.12667e-07
4.04125e-07
3.96127e-07
3.88509e-07
3.80856e-07
3.74563e-07
3.71804e-07
3.76804e-07
3.62815e-07
3.68053e-07
2.55417e-07
7.55999e-07
8.12757e-07
1.55666e-06
3.72726e-07
3.33399e-07
3.50908e-07
3.37958e-07
3.52743e-07
3.50916e-07
3.53278e-07
3.5525e-07
3.57065e-07
3.57961e-07
3.59581e-07
3.61384e-07
3.62627e-07
3.63658e-07
3.65171e-07
3.66758e-07
3.67414e-07
3.69015e-07
3.70225e-07
3.71206e-07
3.72793e-07
3.73864e-07
3.75155e-07
3.76484e-07
3.77887e-07
3.79269e-07
3.80943e-07
3.82478e-07
3.83992e-07
3.85999e-07
3.87815e-07
3.89582e-07
3.91919e-07
3.93815e-07
3.96009e-07
3.98491e-07
4.00528e-07
4.02872e-07
4.05232e-07
4.07366e-07
4.09531e-07
4.11599e-07
4.13488e-07
4.15359e-07
4.17009e-07
4.18592e-07
4.20185e-07
4.21811e-07
4.23499e-07
4.25295e-07
4.27183e-07
4.29262e-07
4.31202e-07
4.32937e-07
4.34441e-07
4.35211e-07
4.35454e-07
4.351e-07
4.34083e-07
4.32825e-07
4.31221e-07
4.2927e-07
4.27053e-07
4.24312e-07
4.20984e-07
4.17059e-07
4.12438e-07
4.06717e-07
4.01132e-07
3.95189e-07
3.89403e-07
3.84245e-07
3.79473e-07
3.76844e-07
3.79127e-07
3.86513e-07
3.76319e-07
3.68219e-07
2.76867e-07
7.66878e-07
7.85115e-07
1.55579e-06
3.01591e-07
2.68925e-07
2.8232e-07
2.70953e-07
2.83585e-07
2.8148e-07
2.83586e-07
2.84371e-07
2.85815e-07
2.86878e-07
2.87575e-07
2.89004e-07
2.90065e-07
2.91246e-07
2.9238e-07
2.93541e-07
2.94533e-07
2.96022e-07
2.97354e-07
2.9849e-07
2.99903e-07
3.0122e-07
3.03067e-07
3.04407e-07
3.0615e-07
3.07904e-07
3.09716e-07
3.11896e-07
3.13739e-07
3.1608e-07
3.18308e-07
3.20712e-07
3.23364e-07
3.25795e-07
3.28542e-07
3.31451e-07
3.34168e-07
3.36971e-07
3.39979e-07
3.42793e-07
3.45656e-07
3.48528e-07
3.51227e-07
3.54039e-07
3.56765e-07
3.59563e-07
3.62411e-07
3.65355e-07
3.68567e-07
3.71928e-07
3.75357e-07
3.79022e-07
3.82624e-07
3.85979e-07
3.89212e-07
3.91785e-07
3.93917e-07
3.95645e-07
3.96893e-07
3.98008e-07
3.98912e-07
3.99589e-07
4.0005e-07
4.00104e-07
3.99606e-07
3.9854e-07
3.96797e-07
3.94026e-07
3.91218e-07
3.8759e-07
3.83896e-07
3.81107e-07
3.7921e-07
3.80356e-07
3.87362e-07
3.96756e-07
3.88869e-07
3.7054e-07
3.05749e-07
7.81793e-07
7.52779e-07
1.55609e-06
2.4079e-07
2.14473e-07
2.24158e-07
2.14778e-07
2.25169e-07
2.23712e-07
2.25316e-07
2.26079e-07
2.2754e-07
2.28014e-07
2.29036e-07
2.30495e-07
2.31334e-07
2.32645e-07
2.33871e-07
2.34885e-07
2.36362e-07
2.37799e-07
2.39311e-07
2.40558e-07
2.42212e-07
2.44027e-07
2.45678e-07
2.4749e-07
2.49575e-07
2.51356e-07
2.53666e-07
2.56081e-07
2.58116e-07
2.60778e-07
2.63264e-07
2.66041e-07
2.68885e-07
2.71559e-07
2.74643e-07
2.77879e-07
2.8078e-07
2.8397e-07
2.87334e-07
2.90489e-07
2.9375e-07
2.9721e-07
3.00407e-07
3.03806e-07
3.07409e-07
3.10928e-07
3.14718e-07
3.18615e-07
3.22848e-07
3.2722e-07
3.31684e-07
3.36439e-07
3.41066e-07
3.45536e-07
3.49954e-07
3.53837e-07
3.5741e-07
3.60775e-07
3.63854e-07
3.66897e-07
3.69809e-07
3.72637e-07
3.75321e-07
3.77636e-07
3.7951e-07
3.80858e-07
3.81562e-07
3.81339e-07
3.80876e-07
3.79293e-07
3.77641e-07
3.77253e-07
3.78314e-07
3.83339e-07
3.94561e-07
4.05037e-07
3.97675e-07
3.72596e-07
3.39136e-07
8.00356e-07
7.13008e-07
1.56067e-06
2.01895e-07
1.80972e-07
1.891e-07
1.80944e-07
1.89866e-07
1.88542e-07
1.89337e-07
1.90514e-07
1.91398e-07
1.91714e-07
1.9279e-07
1.93902e-07
1.9466e-07
1.95584e-07
1.96837e-07
1.97734e-07
1.99151e-07
2.00466e-07
2.01585e-07
2.02918e-07
2.04601e-07
2.06298e-07
2.0766e-07
2.0938e-07
2.11636e-07
2.1323e-07
2.15402e-07
2.17726e-07
2.19842e-07
2.22305e-07
2.24851e-07
2.27531e-07
2.30334e-07
2.33092e-07
2.36215e-07
2.39413e-07
2.4244e-07
2.45869e-07
2.49334e-07
2.52844e-07
2.5634e-07
2.6024e-07
2.63967e-07
2.6793e-07
2.72166e-07
2.76286e-07
2.80884e-07
2.85471e-07
2.90357e-07
2.95411e-07
3.00575e-07
3.05942e-07
3.1121e-07
3.16505e-07
3.21684e-07
3.26573e-07
3.31325e-07
3.35963e-07
3.40473e-07
3.45024e-07
3.49482e-07
3.53949e-07
3.58329e-07
3.62371e-07
3.6615e-07
3.69451e-07
3.72154e-07
3.74088e-07
3.75699e-07
3.76032e-07
3.76193e-07
3.77794e-07
3.81301e-07
3.89584e-07
4.03928e-07
4.14696e-07
4.07922e-07
3.8319e-07
3.88411e-07
8.29054e-07
6.75995e-07
1.58199e-06
1.64509e-07
1.4674e-07
1.53324e-07
1.46113e-07
1.55304e-07
1.53986e-07
1.55364e-07
1.56559e-07
1.56973e-07
1.57672e-07
1.5917e-07
1.60358e-07
1.61344e-07
1.62242e-07
1.63585e-07
1.65022e-07
1.66472e-07
1.67727e-07
1.68902e-07
1.70906e-07
1.72456e-07
1.74137e-07
1.75807e-07
1.77512e-07
1.79888e-07
1.8169e-07
1.83761e-07
1.85991e-07
1.88332e-07
1.90733e-07
1.93097e-07
1.95875e-07
1.98419e-07
2.01198e-07
2.04231e-07
2.07163e-07
2.10213e-07
2.13359e-07
2.16855e-07
2.20272e-07
2.23669e-07
2.27548e-07
2.3135e-07
2.35329e-07
2.39498e-07
2.43822e-07
2.48359e-07
2.52973e-07
2.57808e-07
2.62773e-07
2.67944e-07
2.73168e-07
2.78511e-07
2.83937e-07
2.89297e-07
2.94623e-07
2.99986e-07
3.05356e-07
3.10707e-07
3.16215e-07
3.21696e-07
3.27287e-07
3.32844e-07
3.38177e-07
3.43365e-07
3.48104e-07
3.52315e-07
3.55818e-07
3.5862e-07
3.60115e-07
3.62111e-07
3.66144e-07
3.72891e-07
3.85206e-07
4.02127e-07
4.10563e-07
4.00167e-07
3.7723e-07
4.20666e-07
8.46836e-07
6.13266e-07
1.61909e-06
1.73337e-07
1.61069e-07
1.65718e-07
1.60488e-07
1.65035e-07
1.6406e-07
1.65157e-07
1.65736e-07
1.65579e-07
1.66034e-07
1.67006e-07
1.67805e-07
1.68308e-07
1.68646e-07
1.69544e-07
1.70492e-07
1.71298e-07
1.72073e-07
1.72757e-07
1.74216e-07
1.7524e-07
1.76188e-07
1.77419e-07
1.78705e-07
1.80328e-07
1.81743e-07
1.83383e-07
1.85045e-07
1.86999e-07
1.89035e-07
1.91038e-07
1.93533e-07
1.95836e-07
1.98556e-07
2.0143e-07
2.04422e-07
2.07605e-07
2.1094e-07
2.14749e-07
2.18426e-07
2.22428e-07
2.26663e-07
2.30931e-07
2.35341e-07
2.39897e-07
2.44558e-07
2.49128e-07
2.53899e-07
2.58669e-07
2.63537e-07
2.68667e-07
2.73883e-07
2.79414e-07
2.85074e-07
2.90918e-07
2.96837e-07
3.0281e-07
3.08796e-07
3.14642e-07
3.20553e-07
3.26379e-07
3.323e-07
3.38238e-07
3.44105e-07
3.49917e-07
3.55407e-07
3.6058e-07
3.65335e-07
3.69935e-07
3.73329e-07
3.7612e-07
3.80194e-07
3.865e-07
3.97905e-07
4.13271e-07
4.2019e-07
4.15158e-07
4.14287e-07
5.10574e-07
8.95249e-07
6.33996e-07
1.77977e-06
1.31639e-07
1.33191e-07
1.3165e-07
1.34671e-07
1.36068e-07
1.36548e-07
1.37344e-07
1.37921e-07
1.38809e-07
1.3975e-07
1.40329e-07
1.41252e-07
1.42179e-07
1.43152e-07
1.44101e-07
1.45022e-07
1.46151e-07
1.47218e-07
1.48312e-07
1.49548e-07
1.50671e-07
1.5199e-07
1.53228e-07
1.54561e-07
1.56011e-07
1.57499e-07
1.5901e-07
1.60538e-07
1.62269e-07
1.63947e-07
1.65758e-07
1.67666e-07
1.69564e-07
1.71684e-07
1.73787e-07
1.76072e-07
1.78404e-07
1.8084e-07
1.8341e-07
1.85946e-07
1.88662e-07
1.91362e-07
1.94069e-07
1.96777e-07
1.9955e-07
2.02248e-07
2.04959e-07
2.07803e-07
2.107e-07
2.13848e-07
2.17208e-07
2.20852e-07
2.24823e-07
2.28973e-07
2.33407e-07
2.37974e-07
2.42747e-07
2.47652e-07
2.52672e-07
2.58014e-07
2.63527e-07
2.69327e-07
2.75287e-07
2.81319e-07
2.87356e-07
2.9308e-07
2.98473e-07
3.03275e-07
3.05991e-07
3.07105e-07
3.11105e-07
3.1942e-07
3.32403e-07
3.52137e-07
3.70583e-07
3.68276e-07
3.46871e-07
3.54141e-07
4.99956e-07
7.63736e-07
5.75806e-07
1.79265e-06
)
;

boundaryField
{
    inlet
    {
        type            calculated;
        value           nonuniform List<scalar> 
23
(
6.78296e-06
6.74895e-06
6.71595e-06
6.68391e-06
6.65215e-06
6.61992e-06
6.58629e-06
6.55059e-06
6.51186e-06
6.4693e-06
6.42179e-06
6.36972e-06
6.30993e-06
6.21614e-06
6.13777e-06
6.04256e-06
5.92426e-06
5.78016e-06
5.60693e-06
5.40381e-06
5.1622e-06
4.97834e-06
4.62616e-06
)
;
    }
    outlet
    {
        type            calculated;
        value           nonuniform List<scalar> 
82
(
1.04776e-07
1.04587e-07
1.06886e-07
1.0812e-07
1.09651e-07
1.10035e-07
1.10794e-07
1.11288e-07
1.12146e-07
1.13061e-07
1.13538e-07
1.14413e-07
1.15297e-07
1.16218e-07
1.17112e-07
1.1796e-07
1.1905e-07
1.20061e-07
1.21091e-07
1.22291e-07
1.23342e-07
1.24611e-07
1.25783e-07
1.27052e-07
1.28448e-07
1.29872e-07
1.31314e-07
1.32751e-07
1.34412e-07
1.35987e-07
1.37689e-07
1.39484e-07
1.41228e-07
1.43208e-07
1.45122e-07
1.47212e-07
1.49319e-07
1.51502e-07
1.53805e-07
1.56022e-07
1.58425e-07
1.6078e-07
1.63122e-07
1.65456e-07
1.67866e-07
1.702e-07
1.72559e-07
1.75094e-07
1.77698e-07
1.80589e-07
1.83696e-07
1.87079e-07
1.90765e-07
1.94573e-07
1.9863e-07
2.02793e-07
2.07191e-07
2.11798e-07
2.16638e-07
2.21974e-07
2.27617e-07
2.33652e-07
2.39889e-07
2.46186e-07
2.52464e-07
2.58353e-07
2.63749e-07
2.68217e-07
2.69987e-07
2.70199e-07
2.74368e-07
2.84029e-07
2.99818e-07
3.23607e-07
3.45136e-07
3.41096e-07
3.09441e-07
3.03267e-07
4.48031e-07
7.34272e-07
4.68518e-07
1.62421e-06
)
;
    }
    walls
    {
        type            calculated;
        value           nonuniform List<scalar> 0();
    }
    frontAndBack
    {
        type            empty;
    }
    procBoundary3to2
    {
        type            processor;
        value           nonuniform List<scalar> 
88
(
8.22949e-07
1.6052e-06
1.87196e-07
7.44923e-07
7.44923e-07
1.92303e-07
3.16022e-07
3.16022e-07
3.7322e-07
3.26659e-07
3.04515e-07
3.04515e-07
5.42728e-07
5.01216e-07
4.67175e-07
4.35684e-07
4.03041e-07
4.03041e-07
7.75441e-07
7.2479e-07
6.74324e-07
6.25197e-07
5.7726e-07
5.7726e-07
1.08024e-06
1.03076e-06
9.81737e-07
9.3353e-07
8.86256e-07
8.39742e-07
7.93503e-07
7.93503e-07
1.51654e-06
1.47722e-06
1.43719e-06
1.39659e-06
1.35548e-06
1.31404e-06
1.27233e-06
1.2304e-06
1.18832e-06
1.14595e-06
1.10326e-06
1.06017e-06
1.06017e-06
1.0381e-06
1.54735e-06
1.6271e-06
1.47799e-06
1.52434e-06
1.5718e-06
1.61159e-06
1.64509e-06
1.6749e-06
1.70157e-06
1.72646e-06
1.74803e-06
1.76638e-06
1.78197e-06
1.79426e-06
1.80374e-06
1.81019e-06
1.8137e-06
1.81469e-06
1.8131e-06
1.80918e-06
1.8031e-06
1.79492e-06
1.78498e-06
1.77344e-06
1.76023e-06
1.74567e-06
1.72987e-06
1.71286e-06
1.69473e-06
1.67549e-06
1.65534e-06
1.63415e-06
1.61196e-06
1.58895e-06
1.56491e-06
1.53999e-06
1.51413e-06
1.48727e-06
1.45954e-06
1.43084e-06
1.4012e-06
1.4012e-06
)
;
    }
    procBoundary3to6
    {
        type            processor;
        value           uniform 7.88734e-11;
    }
    procBoundary3to7
    {
        type            processor;
        value           nonuniform List<scalar> 
16
(
2.46871e-08
9.43233e-07
9.69379e-07
7.50973e-07
6.57883e-07
5.79958e-07
4.90667e-07
4.07599e-07
4.07599e-07
3.30081e-07
2.6685e-07
2.12586e-07
1.79149e-07
1.46353e-07
1.58009e-07
1.3526e-07
)
;
    }
}


// ************************************************************************* //
