/*--------------------------------*- C++ -*----------------------------------*\
| =========                 |                                                 |
| \\      /  F ield         | OpenFOAM: The Open Source CFD Toolbox           |
|  \\    /   O peration     | Version:  2306                                  |
|   \\  /    A nd           | Website:  www.openfoam.com                      |
|    \\/     M anipulation  |                                                 |
\*---------------------------------------------------------------------------*/
FoamFile
{
    version     2.0;
    format      ascii;
    arch        "LSB;label=32;scalar=64";
    class       volVectorField;
    location    "825";
    object      momentError;
}
// * * * * * * * * * * * * * * * * * * * * * * * * * * * * * * * * * * * * * //

dimensions      [0 1 -2 0 0 0 0];

internalField   nonuniform List<vector> 
1340
(
(1.72415e-08 -4.65373e-07 -7.3966e-16)
(-1.27566e-07 -8.86441e-07 -1.09297e-16)
(-7.68678e-08 -8.47408e-07 -7.61663e-16)
(-2.42953e-07 -7.22151e-07 3.80753e-15)
(-2.18996e-07 -7.81496e-07 -5.7467e-17)
(-1.00229e-07 -7.9747e-07 1.22431e-15)
(-2.64294e-07 -7.52754e-07 -8.4028e-16)
(-3.11422e-07 -7.27471e-07 3.98101e-15)
(-2.4924e-07 -7.93872e-07 3.27867e-16)
(-1.02395e-07 -7.92659e-07 -1.89476e-15)
(-2.6747e-07 -9.00178e-07 -1.92692e-15)
(-2.67525e-07 -8.27499e-07 -1.60866e-15)
(-2.98615e-07 -7.72982e-07 -1.14749e-15)
(-3.22199e-07 -7.46097e-07 -1.40693e-15)
(-2.43806e-07 -7.67965e-07 -3.27557e-16)
(-1.0553e-07 -7.79408e-07 -1.06214e-15)
(-3.643e-07 -1.0835e-06 -6.14251e-16)
(-3.36199e-07 -9.63238e-07 4.86048e-17)
(-3.15902e-07 -9.03719e-07 -4.69366e-15)
(-3.09507e-07 -8.51348e-07 -2.57504e-15)
(-3.08517e-07 -8.03346e-07 1.25471e-15)
(-2.97121e-07 -7.54831e-07 -1.57593e-15)
(-2.37654e-07 -7.60782e-07 -8.4982e-16)
(-1.02054e-07 -7.64496e-07 2.66119e-15)
(-6.46462e-07 -1.59105e-06 -3.26927e-15)
(-5.50931e-07 -1.44048e-06 -4.2386e-15)
(-4.55246e-07 -1.26616e-06 -2.67329e-15)
(-4.02674e-07 -1.07137e-06 -6.48432e-18)
(-4.05623e-07 -9.62523e-07 -1.54762e-16)
(-3.5991e-07 -9.21155e-07 1.87984e-15)
(-3.31063e-07 -8.59292e-07 8.19418e-16)
(-2.97586e-07 -8.12833e-07 -2.128e-16)
(-2.82574e-07 -7.682e-07 7.7583e-16)
(-2.22498e-07 -7.51099e-07 5.70436e-17)
(-9.5919e-08 -7.49206e-07 -6.44684e-16)
(-1.14208e-06 -1.90447e-06 -8.15338e-16)
(-9.93217e-07 -1.70775e-06 1.23717e-15)
(-8.45488e-07 -1.5911e-06 3.37315e-16)
(-7.25998e-07 -1.49041e-06 -3.97555e-16)
(-6.14189e-07 -1.3757e-06 -1.53641e-15)
(-5.22829e-07 -1.21907e-06 -2.70425e-15)
(-4.55018e-07 -1.07744e-06 -5.42593e-16)
(-4.53893e-07 -9.59621e-07 1.41883e-16)
(-3.79453e-07 -8.98833e-07 1.9472e-15)
(-3.34524e-07 -8.62591e-07 4.49698e-16)
(-2.98388e-07 -8.19985e-07 -1.01403e-15)
(-2.65223e-07 -7.74516e-07 1.32279e-15)
(-2.05899e-07 -7.42626e-07 5.05534e-16)
(-8.82535e-08 -7.32556e-07 8.89295e-16)
(-2.54909e-06 -2.13976e-06 -1.04901e-15)
(-2.15731e-06 -2.05768e-06 2.93805e-16)
(-1.8162e-06 -1.98652e-06 1.17436e-16)
(-1.48062e-06 -1.86413e-06 -1.09921e-16)
(-1.22766e-06 -1.72429e-06 -4.53034e-16)
(-1.05478e-06 -1.58376e-06 2.17495e-15)
(-9.20158e-07 -1.47589e-06 2.67521e-16)
(-8.11683e-07 -1.4076e-06 9.03904e-16)
(-6.90838e-07 -1.29682e-06 -1.6144e-16)
(-5.95074e-07 -1.16309e-06 1.1992e-15)
(-5.23481e-07 -1.03216e-06 5.01632e-16)
(-4.68141e-07 -9.42864e-07 -1.66788e-16)
(-4.07751e-07 -8.83391e-07 -1.35728e-15)
(-3.5143e-07 -8.48763e-07 -3.62276e-16)
(-2.99848e-07 -8.14685e-07 5.21649e-16)
(-2.53379e-07 -7.73786e-07 -8.03844e-16)
(-1.90188e-07 -7.29844e-07 1.34946e-16)
(-8.12104e-08 -7.14845e-07 2.69294e-16)
(-5.2553e-06 -1.13961e-06 -9.97546e-16)
(-4.7323e-06 -1.2803e-06 -1.9675e-16)
(-4.12004e-06 -1.43763e-06 1.45617e-16)
(-3.63329e-06 -1.58523e-06 1.44014e-15)
(-3.06671e-06 -1.64847e-06 -1.28854e-16)
(-2.62368e-06 -1.68063e-06 -8.38429e-16)
(-2.21246e-06 -1.7391e-06 1.59342e-15)
(-1.86302e-06 -1.67268e-06 5.30172e-16)
(-1.55808e-06 -1.63144e-06 1.0627e-16)
(-1.31695e-06 -1.54749e-06 3.03773e-16)
(-1.12028e-06 -1.43093e-06 -4.85128e-16)
(-1.00092e-06 -1.36174e-06 -6.72392e-17)
(-8.7254e-07 -1.29107e-06 -1.90684e-15)
(-7.53305e-07 -1.20333e-06 -2.87808e-16)
(-6.51599e-07 -1.09609e-06 2.2156e-16)
(-5.70881e-07 -9.91425e-07 -4.57895e-16)
(-5.0321e-07 -9.04672e-07 6.36167e-17)
(-4.32988e-07 -8.49676e-07 -4.45166e-16)
(-3.67959e-07 -8.28286e-07 -1.88451e-16)
(-3.05241e-07 -7.99658e-07 2.82905e-17)
(-2.46008e-07 -7.63455e-07 -1.03145e-15)
(-1.77494e-07 -7.13983e-07 -1.56648e-16)
(-7.54401e-08 -6.94542e-07 -1.50211e-15)
(-8.05722e-06 1.67112e-06 1.20356e-16)
(-7.65702e-06 1.22081e-06 -2.11501e-16)
(-7.2276e-06 8.16241e-07 5.66091e-17)
(-6.77766e-06 4.57077e-07 -1.62213e-16)
(-6.29798e-06 1.63264e-07 -6.50181e-16)
(-5.83647e-06 -1.26945e-07 2.20243e-16)
(-5.33669e-06 -3.25202e-07 1.53074e-16)
(-4.86343e-06 -5.22136e-07 -1.10359e-15)
(-4.37662e-06 -6.94311e-07 -2.67556e-16)
(-3.9322e-06 -8.87398e-07 -3.24899e-16)
(-3.46163e-06 -1.06885e-06 -4.48915e-16)
(-3.01486e-06 -1.17086e-06 -4.23372e-17)
(-2.63445e-06 -1.29742e-06 1.17022e-15)
(-2.23921e-06 -1.34409e-06 6.60825e-16)
(-1.89445e-06 -1.40785e-06 -2.06308e-16)
(-1.61743e-06 -1.38961e-06 2.76158e-16)
(-1.3536e-06 -1.33848e-06 2.98693e-17)
(-1.18405e-06 -1.27734e-06 -8.30246e-17)
(-1.04718e-06 -1.22882e-06 -3.35758e-17)
(-9.22972e-07 -1.17974e-06 1.08005e-15)
(-7.99127e-07 -1.10938e-06 1.17889e-15)
(-6.95806e-07 -1.01954e-06 4.41822e-17)
(-6.08941e-07 -9.27755e-07 4.83603e-16)
(-5.30637e-07 -8.61459e-07 -7.66137e-17)
(-4.56423e-07 -8.13979e-07 9.60644e-16)
(-3.83636e-07 -7.94002e-07 6.34023e-16)
(-3.12681e-07 -7.73982e-07 1.15781e-16)
(-2.417e-07 -7.45138e-07 2.16752e-16)
(-1.68081e-07 -6.9156e-07 1.02911e-15)
(-7.09186e-08 -6.72092e-07 4.72831e-16)
(-7.54546e-06 5.19665e-06 -1.74789e-17)
(-7.58947e-06 5.23083e-06 -1.89143e-18)
(-7.62314e-06 5.1182e-06 -2.1488e-18)
(-7.6617e-06 4.97976e-06 1.58789e-17)
(-7.67767e-06 4.78648e-06 2.53778e-17)
(-7.6825e-06 4.57459e-06 1.17419e-16)
(-7.6642e-06 4.27501e-06 2.50265e-17)
(-7.61831e-06 3.95954e-06 4.8141e-17)
(-7.53983e-06 3.59475e-06 5.10531e-18)
(-7.41601e-06 3.2308e-06 -2.01789e-16)
(-7.25882e-06 2.84491e-06 -7.92345e-17)
(-7.05128e-06 2.43847e-06 -2.45047e-16)
(-6.80649e-06 2.0256e-06 -2.00355e-16)
(-6.5156e-06 1.6434e-06 -3.52479e-16)
(-6.20132e-06 1.27361e-06 1.5283e-16)
(-5.85748e-06 9.66294e-07 -3.58786e-16)
(-5.49802e-06 6.55731e-07 -4.20526e-17)
(-5.13826e-06 4.06564e-07 4.86931e-16)
(-4.74149e-06 1.77814e-07 -1.47098e-16)
(-4.39597e-06 -3.19002e-08 6.30323e-16)
(-3.99888e-06 -2.48153e-07 -9.12697e-17)
(-3.67101e-06 -4.26324e-07 -2.34198e-17)
(-3.26516e-06 -6.12557e-07 1.39105e-16)
(-2.93556e-06 -7.77016e-07 8.24741e-17)
(-2.57191e-06 -8.95129e-07 -4.60881e-16)
(-2.23774e-06 -1.01585e-06 -7.79455e-16)
(-1.93163e-06 -1.08306e-06 1.73665e-16)
(-1.64184e-06 -1.14208e-06 -5.1528e-16)
(-1.40763e-06 -1.14572e-06 -1.48755e-16)
(-1.22721e-06 -1.11267e-06 3.54864e-17)
(-1.08669e-06 -1.0921e-06 3.79409e-17)
(-9.52067e-07 -1.05399e-06 8.91e-16)
(-8.28695e-07 -1.00405e-06 -3.64313e-16)
(-7.23654e-07 -9.41847e-07 5.19825e-16)
(-6.34456e-07 -8.69862e-07 -6.75746e-16)
(-5.50804e-07 -8.05982e-07 2.24061e-16)
(-4.73021e-07 -7.65266e-07 -6.80915e-16)
(-3.96464e-07 -7.57303e-07 1.04838e-15)
(-3.18009e-07 -7.41592e-07 9.38475e-16)
(-2.38949e-07 -7.18216e-07 -1.81501e-17)
(-1.61115e-07 -6.66164e-07 -1.36182e-16)
(-6.75013e-08 -6.46914e-07 8.3901e-17)
(2.94463e-05 -1.33139e-05 -1.75113e-17)
(8.79935e-06 -9.02745e-06 1.36806e-17)
(2.58662e-05 -3.90896e-06 -3.83339e-17)
(1.71079e-05 -4.50864e-06 -5.96987e-18)
(2.1423e-05 1.52636e-06 2.98045e-17)
(1.81543e-05 1.50506e-06 -1.79606e-17)
(1.50432e-05 1.41318e-06 -4.17206e-17)
(1.95477e-05 1.17048e-06 1.16902e-17)
(2.46854e-05 4.83725e-07 1.53999e-17)
(3.05993e-05 -4.72382e-07 -4.60343e-17)
(3.35905e-05 -1.96435e-06 -3.3848e-17)
(3.27526e-05 -3.223e-06 -6.71947e-18)
(2.71811e-05 -4.32642e-06 -1.59015e-17)
(1.78963e-05 -5.16519e-06 4.95165e-17)
(6.32691e-06 -5.79489e-06 5.15882e-17)
(-5.22472e-06 -6.1354e-06 -8.08654e-17)
(-1.43232e-05 -5.92906e-06 -1.41932e-16)
(-1.92425e-05 -5.23961e-06 -2.56433e-17)
(-1.99901e-05 -4.43381e-06 3.23784e-17)
(-1.03079e-05 9.5918e-07 -2.36324e-17)
(9.26487e-05 3.19134e-05 2.10165e-17)
(-0.000119137 -1.79395e-05 -4.92941e-17)
(-0.00015897 -6.39087e-05 1.20928e-16)
(0.000169787 7.81941e-06 -9.94905e-17)
(1.31304e-05 3.05193e-07 -1.44327e-16)
(-2.04044e-05 -1.12783e-06 -1.32838e-17)
(-7.44495e-06 3.93315e-06 -1.71572e-18)
(-8.96069e-06 4.96211e-06 -8.08808e-17)
(-8.8276e-06 5.83413e-06 -8.39518e-18)
(-8.11414e-06 6.1689e-06 -3.1349e-17)
(-7.83612e-06 6.14734e-06 1.789e-17)
(-7.60789e-06 5.93207e-06 1.37521e-16)
(-7.47067e-06 5.75331e-06 1.38781e-17)
(-7.2584e-06 5.60744e-06 6.30525e-17)
(-7.1384e-06 5.55637e-06 -3.02517e-17)
(-6.95599e-06 5.5591e-06 1.26864e-17)
(-6.8976e-06 5.39771e-06 2.63369e-17)
(-6.72912e-06 5.25977e-06 1.45749e-17)
(-6.65959e-06 5.24723e-06 -1.31354e-18)
(-6.54537e-06 5.05102e-06 2.00708e-21)
(-6.49746e-06 4.87574e-06 4.24933e-17)
(-6.39933e-06 4.64737e-06 2.75485e-17)
(-6.3602e-06 4.40924e-06 6.34618e-17)
(-6.27302e-06 4.12182e-06 2.43363e-17)
(-6.21787e-06 3.83691e-06 6.31874e-17)
(-6.11398e-06 3.53069e-06 -9.21217e-17)
(-6.02245e-06 3.22634e-06 -3.25708e-16)
(-5.88819e-06 2.90048e-06 2.58547e-16)
(-5.75387e-06 2.57597e-06 -3.07467e-17)
(-5.57047e-06 2.2267e-06 1.10971e-16)
(-5.37602e-06 1.89927e-06 1.04509e-16)
(-5.15216e-06 1.57804e-06 5.71884e-17)
(-4.90921e-06 1.28106e-06 1.22998e-16)
(-4.66866e-06 1.00655e-06 3.44953e-17)
(-4.39304e-06 7.51193e-07 -1.65817e-16)
(-4.14806e-06 5.31505e-07 -9.43848e-17)
(-3.86845e-06 3.1641e-07 2.33104e-16)
(-3.61363e-06 1.27211e-07 2.15769e-17)
(-3.32208e-06 -8.02838e-08 2.08542e-16)
(-3.06389e-06 -2.57841e-07 -5.03733e-17)
(-2.76447e-06 -4.2426e-07 -2.16203e-16)
(-2.48455e-06 -5.6574e-07 -6.2364e-16)
(-2.20646e-06 -6.85729e-07 -5.69417e-16)
(-1.93782e-06 -8.15602e-07 4.37382e-16)
(-1.69009e-06 -8.85331e-07 -3.18382e-16)
(-1.4436e-06 -9.27418e-07 1.54524e-16)
(-1.26512e-06 -9.32312e-07 -2.87175e-16)
(-1.11558e-06 -9.32675e-07 -2.06866e-16)
(-9.7929e-07 -9.23206e-07 -5.60377e-16)
(-8.56127e-07 -9.00152e-07 -5.06362e-16)
(-7.4358e-07 -8.55643e-07 -9.13006e-16)
(-6.47714e-07 -7.95906e-07 4.07658e-16)
(-5.61755e-07 -7.51904e-07 -2.69263e-16)
(-4.80648e-07 -7.20469e-07 7.43556e-16)
(-4.02052e-07 -7.1102e-07 2.62321e-16)
(-3.2003e-07 -7.02259e-07 -5.6114e-17)
(-2.3688e-07 -6.86212e-07 1.63642e-16)
(-1.5564e-07 -6.35007e-07 -2.78203e-16)
(-6.54408e-08 -6.19694e-07 -1.26746e-16)
(8.05485e-06 -5.13531e-06 1.54709e-17)
(3.64249e-06 -1.11778e-06 -1.68926e-17)
(1.99336e-06 2.70222e-06 -3.54635e-17)
(1.03961e-06 3.92828e-06 3.16295e-18)
(7.89569e-07 6.29307e-06 1.7777e-17)
(1.40013e-06 6.77153e-06 -6.07637e-18)
(2.00763e-06 6.78822e-06 -4.20717e-18)
(2.28144e-06 6.61208e-06 -8.26932e-18)
(9.07704e-06 7.22463e-06 -3.43187e-18)
(1.78735e-05 7.48308e-06 -1.66269e-17)
(2.18421e-05 6.30184e-06 -2.33102e-17)
(3.12285e-05 6.80675e-06 1.39822e-17)
(3.30829e-05 5.86452e-06 -8.29162e-18)
(3.13931e-05 5.47111e-06 -4.66523e-18)
(2.37758e-05 4.65488e-06 1.1708e-17)
(1.18997e-05 3.61483e-06 -4.29145e-17)
(-2.37554e-06 2.41215e-06 2.0843e-17)
(-1.57801e-05 1.37064e-06 3.46109e-17)
(-2.36483e-05 1.53891e-06 -4.05521e-17)
(-2.99645e-05 4.63881e-06 -4.16972e-17)
(-8.00833e-05 -2.92541e-06 -4.4243e-17)
(-0.000271939 -6.12726e-05 6.12843e-18)
(8.78901e-05 -6.004e-07 3.62087e-17)
(0.00015356 3.69542e-05 -5.43695e-17)
(1.63574e-05 1.11414e-05 1.90515e-17)
(-9.53388e-06 5.87149e-06 -1.87379e-17)
(-2.35725e-06 6.33401e-06 2.28575e-18)
(-5.95861e-06 6.71298e-06 -3.8978e-17)
(-7.25476e-06 7.02387e-06 1.4002e-17)
(-6.8377e-06 7.21006e-06 -1.95518e-17)
(-6.44987e-06 7.10597e-06 5.31481e-17)
(-6.15199e-06 6.81204e-06 2.50436e-17)
(-5.98611e-06 6.42194e-06 -1.93733e-17)
(-5.84304e-06 6.08476e-06 -2.47822e-17)
(-5.72613e-06 5.82894e-06 -2.88766e-17)
(-5.58131e-06 5.63554e-06 1.78026e-17)
(-5.47732e-06 5.50311e-06 1.95999e-17)
(-5.31554e-06 5.36468e-06 7.7002e-19)
(-5.22978e-06 5.13093e-06 -1.74206e-17)
(-5.12036e-06 4.93929e-06 1.97771e-18)
(-5.04725e-06 4.70395e-06 -2.24249e-17)
(-4.95895e-06 4.47717e-06 -1.62045e-17)
(-4.90016e-06 4.21316e-06 -1.03032e-17)
(-4.82396e-06 3.96505e-06 -6.21851e-18)
(-4.76682e-06 3.68887e-06 -2.56688e-17)
(-4.69156e-06 3.42213e-06 -1.32878e-17)
(-4.62788e-06 3.13142e-06 1.08756e-16)
(-4.54525e-06 2.85119e-06 1.79285e-16)
(-4.46459e-06 2.55431e-06 1.10006e-16)
(-4.36327e-06 2.27564e-06 5.36179e-17)
(-4.25254e-06 1.98516e-06 -3.65399e-18)
(-4.12315e-06 1.71076e-06 4.34559e-17)
(-3.98114e-06 1.44063e-06 -6.80821e-18)
(-3.82853e-06 1.18872e-06 1.1227e-17)
(-3.66591e-06 9.53061e-07 8.73593e-17)
(-3.49578e-06 7.3766e-07 2.7708e-16)
(-3.32204e-06 5.4676e-07 -4.87216e-16)
(-3.13729e-06 3.48585e-07 7.24702e-17)
(-2.95577e-06 1.7177e-07 -1.72199e-16)
(-2.74339e-06 -3.05674e-09 5.16968e-16)
(-2.54096e-06 -1.5194e-07 -4.47827e-19)
(-2.31859e-06 -3.02393e-07 4.14197e-16)
(-2.11318e-06 -4.44084e-07 6.97257e-16)
(-1.89122e-06 -5.53634e-07 -3.77793e-16)
(-1.6657e-06 -6.5037e-07 3.91955e-16)
(-1.45405e-06 -7.11908e-07 -2.33566e-16)
(-1.28409e-06 -7.46136e-07 -3.25896e-16)
(-1.13837e-06 -7.72167e-07 -1.76884e-16)
(-1.00517e-06 -7.81172e-07 1.11419e-16)
(-8.73902e-07 -7.78664e-07 8.70927e-16)
(-7.59414e-07 -7.59746e-07 9.3301e-16)
(-6.54809e-07 -7.27281e-07 -4.54331e-17)
(-5.58192e-07 -6.89349e-07 -3.11342e-16)
(-4.76623e-07 -6.65356e-07 -5.77933e-17)
(-3.99584e-07 -6.68142e-07 -1.41473e-15)
(-3.17872e-07 -6.61128e-07 1.53363e-17)
(-2.33869e-07 -6.48969e-07 -5.91431e-16)
(-1.51334e-07 -6.02483e-07 -1.24624e-16)
(-6.3914e-08 -5.90066e-07 1.81079e-16)
(-9.39862e-06 5.09093e-06 -8.97752e-18)
(-1.32052e-05 7.20186e-06 -8.12154e-18)
(-1.14766e-05 7.68082e-06 7.41555e-18)
(-1.04733e-05 8.16936e-06 -8.0755e-19)
(-9.65708e-06 9.84414e-06 -1.58421e-17)
(-8.03328e-06 1.07218e-05 1.07036e-17)
(-7.71866e-06 1.07663e-05 6.22121e-18)
(-9.26111e-06 1.05791e-05 -1.51458e-17)
(-1.14832e-05 1.19626e-05 5.96312e-18)
(2.87549e-05 1.52768e-06 -9.28714e-18)
(-1.80691e-05 6.02438e-06 9.16695e-18)
(2.35896e-05 1.22419e-05 -9.33218e-18)
(1.3991e-05 8.7922e-06 -2.78508e-17)
(2.90269e-05 1.14466e-05 3.89459e-18)
(2.89287e-05 1.12402e-05 1.1095e-17)
(2.55438e-05 1.10711e-05 -1.17605e-18)
(1.63252e-05 1.01055e-05 2.2333e-17)
(3.22085e-06 8.66897e-06 -5.00818e-17)
(-1.22361e-05 6.95076e-06 -2.77264e-17)
(-3.16334e-05 3.8213e-06 1.99449e-18)
(-4.04175e-05 -1.63337e-06 -1.53226e-18)
(7.04248e-05 1.61009e-05 2.21721e-17)
(-4.7857e-05 1.65237e-05 -7.51384e-17)
(-7.40202e-05 -2.1956e-06 1.3497e-16)
(-1.14509e-05 8.2264e-06 1.85147e-17)
(-9.41525e-06 6.6177e-06 1.35539e-17)
(-3.49466e-06 6.16264e-06 2.36728e-17)
(-2.21881e-06 6.55395e-06 4.78781e-17)
(-3.97953e-06 6.58613e-06 1.16048e-17)
(-4.61279e-06 6.69898e-06 2.33201e-17)
(-4.6048e-06 6.68324e-06 -1.57461e-17)
(-4.38229e-06 6.50249e-06 -5.03662e-17)
(-4.13893e-06 6.21381e-06 2.22761e-18)
(-4.0087e-06 5.92468e-06 1.27153e-17)
(-3.9177e-06 5.67307e-06 3.99001e-17)
(-3.86919e-06 5.47926e-06 -2.15388e-17)
(-3.78735e-06 5.29342e-06 2.14149e-18)
(-3.73694e-06 5.12294e-06 -2.09719e-17)
(-3.65496e-06 4.92521e-06 1.08621e-17)
(-3.59866e-06 4.71032e-06 -2.59172e-19)
(-3.53392e-06 4.4656e-06 -9.49184e-18)
(-3.49377e-06 4.22048e-06 -6.48539e-18)
(-3.44711e-06 3.95647e-06 3.95742e-19)
(-3.4197e-06 3.69974e-06 -8.84224e-18)
(-3.38738e-06 3.43215e-06 -5.07739e-18)
(-3.3687e-06 3.17814e-06 5.07519e-17)
(-3.34422e-06 2.91577e-06 2.68486e-17)
(-3.32492e-06 2.66465e-06 -6.16878e-17)
(-3.29781e-06 2.40926e-06 3.28601e-17)
(-3.26765e-06 2.16027e-06 1.40189e-17)
(-3.22737e-06 1.91255e-06 6.48506e-17)
(-3.17562e-06 1.67801e-06 -1.51639e-16)
(-3.11425e-06 1.44725e-06 9.97206e-18)
(-3.03784e-06 1.22596e-06 1.50198e-17)
(-2.95217e-06 1.01964e-06 7.30376e-17)
(-2.85383e-06 8.25718e-07 -8.39717e-17)
(-2.74943e-06 6.44484e-07 1.70395e-16)
(-2.63825e-06 4.74163e-07 6.88797e-17)
(-2.50983e-06 3.12564e-07 -1.00128e-16)
(-2.38013e-06 1.64035e-07 1.41105e-16)
(-2.2305e-06 1.24594e-08 3.42871e-17)
(-2.09008e-06 -1.23229e-07 5.54297e-16)
(-1.92251e-06 -2.48334e-07 -1.1721e-18)
(-1.75796e-06 -3.63102e-07 -3.2496e-16)
(-1.58108e-06 -4.53128e-07 5.01646e-16)
(-1.40744e-06 -5.32185e-07 3.67911e-18)
(-1.26261e-06 -5.75027e-07 -2.66857e-16)
(-1.13016e-06 -6.11226e-07 1.79632e-16)
(-1.00432e-06 -6.38083e-07 -5.4868e-17)
(-8.80236e-07 -6.59101e-07 3.90342e-16)
(-7.58473e-07 -6.59921e-07 2.13984e-17)
(-6.42534e-07 -6.35825e-07 -3.20058e-17)
(-5.46283e-07 -6.25696e-07 2.90362e-16)
(-4.62449e-07 -6.20198e-07 -1.81359e-18)
(-3.87673e-07 -6.20551e-07 -6.68018e-17)
(-3.10558e-07 -6.17754e-07 -1.09651e-16)
(-2.27875e-07 -6.10828e-07 -3.59853e-16)
(-1.46455e-07 -5.66076e-07 2.32559e-16)
(-6.20518e-08 -5.59308e-07 -3.41117e-16)
(-2.34265e-05 1.49017e-05 8.71043e-18)
(-2.38383e-05 1.53433e-05 4.41153e-18)
(-1.78471e-05 1.28856e-05 -1.27148e-17)
(-1.63811e-05 1.27247e-05 -1.3006e-17)
(-1.5242e-05 1.36233e-05 1.70482e-17)
(-1.38391e-05 1.40635e-05 -1.03029e-17)
(-1.37642e-05 1.38862e-05 6.75792e-18)
(-3.0929e-05 1.31206e-05 2.27005e-17)
(-0.00024454 1.18306e-05 -5.35331e-18)
(0.000175779 1.40173e-05 4.01525e-18)
(-1.113e-05 -4.33056e-06 -2.04336e-18)
(7.7525e-05 2.75986e-05 3.06872e-18)
(-4.32853e-05 4.83299e-06 1.72367e-17)
(3.49856e-05 1.58059e-05 -6.90663e-18)
(1.83696e-05 1.31963e-05 -4.6723e-17)
(2.5427e-05 1.4023e-05 -1.85653e-17)
(2.31081e-05 1.37553e-05 -1.98422e-17)
(1.76546e-05 1.30829e-05 1.89736e-18)
(8.27655e-06 1.17692e-05 1.64513e-17)
(-2.26296e-06 1.00483e-05 -7.02442e-18)
(-9.26409e-06 9.7608e-06 2.5444e-17)
(-3.84231e-05 5.83263e-06 -4.14442e-17)
(-5.06056e-05 -6.16e-06 7.03397e-17)
(-1.37318e-05 4.34558e-06 -6.2032e-17)
(6.60513e-06 9.37332e-06 -6.61801e-17)
(-7.62156e-06 6.80209e-06 -2.12787e-17)
(-5.58759e-06 5.99869e-06 -7.68612e-18)
(1.32778e-07 6.66062e-06 -6.1072e-18)
(-1.10192e-07 6.79903e-06 3.54612e-18)
(-1.31056e-06 6.77955e-06 -1.50714e-17)
(-2.15988e-06 6.62892e-06 -3.93143e-18)
(-2.53102e-06 6.36444e-06 3.74135e-17)
(-2.54186e-06 6.03332e-06 2.17179e-17)
(-2.41771e-06 5.69816e-06 5.6603e-18)
(-2.31125e-06 5.39211e-06 -7.0431e-17)
(-2.25838e-06 5.14168e-06 2.32037e-18)
(-2.24338e-06 4.93201e-06 -1.25419e-19)
(-2.23616e-06 4.73976e-06 2.11125e-18)
(-2.22984e-06 4.52873e-06 1.07958e-17)
(-2.22264e-06 4.30411e-06 2.22344e-18)
(-2.21864e-06 4.05684e-06 -7.26848e-18)
(-2.21955e-06 3.81417e-06 -6.6452e-18)
(-2.22739e-06 3.56109e-06 -1.5804e-17)
(-2.2401e-06 3.32228e-06 -3.74423e-18)
(-2.25965e-06 3.07566e-06 -2.92483e-18)
(-2.28181e-06 2.83995e-06 -1.62859e-17)
(-2.30782e-06 2.60128e-06 8.55925e-18)
(-2.33257e-06 2.37585e-06 -1.95195e-17)
(-2.35674e-06 2.14975e-06 -1.19923e-16)
(-2.3745e-06 1.94209e-06 8.39484e-17)
(-2.38585e-06 1.73643e-06 3.13534e-17)
(-2.3866e-06 1.53972e-06 -1.21247e-18)
(-2.37709e-06 1.34884e-06 1.51417e-17)
(-2.35507e-06 1.16891e-06 2.37728e-17)
(-2.3212e-06 9.93682e-07 -3.1296e-16)
(-2.27618e-06 8.28023e-07 -7.29799e-19)
(-2.22074e-06 6.72291e-07 5.12711e-17)
(-2.1558e-06 5.22417e-07 -2.57884e-17)
(-2.08196e-06 3.8081e-07 1.442e-16)
(-1.99873e-06 2.44534e-07 -6.93645e-16)
(-1.91047e-06 1.1662e-07 2.00748e-16)
(-1.80439e-06 -8.86902e-09 1.20474e-16)
(-1.69722e-06 -1.2244e-07 -8.051e-16)
(-1.57353e-06 -2.22123e-07 3.44081e-16)
(-1.44337e-06 -3.09878e-07 -3.097e-16)
(-1.31073e-06 -3.86213e-07 8.08278e-17)
(-1.18945e-06 -4.35067e-07 -1.95266e-16)
(-1.08044e-06 -4.73678e-07 2.04201e-16)
(-9.70456e-07 -5.08972e-07 1.47457e-16)
(-8.53901e-07 -5.34329e-07 -2.18764e-16)
(-7.35592e-07 -5.45175e-07 -3.43028e-16)
(-6.26304e-07 -5.54698e-07 -2.10689e-17)
(-5.33207e-07 -5.55534e-07 -4.79765e-16)
(-4.46606e-07 -5.6006e-07 -8.80592e-17)
(-3.72743e-07 -5.78337e-07 1.05398e-15)
(-2.97581e-07 -5.76015e-07 -2.66497e-16)
(-2.17845e-07 -5.70144e-07 8.22853e-16)
(-1.3904e-07 -5.30834e-07 -6.15642e-16)
(-5.82828e-08 -5.27529e-07 2.54883e-16)
(-3.01483e-05 2.40203e-05 -7.32053e-18)
(-2.70106e-05 2.23992e-05 1.28217e-18)
(-1.83206e-05 1.69583e-05 -1.95515e-18)
(-1.65321e-05 1.5621e-05 -5.7961e-18)
(-1.52555e-05 1.5497e-05 -1.81558e-17)
(-1.4068e-05 1.54546e-05 8.15819e-18)
(-1.28402e-05 1.50861e-05 2.43822e-18)
(-1.13672e-05 1.42158e-05 -1.87068e-17)
(1.51837e-05 1.402e-05 3.65412e-18)
(-1.20408e-05 2.04733e-05 1.28885e-18)
(-1.33178e-05 1.20829e-05 2.86388e-18)
(-3.25363e-05 9.67073e-06 -1.32756e-18)
(9.10813e-07 8.34329e-06 -9.71547e-18)
(-1.31507e-05 8.61065e-06 -4.17635e-18)
(1.18322e-05 1.23567e-05 8.25369e-18)
(7.5347e-06 1.08216e-05 1.51338e-17)
(1.49902e-05 1.24874e-05 3.81651e-18)
(1.48078e-05 1.26099e-05 1.18448e-17)
(1.30416e-05 1.26797e-05 -2.2665e-17)
(7.78789e-06 1.22311e-05 6.807e-18)
(-1.63511e-06 1.09534e-05 1.30012e-17)
(-1.55708e-05 7.12389e-06 2.7392e-17)
(-2.30502e-05 5.07077e-06 -2.71622e-17)
(-1.47409e-05 7.17444e-06 -6.04789e-17)
(-6.04446e-06 8.79629e-06 4.27811e-17)
(-1.09438e-05 7.22993e-06 2.02244e-17)
(-1.00961e-05 5.91444e-06 1.94495e-18)
(-2.33842e-06 6.20128e-06 -2.8697e-18)
(1.03343e-06 6.53316e-06 4.90236e-18)
(1.46803e-06 6.61635e-06 1.61391e-17)
(9.41987e-07 6.5131e-06 -3.4245e-19)
(1.81756e-07 6.23656e-06 -2.45283e-17)
(-4.18834e-07 5.82824e-06 -3.44382e-17)
(-7.46208e-07 5.38649e-06 -2.31371e-17)
(-8.87148e-07 4.97386e-06 5.3194e-17)
(-9.18964e-07 4.64488e-06 1.6864e-17)
(-9.4174e-07 4.37877e-06 -8.39774e-18)
(-9.81078e-07 4.15579e-06 -1.29455e-18)
(-1.02955e-06 3.93292e-06 1.11951e-18)
(-1.08163e-06 3.71006e-06 -5.73252e-18)
(-1.12911e-06 3.47433e-06 -6.02656e-18)
(-1.17773e-06 3.24116e-06 3.91835e-18)
(-1.22647e-06 3.00468e-06 1.87036e-18)
(-1.27981e-06 2.77957e-06 1.90838e-18)
(-1.33406e-06 2.55712e-06 -9.19825e-18)
(-1.3894e-06 2.35429e-06 -6.20167e-18)
(-1.44317e-06 2.15304e-06 5.53032e-17)
(-1.49413e-06 1.97066e-06 -8.49161e-18)
(-1.54185e-06 1.79209e-06 7.27723e-18)
(-1.58402e-06 1.62619e-06 -7.25693e-17)
(-1.62066e-06 1.46398e-06 -4.06184e-18)
(-1.64836e-06 1.31588e-06 -2.32856e-17)
(-1.66925e-06 1.16845e-06 7.35946e-17)
(-1.68052e-06 1.02631e-06 3.7651e-18)
(-1.68379e-06 8.89877e-07 -2.01336e-16)
(-1.67718e-06 7.57293e-07 9.98118e-17)
(-1.662e-06 6.28353e-07 -1.07631e-17)
(-1.63876e-06 5.04201e-07 -1.4093e-16)
(-1.60614e-06 3.85506e-07 1.39824e-16)
(-1.56617e-06 2.7056e-07 1.96043e-16)
(-1.51625e-06 1.60376e-07 2.22766e-16)
(-1.45806e-06 5.44374e-08 -6.48492e-17)
(-1.38883e-06 -4.25039e-08 2.0168e-16)
(-1.30924e-06 -1.28283e-07 -3.05792e-16)
(-1.22156e-06 -2.04987e-07 3.08933e-17)
(-1.12574e-06 -2.7716e-07 -1.28284e-16)
(-1.03892e-06 -3.21614e-07 4.28135e-16)
(-9.52251e-07 -3.57433e-07 1.15585e-17)
(-8.69186e-07 -3.86955e-07 1.74915e-18)
(-7.78557e-07 -4.2017e-07 -3.62045e-16)
(-6.81189e-07 -4.44669e-07 1.26629e-16)
(-5.9268e-07 -4.55069e-07 8.95253e-17)
(-5.01783e-07 -4.79665e-07 5.12753e-16)
(-4.3048e-07 -5.0028e-07 1.15847e-16)
(-3.50365e-07 -5.22464e-07 -1.08904e-15)
(-2.75378e-07 -5.28027e-07 -2.84451e-16)
(-2.00363e-07 -5.28477e-07 -1.41964e-16)
(-1.26051e-07 -4.92235e-07 1.93983e-16)
(-5.18167e-08 -4.97099e-07 3.55135e-16)
(-2.45905e-05 2.36751e-05 -4.31917e-18)
(-1.95435e-05 2.21413e-05 -3.26214e-18)
(-1.08427e-05 1.6414e-05 9.26438e-18)
(-9.59372e-06 1.47109e-05 2.7699e-18)
(-8.55477e-06 1.38287e-05 -5.17844e-18)
(-7.74363e-06 1.33176e-05 -1.67398e-17)
(-7.15123e-06 1.29603e-05 -7.59538e-18)
(-7.07411e-06 1.23703e-05 1.33025e-17)
(-8.74078e-06 1.15695e-05 -8.53161e-18)
(-2.25576e-06 9.95606e-06 -1.11049e-17)
(-9.27092e-06 8.91862e-06 4.24126e-18)
(-0.000105052 8.36494e-06 8.99525e-20)
(7.40758e-05 7.90022e-06 8.42732e-18)
(-1.54793e-05 1.74394e-07 -4.33743e-18)
(3.61097e-05 1.50381e-05 -1.51768e-18)
(-2.74399e-05 3.48489e-06 1.99294e-17)
(1.52775e-05 9.91195e-06 3.48949e-17)
(2.31288e-06 8.16746e-06 -1.08187e-17)
(5.95622e-06 9.07686e-06 3.7796e-18)
(4.31061e-06 9.04377e-06 1.15128e-17)
(2.71591e-06 8.76381e-06 2.06499e-18)
(4.15785e-07 8.11178e-06 3.76957e-18)
(-3.17852e-06 7.52941e-06 5.94172e-18)
(-6.33724e-06 7.28449e-06 5.68121e-17)
(-6.97101e-06 7.02187e-06 2.01909e-17)
(-8.40827e-06 5.80546e-06 -4.37307e-19)
(-8.54161e-06 4.65669e-06 9.06412e-18)
(-4.97794e-06 4.23437e-06 1.20125e-18)
(-1.47539e-06 4.22682e-06 1.41976e-17)
(3.75646e-07 4.3136e-06 -1.93278e-18)
(1.10859e-06 4.3692e-06 -2.46188e-17)
(1.2395e-06 4.31974e-06 -2.72985e-17)
(1.04798e-06 4.12535e-06 1.81659e-17)
(8.62372e-07 3.89545e-06 8.53152e-18)
(3.16545e-07 3.59994e-06 -2.9168e-18)
(1.02733e-07 3.33929e-06 -3.0121e-18)
(-1.02997e-07 3.09896e-06 8.39918e-18)
(-2.13538e-07 2.92266e-06 8.84019e-18)
(-3.09383e-07 2.77977e-06 -8.44868e-18)
(-3.94704e-07 2.64777e-06 8.77145e-18)
(-4.72745e-07 2.49828e-06 1.29287e-17)
(-5.45625e-07 2.34112e-06 6.6134e-18)
(-6.12438e-07 2.18102e-06 -4.98334e-18)
(-6.73355e-07 2.03559e-06 -1.87433e-18)
(-7.29459e-07 1.89599e-06 -6.03617e-18)
(-7.81261e-07 1.76568e-06 1.63815e-17)
(-8.30132e-07 1.63513e-06 3.21878e-17)
(-8.7411e-07 1.50971e-06 -1.61325e-17)
(-9.16235e-07 1.38537e-06 1.66006e-17)
(-9.53177e-07 1.27274e-06 2.05188e-17)
(-9.8866e-07 1.15853e-06 2.91259e-17)
(-1.01865e-06 1.04572e-06 3.75307e-17)
(-1.04714e-06 9.33214e-07 -1.41501e-18)
(-1.0689e-06 8.25502e-07 2.11173e-17)
(-1.08748e-06 7.19077e-07 8.46176e-17)
(-1.09915e-06 6.16848e-07 -2.88201e-17)
(-1.10541e-06 5.16117e-07 -9.7392e-18)
(-1.10507e-06 4.17126e-07 1.52068e-16)
(-1.09817e-06 3.21405e-07 5.02324e-19)
(-1.08592e-06 2.2849e-07 1.22913e-16)
(-1.06517e-06 1.39372e-07 -3.3804e-16)
(-1.03926e-06 5.34122e-08 -1.05917e-16)
(-1.00303e-06 -2.49012e-08 -2.16655e-17)
(-9.61388e-07 -9.46861e-08 -2.08682e-16)
(-9.1098e-07 -1.57651e-07 9.67859e-17)
(-8.55975e-07 -2.16876e-07 6.35232e-17)
(-8.05905e-07 -2.59228e-07 -5.86202e-18)
(-7.4953e-07 -2.88686e-07 -1.60231e-16)
(-7.03127e-07 -3.22078e-07 -8.82206e-17)
(-6.41726e-07 -3.43733e-07 8.91906e-17)
(-5.78824e-07 -3.65791e-07 -5.30522e-17)
(-5.12177e-07 -3.91557e-07 -4.10586e-17)
(-4.50494e-07 -4.16302e-07 5.36244e-16)
(-3.81682e-07 -4.4113e-07 7.81872e-17)
(-3.14625e-07 -4.71279e-07 3.72235e-16)
(-2.46926e-07 -4.82967e-07 4.27185e-16)
(-1.80789e-07 -4.91258e-07 6.33054e-17)
(-1.15955e-07 -4.59707e-07 2.74044e-16)
(-4.91363e-08 -4.68589e-07 8.45759e-17)
(-8.04357e-06 2.16173e-05 -2.50626e-19)
(-2.8681e-06 1.99022e-05 -1.18084e-18)
(9.47331e-07 1.54718e-05 -1.29209e-18)
(1.08638e-06 1.32716e-05 -1.61018e-18)
(1.32649e-06 1.16164e-05 7.39525e-18)
(1.44478e-06 1.03987e-05 1.5058e-17)
(1.37778e-06 9.68592e-06 1.04077e-17)
(1.14798e-06 9.12713e-06 -4.59874e-18)
(1.04034e-06 8.53562e-06 5.16875e-18)
(1.39517e-06 7.91251e-06 1.59294e-17)
(5.16664e-07 6.83449e-06 -5.89828e-18)
(8.39864e-06 6.11907e-06 2.18752e-18)
(-1.63138e-06 7.7976e-06 6.86808e-18)
(-2.43354e-06 5.27584e-06 5.05418e-18)
(-5.63571e-06 3.62751e-06 6.25792e-19)
(-5.5574e-06 4.1376e-06 2.23278e-18)
(-2.28273e-06 4.12087e-06 -8.97073e-18)
(-2.2557e-06 4.07228e-06 9.39125e-18)
(-1.60634e-06 4.35103e-06 9.47046e-18)
(-2.29972e-06 4.59248e-06 -9.54496e-18)
(-2.39964e-06 4.90902e-06 -9.62216e-19)
(-2.3461e-06 5.12003e-06 3.41993e-18)
(-2.56168e-06 5.05909e-06 -9.63826e-18)
(-2.6497e-06 4.98296e-06 -3.93225e-17)
(-2.01214e-06 4.97239e-06 -3.34739e-17)
(-1.90196e-06 4.62939e-06 1.88591e-17)
(-2.34875e-06 4.02785e-06 -1.38614e-19)
(-1.75688e-06 3.51445e-06 3.4101e-18)
(-5.68723e-07 3.18397e-06 -2.71289e-17)
(2.03968e-07 2.97978e-06 -3.44525e-17)
(4.10708e-07 2.82569e-06 -1.58423e-18)
(2.31507e-07 2.53191e-06 4.50896e-17)
(3.57749e-07 1.89203e-06 -1.78491e-17)
(3.76643e-06 2.76897e-06 -1.29396e-17)
(1.90664e-07 2.68274e-06 -2.48602e-18)
(1.40718e-06 2.66767e-06 6.13595e-18)
(8.02461e-07 2.38029e-06 -7.88414e-18)
(6.25255e-07 2.26928e-06 -4.54653e-19)
(3.63836e-07 2.17153e-06 5.0193e-18)
(2.05623e-07 2.10911e-06 -2.2659e-19)
(7.6331e-08 2.04559e-06 6.24801e-18)
(-3.51644e-08 1.97647e-06 -3.39816e-19)
(-1.2984e-07 1.89034e-06 3.30747e-18)
(-2.13784e-07 1.79299e-06 -4.7716e-19)
(-2.9065e-07 1.68362e-06 6.10643e-18)
(-3.60806e-07 1.57301e-06 -2.25816e-19)
(-4.26389e-07 1.45834e-06 -1.81359e-17)
(-4.85903e-07 1.34961e-06 -1.18374e-17)
(-5.42503e-07 1.23557e-06 -4.06734e-18)
(-5.94304e-07 1.12144e-06 2.26832e-17)
(-6.45579e-07 1.00356e-06 5.44994e-17)
(-6.91462e-07 8.96448e-07 -2.83241e-18)
(-7.3578e-07 7.88587e-07 -3.15022e-17)
(-7.73632e-07 6.89623e-07 2.11614e-17)
(-8.09281e-07 5.91338e-07 4.56234e-17)
(-8.37888e-07 4.97261e-07 -5.9167e-17)
(-8.63573e-07 4.02561e-07 9.77827e-17)
(-8.82111e-07 3.12445e-07 5.16388e-17)
(-8.95715e-07 2.23663e-07 1.26359e-17)
(-9.0284e-07 1.38843e-07 1.82647e-16)
(-9.02774e-07 5.74012e-08 7.42557e-17)
(-8.96592e-07 -1.90854e-08 -1.63555e-16)
(-8.80031e-07 -8.78505e-08 1.63333e-16)
(-8.5858e-07 -1.48141e-07 1.1108e-16)
(-8.26724e-07 -2.01527e-07 -1.69011e-16)
(-7.92155e-07 -2.5306e-07 2.13728e-17)
(-7.45469e-07 -2.83678e-07 -6.06062e-17)
(-7.13291e-07 -3.17857e-07 -1.39927e-16)
(-6.78297e-07 -3.33617e-07 -6.27121e-17)
(-6.31588e-07 -3.53526e-07 3.12417e-17)
(-5.86104e-07 -3.72051e-07 8.91004e-17)
(-5.26505e-07 -3.85382e-07 -9.96235e-17)
(-4.69058e-07 -4.10629e-07 -4.09935e-16)
(-4.01657e-07 -4.32935e-07 -1.06299e-16)
(-3.35702e-07 -4.59379e-07 1.96594e-16)
(-2.62228e-07 -4.71189e-07 -2.16238e-16)
(-1.93242e-07 -4.77268e-07 -3.47902e-16)
(-1.26713e-07 -4.40224e-07 -2.05655e-16)
(-5.79029e-08 -4.39922e-07 -3.34943e-16)
(7.26147e-06 1.16377e-05 1.08097e-18)
(9.44469e-06 1.1096e-05 5.43615e-18)
(7.73339e-06 9.69518e-06 -6.39444e-19)
(6.98472e-06 8.26995e-06 -2.31904e-18)
(6.48952e-06 6.98776e-06 -4.47256e-18)
(6.02217e-06 5.82398e-06 -5.83455e-18)
(5.51698e-06 5.05812e-06 -5.50399e-18)
(4.95279e-06 4.58357e-06 -4.19311e-18)
(4.36439e-06 4.2857e-06 -2.30858e-18)
(3.98938e-06 3.97505e-06 8.95914e-19)
(3.24581e-06 3.58321e-06 1.00328e-17)
(1.2293e-06 3.17177e-06 5.95321e-19)
(4.06266e-06 2.52586e-06 -5.61024e-19)
(1.6895e-06 2.01614e-06 -8.50928e-18)
(1.78958e-06 2.09298e-06 4.50353e-19)
(2.04432e-07 1.72506e-06 -1.84382e-18)
(6.37242e-07 1.71421e-06 -1.32338e-17)
(-4.45038e-07 1.59367e-06 -3.80942e-18)
(-9.73687e-07 1.62028e-06 -6.20759e-19)
(-2.49384e-06 1.64807e-06 6.34983e-18)
(-4.14076e-06 1.79715e-06 5.09662e-18)
(-5.53119e-06 1.98186e-06 -5.21099e-18)
(-6.17247e-06 2.18252e-06 -9.70971e-18)