/*--------------------------------*- C++ -*----------------------------------*\
| =========                 |                                                 |
| \\      /  F ield         | OpenFOAM: The Open Source CFD Toolbox           |
|  \\    /   O peration     | Version:  2306                                  |
|   \\  /    A nd           | Website:  www.openfoam.com                      |
|    \\/     M anipulation  |                                                 |
\*---------------------------------------------------------------------------*/
FoamFile
{
    version     2.0;
    format      ascii;
    arch        "LSB;label=32;scalar=64";
    class       volScalarField;
    location    "825";
    object      turbulenceProperties:L;
}
// * * * * * * * * * * * * * * * * * * * * * * * * * * * * * * * * * * * * * //

dimensions      [0 1 0 0 0 0 0];

internalField   nonuniform List<scalar> 
1340
(
0.222829
0.255623
0.221222
0.259563
0.259699
0.221257
0.401815
0.261245
0.262508
0.220804
0.425065
0.313719
0.403708
0.262613
0.264975
0.220063
0.356302
0.328734
0.431603
0.316648
0.405695
0.263868
0.267023
0.219318
0.300019
0.320219
0.32022
0.363663
0.333416
0.438798
0.319589
0.407654
0.26496
0.268525
0.218628
0.279127
0.288149
0.300322
0.306783
0.327645
0.326349
0.371623
0.338354
0.446618
0.322471
0.409595
0.265857
0.269486
0.218004
0.24778
0.256676
0.266169
0.27623
0.28725
0.295994
0.308332
0.31413
0.33569
0.332945
0.380206
0.343547
0.455075
0.325313
0.411506
0.266602
0.270021
0.217353
0.220285
0.226924
0.233947
0.241366
0.249195
0.257457
0.26616
0.275463
0.285269
0.296163
0.304581
0.317092
0.322143
0.34444
0.340067
0.389497
0.349036
0.464227
0.328169
0.413348
0.267247
0.270214
0.216781
0.19568
0.199887
0.204395
0.209215
0.214355
0.219825
0.225631
0.231784
0.238291
0.245169
0.252431
0.260087
0.268163
0.276644
0.285725
0.295229
0.305963
0.313994
0.326684
0.33089
0.353968
0.347762
0.39955
0.354845
0.474096
0.331062
0.415128
0.267814
0.269963
0.21622
0.178532
0.180001
0.181611
0.183382
0.18533
0.187473
0.189824
0.192398
0.195207
0.19826
0.201572
0.205153
0.209011
0.213158
0.217599
0.222346
0.227404
0.23278
0.23848
0.24451
0.250878
0.257596
0.264682
0.272141
0.280004
0.288226
0.297047
0.306194
0.316721
0.324295
0.337166
0.340418
0.364319
0.356057
0.410407
0.360986
0.48467
0.333985
0.416885
0.268312
0.269478
0.215671
4.98041
2.51152
0
0
0.0911592
0.186178
0.706421
0.680124
0.706026
0.741821
0.788061
0.851948
0.950057
1.12593
1.54696
4.8342
1.6112
1.18103
1.01174
0.919868
0.854759
0.790864
0.710144
0.429649
0.353061
0
0
0
2.95536
0.416612
0.182123
0.173741
0.184186
0.189891
0.190418
0.190934
0.192235
0.193686
0.195137
0.196698
0.198422
0.200321
0.202411
0.204714
0.207243
0.210012
0.213029
0.216304
0.219847
0.223667
0.22777
0.232159
0.236847
0.241833
0.247121
0.252716
0.258618
0.264834
0.271376
0.27826
0.285491
0.293104
0.301021
0.309536
0.318257
0.328523
0.335554
0.348604
0.350779
0.375549
0.364988
0.422089
0.367487
0.495943
0.337
0.418558
0.268771
0.268727
0.215133
0.239624
2.05826
8.03358
0
0
1.89672
0.339808
1.00258
0.713728
0.728532
0.763156
0.808357
0.869337
0.959824
1.1141
1.44705
2.95514
1.95153
1.30717
1.08814
0.975696
0.901
0.835097
0.745751
0.498104
0.480435
0
0
0
5.86839
0.904145
0.208927
0.186816
0.197966
0.2071
0.208606
0.208904
0.210147
0.211681
0.213188
0.214813
0.216659
0.218721
0.220993
0.223492
0.226236
0.229234
0.232492
0.23602
0.239822
0.243902
0.24826
0.252904
0.257829
0.263037
0.268525
0.274293
0.280341
0.28668
0.293331
0.30029
0.307608
0.31516
0.32331
0.331522
0.341456
0.347844
0.361067
0.362025
0.3877
0.374571
0.434636
0.37436
0.507972
0.340076
0.420306
0.269217
0.267966
0.214565
0.238474
0.25585
1.03891
7.23021
0
0
0
0.183751
0.526757
0.76498
0.749905
0.782242
0.826683
0.885367
0.969551
1.10676
1.38
2.26572
2.53937
1.46338
1.17483
1.03682
0.950575
0.878783
0.786494
0.597558
0.703638
0
0
0
2.47081
9.0845
0.272234
0.207217
0.214085
0.22546
0.228074
0.228002
0.229214
0.231127
0.232938
0.234702
0.236666
0.238908
0.241407
0.244154
0.247158
0.250426
0.253966
0.257779
0.261862
0.266212
0.270829
0.275706
0.280839
0.286217
0.291837
0.297691
0.303794
0.310161
0.316789
0.323749
0.330853
0.338558
0.346163
0.355664
0.361289
0.37466
0.374252
0.400848
0.384892
0.448082
0.381616
0.520738
0.343372
0.422184
0.269542
0.267179
0.21397
0.268396
0.256788
0.267386
0.633502
4.9462
0
0
0
0.164948
0.41621
0.941045
0.776423
0.799693
0.843021
0.899918
0.979081
1.10289
1.334
1.95174
3.8972
1.65597
1.27016
1.10123
1.00174
0.923071
0.830735
0.684191
0.89173
0
0
0
0.00148627
2.2682
0.336254
0.231059
0.231702
0.246513
0.252018
0.250686
0.250284
0.251873
0.254103
0.256287
0.258517
0.260989
0.263764
0.266824
0.27015
0.273748
0.277612
0.281741
0.286118
0.29074
0.295592
0.300657
0.305924
0.311377
0.317009
0.322823
0.328841
0.335063
0.341576
0.348137
0.355289
0.362164
0.371131
0.375831
0.389343
0.387372
0.414988
0.395807
0.462553
0.389144
0.53528
0.346535
0.424829
0.269878
0.266272
0.213158
0.286831
0.287963
0.273327
0.284914
0.428041
3.29593
0.000890411
0
0
0
0.238767
0.842759
0.825407
0.819102
0.858998
0.914054
0.98854
1.09997
1.29471
1.74256
4.81141
1.95743
1.39251
1.17533
1.05507
0.964748
0.865408
0.703672
1.36351
0.145706
0
0
0
3.28806
0.505569
0.264378
0.245071
0.257175
0.272313
0.277192
0.276707
0.276954
0.278824
0.281372
0.284035
0.28684
0.289911
0.293291
0.296956
0.300873
0.305048
0.309449
0.314061
0.318866
0.323828
0.328934
0.33415
0.339482
0.344903
0.350453
0.356138
0.36205
0.367912
0.374367
0.380301
0.388583
0.392159
0.405701
0.402003
0.430471
0.407967
0.477755
0.397641
0.548867
0.350352
0.426787
0.270435
0.265457
0.212652
0.305753
0.310406
0.307368
0.303282
0.30932
0.35013
1.12364
7.14184
1.91551e-05
0
0
0.14262
0.494476
1.06172
0.851927
0.871624
0.920775
0.987966
1.08243
1.23127
1.5126
2.30953
3.52547
1.75409
1.36553
1.18529
1.07237
0.976191
0.892183
0.699091
0.718809
0.156964
0
0
0.570252
4.41722
0.806071
0.331375
0.286116
0.291158
0.30515
0.312022
0.312766
0.313333
0.315459
0.318439
0.321626
0.324989
0.328616
0.332514
0.336678
0.341032
0.345545
0.350178
0.354907
0.359685
0.364458
0.369235
0.373972
0.378731
0.383504
0.388432
0.39317
0.398502
0.403071
0.410134
0.412291
0.425359
0.4199
0.448194
0.423103
0.493123
0.409493
0.559878
0.358831
0.437184
0.276721
0.27235
0.22064
0.332349
0.335421
0.334527
0.336439
0.338021
0.331051
0.348252
0.436616
5.60532
1.2578
0
0
0
0.0936132
0.480492
1.11697
0.880502
0.907
0.964402
1.04221
1.15204
1.3279
1.67178
2.7756
3.09116
1.77376
1.41431
1.23556
1.11907
1.02009
0.926124
0.629498
0.496501
0
0
0
0.118596
4.76258
0.780892
0.371791
0.330133
0.338552
0.354183
0.360205
0.360607
0.361865
0.364875
0.368544
0.372315
0.376252
0.38042
0.384727
0.389127
0.393503
0.397818
0.401994
0.405955
0.409705
0.413171
0.416483
0.419609
0.422789
0.425607
0.429032
0.431454
0.436621
0.43662
0.448894
0.440853
0.469145
0.439808
0.51174
0.420627
0.572485
0.363644
0.436588
0.277302
0.269256
0.219724
0.364443
0.366945
0.364513
0.366335
0.370881
0.372439
0.367865
0.362897
0.400128
0.708966
5.24541
0.000193628
0
0
0
0.0889577
0.434134
1.17453
0.900288
0.936294
1.00458
1.09645
1.22803
1.44461
1.89437
3.81972
2.67043
1.7534
1.43843
1.2687
1.15033
1.04003
0.899874
1.9017
0.183438
0
0
0
0.131933
3.92724
0.626682
0.404927
0.387667
0.404388
0.418472
0.421351
0.422008
0.424832
0.429026
0.43345
0.437794
0.442115
0.446377
0.450338
0.45392
0.456995
0.459466
0.461326
0.462549
0.463331
0.463677
0.464
0.463834
0.464413
0.463795
0.46642
0.463559
0.474716
0.46343
0.491785
0.457167
0.531981
0.431331
0.58835
0.367534
0.438026
0.277065
0.267051
0.218934
0.404851
0.401089
0.402034
0.40566
0.409588
0.411853
0.410069
0.399933
0.407687
0.480849
1.98516
5.79148
0
0
0
0
0.0881439
0.441706
1.16144
0.917172
0.967413
1.05018
1.16152
1.32433
1.60216
2.24065
8.85198
2.37382
1.71988
1.44865
1.28781
1.15969
1.03498
0.820647
0.899617
0.864442
0
0
0
7.36187
1.78377
0.554496
0.46383
0.470004
0.491454
0.500515
0.501858
0.504379
0.508966
0.513799
0.518137
0.521898
0.524775
0.526663
0.527372
0.526813
0.525058
0.522218
0.518693
0.514564
0.510526
0.506063
0.502772
0.498281
0.4978
0.491632
0.501292
0.48649
0.514608
0.474527
0.551933
0.441577
0.603715
0.370792
0.440072
0.276477
0.265892
0.21822
0.450305
0.445027
0.44557
0.44841
0.451017
0.454159
0.457001
0.456839
0.450721
0.440655
0.465909
0.710951
5.00558
0.000195504
0
0
0
0
0.0887385
0.496764
1.09364
0.940644
1.00769
1.10848
1.24491
1.45039
1.82257
2.85221
4.3231
2.16363
1.68098
1.44511
1.28846
1.14883
0.999807
0.574894
0.259471
0
0
0
0.0410363
0.0133947
0.89526
0.602008
0.576355
0.599632
0.617547
0.621055
0.622553
0.626017
0.629414
0.631084
0.630408
0.627408
0.622033
0.614384
0.604987
0.594294
0.583153
0.571808
0.561217
0.55078
0.542432
0.533284
0.52921
0.519534
0.527246
0.508954
0.536261
0.491141
0.569889
0.451043
0.615911
0.373527
0.442188
0.275602
0.265727
0.217401
0.504611
0.498068
0.498177
0.500736
0.502916
0.505522
0.507328
0.510601
0.512863
0.510459
0.496314
0.496879
0.566507
2.11845
5.39182
4.10245e-07
0
0
0
0
0.0921496
0.596633
0.985752
0.969444
1.05961
1.1833
1.35296
1.61985
2.15537
4.43537
3.04796
2.00487
1.63611
1.42702
1.26746
1.12113
0.891146
0.806022
0.436405
0
0
3.22774e-07
6.41018
1.8366
0.84681
0.758598
0.778082
0.814481
0.827564
0.826788
0.822389
0.814014
0.799343
0.779003
0.755025
0.729221
0.70309
0.677658
0.653911
0.632007
0.612677
0.594937
0.580807
0.566787
0.559109
0.546282
0.551932
0.530484
0.556595
0.507066
0.586421
0.460016
0.626744
0.375926
0.444931
0.27467
0.266899
0.216376
0.549776
0.543494
0.542501
0.544987
0.547483
0.549382
0.550441
0.552792
0.555437
0.558942
0.558155
0.551562
0.535104
0.569278
0.746861
0.621933
0.0409486
0
0
0
0
0
0.100815
0.861974
0.94324
1.01126
1.12863
1.28083
1.49648
1.86033
2.73753
7.14743
2.51347
1.88012
1.58782
1.39767
1.2301
1.04696
3.25244
0.281189
0
0
0
0.890028
4.00412
2.0554
1.67252
1.50768
1.47811
1.43935
1.32424
1.19433
1.08308
0.990526
0.913075
0.848461
0.79465
0.749407
0.711401
0.678932
0.651657
0.627693
0.608812
0.591208
0.58075
0.566025
0.569529
0.546349
0.569932
0.518678
0.594895
0.466335
0.628736
0.377249
0.448296
0.273522
0.270656
0.214279
0.608223
0.599341
0.598538
0.601651
0.604509
0.605165
0.604725
0.608468
0.60932
0.610551
0.614038
0.616029
0.61009
0.598478
0.590742
0.668991
1.25074
6.36437
0.000588731
0
0
0
0
0
0.241109
1.19335
0.959012
1.0722
1.2192
1.40964
1.69512
2.2405
4.28216
3.45553
2.18979
1.76551
1.52656
1.34382
1.20007
1.24474
0.443218
0
0
0
0.00291448
5.18209
2.40734
1.13998
1.25599
1.45833
1.39382
1.22967
1.09438
0.996026
0.92066
0.858981
0.807529
0.76407
0.727519
0.696129
0.669489
0.645861
0.626954
0.609571
0.599296
0.585339
0.58882
0.565143
0.588442
0.534605
0.613834
0.476487
0.649142
0.380797
0.457246
0.273715
0.278
0.210956
0.585471
0.581348
0.581657
0.584772
0.587781
0.589845
0.591069
0.594354
0.59656
0.59916
0.603262
0.606919
0.609699
0.610714
0.607319
0.596462
0.618648
0.733328
1.78576
6.8868
0.000805706
0
0
0
0
0.274689
0.448249
1.08762
1.01874
1.15824
1.33375
1.57168
1.95906
2.85857
7.26825
2.67675
1.97367
1.63414
1.38677
1.08978
1.13712
0.553668
0.300113
0.224409
0.515983
0
0.0344009
0.036284
1.01821
0.741194
0.765441
0.813351
0.821197
0.800623
0.773904
0.747692
0.722421
0.698203
0.675639
0.654833
0.635988
0.618461
0.603687
0.590037
0.581781
0.570858
0.573033
0.55367
0.571525
0.526143
0.592011
0.471144
0.628918
0.377221
0.469458
0.271193
0.291822
0.200491
0.632798
0.630667
0.629768
0.628508
0.627682
0.626847
0.62525
0.623343
0.621754
0.620855
0.619994
0.618448
0.617067
0.615604
0.614346
0.608131
0.598146
0.591998
0.616365
0.711785
1.80519
6.98667
0
0
0
0
0
0.109649
0.551606
1.00584
1.0709
1.2336
1.43425
1.71217
2.18068
3.35646
6.43938
2.84226
2.17383
1.85345
1.65855
1.58478
1.75994
3.97884
0.811306
0.447664
0
3.74634e-06
5.86507
1.51619
0.762634
0.673288
0.671848
0.677989
0.67707
0.671835
0.665323
0.65838
0.65124
0.644083
0.637096
0.629882
0.623549
0.617039
0.615313
0.611429
0.620307
0.603217
0.629766
0.575677
0.672254
0.509641
0.768525
0.399362
0.515976
0.284316
0.292131
0.201782
)
;

boundaryField
{
    inlet
    {
        type            calculated;
        value           nonuniform List<scalar> 
27
(
0.0874116
0.087354
0.0872484
0.0871089
0.0869612
0.0868091
0.0866483
0.0864801
0.0863056
0.0861313
0.0859578
0.0857884
0.0856264
0.0854756
0.0853398
0.0852231
0.0851237
0.0853277
0.0853014
0.0853131
0.0853839
0.0855214
0.085745
0.0860664
0.0865345
0.0870081
0.0879911
)
;
    }
    outlet
    {
        type            calculated;
        value           nonuniform List<scalar> 
78
(
0.702487
0.698408
0.696343
0.693688
0.691718
0.689743
0.686525
0.682846
0.679692
0.677621
0.675609
0.672587
0.669672
0.666655
0.664007
0.656255
0.64501
0.638853
0.665485
0.764608
1.90373
6.82707
0
0
0
0
0
0.109394
0.552248
1.03565
1.07573
1.23579
1.43512
1.71155
2.17697
3.3387
6.65939
2.85694
2.1795
1.85595
1.65892
1.58241
1.74882
4.90022
0.8307
0.459064
0
3.07137e-06
5.47411
1.60609
0.804568
0.709677
0.708686
0.716349
0.717189
0.714045
0.710006
0.705816
0.701622
0.697444
0.69345
0.688801
0.685193
0.680321
0.682563
0.678921
0.697446
0.668125
0.720839
0.624288
0.82099
0.532305
1.48176
0.407058
0.545233
0.289216
0.291778
0.207399
)
;
    }
    walls
    {
        type            calculated;
        value           nonuniform List<scalar> 0();
    }
    frontAndBack
    {
        type            empty;
    }
    procBoundary7to3
    {
        type            processor;
        value           nonuniform List<scalar> 
16
(
0.20023
0.199155
0.226485
0.245228
0.260754
0.281916
0.311087
0.344132
0.402811
0.402811
0.448498
0.502325
0.546976
0.607419
0.57989
0.637726
)
;
    }
    procBoundary7to6
    {
        type            processor;
        value           nonuniform List<scalar> 
91
(
0.223099
0.251495
0.251495
0.257026
0.257026
0.400213
0.400213
0.419209
0.310866
0.310866
0.349608
0.324368
0.324368
0.293808
0.313382
0.314541
0.314541
0.271686
0.280948
0.292962
0.292962
0.239012
0.248075
0.257734
0.268011
0.268011
0.209893
0.216656
0.223813
0.231373
0.239356
0.239356
0.183527
0.187811
0.192397
0.197302
0.202533
0.2081
0.214014
0.214014
0.164523
0.166046
0.167713
0.169542
0.171549
0.17375
0.176158
0.178788
0.181653
0.18476
0.188127
0.191764
0.191764
0.000119442
0
0
0.238561
0.98955
0.650198
0.655121
0.682411
0.718355
0.76573
0.833009
0.940006
1.14282
1.70071
2.93328
1.38157
1.07574
0.94298
0.867865
0.811171
0.748189
0.652152
0.249072
0.202268
0
0
0
1.99359
0.281651
0.162086
0.160034
0.169095
0.172997
0.173573
0.174449
0.175796
0.177165
0.177165
)
;
    }
}


// ************************************************************************* //
