/*--------------------------------*- C++ -*----------------------------------*\
| =========                 |                                                 |
| \\      /  F ield         | OpenFOAM: The Open Source CFD Toolbox           |
|  \\    /   O peration     | Version:  2306                                  |
|   \\  /    A nd           | Website:  www.openfoam.com                      |
|    \\/     M anipulation  |                                                 |
\*---------------------------------------------------------------------------*/
FoamFile
{
    version     2.0;
    format      ascii;
    arch        "LSB;label=32;scalar=64";
    class       volSymmTensorField;
    location    "825";
    object      turbulenceProperties:R;
}
// * * * * * * * * * * * * * * * * * * * * * * * * * * * * * * * * * * * * * //

dimensions      [0 2 -2 0 0 0 0];

internalField   nonuniform List<symmTensor> 
1340
(
(6.83709e-07 1.49429e-08 -2.47282e-20 5.44167e-07 -2.53608e-21 6.50937e-07)
(4.35332e-07 -1.18627e-08 -2.43796e-20 5.37387e-07 -3.07046e-21 4.54957e-07)
(6.94352e-07 1.64881e-08 1.28609e-20 5.52187e-07 1.27852e-21 6.59681e-07)
(5.00161e-07 2.45812e-08 1.30636e-19 4.05686e-07 1.44907e-20 4.78656e-07)
(4.25988e-07 -1.27972e-08 3.23602e-23 5.19011e-07 -1.13339e-22 4.38219e-07)
(6.89454e-07 1.95985e-08 -2.87848e-22 5.53788e-07 6.79952e-23 6.62379e-07)
(1.8643e-07 1.07746e-08 -6.64112e-20 2.11028e-07 -7.87134e-21 1.80251e-07)
(4.93253e-07 2.29796e-08 2.13391e-21 4.00115e-07 4.45278e-22 4.73363e-07)
(4.19432e-07 -1.32476e-08 2.91335e-20 5.06839e-07 3.60214e-21 4.27504e-07)
(6.90062e-07 2.11379e-08 -5.84343e-20 5.57042e-07 -6.00747e-21 6.66348e-07)
(1.83361e-07 1.85351e-08 -1.58399e-19 1.6633e-07 -1.83418e-20 1.66518e-07)
(3.42864e-07 2.24394e-08 -8.67214e-20 2.80492e-07 -9.6071e-21 3.24348e-07)
(1.85361e-07 1.06534e-08 2.93123e-20 2.08624e-07 3.45217e-21 1.78319e-07)
(4.88516e-07 2.10788e-08 -4.3263e-20 3.95277e-07 -4.80919e-21 4.68734e-07)
(4.12793e-07 -1.31923e-08 -1.22762e-19 4.9693e-07 -1.51871e-20 4.18966e-07)
(6.94399e-07 2.18077e-08 5.60998e-20 5.61017e-07 5.6389e-21 6.70953e-07)
(2.67372e-07 2.27522e-08 2.34249e-20 2.24724e-07 2.69577e-21 2.42623e-07)
(3.13837e-07 2.33894e-08 -6.26088e-21 2.57952e-07 -7.43515e-22 2.91307e-07)
(1.78408e-07 1.75948e-08 6.09335e-22 1.6102e-07 -1.11692e-22 1.61259e-07)
(3.37312e-07 2.05736e-08 2.90338e-22 2.74353e-07 -4.37865e-23 3.18587e-07)
(1.84149e-07 1.05168e-08 2.06225e-20 2.06197e-07 2.47984e-21 1.76366e-07)
(4.84203e-07 1.9229e-08 -2.18576e-21 3.90919e-07 -3.39701e-22 4.64572e-07)
(4.07632e-07 -1.31334e-08 7.39972e-23 4.88804e-07 -6.376e-24 4.11956e-07)
(6.98699e-07 2.24094e-08 -2.13039e-22 5.65071e-07 5.06364e-23 6.7571e-07)
(3.81428e-07 2.54626e-08 -5.27831e-20 3.08958e-07 -6.13096e-21 3.45945e-07)
(3.34189e-07 2.40182e-08 -6.72799e-20 2.73124e-07 -7.64986e-21 3.02369e-07)
(3.33189e-07 2.37484e-08 -8.42347e-20 2.71832e-07 -9.39499e-21 3.0463e-07)
(2.57448e-07 2.11077e-08 -3.42237e-20 2.15059e-07 -3.71751e-21 2.3277e-07)
(3.05909e-07 2.15453e-08 3.80157e-21 2.49768e-07 5.58727e-22 2.83353e-07)
(1.73141e-07 1.66273e-08 6.44246e-20 1.55491e-07 7.41718e-21 1.55768e-07)
(3.31748e-07 1.8768e-08 1.33632e-20 2.68464e-07 1.40434e-21 3.12997e-07)
(1.83023e-07 1.02869e-08 -4.62347e-20 2.03822e-07 -5.40722e-21 1.74431e-07)
(4.80297e-07 1.75544e-08 4.1502e-20 3.87247e-07 4.57159e-21 4.61129e-07)
(4.0444e-07 -1.32062e-08 6.88025e-23 4.82686e-07 -4.28731e-23 4.06678e-07)
(7.02294e-07 2.29667e-08 1.05399e-22 5.69012e-07 -2.3458e-23 6.80449e-07)
(4.44954e-07 2.28919e-08 -1.24854e-20 3.53331e-07 -1.19503e-21 3.99056e-07)
(4.16393e-07 2.3348e-08 6.20197e-20 3.32417e-07 6.83191e-21 3.74702e-07)
(3.826e-07 2.31339e-08 7.20819e-21 3.07239e-07 7.15078e-22 3.44425e-07)
(3.6571e-07 2.29534e-08 4.15256e-20 2.94515e-07 4.57348e-21 3.30913e-07)
(3.20086e-07 2.18198e-08 1.68488e-22 2.60064e-07 -1.27394e-22 2.88764e-07)
(3.21642e-07 2.16438e-08 3.64687e-22 2.60773e-07 -2.38666e-23 2.93394e-07)
(2.47292e-07 1.94632e-08 2.868e-20 2.05322e-07 3.21871e-21 2.22772e-07)
(2.97797e-07 1.97177e-08 -3.62168e-21 2.41613e-07 -4.47469e-22 2.75308e-07)
(1.67663e-07 1.56227e-08 -2.99402e-22 1.49817e-07 7.70631e-23 1.50105e-07)
(3.26372e-07 1.70179e-08 -6.12116e-23 2.62915e-07 2.05797e-23 3.0767e-07)
(1.81914e-07 9.97078e-09 1.32728e-22 2.01525e-07 -2.59199e-23 1.7253e-07)
(4.77054e-07 1.59996e-08 -2.25648e-22 3.84267e-07 5.97568e-23 4.58399e-07)
(4.02852e-07 -1.33493e-08 1.06022e-19 4.78582e-07 1.32341e-20 4.03161e-07)
(7.05499e-07 2.33051e-08 2.84669e-20 5.72603e-07 2.89391e-21 6.84855e-07)
(5.70339e-07 1.26731e-08 -3.43816e-20 4.42714e-07 -3.54689e-21 5.06522e-07)
(5.30647e-07 1.53865e-08 2.5441e-20 4.13385e-07 2.82977e-21 4.72017e-07)
(4.92548e-07 1.73911e-08 1.28415e-20 3.85337e-07 1.27609e-21 4.3893e-07)
(4.56367e-07 1.87451e-08 -4.76742e-21 3.58693e-07 -5.64712e-22 4.07557e-07)
(4.21036e-07 1.97542e-08 6.89742e-23 3.32753e-07 -8.17463e-24 3.76796e-07)
(3.95499e-07 2.0448e-08 -2.34373e-22 3.14133e-07 4.40167e-23 3.55121e-07)
(3.6385e-07 2.0493e-08 -2.64008e-23 2.90644e-07 -1.07187e-22 3.26731e-07)
(3.49637e-07 2.05102e-08 -4.52598e-20 2.80027e-07 -5.00871e-21 3.15656e-07)
(3.05742e-07 1.96669e-08 -2.16133e-20 2.47003e-07 -2.25848e-21 2.75025e-07)
(3.09809e-07 1.95698e-08 2.70612e-20 2.49674e-07 3.04678e-21 2.8197e-07)
(2.36977e-07 1.78249e-08 -2.73009e-20 1.95575e-07 -3.12606e-21 2.12686e-07)
(2.89554e-07 1.79112e-08 1.09544e-23 2.33518e-07 -2.80153e-23 2.67202e-07)
(1.62006e-07 1.459e-08 -5.82643e-20 1.44047e-07 -6.72112e-21 1.44311e-07)
(3.2116e-07 1.53139e-08 -1.20738e-20 2.57651e-07 -1.27565e-21 3.0254e-07)
(1.80785e-07 9.59216e-09 2.39231e-20 1.99341e-07 2.80191e-21 1.7069e-07)
(4.74374e-07 1.45115e-08 -3.76318e-20 3.81797e-07 -4.1549e-21 4.56175e-07)
(4.0238e-07 -1.35137e-08 -8.94908e-20 4.76088e-07 -1.11243e-20 4.01049e-07)
(7.09078e-07 2.33918e-08 -3.63854e-20 5.76257e-07 -3.61651e-21 6.89412e-07)
(7.21923e-07 -1.47211e-08 -3.20645e-20 5.5986e-07 -3.24942e-21 6.40878e-07)
(6.8104e-07 -8.80484e-09 -4.83507e-21 5.26834e-07 -3.67603e-22 6.03923e-07)
(6.41142e-07 -3.47555e-09 -5.0144e-21 4.9529e-07 -5.06572e-22 5.68201e-07)
(6.02393e-07 1.26663e-09 -7.78355e-21 4.65248e-07 -7.54151e-22 5.33807e-07)
(5.64904e-07 5.41691e-09 -1.52616e-21 4.36692e-07 -5.55612e-23 5.00785e-07)
(5.28767e-07 8.94374e-09 2.17506e-20 4.09573e-07 2.32941e-21 4.69156e-07)
(4.94105e-07 1.18187e-08 2.503e-20 3.83855e-07 2.61485e-21 4.38975e-07)
(4.60548e-07 1.40237e-08 -5.18508e-23 3.59111e-07 -3.39471e-23 4.09805e-07)
(4.28621e-07 1.56006e-08 1.08114e-20 3.35611e-07 1.19016e-21 3.8214e-07)
(3.96828e-07 1.68244e-08 6.95791e-21 3.12287e-07 7.2514e-22 3.54445e-07)
(3.74275e-07 1.7708e-08 -1.61046e-23 2.95897e-07 -2.47852e-23 3.35393e-07)
(3.4479e-07 1.79789e-08 -1.73519e-24 2.74076e-07 8.52497e-24 3.08896e-07)
(3.33195e-07 1.81645e-08 2.66568e-22 2.65497e-07 -2.1577e-24 3.00185e-07)
(2.91138e-07 1.75859e-08 2.07536e-20 2.33946e-07 2.22834e-21 2.61162e-07)
(2.97671e-07 1.75505e-08 -2.57837e-20 2.38541e-07 -2.88362e-21 2.70365e-07)
(2.26482e-07 1.62122e-08 2.59883e-20 1.85825e-07 2.96407e-21 2.02517e-07)
(2.81138e-07 1.61413e-08 8.65247e-25 2.25464e-07 3.07776e-23 2.59012e-07)
(1.56169e-07 1.35436e-08 5.56677e-20 1.38204e-07 6.36514e-21 1.38408e-07)
(3.15995e-07 1.36595e-08 1.16384e-20 2.52578e-07 1.19012e-21 2.97506e-07)
(1.79656e-07 9.16431e-09 -2.27616e-20 1.97314e-07 -2.69953e-21 1.68949e-07)
(4.72054e-07 1.30809e-08 9.33483e-23 3.79679e-07 2.51735e-23 4.54283e-07)
(4.02781e-07 -1.37006e-08 1.52246e-19 4.74869e-07 1.88683e-20 4.00045e-07)
(7.12302e-07 2.32418e-08 1.56661e-22 5.7943e-07 -6.49871e-23 6.93466e-07)
(8.93389e-07 -6.5621e-08 -7.05025e-21 7.31007e-07 -6.92593e-22 8.12219e-07)
(8.59855e-07 -5.80407e-08 -1.60972e-20 6.96879e-07 -1.48233e-21 7.78381e-07)
(8.25647e-07 -5.05644e-08 7.45335e-21 6.63189e-07 7.22976e-22 7.44427e-07)
(7.90935e-07 -4.32594e-08 -1.40471e-20 6.30083e-07 -1.41782e-21 7.10512e-07)
(7.55949e-07 -3.61953e-08 -4.69518e-21 5.97737e-07 -3.41098e-22 6.76842e-07)
(7.20882e-07 -2.94349e-08 1.72353e-20 5.66278e-07 1.73348e-21 6.43576e-07)
(6.85937e-07 -2.30354e-08 1.79536e-21 5.35826e-07 1.22959e-22 6.10875e-07)
(6.51297e-07 -1.70462e-08 1.72349e-22 5.06466e-07 -6.87239e-23 5.78872e-07)
(6.17128e-07 -1.15055e-08 -5.31118e-21 4.78257e-07 -5.65441e-22 5.47682e-07)
(5.83563e-07 -6.43841e-09 -3.90033e-21 4.51221e-07 -3.84471e-22 5.17381e-07)
(5.5073e-07 -1.85996e-09 4.45911e-23 4.2537e-07 4.35517e-24 4.88038e-07)
(5.18755e-07 2.2179e-09 5.45433e-24 4.00711e-07 -6.03852e-24 4.59722e-07)
(4.8771e-07 5.75078e-09 -1.26667e-22 3.77202e-07 1.12457e-23 4.32442e-07)
(4.57799e-07 8.69896e-09 -4.02173e-21 3.5488e-07 -3.81971e-22 4.06336e-07)
(4.28577e-07 1.10259e-08 3.46702e-23 3.33268e-07 -2.03332e-23 3.80896e-07)
(4.00756e-07 1.27555e-08 -1.03683e-20 3.12777e-07 -1.11189e-21 3.56794e-07)
(3.72434e-07 1.41335e-08 -6.65145e-21 2.91994e-07 -6.96388e-22 3.32095e-07)
(3.52808e-07 1.51589e-08 -1.53455e-23 2.77768e-07 1.51021e-23 3.15603e-07)
(3.25495e-07 1.562e-08 -1.66098e-24 2.57593e-07 1.09666e-22 2.90995e-07)
(3.16446e-07 1.59437e-08 4.08626e-20 2.50975e-07 4.55166e-21 2.84565e-07)
(2.76324e-07 1.56009e-08 1.06965e-20 2.20937e-07 1.22534e-21 2.47229e-07)
(2.8526e-07 1.56085e-08 4.20779e-20 2.27404e-07 4.63054e-21 2.58616e-07)
(2.15847e-07 1.46435e-08 -2.47789e-20 1.76113e-07 -2.8488e-21 1.92313e-07)
(2.7255e-07 1.44236e-08 1.44756e-23 2.17455e-07 -8.70419e-24 2.50747e-07)
(1.50182e-07 1.2496e-08 -3.79463e-20 1.32331e-07 -4.26695e-21 1.32435e-07)
(3.10825e-07 1.20615e-08 3.20025e-20 2.47656e-07 3.6518e-21 2.92527e-07)
(1.7852e-07 8.69476e-09 5.53449e-20 1.9543e-07 6.44085e-21 1.67297e-07)
(4.69995e-07 1.17059e-08 -3.31453e-24 3.77847e-07 -4.15797e-23 4.52655e-07)
(4.04373e-07 -1.39225e-08 -9.897e-23 4.75275e-07 2.24544e-23 4.00432e-07)
(7.15553e-07 2.28957e-08 8.18565e-21 5.82502e-07 8.32801e-22 6.97468e-07)
(1.00627e-06 -1.21648e-07 5.97529e-21 9.45162e-07 5.40568e-22 9.75747e-07)
(9.94793e-07 -1.18351e-07 2.26029e-22 9.24937e-07 2.27997e-23 9.59905e-07)
(9.82115e-07 -1.147e-07 3.70951e-22 9.03703e-07 4.52017e-23 9.42955e-07)
(9.68139e-07 -1.10698e-07 1.77571e-20 8.81435e-07 1.63754e-21 9.24836e-07)
(9.52769e-07 -1.06339e-07 7.98329e-21 8.58114e-07 7.45282e-22 9.05493e-07)
(9.35949e-07 -1.01629e-07 1.25723e-20 8.33773e-07 1.15631e-21 8.84912e-07)
(9.17668e-07 -9.65826e-08 3.93093e-21 8.0848e-07 3.60953e-22 8.63122e-07)
(8.97947e-07 -9.12194e-08 7.16487e-21 7.82328e-07 6.48894e-22 8.40185e-07)
(8.76823e-07 -8.55737e-08 -4.13098e-21 7.55447e-07 -4.77821e-22 8.16177e-07)
(8.54393e-07 -7.96786e-08 -2.47833e-20 7.27987e-07 -2.30457e-21 7.91228e-07)
(8.30726e-07 -7.3578e-08 4.7554e-21 7.0009e-07 4.78544e-22 7.65442e-07)
(8.05928e-07 -6.73201e-08 -6.52946e-21 6.71917e-07 -6.46127e-22 7.3895e-07)
(7.80141e-07 -6.09591e-08 3.15223e-23 6.43646e-07 1.14685e-23 7.11917e-07)
(7.53496e-07 -5.4552e-08 4.41205e-23 6.15439e-07 -2.36235e-23 6.84486e-07)
(7.26162e-07 -4.81592e-08 -9.12324e-24 5.87471e-07 3.70661e-24 6.56831e-07)
(6.98263e-07 -4.184e-08 4.43164e-23 5.59875e-07 -1.03519e-23 6.29079e-07)
(6.69985e-07 -3.56542e-08 1.55318e-23 5.32807e-07 -1.25562e-23 6.01402e-07)
(6.41482e-07 -2.9661e-08 -5.83916e-23 5.06391e-07 -1.84991e-23 5.73939e-07)
(6.12918e-07 -2.3917e-08 -8.99627e-21 4.80739e-07 -8.35287e-22 5.46828e-07)
(5.84446e-07 -1.847e-08 1.81932e-20 4.55935e-07 1.88455e-21 5.20188e-07)
(5.56197e-07 -1.33659e-08 -1.51027e-21 4.32037e-07 -2.18627e-22 4.94112e-07)
(5.28282e-07 -8.63284e-09 3.75828e-21 4.09069e-07 3.91728e-22 4.6867e-07)
(5.00797e-07 -4.29534e-09 1.56506e-23 3.87037e-07 -1.81292e-23 4.4391e-07)
(4.73861e-07 -3.71236e-10 -2.40347e-22 3.6596e-07 -8.08298e-23 4.19904e-07)
(4.47521e-07 3.08732e-09 -1.95572e-20 3.45793e-07 -2.12518e-21 3.96646e-07)
(4.22045e-07 6.03145e-09 -1.90882e-20 3.26637e-07 -1.94291e-21 3.74342e-07)
(3.96912e-07 8.40938e-09 1.38286e-20 3.07969e-07 1.51134e-21 3.52414e-07)
(3.73008e-07 1.02263e-08 -1.09617e-20 2.90334e-07 -1.21183e-21 3.31706e-07)
(3.4806e-07 1.17016e-08 6.32783e-21 2.72006e-07 7.0349e-22 3.09911e-07)
(3.31275e-07 1.28215e-08 -4.81829e-23 2.59862e-07 -1.21581e-23 2.9589e-07)
(3.06125e-07 1.34364e-08 -2.3369e-23 2.41301e-07 -2.81461e-23 2.73158e-07)
(2.99515e-07 1.38673e-08 -1.47376e-20 2.36547e-07 -1.65174e-21 2.68899e-07)
(2.61412e-07 1.37302e-08 -2.89866e-20 2.08059e-07 -3.26352e-21 2.3332e-07)
(2.72655e-07 1.37617e-08 -4.01429e-20 2.1632e-07 -4.36621e-21 2.46789e-07)
(2.05137e-07 1.31335e-08 1.07687e-20 1.66497e-07 1.26672e-21 1.82134e-07)
(2.63822e-07 1.27707e-08 5.87904e-21 2.09514e-07 6.97115e-22 2.4243e-07)
(1.44106e-07 1.14589e-08 2.89954e-20 1.26482e-07 3.29612e-21 1.26451e-07)
(3.05671e-07 1.05229e-08 1.99537e-20 2.42889e-07 2.22541e-21 2.87614e-07)
(1.77344e-07 8.19094e-09 -7.20744e-23 1.93647e-07 -9.17585e-24 1.65702e-07)
(4.68169e-07 1.03742e-08 -3.23462e-24 3.76258e-07 -2.06941e-24 4.51247e-07)
(4.06534e-07 -1.41637e-08 -3.91732e-23 4.76578e-07 -1.0497e-23 4.0159e-07)
(7.18843e-07 2.23587e-08 -7.8188e-21 5.85462e-07 -7.81226e-22 7.01396e-07)
(6.8266e-09 -6.50593e-12 -1.25059e-25 6.84644e-09 -5.20511e-27 6.83785e-09)
(4.28756e-10 -1.29772e-14 9.4013e-29 4.28856e-10 -1.94663e-29 4.28812e-10)
(0 -0 0 0 0 0)
(0 -0 -0 0 -0 0)
(2.53607e-05 -1.09629e-05 -1.11927e-20 2.64791e-05 -1.95877e-21 2.59148e-05)
(4.93361e-05 -2.36617e-05 8.99803e-20 5.7689e-05 6.13772e-21 5.35591e-05)
(0.00407811 0.00200799 1.90652e-18 0.00516821 2.86805e-19 0.00462465)
(0.0540265 0.025953 -6.69062e-18 0.0630559 -5.08033e-19 0.0585361)
(0.210032 0.10054 3.84966e-18 0.242672 -2.53274e-19 0.226337)
(0.464209 0.222384 3.09953e-17 0.537487 2.827e-18 0.500849)
(0.733165 0.352046 7.15772e-18 0.85456 1.0612e-18 0.793878)
(0.917994 0.44221 2.49842e-17 1.08012 2.919e-18 0.999073)
(0.943758 0.45654 -3.96145e-17 1.1248 -1.59519e-18 1.03429)
(0.776924 0.378212 -1.2649e-16 0.945009 -1.2858e-17 0.860982)
(0.436533 0.215332 4.05436e-17 0.557578 -1.88785e-18 0.49706)
(0.0290777 0.00120936 2.60695e-16 0.0765461 2.40354e-17 0.0528095)
(0.496644 -0.214458 3.57513e-17 0.459973 7.50277e-18 0.47832)
(0.89325 -0.373384 -5.22369e-17 0.783922 -4.66479e-18 0.838592)
(1.02336 -0.421669 7.84009e-18 0.87827 -1.05433e-18 0.950794)
(0.842686 -0.343956 7.54615e-17 0.71297 7.49021e-18 0.777797)
(0.473078 -0.191749 -2.87611e-17 0.396132 -3.16145e-18 0.434592)
(0.154564 -0.0623676 5.33934e-17 0.128577 5.61069e-18 0.14157)
(0.0213287 -0.00863279 -2.68676e-17 0.0178226 -2.5577e-18 0.0195754)
(0.000214957 -9.37797e-05 1.81158e-18 0.000202703 1.34508e-19 0.000208887)
(1.65094e-05 7.90812e-06 3.11684e-19 3.06129e-05 3.29895e-20 2.36038e-05)
(0 -0 0 0 0 0)
(0 -0 0 0 0 0)
(0 -0 0 0 0 0)
(1.81411e-08 -4.02269e-11 -1.35862e-25 1.81418e-08 -8.73745e-29 1.81415e-08)
(2.47932e-07 -8.43386e-09 1.54196e-22 2.48266e-07 1.5803e-23 2.481e-07)
(9.37184e-07 -1.21539e-07 -5.23399e-21 9.39237e-07 -4.29198e-22 9.38222e-07)
(1.05099e-06 -1.53226e-07 -9.74153e-21 1.04563e-06 -9.35063e-22 1.04832e-06)
(9.24441e-07 -1.20998e-07 7.34814e-22 9.13136e-07 4.27177e-23 9.18794e-07)
(8.69813e-07 -1.08507e-07 -3.11674e-21 8.53048e-07 -3.02399e-22 8.61437e-07)
(8.69221e-07 -1.08759e-07 6.72285e-21 8.45301e-07 6.14733e-22 8.57269e-07)
(8.68944e-07 -1.08698e-07 -2.12317e-21 8.37428e-07 -1.65843e-22 8.53196e-07)
(8.61081e-07 -1.06605e-07 -5.93348e-21 8.22273e-07 -5.48878e-22 8.4169e-07)
(8.52055e-07 -1.04102e-07 -5.30452e-21 8.06023e-07 -5.07537e-22 8.29054e-07)
(8.434e-07 -1.01578e-07 4.89646e-21 7.90086e-07 4.52593e-22 8.16762e-07)
(8.34097e-07 -9.8823e-08 6.32321e-26 7.73562e-07 -1.74762e-24 8.03852e-07)
(8.23716e-07 -9.5763e-08 -9.43139e-24 7.5611e-07 1.29411e-23 7.89939e-07)
(8.12242e-07 -9.24112e-08 -5.89709e-24 7.37767e-07 9.16603e-24 7.75033e-07)
(7.9962e-07 -8.87646e-08 -8.3789e-24 7.18539e-07 6.33126e-24 7.59111e-07)
(7.85773e-07 -8.48191e-08 -4.44987e-24 6.98431e-07 2.56444e-24 7.42133e-07)
(7.70696e-07 -8.05814e-08 -2.43383e-22 6.77495e-07 -2.76715e-23 7.24129e-07)
(7.54414e-07 -7.60736e-08 -6.68542e-21 6.55834e-07 -6.38383e-22 7.05156e-07)
(7.37005e-07 -7.13217e-08 4.26255e-23 6.33581e-07 4.09897e-23 6.85324e-07)
(7.1854e-07 -6.63564e-08 1.88534e-20 6.10867e-07 1.81791e-21 6.64733e-07)
(6.99086e-07 -6.12119e-08 2.34627e-23 5.87816e-07 -3.83441e-23 6.43477e-07)
(6.78743e-07 -5.59282e-08 4.77875e-21 5.64576e-07 4.58301e-22 6.21683e-07)
(6.57631e-07 -5.05521e-08 -1.21846e-21 5.41303e-07 -1.21882e-22 5.99486e-07)
(6.35877e-07 -4.51317e-08 8.15665e-21 5.18146e-07 8.18011e-22 5.77028e-07)
(6.13576e-07 -3.97147e-08 5.93728e-24 4.95222e-07 -2.67668e-23 5.54412e-07)
(5.90873e-07 -3.4354e-08 2.00659e-24 4.72675e-07 -8.68435e-24 5.31784e-07)
(5.67896e-07 -2.9101e-08 6.55703e-24 4.50618e-07 3.29741e-23 5.09264e-07)
(5.44766e-07 -2.40078e-08 8.6052e-21 4.29152e-07 7.99209e-22 4.86963e-07)
(5.21608e-07 -1.9121e-08 -1.9083e-20 4.08358e-07 -1.94596e-21 4.64984e-07)
(4.98531e-07 -1.44851e-08 4.82269e-21 3.88293e-07 5.57278e-22 4.43412e-07)
(4.75608e-07 -1.01334e-08 -2.70408e-23 3.68973e-07 -5.06694e-24 4.22288e-07)
(4.52904e-07 -6.09207e-09 7.00132e-23 3.50396e-07 -4.94562e-23 4.01646e-07)
(4.30529e-07 -2.38433e-09 -1.07765e-20 3.32589e-07 -1.13873e-21 3.81557e-07)
(4.08492e-07 9.34814e-10 1.1579e-22 3.15494e-07 1.59245e-23 3.61984e-07)
(3.87115e-07 3.81016e-09 3.60278e-21 2.99272e-07 3.37801e-22 3.43199e-07)
(3.65802e-07 6.17638e-09 -8.9922e-23 2.83352e-07 1.19852e-23 3.2455e-07)
(3.45597e-07 8.02272e-09 9.38213e-23 2.68408e-07 -2.88889e-23 3.07043e-07)
(3.23894e-07 9.54206e-09 -6.05352e-21 2.52433e-07 -6.86709e-22 2.88039e-07)
(3.09839e-07 1.07122e-08 -1.38882e-20 2.42278e-07 -1.51873e-21 2.76385e-07)
(2.86824e-07 1.14436e-08 -9.06065e-21 2.25296e-07 -9.45902e-22 2.55501e-07)
(2.82529e-07 1.19524e-08 4.52261e-21 2.22297e-07 5.59984e-22 2.53287e-07)
(2.46497e-07 1.19891e-08 2.15412e-20 1.95376e-07 2.38322e-21 2.19514e-07)
(2.59926e-07 1.20256e-08 1.9333e-20 2.05335e-07 2.06115e-21 2.34939e-07)
(1.94439e-07 1.16965e-08 -2.72682e-23 1.57046e-07 -6.91882e-23 1.72057e-07)
(2.54964e-07 1.11937e-08 -2.56468e-20 2.01639e-07 -2.86827e-21 2.34064e-07)
(1.37982e-07 1.04452e-08 -5.52242e-23 1.20709e-07 2.60318e-23 1.20501e-07)
(3.00436e-07 9.04397e-09 -1.92734e-20 2.38182e-07 -2.08788e-21 2.82661e-07)
(1.76168e-07 7.66662e-09 1.47147e-20 1.92028e-07 1.74499e-21 1.64215e-07)
(4.66484e-07 9.06551e-09 -7.88438e-23 3.74813e-07 -8.01638e-24 4.49947e-07)
(4.0936e-07 -1.44081e-08 -6.07789e-20 4.78918e-07 -7.52492e-21 4.03621e-07)
(7.22222e-07 2.16351e-08 7.4491e-21 5.88313e-07 7.59423e-22 7.05242e-07)
(4.93673e-07 -5.27696e-08 -9.91491e-25 5.86444e-07 -3.17433e-23 5.46386e-07)
(2.19211e-08 -8.56174e-11 2.69207e-24 2.21483e-08 2.27616e-25 2.2048e-08)
(1.43191e-09 -1.36375e-13 4.73871e-27 1.43315e-09 7.94898e-28 1.43252e-09)
(0 -0 -0 0 -0 0)
(0 -0 -0 0 -0 0)
(4.60897e-08 -9.44986e-11 4.15969e-28 4.60973e-08 -1.30786e-27 4.60935e-08)
(0.000329196 -0.00015123 2.20512e-22 0.000343723 -5.65087e-21 0.000336471)
(0.000444283 0.00022118 1.03951e-18 0.000748994 1.101e-19 0.000597231)
(0.0214663 0.0103729 -3.32627e-18 0.0254978 -3.48804e-19 0.0234822)
(0.118813 0.0569807 1.91607e-17 0.138009 1.75599e-18 0.1284)
(0.319551 0.153189 -1.00617e-17 0.370728 -4.40311e-19 0.345131)
(0.570801 0.274123 2.31364e-19 0.66559 -7.99431e-19 0.618206)
(0.778169 0.374757 5.58508e-17 0.914894 5.18506e-18 0.846547)
(0.857774 0.414621 -1.9855e-18 1.01984 1.34944e-18 0.938819)
(0.762134 0.370326 -6.30261e-17 0.921347 -5.71152e-18 0.841754)
(0.493169 0.241974 -1.13219e-18 0.616816 1.5923e-19 0.554997)
(0.109698 0.0552376 -7.20846e-17 0.170083 -8.11945e-18 0.139889)
(0.333187 -0.145875 8.03935e-17 0.316236 5.89931e-18 0.32472)
(0.734839 -0.307626 5.32719e-17 0.646427 5.58914e-18 0.69064)
(0.912843 -0.37604 3.58104e-17 0.783131 2.67346e-18 0.847973)
(0.800668 -0.326544 1.00337e-16 0.676609 1.18032e-17 0.738611)
(0.483009 -0.195529 -1.39942e-16 0.403709 -1.37858e-17 0.443342)
(0.175399 -0.0706252 7.57472e-17 0.145463 7.17371e-18 0.16043)
(0.0279777 -0.0112623 -3.08787e-17 0.0231935 -2.63014e-18 0.0255856)
(0.000518801 -0.000217702 2.53768e-21 0.00045809 -2.68226e-20 0.000488506)
(2.95704e-05 1.46064e-05 2.10702e-22 5.12577e-05 2.52953e-21 4.04767e-05)
(0 0 -0 0 -0 0)
(0 -0 -0 0 -0 0)
(0 -0 0 0 0 0)
(6.63239e-09 -6.20312e-12 -3.74996e-26 6.63231e-09 -3.5404e-27 6.63235e-09)
(8.11701e-08 -1.06847e-09 3.13807e-24 8.11862e-08 2.1988e-26 8.11785e-08)
(7.09938e-07 -8.38282e-08 3.32885e-21 7.0975e-07 3.14604e-22 7.09867e-07)
(9.18503e-07 -1.39121e-07 1.54315e-24 9.10709e-07 -8.85315e-25 9.14636e-07)
(8.05048e-07 -1.09067e-07 6.16041e-21 7.92367e-07 6.00631e-22 7.98732e-07)
(7.32634e-07 -9.1755e-08 -4.89352e-21 7.16396e-07 -4.46074e-22 7.24537e-07)
(7.25029e-07 -9.02053e-08 1.28861e-21 7.0323e-07 1.07294e-22 7.14154e-07)
(7.26718e-07 -9.05015e-08 -1.52828e-24 6.98526e-07 -1.10008e-23 7.12648e-07)
(7.21427e-07 -8.89622e-08 6.53899e-21 6.87107e-07 6.21881e-22 7.0429e-07)
(7.14202e-07 -8.68787e-08 -1.78892e-21 6.73867e-07 -1.58346e-22 6.94059e-07)
(7.07479e-07 -8.48365e-08 2.31401e-21 6.61064e-07 2.16957e-22 6.84295e-07)
(7.00212e-07 -8.26013e-08 1.21478e-21 6.47746e-07 1.29175e-22 6.74003e-07)
(6.91723e-07 -8.00416e-08 -1.78532e-24 6.33358e-07 1.13547e-23 6.62564e-07)
(6.82139e-07 -7.71987e-08 6.59705e-21 6.18059e-07 6.42855e-22 6.50122e-07)
(6.7159e-07 -7.41071e-08 -1.24009e-24 6.02004e-07 -1.3381e-24 6.3682e-07)
(6.60054e-07 -7.0767e-08 2.21046e-22 5.85227e-07 3.79204e-23 6.22663e-07)
(6.47495e-07 -6.71786e-08 4.79801e-21 5.67757e-07 4.6283e-22 6.07648e-07)
(6.33969e-07 -6.33589e-08 7.68929e-24 5.49706e-07 -3.06305e-23 5.91858e-07)
(6.19541e-07 -5.93306e-08 -3.11781e-23 5.3119e-07 3.80393e-23 5.75385e-07)
(6.0427e-07 -5.51175e-08 1.00583e-20 5.12319e-07 9.87996e-22 5.58312e-07)
(5.88238e-07 -5.07503e-08 -4.53894e-21 4.93222e-07 -4.74982e-22 5.40745e-07)
(5.71546e-07 -4.62647e-08 9.68383e-24 4.7404e-07 -2.70352e-23 5.22806e-07)
(5.54293e-07 -4.16986e-08 -7.79981e-21 4.54904e-07 -7.66085e-22 5.0461e-07)
(5.36558e-07 -3.70908e-08 5.0367e-24 4.35922e-07 2.2226e-23 4.86248e-07)
(5.18458e-07 -3.24847e-08 1.71409e-24 4.17223e-07 1.63173e-23 4.67847e-07)
(5.00089e-07 -2.79248e-08 7.97136e-21 3.98908e-07 8.2114e-22 4.49503e-07)
(4.81551e-07 -2.34558e-08 1.04321e-21 3.81071e-07 1.05459e-22 4.31313e-07)
(4.62938e-07 -1.91228e-08 1.66825e-21 3.63786e-07 1.36226e-22 4.13362e-07)
(4.4433e-07 -1.49654e-08 -3.18721e-21 3.47103e-07 -3.66095e-22 3.95715e-07)
(4.25779e-07 -1.10191e-08 -8.61929e-21 3.31036e-07 -8.10238e-22 3.78405e-07)
(4.07313e-07 -7.30889e-09 2.56656e-20 3.15568e-07 2.76013e-21 3.61436e-07)
(3.89028e-07 -3.86285e-09 1.04992e-20 3.00729e-07 1.07628e-21 3.44876e-07)
(3.70887e-07 -7.32072e-10 1.77518e-20 2.86441e-07 1.89359e-21 3.28653e-07)
(3.53264e-07 2.02199e-09 2.05507e-20 2.7292e-07 2.1216e-21 3.13098e-07)
(3.35479e-07 4.32336e-09 -1.59161e-20 2.59545e-07 -1.70842e-21 2.97482e-07)
(3.18734e-07 6.14945e-09 2.2015e-20 2.47119e-07 2.40818e-21 2.82969e-07)
(3.00121e-07 7.66541e-09 -5.70066e-21 2.33385e-07 -6.81781e-22 2.66625e-07)
(2.88663e-07 8.84408e-09 -1.17138e-23 2.25117e-07 2.81411e-23 2.57217e-07)
(2.67737e-07 9.65529e-09 4.76525e-21 2.09667e-07 5.02424e-22 2.38142e-07)
(2.65611e-07 1.02152e-08 -3.9879e-21 2.08304e-07 -4.13973e-22 2.37832e-07)
(2.31698e-07 1.03942e-08 1.69214e-20 1.82971e-07 1.9241e-21 2.05912e-07)
(2.47171e-07 1.04141e-08 1.28717e-20 1.94514e-07 1.42052e-21 2.23146e-07)
(1.83812e-07 1.0348e-08 -2.15254e-24 1.47804e-07 1.97236e-24 1.62135e-07)
(2.46017e-07 9.70044e-09 1.64985e-20 1.93851e-07 1.83439e-21 2.25671e-07)
(1.31819e-07 9.47413e-09 3.70202e-24 1.15018e-07 -8.6308e-23 1.14606e-07)
(2.95196e-07 7.61853e-09 -5.57803e-20 2.33575e-07 -6.27416e-21 2.77715e-07)
(1.74834e-07 7.14331e-09 -1.40608e-20 1.90434e-07 -1.61689e-21 1.6272e-07)
(4.64897e-07 7.76171e-09 -3.60168e-20 3.73428e-07 -3.90793e-21 4.48647e-07)
(4.12058e-07 -1.46138e-08 6.12346e-20 4.81419e-07 7.58918e-21 4.05776e-07)
(7.26011e-07 2.0738e-08 -7.11094e-21 5.9125e-07 -7.15083e-22 7.0922e-07)
(5.05843e-07 -6.5124e-08 -3.30048e-25 6.02922e-07 1.211e-23 5.61041e-07)
(4.35211e-07 -4.82458e-08 1.40566e-24 5.13189e-07 9.21623e-24 4.78981e-07)
(5.36934e-08 -5.71862e-10 -6.64703e-24 5.51482e-08 -8.7913e-25 5.44117e-08)
(3.16331e-09 -9.15287e-13 4.47251e-26 3.1704e-09 3.46471e-27 3.16676e-09)
(0 -0 0 0 0 0)
(0 -0 -0 0 -0 0)
(0 -0 0 0 0 0)
(0.000102634 -4.62648e-05 2.25196e-22 0.000103206 4.50693e-22 0.000102898)
(0.000150091 -7.35934e-05 -2.49035e-22 0.000187128 6.31044e-22 0.000168708)
(0.00612241 0.00299266 1.95529e-20 0.0075513 6.96125e-21 0.00683804)
(0.0584115 0.0280902 -3.26085e-20 0.0683923 -1.21e-19 0.0633968)
(0.203143 0.0974753 1.44214e-17 0.236318 1.41698e-18 0.219717)
(0.423688 0.20352 2.23214e-19 0.494386 2.47081e-19 0.459037)
(0.640207 0.308258 -1.31946e-18 0.75227 -6.34778e-19 0.696252)
(0.763091 0.368617 4.07126e-17 0.90547 4.11051e-18 0.834292)
(0.731301 0.354826 2.96971e-18 0.879901 6.50114e-19 0.805611)
(0.530353 0.259245 3.08576e-17 0.654312 2.1801e-18 0.592339)
(0.199459 0.0995821 5.81741e-17 0.270262 6.00919e-18 0.234862)
(0.190376 -0.0857833 3.12919e-20 0.190878 1.16152e-18 0.190637)
(0.589015 -0.247188 -3.84682e-17 0.520185 -3.0225e-18 0.554614)
(0.804966 -0.331642 -4.4071e-17 0.690707 -6.58726e-18 0.747836)
(0.7539 -0.307344 1.74379e-16 0.636692 1.79182e-17 0.695282)
(0.487254 -0.197123 -1.34159e-16 0.406878 -1.16742e-17 0.447056)
(0.193665 -0.0779052 4.93519e-19 0.160389 -4.71888e-19 0.177027)
(0.0357016 -0.0143376 -8.38705e-18 0.0294959 -7.78937e-19 0.0325989)
(0.00121336 -0.000499795 -1.39018e-21 0.00104078 -5.83877e-21 0.00112712)
(4.29797e-05 2.11927e-05 -1.31916e-19 7.49261e-05 -1.27711e-20 5.90231e-05)
(0 0 -0 0 0 0)
(0 -0 -0 0 -0 0)
(0 -0 -0 0 -0 0)
(4.21289e-10 -2.9305e-14 1.15384e-31 4.21288e-10 -8.69026e-31 4.21289e-10)
(2.23473e-09 -9.70506e-13 -8.70908e-28 2.23472e-09 -5.32665e-29 2.23473e-09)
(4.2887e-07 -3.76337e-08 -3.61306e-22 4.28608e-07 -2.30459e-23 4.28737e-07)
(7.42461e-07 -1.09396e-07 -9.47851e-21 7.35403e-07 -9.35614e-22 7.38919e-07)
(6.91492e-07 -9.55864e-08 5.68548e-21 6.78737e-07 5.24588e-22 6.85107e-07)
(6.19373e-07 -7.79741e-08 -1.24487e-21 6.03936e-07 -1.06101e-22 6.11659e-07)
(6.07324e-07 -7.5387e-08 4.43314e-25 5.87536e-07 -5.44857e-24 5.97442e-07)
(6.11029e-07 -7.61505e-08 -1.42282e-21 5.85784e-07 -1.30611e-22 5.98426e-07)
(6.07363e-07 -7.49537e-08 -2.75776e-21 5.76948e-07 -2.68962e-22 5.92179e-07)
(5.99858e-07 -7.27987e-08 -1.9138e-25 5.64565e-07 -3.40594e-24 5.82238e-07)
(5.9326e-07 -7.08232e-08 -2.84764e-24 5.52996e-07 1.12845e-23 5.73156e-07)
(5.8723e-07 -6.89327e-08 4.06265e-21 5.41899e-07 4.01079e-22 5.64596e-07)
(5.80405e-07 -6.68217e-08 -5.16218e-21 5.30097e-07 -4.94173e-22 5.55282e-07)
(5.7244e-07 -6.44207e-08 -1.26196e-21 5.17325e-07 -1.18951e-22 5.44914e-07)
(5.63522e-07 -6.17761e-08 -1.73225e-24 5.0379e-07 6.50682e-24 5.33688e-07)
(5.53774e-07 -5.89177e-08 -3.25915e-24 4.89645e-07 3.77966e-24 5.21741e-07)
(5.43238e-07 -5.58533e-08 6.21976e-24 4.74972e-07 -1.85786e-23 5.09136e-07)
(5.31951e-07 -5.25945e-08 -7.12569e-24 4.59862e-07 -1.42774e-23 4.95936e-07)
(5.19954e-07 -4.9155e-08 -9.59668e-21 4.44398e-07 -9.12811e-22 4.82205e-07)
(5.07329e-07 -4.55605e-08 1.18068e-20 4.2871e-07 1.20137e-21 4.68046e-07)
(4.9416e-07 -4.18357e-08 1.11664e-21 4.12916e-07 7.51324e-23 4.53563e-07)
(4.80533e-07 -3.80112e-08 6.92579e-24 3.9714e-07 -2.66938e-24 4.3886e-07)
(4.6652e-07 -3.41189e-08 6.77344e-24 3.81485e-07 -2.82097e-24 4.24022e-07)
(4.52209e-07 -3.01918e-08 1.45423e-24 3.66059e-07 -3.09606e-23 4.09152e-07)
(4.37676e-07 -2.62676e-08 -7.65061e-21 3.50955e-07 -7.65404e-22 3.94331e-07)
(4.23006e-07 -2.23856e-08 -1.00741e-21 3.36264e-07 -7.33288e-23 3.79648e-07)
(4.08263e-07 -1.85834e-08 4.84939e-22 3.22045e-07 7.42889e-23 3.65164e-07)
(3.93514e-07 -1.49001e-08 8.72019e-21 3.08352e-07 9.16564e-22 3.50941e-07)
(3.7877e-07 -1.13661e-08 3.26249e-21 2.95176e-07 2.05594e-22 3.36979e-07)
(3.64051e-07 -8.00767e-09 -3.48664e-20 2.82507e-07 -3.67028e-21 3.23283e-07)
(3.49419e-07 -4.85295e-09 -6.14744e-21 2.7036e-07 -5.44427e-22 3.09895e-07)
(3.34786e-07 -1.94602e-09 6.99176e-21 2.58631e-07 6.82015e-22 2.96704e-07)
(3.20589e-07 6.43697e-10 -3.36913e-20 2.47598e-07 -3.56959e-21 2.84107e-07)
(3.06053e-07 2.84003e-09 1.19644e-20 2.36583e-07 1.34379e-21 2.71292e-07)
(2.92504e-07 4.5997e-09 -6.09148e-21 2.26489e-07 -6.49218e-22 2.59545e-07)
(2.76839e-07 6.07484e-09 6.48349e-21 2.14901e-07 6.67857e-22 2.45745e-07)
(2.67827e-07 7.22113e-09 -2.01687e-20 2.08409e-07 -2.2044e-21 2.38447e-07)
(2.48953e-07 8.08196e-09 7.43633e-21 1.94461e-07 8.77622e-22 2.21151e-07)
(2.48826e-07 8.66142e-09 3.80658e-21 1.94595e-07 4.027e-22 2.22583e-07)
(2.17084e-07 8.95856e-09 3.33614e-21 1.70884e-07 3.60328e-22 1.92572e-07)
(2.34398e-07 8.93498e-09 -1.44124e-20 1.83848e-07 -1.59561e-21 2.1141e-07)
(1.73317e-07 9.10594e-09 -2.06661e-24 1.38816e-07 9.70727e-25 1.52427e-07)
(2.37025e-07 8.28778e-09 -1.5707e-20 1.86165e-07 -1.73634e-21 2.17282e-07)
(1.25665e-07 8.56951e-09 -8.69063e-24 1.0945e-07 1.06715e-22 1.08821e-07)
(2.89711e-07 6.22874e-09 7.06263e-20 2.28848e-07 7.83663e-21 2.7252e-07)
(1.73297e-07 6.6642e-09 -1.91056e-23 1.88818e-07 -3.89573e-23 1.61188e-07)
(4.63788e-07 6.42932e-09 3.44329e-20 3.72384e-07 3.69329e-21 4.47691e-07)
(4.14662e-07 -1.47347e-08 -7.43366e-20 4.84163e-07 -9.19598e-21 4.08103e-07)
(7.30198e-07 1.96749e-08 5.94329e-23 5.94271e-07 4.08593e-24 7.13318e-07)
(3.99456e-07 -4.64773e-08 -2.13164e-25 4.61861e-07 -9.32881e-24 4.3501e-07)
(4.37688e-07 -5.6641e-08 4.78635e-25 5.16736e-07 -2.36064e-23 4.82273e-07)
(3.99147e-07 -4.35987e-08 1.06362e-21 4.72258e-07 1.17078e-22 4.35335e-07)
(1.01558e-07 -2.55717e-09 -6.10059e-23 1.07164e-07 -4.59728e-24 1.0429e-07)
(5.68408e-09 -4.90172e-12 -8.03464e-29 5.71075e-09 -7.91687e-27 5.69743e-09)
(0 -0 0 0 0 0)
(0 -0 -0 0 -0 0)
(0 -0 0 0 -0 0)
(1.30634e-06 -7.39544e-08 3.14926e-27 1.30485e-06 2.55695e-25 1.30558e-06)
(0.000349178 -0.00015907 8.8879e-23 0.000358038 7.24183e-22 0.000353676)
(0.000868368 0.000436433 -1.0653e-21 0.0012342 1.37917e-20 0.0010522)