/*--------------------------------*- C++ -*----------------------------------*\
| =========                 |                                                 |
| \\      /  F ield         | OpenFOAM: The Open Source CFD Toolbox           |
|  \\    /   O peration     | Version:  2306                                  |
|   \\  /    A nd           | Website:  www.openfoam.com                      |
|    \\/     M anipulation  |                                                 |
\*---------------------------------------------------------------------------*/
FoamFile
{
    version     2.0;
    format      ascii;
    arch        "LSB;label=32;scalar=64";
    class       volScalarField;
    location    "825";
    object      turbulenceProperties:epsilon;
}
// * * * * * * * * * * * * * * * * * * * * * * * * * * * * * * * * * * * * * //

dimensions      [0 2 -3 0 0 0 0];

internalField   nonuniform List<scalar> 
1340
(
6.71412e-10
3.87686e-10
6.91143e-10
3.64615e-10
3.63916e-10
6.90708e-10
6.34845e-11
3.55314e-10
3.48588e-10
6.96395e-10
5.06886e-11
1.70845e-10
6.23021e-11
3.47967e-10
3.35788e-10
7.05828e-10
1.02682e-10
1.41702e-10
4.76863e-11
1.64611e-10
6.10904e-11
3.41395e-10
3.25606e-10
7.15467e-10
2.04284e-10
1.57406e-10
1.57398e-10
9.46176e-11
1.3391e-10
4.46341e-11
1.58635e-10
5.99243e-11
3.35802e-10
3.18386e-10
7.24549e-10
2.72685e-10
2.40096e-10
2.03467e-10
1.86855e-10
1.43614e-10
1.45904e-10
8.67675e-11
1.26262e-10
4.15893e-11
1.53039e-10
5.87962e-11
3.31291e-10
3.13869e-10
7.32889e-10
4.3919e-10
3.81389e-10
3.2981e-10
2.84316e-10
2.43125e-10
2.15638e-10
1.83134e-10
1.69978e-10
1.30335e-10
1.34681e-10
7.9194e-11
1.18799e-10
3.85823e-11
1.47759e-10
5.77117e-11
3.27601e-10
3.11391e-10
7.41717e-10
7.03083e-10
6.24339e-10
5.52669e-10
4.87786e-10
4.29305e-10
3.76792e-10
3.29867e-10
2.87505e-10
2.49959e-10
2.15153e-10
1.9233e-10
1.63721e-10
1.53686e-10
1.17586e-10
1.23748e-10
7.1904e-11
1.11501e-10
3.56285e-11
1.42683e-10
5.66898e-11
3.24448e-10
3.10504e-10
7.49586e-10
1.1292e-09
1.03708e-09
9.48587e-10
8.64132e-10
7.84179e-10
7.08996e-10
6.38781e-10
5.73609e-10
5.13465e-10
4.58224e-10
4.07725e-10
3.61786e-10
3.20128e-10
2.82636e-10
2.48375e-10
2.17896e-10
1.88885e-10
1.70283e-10
1.45323e-10
1.3807e-10
1.05428e-10
1.13154e-10
6.49355e-11
1.04376e-10
3.27527e-11
1.37761e-10
5.57238e-11
3.21712e-10
3.11664e-10
7.574e-10
1.62965e-09
1.57714e-09
1.52192e-09
1.46398e-09
1.40338e-09
1.34031e-09
1.27512e-09
1.20825e-09
1.14019e-09
1.07155e-09
1.00285e-09
9.34646e-10
8.67518e-10
8.01958e-10
7.38471e-10
6.77391e-10
6.19102e-10
5.63857e-10
5.11849e-10
4.63195e-10
4.17925e-10
3.75996e-10
3.37321e-10
3.01825e-10
2.6932e-10
2.39875e-10
2.1262e-10
1.88323e-10
1.645e-10
1.49657e-10
1.28078e-10
1.23249e-10
9.39485e-11
1.02972e-10
5.83321e-11
9.74539e-11
2.99864e-11
1.33e-10
5.47901e-11
3.1933e-10
3.13918e-10
7.65144e-10
3.32648e-14
6.72769e-17
0
0
4.36944e-07
6.34982e-07
0.000134349
0.00628643
0.0460427
0.144238
0.270945
0.353831
0.334217
0.214185
0.068383
0.000757847
0.0619781
0.196283
0.276623
0.225118
0.101184
0.0203318
0.00116424
2.12058e-06
9.78717e-08
0
0
0
2.48584e-13
8.95405e-11
1.50628e-09
1.86489e-09
1.4434e-09
1.271e-09
1.25829e-09
1.24596e-09
1.21257e-09
1.17648e-09
1.14186e-09
1.10604e-09
1.06808e-09
1.02815e-09
9.86333e-10
9.42706e-10
8.97516e-10
8.51101e-10
8.03901e-10
7.56321e-10
7.08728e-10
6.61536e-10
6.15144e-10
5.69921e-10
5.26125e-10
4.84058e-10
4.43931e-10
4.05906e-10
3.70096e-10
3.36554e-10
3.05254e-10
2.76144e-10
2.49211e-10
2.24305e-10
2.01619e-10
1.80329e-10
1.61354e-10
1.42107e-10
1.3056e-10
1.12078e-10
1.0932e-10
8.32048e-11
9.32583e-11
5.21377e-11
9.07388e-11
2.73513e-11
1.28304e-10
5.39193e-11
3.1715e-10
3.17444e-10
7.72848e-10
5.02907e-10
4.78855e-13
1.03735e-15
0
0
1.57398e-12
5.48268e-06
4.39017e-06
0.00152192
0.0190658
0.0802032
0.181513
0.270458
0.286084
0.209251
0.0862514
0.00534468
0.0286218
0.132544
0.216629
0.196401
0.0989051
0.0232281
0.0016566
6.54258e-06
1.61555e-07
0
0
0
2.67844e-14
7.72118e-12
8.6412e-10
1.41339e-09
1.08847e-09
8.98909e-10
8.73304e-10
8.69299e-10
8.49002e-10
8.24547e-10
8.01506e-10
7.77563e-10
7.51393e-10
7.23443e-10
6.94142e-10
6.63622e-10
6.32003e-10
5.99585e-10
5.66675e-10
5.33545e-10
5.00501e-10
4.67846e-10
4.35847e-10
4.04709e-10
3.74659e-10
3.45856e-10
3.18435e-10
2.92482e-10
2.68044e-10
2.45108e-10
2.2362e-10
2.03598e-10
1.84901e-10
1.67802e-10
1.51506e-10
1.3704e-10
1.2177e-10
1.13065e-10
9.73871e-11
9.63568e-11
7.32543e-11
8.40744e-11
4.63728e-11
8.42563e-11
2.48508e-11
1.23724e-10
5.30273e-11
3.15056e-10
3.21068e-10
7.81073e-10
5.25647e-10
3.87223e-10
3.68752e-12
6.44053e-15
0
0
0
1.71512e-06
1.25505e-06
0.000223095
0.00642611
0.0397465
0.113567
0.198078
0.237257
0.19722
0.0997218
0.0151646
0.00989422
0.0851996
0.166171
0.168797
0.094926
0.0255856
0.00225905
1.9115e-05
1.94306e-07
0
0
0
5.64507e-17
2.51038e-15
3.11288e-10
9.2533e-10
7.99603e-10
6.40485e-10
6.11191e-10
6.12887e-10
6.00121e-10
5.80227e-10
5.62296e-10
5.45611e-10
5.27749e-10
5.08223e-10
4.87499e-10
4.65918e-10
4.43676e-10
4.2097e-10
3.97982e-10
3.74955e-10
3.5211e-10
3.29652e-10
3.0774e-10
2.86536e-10
2.66155e-10
2.46705e-10
2.28243e-10
2.10811e-10
1.94372e-10
1.78895e-10
1.64385e-10
1.50695e-10
1.3816e-10
1.26002e-10
1.15285e-10
1.03448e-10
9.7151e-11
8.40041e-11
8.43688e-11
6.4106e-11
7.54133e-11
4.10518e-11
7.80287e-11
2.25016e-11
1.19042e-10
5.20903e-11
3.13536e-10
3.24872e-10
7.89809e-10
3.19471e-10
3.89591e-10
3.24549e-10
1.60584e-11
2.52461e-14
0
0
0
2.73011e-09
4.82316e-06
1.0939e-05
0.00164556
0.0170705
0.0654701
0.13829
0.19062
0.180079
0.107985
0.0267973
0.00175592
0.0520547
0.12558
0.143606
0.0896436
0.0272493
0.00287408
3.89635e-05
2.48792e-07
0
0
0
7.82615e-22
4.0803e-13
1.41344e-10
5.94984e-10
5.86348e-10
4.4787e-10
4.09033e-10
4.18709e-10
4.22144e-10
4.11592e-10
3.9716e-10
3.83741e-10
3.70679e-10
3.56849e-10
3.42066e-10
3.26641e-10
3.10849e-10
2.94827e-10
2.78749e-10
2.62767e-10
2.47053e-10
2.31714e-10
2.16868e-10
2.02619e-10
1.8902e-10
1.76122e-10
1.63934e-10
1.52439e-10
1.4158e-10
1.31352e-10
1.21615e-10
1.12701e-10
1.03893e-10
9.62233e-11
8.72516e-11
8.29652e-11
7.20317e-11
7.35063e-11
5.58051e-11
6.74325e-11
3.61505e-11
7.21636e-11
2.01539e-11
1.14754e-10
5.08048e-11
3.11977e-10
3.2932e-10
8.01926e-10
2.44392e-10
2.41044e-10
3.0171e-10
2.52054e-10
5.44661e-11
8.66879e-14
4.78404e-22
0
0
0
2.10768e-06
7.22387e-07
0.000252377
0.00566003
0.0320266
0.0870927
0.144178
0.159077
0.114038
0.0411714
0.000752922
0.0269567
0.0903683
0.120671
0.085453
0.0300241
0.00393329
8.10764e-05
1.42911e-07
4.13436e-08
0
0
0
1.28311e-13
3.51725e-11
3.41754e-10
4.8701e-10
3.85752e-10
3.00881e-10
2.79695e-10
2.82123e-10
2.8148e-10
2.7403e-10
2.64169e-10
2.54375e-10
2.44572e-10
2.34377e-10
2.23757e-10
2.12913e-10
2.02042e-10
1.91205e-10
1.80558e-10
1.70183e-10
1.60154e-10
1.5056e-10
1.41426e-10
1.328e-10
1.2465e-10
1.16995e-10
1.09757e-10
1.02913e-10
9.63524e-11
9.03549e-11
8.42802e-11
7.9139e-11
7.26019e-11
6.99876e-11
6.10984e-11
6.33755e-11
4.81993e-11
5.97451e-11
3.17639e-11
6.61906e-11
1.82309e-11
1.09834e-10
4.98786e-11
3.09415e-10
3.33387e-10
8.09595e-10
1.89463e-10
1.78249e-10
1.85633e-10
1.97074e-10
1.81838e-10
1.09643e-10
2.23567e-12
3.86201e-15
1.59765e-24
0
0
4.0844e-09
2.02842e-06
5.37361e-06
0.000665448
0.00724824
0.0308769
0.072353
0.10753
0.105253
0.0621255
0.0132665
0.00251539
0.0375439
0.0772508
0.0756202
0.03912
0.00954542
0.000842821
6.88994e-06
2.29535e-07
3.34663e-09
0
0
6.56949e-18
4.40242e-14
7.34127e-12
1.36667e-10
2.55524e-10
2.3498e-10
1.91246e-10
1.74318e-10
1.72825e-10
1.71779e-10
1.6723e-10
1.61027e-10
1.54725e-10
1.4842e-10
1.41977e-10
1.35437e-10
1.28859e-10
1.22403e-10
1.16133e-10
1.10106e-10
1.04354e-10
9.89185e-11
9.38365e-11
8.90736e-11
8.46449e-11
8.04682e-11
7.65353e-11
7.27236e-11
6.92797e-11
6.56438e-11
6.27155e-11
5.85032e-11
5.72863e-11
5.05624e-11
5.3242e-11
4.10157e-11
5.16438e-11
2.79854e-11
5.88538e-11
1.68382e-11
9.98139e-11
4.52999e-11
2.8224e-10
3.00898e-10
6.98584e-10
1.35717e-10
1.3081e-10
1.3215e-10
1.2923e-10
1.27152e-10
1.39707e-10
1.12511e-10
4.64699e-11
1.17879e-14
2.94787e-17
0
0
0
5.29864e-08
1.85672e-06
3.22234e-06
0.000419528
0.00475547
0.0209759
0.0504975
0.0757454
0.0726274
0.0396954
0.00609911
0.00403095
0.0324678
0.0555726
0.0462995
0.0202172
0.00412143
0.000285658
9.03326e-07
1.14283e-07
0
0
0
6.63688e-19
2.92371e-14
7.06265e-12
8.61802e-11
1.44479e-10
1.28051e-10
1.0523e-10
9.8157e-11
9.7845e-11
9.65811e-11
9.34309e-11
8.97475e-11
8.61625e-11
8.26139e-11
7.90533e-11
7.55719e-11
7.22114e-11
6.90516e-11
6.61042e-11
6.33996e-11
6.09609e-11
5.87587e-11
5.68111e-11
5.50245e-11
5.34026e-11
5.1813e-11
5.04532e-11
4.88601e-11
4.77706e-11
4.55475e-11
4.55461e-11
4.07637e-11
4.38192e-11
3.41651e-11
4.42331e-11
2.41295e-11
5.28658e-11
1.5403e-11
9.46338e-11
4.55478e-11
2.79881e-10
3.1497e-10
7.10316e-10
9.38523e-11
9.13227e-11
9.37797e-11
9.19107e-11
8.74784e-11
8.61771e-11
9.10551e-11
9.68085e-11
6.4263e-11
8.13107e-12
1.25801e-14
5.54004e-23
0
0
0
5.79604e-08
1.86982e-06
1.71621e-06
0.000311616
0.00368398
0.0164027
0.0391498
0.0569338
0.0509697
0.0237346
0.00165161
0.0067883
0.0295514
0.0398379
0.0270589
0.0094708
0.00144563
5.64355e-05
6.30971e-08
1.84717e-08
0
0
0
8.39113e-19
4.50564e-14
1.24339e-11
6.23369e-11
7.55776e-11
6.22821e-11
5.38871e-11
5.24445e-11
5.21942e-11
5.08411e-11
4.88728e-11
4.69026e-11
4.50685e-11
4.33329e-11
4.17016e-11
4.02534e-11
3.89977e-11
3.79584e-11
3.71482e-11
3.65525e-11
3.61671e-11
3.59231e-11
3.58154e-11
3.57154e-11
3.57659e-11
3.55871e-11
3.57761e-11
3.49759e-11
3.58463e-11
3.25918e-11
3.58839e-11
2.82946e-11
3.78879e-11
2.06612e-11
4.781e-11
1.38073e-11
9.06904e-11
4.49525e-11
2.80839e-10
3.25502e-10
7.20636e-10
6.16261e-11
6.39724e-11
6.33724e-11
6.11318e-11
5.88052e-11
5.75624e-11
5.87201e-11
6.55694e-11
6.03917e-11
3.08932e-11
2.86721e-13
6.21897e-16
0
0
0
0
4.9485e-08
1.71313e-06
1.78092e-06
0.000292937
0.0033019
0.0141061
0.032039
0.0433414
0.0343528
0.0121107
5.4848e-05
0.00976925
0.02584
0.0269799
0.0144367
0.00375513
0.000370689
4.57718e-06
8.42336e-08
8.46029e-12
0
0
0
2.20409e-15
4.15347e-13
1.74719e-11
3.70951e-11
3.45258e-11
2.83865e-11
2.63273e-11
2.60817e-11
2.55864e-11
2.46754e-11
2.3756e-11
2.29695e-11
2.23147e-11
2.18291e-11
2.15177e-11
2.14021e-11
2.14931e-11
2.17818e-11
2.22594e-11
2.28706e-11
2.36134e-11
2.43692e-11
2.524e-11
2.5907e-11
2.6853e-11
2.69559e-11
2.83334e-11
2.62106e-11
2.95486e-11
2.35991e-11
3.26404e-11
1.78314e-11
4.35251e-11
1.24541e-11
8.75443e-11
4.41221e-11
2.83238e-10
3.31217e-10
7.30127e-10
4.02622e-11
4.22069e-11
4.20017e-11
4.09485e-11
4.00064e-11
3.89064e-11
3.79402e-11
3.80556e-11
4.0354e-11
4.45724e-11
3.51173e-11
7.22797e-12
1.27034e-14
5.93724e-23
0
0
0
0
5.38566e-08
1.50664e-06
3.29204e-06
0.000336205
0.00333722
0.0130374
0.0270463
0.0325721
0.0213742
0.0045821
0.000902942
0.0121039
0.0211367
0.0166667
0.00660438
0.00114292
5.48062e-05
1.34899e-08
3.193e-08
0
0
0
1.66901e-19
3.38346e-20
2.9235e-12
1.27896e-11
1.5429e-11
1.28567e-11
1.13592e-11
1.11121e-11
1.10185e-11
1.07784e-11
1.05462e-11
1.04349e-11
1.04802e-11
1.06822e-11
1.10562e-11
1.16173e-11
1.23562e-11
1.32701e-11
1.43138e-11
1.54841e-11
1.66865e-11
1.79878e-11
1.91208e-11
2.04665e-11
2.11033e-11
2.27195e-11
2.14181e-11
2.46669e-11
2.0012e-11
2.84429e-11
1.56879e-11
3.99847e-11
1.14964e-11
8.50079e-11
4.32832e-11
2.86847e-10
3.32042e-10
7.41206e-10
2.55312e-11
2.68998e-11
2.68762e-11
2.63313e-11
2.58777e-11
2.53477e-11
2.49857e-11
2.43456e-11
2.39278e-11
2.44341e-11
2.7588e-11
2.74342e-11
1.59956e-11
2.03285e-13
5.46481e-16
5.60045e-27
0
0
0
0
7.16051e-08
1.09804e-06
7.6315e-06
0.000449797
0.00371004
0.0126705
0.0229889
0.0233807
0.0114855
0.000765868
0.00328609
0.0130393
0.015535
0.0088376
0.00235172
0.000227568
2.34628e-06
8.64003e-08
6.76112e-11
0
0
4.04494e-27
1.47357e-15
2.44691e-13
3.20333e-12
5.17784e-12
4.56393e-12
3.75581e-12
3.52232e-12
3.5404e-12
3.61751e-12
3.76747e-12
4.05154e-12
4.49222e-12
5.09144e-12
5.85187e-12
6.77208e-12
7.84793e-12
9.05205e-12
1.03742e-11
1.17471e-11
1.32124e-11
1.45458e-11
1.60393e-11
1.69382e-11
1.85857e-11
1.78355e-11
2.08994e-11
1.72437e-11
2.50345e-11
1.3992e-11
3.69551e-11
1.07217e-11
8.28586e-11
4.22257e-11
2.90762e-10
3.26247e-10
7.55358e-10
1.81188e-11
1.89714e-11
1.91107e-11
1.87643e-11
1.84245e-11
1.81711e-11
1.80318e-11
1.77256e-11
1.73878e-11
1.6951e-11
1.70679e-11
1.79687e-11
2.05169e-11
1.57133e-11
5.6061e-12
1.15661e-17
1.78413e-19
0
0
0
0
0
8.57683e-08
5.62643e-07
2.11488e-05
0.000677469
0.00441402
0.0125913
0.0190444
0.0152504
0.0045931
0.000107382
0.00597724
0.0119543
0.00965594
0.00368715
0.000571091
2.02623e-05
4.92217e-11
2.88191e-08
0
0
0
2.31754e-17
5.76975e-16
9.04259e-14
2.13967e-13
3.21433e-13
3.42258e-13
3.80595e-13
5.34053e-13
8.10345e-13
1.19986e-12
1.71626e-12
2.37824e-12
3.19118e-12
4.14867e-12
5.24598e-12
6.46098e-12
7.78915e-12
9.17796e-12
1.06624e-11
1.20481e-11
1.35486e-11
1.45509e-11
1.6125e-11
1.57311e-11
1.85755e-11
1.56853e-11
2.28669e-11
1.32116e-11
3.49926e-11
1.05865e-11
8.17026e-11
4.09718e-11
2.95674e-10
3.08506e-10
7.85384e-10
1.20941e-11
1.28274e-11
1.28964e-11
1.26316e-11
1.23943e-11
1.23406e-11
1.23767e-11
1.20749e-11
1.20074e-11
1.19092e-11
1.16384e-11
1.14893e-11
1.19737e-11
1.30197e-11
1.37863e-11
8.22713e-12
9.63976e-13
3.53711e-15
2.94462e-22
0
0
0
0
0
4.44889e-07
2.48262e-08
6.12251e-05
0.00108853
0.00538646
0.0122776
0.0145809
0.00813185
0.000764608
0.0017326
0.00770888
0.0089179
0.0045826
0.000996517
6.45076e-05
1.11604e-07
8.58724e-08
0
0
0
3.65292e-21
1.00338e-15
5.14551e-14
1.01678e-12
7.02191e-13
3.65516e-13
4.33438e-13
7.18286e-13
1.14968e-12
1.67891e-12
2.30125e-12
3.03771e-12
3.89007e-12
4.85452e-12
5.90695e-12
7.04734e-12
8.23832e-12
9.51211e-12
1.07128e-11
1.19882e-11
1.28315e-11
1.40996e-11
1.37684e-11
1.6225e-11
1.38027e-11
2.02613e-11
1.16548e-11
3.21046e-11
9.31649e-12
7.87004e-11
3.78565e-11
2.94839e-10
2.77174e-10
8.36072e-10
1.40873e-11
1.44914e-11
1.44606e-11
1.41549e-11
1.38672e-11
1.36741e-11
1.35611e-11
1.32638e-11
1.30687e-11
1.28434e-11
1.24967e-11
1.2196e-11
1.19718e-11
1.19059e-11
1.22242e-11
1.3289e-11
1.13479e-11
5.78627e-12
3.31333e-13
1.79294e-15
4.4515e-22
0
0
0
0
4.42861e-10
7.06989e-07
1.02306e-06
0.000171373
0.00182356
0.00680276
0.012221
0.0109981
0.0036598
9.62354e-05
0.00427436
0.00818427
0.00590848
0.00181866
0.000169325
3.82286e-06
1.00287e-07
9.02547e-08
1.09959e-08
2.50436e-11
0
2.0047e-19
2.04108e-19
1.60083e-12
5.67195e-12
4.97684e-12
3.80199e-12
3.63463e-12
4.02288e-12
4.61161e-12
5.29485e-12
6.07596e-12
6.96422e-12
7.94266e-12
9.00165e-12
1.01173e-11
1.13142e-11
1.24632e-11
1.36571e-11
1.44487e-11
1.55864e-11
1.53504e-11
1.76129e-11
1.55117e-11
2.15971e-11
1.34715e-11
3.35866e-11
1.05745e-11
8.17281e-11
3.4068e-11
3.0596e-10
2.28277e-10
1.02478e-09
1.03215e-11
1.04619e-11
1.05217e-11
1.06065e-11
1.06625e-11
1.07194e-11
1.08294e-11
1.09626e-11
1.10752e-11
1.11396e-11
1.12018e-11
1.13143e-11
1.14144e-11
1.15212e-11
1.16143e-11
1.21231e-11
1.30341e-11
1.36939e-11
1.14881e-11
6.54238e-12
3.47695e-13
1.39136e-15
0
0
0
0
0
2.09516e-08
4.48328e-07
1.6374e-06
0.000128456
0.00113533
0.00377918
0.00621161
0.00507038
0.0013675
0.000111194
0.00235117
0.00378758
0.00245413
0.000743561
0.000101738
4.46262e-06
5.56933e-09
2.18577e-08
2.75012e-09
0
1.80497e-25
1.11329e-15
4.82753e-13
4.90151e-12
8.06879e-12
8.15442e-12
7.84049e-12
7.87558e-12
8.12392e-12
8.44754e-12
8.80982e-12
9.20262e-12
9.61859e-12
1.00476e-11
1.05158e-11
1.09495e-11
1.14188e-11
1.15471e-11
1.18429e-11
1.11786e-11
1.25002e-11
1.05208e-11
1.50687e-11
8.10086e-12
2.45312e-11
4.7404e-12
6.5056e-11
2.33449e-11
2.53262e-10
2.27306e-10
9.98835e-10
)
;

boundaryField
{
    inlet
    {
        type            calculated;
        value           nonuniform List<scalar> 
27
(
2.83534e-08
2.84283e-08
2.85663e-08
2.87499e-08
2.89459e-08
2.91495e-08
2.93667e-08
2.95959e-08
2.98363e-08
3.00789e-08
3.03229e-08
3.05634e-08
3.07957e-08
3.10141e-08
3.12124e-08
3.13842e-08
3.15315e-08
3.12315e-08
3.12707e-08
3.12542e-08
3.11511e-08
3.09518e-08
3.06308e-08
3.01764e-08
2.95292e-08
2.88919e-08
2.76231e-08
)
;
    }
    outlet
    {
        type            calculated;
        value           nonuniform List<scalar> 
78
(
6.79461e-12
6.95485e-12
7.03777e-12
7.14624e-12
7.22807e-12
7.31128e-12
7.4494e-12
7.61137e-12
7.7537e-12
7.84905e-12
7.9431e-12
8.08694e-12
8.22765e-12
8.37615e-12
8.50937e-12
8.93841e-12
9.6382e-12
1.00962e-11
8.4526e-12
4.91233e-12
2.80329e-13
1.22679e-15
0
0
0
0
0
2.1147e-08
4.46248e-07
1.45686e-06
0.000126166
0.00112727
0.00377008
0.0062206
0.00510504
0.00139684
9.72113e-05
0.00230322
0.00374828
0.00244091
0.00074291
0.000102348
4.57721e-06
2.42085e-09
1.98869e-08
2.48695e-09
0
1.38496e-25
8.50976e-16
3.82574e-13
3.95603e-12
6.53609e-12
6.5858e-12
6.29045e-12
6.25496e-12
6.36585e-12
6.51252e-12
6.66874e-12
6.82964e-12
6.99475e-12
7.15728e-12
7.35248e-12
7.50846e-12
7.7258e-12
7.62447e-12
7.78916e-12
6.99328e-12
8.30446e-12
6.12764e-12
1.08945e-11
3.63957e-12
2.06119e-11
3.393e-13
6.02736e-11
1.87224e-11
2.36529e-10
2.28407e-10
8.94958e-10
)
;
    }
    walls
    {
        type            calculated;
        value           nonuniform List<scalar> 0();
    }
    frontAndBack
    {
        type            empty;
    }
    procBoundary7to3
    {
        type            processor;
        value           nonuniform List<scalar> 
16
(
1.02712e-09
1.0799e-09
6.30522e-10
4.57384e-10
3.58145e-10
2.62159e-10
1.76789e-10
1.18048e-10
6.28836e-11
6.28836e-11
4.09149e-11
2.59992e-11
1.84927e-11
1.21583e-11
1.46376e-11
1.00061e-11
)
;
    }
    procBoundary7to6
    {
        type            processor;
        value           nonuniform List<scalar> 
91
(
6.68172e-10
4.13774e-10
4.13774e-10
3.79222e-10
3.79222e-10
6.45077e-11
6.45077e-11
5.3581e-11
1.77204e-10
1.77204e-10
1.10775e-10
1.49488e-10
1.49488e-10
2.22112e-10
1.71599e-10
1.69076e-10
1.69076e-10
3.03803e-10
2.65672e-10
2.24695e-10
2.24695e-10
5.07269e-10
4.3709e-10
3.75155e-10
3.20828e-10
3.20828e-10
8.53003e-10
7.51368e-10
6.59773e-10
5.77668e-10
5.04368e-10
5.04368e-10
1.45932e-09
1.33066e-09
1.20824e-09
1.09251e-09
9.83945e-10
8.82802e-10
7.89185e-10
7.89185e-10
2.25972e-09
2.17793e-09
2.09263e-09
2.00379e-09
1.91162e-09
1.8166e-09
1.71927e-09
1.62031e-09
1.5205e-09
1.42076e-09
1.32175e-09
1.22429e-09
1.22429e-09
1.90494e-23
0
0
4.20087e-06
8.54074e-07
0.00106817
0.0192997
0.0952965
0.237352
0.384048
0.448377
0.380973
0.211926
0.0480372
0.00568662
0.115355
0.280649
0.347963
0.255107
0.101883
0.0172794
0.000723911
2.7851e-07
2.46799e-08
0
0
0
8.79519e-13
3.33243e-10
2.41922e-09
2.57418e-09
2.02836e-09
1.84585e-09
1.82343e-09
1.78811e-09
1.73369e-09
1.68056e-09
1.68056e-09
)
;
    }
}


// ************************************************************************* //
