# p  FACE_DATA 600
# x y z  p
0.29893883 -0.05 0.060006728 11762.25
0.29682219 -0.05 0.060005155 11770.122
0.29471691 -0.05 0.060001576 11779.958
0.29262294 -0.05 0.05999591 11789.635
0.29054021 -0.05 0.059988277 11798.748
0.28846868 -0.05 0.059978645 11809.165
0.28640827 -0.05 0.059967018 11818.43
0.28435895 -0.05 0.059953476 11828.504
0.28232063 -0.05 0.05993795 11838.743
0.28029328 -0.05 0.059920485 11848.797
0.27827682 -0.05 0.059901123 11858.91
0.27627121 -0.05 0.059879855 11869.357
0.27427639 -0.05 0.05985667 11879.952
0.2722923 -0.05 0.059831621 11890.24
0.27031889 -0.05 0.059804697 11901.197
0.26835611 -0.05 0.05977592 11911.475
0.26640388 -0.05 0.059745343 11922.149
0.26446217 -0.05 0.059712935 11933.028
0.26253092 -0.05 0.059678711 11944.009
0.26061007 -0.05 0.059642689 11955.176
0.25869957 -0.05 0.059604861 11966.501
0.25679937 -0.05 0.059565286 11977.384
0.25490941 -0.05 0.05952394 11989.211
0.25302965 -0.05 0.059480841 12000.133
0.25116001 -0.05 0.059436049 12011.575
0.24930047 -0.05 0.059389522 12023.159
0.24745095 -0.05 0.059341283 12034.856
0.24561142 -0.05 0.059291325 12046.992
0.24378182 -0.05 0.05923967 12058.766
0.24196209 -0.05 0.059186367 12070.565
0.24015219 -0.05 0.059131421 12082.432
0.23835206 -0.05 0.059074821 12094.542
0.23656166 -0.05 0.059016618 12106.206
0.23478094 -0.05 0.058956769 12119.29
0.23300984 -0.05 0.05889526 12131.362
0.23124831 -0.05 0.05883224 12143.059
0.22949632 -0.05 0.058767617 12156.459
0.22775381 -0.05 0.058701363 12168.966
0.22602071 -0.05 0.058633589 12181.429
0.22429701 -0.05 0.058564274 12194.05
0.22258262 -0.05 0.058493448 12206.471
0.22087753 -0.05 0.058421069 12220.192
0.21918166 -0.05 0.058347132 12233.021
0.21749499 -0.05 0.058271731 12245.833
0.21581745 -0.05 0.058194856 12258.752
0.21414901 -0.05 0.058116493 12272.009
0.21248962 -0.05 0.05803665 12285.311
0.21083923 -0.05 0.057955337 12298.834
0.20919779 -0.05 0.057872577 12312.156
0.20756526 -0.05 0.057788393 12325.701
0.20594158 -0.05 0.057702763 12339.602
0.20432673 -0.05 0.057615706 12353.136
0.20272065 -0.05 0.057527277 12366.464
0.20112329 -0.05 0.057437457 12380.395
0.19953461 -0.05 0.05734625 12394.301
0.19795458 -0.05 0.057253621 12409.117
0.19638314 -0.05 0.057159665 12422.038
0.19482023 -0.05 0.05706438 12436.915
0.19326584 -0.05 0.056967732 12450.551
0.19171991 -0.05 0.056869749 12465.362
0.19018239 -0.05 0.056770463 12478.91
0.18865324 -0.05 0.056669846 12494.485
0.18713243 -0.05 0.056567899 12508.435
0.18561991 -0.05 0.056464666 12523.781
0.18411563 -0.05 0.056360132 12538.09
0.18261956 -0.05 0.056254318 12553.332
0.18113166 -0.05 0.056147258 12567.103
0.17965186 -0.05 0.056038987 12582.207
0.17818015 -0.05 0.05592942 12597.678
0.17671648 -0.05 0.055818588 12612.842
0.1752608 -0.05 0.05570656 12627.487
0.17381309 -0.05 0.055593325 12642.907
0.17237329 -0.05 0.055478844 12658.308
0.17094135 -0.05 0.055363199 12673.152
0.16951726 -0.05 0.055246341 12689.693
0.16810097 -0.05 0.055128259 12705.014
0.16669242 -0.05 0.05500905 12720.45
0.16529159 -0.05 0.054888659 12736.701
0.16389844 -0.05 0.054767078 12752.548
0.16251292 -0.05 0.054644372 12768.088
0.161135 -0.05 0.054520532 12784.092
0.15976465 -0.05 0.054395554 12799.936
0.15840181 -0.05 0.054269449 12816.425
0.15704647 -0.05 0.054142171 12833.346
0.15569857 -0.05 0.05401378 12849.119
0.15435807 -0.05 0.053884336 12865.118
0.15302494 -0.05 0.053753791 12881.597
0.15169915 -0.05 0.053622161 12898.067
0.15038066 -0.05 0.053489407 12915.733
0.14906942 -0.05 0.053355551 12932.062
0.1477654 -0.05 0.053220679 12948.666
0.14646858 -0.05 0.053084715 12966.264
0.1451789 -0.05 0.052947683 12982.796
0.14389634 -0.05 0.052809659 12999.575
0.14262085 -0.05 0.05267058 13017.414
0.14135242 -0.05 0.052530426 13035.184
0.14009099 -0.05 0.052389231 13052.847
0.13883652 -0.05 0.052247036 13069.951
0.137589 -0.05 0.052103837 13087.694
0.13634838 -0.05 0.051959625 13104.762
0.13511461 -0.05 0.051814476 13122.074
0.1338877 -0.05 0.051668228 13142.2
0.13266759 -0.05 0.051520967 13158.138
0.13145422 -0.05 0.051372868 13175.633
0.13024759 -0.05 0.051223701 13195.526
0.12904768 -0.05 0.051073499 13213.574
0.12785442 -0.05 0.050922382 13231.766
0.12666779 -0.05 0.050770303 13250.405
0.12548777 -0.05 0.050617245 13269.335
0.12431431 -0.05 0.050463216 13287.703
0.12314738 -0.05 0.050308326 13304.971
0.12198694 -0.05 0.050152493 13325.431
0.12083299 -0.05 0.049995623 13345.205
0.11968547 -0.05 0.049837846 13364.025
0.11854435 -0.05 0.049679176 13383.263
0.11740961 -0.05 0.049519574 13402.85
0.11628122 -0.05 0.049359037 13422.605
0.11515913 -0.05 0.049197589 13442.093
0.11404333 -0.05 0.049035234 13461.727
0.11293377 -0.05 0.048871989 13480.974
0.11183042 -0.05 0.048707847 13500.789
0.11073327 -0.05 0.048542821 13520.478
0.10964229 -0.05 0.048376866 13541.91
0.10855744 -0.05 0.048209982 13562.216
0.10747868 -0.05 0.048042235 13582.867
0.106406 -0.05 0.04787359 13603.784
0.10533935 -0.05 0.047704062 13624.54
0.10427873 -0.05 0.047533647 13645.512
0.10322407 -0.05 0.047362394 13665.118
0.10217537 -0.05 0.04719032 13686.056
0.10113259 -0.05 0.047017348 13708.173
0.10009572 -0.05 0.046843455 13730.871
0.099064719 -0.05 0.046668685 13752.315
0.098039551 -0.05 0.046493118 13772.91
0.097020189 -0.05 0.046316733 13794.717
0.096006622 -0.05 0.046139442 13817.977
0.094998822 -0.05 0.045961241 13840.809
0.09399675 -0.05 0.045782217 13862.624
0.093000378 -0.05 0.045602371 13885.164
0.092009685 -0.05 0.045421665 13907.767
0.091024643 -0.05 0.045240119 13930.591
0.090045231 -0.05 0.045057701 13954.418
0.089071419 -0.05 0.044874428 13977.181
0.088103174 -0.05 0.044690349 14000.156
0.087140475 -0.05 0.044505439 14023.676
0.086183303 -0.05 0.044319663 14047.978
0.08523163 -0.05 0.044133032 14071.777
0.084285425 -0.05 0.043945577 14095.655
0.083344663 -0.05 0.043757308 14119.789
0.082409326 -0.05 0.043568191 14145.439
0.081479394 -0.05 0.04337819 14170.991
0.080554831 -0.05 0.043187382 14195.211
0.079635605 -0.05 0.042995792 14220.545
0.078721718 -0.05 0.042803304 14247.564
0.077813136 -0.05 0.042609969 14272.688
0.076909826 -0.05 0.042415818 14299.352
0.07601178 -0.05 0.042220793 14325.663
0.075118966 -0.05 0.042024933 14351.925
0.074231361 -0.05 0.041828237 14378.026
0.073348934 -0.05 0.04163074 14404.031
0.072471679 -0.05 0.041432371 14432.077
0.071599572 -0.05 0.041233139 14458.666
0.070732583 -0.05 0.041033074 14486.71
0.069870697 -0.05 0.040832148 14513.992
0.069013884 -0.05 0.040630397 14541.896
0.068162134 -0.05 0.040427777 14570.417
0.067315419 -0.05 0.040224307 14598.786
0.06647372 -0.05 0.040019973 14628.861
0.065637027 -0.05 0.039814748 14659.105
0.06480531 -0.05 0.039608654 14689.594
0.063978543 -0.05 0.039401719 14719.329
0.063156705 -0.05 0.039193946 14749.923
0.062339788 -0.05 0.038985286 14781.2
0.061527775 -0.05 0.038775725 14813.172
0.060720649 -0.05 0.038565255 14845.531
0.059918385 -0.05 0.038353894 14877.745
0.059120963 -0.05 0.03814165 14910.328
0.058328367 -0.05 0.037928504 14943.044
0.057540575 -0.05 0.037714473 14975.091
0.056757564 -0.05 0.037499567 15007.63
0.055979327 -0.05 0.037283751 15041.637
0.055205861 -0.05 0.03706696 15077.339
0.054437144 -0.05 0.036849222 15112.054
0.053673142 -0.05 0.036630582 15146.959
0.052913841 -0.05 0.036411033 15181.701
0.052159229 -0.05 0.036190552 15217.742
0.051409301 -0.05 0.035969101 15254.701
0.050664044 -0.05 0.035746666 15292.401
0.049923426 -0.05 0.035523297 15329.971
0.049187444 -0.05 0.035298949 15370.338
0.048456093 -0.05 0.035073588 15409.805
0.047729344 -0.05 0.034847258 15449.644
0.047007184 -0.05 0.034619944 15489.679
0.046289611 -0.05 0.034391604 15530.964
0.045576607 -0.05 0.034162252 15571.605
0.044868158 -0.05 0.033931882 15613.829
0.044164259 -0.05 0.033700465 15655.765
0.043464894 -0.05 0.033468005 15698.638
0.042770054 -0.05 0.033234487 15742.353
0.042079734 -0.05 0.032999885 15788.178
0.041393929 -0.05 0.032764174 15834.612
0.040712625 -0.05 0.032527361 15881.416
0.040035798 -0.05 0.032289471 15927.839
0.039363443 -0.05 0.032050489 15975.884
0.038695563 -0.05 0.031810365 16025.225
0.038032168 -0.05 0.031569045 16075.917
0.037373226 -0.05 0.031326581 16125.346
0.036718733 -0.05 0.03108296 16176.975
0.036068678 -0.05 0.030838173 16228.174
0.035423063 -0.05 0.030592193 16283.527
0.034781926 -0.05 0.030344893 16339.079
0.034145213 -0.05 0.030096392 16392.839
0.033512917 -0.05 0.029846677 16449.273
0.032885063 -0.05 0.029595666 16507.094
0.032261651 -0.05 0.029343341 16567.325
0.031642677 -0.05 0.029089693 16627.432
0.031028119 -0.05 0.028834753 16687.841
0.030417982 -0.05 0.028578493 16749.962
0.029812303 -0.05 0.028320809 16814.586
0.029211079 -0.05 0.0280617 16878.302
0.028614285 -0.05 0.027801211 16942.986
0.028021925 -0.05 0.027539318 17009.162
0.027434034 -0.05 0.027275938 17078.661
0.026850619 -0.05 0.027011044 17147.855
0.026271654 -0.05 0.026744689 17218.759
0.025697179 -0.05 0.02647678 17293.212
0.025127212 -0.05 0.026207275 17367.822
0.024561729 -0.05 0.025936225 17443.211
0.024000753 -0.05 0.025663583 17521.681
0.023444336 -0.05 0.025389243 17602.273
0.022892447 -0.05 0.025113275 17682.523
0.022345135 -0.05 0.024835581 17768.778
0.02180243 -0.05 0.024556113 17852.315
0.021264293 -0.05 0.024274957 17938.54
0.0207308 -0.05 0.023991978 18028.104
0.020201992 -0.05 0.023707108 18119.126
0.019677842 -0.05 0.023420417 18209.677
0.019158403 -0.05 0.023131824 18304.758
0.018643727 -0.05 0.022841258 18399.763
0.018133826 -0.05 0.022548716 18497.933
0.017628739 -0.05 0.022254151 18596.701
0.017128471 -0.05 0.021957583 18699.076
0.016633127 -0.05 0.021658866 18807.987
0.016142724 -0.05 0.021358 18918.091
0.015657283 -0.05 0.021054987 19036.756
0.015176888 -0.05 0.020749728 19161.548
0.014701579 -0.05 0.020442196 19293.767
0.014231398 -0.05 0.020132367 19431.868
0.013766434 -0.05 0.019820157 19577.583
0.013306742 -0.05 0.019505528 19725.714
0.012852374 -0.05 0.019188457 19879.428
0.012403439 -0.05 0.018868841 20035.697
0.01195997 -0.05 0.018546687 20194.554
0.011522076 -0.05 0.018221915 20358.146
0.011089809 -0.05 0.017894514 20524.399
0.0106633 -0.05 0.017564386 20699.339
0.010242659 -0.05 0.01723145 20875.57
0.009827894 -0.05 0.016895788 21057.963
0.0094192167 -0.05 0.016557218 21250.316
0.0090167438 -0.05 0.016215673 21445.18
0.0086204858 -0.05 0.015871238 21646.222
0.0082306648 -0.05 0.015523765 21859.032
0.0078474301 -0.05 0.015173187 22075.917
0.00747084 -0.05 0.014819531 22299.334
0.0071010571 -0.05 0.014462741 22531.318
0.0067383047 -0.05 0.014102727 22774.516
0.0063827544 -0.05 0.013739427 23023.216
0.0060345067 -0.05 0.013372862 23275.283
0.0056937565 -0.05 0.013003011 23532.681
0.0053606882 -0.05 0.012629837 23797.22
0.0050354824 -0.05 0.012253323 24073.481
0.0047183926 -0.05 0.01187344 24361.363
0.0044096379 -0.05 0.011490161 24658.916
0.0041094132 -0.05 0.011103483 24965.498
0.0038179536 -0.05 0.010713443 25280.933
0.0035354728 -0.05 0.01032007 25605.105
0.0032621919 -0.05 0.0099233916 25938.479
0.0029983702 -0.05 0.0095234712 26280.194
0.0027442429 -0.05 0.0091203468 26629.107
0.0025000604 -0.05 0.0087141009 26984.85
0.0022660754 -0.05 0.0083048554 27347.328
0.0020425146 -0.05 0.0078926699 27716.587
0.0018296563 -0.05 0.0074776735 28091.688
0.0016277487 -0.05 0.0070600557 28470.357
0.0014369745 -0.05 0.006639968 28851.54
0.0012575291 -0.05 0.0062175973 29234.878
0.0010896146 -0.05 0.0057931737 29620.351
0.00093341056 -0.05 0.0053669215 30004.703
0.00078906403 -0.05 0.0049390744 30386.112
0.00065670868 -0.05 0.0045099018 30763.436
0.00053653171 -0.05 0.0040796665 31136.492
0.00042862038 -0.05 0.003648665 31500.579
0.00033294635 -0.05 0.003217232 31854.567
0.00024951873 -0.05 0.002785685 32198.357
0.00017832254 -0.05 0.0023543467 32530.302
0.00011930806 -0.05 0.0019235435 32848.077
7.2389968e-05 -0.05 0.0014936046 33150.334
3.7448892e-05 -0.05 0.0010648563 33436.471
1.4332163e-05 -0.05 0.0006376208 33706.314
2.8544133e-06 -0.05 0.00021221054 33956.939
0.99884037 -0.05 0.00016828408 26608.767
0.99652103 -0.05 0.00050440213 26595.857
0.99420154 -0.05 0.0008395204 26558.651
0.99188191 -0.05 0.0011736208 26528.793
0.98956214 -0.05 0.0015067636 26496.459
0.98724223 -0.05 0.001838948 26465.466
0.9849222 -0.05 0.0021701636 26434.378
0.98260202 -0.05 0.0025004302 26403.642
0.98028169 -0.05 0.0028297328 26373.086
0.97796124 -0.05 0.0031580577 26342.687
0.97564065 -0.05 0.0034854377 26312.429
0.97331994 -0.05 0.0038118591 26282.292
0.97099908 -0.05 0.0041373159 26252.27
0.96867809 -0.05 0.0044618578 26222.302
0.96635696 -0.05 0.0047854478 26192.489
0.96403572 -0.05 0.0051081172 26162.646
0.96171435 -0.05 0.0054299032 26132.938
0.95939284 -0.05 0.0057507069 26103.322
0.95707121 -0.05 0.0060705875 26073.727
0.95474946 -0.05 0.0063895914 26044.213
0.95242757 -0.05 0.0067076389 26014.835
0.95010556 -0.05 0.0070248024 25985.393
0.94778344 -0.05 0.0073411105 25956.1
0.94546118 -0.05 0.0076564368 25926.932
0.94313881 -0.05 0.007970866 25897.751
0.94081631 -0.05 0.0082844406 25868.681
0.93849369 -0.05 0.0085971026 25839.709
0.93617096 -0.05 0.0089088655 25810.814
0.9338481 -0.05 0.0092197817 25781.944
0.93152513 -0.05 0.0095298292 25753.217
0.92920205 -0.05 0.00983897 25724.566
0.92687884 -0.05 0.010147248 25695.992
0.92455553 -0.05 0.01045465 25667.535
0.92223209 -0.05 0.010761189 25639.12
0.91990855 -0.05 0.011066875 25610.851
0.91758488 -0.05 0.011371653 25582.729
0.91526111 -0.05 0.011675608 25554.555
0.91293723 -0.05 0.011978761 25526.554
0.91061324 -0.05 0.012281 25498.732
0.90828913 -0.05 0.012582372 25470.924
0.90596492 -0.05 0.012882964 25443.163
0.90364059 -0.05 0.013182677 25415.702
0.90131615 -0.05 0.013481494 25388.249
0.89899162 -0.05 0.013779572 25360.743
0.89666698 -0.05 0.014076842 25333.517
0.89434222 -0.05 0.014373142 25306.521
0.89201737 -0.05 0.014668681 25279.277
0.88969241 -0.05 0.014963453 25252.426
0.88736734 -0.05 0.0152573 25225.667
0.88504217 -0.05 0.015550344 25198.935
0.8827169 -0.05 0.015842646 25172.242
0.88039152 -0.05 0.016134071 25145.925
0.87806604 -0.05 0.016424635 25119.527
0.87574046 -0.05 0.016714466 25093.25
0.87341478 -0.05 0.017003468 25067.15
0.871089 -0.05 0.017291665 25041.066
0.86876312 -0.05 0.017579058 25015.178
0.86643714 -0.05 0.017865646 24989.291
0.86411107 -0.05 0.018151445 24963.602
0.86178489 -0.05 0.018436407 24938.009
0.85945862 -0.05 0.018720606 24912.392
0.85713225 -0.05 0.019004019 24887.01
0.85480578 -0.05 0.019286574 24861.783
0.85247921 -0.05 0.019568355 24836.516
0.85015256 -0.05 0.019849418 24811.335
0.84782581 -0.05 0.020129657 24786.412
0.84549896 -0.05 0.020409081 24761.472
0.84317202 -0.05 0.020687756 24736.612
0.84084499 -0.05 0.020965643 24711.915
0.83851786 -0.05 0.021242672 24687.473
0.83619063 -0.05 0.021518954 24662.836
0.83386332 -0.05 0.021794529 24638.424
0.83153592 -0.05 0.022069294 24614.116
0.82920841 -0.05 0.022343258 24589.938
0.82688083 -0.05 0.02261648 24565.69
0.82455316 -0.05 0.022888925 24541.706
0.82222538 -0.05 0.023160547 24517.783
0.81989751 -0.05 0.023431389 24493.982
0.81756956 -0.05 0.023701494 24470.146
0.81524153 -0.05 0.023970846 24446.508
0.8129134 -0.05 0.024239417 24422.88
0.81058518 -0.05 0.02450723 24399.38
0.80825687 -0.05 0.024774258 24375.97
0.80592849 -0.05 0.02504053 24352.616
0.8036 -0.05 0.025306023 24329.407
0.80127144 -0.05 0.025570774 24306.114
0.79894279 -0.05 0.025834763 24283.097
0.79661404 -0.05 0.026097924 24260.113
0.79428522 -0.05 0.026360374 24237.068
0.79195631 -0.05 0.026622048 24214.327
0.78962731 -0.05 0.026882938 24191.466
0.78729823 -0.05 0.027143126 24168.726
0.78496906 -0.05 0.027402517 24146.138
0.78263981 -0.05 0.02766117 24123.403
0.78031048 -0.05 0.027919081 24100.942
0.77798106 -0.05 0.028176144 24078.582
0.77565155 -0.05 0.028432494 24056.044
0.77332196 -0.05 0.028688107 24033.788
0.77099228 -0.05 0.028942908 24011.519
0.76866253 -0.05 0.029196968 23989.278
0.7663327 -0.05 0.029450285 23967.087
0.76400278 -0.05 0.029702803 23945.058
0.76167277 -0.05 0.029954568 23922.921
0.75934268 -0.05 0.030205573 23901.017
0.75701251 -0.05 0.030455803 23879.007
0.75468227 -0.05 0.030705313 23857.076
0.75235193 -0.05 0.030954045 23835.204
0.75002152 -0.05 0.031202018 23813.326
0.74769103 -0.05 0.031449207 23791.591
0.74536045 -0.05 0.031695625 23769.783
0.7430298 -0.05 0.031941289 23748.068
0.74069906 -0.05 0.032186181 23726.324
0.73836824 -0.05 0.032430305 23704.674
0.73603734 -0.05 0.032673645 23683.046
0.73370637 -0.05 0.032916233 23661.357
0.73137531 -0.05 0.033158092 23639.642
0.72904417 -0.05 0.033399148 23618.112
0.72671295 -0.05 0.033639377 23596.545
0.72438166 -0.05 0.03387888 23574.836
0.72205028 -0.05 0.034117645 23553.206
0.71971882 -0.05 0.034355552 23531.733
0.71738729 -0.05 0.034592685 23510.001
0.71505567 -0.05 0.034829099 23488.372
0.71272397 -0.05 0.035064674 23466.79
0.71039219 -0.05 0.035299486 23445.017
0.70806035 -0.05 0.035533544 23423.35
0.70572841 -0.05 0.035766778 23401.625
0.70339641 -0.05 0.035999269 23379.758
0.70106433 -0.05 0.03623098 23357.938
0.69873216 -0.05 0.036461892 23335.986
0.69639992 -0.05 0.036691978 23314.1
0.69406759 -0.05 0.036921269 23291.992
0.69173519 -0.05 0.03714974 23270.05
0.68940271 -0.05 0.037377398 23247.809
0.68707015 -0.05 0.037604327 23225.502
0.68473752 -0.05 0.03783047 23203.061
0.68240481 -0.05 0.038055756 23180.675
0.68007201 -0.05 0.038280206 23158.051
0.67773914 -0.05 0.038503859 23135.386
0.67540619 -0.05 0.03872673 23112.441
0.67307317 -0.05 0.038948784 23089.504
0.67074007 -0.05 0.039170028 23066.219
0.66840689 -0.05 0.039390456 23042.938
0.66607364 -0.05 0.039610024 23019.364
0.6637403 -0.05 0.039828774 22995.678
0.66140688 -0.05 0.040046679 22971.735
0.6590734 -0.05 0.040263799 22947.488
0.65673983 -0.05 0.040480084 22923.114
0.65440618 -0.05 0.040695489 22898.458
0.65207246 -0.05 0.040910082 22873.485
0.64973866 -0.05 0.041123838 22848.274
0.64740478 -0.05 0.04133674 22822.71
0.64507083 -0.05 0.041548788 22796.882
0.6427368 -0.05 0.04175995 22770.717
0.64040268 -0.05 0.041970278 22744.129
0.6380685 -0.05 0.042179753 22717.224
0.63573424 -0.05 0.042388355 22689.871
0.63339989 -0.05 0.042596094 22662.147
0.63106547 -0.05 0.042802945 22633.967
0.62873097 -0.05 0.04300894 22605.298
0.6263964 -0.05 0.043214055 22576.19
0.62406174 -0.05 0.043418269 22546.569
0.62172702 -0.05 0.043621601 22516.416
0.61939221 -0.05 0.043824069 22485.665
0.61705733 -0.05 0.044025645 22454.388
0.61472237 -0.05 0.044226271 22422.541
0.61238733 -0.05 0.044426006 22389.999
0.61005222 -0.05 0.04462488 22356.814
0.60771702 -0.05 0.044822825 22322.981
0.60538174 -0.05 0.045019806 22288.474
0.6030464 -0.05 0.045215861 22253.206
0.60071097 -0.05 0.045411024 22217.187
0.59837546 -0.05 0.045605254 22180.411
0.59603988 -0.05 0.045798556 22142.794
0.59370423 -0.05 0.045990938 22104.363
0.59136849 -0.05 0.046182352 22065.089
0.58903267 -0.05 0.046372791 22024.948
0.58669678 -0.05 0.046562266 21983.899
0.5843608 -0.05 0.046750814 21941.891
0.58202475 -0.05 0.046938396 21898.977
0.57968862 -0.05 0.047124972 21855.078
0.57735242 -0.05 0.047310579 21810.171
0.57501614 -0.05 0.047495251 21764.198
0.57267978 -0.05 0.047678924 21717.244
0.57034334 -0.05 0.04786155 21669.232
0.56800683 -0.05 0.048043188 21620.153
0.56567024 -0.05 0.048223861 21569.965
0.56333356 -0.05 0.048403536 21518.693
0.56099681 -0.05 0.048582153 21466.306
0.55865998 -0.05 0.04875972 21412.789
0.55632308 -0.05 0.048936314 21358.104
0.55398609 -0.05 0.049111879 21302.296
0.55164903 -0.05 0.049286359 21245.293
0.54931189 -0.05 0.049459794 21187.17
0.54697467 -0.05 0.049632163 21127.912
0.54463737 -0.05 0.049803468 21067.481
0.5423 -0.05 0.049973719 21005.817
0.53996254 -0.05 0.050142913 20943.019
0.53762502 -0.05 0.050311035 20879.074
0.53528742 -0.05 0.050478054 20813.949
0.53294973 -0.05 0.050643972 20747.687
0.53061196 -0.05 0.050808824 20680.31
0.52827412 -0.05 0.050972558 20611.729
0.5259362 -0.05 0.051135143 20542.047
0.5235982 -0.05 0.051296612 20471.372
0.52126012 -0.05 0.051456922 20399.625
0.51892198 -0.05 0.051616121 20326.806
0.51658374 -0.05 0.051774162 20253
0.51424543 -0.05 0.051931036 20178.147
0.51190704 -0.05 0.05208678 20102.368
0.50956857 -0.05 0.052241321 20025.622
0.50723003 -0.05 0.052394685 19947.989
0.50489141 -0.05 0.052546885 19869.476
0.50255271 -0.05 0.05269791 19790.14
0.50021394 -0.05 0.052847701 19710.015
0.49787509 -0.05 0.052996281 19629.134
0.49553616 -0.05 0.053143654 19547.572
0.49319715 -0.05 0.053289801 19465.362
0.49085807 -0.05 0.053434697 19382.595
0.48851891 -0.05 0.05357832 19299.297
0.48617967 -0.05 0.053720679 19215.551
0.48384036 -0.05 0.053861795 19131.359
0.48150096 -0.05 0.054001669 19046.754
0.4791615 -0.05 0.054140241 18961.694
0.47682195 -0.05 0.054277501 18876.182
0.47448234 -0.05 0.054413462 18790.219
0.47214264 -0.05 0.054548109 18703.885
0.46980287 -0.05 0.054681459 18617.262
0.46746302 -0.05 0.054813494 18530.476
0.4651231 -0.05 0.054944177 18443.571
0.4627831 -0.05 0.055073496 18356.637
0.46044304 -0.05 0.055201437 18269.528
0.45810288 -0.05 0.055328007 18181.94
0.45576266 -0.05 0.055453195 18093.192
0.45342237 -0.05 0.055576996 18002.294
0.451082 -0.05 0.05569938 17907.958
0.44874156 -0.05 0.055820362 17808.617
0.44640104 -0.05 0.055939944 17702.584
0.44406046 -0.05 0.056058044 17587.201
0.4417198 -0.05 0.056174717 17457.4
0.43937906 -0.05 0.05628996 17307.799
0.43703826 -0.05 0.056403696 17132.302
0.43469738 -0.05 0.056515954 16919.768
0.43235643 -0.05 0.056626691 16662.684
0.43001541 -0.05 0.056735938 16352.241
0.42767432 -0.05 0.056843696 15958.439
0.42533317 -0.05 0.056949929 15433.429
0.42299193 -0.05 0.057054582 14764.125
0.42065064 -0.05 0.05715767 14003.247
0.41830927 -0.05 0.057259222 13260.544
0.41596783 -0.05 0.057359191 12640.556
0.41362633 -0.05 0.057457551 12189.051
0.41128476 -0.05 0.057554292 11890.968
0.40894313 -0.05 0.057649427 11708.305
0.40660142 -0.05 0.057742965 11601.539
0.40425966 -0.05 0.057834838 11542.349
0.40191783 -0.05 0.057925023 11511.685
0.39957593 -0.05 0.058013541 11497.018
0.39723398 -0.05 0.058100378 11490.568
0.39489196 -0.05 0.058185525 11488.499
0.39254988 -0.05 0.058268918 11488.197
0.39020774 -0.05 0.058350591 11489.388
0.38786553 -0.05 0.058430541 11491.988
0.38552326 -0.05 0.058508715 11495.656
0.38318094 -0.05 0.058585094 11499.732
0.38083857 -0.05 0.058659688 11504.04
0.37849613 -0.05 0.058732482 11508.569
0.37615364 -0.05 0.058803471 11513.198
0.37381109 -0.05 0.058872605 11518.508
0.37146848 -0.05 0.058939856 11523.7
0.36912583 -0.05 0.059005237 11529.119
0.36678312 -0.05 0.059068742 11534.433
0.36444037 -0.05 0.059130353 11540.09
0.36209757 -0.05 0.059190049 11545.671
0.35975471 -0.05 0.059247824 11551.616
0.35741181 -0.05 0.059303603 11558.082
0.35506885 -0.05 0.059357402 11564.092
0.35272586 -0.05 0.059409225 11570.585
0.35038283 -0.05 0.059459045 11576.807
0.34803975 -0.05 0.059506859 11583.533
0.34569662 -0.05 0.059552581 11590.686
0.34335347 -0.05 0.059596249 11597.208
0.34101027 -0.05 0.059637862 11604.507
0.33866703 -0.05 0.059677333 11611.9
0.33632377 -0.05 0.059714702 11619.176
0.33398046 -0.05 0.059749909 11627.246
0.33163713 -0.05 0.059782951 11634.595
0.32929376 -0.05 0.059813858 11642.502
0.32695037 -0.05 0.059842535 11650.843
0.32460696 -0.05 0.059868968 11659.195
0.32226351 -0.05 0.059893141 11667.835
0.31992004 -0.05 0.059915067 11676.048
0.31757656 -0.05 0.059934727 11684.901
0.31523306 -0.05 0.059952066 11693.781
0.31288954 -0.05 0.059967055 11703.138
0.31054601 -0.05 0.059979678 11712.188
0.30820247 -0.05 0.059989926 11721.534
0.30585891 -0.05 0.059997793 11730.645
0.30351535 -0.05 0.060003209 11741.017
0.30117178 -0.05 0.060006157 11751.491
