/*--------------------------------*- C++ -*----------------------------------*\
| =========                 |                                                 |
| \\      /  F ield         | OpenFOAM: The Open Source CFD Toolbox           |
|  \\    /   O peration     | Version:  2306                                  |
|   \\  /    A nd           | Website:  www.openfoam.com                      |
|    \\/     M anipulation  |                                                 |
\*---------------------------------------------------------------------------*/
FoamFile
{
    version     2.0;
    format      ascii;
    arch        "LSB;label=32;scalar=64";
    class       volScalarField;
    location    "925";
    object      turbulenceProperties:k;
}
// * * * * * * * * * * * * * * * * * * * * * * * * * * * * * * * * * * * * * //

dimensions      [0 2 -2 0 0 0 0];

internalField   nonuniform List<scalar> 
1340
(
9.39406e-07
7.13838e-07
9.5311e-07
6.92252e-07
6.91608e-07
9.52811e-07
2.88855e-07
6.83366e-07
6.76888e-07
9.56726e-07
2.58105e-07
4.73852e-07
2.86152e-07
6.76263e-07
6.64345e-07
9.63185e-07
3.6736e-07
4.31548e-07
2.50344e-07
4.65126e-07
2.83356e-07
6.69847e-07
6.54196e-07
9.69741e-07
5.18166e-07
4.54841e-07
4.54827e-07
3.52639e-07
4.19515e-07
2.422e-07
4.56605e-07
2.80639e-07
6.64336e-07
6.46902e-07
9.75877e-07
5.98671e-07
5.61756e-07
5.17132e-07
4.9557e-07
4.34458e-07
4.37905e-07
3.37694e-07
4.07359e-07
2.33793e-07
4.48479e-07
2.77984e-07
6.59859e-07
6.42298e-07
9.81479e-07
7.59787e-07
7.08025e-07
6.58408e-07
6.11309e-07
5.65293e-07
5.32377e-07
4.90613e-07
4.7266e-07
4.13886e-07
4.20727e-07
3.2262e-07
3.95137e-07
2.25182e-07
4.40675e-07
2.75409e-07
6.56173e-07
6.39759e-07
9.87373e-07
9.6133e-07
9.05898e-07
8.52317e-07
8.00724e-07
7.51191e-07
7.03748e-07
6.58468e-07
6.14732e-07
5.73187e-07
5.3178e-07
5.02783e-07
4.63882e-07
4.49439e-07
3.93124e-07
4.03289e-07
3.07413e-07
3.82808e-07
2.16391e-07
4.3304e-07
2.72959e-07
6.53008e-07
6.38847e-07
9.92599e-07
1.21831e-06
1.16756e-06
1.11663e-06
1.06576e-06
1.01526e-06
9.65367e-07
9.16318e-07
8.68317e-07
8.21533e-07
7.76083e-07
7.32069e-07
6.89595e-07
6.48678e-07
6.09509e-07
5.71371e-07
5.35164e-07
4.98262e-07
4.7309e-07
4.37043e-07
4.25993e-07
3.72246e-07
3.8564e-07
2.92137e-07
3.70376e-07
2.07474e-07
4.25504e-07
2.70624e-07
6.50249e-07
6.4004e-07
9.97761e-07
1.46359e-06
1.43982e-06
1.41439e-06
1.38721e-06
1.35819e-06
1.32731e-06
1.29463e-06
1.26023e-06
1.22422e-06
1.1868e-06
1.14813e-06
1.10839e-06
1.06785e-06
1.02671e-06
9.8523e-07
9.43607e-07
9.02095e-07
8.60906e-07
8.20242e-07
7.80284e-07
7.41173e-07
7.03011e-07
6.65873e-07
6.29863e-07
5.9498e-07
5.61513e-07
5.28648e-07
4.97525e-07
4.64989e-07
4.43514e-07
4.10293e-07
4.02481e-07
3.51396e-07
3.67882e-07
2.76885e-07
3.57884e-07
1.9852e-07
4.18087e-07
2.68347e-07
6.47837e-07
6.42351e-07
1.00285e-06
2.13796e-08
1.3013e-09
0
0
3.87292e-05
7.97789e-05
0.00693354
0.087806
0.339517
0.751269
1.1908
1.49859
1.55142
1.29145
0.745583
0.0792165
0.717463
1.25787
1.4262
1.16671
0.651891
0.21235
0.029362
0.00031317
3.53522e-05
0
0
0
2.72137e-08
3.72169e-07
1.40733e-06
1.57247e-06
1.37819e-06
1.29216e-06
1.2859e-06
1.27979e-06
1.26252e-06
1.24357e-06
1.22512e-06
1.20575e-06
1.18488e-06
1.16252e-06
1.13863e-06
1.11316e-06
1.08616e-06
1.0577e-06
1.02795e-06
9.97066e-07
9.65186e-07
9.32498e-07
8.99207e-07
8.65523e-07
8.31603e-07
7.97665e-07
7.63888e-07
7.3044e-07
6.97475e-07
6.65118e-07
6.33435e-07
6.02474e-07
5.72339e-07
5.42986e-07
5.14794e-07
4.86853e-07
4.60525e-07
4.32184e-07
4.14252e-07
3.83811e-07
3.79057e-07
3.30694e-07
3.50101e-07
2.61772e-07
3.45334e-07
1.89596e-07
4.1064e-07
2.66206e-07
6.45622e-07
6.4595e-07
1.00789e-06
8.12327e-07
3.97273e-08
2.54476e-09
0
0
6.82596e-08
0.000504674
0.000895142
0.0352227
0.192611
0.517706
0.927299
1.2698
1.40821
1.26261
0.832485
0.209832
0.487071
1.03595
1.27197
1.10794
0.665023
0.240643
0.0383776
0.000732629
6.06445e-05
0
0
0
9.94872e-09
1.21771e-07
1.06476e-06
1.37189e-06
1.19806e-06
1.08678e-06
1.0712e-06
1.06894e-06
1.0564e-06
1.04106e-06
1.02641e-06
1.01097e-06
9.93815e-07
9.75153e-07
9.552e-07
9.33965e-07
9.11444e-07
8.87761e-07
8.63053e-07
8.37446e-07
8.11098e-07
7.84193e-07
7.569e-07
7.29362e-07
7.01763e-07
6.74249e-07
6.46968e-07
6.20043e-07
5.93574e-07
5.67611e-07
5.42159e-07
5.17317e-07
4.92992e-07
4.69642e-07
4.46254e-07
4.24413e-07
4.00066e-07
3.85499e-07
3.57774e-07
3.55875e-07
3.10291e-07
3.32416e-07
2.46876e-07
3.3277e-07
1.80722e-07
4.03243e-07
2.63994e-07
6.43486e-07
6.49627e-07
1.01324e-06
8.33615e-07
7.19808e-07
7.27216e-08
4.25863e-09
0
0
0
0.000154368
0.000252968
0.010256
0.095102
0.329593
0.688561
1.04437
1.25142
1.2084
0.888492
0.352282
0.285952
0.831909
1.12175
1.04293
0.670588
0.265537
0.0488974
0.00169057
8.8458e-05
0
0
0
6.32159e-10
3.35441e-09
6.43104e-07
1.10835e-06
1.02763e-06
9.17461e-07
8.96133e-07
8.97602e-07
8.88228e-07
8.73314e-07
8.59691e-07
8.46849e-07
8.3288e-07
8.17328e-07
8.00489e-07
7.82571e-07
7.63664e-07
7.43867e-07
7.23272e-07
7.02037e-07
6.80315e-07
6.58263e-07
6.3601e-07
6.13708e-07
5.9148e-07
5.69459e-07
5.47736e-07
5.26404e-07
5.05463e-07
4.84922e-07
4.64838e-07
4.45062e-07
4.26148e-07
4.06965e-07
3.89271e-07
3.68743e-07
3.57342e-07
3.32284e-07
3.33002e-07
2.90271e-07
3.14829e-07
2.32281e-07
3.20236e-07
1.71968e-07
3.9554e-07
2.61651e-07
6.41932e-07
6.53464e-07
1.01889e-06
6.46764e-07
7.16567e-07
6.54805e-07
1.5952e-07
8.70572e-09
0
0
0
1.95831e-06
0.000530462
0.00157751
0.0392501
0.190402
0.483215
0.830894
1.08861
1.13468
0.915985
0.466166
0.12016
0.650469
0.980391
0.974795
0.668434
0.286153
0.0595446
0.0029745
0.000122155
0
0
0
4.34414e-12
3.17072e-08
4.37358e-07
8.87858e-07
8.80872e-07
7.67107e-07
7.32809e-07
7.41699e-07
7.44954e-07
7.35585e-07
7.22525e-07
7.10197e-07
6.9801e-07
6.84872e-07
6.70537e-07
6.55244e-07
6.3921e-07
6.2252e-07
6.05309e-07
5.87701e-07
5.69858e-07
5.51884e-07
5.33913e-07
5.16075e-07
4.98456e-07
4.8115e-07
4.64203e-07
4.47632e-07
4.31394e-07
4.15518e-07
3.9982e-07
3.84888e-07
3.6954e-07
3.55637e-07
3.38649e-07
3.30225e-07
3.07696e-07
3.10827e-07
2.70827e-07
2.97704e-07
2.17974e-07
3.07966e-07
1.6275e-07
3.88351e-07
2.58403e-07
6.40334e-07
6.57924e-07
1.02668e-06
5.66692e-07
5.62673e-07
6.30901e-07
5.77015e-07
2.73292e-07
1.46375e-08
3.09096e-12
0
0
0
0.00021091
0.00023943
0.0117147
0.0926842
0.303782
0.616864
0.909518
1.04281
0.931157
0.575514
0.0786117
0.468953
0.837065
0.90654
0.670215
0.314384
0.0754248
0.00493951
0.000112045
1.10342e-05
0
0
0
1.88485e-08
2.27105e-07
6.71154e-07
8.07993e-07
7.14301e-07
6.28786e-07
6.06047e-07
6.0884e-07
6.08279e-07
6.00187e-07
5.89265e-07
5.78229e-07
5.66981e-07
5.55041e-07
5.42322e-07
5.29017e-07
5.15336e-07
5.01327e-07
4.87169e-07
4.72967e-07
4.5882e-07
4.44865e-07
4.3116e-07
4.17804e-07
4.04781e-07
3.92155e-07
3.79831e-07
3.67798e-07
3.5588e-07
3.44625e-07
3.32838e-07
3.22524e-07
3.08915e-07
3.033e-07
2.83384e-07
2.88615e-07
2.51695e-07
2.80222e-07
2.04322e-07
2.94946e-07
1.54791e-07
3.79934e-07
2.56036e-07
6.37698e-07
6.61975e-07
1.03158e-06
4.99517e-07
4.84107e-07
4.93983e-07
5.09839e-07
4.89682e-07
3.79668e-07
6.17227e-08
3.55378e-09
2.38646e-13
0
0
2.32532e-06
0.000333998
0.00106456
0.0228347
0.113923
0.310517
0.574143
0.794638
0.853629
0.688974
0.326371
0.142827
0.543605
0.744191
0.667603
0.402441
0.1476
0.0275621
0.000950534
0.000100271
2.16916e-06
0
0
2.30242e-10
1.13585e-08
1.09079e-07
4.23511e-07
5.82788e-07
5.57571e-07
5.01496e-07
4.78503e-07
4.76524e-07
4.75174e-07
4.68858e-07
4.60067e-07
4.50968e-07
4.41686e-07
4.31996e-07
4.21929e-07
4.11557e-07
4.01114e-07
3.90707e-07
3.80435e-07
3.70365e-07
3.60591e-07
3.51206e-07
3.42177e-07
3.33562e-07
3.25228e-07
3.1718e-07
3.0918e-07
3.0177e-07
2.93743e-07
2.87115e-07
2.77304e-07
2.74403e-07
2.57795e-07
2.64537e-07
2.32183e-07
2.60532e-07
1.91785e-07
2.78119e-07
1.48761e-07
3.6219e-07
2.44002e-07
6.09052e-07
6.28893e-07
9.58253e-07
4.22607e-07
4.14652e-07
4.16562e-07
4.12043e-07
4.0899e-07
4.29462e-07
3.84457e-07
2.4791e-07
5.75e-09
3.95979e-10
0
0
0
9.69563e-06
0.00030891
0.00078308
0.0171625
0.0883289
0.247483
0.468134
0.655791
0.701007
0.546368
0.219753
0.17917
0.497111
0.611624
0.494882
0.266637
0.0868265
0.0137359
0.000228712
4.92137e-05
0
0
0
8.05122e-11
9.15874e-09
1.04071e-07
3.36265e-07
4.38394e-07
4.11348e-07
3.71919e-07
3.59075e-07
3.58582e-07
3.56315e-07
3.50455e-07
3.43467e-07
3.36535e-07
3.29534e-07
3.22356e-07
3.15179e-07
3.08092e-07
3.01276e-07
2.94777e-07
2.88684e-07
2.83077e-07
2.77917e-07
2.73272e-07
2.68941e-07
2.64946e-07
2.60973e-07
2.57525e-07
2.53425e-07
2.50582e-07
2.44681e-07
2.44675e-07
2.31472e-07
2.39989e-07
2.11908e-07
2.41116e-07
1.78083e-07
2.63592e-07
1.4228e-07
3.52666e-07
2.44668e-07
6.065e-07
6.43432e-07
9.66269e-07
3.51064e-07
3.46208e-07
3.50817e-07
3.47335e-07
3.38908e-07
3.36519e-07
3.46253e-07
3.57424e-07
2.90275e-07
1.07118e-07
5.72528e-09
1.1152e-12
0
0
0
9.94944e-06
0.00029007
0.000532048
0.0142862
0.0761
0.215852
0.408661
0.565718
0.585579
0.421472
0.113798
0.230034
0.463292
0.495452
0.352089
0.16381
0.0437449
0.0045708
8.10696e-05
7.51915e-06
0
0
0
8.64467e-11
1.06613e-08
1.31023e-07
2.86833e-07
3.16797e-07
2.8641e-07
2.66061e-07
2.62489e-07
2.61926e-07
2.58527e-07
2.53466e-07
2.483e-07
2.43397e-07
2.38666e-07
2.34131e-07
2.3003e-07
2.26414e-07
2.23376e-07
2.2098e-07
2.192e-07
2.18041e-07
2.17304e-07
2.16977e-07
2.16673e-07
2.16826e-07
2.16282e-07
2.16854e-07
2.14414e-07
2.17064e-07
2.06975e-07
2.17175e-07
1.92845e-07
2.23154e-07
1.64789e-07
2.50671e-07
1.34709e-07
3.4524e-07
2.43064e-07
6.07536e-07
6.54101e-07
9.73266e-07
2.84299e-07
2.89674e-07
2.88384e-07
2.83285e-07
2.77872e-07
2.74981e-07
2.77868e-07
2.94139e-07
2.82035e-07
2.0138e-07
2.29328e-08
1.48315e-09
0
0
0
0
8.89971e-06
0.000276804
0.000541241
0.0138799
0.0723004
0.201064
0.37155
0.495995
0.482305
0.301
0.0205884
0.271076
0.418222
0.383894
0.233929
0.0888885
0.0175989
0.00080536
5.96888e-05
1.25473e-07
0
0
0
2.74175e-09
2.73373e-08
1.51493e-07
2.22165e-07
2.1366e-07
1.93178e-07
1.8597e-07
1.85142e-07
1.83403e-07
1.80108e-07
1.76716e-07
1.73766e-07
1.71271e-07
1.69397e-07
1.68184e-07
1.67732e-07
1.68088e-07
1.69213e-07
1.71057e-07
1.73389e-07
1.76182e-07
1.78978e-07
1.82147e-07
1.84537e-07
1.87875e-07
1.88233e-07
1.92982e-07
1.8561e-07
1.97074e-07
1.76119e-07
2.07125e-07
1.53089e-07
2.39175e-07
1.27938e-07
3.39199e-07
2.40809e-07
6.10126e-07
6.5982e-07
9.79657e-07
2.29838e-07
2.35346e-07
2.34837e-07
2.31899e-07
2.29234e-07
2.26077e-07
2.23262e-07
2.23672e-07
2.30515e-07
2.42636e-07
2.14815e-07
9.92534e-08
5.58429e-09
1.12242e-12
0
0
0
0
9.45849e-06
0.000274784
0.000783091
0.0154731
0.0748205
0.197762
0.347565
0.435609
0.383051
0.184942
0.0826403
0.293956
0.360254
0.277998
0.138934
0.0399685
0.00480869
1.30527e-05
1.36444e-05
0
0
0
3.96547e-11
1.87754e-11
6.33224e-08
1.29984e-07
1.43087e-07
1.30095e-07
1.22161e-07
1.20839e-07
1.20352e-07
1.19037e-07
1.17745e-07
1.17122e-07
1.17376e-07
1.18502e-07
1.20558e-07
1.23579e-07
1.27448e-07
1.32076e-07
1.37171e-07
1.42668e-07
1.48103e-07
1.53769e-07
1.58537e-07
1.6402e-07
1.66551e-07
1.72809e-07
1.67786e-07
1.80061e-07
1.62183e-07
1.93349e-07
1.43593e-07
2.29242e-07
1.2292e-07
3.34249e-07
2.38508e-07
6.14e-07
6.60641e-07
9.87065e-07
1.83101e-07
1.87961e-07
1.87919e-07
1.86011e-07
1.84408e-07
1.82517e-07
1.81213e-07
1.78877e-07
1.77349e-07
1.79281e-07
1.90787e-07
1.90221e-07
1.44889e-07
1.90675e-08
1.37032e-09
1.8367e-14
0
0
0
0
1.17271e-05
0.000251342
0.00127931
0.0191009
0.0830149
0.202668
0.329663
0.375922
0.283135
0.0753242
0.154882
0.293609
0.288154
0.1806
0.0690382
0.0134088
0.000545032
5.64216e-05
3.18292e-07
0
0
1.56638e-14
2.10384e-09
1.96103e-08
6.48523e-08
8.30001e-08
7.76047e-08
7.02608e-08
6.80374e-08
6.82271e-08
6.89678e-08
7.03781e-08
7.29809e-08
7.68475e-08
8.18124e-08
8.77089e-08
9.43526e-08
1.0157e-07
1.09084e-07
1.16778e-07
1.24265e-07
1.31786e-07
1.38276e-07
1.45201e-07
1.49213e-07
1.563e-07
1.53112e-07
1.65741e-07
1.50548e-07
1.81395e-07
1.3561e-07
2.20386e-07
1.18707e-07
3.29996e-07
2.35576e-07
6.18176e-07
6.54851e-07
9.96447e-07
1.543e-07
1.57892e-07
1.58489e-07
1.57047e-07
1.55618e-07
1.54544e-07
1.53951e-07
1.52638e-07
1.51174e-07
1.49258e-07
1.49804e-07
1.53807e-07
1.64665e-07
1.43646e-07
8.66005e-08
2.44278e-10
3.95491e-11
0
0
0
0
0
5.43191e-05
6.7343e-05
0.00260546
0.0258677
0.0972484
0.212787
0.31101
0.310072
0.180243
0.0279406
0.20295
0.265471
0.205719
0.0994512
0.0263419
0.00255447
9.83624e-07
1.34484e-05
0
0
0
3.13132e-10
1.13881e-09
1.09328e-08
1.68559e-08
2.06146e-08
2.12104e-08
2.23608e-08
2.64964e-08
3.26442e-08
3.97198e-08
4.75002e-08
5.59138e-08
6.47687e-08
7.38488e-08
8.30425e-08
9.21583e-08
1.01188e-07
1.09839e-07
1.18388e-07
1.25846e-07
1.33451e-07
1.38299e-07
1.45586e-07
1.43796e-07
1.56255e-07
1.43584e-07
1.73365e-07
1.31774e-07
2.14455e-07
1.17956e-07
3.27686e-07
2.32052e-07
6.23375e-07
6.36797e-07
1.01606e-06
1.26052e-07
1.29815e-07
1.30182e-07
1.28845e-07
1.27634e-07
1.27359e-07
1.27544e-07
1.25977e-07
1.25624e-07
1.25107e-07
1.23673e-07
1.22882e-07
1.25499e-07
1.31017e-07
1.34935e-07
1.03915e-07
3.7782e-08
3.1369e-09
2.3411e-12
0
0
0
0
2.69161e-07
7.94453e-05
3.3615e-05
0.00504314
0.0369598
0.1169
0.223029
0.282836
0.230801
0.0735012
0.109903
0.21935
0.209396
0.121927
0.0404982
0.00605486
8.94209e-05
3.77176e-05
0
0
0
6.79937e-12
1.58655e-09
8.38509e-09
3.6796e-08
3.06767e-08
2.19487e-08
2.38544e-08
3.07113e-08
3.88688e-08
4.69784e-08
5.50007e-08
6.31905e-08
7.15085e-08
7.9883e-08
8.81178e-08
9.62486e-08
1.04064e-07
1.1182e-07
1.18667e-07
1.25532e-07
1.29871e-07
1.36137e-07
1.34527e-07
1.46035e-07
1.34693e-07
1.63189e-07
1.23767e-07
2.05415e-07
1.10655e-07
3.21609e-07
2.23055e-07
6.22494e-07
6.03593e-07
1.04834e-06
1.36093e-07
1.3802e-07
1.37877e-07
1.36407e-07
1.3501e-07
1.34064e-07
1.33507e-07
1.32033e-07
1.31058e-07
1.29923e-07
1.28157e-07
1.26603e-07
1.25428e-07
1.25106e-07
1.26853e-07
1.32513e-07
1.22213e-07
8.73691e-08
2.35361e-08
2.39249e-09
2.88578e-12
0
0
0
0
9.06526e-07
0.000155177
0.000358434
0.0104127
0.0548725
0.145005
0.239069
0.258101
0.159449
0.0262634
0.169248
0.213001
0.151145
0.0617625
0.0108045
0.000887904
4.85146e-05
3.00647e-05
6.08701e-06
1.83572e-07
0
3.52485e-11
3.64667e-11
4.61812e-08
8.68304e-08
8.13114e-08
7.07598e-08
6.91096e-08
7.27066e-08
7.78547e-08
8.34265e-08
8.93689e-08
9.56787e-08
1.02179e-07
1.08778e-07
1.15322e-07
1.21953e-07
1.27995e-07
1.33985e-07
1.37813e-07
1.43135e-07
1.42046e-07
1.52153e-07
1.42788e-07
1.68483e-07
1.33064e-07
2.10104e-07
1.17889e-07
3.27738e-07
2.116e-07
6.34124e-07
5.47773e-07
1.16064e-06
1.165e-07
1.17275e-07
1.17605e-07
1.18071e-07
1.18378e-07
1.18692e-07
1.19298e-07
1.20029e-07
1.20642e-07
1.20992e-07
1.21329e-07
1.21938e-07
1.22473e-07
1.23042e-07
1.23535e-07
1.26259e-07
1.31053e-07
1.34511e-07
1.22911e-07
9.29548e-08
2.44795e-08
2.17819e-09
0
0
0
0
0
5.81693e-06
0.000131361
0.000464966
0.00888251
0.0417252
0.102854
0.161205
0.165438
0.092065
0.0266763
0.118261
0.135916
0.09151
0.038334
0.00987474
0.00131712
2.62968e-05
2.2668e-05
3.82906e-06
0
8.02534e-14
1.78509e-09
2.71077e-08
8.02935e-08
1.03016e-07
1.03596e-07
1.01535e-07
1.01746e-07
1.03337e-07
1.05377e-07
1.07613e-07
1.09986e-07
1.12445e-07
1.14925e-07
1.17572e-07
1.19972e-07
1.22515e-07
1.23201e-07
1.24768e-07
1.21218e-07
1.28182e-07
1.17595e-07
1.40734e-07
1.03186e-07
1.79561e-07
7.8932e-08
2.92405e-07
1.75162e-07
5.76935e-07
5.46603e-07
1.14586e-06
)
;

boundaryField
{
    inlet
    {
        type            calculated;
        value           nonuniform List<scalar> 
27
(
6.10466e-06
6.11272e-06
6.12754e-06
6.14721e-06
6.16813e-06
6.18979e-06
6.21282e-06
6.23703e-06
6.26231e-06
6.28774e-06
6.31319e-06
6.3382e-06
6.36225e-06
6.38478e-06
6.40517e-06
6.4228e-06
6.43787e-06
6.40719e-06
6.41123e-06
6.40955e-06
6.399e-06
6.37851e-06
6.34537e-06
6.29814e-06
6.23026e-06
6.16267e-06
6.02587e-06
)
;
    }
    outlet
    {
        type            calculated;
        value           nonuniform List<scalar> 
78
(
9.45367e-08
9.56265e-08
9.61894e-08
9.6919e-08
9.74676e-08
9.80245e-08
9.89443e-08
1.00013e-07
1.00942e-07
1.0156e-07
1.02167e-07
1.03088e-07
1.03979e-07
1.0491e-07
1.05739e-07
1.08412e-07
1.12693e-07
1.15496e-07
1.05428e-07
8.0546e-08
2.19803e-08
2.04532e-09
0
0
0
0
0
5.84399e-06
0.000131056
0.000438582
0.00880297
0.0415769
0.10273
0.161321
0.166003
0.0930473
0.0249425
0.117048
0.135209
0.0912632
0.0383173
0.00990429
0.00133392
1.73377e-05
2.16219e-05
3.64126e-06
0
7.02989e-14
1.56069e-09
2.41318e-08
7.21352e-08
9.27176e-08
9.31007e-08
9.09463e-08
9.06751e-08
9.14753e-08
9.25245e-08
9.36281e-08
9.47508e-08
9.58893e-08
9.69969e-08
9.83105e-08
9.93477e-08
1.00775e-07
1.00111e-07
1.01186e-07
9.58768e-08
1.04478e-07
8.97455e-08
1.19665e-07
6.91644e-08
1.64593e-07
2.11173e-08
2.81452e-07
1.56864e-07
5.5755e-07
5.47926e-07
1.08464e-06
)
;
    }
    walls
    {
        type            calculated;
        value           nonuniform List<scalar> 0();
    }
    frontAndBack
    {
        type            empty;
    }
    procBoundary7to3
    {
        type            processor;
        value           nonuniform List<scalar> 
16
(
1.15961e-06
1.18941e-06
9.09623e-07
7.75483e-07
6.86734e-07
5.8764e-07
4.82372e-07
3.93849e-07
2.87156e-07
2.87156e-07
2.31625e-07
1.84726e-07
1.55871e-07
1.26386e-07
1.38729e-07
1.14718e-07
)
;
    }
    procBoundary7to6
    {
        type            processor;
        value           nonuniform List<scalar> 
91
(
9.37136e-07
7.37463e-07
7.37463e-07
7.05982e-07
7.05982e-07
2.91174e-07
2.91174e-07
2.65367e-07
4.8259e-07
4.8259e-07
3.81562e-07
4.43245e-07
4.43245e-07
5.40303e-07
4.74904e-07
4.71397e-07
4.71397e-07
6.31907e-07
5.90919e-07
5.43438e-07
5.43438e-07
8.16553e-07
7.57965e-07
7.0221e-07
6.49376e-07
6.49376e-07
1.05887e-06
9.9379e-07
9.31247e-07
8.71378e-07
8.14217e-07
8.14217e-07
1.38499e-06
1.32252e-06
1.26022e-06
1.19835e-06
1.13725e-06
1.07721e-06
1.0185e-06
1.0185e-06
1.72346e-06
1.69198e-06
1.65851e-06
1.62292e-06
1.58516e-06
1.54526e-06
1.50329e-06
1.45938e-06
1.41372e-06
1.36657e-06
1.31809e-06
1.26856e-06
1.26856e-06
8.73213e-12
0
0
0.000335532
0.000298812
0.0261355
0.180905
0.539042
1.02494
1.47407
1.72878
1.68097
1.29515
0.627602
0.217608
0.979828
1.5001
1.58574
1.21989
0.632428
0.183605
0.020208
5.61616e-05
9.72149e-06
0
0
0
4.85115e-08
6.88505e-07
1.78582e-06
1.84551e-06
1.6333e-06
1.5573e-06
1.54809e-06
1.53316e-06
1.50962e-06
1.48628e-06
1.48628e-06
)
;
    }
}


// ************************************************************************* //
