/*--------------------------------*- C++ -*----------------------------------*\
| =========                 |                                                 |
| \\      /  F ield         | OpenFOAM: The Open Source CFD Toolbox           |
|  \\    /   O peration     | Version:  2306                                  |
|   \\  /    A nd           | Website:  www.openfoam.com                      |
|    \\/     M anipulation  |                                                 |
\*---------------------------------------------------------------------------*/
FoamFile
{
    version     2.0;
    format      ascii;
    arch        "LSB;label=32;scalar=64";
    class       volScalarField;
    location    "25";
    object      turbulenceProperties:I;
}
// * * * * * * * * * * * * * * * * * * * * * * * * * * * * * * * * * * * * * //

dimensions      [0 0 0 0 0 0 0];

internalField   nonuniform List<scalar> 
1340
(
0.000854821
0.00087804
0.000899018
0.000918528
0.00093232
0.000767334
0.000785384
0.000801373
0.000816491
0.000826904
0.000832655
0.000692947
0.000707221
0.000719755
0.00073163
0.0007396
0.000743953
0.000743743
0.000629059
0.000640462
0.000650375
0.000659976
0.000666053
0.000669338
0.000669355
0.000664107
0.000573516
0.000582867
0.000590858
0.000598598
0.000603264
0.000605837
0.000605991
0.000602012
0.0005939
0.000525029
0.000532654
0.000539095
0.000545474
0.000549076
0.000551151
0.000551394
0.000548321
0.000542074
0.000532879
0.000482215
0.00048855
0.000493838
0.000499012
0.000501799
0.000503539
0.000503847
0.00050145
0.000496541
0.000489517
0.000444321
0.00044951
0.000453839
0.000458106
0.000460294
0.0004617
0.00046205
0.00046018
0.000456246
0.000450807
0.000443495
0.000410379
0.000414789
0.000418352
0.000421805
0.000423515
0.000424724
0.000425059
0.000423609
0.000420409
0.000416154
0.000410479
0.000380028
0.000383675
0.000386578
0.000389456
0.000390795
0.000391787
0.000392112
0.000390972
0.000388412
0.000384958
0.000380471
0.000374383
0.000352646
0.000355733
0.00035813
0.000360446
0.00036146
0.000362315
0.000362615
0.000361708
0.000359635
0.000356791
0.00035329
0.000348298
0.000327945
0.000330474
0.000332444
0.000334342
0.000335112
0.000335783
0.000336081
0.000335348
0.00033368
0.00033136
0.000328487
0.000324706
0.000305406
0.000307616
0.000309218
0.000310707
0.000311273
0.00031185
0.000312115
0.000311534
0.00031016
0.000308286
0.000305893
0.00030294
0.000299191
0.000284933
0.000286767
0.000288057
0.000289284
0.000289673
0.000290128
0.000290376
0.000289904
0.000288782
0.000287274
0.000285278
0.000282847
0.000280049
0.000266174
0.000267759
0.000268819
0.000269752
0.000269985
0.000270376
0.000270588
0.000270194
0.000269249
0.00026801
0.000266415
0.000264365
0.000262107
0.00025927
0.000249022
0.000250311
0.000251181
0.000251917
0.000252038
0.000252321
0.000252512
0.000252165
0.000251374
0.000250352
0.000249029
0.000247275
0.000245501
0.000243249
0.000233192
0.000234321
0.000235014
0.000235528
0.000235565
0.000235808
0.000235953
0.000235645
0.000234948
0.000234084
0.000233007
0.000231525
0.00023002
0.000228424
0.000218716
0.000219574
0.000220098
0.00022049
0.000220446
0.00022062
0.000220731
0.000220446
0.000219833
0.000219103
0.000218171
0.000216917
0.000215615
0.000214451
0.00021253
0.00020531
0.000206022
0.000206409
0.000206621
0.000206498
0.000206643
0.000206711
0.000206436
0.000205879
0.000205237
0.00020446
0.000203408
0.00020222
0.000201275
0.000199767
0.000192981
0.000193494
0.000193715
0.000193825
0.00019365
0.000193723
0.000193771
0.000193491
0.00019299
0.000192431
0.000191747
0.00019081
0.000189839
0.000188963
0.000187866
0.000181414
0.000181893
0.000182
0.000181965
0.000181739
0.000181793
0.000181799
0.000181525
0.000181051
0.000180547
0.000179967
0.000179171
0.000178306
0.000177447
0.000176576
0.000175126
0.000170646
0.000171059
0.000171067
0.000170961
0.000170713
0.000170719
0.000170698
0.000170423
0.00016998
0.000169534
0.000169009
0.000168297
0.000167554
0.000166832
0.000165903
0.000164885
0.000160974
0.000160908
0.000160733
0.000160451
0.000160445
0.000160391
0.000160116
0.000159688
0.000159267
0.000158809
0.000158193
0.00015751
0.0001568
0.00015599
0.000155167
0.000154097
0.000151603
0.000151457
0.000151234
0.000150938
0.00015088
0.000150812
0.000150525
0.000150119
0.000149724
0.000149294
0.000148708
0.000148107
0.000147479
0.000146659
0.000145943
0.000145124
0.000142883
0.000142689
0.000142387
0.000142064
0.000141996
0.000141896
0.000141608
0.000141198
0.000140808
0.000140412
0.000139889
0.000139297
0.000138663
0.000137924
0.000137274
0.000136715
0.000134728
0.000134463
0.000134154
0.000133807
0.000133699
0.000133581
0.000133287
0.00013288
0.000132498
0.000132101
0.00013159
0.000131016
0.000130448
0.000129742
0.000129049
0.000128649
0.000128051
0.000127084
0.000126794
0.000126441
0.000126073
0.000125961
0.000125822
0.000125523
0.000125111
0.000124717
0.000124335
0.000123829
0.000123257
0.00012265
0.000122
0.000121377
0.000120991
0.000120506
0.00011989
0.000119585
0.000119217
0.000118863
0.000118717
0.000118577
0.000118268
0.000117863
0.000117468
0.000117066
0.000116546
0.00011596
0.000115372
0.000114721
0.00011412
0.000113736
0.000113373
0.000113179
0.000112853
0.000112443
0.000112094
0.000111955
0.000111801
0.000111498
0.000111089
0.000110687
0.000110291
0.00010978
0.000109167
0.000108549
0.000107933
0.000107357
0.000106917
0.000106634
0.000106139
0.000106897
0.000106505
0.000106106
0.000105765
0.000105609
0.000105453
0.000105157
0.000104759
0.000104369
0.000103966
0.00010345
0.000102859
0.000102264
0.00010163
0.000101061
0.000100622
0.000100325
9.98963e-05
0.000100997
0.000100576
0.000100147
9.9808e-05
9.96637e-05
9.95044e-05
9.92196e-05
9.8833e-05
9.84488e-05
9.8077e-05
9.75936e-05
9.7004e-05
9.64025e-05
9.58001e-05
9.52214e-05
9.47753e-05
9.44734e-05
9.40927e-05
9.54343e-05
9.49912e-05
9.45533e-05
9.4233e-05
9.40718e-05
9.39262e-05
9.36497e-05
9.32904e-05
9.29312e-05
9.25742e-05
9.21119e-05
9.1567e-05
9.10112e-05
9.0396e-05
8.98287e-05
8.93946e-05
8.90123e-05
8.86734e-05
8.81452e-05
9.02369e-05
8.97717e-05
8.92991e-05
8.89798e-05
8.88321e-05
8.8686e-05
8.84308e-05
8.80893e-05
8.77523e-05
8.74374e-05
8.70285e-05
8.65078e-05
8.59603e-05
8.53878e-05
8.48013e-05
8.43483e-05
8.39601e-05
8.35834e-05
8.30868e-05
8.53603e-05
8.48465e-05
8.43798e-05
8.40557e-05
8.38972e-05
8.3758e-05
8.35213e-05
8.32075e-05
8.29059e-05
8.26174e-05
8.22409e-05
8.17722e-05
8.12735e-05
8.06877e-05
8.01015e-05
7.96093e-05
7.91762e-05
7.87811e-05
7.82621e-05
8.07627e-05
8.02425e-05
7.97491e-05
7.94122e-05
7.92629e-05
7.91258e-05
7.89064e-05
7.86153e-05
7.83364e-05
7.80935e-05
7.77701e-05
7.7327e-05
7.68355e-05
7.62952e-05
7.56873e-05
7.51844e-05
7.47745e-05
7.42875e-05
7.37884e-05
7.31981e-05
7.64092e-05
7.58932e-05
7.53969e-05
7.50654e-05
7.48984e-05
7.47731e-05
7.45648e-05
7.43019e-05
7.40526e-05
7.38326e-05
7.35359e-05
7.31377e-05
7.26978e-05
7.21598e-05
7.1591e-05
7.10771e-05
7.06246e-05
7.01763e-05
6.96565e-05
6.91713e-05
7.23175e-05
7.18101e-05
7.13033e-05
7.09671e-05
7.08082e-05
7.0681e-05
7.0489e-05
7.02395e-05
7.00068e-05
6.98202e-05
6.95696e-05
6.91978e-05
6.87735e-05
6.83047e-05
6.77449e-05
6.7264e-05
6.68696e-05
6.63833e-05
6.59331e-05
6.54819e-05
6.84457e-05
6.79321e-05
6.74571e-05
6.71217e-05
6.69528e-05
6.68304e-05
6.665e-05
6.64169e-05
6.62059e-05
6.60326e-05
6.58006e-05
6.54722e-05
6.51136e-05
6.46743e-05
6.42051e-05
6.37703e-05
6.33792e-05
6.30457e-05
6.25788e-05
6.2055e-05
6.14703e-05
6.47596e-05
6.42767e-05
6.38142e-05
6.34839e-05
6.33275e-05
6.32088e-05
6.30404e-05
6.28168e-05
6.26102e-05
6.2459e-05
6.22618e-05
6.19594e-05
6.16259e-05
6.12771e-05
6.08519e-05
6.05005e-05
6.02321e-05
5.98687e-05
5.94083e-05
5.88767e-05
5.82893e-05
6.12363e-05
6.07869e-05
6.03601e-05
6.00607e-05
5.99012e-05
5.97998e-05
5.96409e-05
5.94311e-05
5.92344e-05
5.90854e-05
5.88949e-05
5.86253e-05
5.83524e-05
5.80346e-05
5.76998e-05
5.74115e-05
5.71266e-05
5.68479e-05
5.63633e-05
5.57477e-05
5.52069e-05
5.78963e-05
5.74765e-05
5.70803e-05
5.6807e-05
5.66714e-05
5.65823e-05
5.64423e-05
5.62376e-05
5.60408e-05
5.59011e-05
5.57319e-05
5.54752e-05
5.52106e-05
5.49614e-05
5.46632e-05
5.44093e-05
5.42165e-05
5.38057e-05
5.32213e-05
5.26631e-05
5.21461e-05
5.47163e-05
5.43073e-05
5.39697e-05
5.37273e-05
5.36051e-05
5.35383e-05
5.34167e-05
5.32236e-05
5.30352e-05
5.28925e-05
5.27214e-05
5.24798e-05
5.22538e-05
5.20087e-05
5.17402e-05
5.15202e-05
5.11778e-05
5.06987e-05
5.01666e-05
4.96714e-05
4.92805e-05
4.89845e-05
5.1687e-05
5.13139e-05
5.10082e-05
5.07952e-05
5.0704e-05
5.06593e-05
5.05579e-05
5.03734e-05
5.01842e-05
5.00515e-05
4.98955e-05
4.966e-05
4.94216e-05
4.92069e-05
4.89525e-05
4.86284e-05
4.82336e-05
4.77699e-05
4.732e-05
4.6984e-05
4.67183e-05
4.64067e-05
4.88099e-05
4.84692e-05
4.82066e-05
4.80339e-05
4.79556e-05
4.79407e-05
4.78537e-05
4.7681e-05
4.75004e-05
4.73692e-05
4.7215e-05
4.69919e-05
4.67807e-05
4.65715e-05
4.62739e-05
4.59379e-05
4.55898e-05
4.5198e-05
4.48841e-05
4.4683e-05
4.44483e-05
4.4138e-05
4.61146e-05
4.58013e-05
4.55706e-05
4.54227e-05
4.53732e-05
4.5377e-05
4.53057e-05
4.5134e-05
4.49545e-05
4.48374e-05
4.47065e-05
4.44943e-05
4.42815e-05
4.40838e-05
4.38212e-05
4.35504e-05
4.32634e-05
4.3002e-05
4.28191e-05
4.26343e-05
4.23932e-05
4.20113e-05
4.35816e-05
4.32851e-05
4.3105e-05
4.2977e-05
4.29408e-05
4.29653e-05
4.29019e-05
4.27306e-05
4.25584e-05
4.24477e-05
4.23272e-05
4.21375e-05
4.19629e-05
4.17932e-05
4.15703e-05
4.13422e-05
4.1172e-05
4.09954e-05
4.08255e-05
4.07106e-05
4.0474e-05
4.00629e-05
3.97754e-05
4.11986e-05
4.0945e-05
4.07899e-05
4.06751e-05
4.06631e-05
4.0704e-05
4.0645e-05
4.04682e-05
4.0291e-05
4.01934e-05
4.00977e-05
3.99277e-05
3.97633e-05
3.96243e-05
3.94388e-05
3.92764e-05
3.91239e-05
3.89809e-05
3.8882e-05
3.87333e-05
3.85107e-05
3.81599e-05
3.79229e-05
3.89543e-05
3.87422e-05
3.86228e-05
3.85286e-05
3.85243e-05
3.85866e-05
3.85274e-05
3.83468e-05
3.81686e-05
3.8068e-05
3.79748e-05
3.78199e-05
3.76798e-05
3.75501e-05
3.73716e-05
3.71944e-05
3.7076e-05
3.69486e-05
3.67949e-05
3.67126e-05
3.65426e-05
3.62009e-05
3.6017e-05
3.68473e-05
3.66696e-05
3.65789e-05
3.64972e-05
3.65177e-05
3.65957e-05
3.65437e-05
3.63579e-05
3.61697e-05
3.60618e-05
3.59724e-05
3.58177e-05
3.56631e-05
3.55242e-05
3.53328e-05
3.51673e-05
3.50176e-05
3.48755e-05
3.47843e-05
3.46637e-05
3.449e-05
3.42583e-05
3.41661e-05
3.48488e-05
3.46934e-05
3.46462e-05
3.45795e-05
3.46164e-05
3.47157e-05
3.4674e-05
3.44951e-05
3.43022e-05
3.41649e-05
3.405e-05
3.38912e-05
3.37475e-05
3.36037e-05
3.34013e-05
3.31961e-05
3.30495e-05
3.29095e-05
3.27616e-05
3.26871e-05
3.26039e-05
3.24315e-05
3.23305e-05
3.29411e-05
3.283e-05
3.2808e-05
3.27572e-05
3.2823e-05
3.29401e-05
3.29132e-05
3.27503e-05
3.2541e-05
3.23606e-05
3.22159e-05
3.20523e-05
3.19111e-05
3.17832e-05
3.15861e-05
3.13957e-05
3.12185e-05
3.1052e-05
3.09428e-05
3.08558e-05
3.08043e-05
3.06812e-05
3.06033e-05
3.10158e-05
3.11283e-05
3.10551e-05
3.1069e-05
3.10441e-05
3.11258e-05
3.12579e-05
3.1246e-05
3.111e-05
3.08867e-05
3.06314e-05
3.0427e-05
3.02604e-05
3.01595e-05
3.0068e-05
2.98942e-05
2.96842e-05
2.95069e-05
2.93303e-05
2.91651e-05
2.91152e-05
2.90718e-05
2.89651e-05
2.89499e-05
2.94085e-05
2.93673e-05
2.93224e-05
2.93735e-05
2.93797e-05
2.95027e-05
2.96455e-05
2.96649e-05
2.95665e-05
2.93183e-05
2.89695e-05
2.86974e-05
2.85236e-05
2.84517e-05
2.84116e-05
2.82752e-05
2.80991e-05
2.78965e-05
2.76797e-05
2.75227e-05
2.73925e-05
2.73383e-05
2.72548e-05
2.72287e-05
2.77092e-05
2.76352e-05
2.75914e-05
2.76854e-05
2.77383e-05
2.79146e-05
2.80802e-05
2.81539e-05
2.81147e-05
2.7853e-05
2.73938e-05
2.70276e-05
2.68351e-05
2.68118e-05
2.68381e-05
2.6768e-05
2.66099e-05
2.64181e-05
2.61804e-05
2.59202e-05
2.57682e-05
2.5642e-05
2.54729e-05
2.54553e-05
2.599e-05
2.59518e-05
2.59407e-05
2.60596e-05
2.61549e-05
2.64014e-05
2.65819e-05
2.67178e-05
2.67315e-05
2.6464e-05
2.59151e-05
2.54707e-05
2.52433e-05
2.52237e-05
2.53086e-05
2.53143e-05
2.52394e-05
2.50692e-05
2.47955e-05
2.45109e-05
2.42136e-05
2.39762e-05
2.37483e-05
2.36548e-05
2.41479e-05
2.43275e-05
2.43361e-05
2.44833e-05
2.4634e-05
2.49476e-05
2.51391e-05
2.5349e-05
2.53965e-05
2.51726e-05
2.45782e-05
2.40619e-05
2.37658e-05
2.37063e-05
2.3798e-05
2.38635e-05
2.38491e-05
2.37468e-05
2.35076e-05
2.31224e-05
2.27492e-05
2.23637e-05
2.19596e-05
2.18329e-05
2.23122e-05
2.2779e-05
2.28014e-05
2.29617e-05
2.31599e-05
2.35519e-05
2.37504e-05
2.40516e-05
2.41301e-05
2.40352e-05
2.34414e-05
2.2864e-05
2.24618e-05
2.2257e-05
2.22445e-05
2.22992e-05
2.23586e-05
2.23358e-05
2.21126e-05
2.17465e-05
2.12295e-05
2.06511e-05
2.01995e-05
2.00914e-05
2.0598e-05
2.17232e-05
2.11318e-05
2.11788e-05
2.13774e-05
2.16613e-05
2.2164e-05
2.24289e-05
2.28456e-05
2.30579e-05
2.3178e-05
2.2481e-05
2.17498e-05
2.11892e-05
2.07783e-05
2.05826e-05
2.05452e-05
2.06133e-05
2.06365e-05
2.04898e-05
2.00773e-05
1.94947e-05
1.89317e-05
1.84893e-05
1.8409e-05
1.89469e-05
1.99779e-05
1.99085e-05
1.99989e-05
2.01858e-05
2.04928e-05
2.0998e-05
2.12092e-05
2.1492e-05
2.18861e-05
2.22615e-05
2.15755e-05
2.07392e-05
2.0134e-05
1.95891e-05
1.92102e-05
1.9029e-05
1.90407e-05
1.90908e-05
1.89412e-05
1.85766e-05
1.81293e-05
1.76905e-05
1.73533e-05
1.73205e-05
1.77918e-05
1.87297e-05
1.9099e-05
1.92486e-05
1.94227e-05
1.96934e-05
2.00883e-05
2.01732e-05
2.02076e-05
2.05575e-05
2.10486e-05
2.04909e-05
1.97327e-05
1.91956e-05
1.86777e-05
1.82308e-05
1.79501e-05
1.78984e-05
1.79392e-05
1.78574e-05
1.76101e-05
1.73073e-05
1.70629e-05
1.6874e-05
1.68193e-05
1.71478e-05
1.79115e-05
1.82221e-05
1.84083e-05
1.8573e-05
1.88176e-05
1.91175e-05
1.91196e-05
1.90149e-05
1.92813e-05
1.98606e-05
1.94844e-05
1.88126e-05
1.83116e-05
1.78107e-05
1.73259e-05
1.69455e-05
1.68288e-05
1.68991e-05
1.69077e-05
1.67363e-05
1.65578e-05
1.64796e-05
1.64015e-05
1.63626e-05
1.65971e-05
1.72055e-05
1.7393e-05
1.76178e-05
1.77826e-05
1.80024e-05
1.81714e-05
1.8111e-05
1.78766e-05
1.79931e-05
1.86686e-05
1.85077e-05
1.79417e-05
1.75032e-05
1.70683e-05
1.66091e-05
1.61711e-05
1.59643e-05
1.60201e-05
1.60712e-05
1.59933e-05
1.58575e-05
1.57863e-05
1.57823e-05
1.57747e-05
1.59293e-05
1.63918e-05
1.65337e-05
1.67912e-05
1.69481e-05
1.71483e-05
1.72006e-05
1.71214e-05
1.67729e-05
1.67204e-05
1.74852e-05
1.74993e-05
1.70389e-05
1.66808e-05
1.63617e-05
1.60096e-05
1.55826e-05
1.52813e-05
1.52643e-05
1.53982e-05
1.54173e-05
1.52913e-05
1.5201e-05
1.51564e-05
1.51478e-05
1.52996e-05
1.56777e-05
1.55955e-05
1.58582e-05
1.60049e-05
1.61975e-05
1.61399e-05
1.61072e-05
1.56452e-05
1.54502e-05
1.63147e-05
1.65089e-05
1.61353e-05
1.58421e-05
1.567e-05
1.54892e-05
1.51546e-05
1.47695e-05
1.45925e-05
1.466e-05
1.47574e-05
1.47001e-05
1.45173e-05
1.44259e-05
1.44649e-05
1.4656e-05
1.49721e-05
1.4595e-05
1.48323e-05
1.49524e-05
1.51221e-05
1.49738e-05
1.5051e-05
1.44515e-05
1.41915e-05
1.51397e-05
1.55587e-05
1.52829e-05
1.50114e-05
1.49064e-05
1.4882e-05
1.47566e-05
1.44359e-05
1.40614e-05
1.39125e-05
1.39853e-05
1.3936e-05
1.36901e-05
1.338e-05
1.3298e-05
1.35926e-05
1.40239e-05
1.35142e-05
1.36928e-05
1.37866e-05
1.39303e-05
1.37099e-05
1.39551e-05
1.31594e-05
1.30364e-05
1.40124e-05
1.46689e-05
1.45704e-05
1.42918e-05
1.40649e-05
1.39524e-05
1.39248e-05
1.38111e-05
1.35024e-05
1.31246e-05
1.29171e-05
1.28445e-05
1.24975e-05
1.18834e-05
1.15718e-05
1.19253e-05
1.25887e-05
1.30834e-05
1.23641e-05
1.24593e-05
1.25134e-05
1.26121e-05
1.2369e-05
1.28016e-05
1.17289e-05
1.21864e-05
1.30164e-05
1.37912e-05
1.39538e-05
1.37827e-05
1.34103e-05
1.29539e-05
1.25763e-05
1.22949e-05
1.19685e-05
1.14757e-05
1.09557e-05
1.05821e-05
1.01845e-05
9.56367e-06
8.93469e-06
8.97206e-06
9.65563e-06
1.03088e-05
1.11988e-05
1.11652e-05
1.11302e-05
1.11604e-05
1.09732e-05
1.15761e-05
1.03352e-05
1.19688e-05
1.23629e-05
1.29204e-05
1.32025e-05
1.31002e-05
1.28082e-05
1.23932e-05
1.18778e-05
1.12889e-05
1.06314e-05
9.86304e-06
8.9968e-06
8.25227e-06
7.9315e-06
7.88636e-06
7.84896e-06
7.84471e-06
7.90075e-06
7.88915e-06
1.01075e-05
9.82657e-06
9.54683e-06
9.44744e-06
9.48945e-06
1.03531e-05
9.66586e-06
1.23788e-05
1.23018e-05
1.29701e-05
1.39322e-05
1.40646e-05
1.35061e-05
1.25135e-05
1.14726e-05
1.10022e-05
1.13575e-05
1.2075e-05
1.27202e-05
1.31924e-05
1.35206e-05
1.376e-05
1.39634e-05
1.42498e-05
1.47734e-05
1.5516e-05
9.29871e-06
8.64539e-06
7.83708e-06
7.34991e-06
7.75965e-06
9.05101e-06
9.67016e-06
1.25922e-05
1.24276e-05
1.36461e-05
1.54479e-05
1.67363e-05
1.78563e-05
1.89409e-05
1.98936e-05
2.06107e-05
2.10367e-05
2.12336e-05
2.13475e-05
2.15056e-05
2.17736e-05
2.21675e-05
2.2677e-05
2.32091e-05
2.35826e-05
2.37824e-05
9.1332e-06
8.42061e-06
7.21354e-06
5.572e-06
5.36222e-06
7.23707e-06
9.10067e-06
1.07976e-05
1.31945e-05
1.96789e-05
2.45144e-05
2.80701e-05
3.04998e-05
3.20504e-05
3.29531e-05
3.34488e-05
3.37362e-05
3.39461e-05
3.4129e-05
3.42896e-05
3.44204e-05
3.45194e-05
3.4608e-05
3.47624e-05
3.4964e-05
3.51188e-05
)
;

boundaryField
{
    inlet
    {
        type            calculated;
        value           nonuniform List<scalar> 
26
(
9.30485e-06
8.73562e-06
7.67643e-06
5.97226e-06
4.44145e-06
6.48275e-06
8.90606e-06
8.55994e-06
1.93169e-05
2.87201e-05
3.63497e-05
4.22921e-05
4.67932e-05
5.01385e-05
5.25457e-05
5.42539e-05
5.54641e-05
5.63392e-05
5.70117e-05
5.75784e-05
5.81055e-05
5.86525e-05
5.92777e-05
6.00204e-05
6.08052e-05
6.15196e-05
)
;
    }
    outlet
    {
        type            calculated;
        value           nonuniform List<scalar> 0();
    }
    walls
    {
        type            calculated;
        value           nonuniform List<scalar> 0();
    }
    frontAndBack
    {
        type            empty;
    }
    procBoundary0to1
    {
        type            processor;
        value           nonuniform List<scalar> 
94
(
0.0010623
0.000939875
0.000939875
0.000831703
0.000831703
0.000735899
0.000735899
0.000652523
0.000652523
0.000581082
0.000581082
0.000520044
0.000479643
0.000479643
0.00043335
0.000402502
0.000402502
0.000367008
0.000341996
0.00031938
0.00031938
0.00029391
0.000276001
0.000276001
0.000255266
0.000239824
0.000225529
0.000225529
0.000209293
0.000196928
0.000185371
0.000185371
0.00017218
0.000162952
0.000162952
0.000151962
0.0001435
0.00013539
0.00013539
0.000126364
0.000119253
0.000112378
0.000112378
0.000104759
9.87697e-05
9.3172e-05
9.3172e-05
8.69131e-05
8.20015e-05
7.73791e-05
7.73791e-05
7.22332e-05
6.8458e-05
6.47914e-05
6.47914e-05
6.05085e-05
5.74534e-05
5.45517e-05
5.17706e-05
5.17706e-05
4.88144e-05
4.62286e-05
4.39356e-05
4.1792e-05
4.1792e-05
3.9964e-05
3.81333e-05
3.63538e-05
3.46026e-05
3.27997e-05
3.27997e-05
3.18749e-05
3.02633e-05
2.86823e-05
2.70512e-05
2.53675e-05
2.36387e-05
2.36387e-05
2.32248e-05
2.12319e-05
1.99285e-05
1.89581e-05
1.80427e-05
1.70707e-05
1.61641e-05
1.53235e-05
1.43973e-05
1.43973e-05
1.33756e-05
1.0798e-05
7.78725e-06
1.63496e-05
2.38694e-05
3.51973e-05
)
;
    }
    procBoundary0to4
    {
        type            processor;
        value           nonuniform List<scalar> 
72
(
0.000828099
0.000746415
0.000676298
0.000615487
0.000562449
0.000515844
0.000474613
0.000437862
0.000405009
0.000375506
0.000348873
0.000324708
0.000302745
0.000282724
0.000264358
0.000247456
0.000231911
0.000217565
0.000204317
0.000191997
0.000180544
0.000170057
0.000160634
0.000160634
0.000151398
0.000142724
0.000134623
0.000126974
0.000119879
0.000113212
0.000106976
0.00010107
9.55918e-05
9.04268e-05
8.55793e-05
8.09663e-05
7.66661e-05
7.25805e-05
6.87108e-05
6.4993e-05
6.1498e-05
5.81514e-05
5.49666e-05
5.19073e-05
4.90491e-05
4.63386e-05
4.37871e-05
4.13586e-05
3.91051e-05
3.69648e-05
3.49373e-05
3.29893e-05
3.11728e-05
2.94134e-05
2.76989e-05
2.60166e-05
2.44144e-05
2.28662e-05
2.12142e-05
1.993e-05
1.9042e-05
1.8105e-05
1.71971e-05
1.628e-05
1.53239e-05
1.43395e-05
1.33214e-05
1.22731e-05
1.12516e-05
1.03702e-05
9.80712e-06
9.5829e-06
)
;
    }
    procBoundary0to5
    {
        type            processor;
        value           nonuniform List<scalar> 4(0.000958845 0.000989605 0.00101764 0.00104367);
    }
}


// ************************************************************************* //
