/*--------------------------------*- C++ -*----------------------------------*\
| =========                 |                                                 |
| \\      /  F ield         | OpenFOAM: The Open Source CFD Toolbox           |
|  \\    /   O peration     | Version:  2306                                  |
|   \\  /    A nd           | Website:  www.openfoam.com                      |
|    \\/     M anipulation  |                                                 |
\*---------------------------------------------------------------------------*/
FoamFile
{
    version     2.0;
    format      ascii;
    arch        "LSB;label=32;scalar=64";
    class       volSymmTensorField;
    location    "25";
    object      turbulenceProperties:R;
}
// * * * * * * * * * * * * * * * * * * * * * * * * * * * * * * * * * * * * * //

dimensions      [0 2 -2 0 0 0 0];

internalField   nonuniform List<symmTensor> 
1340
(
(0.000301248 -1.45257e-05 -7.10681e-22 0.000238052 3.94455e-22 0.000269976)
(0.000301299 -9.29988e-06 8.90178e-21 0.000234719 7.24769e-21 0.000268337)
(0.000299805 -4.01138e-06 1.72923e-20 0.000231715 1.71058e-21 0.000266007)
(0.000296172 2.29722e-06 -2.96797e-20 0.000228622 -2.57874e-20 0.000262737)
(0.000289253 8.84332e-06 -4.25368e-20 0.000225294 -1.64351e-20 0.000257463)
(0.000255265 -1.24554e-05 3.77191e-21 0.000201849 2.73472e-21 0.000228816)
(0.000255241 -8.11531e-06 1.0458e-20 0.000198973 1.31416e-21 0.000227364)
(0.000253905 -3.70145e-06 -2.76384e-20 0.000196324 -1.23846e-20 0.000225293)
(0.000251101 1.59501e-06 5.81141e-21 0.000193814 9.52366e-21 0.000222719)
(0.000245614 7.12813e-06 4.33714e-20 0.000191145 7.5875e-21 0.000218522)
(0.000239242 1.23209e-05 -3.30915e-20 0.000189741 -2.07442e-20 0.000214669)
(0.000217783 -1.0788e-05 -2.05832e-21 0.000172359 -1.82642e-21 0.000195262)
(0.000217739 -7.13179e-06 -8.67623e-21 0.000169861 -3.64118e-21 0.000193992)
(0.00021665 -3.40621e-06 1.05281e-22 0.000167593 2.16686e-21 0.000192246)
(0.00021441 1.08695e-06 1.47982e-20 0.000165487 5.78612e-21 0.000190146)
(0.000209997 5.79034e-06 -1.09545e-20 0.000163307 -1.23267e-21 0.000186751)
(0.000204777 1.01987e-05 3.64684e-20 0.000162127 1.70731e-20 0.000183591)
(0.000198421 1.41578e-05 5.99247e-20 0.000161663 1.22524e-20 0.000180237)
(0.000186919 -9.40039e-06 2.72695e-21 0.000148064 1.60135e-21 0.000167633)
(0.000186848 -6.3065e-06 3.95194e-21 0.000145875 2.13385e-21 0.0001665)
(0.000185921 -3.13932e-06 9.96153e-21 0.000143892 2.858e-22 0.000164986)
(0.000184194 7.03399e-07 -2.71018e-20 0.000142164 -1.25414e-20 0.000163329)
(0.000180529 4.72961e-06 -1.34855e-20 0.000140298 -4.58044e-21 0.000160496)
(0.000176199 8.49335e-06 -3.53015e-20 0.000139283 -1.24113e-20 0.000157846)
(0.000171035 1.1923e-05 -4.34402e-20 0.000138998 -2.88935e-21 0.000155175)
(0.00016454 1.47635e-05 3.68365e-20 0.000138922 6.35107e-22 0.000151914)
(0.000161174 -8.24246e-06 2.7354e-21 0.0001278 6.72559e-22 0.000144588)
(0.000161167 -5.6049e-06 4.09693e-22 0.000125928 -4.49988e-22 0.000143654)
(0.000160412 -2.89101e-06 -8.40217e-21 0.000124212 -5.50549e-22 0.000142366)
(0.000159004 4.0931e-07 2.58321e-20 0.000122724 1.25109e-20 0.000140977)
(0.000155933 3.87507e-06 4.80062e-20 0.000121109 1.21808e-20 0.000138583)
(0.000152342 7.11957e-06 1.92748e-21 0.000120257 3.28558e-21 0.000136385)
(0.000148123 1.00939e-05 9.08022e-20 0.000120098 1.95553e-20 0.000134236)
(0.000142803 1.26025e-05 -2.80622e-20 0.000120184 -1.63564e-20 0.000131648)
(0.0001368 1.43782e-05 -4.64034e-20 0.000120372 -4.71429e-21 0.000128741)
(0.000139623 -7.26672e-06 2.46929e-21 0.000110831 6.83816e-22 0.000125312)
(0.000139604 -5.00061e-06 -4.70736e-21 0.000109172 -2.07223e-21 0.000124467)
(0.000138957 -2.65962e-06 -1.21228e-21 0.000107653 -6.22064e-22 0.00012334)
(0.00013784 1.85962e-07 -4.21652e-21 0.000106394 2.03226e-21 0.000122206)
(0.00013525 3.18475e-06 3.46818e-20 0.000104987 6.25281e-21 0.000120167)
(0.000132277 5.99381e-06 -3.9376e-20 0.000104284 -1.16791e-20 0.000118344)
(0.000128795 8.59445e-06 5.91051e-21 0.000104212 1.10974e-21 0.000116607)
(0.000124412 1.08039e-05 1.22782e-20 0.000104395 -1.25417e-21 0.000114523)
(0.000119498 1.2417e-05 -1.19196e-19 0.00010477 -1.21333e-20 0.000112271)
(0.000114316 1.33371e-05 3.13243e-20 0.000105039 7.92715e-21 0.00010981)
(0.000121374 -6.4304e-06 -3.81845e-21 9.64541e-05 -3.65972e-22 0.000108978)
(0.000121387 -4.47371e-06 3.28879e-21 9.50078e-05 2.7697e-21 0.000108259)
(0.000120856 -2.44658e-06 2.14536e-20 9.36793e-05 7.3438e-21 0.000107296)
(0.000119905 1.86758e-08 5.79026e-21 9.25568e-05 -1.35497e-21 0.000106301)
(0.000117711 2.62113e-06 -2.72288e-20 9.13251e-05 -7.08737e-21 0.000104554)
(0.000115257 5.0664e-06 2.44955e-20 9.0758e-05 9.04279e-21 0.000103059)
(0.000112373 7.34773e-06 -5.13427e-21 9.07531e-05 -1.5208e-21 0.000101646)
(0.000108728 9.30489e-06 6.4904e-20 9.09977e-05 1.21099e-20 9.99604e-05)
(0.000104677 1.07509e-05 1.71952e-20 9.14543e-05 5.9397e-21 9.81753e-05)
(0.000100492 1.16332e-05 -1.19726e-20 9.19797e-05 -2.48725e-21 9.63625e-05)
(0.000105904 -5.70753e-06 5.42005e-22 8.42558e-05 -2.96249e-22 9.51335e-05)
(0.000105883 -4.01712e-06 -8.75019e-22 8.2949e-05 -1.51282e-21 9.44652e-05)
(0.00010543 -2.25325e-06 -1.86466e-20 8.17676e-05 -7.96761e-21 9.36197e-05)
(0.000104638 -1.05722e-07 -3.08757e-20 8.07795e-05 -1.04046e-20 9.27683e-05)
(0.000102786 2.16006e-06 -3.79082e-20 7.97082e-05 -4.28482e-21 9.12779e-05)
(0.000100722 4.29489e-06 5.62789e-20 7.92236e-05 1.13729e-20 9.00142e-05)
(9.83224e-05 6.30317e-06 -5.29433e-20 7.92664e-05 -1.19784e-20 8.88636e-05)
(9.52791e-05 8.03976e-06 1.34192e-20 7.95499e-05 6.66305e-21 8.74962e-05)
(9.1895e-05 9.3377e-06 3.26539e-20 8.00379e-05 4.30617e-21 8.60561e-05)
(8.84752e-05 1.01624e-05 2.12427e-20 8.06814e-05 4.40833e-21 8.46946e-05)
(8.49195e-05 1.05157e-05 2.27123e-20 8.113e-05 1.99633e-21 8.31437e-05)
(9.26194e-05 -5.08228e-06 4.77999e-21 7.37767e-05 2.32988e-21 8.32457e-05)
(9.26401e-05 -3.61498e-06 7.75118e-21 7.26427e-05 3.27427e-21 8.26876e-05)
(9.22557e-05 -2.07264e-06 2.13983e-20 7.15903e-05 5.60376e-21 8.19432e-05)
(9.15589e-05 -2.00162e-07 -4.44326e-21 7.06903e-05 -1.65505e-21 8.11752e-05)
(8.99859e-05 1.78028e-06 1.83008e-20 6.97512e-05 2.13982e-21 7.9894e-05)
(8.82707e-05 3.65234e-06 -6.08758e-20 6.93582e-05 -1.22493e-20 7.88498e-05)
(8.62496e-05 5.42355e-06 5.30173e-20 6.94194e-05 1.85087e-20 7.7893e-05)
(8.37027e-05 6.9675e-06 7.3322e-20 6.97279e-05 8.38247e-21 7.67853e-05)
(8.08478e-05 8.13269e-06 -2.8232e-21 7.02166e-05 -5.17034e-21 7.56092e-05)
(7.80334e-05 8.89356e-06 3.53912e-20 7.09081e-05 -2.53762e-21 7.45708e-05)
(7.51398e-05 9.25969e-06 2.24522e-20 7.15154e-05 2.00155e-21 7.34498e-05)
(8.12455e-05 -4.5405e-06 -5.88696e-21 6.47996e-05 -1.77315e-21 7.30726e-05)
(8.12501e-05 -3.25694e-06 6.92013e-21 6.37719e-05 1.39683e-21 7.25515e-05)
(8.0908e-05 -1.90668e-06 -1.88653e-20 6.28216e-05 -6.81004e-21 7.18825e-05)
(8.03262e-05 -2.67205e-07 -1.52106e-20 6.2026e-05 -3.36685e-21 7.12221e-05)
(7.89896e-05 1.46766e-06 -4.09602e-21 6.1203e-05 2.16512e-21 7.012e-05)
(7.75377e-05 3.11261e-06 6.27169e-20 6.08652e-05 1.41459e-20 6.92316e-05)
(7.58326e-05 4.67839e-06 -7.55528e-21 6.09401e-05 -6.93251e-21 6.84372e-05)
(7.36853e-05 6.05277e-06 -4.98458e-20 6.12531e-05 -1.42014e-20 6.75298e-05)
(7.12861e-05 7.10257e-06 -4.51827e-20 6.17509e-05 -8.80309e-21 6.6588e-05)
(6.89154e-05 7.7965e-06 -1.47465e-19 6.24195e-05 -1.54858e-20 6.57556e-05)
(6.65153e-05 8.15799e-06 2.65349e-20 6.30865e-05 6.39609e-21 6.49137e-05)
(6.39223e-05 8.18526e-06 8.67359e-20 6.33971e-05 3.69178e-21 6.37634e-05)
(7.14262e-05 -4.0642e-06 3.6929e-21 5.70431e-05 1.2603e-21 6.42769e-05)
(7.14468e-05 -2.93733e-06 1.36015e-21 5.61303e-05 1.18591e-21 6.38246e-05)
(7.11517e-05 -1.75361e-06 2.26347e-20 5.52792e-05 7.70406e-21 6.32346e-05)
(7.06302e-05 -3.15514e-07 3.55414e-20 5.45475e-05 7.97082e-21 6.26295e-05)
(6.94797e-05 1.20815e-06 -1.31094e-20 5.38146e-05 -6.65804e-21 6.16682e-05)
(6.82618e-05 2.65858e-06 -5.18345e-20 5.35346e-05 -1.21597e-20 6.09263e-05)
(6.6813e-05 4.045e-06 8.44052e-21 5.36126e-05 9.63356e-22 6.02585e-05)
(6.49929e-05 5.27021e-06 -6.10522e-20 5.39195e-05 -8.296e-21 5.9511e-05)
(6.29627e-05 6.21428e-06 2.91537e-20 5.44046e-05 1.07843e-20 5.87466e-05)
(6.09412e-05 6.84733e-06 5.99057e-20 5.50365e-05 1.24084e-20 5.80683e-05)
(5.89688e-05 7.19737e-06 -4.14583e-20 5.57385e-05 -6.03578e-21 5.74558e-05)
(5.67871e-05 7.25368e-06 -5.48961e-20 5.61207e-05 -7.96028e-21 5.65595e-05)
(6.29596e-05 -3.64311e-06 -4.28876e-21 5.03456e-05 -3.94766e-22 5.66892e-05)
(6.29527e-05 -2.6565e-06 1.32386e-20 4.95075e-05 3.75227e-21 5.6261e-05)
(6.26955e-05 -1.61425e-06 -7.40125e-21 4.87403e-05 -2.66827e-21 5.57352e-05)
(6.22424e-05 -3.47734e-07 -5.88161e-21 4.80781e-05 -1.79034e-21 5.51982e-05)
(6.1256e-05 9.92994e-07 -1.24775e-20 4.74288e-05 -4.07557e-21 5.43633e-05)
(6.02061e-05 2.27348e-06 -3.85471e-20 4.71752e-05 -7.63398e-21 5.37164e-05)
(5.898e-05 3.50522e-06 -2.19112e-20 4.72612e-05 -5.26893e-21 5.31618e-05)
(5.74272e-05 4.59825e-06 -3.15658e-21 4.75527e-05 3.39884e-21 5.25396e-05)
(5.5707e-05 5.44895e-06 2.56399e-20 4.8024e-05 8.406e-21 5.1923e-05)
(5.39881e-05 6.02655e-06 2.98711e-20 4.86258e-05 3.10596e-21 5.13795e-05)
(5.23124e-05 6.35446e-06 6.40693e-20 4.92874e-05 3.41886e-21 5.08924e-05)
(5.05737e-05 6.4428e-06 -1.43796e-20 4.98032e-05 -3.55662e-21 5.02927e-05)
(5.55666e-05 -3.2716e-06 -3.10155e-21 4.44943e-05 -1.52968e-21 5.00628e-05)
(5.55923e-05 -2.40609e-06 -1.98675e-20 4.37644e-05 -5.69596e-21 4.97079e-05)
(5.53631e-05 -1.48506e-06 -1.21113e-20 4.30676e-05 -3.16637e-21 4.92331e-05)
(5.4947e-05 -3.69785e-07 -1.07814e-20 4.24515e-05 -2.72015e-21 4.87336e-05)
(5.40965e-05 8.13812e-07 -8.08009e-21 4.18724e-05 -9.27345e-22 4.80037e-05)
(5.32085e-05 1.94837e-06 2.34554e-20 4.16578e-05 2.41935e-21 4.74573e-05)
(5.21589e-05 3.04318e-06 -1.08755e-19 4.17397e-05 -2.02437e-20 4.69867e-05)
(5.08341e-05 4.02073e-06 7.969e-21 4.20183e-05 1.04601e-20 4.64715e-05)
(4.93622e-05 4.786e-06 1.47246e-19 4.24605e-05 2.03743e-20 4.59632e-05)
(4.79011e-05 5.31344e-06 4.01416e-20 4.30344e-05 -3.74237e-22 4.55332e-05)
(4.64624e-05 5.61837e-06 -1.12105e-19 4.36474e-05 -1.74561e-20 4.51372e-05)
(4.50298e-05 5.72194e-06 -8.18408e-20 4.4206e-05 -5.14706e-21 4.47171e-05)
(4.35636e-05 5.64335e-06 1.59149e-20 4.454e-05 4.87333e-21 4.41558e-05)
(4.91477e-05 -2.94492e-06 3.53005e-21 3.94101e-05 7.52123e-22 4.43114e-05)
(4.91653e-05 -2.18013e-06 -5.53955e-21 3.87453e-05 -8.97904e-22 4.39807e-05)
(4.89584e-05 -1.3672e-06 2.16267e-20 3.81112e-05 3.94475e-21 4.35506e-05)
(4.86021e-05 -3.81263e-07 -5.41802e-20 3.75577e-05 -1.5066e-20 4.31123e-05)
(4.78633e-05 6.65567e-07 -4.16795e-20 3.70373e-05 -7.98274e-21 4.24691e-05)
(4.7097e-05 1.67157e-06 -2.19735e-20 3.68441e-05 -2.03502e-21 4.19922e-05)
(4.61998e-05 2.64693e-06 4.93569e-20 3.69244e-05 1.54441e-20 4.15963e-05)
(4.50628e-05 3.52193e-06 6.7888e-20 3.71853e-05 6.06628e-21 4.11645e-05)
(4.38022e-05 4.21169e-06 -6.94092e-20 3.76015e-05 -1.4462e-20 4.07487e-05)
(4.25586e-05 4.69246e-06 5.99611e-20 3.8145e-05 8.11382e-21 4.04111e-05)
(4.13186e-05 4.9755e-06 2.12708e-21 3.87138e-05 3.72419e-21 4.00889e-05)
(4.01025e-05 5.08179e-06 -2.09927e-20 3.9245e-05 2.16492e-21 3.97611e-05)
(3.8934e-05 5.04e-06 7.26084e-20 3.96896e-05 7.81347e-21 3.94148e-05)
(4.35284e-05 -2.65366e-06 -3.61064e-21 3.4955e-05 -1.37909e-21 3.92684e-05)
(4.35613e-05 -1.97618e-06 -7.71407e-21 3.43643e-05 -1.50482e-21 3.89858e-05)
(4.33829e-05 -1.25895e-06 1.43836e-20 3.37944e-05 4.76993e-21 3.86049e-05)
(4.30543e-05 -3.86619e-07 2.73613e-20 3.32789e-05 7.46663e-21 3.81952e-05)
(4.24073e-05 5.41683e-07 4.33315e-20 3.28072e-05 1.05104e-20 3.76242e-05)
(4.17558e-05 1.43586e-06 2.94247e-20 3.26414e-05 7.62094e-21 3.72192e-05)
(4.09815e-05 2.30585e-06 8.77493e-20 3.27142e-05 1.18098e-20 3.68791e-05)
(3.99999e-05 3.0899e-06 -1.33428e-19 3.29545e-05 -2.37578e-20 3.65143e-05)
(3.891e-05 3.71078e-06 1.22941e-20 3.33369e-05 4.28915e-21 3.61654e-05)
(3.7839e-05 4.14811e-06 -2.49943e-20 3.38407e-05 -2.2566e-21 3.58922e-05)
(3.67862e-05 4.41247e-06 5.34235e-20 3.43856e-05 6.10238e-21 3.56511e-05)
(3.57366e-05 4.5172e-06 1.95709e-20 3.48777e-05 1.36674e-21 3.53836e-05)
(3.47516e-05 4.49464e-06 4.16875e-20 3.53259e-05 -6.69453e-23 3.51321e-05)
(3.37495e-05 4.36065e-06 1.74157e-20 3.55913e-05 -1.13486e-22 3.47675e-05)
(3.8624e-05 -2.39242e-06 3.60578e-21 3.10597e-05 1.33285e-21 3.48658e-05)
(3.86392e-05 -1.79541e-06 1.24293e-20 3.05158e-05 2.32492e-21 3.45977e-05)
(3.84875e-05 -1.16008e-06 -2.86383e-20 3.00031e-05 -6.92892e-21 3.42606e-05)
(3.81993e-05 -3.85597e-07 1.09294e-20 2.95342e-05 4.17309e-21 3.38936e-05)
(3.76371e-05 4.38196e-07 3.60016e-20 2.91102e-05 6.73637e-21 3.33896e-05)
(3.70665e-05 1.2336e-06 -9.21883e-21 2.89548e-05 -3.92807e-21 3.30293e-05)
(3.64001e-05 2.01163e-06 -4.66704e-20 2.90235e-05 -7.18168e-21 3.274e-05)
(3.55457e-05 2.71436e-06 1.03384e-19 2.924e-05 1.83319e-20 3.2426e-05)
(3.46022e-05 3.27449e-06 -8.81741e-20 2.95928e-05 -1.47426e-20 3.21353e-05)
(3.36771e-05 3.67156e-06 7.26816e-20 3.00569e-05 1.19155e-20 3.1914e-05)
(3.27671e-05 3.91528e-06 -2.77376e-20 3.05593e-05 -7.49874e-21 3.17209e-05)
(3.18511e-05 4.01648e-06 -3.2295e-20 3.10094e-05 -2.91954e-21 3.14968e-05)
(3.1032e-05 4.0097e-06 -6.68141e-20 3.1459e-05 -6.24261e-21 3.13286e-05)
(3.02036e-05 3.90508e-06 8.5999e-21 3.1765e-05 1.15845e-21 3.10775e-05)
(3.42982e-05 -2.15982e-06 -5.88886e-23 2.7622e-05 -5.77236e-23 3.09824e-05)
(3.43272e-05 -1.63265e-06 3.13277e-21 2.71413e-05 3.86342e-22 3.07556e-05)
(3.41936e-05 -1.06853e-06 -1.70294e-20 2.66757e-05 -3.45387e-21 3.04506e-05)
(3.39251e-05 -3.81267e-07 3.1315e-20 2.62373e-05 6.73945e-21 3.01055e-05)
(3.34378e-05 3.51585e-07 -4.07188e-20 2.58571e-05 -8.52681e-21 2.96617e-05)
(3.29514e-05 1.06117e-06 5.23354e-20 2.57229e-05 1.22092e-20 2.93541e-05)
(3.23694e-05 1.75686e-06 4.84531e-20 2.5781e-05 7.0729e-21 2.91005e-05)
(3.16249e-05 2.38769e-06 -4.62715e-20 2.59764e-05 -1.01671e-20 2.88305e-05)
(3.07979e-05 2.89198e-06 -6.86508e-21 2.6293e-05 2.11028e-21 2.85787e-05)
(2.99907e-05 3.25201e-06 8.7051e-21 2.67142e-05 -3.1776e-21 2.83939e-05)
(2.92066e-05 3.47696e-06 -3.49974e-20 2.71807e-05 -3.55182e-21 2.82453e-05)
(2.84105e-05 3.57458e-06 4.6809e-20 2.7598e-05 6.1575e-21 2.80642e-05)
(2.77e-05 3.57547e-06 2.68859e-20 2.80075e-05 5.06238e-21 2.79275e-05)
(2.7057e-05 3.50022e-06 4.52955e-21 2.83744e-05 -2.09504e-21 2.78038e-05)
(3.05231e-05 -1.95447e-06 -6.12518e-22 2.46198e-05 -2.77395e-22 2.75939e-05)
(3.05263e-05 -1.48586e-06 2.77884e-21 2.41648e-05 6.02655e-22 2.73648e-05)
(3.04032e-05 -9.84319e-07 -8.56696e-22 2.37374e-05 -7.41743e-22 2.70857e-05)
(3.01708e-05 -3.72678e-07 -1.81821e-20 2.33411e-05 -5.06757e-21 2.67792e-05)
(2.97451e-05 2.79725e-07 -4.37093e-20 2.29975e-05 -9.18595e-21 2.63847e-05)
(2.93213e-05 9.12696e-07 -3.04511e-20 2.28741e-05 -6.26059e-21 2.61125e-05)
(2.88136e-05 1.53562e-06 -5.10365e-20 2.29241e-05 -9.97516e-21 2.58915e-05)
(2.81611e-05 2.10223e-06 2.10358e-20 2.30983e-05 4.62149e-21 2.56559e-05)
(2.7436e-05 2.55683e-06 8.42371e-21 2.33833e-05 5.64539e-22 2.54395e-05)
(2.67312e-05 2.88322e-06 -1.10567e-19 2.37657e-05 -1.33519e-20 2.52858e-05)
(2.6041e-05 3.08854e-06 -2.14291e-20 2.41838e-05 3.34596e-22 2.51583e-05)
(2.53475e-05 3.18185e-06 -4.28044e-20 2.45679e-05 -5.05945e-21 2.50114e-05)
(2.47225e-05 3.18781e-06 7.91639e-20 2.49361e-05 6.5532e-21 2.48961e-05)
(2.42024e-05 3.13201e-06 -8.59531e-20 2.53181e-05 -7.58477e-21 2.48426e-05)
(2.35923e-05 3.00732e-06 -3.11743e-20 2.54898e-05 -1.94724e-21 2.46251e-05)
(2.71873e-05 -1.76785e-06 3.76941e-21 2.19619e-05 1.34665e-21 2.45937e-05)
(2.71908e-05 -1.35395e-06 1.29706e-20 2.15508e-05 3.44964e-21 2.43888e-05)
(2.70787e-05 -9.07745e-07 2.34453e-20 2.11592e-05 5.63627e-21 2.41344e-05)
(2.68584e-05 -3.6215e-07 2.35212e-20 2.07857e-05 5.43763e-21 2.38425e-05)
(2.64822e-05 2.19474e-07 3.67657e-20 2.04717e-05 7.76e-21 2.34887e-05)
(2.61194e-05 7.85208e-07 3.5524e-20 2.03636e-05 4.94088e-21 2.32552e-05)
(2.56729e-05 1.34312e-06 -9.29099e-20 2.04037e-05 -1.69386e-20 2.30586e-05)
(2.5098e-05 1.8524e-06 -4.54289e-20 2.0557e-05 -4.80017e-21 2.28511e-05)
(2.4458e-05 2.26175e-06 6.65631e-20 2.08101e-05 1.05735e-20 2.26606e-05)
(2.38359e-05 2.55719e-06 1.25663e-19 2.11519e-05 1.99879e-20 2.25272e-05)
(2.3234e-05 2.74553e-06 6.08155e-20 2.15333e-05 5.9567e-21 2.24252e-05)
(2.26316e-05 2.83437e-06 -1.27557e-20 2.1888e-05 -1.71538e-21 2.23094e-05)
(2.2067e-05 2.84247e-06 -2.25258e-20 2.22085e-05 -3.51604e-21 2.21982e-05)
(2.16222e-05 2.79884e-06 9.79886e-20 2.25597e-05 1.02422e-20 2.21661e-05)
(2.11173e-05 2.69595e-06 -1.99446e-20 2.27637e-05 -2.21945e-21 2.20198e-05)
(2.42607e-05 -1.6016e-06 3.03341e-21 1.96274e-05 5.95248e-22 2.1961e-05)
(2.42453e-05 -1.23552e-06 -2.59096e-21 1.92413e-05 -8.62567e-22 2.17591e-05)
(2.41316e-05 -8.36354e-07 -9.21873e-21 1.88724e-05 -2.20306e-21 2.15157e-05)
(2.39356e-05 -3.49484e-07 -9.0705e-21 1.85305e-05 -3.37544e-21 2.12514e-05)
(2.36061e-05 1.69162e-07 -9.80585e-20 1.8246e-05 -2.00295e-20 2.09368e-05)
(2.32841e-05 6.74861e-07 -1.84565e-20 1.8142e-05 -1.05091e-21 2.07252e-05)
(2.28948e-05 1.17561e-06 4.89648e-20 1.8177e-05 1.03583e-20 2.05539e-05)
(2.23846e-05 1.63307e-06 4.18237e-20 1.83091e-05 6.1532e-21 2.03678e-05)
(2.18207e-05 2.00255e-06 -1.04196e-19 1.85359e-05 -1.53772e-20 2.02021e-05)
(2.12725e-05 2.27009e-06 1.9092e-20 1.88427e-05 4.53699e-22 2.00878e-05)
(2.07396e-05 2.44166e-06 -1.03652e-20 1.91828e-05 -1.33422e-21 1.99984e-05)
(2.02041e-05 2.52422e-06 1.16391e-21 1.94973e-05 1.16018e-21 1.98948e-05)
(1.97175e-05 2.53708e-06 -3.24884e-20 1.98001e-05 -2.38063e-21 1.98145e-05)
(1.93118e-05 2.50016e-06 -5.5421e-20 2.01001e-05 -7.23011e-21 1.97759e-05)
(1.89134e-05 2.41869e-06 1.15528e-21 2.03331e-05 2.53078e-22 1.96966e-05)
(2.16388e-05 -1.44912e-06 -8.63751e-22 1.75319e-05 -1.20604e-22 1.96019e-05)
(2.1641e-05 -1.12824e-06 8.78745e-21 1.71975e-05 2.08617e-21 1.94332e-05)
(2.15339e-05 -7.70955e-07 8.50852e-21 1.68555e-05 1.73375e-21 1.92076e-05)
(2.13459e-05 -3.35958e-07 3.01768e-21 1.65321e-05 5.6927e-22 1.89549e-05)
(2.10548e-05 1.27281e-07 1.18854e-20 1.62722e-05 4.20208e-21 1.86726e-05)
(2.07783e-05 5.80286e-07 8.05588e-20 1.61803e-05 1.42017e-20 1.849e-05)
(2.04329e-05 1.02948e-06 -4.68272e-20 1.62062e-05 -9.4353e-21 1.83354e-05)
(1.99819e-05 1.44105e-06 3.22644e-20 1.63217e-05 8.31728e-21 1.81704e-05)
(1.94799e-05 1.77387e-06 1.13581e-19 1.65205e-05 1.55295e-20 1.80212e-05)
(1.89934e-05 2.01597e-06 -8.60544e-20 1.67933e-05 -1.21808e-20 1.79201e-05)
(1.85252e-05 2.17292e-06 7.18603e-20 1.71012e-05 9.43587e-21 1.78467e-05)
(1.80564e-05 2.2507e-06 5.0566e-20 1.73892e-05 4.13294e-21 1.77632e-05)
(1.76237e-05 2.26499e-06 8.41293e-20 1.76576e-05 8.39634e-21 1.7691e-05)
(1.72446e-05 2.2326e-06 -1.14546e-20 1.79068e-05 -1.13721e-21 1.76364e-05)
(1.69075e-05 2.16525e-06 -3.68438e-20 1.81319e-05 -3.06964e-21 1.75886e-05)
(1.65067e-05 2.06005e-06 -4.16339e-20 1.82131e-05 -2.95721e-21 1.74226e-05)
(1.93087e-05 -1.31192e-06 9.6027e-22 1.56676e-05 -1.14564e-22 1.7508e-05)
(1.93178e-05 -1.02907e-06 -2.2196e-20 1.53715e-05 -4.53518e-21 1.73592e-05)
(1.92175e-05 -7.0991e-07 2.72032e-20 1.50559e-05 6.04424e-21 1.71481e-05)
(1.90498e-05 -3.20859e-07 -8.57342e-21 1.47598e-05 -1.24689e-21 1.69188e-05)
(1.87969e-05 9.28793e-08 7.30736e-20 1.4526e-05 1.37953e-20 1.66694e-05)
(1.85523e-05 4.98378e-07 -4.86792e-20 1.44388e-05 -1.02284e-20 1.65046e-05)
(1.82476e-05 9.01737e-07 8.17527e-21 1.44586e-05 3.44987e-21 1.63671e-05)
(1.78472e-05 1.27199e-06 1.20361e-19 1.45584e-05 1.61112e-20 1.6219e-05)
(1.74012e-05 1.57237e-06 -1.37668e-19 1.47341e-05 -2.16026e-20 1.60865e-05)
(1.69708e-05 1.79175e-06 5.57692e-20 1.49785e-05 9.86495e-21 1.59987e-05)
(1.65532e-05 1.93444e-06 -8.80961e-20 1.52514e-05 -1.39901e-20 1.5932e-05)
(1.61363e-05 2.00644e-06 -1.09064e-19 1.55075e-05 -1.31795e-20 1.58571e-05)
(1.57542e-05 2.0224e-06 -5.40606e-20 1.57521e-05 -6.42412e-21 1.57985e-05)
(1.54245e-05 1.99689e-06 2.2339e-20 1.59819e-05 3.57235e-21 1.57573e-05)
(1.50969e-05 1.93598e-06 5.75848e-20 1.61487e-05 5.51537e-21 1.56822e-05)
(1.47874e-05 1.85025e-06 2.43339e-20 1.62783e-05 2.77706e-21 1.55924e-05)
(1.72553e-05 -9.37247e-07 -7.78561e-21 1.37474e-05 -1.84222e-21 1.55156e-05)
(1.71634e-05 -6.51596e-07 -8.92227e-21 1.34577e-05 -1.83988e-21 1.53219e-05)
(1.70112e-05 -3.04968e-07 -3.40381e-21 1.31858e-05 -1.27328e-21 1.51105e-05)
(1.67877e-05 6.45394e-08 -5.28748e-20 1.29725e-05 -9.35279e-21 1.48867e-05)
(1.65772e-05 4.27936e-07 8.6322e-20 1.28948e-05 1.61495e-20 1.47441e-05)
(1.63061e-05 7.90086e-07 -3.6421e-20 1.29078e-05 -8.77893e-21 1.46193e-05)
(1.595e-05 1.12347e-06 -1.52769e-19 1.29938e-05 -2.43047e-20 1.44864e-05)
(1.55517e-05 1.3941e-06 1.34648e-19 1.3147e-05 2.38701e-20 1.43659e-05)
(1.51659e-05 1.59256e-06 1.97422e-20 1.3362e-05 6.35173e-22 1.42852e-05)
(1.47962e-05 1.72284e-06 4.06963e-20 1.36074e-05 8.50269e-21 1.42283e-05)
(1.44285e-05 1.79001e-06 4.85438e-20 1.38399e-05 7.05729e-21 1.4166e-05)
(1.40853e-05 1.80596e-06 -6.61791e-21 1.40545e-05 9.42712e-22 1.41097e-05)
(1.37786e-05 1.78361e-06 1.0613e-20 1.4246e-05 2.50919e-22 1.40595e-05)
(1.3492e-05 1.73215e-06 -5.84268e-20 1.43975e-05 -6.22564e-21 1.39948e-05)
(1.3229e-05 1.65964e-06 3.24366e-20 1.45268e-05 2.75255e-21 1.39332e-05)
(1.29589e-05 1.56979e-06 -6.25392e-20 1.45889e-05 -5.9551e-21 1.38263e-05)
(1.54279e-05 -8.54725e-07 -5.66083e-21 1.23077e-05 -1.02532e-21 1.38802e-05)
(1.53403e-05 -5.98525e-07 1.44584e-20 1.20387e-05 2.56075e-21 1.36991e-05)
(1.52039e-05 -2.88268e-07 -4.34948e-20 1.17898e-05 -8.77304e-21 1.35076e-05)
(1.50084e-05 4.15827e-08 1.11475e-20 1.15971e-05 1.86728e-21 1.33085e-05)
(1.4819e-05 3.67014e-07 -8.21556e-20 1.15213e-05 -1.5331e-20 1.31769e-05)
(1.45805e-05 6.92634e-07 1.91812e-20 1.15311e-05 4.12369e-21 1.30665e-05)
(1.42614e-05 9.92516e-07 4.24343e-21 1.1603e-05 2.28498e-21 1.29449e-05)
(1.39064e-05 1.23698e-06 -5.7321e-21 1.17381e-05 -2.97458e-21 1.28369e-05)
(1.35612e-05 1.41648e-06 -1.91554e-20 1.19278e-05 -1.65489e-21 1.27635e-05)
(1.32288e-05 1.53468e-06 1.09994e-19 1.21435e-05 1.35126e-20 1.27095e-05)
(1.28958e-05 1.59597e-06 -1.20038e-20 1.23452e-05 -2.75689e-21 1.26481e-05)
(1.25913e-05 1.61238e-06 9.86402e-20 1.25383e-05 1.0362e-20 1.25999e-05)
(1.2318e-05 1.59429e-06 -3.22498e-20 1.27102e-05 -3.95144e-21 1.25566e-05)
(1.20481e-05 1.54826e-06 3.43955e-20 1.28287e-05 4.4105e-21 1.24817e-05)
(1.18192e-05 1.48667e-06 -2.72318e-20 1.29447e-05 -3.26095e-21 1.24287e-05)
(1.15961e-05 1.4094e-06 4.74163e-20 1.30279e-05 5.29721e-21 1.23608e-05)
(1.38063e-05 -7.80055e-07 -2.76854e-20 1.1029e-05 -5.82422e-21 1.24286e-05)
(1.37273e-05 -5.49188e-07 -3.46374e-21 1.0782e-05 2.63963e-22 1.2263e-05)
(1.35976e-05 -2.72165e-07 7.04872e-20 1.05489e-05 1.39985e-20 1.20822e-05)
(1.34234e-05 2.28652e-08 9.65771e-22 1.03721e-05 -1.98338e-22 1.19022e-05)
(1.32588e-05 3.14912e-07 5.09632e-20 1.03034e-05 9.1351e-21 1.17868e-05)
(1.3045e-05 6.07381e-07 -6.01129e-20 1.03073e-05 -1.10408e-20 1.16854e-05)
(1.27604e-05 8.77479e-07 7.92117e-21 1.03686e-05 2.15478e-21 1.15757e-05)
(1.244e-05 1.09767e-06 -2.53914e-20 1.04839e-05 -2.86994e-21 1.14748e-05)
(1.21279e-05 1.2598e-06 2.15036e-20 1.06485e-05 2.35452e-21 1.14047e-05)
(1.183e-05 1.36731e-06 -5.68568e-20 1.08396e-05 -1.03252e-20 1.13555e-05)
(1.15338e-05 1.42406e-06 -3.28622e-20 1.10206e-05 -2.65931e-21 1.13021e-05)
(1.12549e-05 1.43931e-06 -1.08405e-19 1.1184e-05 -1.29769e-20 1.12504e-05)
(1.10001e-05 1.42336e-06 3.30861e-20 1.13257e-05 4.80382e-21 1.11985e-05)
(1.07585e-05 1.38374e-06 1.46149e-20 1.1431e-05 1.10839e-21 1.11327e-05)
(1.05537e-05 1.33044e-06 -1.25204e-20 1.15319e-05 -8.74381e-22 1.10842e-05)
(1.03824e-05 1.26711e-06 -1.36153e-20 1.16339e-05 -1.39682e-21 1.10525e-05)
(1.23607e-05 -7.11678e-07 1.99594e-20 9.88778e-06 4.45077e-21 1.11326e-05)
(1.22836e-05 -5.04312e-07 3.30343e-20 9.65692e-06 6.22486e-21 1.09766e-05)
(1.21711e-05 -2.56258e-07 -2.97149e-20 9.44656e-06 -6.9522e-21 1.08165e-05)
(1.20153e-05 7.73654e-09 -7.97365e-20 9.28407e-06 -1.42493e-20 1.06534e-05)
(1.18669e-05 2.69647e-07 7.84337e-21 9.21749e-06 1.33391e-21 1.05467e-05)
(1.16766e-05 5.32639e-07 -1.66775e-20 9.21785e-06 -2.05244e-21 1.04552e-05)
(1.14217e-05 7.75853e-07 5.08798e-20 9.26912e-06 8.78371e-21 1.0355e-05)
(1.1133e-05 9.74489e-07 6.9828e-20 9.36809e-06 9.62603e-21 1.02619e-05)
(1.08513e-05 1.12095e-06 -4.67213e-20 9.51128e-06 -6.69232e-21 1.01961e-05)
(1.05801e-05 1.21809e-06 -6.69409e-20 9.67602e-06 -7.13405e-21 1.01464e-05)
(1.03105e-05 1.26965e-06 1.34994e-19 9.83133e-06 1.71519e-20 1.00927e-05)
(1.00548e-05 1.28413e-06 6.52257e-20 9.97161e-06 8.46831e-21 1.00403e-05)
(9.8285e-06 1.2714e-06 -2.00442e-20 1.00982e-05 -3.56665e-21 9.99482e-06)
(9.60852e-06 1.23693e-06 9.84569e-21 1.01851e-05 9.83123e-22 9.92965e-06)
(9.41009e-06 1.18882e-06 5.94638e-20 1.02577e-05 6.55689e-21 9.86876e-06)
(9.26976e-06 1.1353e-06 5.07858e-20 1.03629e-05 5.19574e-21 9.85715e-06)
(9.12257e-06 1.07301e-06 7.95743e-21 1.04225e-05 5.89705e-22 9.81389e-06)
(1.10692e-05 -6.48879e-07 -4.81896e-21 8.86658e-06 -1.22795e-21 9.97477e-06)
(1.09998e-05 -4.63588e-07 -3.72991e-20 8.65601e-06 -7.3304e-21 9.83374e-06)
(1.08959e-05 -2.41313e-07 5.52459e-21 8.46109e-06 2.384e-21 9.68481e-06)
(1.07561e-05 -4.6745e-09 1.20907e-19 8.31127e-06 2.14851e-20 9.53653e-06)
(1.06272e-05 2.30681e-07 -9.2349e-20 8.25094e-06 -1.69706e-20 9.44297e-06)
(1.04568e-05 4.67166e-07 8.47026e-21 8.24767e-06 2.03993e-21 9.35905e-06)
(1.02282e-05 6.86277e-07 -4.7367e-21 8.29027e-06 -9.73707e-22 9.2677e-06)
(9.96696e-06 8.65102e-07 -4.5501e-20 8.37367e-06 -5.96038e-21 9.18019e-06)
(9.70991e-06 9.97148e-07 1.29585e-19 8.49549e-06 1.76569e-20 9.11564e-06)
(9.46473e-06 1.08526e-06 5.92587e-21 8.63916e-06 -1.08796e-21 9.06853e-06)
(9.21789e-06 1.13217e-06 -1.2739e-19 8.77203e-06 -1.7279e-20 9.01488e-06)
(8.98328e-06 1.14554e-06 3.44178e-20 8.88939e-06 3.86742e-21 8.96034e-06)
(8.76883e-06 1.13388e-06 -6.27028e-20 8.98758e-06 -7.41669e-21 8.90557e-06)
(8.57084e-06 1.10424e-06 -5.57638e-20 9.06369e-06 -6.40262e-21 8.84633e-06)
(8.39494e-06 1.06291e-06 -2.47872e-20 9.12812e-06 -2.88375e-21 8.79321e-06)
(8.26656e-06 1.01676e-06 1.04327e-20 9.21438e-06 9.10044e-22 8.778e-06)
(8.13974e-06 9.62522e-07 7.18607e-21 9.27615e-06 6.67808e-22 8.74813e-06)
(9.90965e-06 -5.92314e-07 -1.3225e-20 7.9498e-06 -2.42397e-21 8.9362e-06)
(9.84878e-06 -4.26289e-07 2.39557e-20 7.75839e-06 4.89553e-21 8.80843e-06)
(9.75666e-06 -2.26604e-07 1.67659e-20 7.58037e-06 1.90166e-21 8.67407e-06)
(9.63597e-06 -1.46282e-08 -1.31161e-19 7.44608e-06 -2.3508e-20 8.54343e-06)
(9.51913e-06 1.9678e-07 9.53035e-20 7.38749e-06 1.78622e-20 8.4564e-06)
(9.36916e-06 4.09823e-07 -3.45192e-20 7.38357e-06 -5.38796e-21 8.3821e-06)
(9.16314e-06 6.07051e-07 1.09409e-19 7.41773e-06 1.73978e-20 8.29771e-06)
(8.92807e-06 7.68515e-07 7.53257e-20 7.48942e-06 9.59373e-21 8.21744e-06)
(8.69472e-06 8.87555e-07 -1.93464e-19 7.59356e-06 -2.85367e-20 8.15578e-06)
(8.46905e-06 9.66827e-07 -8.71343e-20 7.71439e-06 -1.0389e-20 8.10645e-06)
(8.24108e-06 1.00909e-06 3.68912e-20 7.82436e-06 6.35119e-21 8.05042e-06)
(8.02264e-06 1.02129e-06 -1.36941e-20 7.91962e-06 -2.08735e-21 7.99322e-06)
(7.8272e-06 1.01165e-06 4.32012e-20 8.00178e-06 6.1041e-21 7.93978e-06)
(7.64405e-06 9.85777e-07 -3.62833e-20 8.05956e-06 -3.86499e-21 7.8788e-06)
(7.48248e-06 9.49803e-07 -1.13728e-20 8.11118e-06 -1.28055e-21 7.82728e-06)
(7.3627e-06 9.09535e-07 -8.11186e-21 8.18133e-06 -6.05977e-22 7.80825e-06)
(7.25879e-06 8.64086e-07 -8.6193e-21 8.2451e-06 -9.841e-22 7.79196e-06)
(8.87923e-06 -5.41054e-07 1.14222e-21 7.13432e-06 4.55381e-22 8.01299e-06)
(8.82494e-06 -3.91535e-07 2.80001e-20 6.95899e-06 5.21161e-21 7.89617e-06)
(8.738e-06 -2.13004e-07 -3.0926e-20 6.79291e-06 -5.51148e-21 7.76994e-06)
(8.63287e-06 -2.26575e-08 7.05059e-20 6.67141e-06 1.30517e-20 7.65382e-06)
(8.53227e-06 1.67687e-07 -3.61805e-20 6.61897e-06 -6.78016e-21 7.57809e-06)
(8.39813e-06 3.59424e-07 5.60058e-20 6.61277e-06 8.9126e-21 7.51029e-06)
(8.21422e-06 5.37321e-07 -1.01624e-19 6.6415e-06 -1.76716e-20 7.43415e-06)
(8.00124e-06 6.82689e-07 -8.86926e-21 6.70131e-06 -1.14931e-21 7.35875e-06)
(7.78863e-06 7.90015e-07 1.58215e-19 6.78945e-06 2.4868e-20 7.29918e-06)
(7.58383e-06 8.61759e-07 -1.13939e-20 6.89325e-06 -8.54503e-22 7.2519e-06)
(7.37634e-06 9.0024e-07 -2.36619e-20 6.98635e-06 -2.96162e-21 7.19781e-06)
(7.17237e-06 9.11182e-07 -5.95939e-21 7.06064e-06 -1.19704e-22 7.13689e-06)
(6.98847e-06 9.02636e-07 5.90781e-20 7.12188e-06 7.12477e-21 7.07868e-06)
(6.82293e-06 8.80718e-07 3.31978e-20 7.16938e-06 3.85598e-21 7.02216e-06)
(6.67536e-06 8.49675e-07 -3.62039e-20 7.21087e-06 -4.30049e-21 6.97307e-06)
(6.55707e-06 8.13911e-07 5.65723e-20 7.25959e-06 6.44111e-21 6.94328e-06)
(6.46797e-06 7.75114e-07 7.47349e-21 7.32122e-06 7.37071e-22 6.93524e-06)
(6.36676e-06 7.31176e-07 -4.80485e-20 7.34581e-06 -4.92056e-21 6.8977e-06)
(7.96101e-06 -4.94393e-07 -3.37901e-21 6.40693e-06 -9.46933e-22 7.18879e-06)
(7.90465e-06 -3.60098e-07 -4.29634e-20 6.24054e-06 -8.04685e-21 7.07575e-06)
(7.82977e-06 -2.00104e-07 9.95027e-21 6.09068e-06 2.21274e-21 6.96406e-06)
(7.73842e-06 -2.9128e-08 7.35928e-21 5.98075e-06 7.76918e-22 6.86095e-06)
(7.64859e-06 1.42126e-07 -4.52473e-20 5.93111e-06 -7.72369e-21 6.79165e-06)
(7.52996e-06 3.14974e-07 -4.64197e-20 5.92418e-06 -7.49568e-21 6.73119e-06)
(7.36591e-06 4.75464e-07 -4.99991e-20 5.94825e-06 -7.91473e-21 6.66243e-06)
(7.1746e-06 6.06762e-07 -1.18028e-19 5.99959e-06 -1.68796e-20 6.59377e-06)
(6.98318e-06 7.03731e-07 6.0666e-20 6.07585e-06 8.27375e-21 6.53866e-06)
(6.79621e-06 7.68386e-07 1.17758e-19 6.16331e-06 1.52769e-20 6.4917e-06)
(6.60593e-06 8.03205e-07 4.14153e-20 6.23993e-06 4.66785e-21 6.43772e-06)
(6.42072e-06 8.13814e-07 5.34004e-21 6.30193e-06 3.57347e-22 6.38025e-06)
(6.25371e-06 8.07057e-07 2.04442e-20 6.35214e-06 1.7912e-21 6.32543e-06)
(6.09892e-06 7.87908e-07 3.30295e-20 6.38483e-06 3.62073e-21 6.26648e-06)