/*--------------------------------*- C++ -*----------------------------------*\
| =========                 |                                                 |
| \\      /  F ield         | OpenFOAM: The Open Source CFD Toolbox           |
|  \\    /   O peration     | Version:  2306                                  |
|   \\  /    A nd           | Website:  www.openfoam.com                      |
|    \\/     M anipulation  |                                                 |
\*---------------------------------------------------------------------------*/
FoamFile
{
    version     2.0;
    format      ascii;
    arch        "LSB;label=32;scalar=64";
    class       volScalarField;
    location    "25";
    object      turbulenceProperties:k;
}
// * * * * * * * * * * * * * * * * * * * * * * * * * * * * * * * * * * * * * //

dimensions      [0 2 -2 0 0 0 0];

internalField   nonuniform List<scalar> 
1340
(
0.000404638
0.000402177
0.000398764
0.000393765
0.000386005
0.000342965
0.000340789
0.000337762
0.000333817
0.00032764
0.000321826
0.000292702
0.000290796
0.000288244
0.000285021
0.000280028
0.000275247
0.00027016
0.000251309
0.000249612
0.000247399
0.000244844
0.000240661
0.000236665
0.000232604
0.000227688
0.000216781
0.000215374
0.000213495
0.000211353
0.000207813
0.000204492
0.000201229
0.000197318
0.000192957
0.000187883
0.000186622
0.000184975
0.00018322
0.000180202
0.000177453
0.000174807
0.000171665
0.000168269
0.000164582
0.000163403
0.000162327
0.000160916
0.000159382
0.000156795
0.000154537
0.000152386
0.000149843
0.000147153
0.000144417
0.000142647
0.000141648
0.000140409
0.000139093
0.000136886
0.00013498
0.000133226
0.000131163
0.000128995
0.000126926
0.000124597
0.000124821
0.000123985
0.000122895
0.000121712
0.000119816
0.000118239
0.000116781
0.000115108
0.000113337
0.000111756
0.000110053
0.000109559
0.000108787
0.000107806
0.000106787
0.000105156
0.000103817
0.000102605
0.000101234
9.98125e-05
9.85452e-05
9.72578e-05
9.55414e-05
9.63731e-05
9.57009e-05
9.48327e-05
9.39036e-05
9.24812e-05
9.13614e-05
9.03421e-05
8.92117e-05
8.8057e-05
8.7023e-05
8.60816e-05
8.47336e-05
8.49972e-05
8.43606e-05
8.35855e-05
8.27593e-05
8.15241e-05
8.05489e-05
7.97015e-05
7.87598e-05
7.7827e-05
7.69967e-05
7.62461e-05
7.53348e-05
7.50618e-05
7.45323e-05
7.38319e-05
7.30661e-05
7.19863e-05
7.11618e-05
7.04427e-05
6.96619e-05
6.88929e-05
6.82344e-05
6.76235e-05
6.69764e-05
6.61297e-05
6.64346e-05
6.59457e-05
6.53101e-05
6.4636e-05
6.36849e-05
6.29667e-05
6.23603e-05
6.17063e-05
6.10762e-05
6.05574e-05
6.00606e-05
5.95543e-05
5.90192e-05
5.88759e-05
5.84557e-05
5.78911e-05
5.72642e-05
5.64193e-05
5.58082e-05
5.52874e-05
5.47343e-05
5.42061e-05
5.37859e-05
5.34114e-05
5.2999e-05
5.26048e-05
5.20541e-05
5.22747e-05
5.18763e-05
5.13756e-05
5.08136e-05
5.00684e-05
4.95253e-05
4.90818e-05
4.86059e-05
4.81652e-05
4.7824e-05
4.75237e-05
4.71787e-05
4.69098e-05
4.6523e-05
4.64513e-05
4.61121e-05
4.56599e-05
4.51339e-05
4.44783e-05
4.40142e-05
4.36254e-05
4.32159e-05
4.28348e-05
4.25494e-05
4.23163e-05
4.20363e-05
4.18175e-05
4.16176e-05
4.13684e-05
4.10279e-05
4.06131e-05
4.01456e-05
3.95637e-05
3.91539e-05
3.88146e-05
3.84577e-05
3.81294e-05
3.78914e-05
3.76916e-05
3.74634e-05
3.72773e-05
3.71816e-05
3.68536e-05
3.68714e-05
3.65652e-05
3.61861e-05
3.57432e-05
3.52213e-05
3.48691e-05
3.45676e-05
3.42531e-05
3.39643e-05
3.37575e-05
3.35963e-05
3.34145e-05
3.32368e-05
3.3174e-05
3.29504e-05
3.29246e-05
3.26229e-05
3.22598e-05
3.18588e-05
3.13944e-05
3.10756e-05
3.08128e-05
3.05308e-05
3.02793e-05
3.01015e-05
2.99604e-05
2.97981e-05
2.9666e-05
2.95939e-05
2.94715e-05
2.93862e-05
2.91358e-05
2.87985e-05
2.84164e-05
2.79998e-05
2.77242e-05
2.74873e-05
2.7237e-05
2.70108e-05
2.68534e-05
2.67366e-05
2.66044e-05
2.64861e-05
2.63939e-05
2.6314e-05
2.60713e-05
2.62422e-05
2.60243e-05
2.57107e-05
2.53642e-05
2.49961e-05
2.47479e-05
2.45367e-05
2.43123e-05
2.41109e-05
2.3974e-05
2.38683e-05
2.37505e-05
2.36524e-05
2.35819e-05
2.34639e-05
2.33291e-05
2.32591e-05
2.29715e-05
2.26538e-05
2.23235e-05
2.21081e-05
2.19166e-05
2.17151e-05
2.15323e-05
2.14066e-05
2.1316e-05
2.12172e-05
2.11248e-05
2.1042e-05
2.09422e-05
2.08445e-05
2.0687e-05
2.08079e-05
2.05391e-05
2.02507e-05
1.99571e-05
1.97586e-05
1.9589e-05
1.94046e-05
1.92407e-05
1.91262e-05
1.90409e-05
1.89446e-05
1.88647e-05
1.87924e-05
1.86793e-05
1.85963e-05
1.84924e-05
1.8632e-05
1.83862e-05
1.81143e-05
1.78488e-05
1.76745e-05
1.75189e-05
1.73524e-05
1.71994e-05
1.70905e-05
1.70126e-05
1.69283e-05
1.68446e-05
1.67622e-05
1.66611e-05
1.65849e-05
1.65344e-05
1.66905e-05
1.64585e-05
1.62171e-05
1.59764e-05
1.58156e-05
1.56748e-05
1.55229e-05
1.53815e-05
1.52793e-05
1.52013e-05
1.51172e-05
1.50333e-05
1.49608e-05
1.48616e-05
1.47683e-05
1.47449e-05
1.46795e-05
1.49553e-05
1.47448e-05
1.45209e-05
1.43019e-05
1.41606e-05
1.40317e-05
1.38931e-05
1.37604e-05
1.36605e-05
1.35862e-05
1.35024e-05
1.34165e-05
1.3331e-05
1.32404e-05
1.31581e-05
1.31295e-05
1.3082e-05
1.33978e-05
1.32078e-05
1.30056e-05
1.28127e-05
1.26815e-05
1.25674e-05
1.24393e-05
1.23175e-05
1.2222e-05
1.21449e-05
1.20579e-05
1.19677e-05
1.18844e-05
1.17912e-05
1.17105e-05
1.16761e-05
1.16479e-05
1.20133e-05
1.18401e-05
1.16504e-05
1.14791e-05
1.13647e-05
1.12606e-05
1.11449e-05
1.10307e-05
1.09386e-05
1.08645e-05
1.07802e-05
1.0685e-05
1.05945e-05
1.05072e-05
1.04296e-05
1.038e-05
1.03622e-05
1.03051e-05
1.07784e-05
1.06105e-05
1.04423e-05
1.02901e-05
1.01857e-05
1.00927e-05
9.98829e-06
9.88398e-06
9.79884e-06
9.72561e-06
9.64178e-06
9.55145e-06
9.46564e-06
9.37512e-06
9.29793e-06
9.24614e-06
9.22156e-06
9.17406e-06
9.67327e-06
9.51646e-06
9.35942e-06
9.22287e-06
9.13245e-06
9.04876e-06
8.95553e-06
8.86023e-06
8.78056e-06
8.71523e-06
8.63911e-06
8.55069e-06
8.46449e-06
8.38035e-06
8.30162e-06
8.24718e-06
8.21881e-06
8.17777e-06
8.68042e-06
8.53468e-06
8.39103e-06
8.27129e-06
8.18802e-06
8.11554e-06
8.0316e-06
7.9474e-06
7.87617e-06
7.81565e-06
7.74502e-06
7.66602e-06
7.58902e-06
7.50401e-06
7.42797e-06
7.3751e-06
7.33156e-06
7.29589e-06
7.23022e-06
7.79703e-06
7.66088e-06
7.52463e-06
7.4168e-06
7.34483e-06
7.27987e-06
7.20644e-06
7.13081e-06
7.06695e-06
7.01547e-06
6.95545e-06
6.88232e-06
6.80812e-06
6.73165e-06
6.65399e-06
6.59813e-06
6.55319e-06
6.51065e-06
6.45026e-06
7.00753e-06
6.87555e-06
6.75226e-06
6.654e-06
6.58812e-06
6.53097e-06
6.46656e-06
6.4003e-06
6.34536e-06
6.29991e-06
6.24663e-06
6.18337e-06
6.11842e-06
6.04181e-06
5.96598e-06
5.90504e-06
5.85348e-06
5.80812e-06
5.74521e-06
6.29865e-06
6.17666e-06
6.0599e-06
5.96887e-06
5.91132e-06
5.86033e-06
5.8039e-06
5.74546e-06
5.69685e-06
5.65989e-06
5.616e-06
5.55835e-06
5.4961e-06
5.42817e-06
5.35144e-06
5.29026e-06
5.2428e-06
5.18508e-06
5.12624e-06
5.05561e-06
5.65936e-06
5.54791e-06
5.44041e-06
5.35837e-06
5.3043e-06
5.26018e-06
5.21001e-06
5.1595e-06
5.11772e-06
5.08547e-06
5.0467e-06
4.99698e-06
4.94367e-06
4.87811e-06
4.80908e-06
4.74818e-06
4.69592e-06
4.64476e-06
4.58469e-06
4.52985e-06
5.08742e-06
4.98609e-06
4.88577e-06
4.81034e-06
4.76279e-06
4.72288e-06
4.67908e-06
4.63382e-06
4.59662e-06
4.57015e-06
4.53875e-06
4.49412e-06
4.44444e-06
4.38996e-06
4.32445e-06
4.26957e-06
4.22614e-06
4.17154e-06
4.12194e-06
4.07282e-06
4.57233e-06
4.47814e-06
4.38983e-06
4.32097e-06
4.27684e-06
4.24153e-06
4.20287e-06
4.16278e-06
4.13046e-06
4.10681e-06
4.07883e-06
4.04107e-06
4.00115e-06
3.95211e-06
3.89993e-06
3.85246e-06
3.81057e-06
3.77593e-06
3.72579e-06
3.66934e-06
3.6065e-06
4.1058e-06
4.02266e-06
3.94276e-06
3.8803e-06
3.84194e-06
3.81055e-06
3.77657e-06
3.74038e-06
3.71048e-06
3.69055e-06
3.66769e-06
3.63435e-06
3.59866e-06
3.56186e-06
3.51665e-06
3.48032e-06
3.45385e-06
3.4167e-06
3.36884e-06
3.31342e-06
3.25235e-06
3.68178e-06
3.60902e-06
3.53951e-06
3.4858e-06
3.45075e-06
3.42443e-06
3.39435e-06
3.36223e-06
3.33522e-06
3.31647e-06
3.2952e-06
3.26672e-06
3.23903e-06
3.20693e-06
3.17328e-06
3.14511e-06
3.11749e-06
3.09075e-06
3.04198e-06
2.97955e-06
2.9258e-06
3.29993e-06
3.23613e-06
3.17542e-06
3.12906e-06
3.09993e-06
3.07756e-06
3.05204e-06
3.02269e-06
2.99726e-06
2.98041e-06
2.96227e-06
2.93623e-06
2.91033e-06
2.88657e-06
2.85798e-06
2.83427e-06
2.81715e-06
2.77757e-06
2.72048e-06
2.66662e-06
2.6175e-06
2.95476e-06
2.89704e-06
2.84726e-06
2.80803e-06
2.78307e-06
2.76529e-06
2.74381e-06
2.71766e-06
2.6946e-06
2.67831e-06
2.6607e-06
2.63717e-06
2.6161e-06
2.59355e-06
2.56895e-06
2.54943e-06
2.51799e-06
2.4734e-06
2.42407e-06
2.37875e-06
2.34382e-06
2.31832e-06
2.64279e-06
2.59311e-06
2.5505e-06
2.51751e-06
2.49803e-06
2.48431e-06
2.46666e-06
2.44315e-06
2.42139e-06
2.40689e-06
2.3915e-06
2.36951e-06
2.34801e-06
2.32916e-06
2.30682e-06
2.27817e-06
2.24317e-06
2.20206e-06
2.16259e-06
2.13384e-06
2.11172e-06
2.08574e-06
2.36184e-06
2.3191e-06
2.284e-06
2.25765e-06
2.24136e-06
2.23198e-06
2.21723e-06
2.19641e-06
2.17675e-06
2.16316e-06
2.14861e-06
2.12867e-06
2.11048e-06
2.0928e-06
2.06744e-06
2.03892e-06
2.00956e-06
1.9766e-06
1.95068e-06
1.93476e-06
1.9161e-06
1.89119e-06
2.1124e-06
2.07544e-06
2.04606e-06
2.02426e-06
2.01222e-06
2.0057e-06
1.99366e-06
1.97435e-06
1.95597e-06
1.94434e-06
1.93248e-06
1.91435e-06
1.89674e-06
1.88073e-06
1.85939e-06
1.83756e-06
1.81455e-06
1.79381e-06
1.77976e-06
1.76568e-06
1.74711e-06
1.71721e-06
1.89021e-06
1.85752e-06
1.83487e-06
1.8167e-06
1.80712e-06
1.80332e-06
1.79302e-06
1.77505e-06
1.75839e-06
1.74793e-06
1.73748e-06
1.722e-06
1.70824e-06
1.69513e-06
1.67787e-06
1.66037e-06
1.64761e-06
1.63443e-06
1.62186e-06
1.61375e-06
1.59616e-06
1.56507e-06
1.54401e-06
1.69208e-06
1.66532e-06
1.6466e-06
1.63113e-06
1.62461e-06
1.62284e-06
1.61384e-06
1.59662e-06
1.58055e-06
1.57171e-06
1.56372e-06
1.55048e-06
1.53808e-06
1.52786e-06
1.5142e-06
1.50244e-06
1.49151e-06
1.48136e-06
1.47464e-06
1.46421e-06
1.44831e-06
1.42299e-06
1.40643e-06
1.51517e-06
1.49366e-06
1.47926e-06
1.46676e-06
1.46168e-06
1.46209e-06
1.45388e-06
1.43747e-06
1.42229e-06
1.41374e-06
1.40633e-06
1.39482e-06
1.38474e-06
1.37563e-06
1.36305e-06
1.3507e-06
1.34269e-06
1.33408e-06
1.32362e-06
1.31836e-06
1.30689e-06
1.28332e-06
1.27116e-06
1.35771e-06
1.34038e-06
1.32934e-06
1.31889e-06
1.31632e-06
1.31825e-06
1.31127e-06
1.29551e-06
1.28051e-06
1.27193e-06
1.26517e-06
1.25421e-06
1.24357e-06
1.23421e-06
1.2213e-06
1.21031e-06
1.20049e-06
1.19124e-06
1.18552e-06
1.17784e-06
1.16662e-06
1.15159e-06
1.14607e-06
1.2161e-06
1.20168e-06
1.19467e-06
1.18622e-06
1.1853e-06
1.18894e-06
1.18328e-06
1.16897e-06
1.1545e-06
1.14443e-06
1.13631e-06
1.12561e-06
1.11618e-06
1.10691e-06
1.09389e-06
1.08082e-06
1.07165e-06
1.06297e-06
1.05383e-06
1.04946e-06
1.04458e-06
1.03404e-06
1.02815e-06
1.08798e-06
1.07763e-06
1.07301e-06
1.06641e-06
1.06777e-06
1.07268e-06
1.06851e-06
1.0561e-06
1.04139e-06
1.02912e-06
1.01952e-06
1.00905e-06
1.00022e-06
9.92366e-07
9.803e-07
9.6877e-07
9.58153e-07
9.48257e-07
9.41924e-07
9.36978e-07
9.34205e-07
9.27148e-07
9.22874e-07
9.48433e-07
9.7268e-07
9.65559e-07
9.63742e-07
9.5941e-07
9.61976e-07
9.67841e-07
9.65012e-07
9.55022e-07
9.40266e-07
9.24099e-07
9.11409e-07
9.01284e-07
8.95288e-07
8.89961e-07
8.79851e-07
8.6773e-07
8.57612e-07
8.47631e-07
8.38361e-07
8.35773e-07
8.33587e-07
8.27792e-07
8.2727e-07
8.54105e-07
8.66696e-07
8.61925e-07
8.62677e-07
8.60684e-07
8.65792e-07
8.72214e-07
8.71553e-07
8.64386e-07
8.48967e-07
8.28246e-07
8.12375e-07
8.02384e-07
7.98319e-07
7.96127e-07
7.88606e-07
7.78965e-07
7.67955e-07
7.56255e-07
7.47917e-07
7.41091e-07
7.38401e-07
7.34159e-07
7.33041e-07
7.59473e-07
7.68258e-07
7.64078e-07
7.67418e-07
7.68381e-07
7.76403e-07
7.83952e-07
7.86522e-07
7.83127e-07
7.67741e-07
7.42028e-07
7.21943e-07
7.11504e-07
7.10231e-07
7.11662e-07
7.08032e-07
6.99811e-07
6.89899e-07
6.77704e-07
6.64463e-07
6.5688e-07
6.50664e-07
6.42318e-07
6.41663e-07
6.69174e-07
6.78157e-07
6.76145e-07
6.80817e-07
6.84161e-07
6.95635e-07
7.03735e-07
7.09617e-07
7.09309e-07
6.94379e-07
6.65281e-07
6.42284e-07
6.30677e-07
6.29651e-07
6.33921e-07
6.34272e-07
6.30622e-07
6.22263e-07
6.08871e-07
5.95116e-07
5.80911e-07
5.69732e-07
5.59123e-07
5.54907e-07
5.78502e-07
5.96445e-07
5.9571e-07
6.01689e-07
6.07766e-07
6.22102e-07
6.30448e-07
6.39885e-07
6.41386e-07
6.29366e-07
5.99416e-07
5.74131e-07
5.59901e-07
5.57045e-07
5.61384e-07
5.64535e-07
5.63941e-07
5.59209e-07
5.48101e-07
5.30391e-07
5.13516e-07
4.96377e-07
4.78718e-07
4.73348e-07
4.94527e-07
5.23362e-07
5.23466e-07
5.29844e-07
5.37926e-07
5.55265e-07
5.63597e-07
5.77024e-07
5.80006e-07
5.74723e-07
5.46105e-07
5.19179e-07
5.00895e-07
4.91741e-07
4.9119e-07
4.93657e-07
4.96368e-07
4.95441e-07
4.8567e-07
4.69805e-07
4.47808e-07
4.2381e-07
4.05555e-07
4.01324e-07
4.21948e-07
4.69492e-07
4.50757e-07
4.52037e-07
4.5976e-07
4.71165e-07
4.9244e-07
5.03353e-07
5.21433e-07
5.30466e-07
5.35289e-07
5.03031e-07
4.705e-07
4.46376e-07
4.29154e-07
4.21092e-07
4.1959e-07
4.22439e-07
4.23463e-07
4.17538e-07
4.00953e-07
3.78066e-07
3.56585e-07
3.40156e-07
3.37277e-07
3.57381e-07
3.97492e-07
4.00258e-07
4.03305e-07
4.10235e-07
4.22092e-07
4.42474e-07
4.50665e-07
4.62191e-07
4.78769e-07
4.94657e-07
4.64028e-07
4.28371e-07
4.0352e-07
3.8186e-07
3.67178e-07
3.60285e-07
3.60768e-07
3.6273e-07
3.57129e-07
3.43561e-07
3.27242e-07
3.11614e-07
2.9987e-07
2.98782e-07
3.15351e-07
3.49607e-07
3.68557e-07
3.73848e-07
3.80089e-07
3.90154e-07
4.05391e-07
4.08207e-07
4.09223e-07
4.2316e-07
4.43005e-07
4.19168e-07
3.88287e-07
3.67193e-07
3.47499e-07
3.30984e-07
3.20841e-07
3.19017e-07
3.20518e-07
3.17653e-07
3.08956e-07
2.98446e-07
2.90089e-07
2.83716e-07
2.81911e-07
2.93097e-07
3.19891e-07
3.35644e-07
3.42115e-07
3.47802e-07
3.56523e-07
3.67526e-07
3.67119e-07
3.62885e-07
3.72894e-07
3.95082e-07
3.79542e-07
3.53348e-07
3.34508e-07
3.16286e-07
2.99192e-07
2.86148e-07
2.8222e-07
2.84617e-07
2.84954e-07
2.79247e-07
2.73349e-07
2.70785e-07
2.68236e-07
2.66983e-07
2.74738e-07
2.95333e-07
3.05928e-07
3.13538e-07
3.1905e-07
3.26581e-07
3.32385e-07
3.29803e-07
3.21207e-07
3.25258e-07
3.49654e-07
3.42922e-07
3.21765e-07
3.05937e-07
2.90733e-07
2.75171e-07
2.60778e-07
2.54131e-07
2.55931e-07
2.57609e-07
2.5516e-07
2.50879e-07
2.4865e-07
2.48536e-07
2.4831e-07
2.53232e-07
2.68208e-07
2.76572e-07
2.84972e-07
2.90014e-07
2.96588e-07
2.98128e-07
2.95103e-07
2.83176e-07
2.81294e-07
3.07192e-07
3.06972e-07
2.90519e-07
2.78137e-07
2.674e-07
2.55869e-07
2.42313e-07
2.32999e-07
2.32486e-07
2.36616e-07
2.37248e-07
2.33426e-07
2.30704e-07
2.2937e-07
2.29121e-07
2.33757e-07
2.4549e-07
2.46187e-07
2.54335e-07
2.58822e-07
2.64848e-07
2.62769e-07
2.61496e-07
2.46715e-07
2.40506e-07
2.67807e-07
2.73539e-07
2.60793e-07
2.51103e-07
2.45478e-07
2.39696e-07
2.29351e-07
2.17791e-07
2.12594e-07
2.14588e-07
2.17491e-07
2.15852e-07
2.10552e-07
2.07931e-07
2.09072e-07
2.14645e-07
2.24023e-07
2.15713e-07
2.22623e-07
2.26069e-07
2.31056e-07
2.26406e-07
2.28597e-07
2.10769e-07
2.03154e-07
2.30897e-07
2.43217e-07
2.34184e-07
2.25654e-07
2.22324e-07
2.21451e-07
2.17628e-07
2.08208e-07
1.97518e-07
1.93365e-07
1.95426e-07
1.94094e-07
1.87347e-07
1.78987e-07
1.76817e-07
1.84747e-07
1.96662e-07
1.85029e-07
1.89841e-07
1.92331e-07
1.96244e-07
1.89983e-07
1.9674e-07
1.74962e-07
1.71599e-07
1.97997e-07
2.16405e-07
2.13043e-07
2.04696e-07
1.98078e-07
1.948e-07
1.9394e-07
1.90719e-07
1.82247e-07
1.7218e-07
1.66789e-07
1.64951e-07
1.56194e-07
1.41247e-07
1.33955e-07
1.42276e-07
1.5855e-07
1.71261e-07
1.5494e-07
1.57266e-07
1.58558e-07
1.60991e-07
1.54779e-07
1.65729e-07
1.39125e-07
1.50074e-07
1.71006e-07
1.91461e-07
1.95558e-07
1.90512e-07
1.80187e-07
1.68017e-07
1.58291e-07
1.51238e-07
1.43281e-07
1.31705e-07
1.20035e-07
1.11994e-07
1.03751e-07
9.15012e-08
7.98727e-08
8.05502e-08
9.32966e-08
1.06348e-07
1.27155e-07
1.26354e-07
1.25519e-07
1.26156e-07
1.21918e-07
1.35641e-07
1.08107e-07
1.44863e-07
1.54395e-07
1.68197e-07
1.75215e-07
1.72244e-07
1.64471e-07
1.53857e-07
1.41239e-07
1.27527e-07
1.1307e-07
9.72975e-08
8.09475e-08
6.81011e-08
6.29115e-08
6.2202e-08
6.16195e-08
6.15585e-08
6.2445e-08
6.22641e-08
1.0361e-07
9.79093e-08
9.23932e-08
9.04562e-08
9.12394e-08
1.08577e-07
9.46193e-08
1.55075e-07
1.52996e-07
1.69602e-07
1.95215e-07
1.98617e-07
1.82952e-07
1.56919e-07
1.31816e-07
1.21168e-07
1.29066e-07
1.45837e-07
1.61792e-07
1.73991e-07
1.82737e-07
1.89259e-07
1.94901e-07
2.02987e-07
2.18179e-07
2.40666e-07
8.77023e-08
7.58028e-08
6.22829e-08
5.47727e-08
6.10419e-08
8.30411e-08
9.47766e-08
1.60641e-07
1.56289e-07
1.87821e-07
2.39952e-07
2.81021e-07
3.19437e-07
3.59131e-07
3.96051e-07
4.25125e-07
4.42951e-07
4.5135e-07
4.56241e-07
4.63019e-07
4.74586e-07
4.91852e-07
5.14665e-07
5.39092e-07
5.56643e-07
5.66232e-07
8.46079e-08
7.1917e-08
5.27743e-08
3.14871e-08
2.91606e-08
5.3119e-08
8.40041e-08
1.18247e-07
1.76418e-07
3.91252e-07
6.05244e-07
7.91377e-07
9.32142e-07
1.02739e-06
1.08462e-06
1.11661e-06
1.13556e-06
1.14987e-06
1.16278e-06
1.17445e-06
1.18422e-06
1.19186e-06
1.19868e-06
1.20978e-06
1.2239e-06
1.23475e-06
)
;

boundaryField
{
    inlet
    {
        type            calculated;
        value           nonuniform List<scalar> 
26
(
8.78141e-08
7.73985e-08
5.97674e-08
3.61761e-08
2.00075e-08
4.26249e-08
8.04482e-08
7.43167e-08
3.78316e-07
8.35193e-07
1.33605e-06
1.80644e-06
2.20918e-06
2.53425e-06
2.78181e-06
2.96459e-06
3.09792e-06
3.1966e-06
3.27395e-06
3.3402e-06
3.40261e-06
3.468e-06
3.54319e-06
3.63301e-06
3.72868e-06
3.81678e-06
)
;
    }
    outlet
    {
        type            calculated;
        value           nonuniform List<scalar> 0();
    }
    walls
    {
        type            calculated;
        value           nonuniform List<scalar> 0();
    }
    frontAndBack
    {
        type            empty;
    }
    procBoundary0to1
    {
        type            processor;
        value           nonuniform List<scalar> 
94
(
0.000458572
0.00037864
0.00037864
0.000315068
0.000315068
0.000263298
0.000263298
0.00022136
0.00022136
0.000187462
0.000187462
0.000159843
0.000140962
0.000140962
0.000121222
0.000107566
0.000107566
9.34117e-05
8.29524e-05
7.3879e-05
7.3879e-05
6.47007e-05
5.80428e-05
5.80428e-05
5.10796e-05
4.57249e-05
4.09782e-05
4.09782e-05
3.60846e-05
3.23015e-05
2.8922e-05
2.8922e-05
2.53902e-05
2.29412e-05
2.29412e-05
2.02473e-05
1.81874e-05
1.63024e-05
1.63024e-05
1.43672e-05
1.28699e-05
1.14918e-05
1.14918e-05
1.00781e-05
9.00022e-06
8.04426e-06
8.04426e-06
7.0508e-06
6.30005e-06
5.62997e-06
5.62997e-06
4.93449e-06
4.44617e-06
3.9948e-06
3.9948e-06
3.50077e-06
3.16473e-06
2.86068e-06
2.58311e-06
2.58311e-06
2.30513e-06
2.07212e-06
1.87586e-06
1.70094e-06
1.70094e-06
1.56018e-06
1.4233e-06
1.29602e-06
1.17635e-06
1.05884e-06
1.05884e-06
1.00228e-06
9.04946e-07
8.14121e-07
7.25246e-07
6.38663e-07
5.55294e-07
5.55294e-07
5.36871e-07
4.49149e-07
3.95963e-07
3.58513e-07
3.2489e-07
2.9097e-07
2.61017e-07
2.34693e-07
2.07291e-07
2.07291e-07
1.79011e-07
1.16686e-07
6.06682e-08
2.67218e-07
5.7052e-07
1.24039e-06
)
;
    }
    procBoundary0to4
    {
        type            processor;
        value           nonuniform List<scalar> 
72
(
0.000405108
0.000343692
0.000293523
0.000252024
0.000217488
0.00018852
0.00016403
0.000143165
0.000125343
0.000110055
9.68645e-05
8.54294e-05
7.5503e-05
6.68644e-05
5.92943e-05
5.26418e-05
4.68021e-05
4.16601e-05
3.71277e-05
3.3107e-05
2.95414e-05
2.64316e-05
2.34532e-05
2.34532e-05
2.10012e-05
1.88041e-05
1.68473e-05
1.50853e-05
1.35289e-05
1.21348e-05
1.08926e-05
9.7715e-06
8.78138e-06
7.89203e-06
7.09701e-06
6.37624e-06
5.7368e-06
5.15828e-06
4.63681e-06
4.16017e-06
3.73443e-06
3.34711e-06
2.9972e-06
2.67835e-06
2.39607e-06
2.14232e-06
1.916e-06
1.71191e-06
1.53254e-06
1.37111e-06
1.22626e-06
1.09449e-06
9.7823e-07
8.71711e-07
7.73695e-07
6.83083e-07
6.01956e-07
5.28366e-07
4.5505e-07
4.01747e-07
3.66891e-07
3.3178e-07
2.9943e-07
2.6843e-07
2.37899e-07
2.0838e-07
1.79895e-07
1.52738e-07
1.284e-07
1.09086e-07
9.75658e-08
9.31489e-08
)
;
    }
    procBoundary0to5
    {
        type            processor;
        value           nonuniform List<scalar> 4(0.000481214 0.000478729 0.000474821 0.000468603);
    }
}


// ************************************************************************* //
