/*--------------------------------*- C++ -*----------------------------------*\
| =========                 |                                                 |
| \\      /  F ield         | OpenFOAM: The Open Source CFD Toolbox           |
|  \\    /   O peration     | Version:  2306                                  |
|   \\  /    A nd           | Website:  www.openfoam.com                      |
|    \\/     M anipulation  |                                                 |
\*---------------------------------------------------------------------------*/
FoamFile
{
    version     2.0;
    format      ascii;
    arch        "LSB;label=32;scalar=64";
    class       volScalarField;
    location    "25";
    object      turbulenceProperties:L;
}
// * * * * * * * * * * * * * * * * * * * * * * * * * * * * * * * * * * * * * //

dimensions      [0 1 0 0 0 0 0];

internalField   nonuniform List<scalar> 
1340
(
0.0107385
0.0107713
0.0108174
0.0108859
0.0109947
0.011664
0.0117012
0.0117536
0.0118228
0.0119336
0.0120409
0.0126257
0.012667
0.012723
0.0127947
0.0129082
0.0130197
0.0131417
0.0136257
0.0136719
0.013733
0.0138044
0.0139238
0.0140408
0.0141628
0.0143148
0.0146706
0.0147184
0.0147831
0.0148578
0.0149837
0.0151048
0.0152267
0.0153769
0.0155497
0.0157583
0.0158114
0.0158817
0.0159575
0.0160905
0.0162146
0.0163368
0.0164856
0.0166511
0.0168366
0.0168974
0.0169532
0.0170274
0.0171091
0.0172496
0.017375
0.0174972
0.0176451
0.0178056
0.0179735
0.0180848
0.0181483
0.0182283
0.0183142
0.0184612
0.0185911
0.018713
0.0188596
0.0190174
0.0191718
0.0193502
0.0193328
0.0193978
0.0194837
0.019578
0.0197323
0.0198634
0.019987
0.0201317
0.0202884
0.0204314
0.020589
0.0206353
0.0207083
0.0208023
0.0209012
0.0210626
0.021198
0.0213228
0.0214667
0.021619
0.0217576
0.0219013
0.0220971
0.0220015
0.0220786
0.0221794
0.0222888
0.0224595
0.0225967
0.0227237
0.0228672
0.0230167
0.0231531
0.0232794
0.0234639
0.0234274
0.0235155
0.0236243
0.0237419
0.023921
0.0240653
0.0241929
0.0243371
0.0244825
0.0246142
0.0247351
0.0248844
0.0249294
0.0250177
0.0251361
0.0252674
0.0254562
0.0256032
0.0257335
0.0258773
0.0260213
0.0261467
0.0262646
0.0263912
0.0265597
0.0264985
0.0265964
0.0267255
0.0268645
0.0270643
0.0272182
0.0273502
0.0274947
0.0276361
0.0277543
0.027869
0.0279873
0.0281139
0.0281478
0.0282487
0.0283861
0.0285411
0.0287539
0.0289109
0.0290467
0.0291931
0.029335
0.0294494
0.0295526
0.0296674
0.0297784
0.0299356
0.029872
0.0299864
0.0301321
0.0302983
0.0305229
0.0306898
0.0308281
0.0309786
0.0311201
0.0312309
0.0313295
0.0314439
0.031534
0.0316649
0.0316889
0.0318052
0.0319623
0.0321479
0.032384
0.0325543
0.032699
0.0328535
0.0329994
0.0331099
0.033201
0.0333115
0.0333986
0.0334788
0.0335791
0.033718
0.0338898
0.0340865
0.0343363
0.0345155
0.034666
0.0348264
0.0349761
0.0350858
0.0351788
0.0352858
0.0353738
0.0354194
0.0355768
0.0355676
0.0357161
0.0359027
0.0361245
0.0363912
0.0365745
0.0367336
0.0369018
0.0370584
0.0371718
0.037261
0.0373623
0.037462
0.0374976
0.0376247
0.0376389
0.0378124
0.0380246
0.0382632
0.0385451
0.0387423
0.0389072
0.0390865
0.0392484
0.0393643
0.0394569
0.0395643
0.0396523
0.0397007
0.0397832
0.0398402
0.040011
0.0402446
0.0405143
0.0408146
0.041017
0.0411934
0.0413822
0.0415551
0.0416768
0.0417678
0.0418715
0.0419649
0.0420383
0.0421022
0.0422979
0.0421591
0.0423352
0.0425925
0.0428825
0.0431971
0.0434132
0.0435996
0.0438004
0.0439829
0.0441084
0.044206
0.0443156
0.0444074
0.0444739
0.0445857
0.0447145
0.0447808
0.0450603
0.0453752
0.0457096
0.0459318
0.046132
0.0463455
0.0465419
0.0466783
0.0467775
0.0468864
0.0469889
0.0470812
0.0471935
0.0473041
0.0474839
0.0473449
0.0476537
0.0479918
0.0483436
0.0485858
0.0487956
0.0490268
0.0492352
0.0493824
0.0494931
0.0496188
0.0497237
0.0498194
0.0499701
0.0500816
0.0502222
0.0500329
0.0503663
0.0507427
0.0511188
0.0513702
0.0515979
0.0518448
0.0520749
0.0522405
0.0523602
0.0524904
0.0526206
0.05275
0.0529099
0.0530313
0.0531124
0.0528627
0.0532339
0.0536287
0.0540312
0.0543052
0.0545485
0.0548147
0.0550661
0.0552499
0.0553917
0.0555455
0.0557003
0.0558352
0.0560213
0.0561982
0.0562428
0.0563682
0.0558452
0.0562424
0.0566743
0.0571065
0.0573909
0.0576536
0.0579405
0.0582192
0.0584317
0.0585914
0.058773
0.0589608
0.0591497
0.0593517
0.0595371
0.0596022
0.0597104
0.0590017
0.0594246
0.0598848
0.0603338
0.0606452
0.0609198
0.0612327
0.0615347
0.0617745
0.0619703
0.0621935
0.0624275
0.062646
0.0628932
0.0631097
0.0632025
0.0632792
0.0623088
0.0627629
0.0632716
0.0637423
0.0640623
0.0643576
0.0646906
0.0650249
0.0652978
0.0655203
0.0657758
0.0660684
0.0663499
0.0666249
0.0668724
0.0670323
0.0670899
0.0672756
0.0657812
0.0662996
0.0668315
0.0673241
0.0676682
0.0679793
0.0683335
0.0686931
0.0689909
0.0692502
0.0695506
0.0698787
0.0701947
0.0705328
0.070825
0.0710232
0.071118
0.0713021
0.0694368
0.0700065
0.0705915
0.0711123
0.0714636
0.0717934
0.0721661
0.0725531
0.0728815
0.0731542
0.0734757
0.0738546
0.0742297
0.0746015
0.0749545
0.0752015
0.0753313
0.0755203
0.0733
0.0739232
0.0745534
0.0750913
0.0754724
0.0758087
0.0762039
0.0766065
0.0769521
0.0772495
0.0776009
0.0779997
0.0783943
0.0788372
0.0792397
0.0795233
0.0797592
0.079954
0.0803165
0.0773406
0.0780248
0.0787282
0.0792988
0.0796866
0.0800415
0.0804483
0.0808739
0.0812385
0.081536
0.081887
0.0823209
0.0827682
0.083237
0.0837213
0.084075
0.0843629
0.0846382
0.0850336
0.0815807
0.0823599
0.0831086
0.0837205
0.0841384
0.084506
0.0849259
0.0853644
0.0857333
0.086042
0.0864082
0.086849
0.0873087
0.0878605
0.0884171
0.0888721
0.0892627
0.0896107
0.0901001
0.0860486
0.0868942
0.0877275
0.0883944
0.0888241
0.0892101
0.089643
0.0900979
0.0904815
0.0907766
0.0911307
0.091602
0.0921192
0.0926938
0.0933558
0.0938941
0.0943181
0.0948417
0.0953845
0.0960487
0.0907784
0.0916856
0.0925872
0.0932938
0.0937686
0.0941615
0.0946141
0.0950764
0.0954638
0.0957662
0.0961334
0.0966105
0.09713
0.0977804
0.0984795
0.0991091
0.099659
0.100206
0.100861
0.10147
0.095745
0.096713
0.0977009
0.0984645
0.0989553
0.099373
0.0998375
0.100324
0.10073
0.101021
0.10137
0.101872
0.10244
0.103074
0.103851
0.104517
0.105052
0.105737
0.106372
0.107011
0.100994
0.102051
0.103072
0.10389
0.104426
0.10486
0.105342
0.105848
0.106262
0.106568
0.106933
0.107431
0.107966
0.108634
0.109358
0.110029
0.110632
0.111139
0.111884
0.112741
0.113719
0.106578
0.107673
0.108759
0.109631
0.110177
0.11063
0.111128
0.111665
0.112114
0.112417
0.112767
0.113283
0.113844
0.11443
0.115163
0.115763
0.116205
0.116835
0.117662
0.118642
0.119751
0.112548
0.113676
0.114787
0.115668
0.116254
0.116701
0.117217
0.117776
0.118253
0.118587
0.11897
0.119488
0.119998
0.120597
0.121234
0.121776
0.122314
0.122842
0.123823
0.125113
0.126257
0.118881
0.120047
0.121189
0.122083
0.122656
0.123101
0.123615
0.124215
0.124741
0.125094
0.125477
0.126033
0.126593
0.127113
0.127747
0.12828
0.128669
0.129583
0.130935
0.132251
0.133486
0.125634
0.126879
0.127982
0.128873
0.12945
0.129866
0.130373
0.131
0.13156
0.13196
0.132397
0.132987
0.133522
0.134101
0.134742
0.135257
0.136099
0.13732
0.13871
0.140025
0.141064
0.141838
0.132842
0.134108
0.135223
0.136106
0.136636
0.137013
0.137502
0.138163
0.138783
0.139201
0.139649
0.140296
0.140938
0.141508
0.142191
0.143083
0.144195
0.145535
0.146857
0.147843
0.148615
0.149537
0.140521
0.14181
0.142895
0.143726
0.144247
0.14455
0.14503
0.145716
0.146374
0.146834
0.147331
0.14802
0.148657
0.149284
0.150197
0.151244
0.152346
0.153611
0.154628
0.155263
0.156017
0.157041
0.148586
0.149903
0.150975
0.151786
0.152238
0.152485
0.152945
0.153692
0.154413
0.154875
0.15535
0.156085
0.156809
0.157475
0.158377
0.159315
0.160323
0.161248
0.161883
0.162527
0.163389
0.164805
0.157077
0.158453
0.159427
0.160222
0.160646
0.160815
0.161276
0.16209
0.162857
0.163344
0.163835
0.164571
0.165233
0.165872
0.166723
0.1676
0.168249
0.168926
0.16958
0.170006
0.17094
0.17263
0.173804
0.166018
0.167347
0.168295
0.16909
0.169429
0.169521
0.169993
0.170907
0.171774
0.172257
0.172697
0.173434
0.174132
0.174715
0.175502
0.176188
0.176833
0.177439
0.177843
0.178476
0.179454
0.181044
0.182107
0.175443
0.176702
0.177559
0.178314
0.178623
0.178597
0.1791
0.18012
0.181079
0.181626
0.182104
0.182855
0.18352
0.184128
0.184976
0.185821
0.186375
0.186977
0.187715
0.18809
0.188914
0.190641
0.191551
0.185338
0.186532
0.187304
0.188045
0.188227
0.188089
0.188588
0.189731
0.19084
0.191483
0.191994
0.192831
0.193655
0.19439
0.195415
0.196302
0.197104
0.197869
0.198347
0.198993
0.199949
0.20125
0.201734
0.195832
0.197003
0.19758
0.198282
0.198358
0.198053
0.198525
0.199737
0.200984
0.201867
0.202588
0.203549
0.204408
0.205263
0.206482
0.207728
0.208615
0.209466
0.210374
0.210812
0.211306
0.212381
0.212989
0.207042
0.208034
0.208481
0.209124
0.20899
0.20851
0.208915
0.210139
0.211618
0.212876
0.213876
0.214984
0.215932
0.216785
0.218117
0.219412
0.220625
0.221774
0.22252
0.223107
0.223439
0.224289
0.224809
0.22176
0.21897
0.219776
0.219982
0.220477
0.220182
0.219513
0.219834
0.22098
0.222707
0.224647
0.226206
0.227474
0.228235
0.228918
0.230231
0.231834
0.233198
0.234568
0.235863
0.236229
0.23654
0.237367
0.237443
0.233685
0.231972
0.232613
0.232511
0.232779
0.23209
0.231233
0.23132
0.232276
0.234376
0.23729
0.239598
0.241086
0.2417
0.242033
0.243185
0.244686
0.246435
0.248335
0.249716
0.250865
0.251323
0.252049
0.252242
0.247815
0.246386
0.247058
0.246519
0.246363
0.245086
0.243902
0.243503
0.24403
0.246463
0.250697
0.254162
0.25602
0.256251
0.255994
0.25665
0.258154
0.260002
0.262332
0.264934
0.266459
0.26773
0.269465
0.269604
0.264005
0.262243
0.262632
0.261728
0.261086
0.258923
0.257428
0.256358
0.256414
0.259156
0.264764
0.269463
0.271932
0.272155
0.271237
0.271163
0.271947
0.273768
0.276763
0.279944
0.283347
0.286114
0.288817
0.289913
0.283941
0.279629
0.279801
0.278406
0.277009
0.273797
0.271978
0.269965
0.269649
0.272213
0.278932
0.285008
0.288608
0.289348
0.288229
0.287425
0.287577
0.288791
0.291703
0.296534
0.301368
0.306527
0.31213
0.313897
0.307104
0.298515
0.298484
0.29668
0.294441
0.289806
0.287656
0.284289
0.283559
0.284861
0.29223
0.299713
0.305135
0.307963
0.308137
0.307367
0.306528
0.306815
0.309887
0.315076
0.322722
0.331734
0.339118
0.340903
0.332468
0.315187
0.321658
0.321201
0.31849
0.31461
0.307737
0.304383
0.299059
0.296504
0.295168
0.304486
0.314837
0.323233
0.329656
0.332798
0.333395
0.33227
0.331869
0.334216
0.341059
0.351231
0.361656
0.370287
0.371864
0.361255
0.342546
0.341346
0.340053
0.337167
0.332396
0.324648
0.321684
0.317647
0.312102
0.307052
0.317026
0.329957
0.339966
0.349476
0.356396
0.35979
0.35955
0.358578
0.36138
0.368447
0.377522
0.386873
0.394377
0.395095
0.384577
0.365252
0.355723
0.353196
0.350283
0.345733
0.339171
0.337999
0.337579
0.331976
0.324459
0.33356
0.346571
0.356388
0.366348
0.375378
0.381266
0.382356
0.381461
0.383178
0.388534
0.395316
0.400971
0.405449
0.406746
0.39891
0.381841
0.372755
0.369212
0.366181
0.361672
0.356215
0.356411
0.358483
0.353644
0.343574
0.350541
0.363303
0.373395
0.384001
0.394819
0.403718
0.406519
0.404804
0.404566
0.40868
0.413066
0.415017
0.416985
0.417962
0.412022
0.397398
0.390439
0.38567
0.382324
0.377888
0.374571
0.376033
0.381031
0.378655
0.365212
0.368783
0.380717
0.390442
0.400522
0.411692
0.422901
0.428397
0.426889
0.425497
0.427534
0.431166
0.433095
0.433195
0.433393
0.429161
0.417009
0.410635
0.404537
0.401004
0.396534
0.395505
0.397525
0.40581
0.40717
0.389635
0.38978
0.400668
0.40949
0.417632
0.426938
0.438718
0.447401
0.447895
0.44397
0.443379
0.446994
0.449623
0.450929
0.451174
0.446679
0.435876
0.435236
0.428207
0.424478
0.419619
0.421273
0.422296
0.434762
0.440343
0.417302
0.412913
0.422886
0.430969
0.43588
0.441106
0.450945
0.462757
0.468379
0.466199
0.463078
0.464833
0.470647
0.473603
0.47231
0.466139
0.45628
0.46496
0.457686
0.454183
0.449253
0.453841
0.45166
0.470374
0.479114
0.449419
0.437895
0.446263
0.45462
0.458014
0.458916
0.46293
0.473286
0.485923
0.491115
0.488518
0.490193
0.49894
0.510458
0.513581
0.502441
0.486984
0.502028
0.495624
0.492403
0.487469
0.495433
0.486853
0.516261
0.521304
0.485321
0.464229
0.46788
0.477324
0.485233
0.4893
0.490384
0.494508
0.50587
0.520447
0.528792
0.531731
0.546431
0.57461
0.59004
0.57253
0.54236
0.521851
0.548602
0.544529
0.542305
0.538189
0.548879
0.530442
0.578935
0.55743
0.522214
0.493539
0.488347
0.494773
0.508751
0.526851
0.542795
0.555306
0.570515
0.595054
0.623302
0.645283
0.670417
0.713861
0.764025
0.760809
0.706968
0.662191
0.605563
0.607478
0.609493
0.60795
0.618422
0.586316
0.656728
0.567363
0.549581
0.526561
0.515914
0.520348
0.532502
0.550562
0.574625
0.604721
0.642205
0.69228
0.758936
0.82736
0.860769
0.865658
0.869736
0.870168
0.863979
0.865232
0.670821
0.690062
0.710348
0.717906
0.71482
0.655303
0.701953
0.548366
0.552084
0.524376
0.488779
0.484579
0.504898
0.545165
0.594802
0.620379
0.601103
0.565495
0.536894
0.517734
0.505195
0.496416
0.489178
0.479338
0.462351
0.440223
0.729086
0.784181
0.865019
0.922325
0.873754
0.749253
0.701368
0.53878
0.546236
0.498296
0.440867
0.407385
0.382105
0.360371
0.343163
0.331221
0.324487
0.321454
0.319726
0.317378
0.313487
0.307936
0.301034
0.294136
0.289463
0.287002
0.742287
0.805064
0.939594
1.21539
1.26266
0.936546
0.744948
0.627945
0.514128
0.345249
0.277585
0.242756
0.223677
0.213057
0.207361
0.20437
0.202659
0.201395
0.200274
0.199278
0.198455
0.197818
0.197255
0.196349
0.195214
0.194354
)
;

boundaryField
{
    inlet
    {
        type            calculated;
        value           nonuniform List<scalar> 
26
(
0.790801
0.842287
0.95835
1.23097
1.65116
1.13438
0.826182
0.859557
0.381064
0.256469
0.202776
0.174389
0.157694
0.147233
0.140529
0.136128
0.133166
0.131095
0.129537
0.128246
0.127064
0.125861
0.124518
0.122969
0.121381
0.119972
)
;
    }
    outlet
    {
        type            calculated;
        value           nonuniform List<scalar> 0();
    }
    walls
    {
        type            calculated;
        value           nonuniform List<scalar> 0();
    }
    frontAndBack
    {
        type            empty;
    }
    procBoundary0to1
    {
        type            processor;
        value           nonuniform List<scalar> 
94
(
0.0100875
0.011101
0.011101
0.0121693
0.0121693
0.0133118
0.0133118
0.0145179
0.0145179
0.0157759
0.0157759
0.0170844
0.0181925
0.0181925
0.0196176
0.0208256
0.0208256
0.0223476
0.0237144
0.0251283
0.0251283
0.0268514
0.0283494
0.0283494
0.0302198
0.0319401
0.0337391
0.0337391
0.0359539
0.0380009
0.0401594
0.0401594
0.0428615
0.045091
0.045091
0.0479969
0.0506417
0.0534892
0.0534892
0.0569777
0.0602005
0.0637079
0.0637079
0.0680293
0.0719875
0.0761446
0.0761446
0.0813322
0.0860416
0.0910178
0.0910178
0.0972205
0.10242
0.108051
0.108051
0.115424
0.121398
0.127686
0.134371
0.134371
0.142243
0.150028
0.157682
0.165591
0.165591
0.172901
0.181024
0.189706
0.199122
0.209881
0.209881
0.215723
0.227027
0.239355
0.253596
0.270239
0.289815
0.289815
0.294748
0.322249
0.34321
0.360689
0.378893
0.400368
0.422715
0.445789
0.474338
0.474338
0.510433
0.632193
0.876524
0.417782
0.285923
0.193912
)
;
    }
    procBoundary0to4
    {
        type            processor;
        value           nonuniform List<scalar> 
72
(
0.0107323
0.0116517
0.0126081
0.0136065
0.0146468
0.0157318
0.0168652
0.0180521
0.0192927
0.0205889
0.0219458
0.0233682
0.0248566
0.0264133
0.0280486
0.0297679
0.0315702
0.0334616
0.0354449
0.0375353
0.0397357
0.0420079
0.0445952
0.0445952
0.0471265
0.0498034
0.0526161
0.0556039
0.0587151
0.061996
0.0654354
0.0690869
0.0728775
0.0768737
0.0810648
0.0855235
0.0901636
0.0950851
0.100289
0.105879
0.111751
0.118041
0.124741
0.131957
0.139514
0.147545
0.156016
0.165054
0.174446
0.18443
0.195019
0.206426
0.218348
0.231305
0.245519
0.261297
0.278347
0.297099
0.320138
0.340714
0.356531
0.374921
0.394652
0.416817
0.442753
0.47307
0.509141
0.552543
0.602623
0.653777
0.691274
0.70746
)
;
    }
    procBoundary0to5
    {
        type            processor;
        value           nonuniform List<scalar> 4(0.00984718 0.00987269 0.00991338 0.00997899);
    }
}


// ************************************************************************* //
