/*--------------------------------*- C++ -*----------------------------------*\
| =========                 |                                                 |
| \\      /  F ield         | OpenFOAM: The Open Source CFD Toolbox           |
|  \\    /   O peration     | Version:  2306                                  |
|   \\  /    A nd           | Website:  www.openfoam.com                      |
|    \\/     M anipulation  |                                                 |
\*---------------------------------------------------------------------------*/
FoamFile
{
    version     2.0;
    format      ascii;
    arch        "LSB;label=32;scalar=64";
    class       volVectorField;
    location    "700";
    object      momentError;
}
// * * * * * * * * * * * * * * * * * * * * * * * * * * * * * * * * * * * * * //

dimensions      [0 1 -2 0 0 0 0];

internalField   nonuniform List<vector> 
1340
(
(6.98622e-05 -0.000197994 -6.95743e-15)
(6.05814e-05 -0.000233402 2.41135e-14)
(4.70179e-05 -0.00027142 -4.72326e-14)
(6.53112e-06 -0.000251352 1.778e-14)
(-1.52066e-05 -0.000257311 1.10239e-13)
(-3.32744e-05 -0.000254245 -1.75099e-13)
(-5.69038e-05 -0.000280356 8.99985e-14)
(-8.63452e-05 -0.000293424 -1.11069e-13)
(-0.000119577 -0.000296436 -2.5463e-13)
(-0.000144015 -0.000269096 3.44118e-13)
(-0.000153307 -0.000227834 1.24149e-13)
(-0.000155195 -0.00019026 -2.28811e-13)
(-0.000150692 -0.000160177 -3.34526e-13)
(-0.000146571 -0.000135964 -5.72036e-14)
(-0.000145465 -0.000118019 -1.39768e-13)
(-0.000157372 -0.000109786 -3.10395e-13)
(-0.000150058 -9.15747e-05 -1.46757e-13)
(-0.000133289 -5.45246e-05 8.32708e-13)
(4.38755e-06 1.42124e-05 4.23308e-13)
(7.71937e-06 -0.000130933 -5.95091e-13)
(0.000912442 0.000251798 1.05315e-13)
(0.000185574 0.000651467 1.53275e-13)
(0.0014507 0.000509455 -6.74747e-14)
(0.0221702 0.0038439 -1.51581e-13)
(0.0228621 0.00590844 3.5713e-14)
(-0.00291367 0.0020931 -2.34824e-15)
(-0.010645 -0.00156013 4.15485e-14)
(-0.00835252 -0.00317524 -1.64635e-14)
(-0.0030673 -0.00232249 4.39581e-14)
(0.00224106 -0.000822456 1.54492e-13)
(0.00307095 -8.94733e-05 3.03062e-14)
(0.00140628 6.64568e-05 -1.28626e-13)
(-0.000405997 0.000118905 -7.91816e-15)
(-0.000807636 0.000134012 -2.15711e-13)
(-0.000758308 0.000242309 -2.82317e-13)
(8.19734e-05 -0.000187875 -1.0766e-14)
(8.89964e-05 -0.000131097 2.65582e-14)
(9.56444e-05 -8.83867e-05 1.73222e-15)
(8.17156e-05 -3.8444e-05 3.61656e-14)
(7.89017e-05 -1.60908e-05 -3.28851e-14)
(2.0879e-05 6.09856e-05 -9.40224e-14)
(-1.06386e-06 8.27951e-05 -1.07345e-13)
(9.49002e-05 -0.000191119 -1.31424e-14)
(8.44791e-05 -0.000217445 5.88449e-15)
(6.77253e-05 -0.000244688 7.81389e-15)
(3.40151e-05 -0.000236033 -3.36621e-14)
(1.68425e-06 -0.000232932 2.10325e-14)
(-8.06159e-06 -0.000245445 8.03964e-14)
(-4.21708e-05 -0.000270063 1.03894e-13)
(-6.7922e-05 -0.000285386 1.00638e-13)
(-0.000100913 -0.000286107 -3.9878e-15)
(-0.000123468 -0.000260088 1.90681e-13)
(-0.000134562 -0.00022198 -2.0886e-13)
(-0.00013415 -0.000181276 -1.19528e-13)
(-0.000131814 -0.000144754 4.48618e-13)
(-0.00012323 -0.000117792 1.28259e-13)
(-0.000122612 -9.32036e-05 -1.19187e-13)
(-0.000136736 -6.77138e-05 -1.78005e-14)
(-8.02363e-05 -7.307e-05 3.42058e-13)
(9.24659e-05 -0.000140096 -1.53339e-13)
(0.000244504 -0.000229565 -4.91943e-13)
(0.00499715 -0.000872722 1.88439e-13)
(-0.0109301 0.00214056 2.3544e-13)
(0.00392091 -0.00172294 4.67709e-14)
(0.0366298 0.00930191 -1.3086e-13)
(0.00885904 0.0109337 1.92532e-13)
(-0.0784163 -0.00614543 -4.19893e-14)
(-0.0640304 -0.0110657 -7.04627e-14)
(0.00347535 -0.00600297 -3.01912e-14)
(0.00684766 -0.00493926 5.59989e-15)
(-0.00437965 -0.00334281 -1.49987e-14)
(-0.00218443 -0.000816584 -1.58822e-14)
(-0.0001383 0.000531644 -2.03952e-14)
(-0.000120585 0.000560319 3.52778e-14)
(0.000365613 0.000290778 -1.88223e-13)
(-0.000324967 0.000248522 -2.24044e-13)
(-0.00084723 0.000239396 1.62302e-13)
(0.000104691 -0.00016596 -4.63885e-15)
(0.000125738 -0.000127257 1.24099e-13)
(0.000131396 -8.55826e-05 -7.98398e-15)
(0.000130629 -4.39639e-05 -1.29076e-13)
(0.000113079 -3.55749e-06 -2.56851e-14)
(7.81509e-05 3.92884e-05 1.27347e-13)
(7.39342e-05 -0.000173377 -5.07373e-15)
(6.6754e-05 -0.000187744 -8.20193e-16)
(4.73763e-05 -0.000200987 -5.83695e-15)
(1.48259e-05 -0.000201292 1.55514e-14)
(-5.44088e-06 -0.000200889 3.91319e-15)
(-2.01237e-05 -0.00022143 -3.37372e-14)
(-4.13821e-05 -0.000241205 -1.07609e-13)
(-6.64691e-05 -0.000257972 -9.54175e-14)
(-9.42387e-05 -0.000250682 -1.11322e-13)
(-0.000116061 -0.000227191 1.10097e-14)
(-0.000127492 -0.00019341 2.64052e-13)
(-0.000130597 -0.000160399 7.0621e-14)
(-0.000129532 -0.000131243 -9.9311e-14)
(-0.000128678 -0.000105894 -2.41054e-13)
(-0.000127428 -8.70592e-05 1.10245e-13)
(-0.000112975 -6.67167e-05 1.45922e-13)
(-0.000158588 3.20487e-05 -9.42423e-14)
(-0.000342603 0.000191393 -1.89374e-13)
(-0.000664411 0.00111774 3.17157e-13)
(-0.00400344 0.000717865 -9.48706e-14)
(0.00694793 -0.00988492 -1.19559e-13)
(0.000181131 -0.00234944 1.78543e-13)
(-0.0294593 -0.0138074 7.38944e-14)
(-0.0508374 -0.0108198 -3.36038e-15)
(-0.00433473 0.0020623 -3.30744e-14)
(0.040428 0.00911353 3.54557e-15)
(0.0382714 0.00222755 -3.05915e-14)
(0.0184917 -0.00186705 2.10649e-14)
(0.0370193 -0.000787467 -3.31639e-14)
(0.0166379 0.00172322 -7.21101e-14)
(-0.00351635 0.00181519 6.96095e-14)
(-0.0021499 0.00126219 3.08499e-14)
(-0.000748823 0.000876221 -1.21845e-13)
(-0.000360669 0.000522087 7.82247e-14)
(-0.000358862 0.000227875 1.65116e-14)
(9.68898e-05 -0.000146476 2.9218e-14)
(0.0001086 -0.00011949 -2.76869e-14)
(0.000118027 -8.50116e-05 -9.83432e-14)
(0.000115152 -5.37166e-05 4.48519e-14)
(0.000101854 -1.95678e-05 2.05984e-14)
(8.1801e-05 1.05446e-05 -6.4571e-14)
(5.69519e-05 -0.000142935 7.92675e-15)
(4.46319e-05 -0.000169084 -2.34387e-15)
(3.09259e-05 -0.000175455 6.66036e-17)
(2.44047e-06 -0.000179568 -7.13005e-15)
(-9.98197e-06 -0.000185474 1.9958e-15)
(-2.70131e-05 -0.000205563 3.58143e-14)
(-4.56903e-05 -0.000228111 5.84657e-14)
(-6.93631e-05 -0.000233967 5.46315e-14)
(-9.33581e-05 -0.000225847 -1.33388e-13)
(-0.000111923 -0.000204734 -1.11642e-13)
(-0.000121358 -0.000174869 1.41518e-13)
(-0.000125416 -0.000145933 2.56582e-13)
(-0.000124883 -0.000119943 1.35702e-13)
(-0.000123642 -9.72069e-05 -4.72148e-13)
(-0.00011885 -8.0388e-05 -1.62162e-13)
(-0.000124856 -5.51948e-05 3.85911e-13)
(-0.000125315 -4.96627e-05 8.3927e-14)
(-9.38239e-05 -0.000107705 -1.2427e-13)
(-0.00016459 -0.000165174 -2.28419e-13)
(-0.000351483 -0.00169308 1.97905e-13)
(0.00242321 0.00446181 4.35909e-14)
(0.000386124 0.000117878 -2.22435e-13)
(0.00999969 0.00725625 1.6557e-13)
(0.0127328 0.00762503 -1.14159e-13)
(0.00386279 0.00367985 -3.71873e-14)
(-0.00366802 -0.00561003 3.56367e-14)
(-0.00381468 -0.00190921 -4.55804e-14)
(0.128215 -0.0123102 1.00782e-14)
(0.00583928 -0.0011078 1.36505e-14)
(-0.0601275 0.00893952 2.11183e-14)
(-0.0174234 -0.000651048 -9.04126e-15)
(-0.0234001 0.00189352 2.55558e-14)
(-0.0114805 0.000605213 2.07248e-13)
(-0.0029034 0.000429807 5.34678e-14)
(0.000315174 8.0403e-06 -7.58544e-14)
(7.71854e-05 -0.000128019 1.88165e-14)
(8.98232e-05 -0.000111532 -3.68744e-14)
(9.95811e-05 -8.69383e-05 -4.04089e-15)
(9.70972e-05 -6.14243e-05 -3.37243e-14)
(9.04228e-05 -3.27798e-05 -2.08222e-14)
(4.70951e-05 -0.000124751 -4.04107e-15)
(3.20793e-05 -0.000142812 4.77981e-15)
(1.58191e-05 -0.000155544 5.64944e-17)
(-4.13564e-06 -0.000162044 -4.1763e-15)
(-1.64526e-05 -0.000172427 -2.88316e-14)
(-3.00977e-05 -0.000192314 3.46357e-14)
(-5.02015e-05 -0.000207458 1.2634e-14)
(-7.2095e-05 -0.000208651 -7.01524e-14)
(-9.28048e-05 -0.000199068 -5.8231e-14)
(-0.00010915 -0.000179291 -1.21381e-13)
(-0.000117883 -0.000153122 1.74614e-14)
(-0.000121757 -0.00012833 -1.32355e-13)
(-0.000121585 -0.000105987 8.04609e-15)
(-0.000119486 -8.70075e-05 3.54352e-13)
(-0.000117789 -6.96517e-05 -2.34207e-13)
(-0.000116383 -5.22071e-05 -1.67665e-13)
(-0.000117533 -3.27887e-05 1.0158e-13)
(-0.00011821 -1.82421e-05 -1.31966e-13)
(-0.00016645 -3.9285e-05 8.4892e-14)
(-0.000176379 1.2658e-05 -1.4397e-13)
(-0.000253194 3.90939e-05 -1.61816e-13)
(-0.000646165 0.000160694 1.83267e-13)
(0.00272546 0.000936125 -4.05343e-14)
(0.00409559 0.0016877 8.96881e-14)
(0.00186927 0.000450292 5.67696e-14)
(-0.00709982 -0.00159344 6.31022e-15)
(0.00298398 -0.0060377 1.08822e-13)
(-0.0796446 0.00777246 -2.11386e-14)
(-0.00311852 -0.00264432 2.24999e-14)
(0.0124666 0.00144041 -5.58075e-14)
(0.0137309 0.0044396 -1.55454e-13)
(-0.0112442 -0.00178735 1.29788e-15)
(-0.0078945 6.54642e-05 1.40179e-13)
(-0.00525851 -2.74497e-05 -3.31496e-14)
(0.000793073 -0.000298607 -1.04849e-13)
(5.62227e-05 -0.000113765 2.02826e-14)
(7.04744e-05 -0.000103685 1.43635e-14)
(7.68298e-05 -8.67046e-05 -3.19923e-14)
(7.98877e-05 -6.43106e-05 7.88749e-14)
(7.63475e-05 -4.10005e-05 1.86885e-13)
(3.19986e-05 -0.00011137 1.93828e-15)
(2.15789e-05 -0.000122657 5.06791e-16)
(7.83883e-06 -0.000137243 3.1625e-15)
(-8.26405e-06 -0.00015154 -2.45879e-15)
(-1.93961e-05 -0.000162117 -1.08436e-15)
(-3.36217e-05 -0.000178547 1.63381e-14)
(-5.35262e-05 -0.000189107 7.60515e-15)
(-7.37811e-05 -0.000186493 4.04773e-14)
(-9.25479e-05 -0.000176828 6.79654e-14)
(-0.000106726 -0.000158247 -3.20433e-14)
(-0.000114604 -0.000135676 -7.79475e-15)
(-0.000118138 -0.000114573 7.50088e-14)
(-0.000118372 -9.54681e-05 -1.45507e-13)
(-0.000116037 -7.86384e-05 -2.89385e-13)
(-0.00011359 -6.29023e-05 1.75229e-13)
(-0.00010954 -4.89231e-05 2.68355e-13)
(-0.000108061 -3.60365e-05 -3.55849e-13)
(-0.000110773 -3.01016e-05 6.0668e-14)
(-0.000133316 -4.48773e-05 1.11899e-13)
(-0.000179335 -8.38161e-06 -1.12965e-13)
(-0.000215274 9.40006e-05 8.56212e-14)
(-0.000419392 6.10548e-05 -8.73354e-14)
(-0.000713063 0.000698995 -1.69253e-13)
(6.61648e-05 0.00219927 -5.03175e-14)
(0.00120325 0.00190658 -1.16204e-13)
(0.000448648 -0.00104978 5.63253e-14)
(-0.0117654 -0.00212116 -1.62121e-14)
(-0.011827 -0.000825795 -1.09036e-14)
(0.00377266 0.00124861 2.13875e-14)
(0.0371034 -0.00169746 4.25758e-14)
(-0.00887779 0.00319948 3.28554e-14)
(0.0104608 -0.000920525 -4.52716e-14)
(-0.000558404 -0.000539603 -1.16434e-13)
(-0.00201186 -0.000535953 -1.48664e-13)
(0.000254491 -0.000531909 3.37791e-14)
(4.16131e-05 -0.000103426 8.59492e-15)
(5.14919e-05 -9.77791e-05 -2.0693e-14)
(5.86986e-05 -8.39424e-05 1.04909e-14)
(6.25097e-05 -6.49121e-05 -5.83379e-15)
(1.69073e-05 -9.84678e-05 3.09102e-15)
(1.07549e-05 -0.000111377 5.82455e-16)
(2.11107e-06 -0.000125623 -1.12641e-15)
(-1.17357e-05 -0.000141633 4.16962e-15)
(-2.26456e-05 -0.000152698 -8.69018e-15)
(-3.68933e-05 -0.00016462 -1.09432e-15)
(-5.66818e-05 -0.000169155 2.35996e-14)
(-7.51253e-05 -0.000165248 -1.11468e-14)
(-9.22708e-05 -0.000155008 -3.96142e-14)
(-0.000105302 -0.000138302 2.65385e-14)
(-0.000112487 -0.00011858 -6.07786e-14)
(-0.00011638 -0.000100334 -1.50861e-13)
(-0.000116584 -8.40036e-05 1.06604e-13)
(-0.000114045 -6.89367e-05 3.77167e-13)
(-0.000110699 -5.49816e-05 -1.38922e-14)
(-0.00010745 -4.09574e-05 -4.01369e-13)
(-0.000105962 -2.82796e-05 3.32534e-13)
(-0.000110124 -1.83385e-05 2.3337e-13)
(-0.000126907 -1.17069e-05 1.24569e-13)
(-0.000156046 2.18357e-05 5.87364e-14)
(-0.000178308 6.42909e-05 -2.8842e-14)
(-0.000325547 7.49402e-05 1.61936e-13)
(-0.000433889 0.000529137 1.11968e-13)
(0.000539428 0.00152005 -1.01881e-14)
(0.00227513 0.00125042 2.14257e-13)
(0.0028345 -0.000869017 -6.5705e-14)
(0.00158734 -0.00294918 -7.65299e-15)
(-0.00214966 -0.00223021 5.6775e-15)
(-0.00291516 0.000303995 -2.01427e-14)
(-0.00189572 0.00201407 -2.08175e-14)
(0.00197282 0.00150574 -1.5256e-14)
(0.00365458 0.0001027 4.77744e-14)
(0.00155875 -0.000344151 -2.2775e-14)
(-0.000906629 -0.000449504 -1.27983e-13)
(-0.000264711 -0.000627816 -2.07552e-14)
(2.77698e-05 -9.43338e-05 -9.66505e-15)
(3.64373e-05 -9.083e-05 1.21941e-14)
(4.51625e-05 -7.97837e-05 -2.61343e-14)
(5.12345e-05 -6.19068e-05 -3.94504e-15)
(1.12063e-05 -8.97834e-05 1.40114e-15)
(6.78734e-06 -0.00010477 1.51055e-15)
(-1.32709e-06 -0.000119477 -9.49552e-16)
(-1.45892e-05 -0.000133362 -1.91883e-15)
(-2.4969e-05 -0.000142668 -3.80278e-15)
(-4.01352e-05 -0.000152626 1.65054e-14)
(-5.82274e-05 -0.000154016 1.38751e-14)
(-7.54822e-05 -0.000147599 -5.19115e-14)
(-9.0765e-05 -0.000136947 2.17311e-14)
(-0.000102396 -0.000121907 1.11285e-13)
(-0.000109627 -0.000104335 4.63177e-14)
(-0.000113608 -8.91173e-05 2.13134e-14)
(-0.000114191 -7.49399e-05 -1.87882e-13)
(-0.000111648 -6.14575e-05 -4.29856e-13)
(-0.00010769 -4.8574e-05 -3.04037e-13)
(-0.000103652 -3.59916e-05 1.20067e-13)
(-9.99277e-05 -2.59515e-05 -7.38523e-14)
(-0.000102226 -1.56801e-05 -3.77116e-13)
(-0.000115265 -2.23256e-06 -1.94585e-13)
(-0.000134751 3.30902e-05 1.60889e-13)
(-0.00014812 6.92737e-05 1.6097e-13)
(-0.000237479 8.91792e-05 -9.33454e-14)
(-0.000267393 0.000427053 -3.83134e-14)
(0.000383635 0.00108056 2.39809e-15)
(0.00155858 0.000817407 -6.0965e-14)
(0.00178946 -0.000851293 6.32919e-14)
(0.000287801 -0.00237046 7.2196e-15)
(-0.00212408 -0.00196329 4.3206e-15)
(-0.00291867 1.0976e-05 -4.41477e-15)
(-0.00129933 0.00116363 5.21823e-14)
(-0.000140101 0.00095482 3.49636e-14)
(0.00111141 0.000265137 -3.44379e-15)
(0.00100737 -0.000183237 1.13108e-13)
(-0.000181234 -0.000157512 7.80678e-14)
(-0.00199509 0.00191834 -4.04551e-14)
(1.96139e-05 -8.47807e-05 7.39129e-15)
(2.92896e-05 -8.31318e-05 -1.20441e-14)
(3.87797e-05 -7.09503e-05 3.26935e-15)
(4.66965e-05 -5.5245e-05 6.10929e-14)
(1.12165e-05 -8.15307e-05 2.41732e-15)
(5.42331e-06 -9.43843e-05 4.02436e-15)
(-1.3098e-06 -0.000114022 -1.76074e-16)
(-1.4809e-05 -0.000124329 2.08082e-19)
(-2.67301e-05 -0.000126855 -2.54027e-15)
(-4.11964e-05 -0.000138662 -6.73417e-15)
(-5.83602e-05 -0.000138169 -4.93855e-15)
(-7.44923e-05 -0.000133389 -5.23681e-14)
(-8.83349e-05 -0.000123577 -1.00714e-15)
(-9.86927e-05 -0.000108621 1.92803e-14)
(-0.000105588 -9.25953e-05 -2.32914e-14)
(-0.000111043 -7.87811e-05 1.41246e-13)
(-0.000111782 -6.65083e-05 1.49071e-13)
(-0.00010944 -5.42256e-05 2.6949e-14)
(-0.000105112 -4.21207e-05 2.76872e-13)
(-0.000100388 -3.04537e-05 -5.76107e-14)
(-9.6621e-05 -1.96342e-05 -7.29821e-16)
(-9.63892e-05 -8.73634e-06 2.14469e-13)
(-0.000104741 6.14432e-06 9.99262e-14)
(-0.000115809 3.65834e-05 -2.94234e-14)
(-0.000124083 7.42809e-05 -1.21911e-13)
(-0.000165475 0.000113193 -1.15865e-14)
(-0.000149602 0.000348411 -9.366e-14)
(0.000326724 0.000766135 -8.1038e-14)
(0.00115791 0.000513127 4.88754e-14)
(0.00129046 -0.000773524 -3.10923e-14)
(5.30418e-05 -0.00194709 -5.64889e-14)
(-0.00157435 -0.00163158 6.45118e-15)
(-0.00198628 -8.18728e-05 -3.11529e-15)
(-0.00109878 0.00092228 -3.83366e-15)
(-6.54489e-05 0.000735358 8.20605e-14)
(0.000548253 0.000190473 -2.93324e-14)
(0.000713571 -0.000185714 -3.90336e-14)
(0.000353975 -0.000287109 2.27056e-13)
(-0.00130385 9.47498e-05 3.7075e-14)
(1.8816e-05 -7.71464e-05 -1.31444e-14)
(2.69814e-05 -7.34466e-05 -3.10177e-14)
(3.67772e-05 -6.40094e-05 5.0689e-14)
(-2.57505e-05 -0.000118341 9.00194e-15)
(-4.03737e-05 -0.00011635 -2.93908e-15)
(-5.59849e-05 -0.000121639 2.92743e-14)
(-7.18319e-05 -0.000119454 2.04787e-14)
(-8.38188e-05 -0.000111322 5.1601e-15)
(-9.43928e-05 -9.91011e-05 -1.70687e-15)
(-0.000101321 -8.29101e-05 7.12004e-15)
(-0.000106636 -7.06132e-05 -3.14154e-14)
(-0.000109158 -5.97861e-05 -1.37085e-13)
(-0.000106604 -4.81767e-05 3.64127e-14)
(-0.000102351 -3.66281e-05 1.8814e-14)
(-9.68951e-05 -2.54453e-05 5.2527e-14)
(-9.21741e-05 -1.50869e-05 -4.53482e-16)
(-8.92214e-05 -4.94733e-06 -9.40643e-14)
(-9.41609e-05 1.13078e-05 -1.38998e-13)
(-9.96173e-05 3.96672e-05 -1.19687e-13)
(-0.000101888 7.52532e-05 -6.96971e-14)
(-0.000114766 0.000121415 -5.64247e-14)
(-6.85618e-05 0.000297152 1.91329e-14)
(0.000297244 0.00056009 6.72242e-14)
(0.000896833 0.000318012 -3.61852e-14)
(0.000961621 -0.000689252 -1.37662e-14)
(-1.05185e-05 -0.00160999 4.44586e-14)
(-0.00126435 -0.00134941 2.10505e-15)
(-0.00152648 -9.51338e-05 2.45309e-14)
(-0.00073024 0.000740679 -3.05758e-14)
(8.85159e-05 0.000612474 -1.01145e-13)
(0.00042315 0.000156089 -5.51586e-14)
(0.00043314 -0.00017071 3.49539e-14)
(0.000318337 -0.00028552 -1.50171e-14)
(2.35174e-05 -0.000236857 2.03703e-14)
(-5.41979e-05 -0.00010777 -3.581e-15)
(-6.52209e-05 -9.86457e-05 -2.51516e-14)
(-7.85543e-05 -9.97778e-05 -5.04029e-14)
(-8.87481e-05 -8.77513e-05 2.86056e-14)
(-9.5716e-05 -7.67162e-05 2.54464e-14)
(-0.000102313 -6.52102e-05 1.48726e-14)
(-0.000105117 -5.43407e-05 6.21606e-14)
(-0.000103666 -4.33085e-05 4.23966e-15)
(-9.93123e-05 -3.19084e-05 3.33482e-14)
(-9.34086e-05 -2.09432e-05 -5.10104e-14)
(-8.7864e-05 -1.04031e-05 -5.49522e-14)
(-8.3638e-05 -3.94865e-07 6.43111e-14)
(-8.43706e-05 1.44005e-05 1.26944e-13)
(-8.53682e-05 3.9534e-05 6.41837e-14)
(-8.20823e-05 7.16839e-05 4.55235e-14)
(-7.72899e-05 0.000114789 3.34393e-14)
(-1.61893e-05 0.00023743 6.31471e-14)
(0.000266743 0.000393267 -3.6048e-14)
(0.000695595 0.000176072 -5.68001e-14)
(0.000717678 -0.000598969 3.56788e-15)
(-5.1393e-05 -0.00131042 -1.98224e-14)
(-0.00105436 -0.00110198 -6.76129e-15)
(-0.00127693 -9.25783e-05 -4.18721e-14)
(-0.000619196 0.000619238 2.24098e-14)
(9.87478e-05 0.000546369 5.69537e-14)
(0.000354414 0.000163306 1.25278e-13)
(0.000261119 -0.000127721 1.23548e-14)
(9.04898e-05 -0.000235111 -1.15974e-13)
(-0.000102267 -0.000210091 2.27042e-15)
(-7.21806e-05 -8.58266e-05 -6.97185e-14)
(-7.69433e-05 -6.85067e-05 -7.26878e-14)
(-9.18017e-05 -7.45237e-05 -1.3191e-14)
(-9.58067e-05 -6.02499e-05 -3.21643e-14)
(-0.000100558 -5.1253e-05 7.23981e-14)
(-9.96756e-05 -3.94854e-05 -2.92286e-14)
(-9.57746e-05 -2.82449e-05 -1.44818e-13)
(-8.97943e-05 -1.7103e-05 1.0111e-13)
(-8.33407e-05 -6.56441e-06 9.97252e-14)
(-7.80163e-05 3.35839e-06 -5.34643e-15)
(-7.53275e-05 1.62142e-05 -1.57511e-13)
(-7.36116e-05 3.8657e-05 -1.28566e-13)
(-6.59455e-05 6.71683e-05 6.84405e-14)
(-5.1023e-05 0.000103688 1.07519e-13)
(1.34559e-05 0.000185808 -3.91571e-14)
(0.000230388 0.000268017 -1.51391e-14)
(0.000533511 7.43309e-05 -1.08544e-14)
(0.000526179 -0.000521212 7.1511e-16)
(-7.7185e-05 -0.0010652 -1.02558e-14)
(-0.000871031 -0.000899409 4.37243e-15)
(-0.00106958 -9.24772e-05 6.88317e-15)
(-0.000551006 0.00051066 -2.79168e-14)
(6.41929e-05 0.000485425 -1.53719e-14)
(0.000304237 0.000169419 -2.90572e-14)
(0.00019997 -8.94324e-05 -1.75885e-13)
(-4.80844e-06 -0.00018894 -1.05628e-14)
(-0.000171889 -0.000181182 6.21876e-14)
(-7.34099e-05 -6.67546e-05 -1.29144e-13)
(-7.64193e-05 -5.3304e-05 3.31762e-14)
(-9.34607e-05 -6.32786e-05 1.13826e-13)
(-9.41804e-05 -4.71631e-05 -7.85723e-14)
(-9.52135e-05 -3.66917e-05 -6.5424e-14)
(-9.17729e-05 -2.5388e-05 8.22989e-14)
(-8.59065e-05 -1.40663e-05 -1.48635e-13)
(-7.90127e-05 -3.45856e-06 1.24895e-14)
(-7.25822e-05 6.38243e-06 2.11844e-13)
(-6.77683e-05 1.68731e-05 8.33496e-14)
(-6.41071e-05 3.59603e-05 1.47034e-13)
(-5.33858e-05 6.05484e-05 -3.25671e-14)
(-3.30322e-05 8.9133e-05 -9.97097e-14)
(2.80728e-05 0.000140396 2.22646e-14)
(0.000192509 0.000173614 5.13019e-14)
(0.000402845 4.47982e-06 4.03146e-14)
(0.000377166 -0.000450782 2.74455e-15)
(-9.33408e-05 -0.000862947 2.26924e-14)
(-0.000714698 -0.000734321 -4.35792e-15)
(-0.000889336 -9.59236e-05 1.46642e-14)
(-0.000491877 0.000409598 1.44843e-14)
(2.08505e-05 0.000421698 6.59637e-16)
(0.000248716 0.000166662 -7.27227e-14)
(0.000168224 -6.09191e-05 6.71684e-15)
(-2.90636e-05 -0.00015393 1.43269e-13)
(-0.000203509 -0.000146665 9.93969e-14)
(-7.23002e-05 -5.2115e-05 6.09833e-15)
(-7.97718e-05 -4.65096e-05 -1.82433e-15)
(-9.18939e-05 -4.93441e-05 4.8241e-14)
(-8.95417e-05 -3.35369e-05 -2.60453e-14)
(-8.77786e-05 -2.32091e-05 5.76903e-14)
(-8.1709e-05 -1.16427e-05 2.32846e-13)
(-7.46378e-05 -9.14376e-07 -6.85722e-14)
(-6.74771e-05 8.59311e-06 -5.856e-14)
(-6.15381e-05 1.73226e-05 2.70921e-14)
(-5.64466e-05 3.27974e-05 -3.62116e-14)
(-4.41375e-05 5.3146e-05 1.62666e-14)
(-2.19053e-05 7.43519e-05 1.46944e-14)
(3.24848e-05 0.000102821 -2.73917e-14)
(0.000155111 0.00010537 -1.43006e-14)
(0.000297794 -4.05803e-05 -2.81002e-14)
(0.000261803 -0.000386561 3.27038e-15)
(-0.000103186 -0.000696406 3.22249e-15)
(-0.000585948 -0.000597614 1.71422e-15)
(-0.000736203 -9.89246e-05 -1.78334e-15)
(-0.000435506 0.000320414 -1.7539e-14)
(-1.66818e-05 0.000357827 5.06871e-15)
(0.000190797 0.000157208 7.22821e-14)
(0.000135041 -3.99994e-05 8.31615e-14)
(-3.78249e-05 -0.000126763 -1.6697e-13)
(-0.000202872 -0.000122398 -2.47384e-13)
(-7.02624e-05 -4.95532e-05 4.15143e-14)
(-7.09451e-05 -3.88638e-05 2.33554e-14)
(-8.62476e-05 -4.49038e-05 -1.69823e-14)
(-8.46492e-05 -3.18666e-05 1.91843e-14)
(-8.32993e-05 -2.12843e-05 9.76345e-15)
(-7.75128e-05 -9.9378e-06 -3.74978e-14)
(-7.04436e-05 8.12302e-07 5.73935e-14)
(-6.31049e-05 9.85839e-06 -1.57664e-13)
(-5.64716e-05 1.7319e-05 -2.20165e-13)
(-5.05333e-05 2.89335e-05 -9.04127e-14)
(-3.81323e-05 4.48959e-05 1.69244e-14)
(-1.61385e-05 5.96945e-05 9.73631e-15)
(3.01681e-05 7.22178e-05 2.6344e-14)
(0.000119961 5.66596e-05 4.52243e-14)
(0.000214012 -6.71164e-05 -2.27312e-14)
(0.000172846 -0.000328233 -1.98893e-14)
(-0.000109016 -0.000558782 6.96168e-16)
(-0.000481376 -0.000483055 -6.97711e-15)
(-0.000608382 -9.70589e-05 4.96278e-15)
(-0.00038408 0.000247079 5.40266e-14)
(-4.67735e-05 0.000298995 4.5673e-14)
(0.000136208 0.000145488 -1.85578e-14)
(9.88003e-05 -2.26877e-05 -1.73682e-14)
(-4.86319e-05 -0.000101399 1.06666e-13)
(-0.000196586 -9.93874e-05 2.06977e-13)
(-6.96317e-05 -3.98365e-05 1.06423e-14)
(-7.05951e-05 -2.98232e-05 -1.32021e-14)
(-8.35281e-05 -3.36005e-05 3.43366e-14)
(-7.80359e-05 -1.93303e-05 -3.71146e-15)
(-7.36359e-05 -8.52097e-06 -1.5801e-13)
(-6.66039e-05 1.91728e-06 -5.0895e-14)
(-5.93509e-05 1.03713e-05 1.92064e-13)
(-5.24387e-05 1.67096e-05 3.43125e-15)
(-4.60055e-05 2.48698e-05 5.68649e-14)
(-3.4723e-05 3.69573e-05 1.20088e-14)
(-1.4175e-05 4.61985e-05 8.10411e-14)
(2.35093e-05 4.83108e-05 1.60166e-14)
(8.81136e-05 2.29349e-05 -1.13302e-14)
(0.00014745 -8.01068e-05 5.91823e-16)
(0.000105177 -0.000276305 2.34002e-14)
(-0.00011177 -0.000445307 -7.99695e-15)
(-0.0003972 -0.000387553 6.33278e-15)
(-0.000503177 -9.06859e-05 -1.84099e-15)
(-0.000337674 0.000188537 -1.53539e-14)
(-6.88438e-05 0.000248163 -4.3597e-14)
(8.8705e-05 0.000133063 -4.22277e-14)
(6.41901e-05 -8.11322e-06 -6.37731e-15)
(-6.04241e-05 -7.8022e-05 1.84803e-14)
(-0.000191002 -7.79842e-05 -7.56002e-14)
(-6.72661e-05 -2.92456e-05 9.87961e-16)
(-6.98298e-05 -2.24098e-05 2.03497e-14)
(-7.73478e-05 -2.15179e-05 -2.73925e-14)
(-6.89773e-05 -6.67268e-06 1.39083e-15)
(-6.34813e-05 2.41158e-06 -3.54642e-14)
(-5.62261e-05 1.02855e-05 -1.11733e-13)
(-4.93441e-05 1.54571e-05 8.7089e-14)
(-4.28998e-05 2.07233e-05 -3.19977e-14)
(-3.32429e-05 2.91949e-05 -5.95441e-14)
(-1.492e-05 3.4196e-05 -9.38775e-14)
(1.45337e-05 2.97477e-05 -3.16426e-14)
(5.99081e-05 5.67285e-07 -3.53828e-14)
(9.5068e-05 -8.39929e-05 4.00275e-14)
(5.41331e-05 -0.000230229 1.04221e-14)
(-0.000112454 -0.000352633 -1.98951e-14)
(-0.000329836 -0.000308168 6.08953e-15)
(-0.000417111 -8.1099e-05 2.27507e-14)
(-0.00029689 0.000143501 -3.12277e-14)
(-8.50717e-05 0.000205249 -3.98129e-14)
(4.80018e-05 0.000121086 2.37454e-14)
(3.26265e-05 4.43911e-06 2.21704e-14)
(-7.18872e-05 -5.57959e-05 -1.16813e-14)
(-0.000185623 -5.68741e-05 -4.78624e-14)
(-6.43462e-05 -2.8141e-05 -2.24608e-14)
(-6.17016e-05 -1.73996e-05 -3.15875e-14)
(-7.25118e-05 -1.85432e-05 5.29247e-14)
(-6.52482e-05 -5.76662e-06 3.58949e-14)
(-6.03255e-05 2.8699e-06 2.06218e-14)
(-5.371e-05 9.55408e-06 9.64538e-14)
(-4.70347e-05 1.36805e-05 -5.56958e-14)
(-4.10149e-05 1.68052e-05 8.73264e-14)
(-3.30319e-05 2.20785e-05 6.90818e-15)
(-1.74376e-05 2.41741e-05 1.2699e-14)
(4.75158e-06 1.59863e-05 1.08839e-13)
(3.54244e-05 -1.31239e-05 2.35736e-14)
(5.4189e-05 -8.16366e-05 -4.37134e-14)
(1.61403e-05 -0.000189602 -2.99287e-14)
(-0.000111361 -0.000277196 3.6211e-15)
(-0.000276115 -0.000242462 -3.73356e-15)
(-0.000347146 -6.99457e-05 -6.55417e-15)
(-0.000260972 0.000109286 1.44154e-14)
(-9.57204e-05 0.000169698 3.97887e-14)
(1.45346e-05 0.000109949 1.82966e-14)
(5.39552e-06 1.55216e-05 3.30514e-14)
(-8.1738e-05 -3.54378e-05 3.91839e-15)
(-0.000180972 -3.63566e-05 5.74054e-15)
(-5.96543e-05 -1.6931e-05 -3.78054e-14)
(-5.92264e-05 -9.30105e-06 -3.0267e-14)
(-6.53949e-05 -7.88758e-06 4.4741e-15)
(-5.68298e-05 3.06878e-06 -6.34301e-14)
(-5.21137e-05 8.20293e-06 -9.33963e-14)
(-4.56352e-05 1.15463e-05 1.97774e-14)
(-4.0042e-05 1.32585e-05 -2.00572e-14)
(-3.36237e-05 1.57834e-05 5.90285e-14)
(-2.12046e-05 1.56742e-05 -5.67837e-14)
(-5.11351e-06 6.11612e-06 -9.09068e-14)
(1.46417e-05 -2.09162e-05 -1.67956e-14)
(2.24543e-05 -7.53102e-05 2.59419e-14)
(-1.17992e-05 -0.000154393 1.71597e-14)
(-0.000109382 -0.000215954 1.33762e-14)
(-0.000233482 -0.00018863 -2.45072e-16)
(-0.000290749 -5.78521e-05 -1.28256e-15)
(-0.000229987 8.39379e-05 -2.18219e-15)
(-0.000102966 0.000140597 -1.2738e-14)
(-1.32463e-05 9.93041e-05 -1.51933e-14)
(-1.84549e-05 2.50344e-05 -1.78593e-15)
(-9.05143e-05 -1.69583e-05 5.82892e-15)
(-0.000175379 -1.61146e-05 3.47619e-14)
(-5.72946e-05 -1.60029e-05 -9.8466e-14)
(-5.21089e-05 -5.64687e-06 -5.03382e-14)
(-6.11989e-05 -6.05006e-06 1.60348e-14)
(-5.44318e-05 2.62824e-06 -1.94042e-14)
(-5.06237e-05 6.75407e-06 5.12743e-14)
(-4.49822e-05 9.14627e-06 8.31396e-14)
(-3.96132e-05 9.95627e-06 -1.50067e-14)
(-3.45859e-05 1.06634e-05 -4.82206e-14)
(-2.55088e-05 9.00916e-06 5.03102e-14)
(-1.43084e-05 -5.9008e-07 -3.95465e-14)
(-2.65136e-06 -2.4305e-05 4.39511e-14)
(-1.8707e-06 -6.66957e-05 -2.08077e-15)
(-3.1928e-05 -0.000123913 2.46838e-15)
(-0.00010649 -0.000166393 -4.14471e-15)
(-0.000199561 -0.000144426 -1.08161e-15)
(-0.000245323 -4.58222e-05 2.73116e-15)
(-0.000203112 6.57723e-05 2.23679e-15)
(-0.000106737 0.000116941 4.99888e-15)
(-3.50741e-05 9.02543e-05 1.43268e-14)
(-3.78983e-05 3.32408e-05 -3.66669e-14)
(-9.71001e-05 2.68716e-07 -3.91442e-14)
(-0.000169751 3.41823e-06 3.03253e-14)
(-5.13399e-05 -5.73692e-06 -7.33939e-14)
(-4.86647e-05 3.19559e-07 5.64395e-14)
(-5.60496e-05 -3.30229e-07 4.81806e-14)
(-4.90244e-05 5.45168e-06 -1.86072e-14)
(-4.49964e-05 6.53808e-06 -5.08361e-15)
(-3.98306e-05 6.90955e-06 -9.66932e-15)
(-3.58536e-05 6.48588e-06 -7.43763e-14)
(-2.98645e-05 4.032e-06 1.19145e-14)
(-2.24705e-05 -5.01119e-06 1.00259e-13)
(-1.68655e-05 -2.4779e-05 -3.38514e-14)
(-2.02898e-05 -5.72571e-05 -1.16596e-14)
(-4.63313e-05 -9.78739e-05 -3.11342e-14)
(-0.000103248 -0.000126611 6.32431e-15)
(-0.000172851 -0.000108512 -2.80392e-15)
(-0.000209026 -3.43683e-05 -1.22079e-14)
(-0.000180446 5.3097e-05 -1.80777e-14)
(-0.000108594 9.78273e-05 -6.48022e-15)
(-5.25888e-05 8.2198e-05 1.39244e-14)
(-5.42409e-05 3.9759e-05 5.1267e-14)
(-0.000102585 1.54373e-05 3.31391e-14)
(-0.000163036 2.14414e-05 -3.85793e-14)
(-5.00311e-05 -5.67696e-06 9.87426e-14)
(-4.37361e-05 1.76323e-06 4.01054e-14)
(-5.31588e-05 1.02841e-06 -5.1009e-14)
(-4.81854e-05 4.07e-06 -3.59945e-15)
(-4.53212e-05 4.3264e-06 3.82999e-14)
(-4.0416e-05 4.26192e-06 -2.7529e-14)
(-3.71831e-05 3.31483e-06 7.68175e-14)
(-3.38156e-05 5.2728e-07 7.52073e-14)
(-2.93645e-05 -7.46274e-06 -2.51738e-14)
(-2.81406e-05 -2.33951e-05 1.14158e-14)
(-3.39798e-05 -4.759e-05 1.76014e-14)
(-5.61924e-05 -7.58857e-05 2.72178e-14)
(-9.9599e-05 -9.45189e-05 3.8074e-16)
(-0.000151509 -7.94726e-05 -5.90294e-15)
(-0.000179899 -2.35739e-05 7.78021e-15)
(-0.000161055 4.4459e-05 1.64838e-14)
(-0.000108311 8.30439e-05 -1.29082e-14)
(-6.54865e-05 7.56048e-05 -2.4157e-14)
(-6.65346e-05 4.56001e-05 -5.47146e-14)
(-0.000105656 2.91721e-05 -5.97052e-14)
(-0.000155905 3.85741e-05 1.09886e-14)
(-4.38842e-05 1.50343e-06 2.83248e-14)
(-4.27012e-05 3.85202e-06 5.6543e-14)
(-5.20927e-05 7.17584e-07 1.33093e-14)
(-4.4961e-05 2.18701e-06 7.98831e-15)
(-4.13785e-05 1.81489e-06 -3.00915e-14)
(-3.84868e-05 9.69215e-07 -5.32619e-14)
(-3.72806e-05 -1.88532e-06 -3.09721e-14)
(-3.5054e-05 -8.59721e-06 -2.81732e-14)
(-3.68949e-05 -2.10063e-05 -3.34644e-14)
(-4.40217e-05 -3.84605e-05 -2.48988e-14)
(-6.27973e-05 -5.76699e-05 -1.80406e-14)
(-9.60191e-05 -6.90194e-05 -4.90606e-16)
(-0.000134665 -5.63532e-05 1.03083e-14)
(-0.000156843 -1.40027e-05 -2.96148e-15)
(-0.000144927 3.868e-05 -3.38133e-15)
(-0.00010712 7.15585e-05 1.59784e-14)
(-7.52163e-05 6.98643e-05 -8.73657e-15)
(-7.62168e-05 5.0309e-05 -6.4809e-14)
(-0.00010767 4.05514e-05 -4.2969e-14)
(-0.00014784 5.35655e-05 -3.03182e-15)
(-4.3028e-05 7.52467e-07 9.7177e-15)
(-4.09352e-05 2.5222e-06 -1.79269e-14)
(-5.03161e-05 -1.41299e-06 4.20107e-15)
(-4.50573e-05 -4.00569e-07 -1.47875e-14)
(-4.18749e-05 -5.37043e-08 4.85852e-14)
(-3.94622e-05 -5.57891e-07 2.85379e-14)
(-4.00154e-05 -3.19689e-06 -3.61145e-14)
(-3.94054e-05 -8.68014e-06 6.02945e-15)
(-4.34489e-05 -1.79099e-05 2.41337e-14)
(-5.10799e-05 -3.01238e-05 -2.10342e-15)
(-6.68409e-05 -4.25303e-05 9.89865e-15)
(-9.22707e-05 -4.87676e-05 2.92403e-15)
(-0.000121034 -3.77945e-05 -4.64871e-15)
(-0.000138288 -5.62609e-06 -1.67993e-15)
(-0.000131167 3.52791e-05 -3.16827e-15)
(-0.000104677 6.29586e-05 -1.24168e-14)
(-8.1437e-05 6.56343e-05 -5.38358e-15)
(-8.25307e-05 5.44164e-05 4.24564e-14)
(-0.000107313 5.06946e-05 6.7115e-14)
(-0.000139232 6.73549e-05 6.9208e-15)
(-4.13398e-05 -1.2778e-06 1.0908e-14)
(-3.85795e-05 3.58292e-07 -1.47513e-14)
(-4.91744e-05 -4.02668e-06 -1.27381e-14)
(-4.45175e-05 -2.67791e-06 -3.0102e-14)
(-4.21241e-05 -1.35754e-06 9.11813e-15)
(-4.02736e-05 -1.51158e-06 -2.88867e-14)
(-4.19972e-05 -3.80401e-06 3.32956e-14)
(-4.28852e-05 -8.1625e-06 2.40719e-14)
(-4.81798e-05 -1.47261e-05 -1.06521e-14)
(-5.58847e-05 -2.28717e-05 3.90973e-15)
(-6.91357e-05 -3.02988e-05 -3.80552e-15)
(-8.87077e-05 -3.2945e-05 -3.90964e-15)
(-0.000110199 -2.33077e-05 7.33579e-16)
(-0.000123594 1.358e-06 4.21233e-15)
(-0.000119811 3.32487e-05 8.48115e-15)
(-0.000101835 5.64386e-05 1.76875e-14)
(-8.54582e-05 6.21885e-05 3.32184e-15)
(-8.68535e-05 5.74697e-05 2.4608e-14)
(-0.000105944 5.88762e-05 1.34757e-15)
(-0.000130082 7.84565e-05 -3.68279e-14)
(-3.92932e-05 -4.49605e-06 -1.01935e-13)
(-3.97601e-05 -4.03841e-06 -3.24846e-14)
(-4.77987e-05 -4.77751e-06 -1.59993e-14)