/*--------------------------------*- C++ -*----------------------------------*\
| =========                 |                                                 |
| \\      /  F ield         | OpenFOAM: The Open Source CFD Toolbox           |
|  \\    /   O peration     | Version:  2306                                  |
|   \\  /    A nd           | Website:  www.openfoam.com                      |
|    \\/     M anipulation  |                                                 |
\*---------------------------------------------------------------------------*/
FoamFile
{
    version     2.0;
    format      ascii;
    arch        "LSB;label=32;scalar=64";
    class       volScalarField;
    location    "675";
    object      p;
}
// * * * * * * * * * * * * * * * * * * * * * * * * * * * * * * * * * * * * * //

dimensions      [0 2 -2 0 0 0 0];

internalField   nonuniform List<scalar> 
1340
(
59.0955
33.2984
4.80064
56.8082
32.9126
6.55035
-20.8104
-50.3305
54.136
31.9114
7.42752
-17.8964
-45.2148
-73.7451
-102.821
51.2418
30.498
7.67787
-15.8445
-41.2077
-67.6684
-94.6022
-122.081
48.2426
28.8226
7.48903
-14.4266
-38.0424
-62.6494
-87.6557
-113.167
-138.803
45.2191
26.9902
6.99449
-13.4803
-35.5267
-58.4627
-81.7319
-105.457
-129.29
42.2272
25.077
6.29308
-12.882
-33.5085
-54.9324
-76.6282
-98.7281
-120.912
-143.017
39.3037
23.1361
5.45716
-12.5391
-31.8745
-51.9262
-72.1902
-92.8086
-113.487
-134.081
-154.579
36.4745
21.2098
4.53963
-12.3785
-30.5381
-49.3359
-68.2948
-87.5588
-106.856
-126.059
-145.176
33.7573
19.3229
3.58289
-12.349
-29.4289
-47.0788
-64.8411
-82.8656
-100.894
-118.816
-136.653
-154.274
31.1632
17.4964
2.6149
-12.4078
-28.4952
-45.0883
-61.7529
-78.6378
-95.4986
-112.238
-128.89
-145.339
28.6978
15.7443
1.65895
-12.5242
-27.6941
-43.3132
-58.9659
-74.8003
-90.5848
-106.233
-121.787
-137.146
-152.262
26.3643
14.0748
0.730814
-12.6731
-26.9932
-41.7103
-56.4283
-71.2907
-86.0814
-100.721
-115.257
-129.602
-143.72
24.1627
12.4945
-0.157377
-12.838
-26.3666
-40.2469
-54.0981
-68.0617
-81.931
-95.6366
-109.228
-122.629
-135.815
-148.741
22.0921
11.006
-0.997709
-13.0029
-25.7944
-38.8955
-51.9417
-65.0702
-78.0865
-90.9255
-103.641
-116.163
-128.477
-140.55
20.1502
9.61101
-1.78478
-13.1576
-25.2604
-37.6341
-49.9302
-62.2826
-74.5057
-86.5397
-98.4396
-110.144
-121.646
-132.919
18.3334
8.30908
-2.51517
-13.2949
-24.7526
-36.4461
-48.0422
-59.671
-71.1553
-82.4408
-93.5819
-104.525
-115.268
-125.792
-136.037
16.6371
7.09931
-3.18669
-13.409
-24.261
-35.3173
-46.2586
-57.2116
-68.0066
-78.5949
-89.0296
-99.2634
-109.298
-119.121
-128.681
15.0577
5.97891
-3.79821
-13.4962
-23.7784
-34.2362
-44.5649
-54.8853
-65.0369
-74.9745
-84.7512
-94.3228
-103.696
-112.864
-121.781
13.5896
4.94567
-4.35028
-13.5538
-23.2997
-33.1945
-42.9479
-52.6759
-62.2258
-71.555
-80.7173
-89.672
-98.4278
-106.982
-115.296
-123.32
12.228
3.99654
-4.84403
-13.5804
-22.8199
-32.1846
-41.3972
-50.5693
-59.5554
-68.3161
-76.9041
-85.2825
-93.4618
-101.442
-109.191
-116.667
10.9679
3.12787
-5.28075
-13.5755
-22.3366
-31.2015
-39.9051
-48.555
-57.0126
-65.2409
-73.2918
-81.1316
-88.7719
-96.2159
-103.436
-110.397
16.2958
9.80421
2.33619
-5.66254
-13.5392
-21.8479
-30.2408
-38.4653
-46.6241
-54.5853
-62.3148
-69.8628
-77.1989
-84.3353
-91.2779
-98.0032
-104.48
-110.656
14.9203
8.7318
1.61775
-5.99159
-13.4719
-21.3522
-29.2989
-37.0712
-44.7677
-52.2624
-59.5244
-66.6015
-73.4663
-80.1321
-86.6056
-92.8675
-98.8902
-104.629
13.6455
7.74577
0.968716
-6.27036
-13.3745
-20.8491
-28.3736
-35.7191
-42.9796
-50.0357
-56.8585
-63.4942
-69.9177
-76.1433
-82.1787
-88.0072
-93.6054
-98.934
12.4659
6.84116
0.38526
-6.50153
-13.2486
-20.3383
-27.4633
-34.4054
-41.255
-47.8981
-54.3082
-60.5302
-66.5407
-72.3542
-77.9796
-83.4029
-88.6037
-93.5474
-98.1813
11.3756
6.01333
-0.136481
-6.68781
-13.0955
-19.8199
-26.5662
-33.1271
-39.5891
-45.843
-51.8654
-57.699
-63.3223
-68.7505
-73.9928
-79.0373
-83.8663
-88.4496
-92.7401
10.3694
5.25765
-0.600261
-6.83207
-12.9171
-19.2947
-25.6821
-31.8824
-37.978
-43.8655
-49.5229
-54.9919
-60.2524
-65.3197
-70.2037
-74.8944
-79.3761
-83.6224
-87.5911
9.44223
4.56969
-1.00973
-6.93689
-12.7151
-18.7632
-24.8104
-30.6692
-36.4185
-41.9606
-47.2748
-52.4014
-57.3218
-62.0514
-66.6005
-70.9602
-75.1178
-79.0493
-82.717
8.58917
3.94496
-1.36843
-7.00513
-12.4915
-18.2262
-23.9506
-29.4861
-34.9085
-40.1246
-45.1159
-49.9207
-54.5222
-58.9358
-63.1717
-67.2225
-71.0773
-74.715
-78.1018
7.8055
3.37953
-1.67995
-7.03959
-12.248
-17.685
-23.1028
-28.3321
-33.4453
-38.3541
-43.0411
-47.5437
-51.8462
-55.9639
-59.9071
-63.6695
-67.2421
-70.6058
-73.7305
-76.5788
7.08675
2.86933
-1.94756
-7.04292
-11.9869
-17.1405
-22.2673
-27.2067
-32.0274
-36.646
-41.0468
-45.2654
-49.2874
-53.1281
-56.7977
-60.291
-63.6003
-66.7089
-69.5896
-72.2089
6.42859
2.41063
-2.17453
-7.01772
-11.7097
-16.594
-21.4444
-26.109
-30.6532
-34.998
-39.1292
-43.0808
-46.8399
-50.4211
-53.8351
-57.0775
-60.1415
-63.0125
-65.6665
-68.0728
5.82705
1.99969
-2.36387
-6.96655
-11.4183
-16.0466
-20.6346
-25.0388
-29.3213
-33.4077
-37.2849
-40.9857
-44.4981
-47.8367
-51.0119
-54.0201
-56.856
-59.5063
-61.9494
-64.1582
5.2782
1.63318
-2.51869
-6.89174
-11.1149
-15.4993
-19.8382
-23.9955
-28.0306
-31.8731
-35.5111
-38.9761
-42.2574
-45.3689
-48.3211
-51.111
-53.7345
-56.1797
-58.4274
-60.453
4.77839
1.30778
-2.64178
-6.79564
-10.801
-14.9534
-19.0556
-22.979
-26.7801
-30.3923
-33.8051
-37.0485
-40.113
-43.0121
-45.7563
-48.343
-50.769
-53.0239
-55.0903
-56.9466
-58.565
4.32414
1.02038
-2.73579
-6.68044
-10.4782
-14.4099
-18.2874
-21.989
-25.5688
-28.9637
-32.1643
-35.1996
-38.0609
-40.7614
-43.3114
-45.7089
-47.9515
-50.0299
-51.9287
-53.6285
-55.1047
3.91215
0.768006
-2.80333
-6.54827
-10.1483
-13.87
-17.534
-21.0256
-24.3959
-27.5857
-30.5866
-33.4263
-36.0973
-38.6121
-40.9808
-43.2022
-45.2744
-47.1894
-48.9334
-50.4891
-51.8344
3.53932
0.547875
-2.84676
-6.40112
-9.81273
-13.3347
-16.7961
-20.0885
-23.2606
-26.2568
-29.0698
-31.7259
-34.2183
-36.5597
-38.7594
-40.8172
-42.7313
-44.4949
-46.0959
-47.5187
-48.7439
3.20273
0.357339
-2.86838
-6.24079
-9.4729
-12.8048
-16.0738
-19.1774
-22.1622
-24.9758
-27.6118
-30.0955
-32.4208
-34.5999
-36.6422
-38.5477
-40.3153
-41.939
-43.408
-44.7087
-45.8238
2.89956
0.193931
-2.87032
-6.06914
-9.13021
-12.2813
-15.3674
-18.2922
-21.1
-23.7413
-26.2107
-28.5325
-30.7011
-32.7289
-34.6246
-36.3885
-38.0203
-39.5146
-40.862
-42.0506
-43.065
-43.8893
2.62722
0.0552823
-2.8546
-5.88774
-8.78588
-11.7649
-14.6775
-17.4329
-20.0732
-22.552
-24.8647
-27.0344
-29.0565
-30.9427
-32.7017
-34.3342
-35.8402
-37.2152
-38.4508
-39.5365
-40.4588
-41.2038
2.38324
-0.0607597
-2.82318
-5.69817
-8.44105
-11.2565
-14.0043
-16.5992
-19.0811
-21.4065
-23.5717
-25.5987
-27.4837
-29.2377
-30.8696
-32.38
-33.7696
-35.0344
-36.1671
-37.1585
-37.9967
-38.6699
2.1653
-0.156299
-2.77772
-5.50182
-8.09686
-10.7566
-13.348
-15.7908
-18.1229
-20.3038
-22.3302
-24.2233
-25.9798
-27.6105
-29.1239
-30.5212
-31.8029
-32.9661
-34.0043
-34.9092
-35.6709
-36.279
1.97126
-0.233259
-2.71994
-5.30007
-7.75423
-10.2659
-12.7089
-15.0075
-17.1981
-19.2425
-21.1383
-22.9057
-24.5419
-26.0575
-27.4607
-28.7529
-29.9349
-31.0044
-31.9557
-32.7818
-33.4737
-34.0229
1.79905
-0.29344
-2.65136
-5.09413
-7.4141
-9.78496
-12.0869
-14.249
-16.3057
-18.2214
-19.9943
-21.6437
-23.1674
-24.5755
-25.8761
-27.0708
-28.1607
-29.1438
-30.0154
-30.7693
-31.3978
-31.8936
1.64679
-0.338537
-2.57343
-4.8851
-7.07723
-9.31418
-11.4822
-13.5149
-15.445
-17.2393
-18.8965
-20.4352
-21.8535
-23.1613
-24.3664
-25.4706
-26.4753
-27.3788
-28.1772
-28.8652
-29.4361
-29.8837
1.5127
-0.370143
-2.48748
-4.67407
-6.74445
-8.85396
-10.8949
-12.8049
-14.6153
-16.295
-17.8433
-19.2779
-20.5975
-21.8117
-22.9279
-23.9481
-24.874
-25.7042
-26.4355
-27.0632
-27.5818
-27.9861
-28.275
1.39511
-0.389715
-2.39475
-4.46205
-6.41642
-8.40472
-10.3248
-12.1186
-13.8157
-15.3872
-16.8329
-18.1698
-19.3969
-20.5236
-21.5571
-22.4994
-23.3523
-24.115
-24.7847
-25.3575
-25.8285
-26.1936
-26.4525
1.29246
-0.39865
-2.29639
-4.2499
-6.09376
-7.96672
-9.77211
-11.4556
-13.0454
-14.5147
-15.8637
-17.1088
-18.2492
-19.2942
-20.2506
-21.1205
-21.9059
-22.6064
-23.2195
-23.7421
-24.1701
-24.4999
-24.7319
1.20331
-0.398252
-2.19353
-4.03851
-5.77707
-7.54028
-9.23661
-10.8155
-12.3036
-13.6763
-14.9342
-16.0928
-17.152
-18.1205
-19.0049
-19.8076
-20.5306
-21.1736
-21.7348
-22.2116
-22.6004
-22.8985
-23.1065
1.12632
-0.389671
-2.08711
-3.82859
-5.46688
-7.12565
-8.7183
-10.1979
-11.5896
-12.8709
-14.0426
-15.1197
-16.1026
-16.9996
-17.8169
-18.557
-19.222
-19.8121
-20.3256
-20.7605
-21.1138
-21.3833
-21.5701
1.06029
-0.37393
-1.97803
-3.62075
-5.16348
-6.72284
-8.21687
-9.6023
-10.9024
-12.0972
-13.1875
-14.1876
-15.0988
-15.9289
-16.6834
-17.3651
-17.9763
-18.5174
-18.9871
-19.3837
-19.7047
-19.9485
-20.1164
1.00393
-0.352162
-1.86725
-3.41577
-4.86748
-6.33203
-7.73216
-9.02803
-10.241
-11.3539
-12.3669
-13.2944
-14.1386
-14.9059
-15.6016
-16.2285
-16.7897
-17.2854
-17.7147
-18.0762
-18.3679
-18.5885
-18.7396
0.95599
-0.325831
-1.75617
-3.21508
-4.57994
-5.95433
-7.26482
-8.47524
-9.60488
-10.6403
-11.579
-12.4374
-13.2191
-13.9279
-14.568
-15.1437
-15.6583
-16.112
-16.504
-16.8333
-17.0983
-17.2981
-17.4343
0.915563
-0.295648
-1.64545
-3.01921
-4.30155
-5.59032
-6.81535
-7.94444
-8.99437
-9.95692
-10.8223
-11.6139
-12.3374
-12.9914
-13.579
-14.1064
-14.5777
-14.9925
-15.3502
-15.65
-15.8908
-16.0719
-16.1951
-16.2656
0.88276
-0.260785
-1.53344
-2.82594
-4.02975
-5.23703
-6.38124
-7.43349
-8.4081
-9.30108
-10.0963
-10.8263
-11.4958
-12.097
-12.6337
-13.1151
-13.5454
-13.9238
-14.2491
-14.5216
-14.7402
-14.9045
-15.0162
-15.08
0.857158
-0.221441
-1.41953
-2.63408
-3.76228
-4.89113
-5.95766
-6.93723
-7.84046
-8.66677
-9.39432
-10.0751
-10.6987
-11.2464
-11.7314
-12.1689
-12.5608
-12.9042
-13.1989
-13.4456
-13.6436
-13.7925
-13.8938
-13.952
0.838195
-0.189579
-1.32983
-2.47852
-3.5393
-4.59263
-5.57422
-6.46601
-7.26973
-8.00623
-8.60845
-9.2758
-9.9067
-10.4331
-10.8943
-11.3171
-11.6981
-12.0308
-12.3155
-12.5542
-12.7463
-12.8911
-12.9899
-13.0472
0.823797
-0.162138
-1.2531
-2.34416
-3.34215
-4.32025
-5.21351
-6.00707
-6.69358
-7.32095
-7.75825
-8.44635
-9.12045
-9.64779
-10.1041
-10.5314
-10.9196
-11.2577
-11.5467
-11.7893
-11.9853
-12.1336
-12.2359
-12.2964
0.81111
-0.132573
-1.17379
-2.20682
-3.14216
-4.04533
-4.85241
-5.5502
-6.12633
-6.64763
-6.9316
-7.6272
-8.33531
-8.86124
-9.30877
-9.73611
-10.1286
-10.4702
-10.7619
-11.0074
-11.2067
-11.3584
-11.4642
-11.5278
0.799907
-0.101517
-1.09286
-2.0682
-2.94146
-3.77058
-4.49421
-5.09858
-5.57184
-5.98601
-6.13412
-6.82202
-7.55059
-8.07357
-8.51045
-8.93342
-9.32675
-9.66984
-9.96279
-10.2101
-10.4119
-10.5666
-10.6757
-10.7427
0.790278
-0.0692866
-1.01112
-1.92958
-2.74194
-3.49855
-4.14183
-4.65532
-5.0332
-5.33781
-5.36915
-6.03447
-6.76766
-7.28436
-7.70915
-8.12398
-8.51444
-8.85687
-9.14971
-9.39771
-9.6013
-9.75891
-9.87136
-9.94253
0.782145
-0.0364838
-0.929924
-1.79284
-2.54612
-3.23238
-3.79898
-4.22462
-4.51427
-4.70598
-4.6386
-5.26685
-5.9877
-6.4933
-6.90462
-7.30807
-7.69195
-8.03131
-8.32275
-8.57072
-8.7757
-8.93571
-9.05076
-9.12438
0.775382
-0.00442775
-0.851694
-1.66142
-2.35769
-2.97612
-3.46935
-3.81004
-4.01729
-4.09258
-3.94339
-4.52054
-5.21214
-5.70055
-6.09619
-6.48505
-6.85878
-7.1923
-7.48059
-7.72768
-7.93444
-8.09898
-8.22163
-8.30595
0.769611
0.0252184
-0.779596
-1.53968
-2.18164
-2.73489
-3.15649
-3.41315
-3.54186
-3.49855
-3.28283
-3.79589
-4.44223
-4.90601
-5.28242
-5.65332
-6.0136
-6.33892
-6.62224
-6.86591
-7.06976
-7.23072
-7.34741
-7.42179
-7.46347
0.764512
0.0524737
-0.713741
-1.42889
-2.02094
-2.51389
-2.8664
-3.04124
-3.0957
-2.9316
-2.65647
-3.09223
-3.67922
-4.10983
-4.46192
-4.80978
-5.15156
-5.46641
-5.74798
-5.99792
-6.21602
-6.40042
-6.55143
-6.67135
-6.76158
0.760485
0.0785541
-0.65223
-1.32719
-1.87572
-2.31755
-2.60962
-2.71529
-2.70438
-2.40861
-2.06498
-2.41186
-2.92492
-3.31139
-3.63504
-3.95654
-4.27029
-4.55664
-4.80954
-5.02946
-5.21382
-5.35571
-5.44872
-5.49298
-5.50843
0.758101
0.0963451
-0.608462
-1.25057
-1.76149
-2.15728
-2.39212
-2.43848
-2.3578
-1.90943
-1.49852
-1.76313
-2.18608
-2.50669
-2.79134
-3.09418
-3.40872
-3.71664
-4.01094
-4.29162
-4.55959
-4.81694
-5.06446
-5.29517
-5.48168
0.754978
0.0848824
-0.62088
-1.24791
-1.72582
-2.06356
-2.21216
-2.15953
-1.94135
-1.32315
-0.914274
-1.13951
-1.48472
-1.72083
-1.9056
-2.08549
-2.26301
-2.43019
-2.58194
-2.71306
-2.81149
-2.85795
-2.83846
-2.76159
-2.69042
0.746345
0.0448178
-0.686125
-1.31869
-1.77358
-2.04868
-2.09074
-1.89572
-1.46825
-0.685381
-0.291213
-0.470982
-0.787268
-1.08493
-1.38562
-1.70002
-2.0309
-2.37986
-2.75173
-3.15537
-3.60297
-4.10078
-4.62565
-5.11823
-5.47289
)
;

boundaryField
{
    inlet
    {
        type            freestreamPressure;
        freestreamValue uniform 0;
        value           nonuniform List<scalar> 
25
(
0.742711
0.0445996
-0.682784
-1.31227
-1.76494
-2.0387
-2.08056
-1.88649
-1.4611
-0.682044
-0.125416
-0.202947
-0.339505
-0.468308
-0.598712
-0.735376
-0.879534
-1.03192
-1.19469
-1.37173
-1.56836
-1.78732
-2.01848
-2.23579
-2.39287
)
;
    }
    outlet
    {
        type            freestreamPressure;
        freestreamValue nonuniform List<scalar> 0();
        value           nonuniform List<scalar> 0();
    }
    walls
    {
        type            zeroGradient;
    }
    frontAndBack
    {
        type            empty;
    }
    procBoundary4to0
    {
        type            processor;
        value           nonuniform List<scalar> 
72
(
81.3071
77.374
73.259
69.0919
64.9586
60.915
56.9981
53.233
49.6334
46.2065
42.9559
39.8808
36.9792
34.2473
31.6796
29.27
27.0125
24.9009
22.9282
21.0879
19.3733
17.7781
17.7781
22.3415
20.6898
19.1518
17.7207
16.3906
15.1554
14.0092
12.9467
11.9627
11.0524
10.2109
9.43376
8.71688
8.05619
7.44786
6.88835
6.37422
5.90224
5.4694
5.07288
4.70993
4.37808
4.07492
3.79823
3.5459
3.316
3.10668
2.91623
2.74303
2.58564
2.4427
2.31284
2.19478
2.08749
1.99047
1.90321
1.83654
1.78256
1.72968
1.67804
1.62815
1.58064
1.53663
1.49689
1.46044
1.42717
1.40588
1.41157
1.4323
)
;
    }
    procBoundary4to5
    {
        type            processor;
        value           nonuniform List<scalar> 
95
(
60.7367
32.7451
1.78479
-24.8803
-24.8803
-56.8923
-81.1834
-81.1834
-112.646
-132.472
-132.472
-149.687
-149.687
-164.328
-153.033
-153.033
-165.006
-165.006
-174.802
-164.053
-164.053
-171.594
-161.521
-161.521
-167.058
-157.553
-157.553
-161.305
-152.296
-143.892
-143.892
-145.921
-137.909
-130.389
-130.389
-130.98
-123.803
-117.038
-117.038
-116.459
-110.019
-103.934
-103.934
-102.442
-96.6802
-91.2308
-86.0747
-81.196
-81.196
-79.1027
-74.5236
-70.193
-66.0978
-62.2256
-62.2256
-59.915
-56.3303
-52.9457
-49.7507
-46.7351
-46.7351
-44.5135
-41.7637
-39.1717
-36.7285
-34.4254
-32.254
-30.2064
-30.2064
-28.4547
-26.6113
-24.8724
-23.231
-21.6805
-20.2146
-18.8272
-17.5126
-17.5126
-16.2921
-15.1041
-13.9744
-13.0704
-12.323
-11.558
-10.7764
-9.98128
-9.16507
-8.35953
-8.35953
-7.48412
-6.82615
-5.51581
-5.61525
-2.65828
-5.68934
)
;
    }
}


// ************************************************************************* //
