# p  FACE_DATA 600
# x y z  p
0.29893883 -0.05 0.060006728 12167.534
0.29682219 -0.05 0.060005155 12175.356
0.29471691 -0.05 0.060001576 12185.132
0.29262294 -0.05 0.05999591 12194.76
0.29054021 -0.05 0.059988277 12203.821
0.28846868 -0.05 0.059978645 12214.232
0.28640827 -0.05 0.059967018 12223.514
0.28435895 -0.05 0.059953476 12233.632
0.28232063 -0.05 0.05993795 12243.923
0.28029328 -0.05 0.059920485 12254.019
0.27827682 -0.05 0.059901123 12264.169
0.27627121 -0.05 0.059879855 12274.661
0.27427639 -0.05 0.05985667 12285.326
0.2722923 -0.05 0.059831621 12295.716
0.27031889 -0.05 0.059804697 12306.822
0.26835611 -0.05 0.05977592 12317.267
0.26640388 -0.05 0.059745343 12328.095
0.26446217 -0.05 0.059712935 12339.108
0.26253092 -0.05 0.059678711 12350.218
0.26061007 -0.05 0.059642689 12361.537
0.25869957 -0.05 0.059604861 12373.039
0.25679937 -0.05 0.059565286 12384.103
0.25490941 -0.05 0.05952394 12396.112
0.25302965 -0.05 0.059480841 12407.202
0.25116001 -0.05 0.059436049 12418.821
0.24930047 -0.05 0.059389522 12430.617
0.24745095 -0.05 0.059341283 12442.567
0.24561142 -0.05 0.059291325 12454.983
0.24378182 -0.05 0.05923967 12467.032
0.24196209 -0.05 0.059186367 12479.083
0.24015219 -0.05 0.059131421 12491.189
0.23835206 -0.05 0.059074821 12503.551
0.23656166 -0.05 0.059016618 12515.498
0.23478094 -0.05 0.058956769 12528.933
0.23300984 -0.05 0.05889526 12541.38
0.23124831 -0.05 0.05883224 12553.42
0.22949632 -0.05 0.058767617 12567.146
0.22775381 -0.05 0.058701363 12579.964
0.22602071 -0.05 0.058633589 12592.747
0.22429701 -0.05 0.058564274 12605.711
0.22258262 -0.05 0.058493448 12618.477
0.22087753 -0.05 0.058421069 12632.544
0.21918166 -0.05 0.058347132 12645.705
0.21749499 -0.05 0.058271731 12658.849
0.21581745 -0.05 0.058194856 12672.132
0.21414901 -0.05 0.058116493 12685.801
0.21248962 -0.05 0.05803665 12699.547
0.21083923 -0.05 0.057955337 12713.503
0.20919779 -0.05 0.057872577 12727.237
0.20756526 -0.05 0.057788393 12741.173
0.20594158 -0.05 0.057702763 12755.478
0.20432673 -0.05 0.057615706 12769.452
0.20272065 -0.05 0.057527277 12783.271
0.20112329 -0.05 0.057437457 12797.738
0.19953461 -0.05 0.05734625 12812.166
0.19795458 -0.05 0.057253621 12827.461
0.19638314 -0.05 0.057159665 12840.818
0.19482023 -0.05 0.05706438 12856.156
0.19326584 -0.05 0.056967732 12870.277
0.19171991 -0.05 0.056869749 12885.595
0.19018239 -0.05 0.056770463 12899.633
0.18865324 -0.05 0.056669846 12915.7
0.18713243 -0.05 0.056567899 12930.133
0.18561991 -0.05 0.056464666 12945.998
0.18411563 -0.05 0.056360132 12960.872
0.18261956 -0.05 0.056254318 12976.713
0.18113166 -0.05 0.056147258 12991.062
0.17965186 -0.05 0.056038987 13006.715
0.17818015 -0.05 0.05592942 13022.726
0.17671648 -0.05 0.055818588 13038.443
0.1752608 -0.05 0.05570656 13053.686
0.17381309 -0.05 0.055593325 13069.775
0.17237329 -0.05 0.055478844 13085.868
0.17094135 -0.05 0.055363199 13101.347
0.16951726 -0.05 0.055246341 13118.469
0.16810097 -0.05 0.055128259 13134.347
0.16669242 -0.05 0.05500905 13150.36
0.16529159 -0.05 0.054888659 13167.224
0.16389844 -0.05 0.054767078 13183.677
0.16251292 -0.05 0.054644372 13199.785
0.161135 -0.05 0.054520532 13216.341
0.15976465 -0.05 0.054395554 13232.763
0.15840181 -0.05 0.054269449 13249.897
0.15704647 -0.05 0.054142171 13267.527
0.15569857 -0.05 0.05401378 13284.013
0.15435807 -0.05 0.053884336 13300.687
0.15302494 -0.05 0.053753791 13317.804
0.15169915 -0.05 0.053622161 13334.894
0.15038066 -0.05 0.053489407 13353.224
0.14906942 -0.05 0.053355551 13370.288
0.1477654 -0.05 0.053220679 13387.707
0.14646858 -0.05 0.053084715 13406.155
0.1451789 -0.05 0.052947683 13423.458
0.14389634 -0.05 0.052809659 13440.908
0.14262085 -0.05 0.05267058 13459.411
0.14135242 -0.05 0.052530426 13477.894
0.14009099 -0.05 0.052389231 13496.313
0.13883652 -0.05 0.052247036 13514.174
0.137589 -0.05 0.052103837 13532.653
0.13634838 -0.05 0.051959625 13550.426
0.13511461 -0.05 0.051814476 13568.448
0.1338877 -0.05 0.051668228 13589.379
0.13266759 -0.05 0.051520967 13606.155
0.13145422 -0.05 0.051372868 13624.471
0.13024759 -0.05 0.051223701 13645.191
0.12904768 -0.05 0.051073499 13664.033
0.12785442 -0.05 0.050922382 13683.008
0.12666779 -0.05 0.050770303 13702.489
0.12548777 -0.05 0.050617245 13722.37
0.12431431 -0.05 0.050463216 13741.753
0.12314738 -0.05 0.050308326 13759.966
0.12198694 -0.05 0.050152493 13781.273
0.12083299 -0.05 0.049995623 13801.853
0.11968547 -0.05 0.049837846 13821.493
0.11854435 -0.05 0.049679176 13841.585
0.11740961 -0.05 0.049519574 13862.022
0.11628122 -0.05 0.049359037 13882.601
0.11515913 -0.05 0.049197589 13902.903
0.11404333 -0.05 0.049035234 13923.402
0.11293377 -0.05 0.048871989 13943.576
0.11183042 -0.05 0.048707847 13964.364
0.11073327 -0.05 0.048542821 13985.011
0.10964229 -0.05 0.048376866 14007.381
0.10855744 -0.05 0.048209982 14028.614
0.10747868 -0.05 0.048042235 14050.225
0.106406 -0.05 0.04787359 14072.122
0.10533935 -0.05 0.047704062 14093.837
0.10427873 -0.05 0.047533647 14115.82
0.10322407 -0.05 0.047362394 14136.544
0.10217537 -0.05 0.04719032 14158.604
0.10113259 -0.05 0.047017348 14181.744
0.10009572 -0.05 0.046843455 14205.379
0.099064719 -0.05 0.046668685 14227.761
0.098039551 -0.05 0.046493118 14249.324
0.097020189 -0.05 0.046316733 14272.127
0.096006622 -0.05 0.046139442 14296.412
0.094998822 -0.05 0.045961241 14320.278
0.09399675 -0.05 0.045782217 14343.111
0.093000378 -0.05 0.045602371 14366.675
0.092009685 -0.05 0.045421665 14390.336
0.091024643 -0.05 0.045240119 14414.253
0.090045231 -0.05 0.045057701 14439.191
0.089071419 -0.05 0.044874428 14463.045
0.088103174 -0.05 0.044690349 14487.068
0.087140475 -0.05 0.044505439 14511.631
0.086183303 -0.05 0.044319663 14537.061
0.08523163 -0.05 0.044133032 14562.148
0.084285425 -0.05 0.043945577 14587.417
0.083344663 -0.05 0.043757308 14612.879
0.082409326 -0.05 0.043568191 14639.706
0.081479394 -0.05 0.04337819 14666.36
0.080554831 -0.05 0.043187382 14691.672
0.079635605 -0.05 0.042995792 14718.063
0.078721718 -0.05 0.042803304 14746.109
0.077813136 -0.05 0.042609969 14772.245
0.076909826 -0.05 0.042415818 14800.008
0.07601178 -0.05 0.042220793 14827.531
0.075118966 -0.05 0.042024933 14855.045
0.074231361 -0.05 0.041828237 14882.355
0.073348934 -0.05 0.04163074 14909.525
0.072471679 -0.05 0.041432371 14938.806
0.071599572 -0.05 0.041233139 14966.71
0.070732583 -0.05 0.041033074 14996.03
0.069870697 -0.05 0.040832148 15024.568
0.069013884 -0.05 0.040630397 15053.779
0.068162134 -0.05 0.040427777 15083.749
0.067315419 -0.05 0.040224307 15113.665
0.06647372 -0.05 0.040019973 15145.297
0.065637027 -0.05 0.039814748 15177.063
0.06480531 -0.05 0.039608654 15208.931
0.063978543 -0.05 0.039401719 15239.864
0.063156705 -0.05 0.039193946 15271.59
0.062339788 -0.05 0.038985286 15304.074
0.061527775 -0.05 0.038775725 15337.37
0.060720649 -0.05 0.038565255 15371.13
0.059918385 -0.05 0.038353894 15404.733
0.059120963 -0.05 0.03814165 15438.608
0.058328367 -0.05 0.037928504 15472.519
0.057540575 -0.05 0.037714473 15505.799
0.056757564 -0.05 0.037499567 15539.72
0.055979327 -0.05 0.037283751 15575.265
0.055205861 -0.05 0.03706696 15612.463
0.054437144 -0.05 0.036849222 15648.583
0.053673142 -0.05 0.036630582 15684.909
0.052913841 -0.05 0.036411033 15721.323
0.052159229 -0.05 0.036190552 15759.421
0.051409301 -0.05 0.035969101 15798.66
0.050664044 -0.05 0.035746666 15838.445
0.049923426 -0.05 0.035523297 15877.598
0.049187444 -0.05 0.035298949 15919.09
0.048456093 -0.05 0.035073588 15959.537
0.047729344 -0.05 0.034847258 16000.471
0.047007184 -0.05 0.034619944 16041.825
0.046289611 -0.05 0.034391604 16084.528
0.045576607 -0.05 0.034162252 16126.467
0.044868158 -0.05 0.033931882 16169.906
0.044164259 -0.05 0.033700465 16213.409
0.043464894 -0.05 0.033468005 16258.276
0.042770054 -0.05 0.033234487 16304.054
0.042079734 -0.05 0.032999885 16351.855
0.041393929 -0.05 0.032764174 16400.19
0.040712625 -0.05 0.032527361 16448.91
0.040035798 -0.05 0.032289471 16497.191
0.039363443 -0.05 0.032050489 16547.011
0.038695563 -0.05 0.031810365 16598.1
0.038032168 -0.05 0.031569045 16650.746
0.037373226 -0.05 0.031326581 16702.237
0.036718733 -0.05 0.03108296 16755.962
0.036068678 -0.05 0.030838173 16808.681
0.035423063 -0.05 0.030592193 16865.382
0.034781926 -0.05 0.030344893 16922.405
0.034145213 -0.05 0.030096392 16977.742
0.033512917 -0.05 0.029846677 17036.253
0.032885063 -0.05 0.029595666 17096.295
0.032261651 -0.05 0.029343341 17158.579
0.031642677 -0.05 0.029089693 17220.332
0.031028119 -0.05 0.028834753 17282.075
0.030417982 -0.05 0.028578493 17345.583
0.029812303 -0.05 0.028320809 17412.043
0.029211079 -0.05 0.0280617 17477.88
0.028614285 -0.05 0.027801211 17544.668
0.028021925 -0.05 0.027539318 17612.926
0.027434034 -0.05 0.027275938 17684.559
0.026850619 -0.05 0.027011044 17756.02
0.026271654 -0.05 0.026744689 17829.212
0.025697179 -0.05 0.02647678 17905.898
0.025127212 -0.05 0.026207275 17982.671
0.024561729 -0.05 0.025936225 18060.162
0.024000753 -0.05 0.025663583 18140.781
0.023444336 -0.05 0.025389243 18223.713
0.022892447 -0.05 0.025113275 18306.465
0.022345135 -0.05 0.024835581 18395.025
0.02180243 -0.05 0.024556113 18480.558
0.021264293 -0.05 0.024274957 18568.692
0.0207308 -0.05 0.023991978 18660.831
0.020201992 -0.05 0.023707108 18754.258
0.019677842 -0.05 0.023420417 18847.089
0.019158403 -0.05 0.023131824 18944.499
0.018643727 -0.05 0.022841258 19042.117
0.018133826 -0.05 0.022548716 19142.893
0.017628739 -0.05 0.022254151 19244.323
0.017128471 -0.05 0.021957583 19349.463
0.016633127 -0.05 0.021658866 19461.188
0.016142724 -0.05 0.021358 19574.374
0.015657283 -0.05 0.021054987 19695.955
0.015176888 -0.05 0.020749728 19823.418
0.014701579 -0.05 0.020442196 19957.638
0.014231398 -0.05 0.020132367 20096.925
0.013766434 -0.05 0.019820157 20243.028
0.013306742 -0.05 0.019505528 20391.079
0.012852374 -0.05 0.019188457 20544.529
0.012403439 -0.05 0.018868841 20700.8
0.01195997 -0.05 0.018546687 20860.015
0.011522076 -0.05 0.018221915 21024.215
0.011089809 -0.05 0.017894514 21191.333
0.0106633 -0.05 0.017564386 21367.199
0.010242659 -0.05 0.01723145 21544.572
0.009827894 -0.05 0.016895788 21728.056
0.0094192167 -0.05 0.016557218 21921.825
0.0090167438 -0.05 0.016215673 22118.438
0.0086204858 -0.05 0.015871238 22320.604
0.0082306648 -0.05 0.015523765 22533.475
0.0078474301 -0.05 0.015173187 22750.28
0.00747084 -0.05 0.014819531 22973.577
0.0071010571 -0.05 0.014462741 23204.505
0.0067383047 -0.05 0.014102727 23444.71
0.0063827544 -0.05 0.013739427 23689.619
0.0060345067 -0.05 0.013372862 23939.752
0.0056937565 -0.05 0.013003011 24197.219
0.0053606882 -0.05 0.012629837 24462.314
0.0050354824 -0.05 0.012253323 24737.954
0.0047183926 -0.05 0.01187344 25022.384
0.0044096379 -0.05 0.011490161 25316.122
0.0041094132 -0.05 0.011103483 25619.348
0.0038179536 -0.05 0.010713443 25931.517
0.0035354728 -0.05 0.01032007 26251.781
0.0032621919 -0.05 0.0099233916 26579.781
0.0029983702 -0.05 0.0095234712 26914.617
0.0027442429 -0.05 0.0091203468 27256.551
0.0025000604 -0.05 0.0087141009 27604.944
0.0022660754 -0.05 0.0083048554 27959.183
0.0020425146 -0.05 0.0078926699 28318.999
0.0018296563 -0.05 0.0074776735 28683.643
0.0016277487 -0.05 0.0070600557 29051.022
0.0014369745 -0.05 0.006639968 29420.623
0.0012575291 -0.05 0.0062175973 29792.738
0.0010896146 -0.05 0.0057931737 30164.721
0.00093341056 -0.05 0.0053669215 30534.516
0.00078906403 -0.05 0.0049390744 30900.23
0.00065670868 -0.05 0.0045099018 31260.898
0.00053653171 -0.05 0.0040796665 31616.168
0.00042862038 -0.05 0.003648665 31961.736
0.00033294635 -0.05 0.003217232 32296.439
0.00024951873 -0.05 0.002785685 32620.03
0.00017832254 -0.05 0.0023543467 32931.036
0.00011930806 -0.05 0.0019235435 33227.251
7.2389968e-05 -0.05 0.0014936046 33507.336
3.7448892e-05 -0.05 0.0010648563 33770.538
1.4332163e-05 -0.05 0.0006376208 34016.907
2.8544133e-06 -0.05 0.00021221054 34244.975
0.99884037 -0.05 0.00016828408 26693.463
0.99652103 -0.05 0.00050440213 26675.89
0.99420154 -0.05 0.0008395204 26635.088
0.99188191 -0.05 0.0011736208 26601.818
0.98956214 -0.05 0.0015067636 26566.367
0.98724223 -0.05 0.001838948 26532.365
0.9849222 -0.05 0.0021701636 26498.383
0.98260202 -0.05 0.0025004302 26464.815
0.98028169 -0.05 0.0028297328 26431.499
0.97796124 -0.05 0.0031580577 26398.378
0.97564065 -0.05 0.0034854377 26365.444
0.97331994 -0.05 0.0038118591 26332.665
0.97099908 -0.05 0.0041373159 26300.037
0.96867809 -0.05 0.0044618578 26267.483
0.96635696 -0.05 0.0047854478 26235.128
0.96403572 -0.05 0.0051081172 26202.751
0.96171435 -0.05 0.0054299032 26170.549
0.95939284 -0.05 0.0057507069 26138.469
0.95707121 -0.05 0.0060705875 26106.429
0.95474946 -0.05 0.0063895914 26074.498
0.95242757 -0.05 0.0067076389 26042.746
0.95010556 -0.05 0.0070248024 26010.93
0.94778344 -0.05 0.0073411105 25979.308
0.94546118 -0.05 0.0076564368 25947.847
0.94313881 -0.05 0.007970866 25916.385
0.94081631 -0.05 0.0082844406 25885.063
0.93849369 -0.05 0.0085971026 25853.871
0.93617096 -0.05 0.0089088655 25822.777
0.9338481 -0.05 0.0092197817 25791.723
0.93152513 -0.05 0.0095298292 25760.846
0.92920205 -0.05 0.00983897 25730.073
0.92687884 -0.05 0.010147248 25699.403
0.92455553 -0.05 0.01045465 25668.883
0.92223209 -0.05 0.010761189 25638.422
0.91990855 -0.05 0.011066875 25608.146
0.91758488 -0.05 0.011371653 25578.055
0.91526111 -0.05 0.011675608 25547.912
0.91293723 -0.05 0.011978761 25517.98
0.91061324 -0.05 0.012281 25488.266
0.90828913 -0.05 0.012582372 25458.576
0.90596492 -0.05 0.012882964 25428.95
0.90364059 -0.05 0.013182677 25399.687
0.90131615 -0.05 0.013481494 25370.432
0.89899162 -0.05 0.013779572 25341.117
0.89666698 -0.05 0.014076842 25312.143
0.89434222 -0.05 0.014373142 25283.448
0.89201737 -0.05 0.014668681 25254.456
0.88969241 -0.05 0.014963453 25225.931
0.88736734 -0.05 0.0152573 25197.509
0.88504217 -0.05 0.015550344 25169.11
0.8827169 -0.05 0.015842646 25140.748
0.88039152 -0.05 0.016134071 25112.833
0.87806604 -0.05 0.016424635 25084.808
0.87574046 -0.05 0.016714466 25056.926
0.87341478 -0.05 0.017003468 25029.257
0.871089 -0.05 0.017291665 25001.609
0.86876312 -0.05 0.017579058 24974.195
0.86643714 -0.05 0.017865646 24946.786
0.86411107 -0.05 0.018151445 24919.614
0.86178489 -0.05 0.018436407 24892.558
0.85945862 -0.05 0.018720606 24865.468
0.85713225 -0.05 0.019004019 24838.664
0.85480578 -0.05 0.019286574 24812.041
0.85247921 -0.05 0.019568355 24785.364
0.85015256 -0.05 0.019849418 24758.782
0.84782581 -0.05 0.020129657 24732.509
0.84549896 -0.05 0.020409081 24706.205
0.84317202 -0.05 0.020687756 24679.99
0.84084499 -0.05 0.020965643 24653.968
0.83851786 -0.05 0.021242672 24628.247
0.83619063 -0.05 0.021518954 24602.28
0.83386332 -0.05 0.021794529 24576.576
0.83153592 -0.05 0.022069294 24550.996
0.82920841 -0.05 0.022343258 24525.562
0.82688083 -0.05 0.02261648 24500.038
0.82455316 -0.05 0.022888925 24474.829
0.82222538 -0.05 0.023160547 24449.691
0.81989751 -0.05 0.023431389 24424.692
0.81756956 -0.05 0.023701494 24399.638
0.81524153 -0.05 0.023970846 24374.821
0.8129134 -0.05 0.024239417 24350.007
0.81058518 -0.05 0.02450723 24325.338
0.80825687 -0.05 0.024774258 24300.775
0.80592849 -0.05 0.02504053 24276.265
0.8036 -0.05 0.025306023 24251.936
0.80127144 -0.05 0.025570774 24227.481
0.79894279 -0.05 0.025834763 24203.372
0.79661404 -0.05 0.026097924 24179.296
0.79428522 -0.05 0.026360374 24155.127
0.79195631 -0.05 0.026622048 24131.344
0.78962731 -0.05 0.026882938 24107.392
0.78729823 -0.05 0.027143126 24083.581
0.78496906 -0.05 0.027402517 24059.963
0.78263981 -0.05 0.02766117 24036.139
0.78031048 -0.05 0.027919081 24012.666
0.77798106 -0.05 0.028176144 23989.312
0.77565155 -0.05 0.028432494 23965.725
0.77332196 -0.05 0.028688107 23942.492
0.77099228 -0.05 0.028942908 23919.236
0.76866253 -0.05 0.029196968 23896.009
0.7663327 -0.05 0.029450285 23872.852
0.76400278 -0.05 0.029702803 23849.912
0.76167277 -0.05 0.029954568 23826.837
0.75934268 -0.05 0.030205573 23804.074
0.75701251 -0.05 0.030455803 23781.178
0.75468227 -0.05 0.030705313 23758.401
0.75235193 -0.05 0.030954045 23735.716
0.75002152 -0.05 0.031202018 23713.04
0.74769103 -0.05 0.031449207 23690.563
0.74536045 -0.05 0.031695625 23668.007
0.7430298 -0.05 0.031941289 23645.591
0.74069906 -0.05 0.032186181 23623.156
0.73836824 -0.05 0.032430305 23600.872
0.73603734 -0.05 0.032673645 23578.636
0.73370637 -0.05 0.032916233 23556.34
0.73137531 -0.05 0.033158092 23534.032
0.72904417 -0.05 0.033399148 23512.021
0.72671295 -0.05 0.033639377 23489.995
0.72438166 -0.05 0.03387888 23467.811
0.72205028 -0.05 0.034117645 23445.781
0.71971882 -0.05 0.034355552 23424.037
0.71738729 -0.05 0.034592685 23401.974
0.71505567 -0.05 0.034829099 23380.122
0.71272397 -0.05 0.035064674 23358.406
0.71039219 -0.05 0.035299486 23336.492
0.70806035 -0.05 0.035533544 23314.803
0.70572841 -0.05 0.035766778 23293.124
0.70339641 -0.05 0.035999269 23271.315
0.70106433 -0.05 0.03623098 23249.68
0.69873216 -0.05 0.036461892 23227.95
0.69639992 -0.05 0.036691978 23206.438
0.69406759 -0.05 0.036921269 23184.725
0.69173519 -0.05 0.03714974 23163.403
0.68940271 -0.05 0.037377398 23141.771
0.68707015 -0.05 0.037604327 23120.187
0.68473752 -0.05 0.03783047 23098.561
0.68240481 -0.05 0.038055756 23077.208
0.68007201 -0.05 0.038280206 23055.675
0.67773914 -0.05 0.038503859 23034.282
0.67540619 -0.05 0.03872673 23012.663
0.67307317 -0.05 0.038948784 22991.295
0.67074007 -0.05 0.039170028 22969.623
0.66840689 -0.05 0.039390456 22948.231
0.66607364 -0.05 0.039610024 22926.661
0.6637403 -0.05 0.039828774 22905.227
0.66140688 -0.05 0.040046679 22883.694
0.6590734 -0.05 0.040263799 22862.015
0.65673983 -0.05 0.040480084 22840.494
0.65440618 -0.05 0.040695489 22818.909
0.65207246 -0.05 0.040910082 22797.187
0.64973866 -0.05 0.041123838 22775.509
0.64740478 -0.05 0.04133674 22753.692
0.64507083 -0.05 0.041548788 22731.926
0.6427368 -0.05 0.04175995 22710.1
0.64040268 -0.05 0.041970278 22688.094
0.6380685 -0.05 0.042179753 22666.116
0.63573424 -0.05 0.042388355 22643.975
0.63339989 -0.05 0.042596094 22621.816
0.63106547 -0.05 0.042802945 22599.527
0.62873097 -0.05 0.04300894 22577.061
0.6263964 -0.05 0.043214055 22554.56
0.62406174 -0.05 0.043418269 22531.907
0.62172702 -0.05 0.043621601 22509.09
0.61939221 -0.05 0.043824069 22486.017
0.61705733 -0.05 0.044025645 22462.884
0.61472237 -0.05 0.044226271 22439.641
0.61238733 -0.05 0.044426006 22416.046
0.61005222 -0.05 0.04462488 22392.241
0.60771702 -0.05 0.044822825 22368.273
0.60538174 -0.05 0.045019806 22344.126
0.6030464 -0.05 0.045215861 22319.629
0.60071097 -0.05 0.045411024 22294.839
0.59837546 -0.05 0.045605254 22269.791
0.59603988 -0.05 0.045798556 22244.334
0.59370423 -0.05 0.045990938 22218.554
0.59136849 -0.05 0.046182352 22192.456
0.58903267 -0.05 0.046372791 22165.989
0.58669678 -0.05 0.046562266 22139.095
0.5843608 -0.05 0.046750814 22111.668
0.58202475 -0.05 0.046938396 22083.896
0.57968862 -0.05 0.047124972 22055.613
0.57735242 -0.05 0.047310579 22026.772
0.57501614 -0.05 0.047495251 21997.278
0.57267978 -0.05 0.047678924 21967.354
0.57034334 -0.05 0.04786155 21936.794
0.56800683 -0.05 0.048043188 21905.561
0.56567024 -0.05 0.048223861 21873.578
0.56333356 -0.05 0.048403536 21840.936
0.56099681 -0.05 0.048582153 21807.585
0.55865998 -0.05 0.04875972 21773.416
0.55632308 -0.05 0.048936314 21738.291
0.55398609 -0.05 0.049111879 21702.42
0.55164903 -0.05 0.049286359 21665.56
0.54931189 -0.05 0.049459794 21627.768
0.54697467 -0.05 0.049632163 21588.972
0.54463737 -0.05 0.049803468 21549.14
0.5423 -0.05 0.049973719 21508.188
0.53996254 -0.05 0.050142913 21466.098
0.53762502 -0.05 0.050311035 21422.817
0.53528742 -0.05 0.050478054 21378.342
0.53294973 -0.05 0.050643972 21332.538
0.53061196 -0.05 0.050808824 21285.388
0.52827412 -0.05 0.050972558 21236.899
0.5259362 -0.05 0.051135143 21186.972
0.5235982 -0.05 0.051296612 21135.57
0.52126012 -0.05 0.051456922 21082.696
0.51892198 -0.05 0.051616121 21028.184
0.51658374 -0.05 0.051774162 20972.198
0.51424543 -0.05 0.051931036 20914.438
0.51190704 -0.05 0.05208678 20855.069
0.50956857 -0.05 0.052241321 20793.954
0.50723003 -0.05 0.052394685 20731.142
0.50489141 -0.05 0.052546885 20666.505
0.50255271 -0.05 0.05269791 20600.075
0.50021394 -0.05 0.052847701 20531.785
0.49787509 -0.05 0.052996281 20461.598
0.49553616 -0.05 0.053143654 20389.498
0.49319715 -0.05 0.053289801 20315.434
0.49085807 -0.05 0.053434697 20239.389
0.48851891 -0.05 0.05357832 20161.333
0.48617967 -0.05 0.053720679 20081.278
0.48384036 -0.05 0.053861795 19999.167
0.48150096 -0.05 0.054001669 19914.972
0.4791615 -0.05 0.054140241 19828.595
0.47682195 -0.05 0.054277501 19740.049
0.47448234 -0.05 0.054413462 19649.485
0.47214264 -0.05 0.054548109 19556.86
0.46980287 -0.05 0.054681459 19462.135
0.46746302 -0.05 0.054813494 19365.289
0.4651231 -0.05 0.054944177 19266.272
0.4627831 -0.05 0.055073496 19164.981
0.46044304 -0.05 0.055201437 19061.226
0.45810288 -0.05 0.055328007 18955.014
0.45576266 -0.05 0.055453195 18846.307
0.45342237 -0.05 0.055576996 18735.013
0.451082 -0.05 0.05569938 18620.986
0.44874156 -0.05 0.055820362 18503.998
0.44640104 -0.05 0.055939944 18383.858
0.44406046 -0.05 0.056058044 18259.279
0.4417198 -0.05 0.056174717 18127.972
0.43937906 -0.05 0.05628996 17986.925
0.43703826 -0.05 0.056403696 17831.06
0.43469738 -0.05 0.056515954 17653.513
0.43235643 -0.05 0.056626691 17446.829
0.43001541 -0.05 0.056735938 17203.328
0.42767432 -0.05 0.056843696 16915.465
0.42533317 -0.05 0.056949929 16562.806
0.42299193 -0.05 0.057054582 16115.644
0.42065064 -0.05 0.05715767 15552.768
0.41830927 -0.05 0.057259222 14886.778
0.41596783 -0.05 0.057359191 14176.674
0.41362633 -0.05 0.057457551 13513.857
0.41128476 -0.05 0.057554292 12971.73
0.40894313 -0.05 0.057649427 12575.592
0.40660142 -0.05 0.057742965 12309.746
0.40425966 -0.05 0.057834838 12142.856
0.40191783 -0.05 0.057925023 12042.272
0.39957593 -0.05 0.058013541 11983.85
0.39723398 -0.05 0.058100378 11950.719
0.39489196 -0.05 0.058185525 11933.945
0.39254988 -0.05 0.058268918 11926.023
0.39020774 -0.05 0.058350591 11922.688
0.38786553 -0.05 0.058430541 11921.753
0.38552326 -0.05 0.058508715 11922.169
0.38318094 -0.05 0.058585094 11923.919
0.38083857 -0.05 0.058659688 11926.425
0.37849613 -0.05 0.058732482 11929.534
0.37615364 -0.05 0.058803471 11932.956
0.37381109 -0.05 0.058872605 11937.23
0.37146848 -0.05 0.058939856 11941.488
0.36912583 -0.05 0.059005237 11946.046
0.36678312 -0.05 0.059068742 11950.541
0.36444037 -0.05 0.059130353 11955.418
0.36209757 -0.05 0.059190049 11960.251
0.35975471 -0.05 0.059247824 11965.49
0.35741181 -0.05 0.059303603 11971.307
0.35506885 -0.05 0.059357402 11976.71
0.35272586 -0.05 0.059409225 11982.627
0.35038283 -0.05 0.059459045 11988.285
0.34803975 -0.05 0.059506859 11994.458
0.34569662 -0.05 0.059552581 12001.072
0.34335347 -0.05 0.059596249 12007.081
0.34101027 -0.05 0.059637862 12013.923
0.33866703 -0.05 0.059677333 12020.902
0.33632377 -0.05 0.059714702 12027.789
0.33398046 -0.05 0.059749909 12035.495
0.33163713 -0.05 0.059782951 12042.488
0.32929376 -0.05 0.059813858 12050.054
0.32695037 -0.05 0.059842535 12058.083
0.32460696 -0.05 0.059868968 12066.151
0.32226351 -0.05 0.059893141 12074.537
0.31992004 -0.05 0.059915067 12082.503
0.31757656 -0.05 0.059934727 12091.121
0.31523306 -0.05 0.059952066 12099.789
0.31288954 -0.05 0.059967055 12108.98
0.31054601 -0.05 0.059979678 12117.901
0.30820247 -0.05 0.059989926 12127.135
0.30585891 -0.05 0.059997793 12136.123
0.30351535 -0.05 0.060003209 12146.389
0.30117178 -0.05 0.060006157 12156.799
