/*--------------------------------*- C++ -*----------------------------------*\
| =========                 |                                                 |
| \\      /  F ield         | OpenFOAM: The Open Source CFD Toolbox           |
|  \\    /   O peration     | Version:  2306                                  |
|   \\  /    A nd           | Website:  www.openfoam.com                      |
|    \\/     M anipulation  |                                                 |
\*---------------------------------------------------------------------------*/
FoamFile
{
    version     2.0;
    format      ascii;
    arch        "LSB;label=32;scalar=64";
    class       volScalarField;
    location    "125";
    object      magR;
}
// * * * * * * * * * * * * * * * * * * * * * * * * * * * * * * * * * * * * * //

dimensions      [0 2 -2 0 0 0 0];

internalField   nonuniform List<scalar> 
1340
(
0.000558416
0.000562683
0.000565688
0.000474026
0.000478287
0.000481634
0.000483961
0.000484871
0.000405018
0.000409181
0.000412621
0.000415375
0.000417174
0.000417851
0.000417078
0.000347949
0.000351894
0.000355286
0.000358204
0.000360433
0.00036186
0.000362243
0.000361466
0.000300362
0.000304045
0.000307297
0.000310239
0.000312714
0.000314579
0.000315655
0.000315815
0.00031504
0.00026037
0.000263769
0.000266828
0.000269704
0.000272266
0.000274363
0.000275872
0.000276677
0.000276708
0.000226536
0.000229648
0.000232492
0.000235256
0.000237806
0.000240009
0.000241764
0.000242981
0.000243575
0.000243484
0.000197739
0.000200567
0.000203205
0.000205819
0.000208291
0.00021051
0.000212392
0.000213841
0.000214811
0.000215204
0.000214983
0.000173098
0.000175661
0.000178097
0.000180538
0.000182905
0.000185074
0.000186988
0.000188569
0.000189771
0.000190512
0.000190745
0.000151909
0.000154237
0.000156469
0.000158746
0.000160974
0.000163063
0.000164951
0.000166582
0.000167913
0.000168882
0.000169423
0.000169537
0.000133617
0.000135729
0.000137773
0.000139877
0.000141963
0.000143939
0.000145767
0.000147396
0.000148787
0.000149887
0.000150652
0.000151055
0.000117768
0.000119681
0.000121551
0.000123486
0.00012542
0.000127273
0.000129019
0.000130608
0.000132011
0.000133183
0.000134087
0.000134686
0.000134964
0.000103988
0.000105725
0.000107426
0.000109202
0.000110986
0.000112711
0.000114359
0.000115887
0.000117268
0.000118462
0.000119442
0.000120179
0.000120641
9.19729e-05
9.3546e-05
9.50931e-05
9.6716e-05
9.83519e-05
9.99525e-05
0.000101496
0.000102948
0.000104283
0.000105472
0.000106485
0.000107305
0.000107893
0.000108247
8.14668e-05
8.28916e-05
8.42959e-05
8.57708e-05
8.72706e-05
8.8747e-05
9.01849e-05
9.15517e-05
9.28271e-05
9.39823e-05
9.49991e-05
9.58574e-05
9.65313e-05
9.70087e-05
7.22578e-05
7.35459e-05
7.48194e-05
7.61577e-05
7.75282e-05
7.8887e-05
8.02202e-05
8.14982e-05
8.27025e-05
8.38126e-05
8.48094e-05
8.56786e-05
8.64008e-05
8.69562e-05
6.41682e-05
6.53312e-05
6.64799e-05
6.76947e-05
6.89462e-05
7.01935e-05
7.14224e-05
7.26122e-05
7.37411e-05
7.47949e-05
7.57572e-05
7.66178e-05
7.73588e-05
7.79626e-05
7.84308e-05
5.70428e-05
5.80915e-05
5.9128e-05
6.02308e-05
6.13721e-05
6.25138e-05
6.36455e-05
6.4745e-05
6.57977e-05
6.67898e-05
6.7708e-05
6.85448e-05
6.92855e-05
6.9917e-05
7.04325e-05
5.07587e-05
5.17004e-05
5.26354e-05
5.36374e-05
5.46784e-05
5.57201e-05
5.67583e-05
5.77709e-05
5.8748e-05
5.96751e-05
6.05437e-05
6.13455e-05
6.20719e-05
6.27107e-05
6.32511e-05
4.5208e-05
4.60508e-05
4.6897e-05
4.78056e-05
4.87511e-05
4.97012e-05
5.06505e-05
5.15797e-05
5.24815e-05
5.33444e-05
5.4159e-05
5.49218e-05
5.56228e-05
5.62549e-05
5.68048e-05
5.72747e-05
4.02936e-05
4.1049e-05
4.18164e-05
4.26401e-05
4.34972e-05
4.43614e-05
4.52268e-05
4.60785e-05
4.69081e-05
4.77071e-05
4.84673e-05
4.91856e-05
4.9854e-05
5.04679e-05
5.10152e-05
5.14944e-05
3.59435e-05
3.66162e-05
3.73121e-05
3.80575e-05
3.88332e-05
3.96176e-05
4.0406e-05
4.11842e-05
4.1945e-05
4.2682e-05
4.33873e-05
4.40591e-05
4.46909e-05
4.52782e-05
4.58147e-05
4.62914e-05
3.15212e-05
3.20809e-05
3.26852e-05
3.33127e-05
3.39862e-05
3.46879e-05
3.53986e-05
3.6115e-05
3.68251e-05
3.7521e-05
3.81981e-05
3.885e-05
3.94747e-05
4.00679e-05
4.06251e-05
4.11417e-05
4.16091e-05
4.20295e-05
2.81434e-05
2.86439e-05
2.91903e-05
2.97572e-05
3.03654e-05
3.09991e-05
3.16431e-05
3.22937e-05
3.29395e-05
3.35751e-05
3.41958e-05
3.47957e-05
3.5374e-05
3.59268e-05
3.64508e-05
3.69431e-05
3.73967e-05
3.781e-05
2.51406e-05
2.55902e-05
2.60812e-05
2.65927e-05
2.71416e-05
2.77143e-05
2.82966e-05
2.88866e-05
2.94739e-05
3.00534e-05
3.06201e-05
3.11707e-05
3.17039e-05
3.22168e-05
3.27068e-05
3.3171e-05
3.36055e-05
3.40051e-05
2.24691e-05
2.28724e-05
2.33134e-05
2.37743e-05
2.42694e-05
2.47859e-05
2.53124e-05
2.58468e-05
2.63798e-05
2.69067e-05
2.74239e-05
2.79277e-05
2.84177e-05
2.88911e-05
2.93462e-05
2.97811e-05
3.01934e-05
3.05754e-05
3.093e-05
2.00898e-05
2.04517e-05
2.08474e-05
2.12618e-05
2.1708e-05
2.2174e-05
2.26495e-05
2.31331e-05
2.36164e-05
2.40946e-05
2.45652e-05
2.50253e-05
2.54738e-05
2.59092e-05
2.63302e-05
2.6735e-05
2.71215e-05
2.74849e-05
2.78239e-05
1.79693e-05
1.82934e-05
1.86482e-05
1.90208e-05
1.94225e-05
1.98423e-05
2.02716e-05
2.07091e-05
2.1146e-05
2.15798e-05
2.20078e-05
2.24267e-05
2.28365e-05
2.32354e-05
2.3623e-05
2.39978e-05
2.43574e-05
2.46993e-05
2.50206e-05
1.60775e-05
1.63678e-05
1.66857e-05
1.702e-05
1.73816e-05
1.77598e-05
1.81469e-05
1.85418e-05
1.89373e-05
1.93304e-05
1.97186e-05
2.00993e-05
2.04725e-05
2.08372e-05
2.11928e-05
2.15378e-05
2.18712e-05
2.21899e-05
2.24919e-05
1.43889e-05
1.46486e-05
1.4933e-05
1.5233e-05
1.55582e-05
1.58986e-05
1.62476e-05
1.66041e-05
1.69615e-05
1.7317e-05
1.76687e-05
1.80142e-05
1.83537e-05
1.86861e-05
1.90109e-05
1.93275e-05
1.96346e-05
1.99302e-05
2.02116e-05
1.28805e-05
1.31125e-05
1.33669e-05
1.3636e-05
1.39281e-05
1.42345e-05
1.45488e-05
1.48704e-05
1.51932e-05
1.55145e-05
1.58329e-05
1.61462e-05
1.64542e-05
1.67565e-05
1.70525e-05
1.73419e-05
1.76236e-05
1.78963e-05
1.81566e-05
1.84058e-05
1.15324e-05
1.17394e-05
1.19666e-05
1.2208e-05
1.24702e-05
1.27457e-05
1.30288e-05
1.33189e-05
1.36102e-05
1.39005e-05
1.41885e-05
1.44719e-05
1.47511e-05
1.50255e-05
1.52946e-05
1.55584e-05
1.58157e-05
1.60656e-05
1.63055e-05
1.65354e-05
1.03268e-05
1.05113e-05
1.07141e-05
1.09303e-05
1.11657e-05
1.14135e-05
1.16684e-05
1.19297e-05
1.21927e-05
1.24547e-05
1.27148e-05
1.29712e-05
1.32239e-05
1.34726e-05
1.37169e-05
1.39565e-05
1.41908e-05
1.44187e-05
1.4639e-05
1.48496e-05
9.24811e-06
9.4123e-06
9.59313e-06
9.78677e-06
9.99817e-06
1.02207e-05
1.04502e-05
1.06858e-05
1.09228e-05
1.11594e-05
1.13945e-05
1.16261e-05
1.18546e-05
1.20796e-05
1.23009e-05
1.25182e-05
1.2731e-05
1.29385e-05
1.3139e-05
1.33314e-05
8.28238e-06
8.4284e-06
8.58966e-06
8.76281e-06
8.95259e-06
9.15266e-06
9.35914e-06
9.57146e-06
9.78535e-06
9.9989e-06
1.02111e-05
1.04203e-05
1.06268e-05
1.08301e-05
1.10303e-05
1.1227e-05
1.14198e-05
1.16078e-05
1.17902e-05
1.19648e-05
7.41756e-06
7.54718e-06
7.69081e-06
7.84577e-06
8.01599e-06
8.19575e-06
8.38176e-06
8.57319e-06
8.76609e-06
8.95879e-06
9.15043e-06
9.33937e-06
9.52586e-06
9.70947e-06
9.89025e-06
1.00679e-05
1.02423e-05
1.04124e-05
1.05776e-05
1.07356e-05
1.08862e-05
6.64262e-06
6.75765e-06
6.88549e-06
7.02407e-06
7.17678e-06
7.33848e-06
7.50593e-06
7.67859e-06
7.85282e-06
8.02682e-06
8.19976e-06
8.37043e-06
8.53865e-06
8.70446e-06
8.86756e-06
9.02789e-06
9.18508e-06
9.33849e-06
9.4874e-06
9.63026e-06
9.76574e-06
5.94807e-06
6.04998e-06
6.1637e-06
6.28765e-06
6.42468e-06
6.57007e-06
6.72106e-06
6.877e-06
7.03427e-06
7.19143e-06
7.34774e-06
7.50177e-06
7.65367e-06
7.8032e-06
7.95026e-06
8.09474e-06
8.23632e-06
8.37453e-06
8.50832e-06
8.63684e-06
8.75828e-06
5.32528e-06
5.41557e-06
5.51665e-06
5.62742e-06
5.75044e-06
5.88135e-06
6.01754e-06
6.15839e-06
6.30064e-06
6.44278e-06
6.58401e-06
6.72326e-06
6.86034e-06
6.99528e-06
7.12777e-06
7.25784e-06
7.38519e-06
7.50926e-06
7.62945e-06
7.74459e-06
7.85317e-06
4.76684e-06
4.84661e-06
4.93637e-06
5.03542e-06
5.1459e-06
5.26381e-06
5.38692e-06
5.51434e-06
5.64308e-06
5.77179e-06
5.89964e-06
6.02547e-06
6.14933e-06
6.27098e-06
6.39036e-06
6.5074e-06
6.62179e-06
6.73311e-06
6.84068e-06
6.94364e-06
7.04022e-06
4.26583e-06
4.33621e-06
4.41589e-06
4.50442e-06
4.60371e-06
4.71015e-06
4.82148e-06
4.93699e-06
5.05381e-06
5.17046e-06
5.28625e-06
5.40014e-06
5.51207e-06
5.62192e-06
5.72949e-06
5.83473e-06
5.93741e-06
6.03715e-06
6.13333e-06
6.22524e-06
6.31124e-06
6.3915e-06
3.81629e-06
3.87826e-06
3.94893e-06
4.02811e-06
4.11742e-06
4.21358e-06
4.31456e-06
4.41945e-06
4.52553e-06
4.63147e-06
4.73659e-06
4.83979e-06
4.94111e-06
5.0403e-06
5.13727e-06
5.23195e-06
5.32413e-06
5.41343e-06
5.49929e-06
5.58112e-06
5.65776e-06
5.72854e-06
3.4128e-06
3.46732e-06
3.52995e-06
3.60076e-06
3.68125e-06
3.76834e-06
3.86003e-06
3.95545e-06
4.05206e-06
4.14847e-06
4.24402e-06
4.33775e-06
4.42954e-06
4.51926e-06
4.60674e-06
4.69196e-06
4.77471e-06
4.85461e-06
4.93121e-06
5.00398e-06
5.07182e-06
5.13411e-06
3.05065e-06
3.09847e-06
3.15392e-06
3.21736e-06
3.28999e-06
3.36899e-06
3.45253e-06
3.53957e-06
3.6277e-06
3.71565e-06
3.8027e-06
3.88795e-06
3.97128e-06
4.05253e-06
4.13155e-06
4.2083e-06
4.28259e-06
4.35409e-06
4.4224e-06
4.48701e-06
4.54692e-06
4.60163e-06
2.72549e-06
2.76734e-06
2.81644e-06
2.8733e-06
2.93899e-06
3.01089e-06
3.08717e-06
3.16677e-06
3.24744e-06
3.32784e-06
3.40731e-06
3.48504e-06
3.5608e-06
3.6345e-06
3.70597e-06
3.77517e-06
3.84191e-06
3.90594e-06
3.96687e-06
4.02414e-06
4.077e-06
4.12487e-06
2.43351e-06
2.47003e-06
2.51349e-06
2.56456e-06
2.62412e-06
2.68973e-06
2.75964e-06
2.83267e-06
2.90667e-06
2.98041e-06
3.05319e-06
3.12417e-06
3.19321e-06
3.26016e-06
3.32491e-06
3.38739e-06
3.4474e-06
3.50475e-06
3.55904e-06
3.60988e-06
3.65639e-06
3.69829e-06
2.17124e-06
2.20307e-06
2.24153e-06
2.28748e-06
2.34167e-06
2.40178e-06
2.46601e-06
2.53323e-06
2.60139e-06
2.66919e-06
2.73599e-06
2.801e-06
2.86405e-06
2.92502e-06
2.98376e-06
3.04023e-06
3.09427e-06
3.14567e-06
3.1941e-06
3.23915e-06
3.28011e-06
3.31654e-06
1.9357e-06
1.96333e-06
1.99735e-06
2.03885e-06
2.08832e-06
2.14354e-06
2.20283e-06
2.26493e-06
2.32787e-06
2.39043e-06
2.45193e-06
2.51164e-06
2.56938e-06
2.62499e-06
2.67839e-06
2.72954e-06
2.7783e-06
2.82443e-06
2.86766e-06
2.90762e-06
2.94375e-06
2.97545e-06
3.00195e-06
1.7241e-06
1.748e-06
1.77812e-06
1.81571e-06
1.86105e-06
1.91202e-06
1.96694e-06
2.02451e-06
2.08287e-06
2.14076e-06
2.19757e-06
2.2526e-06
2.30559e-06
2.35647e-06
2.40513e-06
2.45157e-06
2.49564e-06
2.53714e-06
2.5758e-06
2.61129e-06
2.64304e-06
2.67084e-06
2.69342e-06
1.534e-06
1.55458e-06
1.58128e-06
1.6155e-06
1.65721e-06
1.70443e-06
1.75554e-06
1.8091e-06
1.86339e-06
1.91718e-06
1.96984e-06
2.0207e-06
2.06951e-06
2.11617e-06
2.16064e-06
2.20293e-06
2.24286e-06
2.28026e-06
2.31486e-06
2.34639e-06
2.37431e-06
2.39846e-06
2.4176e-06
1.36319e-06
1.38086e-06
1.40457e-06
1.43586e-06
1.4744e-06
1.51836e-06
1.56608e-06
1.61608e-06
1.66681e-06
1.71692e-06
1.76591e-06
1.81313e-06
1.85822e-06
1.90114e-06
1.9419e-06
1.9805e-06
2.01671e-06
2.05036e-06
2.08125e-06
2.10915e-06
2.13361e-06
2.15449e-06
2.17066e-06
1.20979e-06
1.22486e-06
1.24596e-06
1.27475e-06
1.31048e-06
1.3516e-06
1.39634e-06
1.44316e-06
1.49072e-06
1.53752e-06
1.5833e-06
1.62733e-06
1.66912e-06
1.70865e-06
1.74604e-06
1.78119e-06
1.81389e-06
1.844e-06
1.87139e-06
1.89591e-06
1.91719e-06
1.93514e-06
1.94868e-06
1.07206e-06
1.08486e-06
1.10369e-06
1.1303e-06
1.16358e-06
1.20224e-06
1.24425e-06
1.28824e-06
1.33301e-06
1.37676e-06
1.4198e-06
1.4611e-06
1.49977e-06
1.53604e-06
1.57014e-06
1.60196e-06
1.63126e-06
1.658e-06
1.68213e-06
1.70359e-06
1.72202e-06
1.73736e-06
1.74857e-06
9.48366e-07
9.59184e-07
9.76086e-07
1.00084e-06
1.03193e-06
1.06846e-06
1.10794e-06
1.14946e-06
1.19165e-06
1.23255e-06
1.27353e-06
1.31243e-06
1.34783e-06
1.38064e-06
1.41151e-06
1.44017e-06
1.46635e-06
1.49006e-06
1.51139e-06
1.53019e-06
1.54623e-06
1.55936e-06
1.56855e-06
8.37291e-07
8.46442e-07
8.6167e-07
8.84811e-07
9.13974e-07
9.48654e-07
9.85625e-07
1.0251e-06
1.06478e-06
1.10284e-06
1.14247e-06
1.17912e-06
1.2109e-06
1.24026e-06
1.26826e-06
1.2943e-06
1.31794e-06
1.3393e-06
1.35839e-06
1.37513e-06
1.38918e-06
1.40032e-06
1.40759e-06
7.37712e-07
7.45393e-07
7.59215e-07
7.80956e-07
8.0845e-07
8.41476e-07
8.75889e-07
9.13897e-07
9.50554e-07
9.8584e-07
1.0249e-06
1.05896e-06
1.08689e-06
1.11344e-06
1.13955e-06
1.16378e-06
1.18558e-06
1.2052e-06
1.2227e-06
1.23783e-06
1.25008e-06
1.25956e-06
1.26523e-06
1.26751e-06
6.48629e-07
6.55009e-07
6.67675e-07
6.88234e-07
7.14293e-07
7.45769e-07
7.77679e-07
8.14907e-07
8.46654e-07
8.80715e-07
9.21301e-07
9.51445e-07
9.74413e-07
9.9921e-07
1.02473e-06
1.04776e-06
1.06801e-06
1.08618e-06
1.10226e-06
1.11586e-06
1.12666e-06
1.13461e-06
1.13899e-06
1.14002e-06
5.70287e-07
5.75465e-07
5.87143e-07
6.06523e-07
6.31081e-07
6.60682e-07
6.90064e-07
7.26431e-07
7.50416e-07
7.86228e-07
8.308e-07
8.55913e-07
8.72407e-07
8.96716e-07
9.23224e-07
9.45684e-07
9.64572e-07
9.81401e-07
9.96169e-07
1.00837e-06
1.01773e-06
1.02434e-06
1.0277e-06
1.02812e-06
5.04822e-07
5.09053e-07
5.19799e-07
5.37596e-07
5.60221e-07
5.86737e-07
6.12763e-07
6.45694e-07
6.60396e-07
6.98018e-07
7.45108e-07
7.66266e-07
7.7958e-07
8.06073e-07
8.35218e-07
8.58494e-07
8.77236e-07
8.9373e-07
9.08097e-07
9.1976e-07
9.28619e-07
9.34593e-07
9.37454e-07
9.3743e-07
4.54208e-07
4.57535e-07
4.6684e-07
4.82257e-07
5.01868e-07
5.23638e-07
5.45182e-07
5.70872e-07
5.78932e-07
6.11324e-07
6.57544e-07
6.77851e-07
6.93921e-07
7.23662e-07
7.55586e-07
7.81112e-07
8.01553e-07
8.19309e-07
8.3467e-07
8.47119e-07
8.56512e-07
8.6252e-07
8.65181e-07
8.64627e-07
4.10455e-07
4.1296e-07
4.20674e-07
4.33568e-07
4.49887e-07
4.66876e-07
4.84061e-07
5.02199e-07
5.06023e-07
5.29893e-07
5.72534e-07
5.93055e-07
6.14233e-07
6.46318e-07
6.7992e-07
7.07795e-07
7.30523e-07
7.50039e-07
7.66779e-07
7.80332e-07
7.90376e-07
7.96755e-07
7.99349e-07
7.98672e-07
3.66731e-07
3.68624e-07
3.75062e-07
3.85856e-07
3.99311e-07
4.12363e-07
4.26065e-07
4.37772e-07
4.39007e-07
4.55822e-07
4.95002e-07
5.15105e-07
5.41385e-07
5.752e-07
6.0942e-07
6.38665e-07
6.63018e-07
6.83726e-07
7.01268e-07
7.15462e-07
7.25863e-07
7.32415e-07
7.34894e-07
7.34008e-07
3.25069e-07
3.26524e-07
3.31844e-07
3.40768e-07
3.51552e-07
3.61246e-07
3.71765e-07
3.77916e-07
3.77395e-07
3.88082e-07
4.23964e-07
4.42952e-07
4.73901e-07
5.09322e-07
5.43597e-07
5.73475e-07
5.98926e-07
6.20507e-07
6.38601e-07
6.53105e-07
6.63641e-07
6.70187e-07
6.72806e-07
6.72193e-07
2.85584e-07
2.86737e-07
2.91062e-07
2.98244e-07
3.0646e-07
3.13343e-07
3.20787e-07
3.2233e-07
3.20578e-07
3.25946e-07
3.58735e-07
3.76462e-07
4.11347e-07
4.48155e-07
4.82303e-07
5.12397e-07
5.38606e-07
5.6089e-07
5.79372e-07
5.93974e-07
6.0434e-07
6.10322e-07
6.1193e-07
6.09819e-07
2.48905e-07
2.49865e-07
2.53157e-07
2.58487e-07
2.64081e-07
2.68456e-07
2.72685e-07
2.70826e-07
2.6809e-07
2.68925e-07
2.98557e-07
3.15376e-07
3.53313e-07
3.91383e-07
4.25462e-07
4.55639e-07
4.82354e-07
5.05171e-07
5.24006e-07
5.38873e-07
5.49715e-07
5.56742e-07
5.60238e-07
5.60849e-07
2.15492e-07
2.16353e-07
2.18559e-07
2.21762e-07
2.2449e-07
2.26232e-07
2.2683e-07
2.22923e-07
2.18912e-07
2.16586e-07
2.43221e-07
2.59779e-07
2.99798e-07
3.39044e-07
3.73353e-07
4.03732e-07
4.30914e-07
4.54057e-07
4.72536e-07
4.86124e-07
4.94696e-07
4.98104e-07
4.96299e-07
4.90353e-07
4.83128e-07
1.85242e-07
1.86115e-07
1.87273e-07
1.88228e-07
1.87954e-07
1.86635e-07
1.83069e-07
1.78228e-07
1.71568e-07
1.68925e-07
1.93274e-07
2.09951e-07
2.51114e-07
2.91522e-07
3.26099e-07
3.5658e-07
3.84585e-07
4.09449e-07
4.30411e-07
4.47396e-07
4.60665e-07
4.71038e-07
4.79395e-07
4.85879e-07
4.90163e-07
1.58399e-07
1.59248e-07
1.59022e-07
1.57325e-07
1.53872e-07
1.49248e-07
1.42085e-07
1.37399e-07
1.26593e-07
1.29562e-07
1.50565e-07
1.66296e-07
2.07765e-07
2.4937e-07
2.84228e-07
3.14131e-07
3.40853e-07
3.63616e-07
3.81495e-07
3.9403e-07
4.0064e-07
4.00939e-07
3.95328e-07
3.86962e-07
3.81067e-07
1.37304e-07
1.37581e-07
1.34486e-07
1.28282e-07
1.2024e-07
1.11739e-07
1.02953e-07
1.00482e-07
8.84528e-08
1.05705e-07
1.18194e-07
1.30122e-07
1.69567e-07
2.11317e-07
2.486e-07
2.8417e-07
3.1937e-07
3.52985e-07
3.84128e-07
4.13249e-07
4.41796e-07
4.71876e-07
5.03812e-07
5.33126e-07
5.54057e-07
1.25047e-07
1.24294e-07
1.17048e-07
1.04237e-07
8.86189e-08
7.30564e-08
6.21049e-08
6.30938e-08
5.92924e-08
9.22679e-08
9.73937e-08
1.07522e-07
1.41308e-07
1.78363e-07
2.14169e-07
2.52997e-07
2.95666e-07
3.4011e-07
3.84277e-07
4.26742e-07
4.65881e-07
5.00494e-07
5.30245e-07
5.54625e-07
5.74813e-07
1.19943e-07
1.18447e-07
1.08415e-07
9.08044e-08
6.80783e-08
4.24731e-08
2.27181e-08
2.96408e-08
4.57456e-08
7.56822e-08
6.42473e-08
1.00569e-07
1.61801e-07
2.29941e-07
3.02148e-07
3.77821e-07
4.56587e-07
5.37315e-07
6.18009e-07
6.96179e-07
7.68133e-07
8.29067e-07
8.7334e-07
8.98672e-07
9.15545e-07
)
;

boundaryField
{
    inlet
    {
        type            calculated;
        value           nonuniform List<scalar> 
25
(
1.21234e-07
1.1947e-07
1.09051e-07
9.07413e-08
6.66347e-08
3.86468e-08
1.72722e-08
3.3168e-08
5.88104e-08
5.84163e-08
1.20543e-07
2.27535e-07
3.88429e-07
5.85299e-07
8.11995e-07
1.06552e-06
1.34418e-06
1.64508e-06
1.96398e-06
2.29499e-06
2.62974e-06
2.9556e-06
3.25745e-06
3.51842e-06
3.73522e-06
)
;
    }
    outlet
    {
        type            calculated;
        value           nonuniform List<scalar> 0();
    }
    walls
    {
        type            calculated;
        value           nonuniform List<scalar> 0();
    }
    frontAndBack
    {
        type            empty;
    }
    procBoundary4to0
    {
        type            processor;
        value           nonuniform List<scalar> 
72
(
0.000553551
0.000469364
0.000400637
0.000343901
0.000296667
0.00025703
0.000223521
0.000195022
0.000170654
0.000149721
0.000131655
0.000116006
0.000102403
9.05466e-05
8.01814e-05
7.10977e-05
6.31176e-05
5.60968e-05
4.9911e-05
4.44474e-05
3.96122e-05
3.53269e-05
3.53269e-05
3.09863e-05
2.76643e-05
2.47118e-05
2.20849e-05
1.97457e-05
1.76613e-05
1.58024e-05
1.41432e-05
1.26614e-05
1.13372e-05
1.01533e-05
9.09413e-06
8.14605e-06
7.29705e-06
6.5365e-06
5.8548e-06
5.2436e-06
4.69541e-06
4.20358e-06
3.7622e-06
3.366e-06
3.01028e-06
2.69085e-06
2.40393e-06
2.14616e-06
1.91454e-06
1.70642e-06
1.51936e-06
1.35123e-06
1.20014e-06
1.06446e-06
9.42537e-07
8.33001e-07
7.34755e-07
6.4678e-07
5.69251e-07
5.04229e-07
4.53894e-07
4.10391e-07
3.66874e-07
3.25331e-07
2.85841e-07
2.48973e-07
2.15223e-07
1.84403e-07
1.56628e-07
1.34122e-07
1.2035e-07
1.14539e-07
)
;
    }
    procBoundary4to5
    {
        type            processor;
        value           nonuniform List<scalar> 
95
(
0.000662685
0.00066649
0.000668397
0.000567105
0.000567105
0.00056669
0.000484204
0.000484204
0.000481801
0.00041479
0.00041479
0.000359271
0.000359271
0.000312936
0.000275822
0.000275822
0.000242478
0.000242478
0.000213923
0.000190393
0.000190393
0.000169028
0.000151028
0.000151028
0.000134783
0.000120791
0.000120791
0.000108261
9.72382e-05
8.73252e-05
8.73252e-05
7.86891e-05
7.08009e-05
6.36817e-05
6.36817e-05
5.76121e-05
5.18833e-05
4.67025e-05
4.67025e-05
4.23701e-05
3.81716e-05
3.43662e-05
3.43662e-05
3.12339e-05
2.81308e-05
2.53154e-05
2.27728e-05
2.04781e-05
2.04781e-05
1.86317e-05
1.67514e-05
1.50481e-05
1.35137e-05
1.21314e-05
1.21314e-05
1.10243e-05
9.89256e-06
8.87178e-06
7.95455e-06
7.1309e-06
7.1309e-06
6.46173e-06
5.79125e-06
5.18881e-06
4.64926e-06
4.16616e-06
3.73395e-06
3.34746e-06
3.34746e-06
3.02254e-06
2.71074e-06
2.4318e-06
2.18214e-06
1.95784e-06
1.75564e-06
1.57385e-06
1.41122e-06
1.41122e-06
1.2685e-06
1.1399e-06
1.02772e-06
9.36686e-07
8.63029e-07
7.9684e-07
7.31779e-07
6.70365e-07
6.06108e-07
5.60122e-07
5.60122e-07
4.76533e-07
4.92223e-07
3.79228e-07
5.66255e-07
5.94885e-07
9.16341e-07
)
;
    }
}


// ************************************************************************* //
