/*--------------------------------*- C++ -*----------------------------------*\
| =========                 |                                                 |
| \\      /  F ield         | OpenFOAM: The Open Source CFD Toolbox           |
|  \\    /   O peration     | Version:  2306                                  |
|   \\  /    A nd           | Website:  www.openfoam.com                      |
|    \\/     M anipulation  |                                                 |
\*---------------------------------------------------------------------------*/
FoamFile
{
    version     2.0;
    format      ascii;
    arch        "LSB;label=32;scalar=64";
    class       volScalarField;
    location    "125";
    object      turbulenceProperties:I;
}
// * * * * * * * * * * * * * * * * * * * * * * * * * * * * * * * * * * * * * //

dimensions      [0 0 0 0 0 0 0];

internalField   nonuniform List<scalar> 
1340
(
0.00079055
0.000760308
0.000729853
0.000721811
0.000697228
0.000672228
0.000648275
0.000624095
0.000661231
0.000641186
0.000620579
0.000600787
0.000580703
0.000560985
0.000541832
0.000607541
0.000591113
0.000574071
0.000557664
0.000540899
0.000524384
0.000508319
0.000492512
0.00055976
0.000546244
0.000532102
0.000518478
0.000504493
0.000490645
0.000477136
0.000463768
0.000450695
0.000517037
0.000505879
0.000494108
0.00048278
0.0004711
0.000459484
0.000448133
0.000436859
0.000425767
0.000478673
0.000469438
0.000459618
0.000450199
0.000440441
0.000430705
0.000421171
0.000411679
0.000402296
0.000393014
0.000444082
0.000436417
0.000428227
0.000420392
0.000412239
0.000404084
0.000396094
0.000388098
0.000380187
0.00037231
0.000364418
0.000412769
0.000406404
0.000399574
0.000393056
0.000386259
0.000379433
0.000372739
0.000366029
0.000359373
0.000352729
0.000346037
0.000384319
0.000379042
0.000373345
0.000367942
0.000362274
0.00035658
0.000350985
0.000345365
0.000339783
0.000334203
0.000328544
0.000322846
0.000358388
0.000354022
0.00034928
0.000344807
0.000340101
0.000335354
0.000330696
0.000326008
0.000321345
0.000316674
0.000311932
0.000307126
0.000334684
0.000331082
0.000327147
0.000323457
0.000319557
0.000315615
0.000311757
0.000307863
0.000303989
0.000300104
0.000296151
0.000292117
0.000287998
0.00031295
0.000309999
0.000306738
0.000303711
0.000300495
0.000297238
0.000294059
0.000290848
0.00028765
0.000284438
0.000281159
0.000277811
0.000274361
0.000292977
0.000290569
0.000287882
0.000285414
0.000282774
0.000280105
0.000277505
0.000274878
0.00027226
0.00026963
0.000266936
0.000264179
0.000261317
0.000258359
0.000274574
0.000272627
0.000270426
0.000268424
0.000266279
0.00026411
0.000262007
0.000259878
0.000257758
0.000255623
0.000253433
0.000251182
0.00024884
0.000246401
0.000257581
0.000256022
0.000254234
0.000252626
0.000250903
0.000249163
0.000247485
0.000245783
0.000244087
0.000242381
0.000240622
0.000238808
0.000236917
0.000234927
0.000241858
0.000240626
0.00023918
0.000237912
0.000236551
0.000235177
0.000233859
0.000232525
0.000231193
0.000229852
0.000228464
0.00022703
0.000225525
0.000223929
0.000222262
0.000227274
0.000226317
0.000225165
0.000224189
0.000223137
0.000222075
0.000221069
0.000220045
0.000219025
0.000217997
0.000216929
0.00021582
0.000214649
0.000213401
0.00021208
0.00021373
0.000212998
0.000212098
0.000211373
0.000210588
0.000209791
0.000209048
0.000208289
0.000207536
0.000206776
0.000205982
0.00020515
0.000204269
0.00020332
0.0002023
0.000201131
0.000200586
0.000199906
0.000199393
0.00019883
0.000198261
0.000197741
0.000197206
0.00019668
0.000196151
0.000195589
0.000194999
0.000194364
0.000193674
0.000192916
0.000192105
0.000189387
0.000189002
0.000188515
0.000188182
0.000187805
0.000187428
0.000187097
0.000186756
0.000186422
0.000186087
0.000185725
0.00018534
0.000184915
0.000184444
0.000183914
0.000183332
0.00017844
0.00017818
0.000177857
0.000177675
0.000177456
0.00017724
0.00017707
0.000176892
0.000176722
0.000176553
0.00017636
0.000176147
0.000175902
0.000175615
0.000175284
0.000174898
0.000168224
0.000168206
0.000168064
0.000167873
0.000167817
0.000167732
0.000167651
0.000167615
0.000167576
0.000167543
0.000167514
0.000167464
0.000167398
0.000167305
0.000167177
0.000167011
0.000166797
0.00016655
0.000158559
0.000158616
0.000158584
0.000158508
0.000158557
0.000158584
0.000158619
0.000158697
0.000158773
0.000158857
0.000158945
0.000159016
0.000159073
0.000159108
0.000159113
0.000159087
0.000159023
0.000158926
0.000149516
0.000149642
0.000149694
0.000149714
0.000149852
0.000149974
0.000150104
0.000150278
0.000150452
0.000150634
0.000150819
0.00015099
0.000151151
0.000151293
0.00015141
0.000151502
0.000151563
0.000151591
0.000141049
0.000141231
0.000141352
0.000141451
0.000141663
0.000141862
0.000142073
0.000142326
0.00014258
0.000142843
0.000143109
0.000143364
0.000143611
0.000143841
0.000144051
0.000144241
0.000144408
0.000144542
0.00014466
0.000133111
0.000133338
0.000133516
0.00013368
0.000133952
0.000134216
0.000134493
0.000134812
0.000135133
0.000135461
0.000135794
0.000136117
0.000136433
0.000136737
0.000137024
0.000137295
0.000137546
0.000137772
0.00013798
0.000125664
0.000125925
0.000126149
0.000126366
0.000126686
0.000127003
0.000127335
0.000127708
0.000128081
0.000128464
0.000128852
0.00012923
0.000129604
0.000129966
0.000130315
0.000130651
0.00013097
0.000131271
0.000131553
0.000118668
0.000118958
0.000119218
0.000119476
0.000119836
0.000120196
0.000120572
0.000120986
0.000121404
0.00012183
0.000122262
0.000122684
0.000123102
0.000123512
0.000123912
0.000124299
0.000124674
0.000125033
0.000125376
0.000112092
0.000112402
0.000112691
0.000112983
0.000113373
0.000113767
0.000114179
0.000114627
0.000115079
0.000115539
0.000116004
0.000116462
0.000116916
0.000117362
0.0001178
0.000118228
0.000118645
0.000119051
0.000119442
0.000105906
0.00010623
0.00010654
0.000106859
0.000107272
0.000107693
0.000108132
0.000108607
0.000109085
0.000109572
0.000110063
0.000110548
0.000111029
0.000111503
0.00011197
0.000112428
0.000112878
0.00011332
0.000113746
0.000114167
0.000100082
0.000100416
0.000100741
0.000101081
0.000101511
0.000101951
0.000102411
0.000102906
0.000103405
0.000103911
0.000104422
0.000104925
0.000105426
0.000105921
0.000106409
0.00010689
0.000107364
0.00010783
0.000108283
0.00010873
9.45949e-05
9.49332e-05
9.52691e-05
9.5624e-05
9.60657e-05
9.65214e-05
9.69966e-05
9.75052e-05
9.80193e-05
9.85393e-05
9.90632e-05
9.95809e-05
0.000100096
0.000100605
0.000101108
0.000101604
0.000102094
0.000102575
0.000103049
0.000103512
8.94217e-05
8.97608e-05
9.01031e-05
9.04687e-05
9.09185e-05
9.13837e-05
9.187e-05
9.23887e-05
9.29118e-05
9.34417e-05
9.39751e-05
9.45016e-05
9.50247e-05
9.55427e-05
9.60543e-05
9.65601e-05
9.70592e-05
9.75519e-05
9.80348e-05
9.85082e-05
8.45406e-05
8.48781e-05
8.52237e-05
8.55953e-05
8.60497e-05
8.65215e-05
8.70143e-05
8.75387e-05
8.80688e-05
8.86041e-05
8.9142e-05
8.96734e-05
9.0201e-05
9.07232e-05
9.12392e-05
9.17493e-05
9.22533e-05
9.27498e-05
9.32383e-05
9.37143e-05
7.99332e-05
8.0266e-05
8.06117e-05
8.09871e-05
8.14423e-05
8.19171e-05
8.24143e-05
8.29417e-05
8.34745e-05
8.40121e-05
8.45522e-05
8.50851e-05
8.56139e-05
8.61363e-05
8.66526e-05
8.71627e-05
8.76667e-05
8.8163e-05
8.86517e-05
8.91261e-05
8.95901e-05
7.55805e-05
7.59071e-05
7.62506e-05
7.66266e-05
7.70806e-05
7.75566e-05
7.80548e-05
7.85828e-05
7.91168e-05
7.96545e-05
8.01932e-05
8.07251e-05
8.12514e-05
8.17719e-05
8.22851e-05
8.27918e-05
8.32917e-05
8.37835e-05
8.42667e-05
8.47372e-05
8.51929e-05
7.14665e-05
7.17852e-05
7.21244e-05
7.24994e-05
7.29502e-05
7.34247e-05
7.39227e-05
7.445e-05
7.49823e-05
7.55178e-05
7.6054e-05
7.65821e-05
7.71045e-05
7.76198e-05
7.81274e-05
7.86281e-05
7.9121e-05
7.9606e-05
8.008e-05
8.05418e-05
8.09861e-05
6.75757e-05
6.78857e-05
6.8219e-05
6.85905e-05
6.9037e-05
6.95091e-05
7.00051e-05
7.05295e-05
7.10595e-05
7.15918e-05
7.21234e-05
7.26469e-05
7.31631e-05
7.36719e-05
7.41718e-05
7.46639e-05
7.51477e-05
7.5622e-05
7.60855e-05
7.65351e-05
7.6966e-05
6.38948e-05
6.41943e-05
6.45202e-05
6.48874e-05
6.53283e-05
6.57965e-05
6.62902e-05
6.68112e-05
6.73374e-05
6.78656e-05
6.83922e-05
6.89091e-05
6.94184e-05
6.99185e-05
7.04093e-05
7.08914e-05
7.13639e-05
7.18261e-05
7.22761e-05
7.27117e-05
7.3126e-05
6.041e-05
6.06981e-05
6.10158e-05
6.13772e-05
6.18118e-05
6.22762e-05
6.27663e-05
6.32836e-05
6.38064e-05
6.43294e-05
6.48497e-05
6.53598e-05
6.58609e-05
6.63522e-05
6.68327e-05
6.73032e-05
6.77632e-05
6.82118e-05
6.86472e-05
6.90674e-05
6.94654e-05
6.98447e-05
5.71094e-05
5.73853e-05
5.7694e-05
5.80491e-05
5.84768e-05
5.89366e-05
5.94236e-05
5.99369e-05
6.04552e-05
6.09731e-05
6.14873e-05
6.19901e-05
6.24828e-05
6.29642e-05
6.34338e-05
6.38922e-05
6.4339e-05
6.47731e-05
6.51926e-05
6.55959e-05
6.59781e-05
6.63374e-05
5.39813e-05
5.4245e-05
5.45439e-05
5.4892e-05
5.53132e-05
5.57687e-05
5.62519e-05
5.67612e-05
5.72755e-05
5.77883e-05
5.82961e-05
5.87917e-05
5.92755e-05
5.97471e-05
6.02055e-05
6.06514e-05
6.10845e-05
6.15034e-05
6.19066e-05
6.22925e-05
6.2656e-05
6.29951e-05
5.10159e-05
5.12665e-05
5.15551e-05
5.18964e-05
5.2311e-05
5.27621e-05
5.32426e-05
5.37483e-05
5.42583e-05
5.47664e-05
5.52681e-05
5.57563e-05
5.62317e-05
5.66932e-05
5.71403e-05
5.75736e-05
5.79926e-05
5.83961e-05
5.87828e-05
5.91508e-05
5.94952e-05
5.98142e-05
4.82026e-05
4.84399e-05
4.87184e-05
4.90526e-05
4.94611e-05
4.99088e-05
5.03865e-05
5.08892e-05
5.13961e-05
5.18995e-05
5.23952e-05
5.28767e-05
5.33434e-05
5.37953e-05
5.42312e-05
5.46519e-05
5.50568e-05
5.54453e-05
5.58157e-05
5.61655e-05
5.64908e-05
5.67893e-05
4.55324e-05
4.57561e-05
4.60244e-05
4.63521e-05
4.67551e-05
4.72e-05
4.76762e-05
4.81765e-05
4.86804e-05
4.91801e-05
4.96708e-05
5.01454e-05
5.06041e-05
5.10462e-05
5.14713e-05
5.18798e-05
5.22709e-05
5.26444e-05
5.29981e-05
5.33308e-05
5.3637e-05
5.39161e-05
4.29961e-05
4.32068e-05
4.34649e-05
4.37864e-05
4.41852e-05
4.46284e-05
4.51034e-05
4.56024e-05
4.61047e-05
4.66011e-05
4.7087e-05
4.75556e-05
4.80066e-05
4.84397e-05
4.88542e-05
4.92506e-05
4.96284e-05
4.99872e-05
5.03251e-05
5.06402e-05
5.09284e-05
5.11872e-05
4.05863e-05
4.07835e-05
4.10317e-05
4.13483e-05
4.17437e-05
4.21859e-05
4.26614e-05
4.31601e-05
4.36612e-05
4.41554e-05
4.46375e-05
4.51007e-05
4.55448e-05
4.59691e-05
4.63735e-05
4.67585e-05
4.71238e-05
4.74684e-05
4.7791e-05
4.80897e-05
4.83609e-05
4.86009e-05
4.8804e-05
3.82949e-05
3.84787e-05
3.87175e-05
3.90298e-05
3.94233e-05
3.9866e-05
4.0343e-05
4.08424e-05
4.13439e-05
4.18366e-05
4.23156e-05
4.27745e-05
4.32122e-05
4.36286e-05
4.40236e-05
4.43979e-05
4.47512e-05
4.50827e-05
4.53909e-05
4.5674e-05
4.59281e-05
4.61523e-05
4.63363e-05
3.61145e-05
3.6285e-05
3.6515e-05
3.68248e-05
3.72174e-05
3.76618e-05
3.81419e-05
3.86432e-05
3.91458e-05
3.96384e-05
4.01155e-05
4.05708e-05
4.1003e-05
4.14121e-05
4.17985e-05
4.21632e-05
4.25054e-05
4.28244e-05
4.31187e-05
4.33868e-05
4.36247e-05
4.38319e-05
4.39976e-05
3.40384e-05
3.41961e-05
3.4418e-05
3.47265e-05
3.51195e-05
3.55674e-05
3.60516e-05
3.65558e-05
3.70612e-05
3.75542e-05
3.80305e-05
3.84837e-05
3.89113e-05
3.93139e-05
3.96927e-05
4.00482e-05
4.03795e-05
4.06856e-05
4.09656e-05
4.12181e-05
4.14398e-05
4.16302e-05
4.17787e-05
3.2061e-05
3.22058e-05
3.24205e-05
3.27294e-05
3.3124e-05
3.35769e-05
3.40665e-05
3.45746e-05
3.50838e-05
3.55779e-05
3.60549e-05
3.65075e-05
3.69314e-05
3.73277e-05
3.76985e-05
3.80441e-05
3.83628e-05
3.86544e-05
3.89186e-05
3.91546e-05
3.93596e-05
3.95333e-05
3.96651e-05
3.01768e-05
3.0309e-05
3.05177e-05
3.08281e-05
3.12256e-05
3.16855e-05
3.21807e-05
3.26939e-05
3.32084e-05
3.37033e-05
3.41836e-05
3.46376e-05
3.50565e-05
3.54443e-05
3.58049e-05
3.6138e-05
3.6442e-05
3.67174e-05
3.69647e-05
3.71841e-05
3.73726e-05
3.75302e-05
3.76459e-05
2.83793e-05
2.84997e-05
2.87035e-05
2.90174e-05
2.94188e-05
2.98876e-05
3.03884e-05
3.09084e-05
3.14281e-05
3.19231e-05
3.24126e-05
3.28696e-05
3.32781e-05
3.36516e-05
3.3999e-05
3.43182e-05
3.46069e-05
3.48666e-05
3.50988e-05
3.53031e-05
3.54772e-05
3.56203e-05
3.57208e-05
2.6663e-05
2.6773e-05
2.6973e-05
2.72917e-05
2.76983e-05
2.81781e-05
2.86817e-05
2.92123e-05
2.97356e-05
3.0228e-05
3.07343e-05
3.11935e-05
3.15836e-05
3.19387e-05
3.22739e-05
3.25826e-05
3.28598e-05
3.31085e-05
3.33295e-05
3.35227e-05
3.36847e-05
3.38133e-05
3.38975e-05
2.50253e-05
2.5125e-05
2.53229e-05
2.56478e-05
2.60615e-05
2.65534e-05
2.70564e-05
2.76044e-05
2.81208e-05
2.86083e-05
2.91421e-05
2.95964e-05
2.99601e-05
3.03016e-05
3.06346e-05
3.09402e-05
3.12124e-05
3.14552e-05
3.16706e-05
3.18559e-05
3.20057e-05
3.21216e-05
3.21909e-05
3.2219e-05
2.34641e-05
2.35536e-05
2.37515e-05
2.40845e-05
2.45074e-05
2.50117e-05
2.55115e-05
2.60869e-05
2.65628e-05
2.70666e-05
2.76595e-05
2.80857e-05
2.84016e-05
2.87414e-05
2.90885e-05
2.93978e-05
2.96664e-05
2.99053e-05
3.01154e-05
3.0292e-05
3.04318e-05
3.05346e-05
3.0591e-05
3.06041e-05
2.20004e-05
2.20785e-05
2.22772e-05
2.26167e-05
2.30456e-05
2.35546e-05
2.40473e-05
2.46491e-05
2.5029e-05
2.5598e-05
2.62929e-05
2.66673e-05
2.69046e-05
2.72603e-05
2.76452e-05
2.79658e-05
2.82315e-05
2.84661e-05
2.86705e-05
2.88382e-05
2.89661e-05
2.90563e-05
2.91018e-05
2.91072e-05
2.06985e-05
2.07666e-05
2.0964e-05
2.12985e-05
2.17214e-05
2.22082e-05
2.26743e-05
2.32562e-05
2.34999e-05
2.4144e-05
2.49279e-05
2.52608e-05
2.54619e-05
2.58756e-05
2.63254e-05
2.66771e-05
2.69553e-05
2.71976e-05
2.74069e-05
2.75755e-05
2.77027e-05
2.77881e-05
2.78286e-05
2.78277e-05
1.9633e-05
1.96887e-05
1.98701e-05
2.01772e-05
2.0566e-05
2.09896e-05
2.13999e-05
2.18832e-05
2.20221e-05
2.26194e-05
2.34457e-05
2.37872e-05
2.40499e-05
2.45447e-05
2.50667e-05
2.5474e-05
2.57938e-05
2.60679e-05
2.63027e-05
2.64912e-05
2.66324e-05
2.67219e-05
2.6761e-05
2.67517e-05
1.86632e-05
1.87062e-05
1.88649e-05
1.91364e-05
1.94787e-05
1.98286e-05
2.01768e-05
2.05399e-05
2.06068e-05
2.10814e-05
2.19035e-05
2.22757e-05
2.26524e-05
2.32218e-05
2.38046e-05
2.42754e-05
2.46509e-05
2.49681e-05
2.52368e-05
2.54519e-05
2.56099e-05
2.57092e-05
2.57488e-05
2.57371e-05
1.76409e-05
1.76748e-05
1.78158e-05
1.80575e-05
1.83579e-05
1.86441e-05
1.8941e-05
1.91912e-05
1.92105e-05
1.95725e-05
2.03896e-05
2.07837e-05
2.12903e-05
2.19309e-05
2.25613e-05
2.30845e-05
2.35096e-05
2.38642e-05
2.41602e-05
2.43967e-05
2.4568e-05
2.46749e-05
2.47143e-05
2.46984e-05
1.66086e-05
1.66362e-05
1.67608e-05
1.69744e-05
1.72316e-05
1.74588e-05
1.77038e-05
1.78438e-05
1.78267e-05
1.80773e-05
1.88903e-05
1.92942e-05
1.99407e-05
2.0659e-05
2.1331e-05
2.18981e-05
2.23683e-05
2.27584e-05
2.30798e-05
2.33338e-05
2.35161e-05
2.3628e-05
2.36718e-05
2.36599e-05
1.55674e-05
1.55911e-05
1.57001e-05
1.58845e-05
1.60948e-05
1.62681e-05
1.64552e-05
1.6491e-05
1.64436e-05
1.65821e-05
1.73939e-05
1.78055e-05
1.85973e-05
1.93989e-05
2.01134e-05
2.07209e-05
2.12344e-05
2.16603e-05
2.20066e-05
2.22758e-05
2.24643e-05
2.25715e-05
2.25989e-05
2.25587e-05
1.45335e-05
1.45556e-05
1.46449e-05
1.47923e-05
1.49464e-05
1.50653e-05
1.51803e-05
1.51263e-05
1.50491e-05
1.50745e-05
1.58825e-05
1.63125e-05
1.72524e-05
1.81466e-05
1.89101e-05
1.95596e-05
2.01156e-05
2.05776e-05
2.09505e-05
2.12395e-05
2.14472e-05
2.15802e-05
2.16455e-05
2.16559e-05
1.35232e-05
1.35458e-05
1.36101e-05
1.37053e-05
1.37859e-05
1.38365e-05
1.38531e-05
1.37322e-05
1.36087e-05
1.35381e-05
1.43467e-05
1.48176e-05
1.59066e-05
1.69055e-05
1.77313e-05
1.84299e-05
1.90318e-05
1.95285e-05
1.99152e-05
2.01938e-05
2.03665e-05
2.04332e-05
2.03939e-05
2.02703e-05
2.012e-05
1.25386e-05
1.25651e-05
1.2601e-05
1.26303e-05
1.2619e-05
1.25731e-05
1.24518e-05
1.22858e-05
1.20553e-05
1.19634e-05
1.27976e-05
1.33309e-05
1.45698e-05
1.56896e-05
1.65862e-05
1.73364e-05
1.79969e-05
1.85626e-05
1.90255e-05
1.93919e-05
1.96728e-05
1.98895e-05
2.00626e-05
2.01961e-05
2.0284e-05
1.15951e-05
1.16243e-05
1.16142e-05
1.15504e-05
1.14219e-05
1.12483e-05
1.09749e-05
1.07926e-05
1.03608e-05
1.0482e-05
1.13013e-05
1.18716e-05
1.32622e-05
1.45225e-05
1.54978e-05
1.62862e-05
1.69584e-05
1.75097e-05
1.79298e-05
1.82176e-05
1.83663e-05
1.83708e-05
1.82408e-05
1.80467e-05
1.79091e-05
1.07961e-05
1.0806e-05
1.06828e-05
1.04328e-05
1.01001e-05
9.73633e-06
9.34581e-06
9.23323e-06
8.66412e-06
9.47098e-06
1.00167e-05
1.05065e-05
1.19885e-05
1.33781e-05
1.45052e-05
1.55029e-05
1.64296e-05
1.72672e-05
1.80077e-05
1.86733e-05
1.93034e-05
1.99463e-05
2.06072e-05
2.11956e-05
2.16058e-05
1.03037e-05
1.02721e-05
9.96784e-06
9.40634e-06
8.67306e-06
7.87489e-06
7.26091e-06
7.31882e-06
7.09641e-06
8.85087e-06
9.09478e-06
9.55436e-06
1.09494e-05
1.22986e-05
1.34743e-05
1.46425e-05
1.58267e-05
1.69722e-05
1.80384e-05
1.90071e-05
1.98586e-05
2.05834e-05
2.11877e-05
2.16704e-05
2.20607e-05
1.00921e-05
1.00287e-05
9.59451e-06
8.78072e-06
7.60303e-06
6.00554e-06
4.39232e-06
5.01733e-06
6.2334e-06
8.01834e-06
7.38945e-06
9.2497e-06
1.17299e-05
1.39799e-05
1.60216e-05
1.79116e-05
1.96854e-05
2.13492e-05
2.28899e-05
2.42872e-05
2.5503e-05
2.64856e-05
2.71727e-05
2.75534e-05
2.78032e-05
)
;

boundaryField
{
    inlet
    {
        type            calculated;
        value           nonuniform List<scalar> 
25
(
1.01002e-05
1.00265e-05
9.57945e-06
8.73849e-06
7.48839e-06
5.70275e-06
3.81328e-06
5.2868e-06
7.03771e-06
7.02204e-06
1.01284e-05
1.39169e-05
1.81801e-05
2.23127e-05
2.62768e-05
3.0096e-05
3.37978e-05
3.73839e-05
4.08401e-05
4.41398e-05
4.724e-05
5.00703e-05
5.25525e-05
5.46054e-05
5.62548e-05
)
;
    }
    outlet
    {
        type            calculated;
        value           nonuniform List<scalar> 0();
    }
    walls
    {
        type            calculated;
        value           nonuniform List<scalar> 0();
    }
    frontAndBack
    {
        type            empty;
    }
    procBoundary4to0
    {
        type            processor;
        value           nonuniform List<scalar> 
72
(
0.000818727
0.000744375
0.000679407
0.000622274
0.000571769
0.000526878
0.000486758
0.000450735
0.000418252
0.000388846
0.000362118
0.000337747
0.000315452
0.000295006
0.000276203
0.000258869
0.000242852
0.000228029
0.000214292
0.00020153
0.00018965
0.000178573
0.000178573
0.000168196
0.00015846
0.00014936
0.000140845
0.000132868
0.00012539
0.000118373
0.000111781
0.000105584
9.97547e-05
9.42664e-05
8.90954e-05
8.42199e-05
7.96202e-05
7.52782e-05
7.11764e-05
6.72993e-05
6.36326e-05
6.01629e-05
5.68777e-05
5.37657e-05
5.0816e-05
4.80189e-05
4.53648e-05
4.28445e-05
4.04502e-05
3.81742e-05
3.6009e-05
3.39478e-05
3.19847e-05
3.01147e-05
2.8331e-05
2.66283e-05
2.5004e-05
2.34553e-05
2.20012e-05
2.07042e-05
1.96418e-05
1.86751e-05
1.76557e-05
1.66247e-05
1.55819e-05
1.45414e-05
1.35192e-05
1.25133e-05
1.15321e-05
1.06714e-05
1.01089e-05
9.86239e-06
)
;
    }
    procBoundary4to5
    {
        type            processor;
        value           nonuniform List<scalar> 
95
(
0.000868796
0.000831253
0.000793804
0.000700717
0.000700717
0.000671655
0.000600456
0.000600456
0.000577721
0.000523075
0.000523075
0.000476961
0.000476961
0.000437678
0.000414784
0.000414784
0.000383625
0.000383625
0.000356367
0.000339266
0.000339266
0.000316938
0.000302196
0.000302196
0.000283662
0.000270784
0.000270784
0.000255208
0.000243823
0.000232832
0.000232832
0.000220435
0.000210654
0.000201202
0.000201202
0.000191171
0.000182673
0.00017446
0.00017446
0.000166219
0.000158783
0.000151589
0.000151589
0.000144718
0.000138159
0.000131811
0.0001257
0.000119823
0.000119823
0.000114554
0.000109164
0.000103961
9.89697e-05
9.41816e-05
9.41816e-05
9.00263e-05
8.56318e-05
8.14124e-05
7.73779e-05
7.3524e-05
7.3524e-05
7.01832e-05
6.66623e-05
6.32984e-05
6.00966e-05
5.70508e-05
5.41569e-05
5.14099e-05
5.14099e-05
4.8965e-05
4.64802e-05
4.41228e-05
4.1886e-05
3.97559e-05
3.77202e-05
3.57797e-05
3.394e-05
3.394e-05
3.22325e-05
3.06033e-05
2.91023e-05
2.78173e-05
2.67274e-05
2.57077e-05
2.46609e-05
2.36276e-05
2.24897e-05
2.16414e-05
2.16414e-05
1.99824e-05
2.03263e-05
1.78663e-05
2.18416e-05
2.24412e-05
2.78112e-05
)
;
    }
}


// ************************************************************************* //
