/*--------------------------------*- C++ -*----------------------------------*\
| =========                 |                                                 |
| \\      /  F ield         | OpenFOAM: The Open Source CFD Toolbox           |
|  \\    /   O peration     | Version:  2306                                  |
|   \\  /    A nd           | Website:  www.openfoam.com                      |
|    \\/     M anipulation  |                                                 |
\*---------------------------------------------------------------------------*/
FoamFile
{
    version     2.0;
    format      ascii;
    arch        "LSB;label=32;scalar=64";
    class       volScalarField;
    location    "125";
    object      turbulenceProperties:k;
}
// * * * * * * * * * * * * * * * * * * * * * * * * * * * * * * * * * * * * * //

dimensions      [0 2 -2 0 0 0 0];

internalField   nonuniform List<scalar> 
1340
(
0.000480967
0.000484641
0.000487228
0.000408281
0.000411951
0.000414833
0.000416837
0.00041762
0.000348845
0.000352429
0.000355392
0.000357763
0.000359313
0.000359895
0.00035923
0.000299691
0.000303088
0.000306009
0.000308523
0.000310442
0.000311671
0.000312
0.000311331
0.000258704
0.000261876
0.000264676
0.00026721
0.000269342
0.000270948
0.000271874
0.000272012
0.000271344
0.000224259
0.000227186
0.00022982
0.000232298
0.000234504
0.00023631
0.00023761
0.000238303
0.000238329
0.000195117
0.000197798
0.000200247
0.000202628
0.000204823
0.000206721
0.000208232
0.000209281
0.000209792
0.000209714
0.000170314
0.00017275
0.000175022
0.000177273
0.000179402
0.000181313
0.000182935
0.000184182
0.000185017
0.000185356
0.000185166
0.000149091
0.000151299
0.000153396
0.000155499
0.000157538
0.000159406
0.000161054
0.000162416
0.000163451
0.000164089
0.00016429
0.000130841
0.000132846
0.000134769
0.000136729
0.000138648
0.000140448
0.000142073
0.000143478
0.000144625
0.000145459
0.000145925
0.000146023
0.000115086
0.000116905
0.000118666
0.000120477
0.000122274
0.000123976
0.00012555
0.000126953
0.000128151
0.000129099
0.000129757
0.000130105
0.000101435
0.000103083
0.000104694
0.00010636
0.000108026
0.000109622
0.000111125
0.000112494
0.000113702
0.000114712
0.00011549
0.000116006
0.000116246
8.9566e-05
9.10626e-05
9.25276e-05
9.40568e-05
9.55932e-05
9.7079e-05
9.84986e-05
9.9815e-05
0.000101004
0.000102033
0.000102876
0.000103511
0.000103909
7.92176e-05
8.05724e-05
8.19049e-05
8.33027e-05
8.47117e-05
8.60902e-05
8.74196e-05
8.86706e-05
8.98202e-05
9.08439e-05
9.17162e-05
9.24228e-05
9.29291e-05
9.32335e-05
7.01686e-05
7.13957e-05
7.26052e-05
7.38756e-05
7.51673e-05
7.64389e-05
7.76774e-05
7.88545e-05
7.9953e-05
8.0948e-05
8.18237e-05
8.25629e-05
8.31433e-05
8.35544e-05
6.22367e-05
6.33462e-05
6.4443e-05
6.55957e-05
6.67762e-05
6.79465e-05
6.90947e-05
7.01955e-05
7.12327e-05
7.21888e-05
7.30473e-05
7.37959e-05
7.44179e-05
7.48962e-05
5.52691e-05
5.62708e-05
5.72601e-05
5.83065e-05
5.93844e-05
6.04586e-05
6.15171e-05
6.25419e-05
6.35142e-05
6.44218e-05
6.52506e-05
6.59918e-05
6.663e-05
6.715e-05
6.75532e-05
4.91319e-05
5.00352e-05
5.09279e-05
5.18778e-05
5.28607e-05
5.3844e-05
5.48188e-05
5.57658e-05
5.66725e-05
5.7527e-05
5.83178e-05
5.90385e-05
5.96764e-05
6.02203e-05
6.06643e-05
4.37193e-05
4.45304e-05
4.53357e-05
4.61988e-05
4.70954e-05
4.79926e-05
4.88868e-05
4.97589e-05
5.06005e-05
5.1399e-05
5.21471e-05
5.28377e-05
5.34633e-05
5.40135e-05
5.44789e-05
3.89385e-05
3.96643e-05
4.03932e-05
4.11758e-05
4.19902e-05
4.28084e-05
4.36261e-05
4.44264e-05
4.52031e-05
4.59464e-05
4.66479e-05
4.73049e-05
4.79087e-05
4.84531e-05
4.89266e-05
4.93314e-05
3.47057e-05
3.53563e-05
3.60172e-05
3.67267e-05
3.74649e-05
3.82092e-05
3.89546e-05
3.96882e-05
4.04027e-05
4.10908e-05
4.17456e-05
4.23643e-05
4.294e-05
4.34687e-05
4.394e-05
4.43527e-05
3.09588e-05
3.15382e-05
3.21376e-05
3.27796e-05
3.34478e-05
3.41234e-05
3.48024e-05
3.54727e-05
3.61279e-05
3.67627e-05
3.73701e-05
3.79488e-05
3.84929e-05
3.89987e-05
3.94608e-05
3.98714e-05
2.71499e-05
2.76319e-05
2.81524e-05
2.86929e-05
2.92729e-05
2.98773e-05
3.04895e-05
3.11065e-05
3.17181e-05
3.23175e-05
3.29007e-05
3.34621e-05
3.40002e-05
3.45111e-05
3.4991e-05
3.54359e-05
3.58385e-05
3.62005e-05
2.42405e-05
2.46715e-05
2.51422e-05
2.56305e-05
2.61543e-05
2.67001e-05
2.72547e-05
2.78151e-05
2.83714e-05
2.89188e-05
2.94534e-05
2.99701e-05
3.04682e-05
3.09443e-05
3.13957e-05
3.18197e-05
3.22103e-05
3.25663e-05
2.16541e-05
2.20414e-05
2.24643e-05
2.29048e-05
2.33776e-05
2.38709e-05
2.43724e-05
2.48806e-05
2.53864e-05
2.58855e-05
2.63736e-05
2.68479e-05
2.73071e-05
2.77489e-05
2.81709e-05
2.85707e-05
2.89449e-05
2.9289e-05
1.93531e-05
1.97005e-05
2.00803e-05
2.04772e-05
2.09037e-05
2.13485e-05
2.18021e-05
2.22623e-05
2.27214e-05
2.31753e-05
2.36207e-05
2.40546e-05
2.44767e-05
2.48844e-05
2.52763e-05
2.56509e-05
2.6006e-05
2.6335e-05
2.66405e-05
1.73038e-05
1.76154e-05
1.79563e-05
1.83133e-05
1.86976e-05
1.90989e-05
1.95085e-05
1.9925e-05
2.03413e-05
2.07531e-05
2.11585e-05
2.15547e-05
2.1941e-05
2.2316e-05
2.26786e-05
2.30273e-05
2.33601e-05
2.36731e-05
2.39651e-05
1.54773e-05
1.57565e-05
1.60621e-05
1.6383e-05
1.6729e-05
1.70906e-05
1.74604e-05
1.78372e-05
1.82134e-05
1.85871e-05
1.89557e-05
1.93165e-05
1.96695e-05
2.0013e-05
2.03469e-05
2.06697e-05
2.09794e-05
2.12739e-05
2.15506e-05
1.38479e-05
1.4098e-05
1.43718e-05
1.46597e-05
1.49711e-05
1.52969e-05
1.56303e-05
1.59704e-05
1.63111e-05
1.66496e-05
1.6984e-05
1.73119e-05
1.76333e-05
1.79474e-05
1.82537e-05
1.85509e-05
1.88381e-05
1.91126e-05
1.93726e-05
1.23935e-05
1.26171e-05
1.28621e-05
1.31205e-05
1.34006e-05
1.36938e-05
1.39944e-05
1.43015e-05
1.46093e-05
1.49154e-05
1.52184e-05
1.5516e-05
1.58084e-05
1.60947e-05
1.63744e-05
1.66471e-05
1.69116e-05
1.71662e-05
1.74086e-05
1.10942e-05
1.12941e-05
1.15132e-05
1.17449e-05
1.19965e-05
1.22605e-05
1.25312e-05
1.28082e-05
1.30862e-05
1.3363e-05
1.36372e-05
1.3907e-05
1.41723e-05
1.44327e-05
1.46877e-05
1.49369e-05
1.51795e-05
1.54144e-05
1.56386e-05
1.58532e-05
9.93315e-06
1.01114e-05
1.03071e-05
1.0515e-05
1.07409e-05
1.09782e-05
1.1222e-05
1.14719e-05
1.17227e-05
1.19728e-05
1.22209e-05
1.24649e-05
1.27054e-05
1.29417e-05
1.31736e-05
1.34007e-05
1.36223e-05
1.38376e-05
1.40442e-05
1.42422e-05
8.89471e-06
9.05363e-06
9.22828e-06
9.41448e-06
9.61729e-06
9.83067e-06
1.00502e-05
1.02753e-05
1.05018e-05
1.07275e-05
1.09515e-05
1.11723e-05
1.139e-05
1.16042e-05
1.18146e-05
1.2021e-05
1.22228e-05
1.24191e-05
1.26088e-05
1.27902e-05
7.9656e-06
8.10701e-06
8.26277e-06
8.42955e-06
8.61164e-06
8.80331e-06
9.00097e-06
9.20393e-06
9.40801e-06
9.61184e-06
9.81432e-06
1.00138e-05
1.02106e-05
1.04044e-05
1.0595e-05
1.07822e-05
1.09654e-05
1.11441e-05
1.13169e-05
1.14826e-05
7.13379e-06
7.25956e-06
7.39846e-06
7.5476e-06
7.71106e-06
7.88338e-06
8.06123e-06
8.24409e-06
8.42833e-06
8.61225e-06
8.79499e-06
8.97521e-06
9.15303e-06
9.3282e-06
9.50059e-06
9.67e-06
9.83609e-06
9.99805e-06
1.01551e-05
1.03055e-05
6.3889e-06
6.50055e-06
6.62426e-06
6.75773e-06
6.90434e-06
7.05917e-06
7.21938e-06
7.38426e-06
7.55041e-06
7.71639e-06
7.88145e-06
8.04419e-06
8.20481e-06
8.36296e-06
8.51866e-06
8.67171e-06
8.82185e-06
8.96835e-06
9.11066e-06
9.24673e-06
9.37648e-06
5.72143e-06
5.82051e-06
5.93062e-06
6.04998e-06
6.18151e-06
6.32078e-06
6.46501e-06
6.61372e-06
6.76379e-06
6.91366e-06
7.06262e-06
7.20962e-06
7.35451e-06
7.49732e-06
7.6378e-06
7.77589e-06
7.91129e-06
8.04341e-06
8.17167e-06
8.29472e-06
8.41141e-06
5.1232e-06
5.21098e-06
5.30893e-06
5.41569e-06
5.53371e-06
5.65893e-06
5.78898e-06
5.9233e-06
6.05876e-06
6.19412e-06
6.32875e-06
6.46143e-06
6.59225e-06
6.72105e-06
6.84771e-06
6.97216e-06
7.0941e-06
7.21314e-06
7.32838e-06
7.43907e-06
7.54366e-06
4.58678e-06
4.66455e-06
4.75161e-06
4.84701e-06
4.95297e-06
5.06572e-06
5.18303e-06
5.30435e-06
5.42687e-06
5.54929e-06
5.67093e-06
5.79087e-06
5.90895e-06
6.02517e-06
6.13928e-06
6.25131e-06
6.361e-06
6.46787e-06
6.57139e-06
6.67056e-06
6.76408e-06
4.10578e-06
4.17449e-06
4.2518e-06
4.33711e-06
4.43227e-06
4.53383e-06
4.63986e-06
4.74961e-06
4.86049e-06
4.97135e-06
5.08148e-06
5.18985e-06
5.29654e-06
5.40131e-06
5.50414e-06
5.60495e-06
5.70348e-06
5.79936e-06
5.892e-06
5.98068e-06
6.06387e-06
3.67425e-06
3.73487e-06
3.80349e-06
3.87975e-06
3.96527e-06
4.05695e-06
4.15284e-06
4.25232e-06
4.35295e-06
4.45341e-06
4.55314e-06
4.65125e-06
4.74765e-06
4.84227e-06
4.93492e-06
5.02556e-06
5.11401e-06
5.19991e-06
5.28276e-06
5.36192e-06
5.43599e-06
5.50512e-06
3.28706e-06
3.34042e-06
3.40129e-06
3.4695e-06
3.54642e-06
3.62924e-06
3.71621e-06
3.80656e-06
3.89793e-06
3.98917e-06
4.07971e-06
4.16861e-06
4.25587e-06
4.34131e-06
4.42482e-06
4.50637e-06
4.58577e-06
4.66269e-06
4.73664e-06
4.80712e-06
4.87313e-06
4.9341e-06
2.93952e-06
2.98647e-06
3.04042e-06
3.10141e-06
3.17074e-06
3.24574e-06
3.32472e-06
3.4069e-06
3.49012e-06
3.57315e-06
3.65545e-06
3.73619e-06
3.81524e-06
3.89252e-06
3.96787e-06
4.04127e-06
4.11254e-06
4.18137e-06
4.24735e-06
4.31002e-06
4.36845e-06
4.4221e-06
2.62759e-06
2.66877e-06
2.71653e-06
2.77117e-06
2.83373e-06
2.90177e-06
2.97373e-06
3.0487e-06
3.1246e-06
3.20036e-06
3.27534e-06
3.34876e-06
3.42054e-06
3.49052e-06
3.55858e-06
3.62469e-06
3.68867e-06
3.75026e-06
3.8091e-06
3.86474e-06
3.91635e-06
3.96347e-06
2.34752e-06
2.38357e-06
2.42586e-06
2.47483e-06
2.53141e-06
2.59333e-06
2.65903e-06
2.7276e-06
2.79708e-06
2.86633e-06
2.93478e-06
3.00173e-06
3.06698e-06
3.13047e-06
3.19202e-06
3.25162e-06
3.30911e-06
3.36426e-06
3.41674e-06
3.46607e-06
3.51159e-06
3.55283e-06
2.09604e-06
2.12748e-06
2.16492e-06
2.20891e-06
2.2602e-06
2.31672e-06
2.37693e-06
2.43984e-06
2.50357e-06
2.56708e-06
2.62977e-06
2.6909e-06
2.75037e-06
2.80803e-06
2.8638e-06
2.91762e-06
2.96931e-06
3.01871e-06
3.06547e-06
3.10926e-06
3.14932e-06
3.18541e-06
1.87014e-06
1.89755e-06
1.93067e-06
1.97025e-06
2.01693e-06
2.0687e-06
2.12402e-06
2.18192e-06
2.24063e-06
2.29903e-06
2.35656e-06
2.41256e-06
2.46686e-06
2.51937e-06
2.56997e-06
2.6186e-06
2.66515e-06
2.70943e-06
2.75114e-06
2.78993e-06
2.82522e-06
2.85659e-06
1.66726e-06
1.69105e-06
1.72036e-06
1.7561e-06
1.79871e-06
1.84628e-06
1.89734e-06
1.95083e-06
2.00504e-06
2.05892e-06
2.11189e-06
2.16332e-06
2.21305e-06
2.26095e-06
2.30695e-06
2.351e-06
2.393e-06
2.43273e-06
2.46997e-06
2.50438e-06
2.5355e-06
2.56281e-06
2.58563e-06
1.485e-06
1.50559e-06
1.53153e-06
1.56391e-06
1.60296e-06
1.64686e-06
1.69416e-06
1.74374e-06
1.79402e-06
1.84388e-06
1.89281e-06
1.9402e-06
1.98585e-06
2.02967e-06
2.07159e-06
2.11158e-06
2.14954e-06
2.18529e-06
2.21859e-06
2.24915e-06
2.2765e-06
2.30045e-06
2.31989e-06
1.32126e-06
1.33899e-06
1.36199e-06
1.39146e-06
1.42738e-06
1.46806e-06
1.51208e-06
1.55821e-06
1.60497e-06
1.6513e-06
1.69666e-06
1.74047e-06
1.78251e-06
1.82269e-06
1.861e-06
1.89742e-06
1.93182e-06
1.96403e-06
1.99383e-06
2.02099e-06
2.04503e-06
2.06584e-06
2.08232e-06
1.17414e-06
1.18937e-06
1.20979e-06
1.23674e-06
1.26993e-06
1.3078e-06
1.3489e-06
1.39196e-06
1.43566e-06
1.47881e-06
1.52101e-06
1.56169e-06
1.60052e-06
1.63749e-06
1.6726e-06
1.70584e-06
1.73703e-06
1.76601e-06
1.79262e-06
1.81665e-06
1.83772e-06
1.8557e-06
1.86963e-06
1.04202e-06
1.055e-06
1.07317e-06
1.09797e-06
1.12874e-06
1.16416e-06
1.2027e-06
1.24302e-06
1.28398e-06
1.3243e-06
1.36373e-06
1.40165e-06
1.43764e-06
1.4717e-06
1.5039e-06
1.53418e-06
1.56234e-06
1.58827e-06
1.61187e-06
1.63298e-06
1.65132e-06
1.66678e-06
1.67843e-06
9.23386e-07
9.34409e-07
9.50635e-07
9.73549e-07
1.00221e-06
1.03551e-06
1.0717e-06
1.10959e-06
1.14815e-06
1.18583e-06
1.2229e-06
1.25848e-06
1.29178e-06
1.32302e-06
1.3524e-06
1.3798e-06
1.40504e-06
1.42807e-06
1.44885e-06
1.46733e-06
1.48321e-06
1.49643e-06
1.50608e-06
8.16848e-07
8.26166e-07
8.40724e-07
8.62043e-07
8.88821e-07
9.20283e-07
9.54294e-07
9.90056e-07
1.02639e-06
1.06162e-06
1.09692e-06
1.13043e-06
1.16091e-06
1.18918e-06
1.21577e-06
1.24045e-06
1.26299e-06
1.28342e-06
1.30179e-06
1.31799e-06
1.3318e-06
1.34311e-06
1.35102e-06
7.21178e-07
7.29059e-07
7.42175e-07
7.62106e-07
7.87225e-07
8.17095e-07
8.4894e-07
8.82938e-07
9.17117e-07
9.49902e-07
9.84032e-07
1.0156e-06
1.04298e-06
1.06826e-06
1.09238e-06
1.11481e-06
1.13517e-06
1.15356e-06
1.17001e-06
1.18443e-06
1.19654e-06
1.20613e-06
1.21239e-06
6.35408e-07
6.42023e-07
6.53928e-07
6.72655e-07
6.96335e-07
7.24781e-07
7.54422e-07
7.87159e-07
8.18733e-07
8.49125e-07
8.82769e-07
9.12103e-07
9.36165e-07
9.59027e-07
9.81519e-07
1.00239e-06
1.02117e-06
1.03807e-06
1.05314e-06
1.06617e-06
1.07673e-06
1.08489e-06
1.08977e-06
1.09174e-06
5.58679e-07
5.64174e-07
5.75083e-07
5.92791e-07
6.15236e-07
6.42347e-07
6.69832e-07
7.01897e-07
7.29242e-07
7.5858e-07
7.93538e-07
8.19502e-07
8.39284e-07
8.60643e-07
8.8262e-07
9.02461e-07
9.19905e-07
9.35555e-07
9.49405e-07
9.61113e-07
9.70422e-07
9.77269e-07
9.8104e-07
9.81922e-07
4.91202e-07
4.95661e-07
5.0572e-07
5.22412e-07
5.43564e-07
5.69061e-07
5.94368e-07
6.25692e-07
6.46351e-07
6.77197e-07
7.15588e-07
7.37218e-07
7.51425e-07
7.72363e-07
7.95195e-07
8.14541e-07
8.3081e-07
8.45305e-07
8.58025e-07
8.68538e-07
8.76594e-07
8.82289e-07
8.85181e-07
8.85542e-07
4.34816e-07
4.38459e-07
4.47715e-07
4.63044e-07
4.82531e-07
5.05371e-07
5.27787e-07
5.56152e-07
5.68815e-07
6.0122e-07
6.41781e-07
6.60004e-07
6.71472e-07
6.94291e-07
7.19395e-07
7.39443e-07
7.55586e-07
7.69793e-07
7.82168e-07
7.92214e-07
7.99843e-07
8.0499e-07
8.07454e-07
8.07433e-07
3.91221e-07
3.94086e-07
4.021e-07
4.15379e-07
4.32271e-07
4.51022e-07
4.69578e-07
4.91706e-07
4.98649e-07
5.26551e-07
5.66364e-07
5.83851e-07
5.97693e-07
6.23309e-07
6.50807e-07
6.72793e-07
6.90399e-07
7.05693e-07
7.18924e-07
7.29646e-07
7.37737e-07
7.42912e-07
7.45204e-07
7.44726e-07
3.53535e-07
3.55693e-07
3.62337e-07
3.73442e-07
3.87499e-07
4.02131e-07
4.16934e-07
4.32557e-07
4.35851e-07
4.56414e-07
4.93148e-07
5.10815e-07
5.29057e-07
5.56692e-07
5.85634e-07
6.09644e-07
6.2922e-07
6.4603e-07
6.60448e-07
6.72122e-07
6.80774e-07
6.86267e-07
6.88502e-07
6.87918e-07
3.15874e-07
3.17505e-07
3.2305e-07
3.32347e-07
3.43936e-07
3.55179e-07
3.6698e-07
3.77065e-07
3.78129e-07
3.92616e-07
4.26373e-07
4.43677e-07
4.66313e-07
4.95437e-07
5.24912e-07
5.50101e-07
5.71078e-07
5.88914e-07
6.04023e-07
6.16248e-07
6.25207e-07
6.30851e-07
6.32986e-07
6.32223e-07
2.7999e-07
2.81243e-07
2.85825e-07
2.93512e-07
3.028e-07
3.11151e-07
3.20212e-07
3.2551e-07
3.25062e-07
3.34271e-07
3.65193e-07
3.8153e-07
4.08188e-07
4.38695e-07
4.68217e-07
4.93952e-07
5.15874e-07
5.34462e-07
5.50047e-07
5.6254e-07
5.71614e-07
5.77253e-07
5.79509e-07
5.7898e-07
2.45981e-07
2.46974e-07
2.50699e-07
2.56885e-07
2.63962e-07
2.6989e-07
2.76303e-07
2.77632e-07
2.76123e-07
2.80752e-07
3.09014e-07
3.24261e-07
3.54309e-07
3.86011e-07
4.15424e-07
4.41344e-07
4.63919e-07
4.83113e-07
4.99032e-07
5.11609e-07
5.20537e-07
5.2569e-07
5.27075e-07
5.25257e-07
2.14389e-07
2.15216e-07
2.18051e-07
2.22642e-07
2.2746e-07
2.31229e-07
2.34872e-07
2.3327e-07
2.30915e-07
2.31637e-07
2.57183e-07
2.71646e-07
3.04323e-07
3.37111e-07
3.66465e-07
3.92457e-07
4.15467e-07
4.35121e-07
4.51344e-07
4.64149e-07
4.73487e-07
4.7954e-07
4.82552e-07
4.83078e-07
1.85609e-07
1.86351e-07
1.88251e-07
1.9101e-07
1.93359e-07
1.94861e-07
1.95375e-07
1.92011e-07
1.88556e-07
1.86555e-07
2.0952e-07
2.23758e-07
2.58229e-07
2.9203e-07
3.21581e-07
3.47748e-07
3.7116e-07
3.91094e-07
4.0701e-07
4.18714e-07
4.26098e-07
4.29034e-07
4.2748e-07
4.2236e-07
4.16138e-07
1.59554e-07
1.60306e-07
1.61303e-07
1.62127e-07
1.6189e-07
1.60754e-07
1.57683e-07
1.53514e-07
1.47778e-07
1.45502e-07
1.66497e-07
1.8084e-07
2.16295e-07
2.51097e-07
2.80879e-07
3.07134e-07
3.31255e-07
3.52672e-07
3.70726e-07
3.85357e-07
3.96788e-07
4.05725e-07
4.12928e-07
4.18517e-07
4.22214e-07
1.36434e-07
1.37165e-07
1.36971e-07
1.35509e-07
1.32535e-07
1.28552e-07
1.22382e-07
1.18347e-07
1.0904e-07
1.11596e-07
1.29706e-07
1.43238e-07
1.78957e-07
2.1479e-07
2.44815e-07
2.70571e-07
2.93588e-07
3.13195e-07
3.28598e-07
3.39402e-07
3.45105e-07
3.45378e-07
3.40568e-07
3.33389e-07
3.28336e-07
1.18264e-07
1.18503e-07
1.15837e-07
1.10493e-07
1.03566e-07
9.62446e-08
8.86766e-08
8.65483e-08
7.61911e-08
9.10472e-08
1.01817e-07
1.1208e-07
1.46054e-07
1.82014e-07
2.14128e-07
2.44769e-07
2.75097e-07
3.04065e-07
3.30909e-07
3.5602e-07
3.80646e-07
4.06603e-07
4.34164e-07
4.59458e-07
4.77512e-07
1.07707e-07
1.07058e-07
1.00817e-07
8.97832e-08
7.6331e-08
6.29263e-08
5.34931e-08
5.43449e-08
5.10835e-08
7.94736e-08
8.38901e-08
9.26183e-08
1.21713e-07
1.53637e-07
1.84501e-07
2.17977e-07
2.54775e-07
2.93114e-07
3.3123e-07
3.67896e-07
4.01718e-07
4.31661e-07
4.57415e-07
4.78494e-07
4.95894e-07
1.03311e-07
1.02022e-07
9.33821e-08
7.82139e-08
5.86395e-08
3.65848e-08
1.95683e-08
2.55311e-08
3.94023e-08
6.52017e-08
5.53533e-08
8.67478e-08
1.39565e-07
1.98333e-07
2.6062e-07
3.25899e-07
3.93849e-07
4.63496e-07
5.33125e-07
6.00592e-07
6.62713e-07
7.15338e-07
7.53568e-07
7.7539e-07
7.89858e-07
)
;

boundaryField
{
    inlet
    {
        type            calculated;
        value           nonuniform List<scalar> 
25
(
1.03469e-07
1.01964e-07
9.30736e-08
7.74494e-08
5.68751e-08
3.29848e-08
1.47483e-08
2.83486e-08
5.02352e-08
5.00116e-08
1.04015e-07
1.96403e-07
3.35243e-07
5.05111e-07
7.00715e-07
9.19473e-07
1.15991e-06
1.41955e-06
1.69472e-06
1.98035e-06
2.26922e-06
2.5504e-06
2.81084e-06
3.03592e-06
3.22286e-06
)
;
    }
    outlet
    {
        type            calculated;
        value           nonuniform List<scalar> 0();
    }
    walls
    {
        type            calculated;
        value           nonuniform List<scalar> 0();
    }
    frontAndBack
    {
        type            empty;
    }
    procBoundary4to0
    {
        type            processor;
        value           nonuniform List<scalar> 
72
(
0.000476776
0.000404266
0.000345072
0.000296204
0.000255522
0.000221382
0.000192521
0.000167974
0.000146986
0.000128956
0.000113396
9.99175e-05
8.82014e-05
7.79891e-05
6.90615e-05
6.12376e-05
5.43642e-05
4.83171e-05
4.29892e-05
3.82834e-05
3.41187e-05
3.04278e-05
3.04278e-05
2.66891e-05
2.38278e-05
2.12848e-05
1.90222e-05
1.70074e-05
1.5212e-05
1.36109e-05
1.21818e-05
1.09055e-05
9.76499e-06
8.74528e-06
7.83298e-06
7.01637e-06
6.28511e-06
5.63003e-06
5.04287e-06
4.51643e-06
4.04426e-06
3.62064e-06
3.24046e-06
2.89921e-06
2.59282e-06
2.31769e-06
2.07056e-06
1.84853e-06
1.64904e-06
1.46977e-06
1.30866e-06
1.16385e-06
1.03371e-06
9.16846e-07
8.11829e-07
7.17483e-07
6.32862e-07
5.57087e-07
4.90309e-07
4.34305e-07
3.9095e-07
3.5348e-07
3.15998e-07
2.80216e-07
2.46203e-07
2.14447e-07
1.85378e-07
1.58832e-07
1.34908e-07
1.15524e-07
1.03662e-07
9.86569e-08
)
;
    }
    procBoundary4to5
    {
        type            processor;
        value           nonuniform List<scalar> 
95
(
0.000570773
0.00057405
0.000575691
0.000488448
0.000488448
0.000488091
0.000417045
0.000417045
0.000414975
0.000357259
0.000357259
0.00030944
0.00030944
0.000269532
0.000237566
0.000237566
0.000208846
0.000208846
0.000184253
0.000163986
0.000163986
0.000145584
0.000130081
0.000130081
0.000116089
0.000104038
0.000104038
9.32463e-05
8.37521e-05
7.5214e-05
7.5214e-05
6.77756e-05
6.09815e-05
5.48497e-05
5.48497e-05
4.96219e-05
4.46877e-05
4.02255e-05
4.02255e-05
3.64939e-05
3.28777e-05
2.96001e-05
2.96001e-05
2.69022e-05
2.42295e-05
2.18046e-05
1.96146e-05
1.76381e-05
1.76381e-05
1.60478e-05
1.44282e-05
1.29611e-05
1.16396e-05
1.0449e-05
1.0449e-05
9.49544e-06
8.52064e-06
7.64143e-06
6.8514e-06
6.14198e-06
6.14198e-06
5.56561e-06
4.98811e-06
4.46922e-06
4.0045e-06
3.58839e-06
3.21612e-06
2.88323e-06
2.88323e-06
2.60337e-06
2.33481e-06
2.09455e-06
1.87951e-06
1.68632e-06
1.51217e-06
1.35559e-06
1.21551e-06
1.21551e-06
1.09259e-06
9.81823e-07
8.85198e-07
8.06791e-07
7.4335e-07
6.8634e-07
6.30303e-07
5.77406e-07
5.2206e-07
4.82452e-07
4.82452e-07
4.1046e-07
4.23993e-07
3.26773e-07
4.88036e-07
5.13191e-07
7.90487e-07
)
;
    }
}


// ************************************************************************* //
