/*--------------------------------*- C++ -*----------------------------------*\
| =========                 |                                                 |
| \\      /  F ield         | OpenFOAM: The Open Source CFD Toolbox           |
|  \\    /   O peration     | Version:  2306                                  |
|   \\  /    A nd           | Website:  www.openfoam.com                      |
|    \\/     M anipulation  |                                                 |
\*---------------------------------------------------------------------------*/
FoamFile
{
    version     2.0;
    format      ascii;
    arch        "LSB;label=32;scalar=64";
    class       volSymmTensorField;
    location    "125";
    object      turbulenceProperties:devReff;
}
// * * * * * * * * * * * * * * * * * * * * * * * * * * * * * * * * * * * * * //

dimensions      [0 2 -2 0 0 0 0];

internalField   nonuniform List<symmTensor> 
1340
(
(7.28528e-05 -8.04822e-05 3.9373e-21 -7.28999e-05 -2.36965e-22 4.70122e-08)
(5.82912e-05 -9.25752e-05 5.39574e-20 -5.82923e-05 3.98788e-20 1.07429e-09)
(4.12176e-05 -0.000101961 -2.39014e-20 -4.12243e-05 -1.43519e-20 6.67215e-09)
(6.12085e-05 -6.88914e-05 1.57632e-20 -6.12484e-05 1.08073e-20 3.99353e-08)
(4.89691e-05 -7.90501e-05 -1.2652e-20 -4.89827e-05 -7.53548e-21 1.36082e-08)
(3.46279e-05 -8.69985e-05 -3.6087e-20 -3.46417e-05 -2.38128e-20 1.38384e-08)
(1.91339e-05 -9.21205e-05 2.29589e-19 -1.91533e-05 1.55266e-19 1.94263e-08)
(2.36755e-06 -9.42325e-05 -5.28232e-20 -2.38242e-06 -3.52448e-20 1.48634e-08)
(5.17067e-05 -5.93886e-05 6.37271e-21 -5.1732e-05 4.90231e-21 2.53538e-08)
(4.13216e-05 -6.79824e-05 -2.68582e-20 -4.13298e-05 -1.43164e-20 8.19914e-09)
(2.91588e-05 -7.47353e-05 -1.15497e-19 -2.9166e-05 -7.13183e-20 7.14473e-09)
(1.60514e-05 -7.91445e-05 -1.32901e-20 -1.60582e-05 -1.05794e-20 6.84924e-09)
(1.85525e-06 -8.10829e-05 -1.56709e-20 -1.85514e-06 -7.2283e-21 -1.08855e-10)
(-1.25157e-05 -8.02641e-05 1.49267e-19 1.251e-05 8.92077e-20 5.62433e-09)
(-2.62918e-05 -7.6704e-05 2.57747e-20 2.62712e-05 2.24381e-20 2.05408e-08)
(4.38735e-05 -5.14955e-05 -1.46158e-20 -4.38912e-05 -6.20509e-21 1.76941e-08)
(3.4982e-05 -5.87993e-05 -8.79066e-20 -3.49905e-05 -5.13846e-20 8.43379e-09)
(2.45894e-05 -6.45521e-05 3.61009e-20 -2.45953e-05 2.07867e-20 5.95953e-09)
(1.3418e-05 -6.83381e-05 2.57937e-20 -1.34242e-05 1.43918e-20 6.11924e-09)
(1.30951e-06 -7.00628e-05 1.07201e-19 -1.31267e-06 6.1776e-20 3.16148e-09)
(-1.09667e-05 -6.94916e-05 -1.54743e-19 1.09588e-05 -9.61582e-20 7.95742e-09)
(-2.27899e-05 -6.66369e-05 1.95042e-19 2.27768e-05 9.57102e-20 1.31886e-08)
(-3.38482e-05 -6.1585e-05 -5.0132e-19 3.38389e-05 -2.66406e-19 9.37448e-09)
(3.73745e-05 -4.48758e-05 2.5469e-20 -3.73871e-05 1.35065e-20 1.25417e-08)
(2.97063e-05 -5.11111e-05 2.35989e-20 -2.97131e-05 1.30013e-20 6.80612e-09)
(2.07637e-05 -5.60244e-05 6.90569e-21 -2.07684e-05 5.8787e-21 4.67377e-09)
(1.11759e-05 -5.92752e-05 -1.27032e-20 -1.11786e-05 -7.97026e-21 2.6886e-09)
(7.8622e-07 -6.07947e-05 9.3945e-20 -7.86121e-07 4.78876e-20 -9.93619e-11)
(-9.75618e-06 -6.03783e-05 -7.74202e-20 9.75131e-06 -4.21634e-20 4.86933e-09)
(-1.99408e-05 -5.80408e-05 -2.56772e-19 1.9931e-05 -1.38992e-19 9.84469e-09)
(-2.95134e-05 -5.38416e-05 2.7317e-19 2.95093e-05 1.72609e-19 4.0331e-09)
(-3.80405e-05 -4.80053e-05 9.25202e-20 3.80305e-05 5.40383e-20 1.00309e-08)
(3.19439e-05 -3.92765e-05 -4.89021e-21 -3.19539e-05 -8.67325e-22 9.94089e-09)
(2.52903e-05 -4.46182e-05 -1.1769e-20 -2.52959e-05 -5.33782e-21 5.63541e-09)
(1.75483e-05 -4.88234e-05 -4.99467e-20 -1.75533e-05 -2.4484e-20 4.94153e-09)
(9.26928e-06 -5.16145e-05 2.3928e-20 -9.27071e-06 9.55781e-21 1.43782e-09)
(3.07397e-07 -5.29366e-05 -7.63085e-20 -3.07106e-07 -4.10836e-20 -2.90676e-10)
(-8.79171e-06 -5.26151e-05 1.73194e-19 8.78658e-06 9.144e-20 5.12601e-09)
(-1.75946e-05 -5.06701e-05 -6.03801e-21 1.75866e-05 1.47121e-20 8.04903e-09)
(-2.58996e-05 -4.71471e-05 9.05251e-20 2.58972e-05 2.01605e-20 2.36557e-09)
(-3.33402e-05 -4.22236e-05 7.21797e-20 3.33314e-05 1.90028e-20 8.88397e-09)
(2.73819e-05 -3.45052e-05 -5.28113e-20 -2.73882e-05 -2.70051e-20 6.23195e-09)
(2.15787e-05 -3.90939e-05 8.10351e-20 -2.15841e-05 3.89425e-20 5.45373e-09)
(1.48385e-05 -4.27019e-05 -5.95447e-20 -1.48429e-05 -2.7705e-20 4.3676e-09)
(7.65586e-06 -4.50987e-05 3.36924e-20 -7.65475e-06 1.25446e-20 -1.11107e-09)
(-1.10794e-07 -4.62386e-05 -1.97279e-19 1.10636e-07 -9.24593e-20 1.57265e-10)
(-7.99757e-06 -4.59762e-05 1.04249e-19 7.99488e-06 4.58246e-20 2.68482e-09)
(-1.56354e-05 -4.4331e-05 2.69535e-19 1.56306e-05 1.20781e-19 4.81229e-09)
(-2.28611e-05 -4.13432e-05 -3.79201e-19 2.28592e-05 -1.83788e-19 1.84894e-09)
(-2.93684e-05 -3.71524e-05 -1.88615e-19 2.93641e-05 -8.02598e-20 4.34769e-09)
(-3.4972e-05 -3.1907e-05 1.55901e-19 3.49668e-05 6.14882e-20 5.20227e-09)
(2.35294e-05 -3.04122e-05 2.71735e-20 -2.35332e-05 1.1698e-20 3.75901e-09)
(1.84432e-05 -3.43637e-05 1.32102e-20 -1.84493e-05 7.41014e-21 6.1107e-09)
(1.25493e-05 -3.74675e-05 4.08203e-20 -1.25521e-05 1.88288e-20 2.86636e-09)
(6.29074e-06 -3.95238e-05 -1.15433e-19 -6.29035e-06 -5.31992e-20 -3.87337e-10)
(-4.70625e-07 -4.04984e-05 2.18579e-19 4.70914e-07 1.01084e-19 -2.8841e-10)
(-7.33391e-06 -4.02698e-05 -4.03969e-19 7.33157e-06 -1.82193e-19 2.33997e-09)
(-1.39793e-05 -3.88599e-05 -1.7169e-19 1.39757e-05 -7.65462e-20 3.59065e-09)
(-2.02804e-05 -3.6297e-05 2.17319e-19 2.02792e-05 1.1663e-19 1.20099e-09)
(-2.59802e-05 -3.27036e-05 1.12267e-19 2.59762e-05 5.23414e-20 4.08711e-09)
(-3.0912e-05 -2.82007e-05 -1.02973e-19 3.09082e-05 -5.83786e-20 3.73797e-09)
(-3.49632e-05 -2.29065e-05 -2.91046e-20 3.49608e-05 -1.14168e-20 2.38802e-09)
(2.02641e-05 -2.68782e-05 -2.83844e-20 -2.02666e-05 -1.11459e-20 2.52113e-09)
(1.57866e-05 -3.02914e-05 -2.12784e-20 -1.5792e-05 -1.08191e-20 5.45292e-09)
(1.06146e-05 -3.29652e-05 6.94058e-20 -1.0617e-05 3.00007e-20 2.44834e-09)
(5.13765e-06 -3.47286e-05 1.69838e-20 -5.1366e-06 8.04583e-21 -1.0531e-09)
(-7.69957e-07 -3.55579e-05 9.59903e-20 7.69985e-07 4.1722e-20 -2.8566e-11)
(-6.76197e-06 -3.53466e-05 5.78968e-19 6.76005e-06 2.62069e-19 1.91892e-09)
(-1.25637e-05 -3.41198e-05 1.00934e-19 1.25604e-05 4.43318e-20 3.32339e-09)
(-1.80702e-05 -3.19037e-05 9.55031e-20 1.80698e-05 2.83929e-20 4.2905e-10)
(-2.30639e-05 -2.88033e-05 -7.79129e-20 2.30614e-05 -3.42697e-20 2.49993e-09)
(-2.74127e-05 -2.49142e-05 -6.79896e-20 2.74101e-05 -2.4007e-20 2.58146e-09)
(-3.10124e-05 -2.03403e-05 -5.88314e-20 3.10098e-05 -2.23039e-20 2.60933e-09)
(1.74831e-05 -2.38127e-05 2.323e-20 -1.74854e-05 8.04397e-21 2.20968e-09)
(1.35286e-05 -2.67688e-05 7.43666e-20 -1.35327e-05 3.05674e-20 4.08168e-09)
(8.97427e-06 -2.90737e-05 7.73983e-20 -8.9772e-06 3.33011e-20 2.9277e-09)
(4.16531e-06 -3.05877e-05 -1.15698e-19 -4.16369e-06 -4.92778e-20 -1.6165e-09)
(-1.01325e-06 -3.12861e-05 -1.93662e-19 1.01338e-06 -8.49926e-20 -1.23739e-10)
(-6.26073e-06 -3.10842e-05 -1.31268e-19 6.25964e-06 -6.6741e-20 1.09677e-09)
(-1.13392e-05 -3.00041e-05 -1.32415e-19 1.13368e-05 -5.34986e-20 2.38778e-09)
(-1.61631e-05 -2.80708e-05 -7.83933e-20 1.6163e-05 -3.84437e-20 1.25556e-10)
(-2.05461e-05 -2.53753e-05 1.26399e-19 2.05441e-05 5.5497e-20 1.95417e-09)
(-2.43779e-05 -2.20016e-05 -5.48909e-21 2.4376e-05 -2.55494e-21 1.85501e-09)
(-2.75717e-05 -1.80286e-05 2.47558e-20 2.75698e-05 1.15453e-20 1.93414e-09)
(-3.00384e-05 -1.35779e-05 -6.5571e-20 3.00359e-05 -2.85069e-20 2.4386e-09)
(1.51067e-05 -2.11427e-05 -9.04039e-21 -1.51079e-05 -2.19439e-21 1.18071e-09)
(1.16046e-05 -2.37066e-05 -7.13211e-20 -1.16092e-05 -2.82076e-20 4.62588e-09)
(7.58183e-06 -2.56973e-05 -8.14269e-20 -7.58412e-06 -3.3712e-20 2.29495e-09)
(3.34613e-06 -2.69948e-05 -1.55611e-20 -3.34456e-06 -4.55177e-21 -1.56845e-09)
(-1.20717e-06 -2.75801e-05 6.2486e-20 1.20731e-06 2.52905e-20 -1.37056e-10)
(-5.8155e-06 -2.73797e-05 -4.83106e-20 5.81408e-06 -1.86017e-20 1.41515e-09)
(-1.02726e-05 -2.64188e-05 2.265e-19 1.02711e-05 9.34585e-20 1.48252e-09)
(-1.45049e-05 -2.47205e-05 -1.71872e-19 1.45049e-05 -6.68285e-20 7.84382e-11)
(-1.83552e-05 -2.23643e-05 -2.42023e-20 1.83536e-05 -1.48515e-20 1.54177e-09)
(-2.17312e-05 -1.94221e-05 -6.23636e-20 2.17302e-05 -1.15029e-20 1.00434e-09)
(-2.4564e-05 -1.59595e-05 6.47937e-20 2.4564e-05 5.30525e-21 -5.32988e-11)
(-2.67721e-05 -1.20807e-05 -1.16405e-19 2.67712e-05 -2.58105e-20 9.09989e-10)
(1.30716e-05 -1.88073e-05 -4.40688e-20 -1.30722e-05 -1.67857e-20 6.42165e-10)
(9.96154e-06 -2.1035e-05 3.8673e-20 -9.96538e-06 1.39511e-20 3.84228e-09)
(6.39864e-06 -2.27559e-05 -1.2768e-20 -6.40106e-06 -4.5812e-21 2.42053e-09)
(2.65745e-06 -2.38673e-05 -2.89867e-20 -2.6558e-06 -9.6228e-21 -1.64992e-09)
(-1.35662e-06 -2.43526e-05 -9.70506e-20 1.35645e-06 -3.84478e-20 1.74735e-10)
(-5.41425e-06 -2.4151e-05 -7.64517e-20 5.41309e-06 -2.74162e-20 1.15207e-09)
(-9.33362e-06 -2.32891e-05 9.89145e-20 9.33216e-06 3.68255e-20 1.45755e-09)
(-1.30545e-05 -2.17865e-05 5.12112e-20 1.30541e-05 2.39961e-20 3.85286e-10)
(-1.64418e-05 -1.97146e-05 -8.13075e-20 1.64402e-05 -2.90614e-20 1.63743e-09)
(-1.94181e-05 -1.71367e-05 2.79323e-19 1.94169e-05 1.01754e-19 1.21009e-09)
(-2.19271e-05 -1.41077e-05 -3.51537e-19 2.19268e-05 -1.26314e-19 3.82752e-10)
(-2.38994e-05 -1.07106e-05 3.58238e-19 2.38985e-05 1.25291e-19 9.20743e-10)
(-2.52863e-05 -7.02214e-06 -3.0663e-19 2.52853e-05 -7.34485e-20 1.0484e-09)
(1.13229e-05 -1.67576e-05 -2.65599e-21 -1.13229e-05 -9.74993e-22 5.1245e-11)
(8.55527e-06 -1.86967e-05 -5.45372e-20 -8.55889e-06 -1.9359e-20 3.62394e-09)
(5.3924e-06 -2.01841e-05 1.04503e-20 -5.39461e-06 3.90044e-21 2.20428e-09)
(2.08019e-06 -2.11353e-05 4.2286e-20 -2.07815e-06 1.64355e-20 -2.04393e-09)
(-1.46736e-06 -2.1534e-05 3.72064e-20 1.46706e-06 1.503e-20 3.02502e-10)
(-5.04794e-06 -2.133e-05 1.25884e-19 5.04697e-06 4.96178e-20 9.64706e-10)
(-8.50048e-06 -2.05509e-05 1.94349e-19 8.49955e-06 6.4647e-20 9.31733e-10)
(-1.17764e-05 -1.92145e-05 8.67342e-20 1.17766e-05 2.57851e-20 -2.08205e-10)
(-1.47592e-05 -1.73845e-05 -1.08747e-19 1.47582e-05 -3.01035e-20 1.02616e-09)
(-1.73838e-05 -1.51157e-05 -6.36059e-21 1.7383e-05 -1.44154e-20 8.4675e-10)
(-1.96042e-05 -1.24555e-05 1.84527e-20 1.96038e-05 3.33362e-20 3.86833e-10)
(-2.13622e-05 -9.47509e-06 -8.99105e-20 2.1362e-05 -5.2237e-20 2.20113e-10)
(-2.2615e-05 -6.23623e-06 3.10136e-19 2.26136e-05 1.19366e-19 1.44722e-09)
(9.81788e-06 -1.49531e-05 1.20377e-20 -9.81753e-06 5.04534e-21 -3.47343e-10)
(7.34959e-06 -1.66423e-05 -9.16377e-20 -7.35295e-06 -3.13837e-20 3.36606e-09)
(4.53448e-06 -1.79294e-05 9.1912e-20 -4.5366e-06 3.20696e-20 2.1243e-09)
(1.59643e-06 -1.87418e-05 -5.27264e-20 -1.59476e-06 -1.85854e-20 -1.66827e-09)
(-1.54561e-06 -1.9065e-05 -5.01159e-20 1.54525e-06 -1.82623e-20 3.61418e-10)
(-4.71085e-06 -1.88592e-05 1.36788e-19 4.71015e-06 4.58478e-20 6.97994e-10)
(-7.75836e-06 -1.815e-05 -1.80878e-19 7.7572e-06 -7.39468e-20 1.15757e-09)
(-1.06466e-05 -1.69551e-05 -5.47322e-20 1.06466e-05 -1.8425e-20 -1.12863e-11)
(-1.32752e-05 -1.53315e-05 2.81243e-19 1.32744e-05 9.13198e-20 7.71419e-10)
(-1.55902e-05 -1.33282e-05 -1.07645e-19 1.55898e-05 -3.83163e-20 3.83179e-10)
(-1.75536e-05 -1.09844e-05 3.69748e-19 1.75539e-05 1.06468e-19 -2.69401e-10)
(-1.9118e-05 -8.36153e-06 -1.98017e-19 1.91177e-05 -5.72214e-20 2.34358e-10)
(-2.02441e-05 -5.50947e-06 2.78481e-20 2.02439e-05 -2.93875e-20 1.74003e-10)
(-2.09014e-05 -2.48573e-06 4.48339e-20 2.09011e-05 1.23235e-20 3.39042e-10)
(8.51924e-06 -1.336e-05 3.77993e-20 -8.51899e-06 1.30183e-20 -2.5243e-10)
(6.3143e-06 -1.48332e-05 -5.11647e-20 -6.31754e-06 -1.64724e-20 3.23887e-09)
(3.80436e-06 -1.5947e-05 -1.24843e-20 -3.80592e-06 -4.74714e-21 1.56154e-09)
(1.19257e-06 -1.66387e-05 -8.61278e-20 -1.19137e-06 -2.96655e-20 -1.19727e-09)
(-1.59554e-06 -1.68977e-05 -1.31278e-19 1.59524e-06 -4.23743e-20 3.00063e-10)
(-4.3982e-06 -1.66902e-05 1.24521e-19 4.39722e-06 3.5797e-20 9.82491e-10)
(-7.0915e-06 -1.60419e-05 -2.1935e-19 7.09073e-06 -6.99075e-20 7.76257e-10)
(-9.6413e-06 -1.49686e-05 -1.03369e-19 9.64104e-06 -3.45941e-20 2.59934e-10)
(-1.19607e-05 -1.35221e-05 -2.87207e-19 1.19597e-05 -9.74727e-20 9.81562e-10)
(-1.40034e-05 -1.17457e-05 -7.79609e-20 1.40026e-05 -2.93827e-20 8.14012e-10)
(-1.57388e-05 -9.67437e-06 -3.75576e-19 1.57386e-05 -1.36156e-19 2.46055e-10)
(-1.71263e-05 -7.36073e-06 9.79838e-20 1.71258e-05 4.63467e-20 4.23314e-10)
(-1.81354e-05 -4.84543e-06 -5.15737e-19 1.81354e-05 -1.38377e-19 4.78353e-11)
(-1.87379e-05 -2.1776e-06 9.00946e-20 1.87378e-05 4.54415e-20 4.069e-11)
(7.39707e-06 -1.19502e-05 -2.75414e-20 -7.39679e-06 -8.72071e-21 -2.79276e-10)
(5.42368e-06 -1.32358e-05 5.61958e-20 -5.42645e-06 1.87446e-20 2.76873e-09)
(3.18258e-06 -1.41996e-05 1.01834e-20 -3.18398e-06 3.22567e-21 1.39562e-09)
(8.56594e-07 -1.47874e-05 -1.81426e-19 -8.5539e-07 -5.73123e-20 -1.20389e-09)
(-1.62089e-06 -1.49912e-05 2.04492e-19 1.62073e-06 6.70285e-20 1.5982e-10)
(-4.10609e-06 -1.4783e-05 -2.8454e-19 4.10544e-06 -9.60607e-20 6.52386e-10)
(-6.49003e-06 -1.4188e-05 2.45228e-19 6.48919e-06 8.37467e-20 8.32429e-10)
(-8.74347e-06 -1.32203e-05 -4.12557e-20 8.74351e-06 -9.81079e-21 -3.61837e-11)
(-1.07908e-05 -1.19274e-05 2.19341e-19 1.07901e-05 7.64662e-20 7.89079e-10)
(-1.25936e-05 -1.03481e-05 -1.64596e-19 1.25933e-05 -5.29054e-20 3.64373e-10)
(-1.4127e-05 -8.51212e-06 -1.38855e-19 1.41269e-05 -1.59058e-20 9.46092e-11)
(-1.53572e-05 -6.46431e-06 2.39642e-19 1.53565e-05 7.65817e-20 6.06358e-10)
(-1.62581e-05 -4.24135e-06 4.18676e-19 1.62577e-05 1.4221e-19 4.20193e-10)
(-1.68048e-05 -1.88377e-06 2.86618e-19 1.6804e-05 6.87614e-20 8.13294e-10)
(6.42575e-06 -1.07e-05 2.75614e-20 -6.4252e-06 8.39913e-21 -5.51742e-10)
(4.65678e-06 -1.18225e-05 -2.75186e-20 -4.6593e-06 -7.79123e-21 2.525e-09)
(2.65256e-06 -1.26552e-05 1.72425e-20 -2.65392e-06 5.61418e-21 1.36462e-09)
(5.77726e-07 -1.31538e-05 1.36985e-20 -5.76572e-07 6.42158e-21 -1.1532e-09)
(-1.62654e-06 -1.33107e-05 -1.38586e-19 1.62618e-06 -4.54322e-20 3.6815e-10)
(-3.83285e-06 -1.31032e-05 -1.56392e-19 3.83207e-06 -4.50171e-20 7.81212e-10)
(-5.94541e-06 -1.25545e-05 -1.15107e-19 5.94474e-06 -3.70068e-20 6.70003e-10)
(-7.93881e-06 -1.16796e-05 -3.44388e-20 7.93863e-06 -4.82845e-21 1.82478e-10)
(-9.74804e-06 -1.05198e-05 1.04977e-20 9.74711e-06 3.74397e-21 9.27272e-10)
(-1.13398e-05 -9.11111e-06 -3.1909e-21 1.13391e-05 4.89422e-21 6.53753e-10)
(-1.26935e-05 -7.47979e-06 2.68488e-19 1.26931e-05 8.13509e-20 3.2118e-10)
(-1.37815e-05 -5.66482e-06 4.99686e-20 1.37814e-05 -3.51388e-21 9.30258e-11)
(-1.45832e-05 -3.69666e-06 -9.97568e-20 1.45825e-05 -4.11439e-20 6.38592e-10)
(-1.50758e-05 -1.6084e-06 -7.38266e-20 1.50755e-05 -3.49189e-20 2.65292e-10)
(-1.52424e-05 5.54895e-07 -4.02684e-19 1.52413e-05 -9.69913e-20 1.12604e-09)
(5.58428e-06 -9.58779e-06 3.65837e-20 -5.58372e-06 1.0766e-20 -5.61936e-10)
(3.99572e-06 -1.05686e-05 8.62003e-20 -3.99784e-06 2.65659e-20 2.11365e-09)
(2.20104e-06 -1.12879e-05 -1.30838e-19 -2.20253e-06 -3.86422e-20 1.48722e-09)
(3.48683e-07 -1.17099e-05 1.89911e-19 -3.47615e-07 5.85979e-20 -1.06861e-09)
(-1.61502e-06 -1.18271e-05 3.19924e-20 1.61474e-06 1.17624e-20 2.82448e-10)
(-3.57602e-06 -1.16212e-05 2.44082e-19 3.5752e-06 7.76461e-20 8.25036e-10)
(-5.44997e-06 -1.11146e-05 1.86973e-19 5.44951e-06 5.44908e-20 4.67251e-10)
(-7.21473e-06 -1.03208e-05 1.46222e-19 7.2145e-06 4.73632e-20 2.30182e-10)
(-8.81436e-06 -9.2777e-06 2.22551e-19 8.81381e-06 5.8616e-20 5.47371e-10)
(-1.02199e-05 -8.01834e-06 -9.67837e-20 1.02193e-05 -3.06168e-20 6.03862e-10)
(-1.14152e-05 -6.56476e-06 -1.18792e-19 1.1415e-05 -4.72406e-20 2.31552e-10)
(-1.23771e-05 -4.95172e-06 -1.56969e-19 1.23766e-05 -4.36947e-20 4.98537e-10)
(-1.30877e-05 -3.20607e-06 1.89597e-19 1.30873e-05 4.79858e-20 3.90158e-10)
(-1.35294e-05 -1.35452e-06 7.05255e-20 1.35293e-05 1.47418e-20 1.21082e-10)
(-1.36857e-05 5.64471e-07 1.47873e-19 1.36849e-05 6.47679e-20 8.39542e-10)
(4.85417e-06 -8.59764e-06 -7.02483e-20 -4.8538e-06 -1.98641e-20 -3.73686e-10)
(3.42497e-06 -9.45473e-06 -7.79725e-21 -3.42659e-06 -2.61241e-21 1.62116e-09)
(1.81625e-06 -1.00755e-05 2.1692e-19 -1.81767e-06 6.39033e-20 1.41778e-09)
(1.61109e-07 -1.04316e-05 -4.85023e-21 -1.60083e-07 -1.97681e-21 -1.02607e-09)
(-1.58955e-06 -1.05157e-05 -9.57936e-20 1.58933e-06 -2.73993e-20 2.15756e-10)
(-3.33478e-06 -1.0312e-05 -3.07288e-20 3.334e-06 -1.43251e-20 7.85157e-10)
(-4.99864e-06 -9.84307e-06 -2.39708e-19 4.99821e-06 -7.28882e-20 4.32846e-10)
(-6.56235e-06 -9.12096e-06 6.39488e-20 6.56201e-06 2.01498e-20 3.3315e-10)
(-7.97743e-06 -8.18066e-06 -2.83214e-19 7.97681e-06 -8.18243e-20 6.2045e-10)
(-9.21898e-06 -7.05148e-06 6.22596e-20 9.21831e-06 1.51497e-20 6.68451e-10)
(-1.02736e-05 -5.75419e-06 -1.1856e-19 1.02731e-05 -2.72147e-20 4.54796e-10)
(-1.11221e-05 -4.31826e-06 -2.27343e-20 1.11218e-05 -5.95436e-22 3.13809e-10)
(-1.17507e-05 -2.76703e-06 -2.46884e-19 1.17502e-05 -8.11881e-20 4.67616e-10)
(-1.21441e-05 -1.12335e-06 -1.29268e-19 1.2144e-05 -2.5501e-20 9.94091e-11)
(-1.22873e-05 5.79139e-07 1.51349e-19 1.22869e-05 2.40626e-20 4.10449e-10)
(4.21937e-06 -7.71543e-06 1.39623e-20 -4.219e-06 4.11047e-21 -3.73019e-10)
(2.93214e-06 -8.46377e-06 -8.78955e-20 -2.93356e-06 -2.45758e-20 1.42305e-09)
(1.48929e-06 -8.99952e-06 -1.39783e-19 -1.49065e-06 -4.05892e-20 1.35854e-09)
(8.95924e-09 -9.29868e-06 -2.91057e-20 -8.13983e-09 -7.33152e-21 -8.19408e-10)
(-1.55351e-06 -9.3544e-06 1.33264e-19 1.55314e-06 3.79594e-20 3.73566e-10)
(-3.10773e-06 -9.15415e-06 -1.53273e-19 3.1071e-06 -4.27713e-20 6.2982e-10)
(-4.58603e-06 -8.71939e-06 -1.46202e-20 4.5854e-06 3.73572e-21 6.2848e-10)
(-5.97276e-06 -8.06077e-06 2.7495e-19 5.9724e-06 7.15605e-20 3.6712e-10)
(-7.22459e-06 -7.21151e-06 2.02151e-19 7.22386e-06 5.86917e-20 7.31909e-10)
(-8.32135e-06 -6.19735e-06 -2.4795e-19 8.32076e-06 -6.99479e-20 5.92946e-10)
(-9.25162e-06 -5.03684e-06 9.64243e-20 9.25097e-06 3.83013e-20 6.43843e-10)
(-9.99977e-06 -3.75614e-06 6.04162e-20 9.99938e-06 1.69587e-20 3.81873e-10)
(-1.0554e-05 -2.37601e-06 -1.86806e-19 1.05535e-05 -2.88691e-20 4.74804e-10)
(-1.09023e-05 -9.14585e-07 1.93472e-19 1.09023e-05 5.07426e-20 -5.171e-12)
(-1.10312e-05 5.99556e-07 -1.6671e-19 1.10309e-05 -5.22732e-20 3.25301e-10)
(-1.09307e-05 2.14083e-06 1.48362e-19 1.0931e-05 4.31874e-20 -3.43322e-10)
(3.66686e-06 -6.92731e-06 6.64871e-21 -3.66673e-06 1.81641e-21 -1.26727e-10)
(2.50695e-06 -7.58082e-06 2.34776e-21 -2.50798e-06 7.83154e-22 1.03475e-09)
(1.21218e-06 -8.04301e-06 -4.46017e-20 -1.21353e-06 -1.20605e-20 1.35539e-09)
(-1.12646e-07 -8.29332e-06 3.90366e-20 1.13457e-07 1.12311e-20 -8.10121e-10)
(-1.50834e-06 -8.32521e-06 -9.63203e-20 1.50804e-06 -2.52993e-20 3.07915e-10)
(-2.89367e-06 -8.12917e-06 2.05366e-19 2.89308e-06 5.82785e-20 5.81087e-10)
(-4.20809e-06 -7.72532e-06 1.32668e-19 4.20768e-06 2.93588e-20 4.16132e-10)
(-5.43846e-06 -7.12403e-06 -4.62813e-19 5.4382e-06 -1.32186e-19 2.61848e-10)
(-6.54647e-06 -6.35544e-06 4.69925e-20 6.54578e-06 1.73418e-20 6.87959e-10)
(-7.51533e-06 -5.44283e-06 1.78458e-20 7.51485e-06 9.59657e-21 4.80205e-10)
(-8.33561e-06 -4.40284e-06 2.36575e-19 8.33522e-06 5.60516e-20 3.81546e-10)
(-8.9942e-06 -3.25918e-06 1.54363e-19 8.99386e-06 2.6346e-20 3.38291e-10)
(-9.48179e-06 -2.02847e-06 2.85763e-19 9.48147e-06 8.16582e-20 3.15407e-10)
(-9.78832e-06 -7.2837e-07 -8.54872e-20 9.78833e-06 -2.46463e-20 -5.69529e-12)
(-9.90233e-06 6.18801e-07 -9.84035e-20 9.90231e-06 -1.62548e-20 2.38639e-11)
(-9.81493e-06 1.98934e-06 2.17863e-19 9.81515e-06 4.18828e-20 -2.13029e-10)
(3.18565e-06 -6.22396e-06 1.97101e-20 -3.1856e-06 4.92308e-21 -4.82634e-11)
(2.14067e-06 -6.79323e-06 1.19672e-19 -2.14116e-06 3.19353e-20 4.86959e-10)
(9.77957e-07 -7.19164e-06 7.9855e-21 -9.79291e-07 2.86743e-21 1.33423e-09)
(-2.08982e-07 -7.39988e-06 1.11742e-19 2.09626e-07 3.07551e-20 -6.44004e-10)
(-1.4568e-06 -7.41187e-06 2.23038e-20 1.45661e-06 5.68219e-21 1.98909e-10)
(-2.69227e-06 -7.22068e-06 -1.04537e-19 2.6917e-06 -3.17357e-20 5.61717e-10)
(-3.86172e-06 -6.8454e-06 -2.27261e-19 3.86131e-06 -6.24217e-20 4.13335e-10)
(-4.95364e-06 -6.29556e-06 -2.16105e-20 4.95347e-06 6.34131e-21 1.70856e-10)
(-5.93476e-06 -5.59864e-06 1.86728e-19 5.9342e-06 5.03733e-20 5.60804e-10)
(-6.79043e-06 -4.77638e-06 -1.02803e-19 6.78996e-06 -2.78822e-20 4.68527e-10)
(-7.51332e-06 -3.84292e-06 -1.69954e-19 7.51294e-06 -5.13899e-20 3.81622e-10)
(-8.09244e-06 -2.81971e-06 -3.76693e-19 8.09208e-06 -9.45922e-20 3.59835e-10)
(-8.52013e-06 -1.72169e-06 2.05888e-19 8.51982e-06 4.47608e-20 3.1283e-10)
(-8.78824e-06 -5.632e-07 2.21771e-19 8.7882e-06 4.35007e-20 3.9793e-11)
(-8.88771e-06 6.36135e-07 -5.73541e-20 8.88769e-06 -1.27442e-20 1.26105e-11)
(-8.80988e-06 1.85537e-06 -3.89632e-20 8.80953e-06 -7.13845e-21 3.57082e-10)
(3.52743e-06 -5.01528e-06 -3.17204e-21 -3.52825e-06 -1.10321e-21 8.26678e-10)
(2.76657e-06 -5.59384e-06 6.85052e-21 -2.76648e-06 1.97204e-21 -8.66093e-11)
(1.8259e-06 -6.09013e-06 -7.10177e-20 -1.82652e-06 -1.83158e-20 6.12522e-10)
(7.80333e-07 -6.43283e-06 -5.2421e-20 -7.81516e-07 -1.33622e-20 1.18327e-09)
(-2.8394e-07 -6.6049e-06 1.33909e-19 2.84515e-07 3.40384e-20 -5.74739e-10)
(-1.4002e-06 -6.6006e-06 -2.06171e-19 1.39993e-06 -5.32279e-20 2.70921e-10)
(-2.50279e-06 -6.41479e-06 6.55872e-21 2.5022e-06 3.74375e-21 5.85045e-10)
(-3.54384e-06 -6.06565e-06 -5.28484e-20 3.5434e-06 -7.3164e-21 4.4217e-10)
(-4.51329e-06 -5.56236e-06 1.39605e-19 4.51297e-06 3.52913e-20 3.27004e-10)
(-5.38199e-06 -4.92974e-06 1.10306e-19 5.38129e-06 2.53944e-20 7.00923e-10)
(-6.13752e-06 -4.18768e-06 1.2903e-19 6.13702e-06 3.49828e-20 4.99321e-10)
(-6.77415e-06 -3.34886e-06 7.46674e-21 6.77377e-06 7.48673e-22 3.86288e-10)
(-7.28252e-06 -2.43264e-06 1.22142e-20 7.28223e-06 1.39319e-20 2.95799e-10)
(-7.65689e-06 -1.45163e-06 -3.62544e-20 7.65671e-06 -1.69834e-20 1.71133e-10)
(-7.89036e-06 -4.18421e-07 -2.54368e-19 7.89033e-06 -6.08941e-20 2.46214e-11)
(-7.97538e-06 6.49652e-07 -1.11008e-20 7.97531e-06 8.32457e-21 7.31693e-11)
(-7.90419e-06 1.73568e-06 2.45939e-19 7.90416e-06 4.64493e-20 3.45167e-11)
(-7.67314e-06 2.81818e-06 2.59524e-20 7.67271e-06 -4.30276e-21 4.29818e-10)
(3.08951e-06 -4.51943e-06 8.98211e-21 -3.09037e-06 2.28307e-21 8.65748e-10)
(2.40185e-06 -5.02782e-06 -4.68089e-20 -2.40181e-06 -1.14908e-20 -3.87894e-11)
(1.55418e-06 -5.46139e-06 -5.72558e-20 -1.55461e-06 -1.44003e-20 4.30422e-10)
(6.13965e-07 -5.75581e-06 4.56486e-20 -6.15077e-07 1.17325e-20 1.11177e-09)
(-3.40898e-07 -5.89691e-06 -8.98349e-20 3.41355e-07 -2.25468e-20 -4.57084e-10)
(-1.33999e-06 -5.87925e-06 1.38948e-19 1.3398e-06 3.70593e-20 1.9217e-10)
(-2.3243e-06 -5.69959e-06 8.22219e-20 2.32381e-06 2.20404e-20 4.82686e-10)
(-3.25127e-06 -5.37497e-06 2.4145e-19 3.25093e-06 6.05006e-20 3.34591e-10)
(-4.11218e-06 -4.91371e-06 -2.05145e-19 4.11185e-06 -5.41304e-20 3.23815e-10)
(-4.88153e-06 -4.33876e-06 -1.43045e-20 4.88104e-06 -4.2765e-21 4.87674e-10)
(-5.5487e-06 -3.66839e-06 9.86588e-20 5.54818e-06 1.57887e-20 5.22962e-10)
(-6.10908e-06 -2.91347e-06 -2.08889e-19 6.10873e-06 -4.6709e-20 3.43845e-10)
(-6.55504e-06 -2.09171e-06 2.79858e-20 6.5546e-06 8.45165e-21 4.34308e-10)
(-6.88173e-06 -1.21443e-06 9.53687e-21 6.88138e-06 5.82103e-21 3.47132e-10)
(-7.08363e-06 -2.92395e-07 1.56925e-19 7.08369e-06 4.02862e-20 -5.73208e-11)
(-7.15508e-06 6.59254e-07 1.3536e-19 7.15495e-06 1.71416e-20 1.2585e-10)
(-7.08901e-06 1.6271e-06 -2.37207e-19 7.08914e-06 -5.5287e-20 -1.2451e-10)
(-6.8821e-06 2.5911e-06 -1.3236e-19 6.88193e-06 -1.41907e-20 1.69431e-10)
(2.70608e-06 -4.07353e-06 -2.30625e-21 -2.70692e-06 -1.18212e-21 8.37667e-10)
(2.08435e-06 -4.52073e-06 4.51433e-21 -2.08428e-06 9.97173e-22 -7.16164e-11)
(1.31997e-06 -4.89878e-06 2.04591e-20 -1.32037e-06 5.2214e-21 3.94091e-10)
(4.74085e-07 -5.15119e-06 1.51769e-19 -4.75105e-07 3.76538e-20 1.01977e-09)
(-3.83033e-07 -5.26581e-06 4.15291e-20 3.83482e-07 1.00959e-20 -4.49423e-10)
(-1.27756e-06 -5.23758e-06 5.84079e-20 1.27735e-06 1.24356e-20 2.11239e-10)
(-2.15668e-06 -5.06434e-06 -3.43845e-20 2.15622e-06 -9.52333e-21 4.63893e-10)
(-2.98231e-06 -4.7624e-06 4.02052e-20 2.98204e-06 1.26183e-20 2.74504e-10)
(-3.74688e-06 -4.33956e-06 1.03379e-20 3.74665e-06 4.73038e-21 2.28123e-10)
(-4.42828e-06 -3.81667e-06 -6.37896e-20 4.42781e-06 -1.86064e-20 4.69684e-10)
(-5.01713e-06 -3.21018e-06 -1.88758e-19 5.0167e-06 -4.50904e-20 4.20566e-10)
(-5.50989e-06 -2.53051e-06 1.8266e-19 5.50965e-06 5.05733e-20 2.46786e-10)
(-5.90037e-06 -1.79306e-06 -2.34066e-20 5.90021e-06 -3.80118e-21 1.62567e-10)
(-6.18493e-06 -1.00769e-06 9.68254e-20 6.18474e-06 1.50237e-20 1.89915e-10)
(-6.35896e-06 -1.83729e-07 -1.28781e-19 6.35892e-06 -3.38489e-20 3.59242e-11)
(-6.41748e-06 6.64943e-07 -2.70788e-19 6.41736e-06 -6.64368e-20 1.26627e-10)
(-6.3551e-06 1.52746e-06 1.61269e-19 6.35526e-06 4.40078e-20 -1.60116e-10)
(-6.16856e-06 2.38584e-06 3.16103e-19 6.1683e-06 6.23852e-20 2.61075e-10)
(2.37019e-06 -3.67234e-06 -4.58726e-21 -2.37103e-06 -7.71022e-22 8.36434e-10)
(1.8078e-06 -4.06565e-06 4.38365e-20 -1.80775e-06 1.03822e-20 -5.018e-11)
(1.11814e-06 -4.39514e-06 3.59526e-20 -1.11845e-06 8.73771e-21 3.13216e-10)
(3.56842e-07 -4.61097e-06 -7.2001e-20 -3.57836e-07 -1.73295e-20 9.94316e-10)
(-4.12711e-07 -4.70299e-06 -8.89413e-20 4.13117e-07 -2.24882e-20 -4.05796e-10)
(-1.2139e-06 -4.66623e-06 -1.95898e-19 1.21368e-06 -4.63106e-20 2.17878e-10)
(-1.99931e-06 -4.49984e-06 -6.02424e-20 1.99885e-06 -1.06076e-20 4.67169e-10)
(-2.73479e-06 -4.21909e-06 4.82046e-19 2.73444e-06 1.13577e-19 3.53824e-10)
(-3.41396e-06 -3.83112e-06 4.76607e-20 3.4137e-06 4.62457e-21 2.6397e-10)
(-4.01727e-06 -3.35515e-06 -6.58839e-20 4.01682e-06 -1.62616e-20 4.52654e-10)
(-4.53686e-06 -2.80622e-06 -3.76581e-20 4.53647e-06 -1.99466e-21 3.93631e-10)
(-4.97003e-06 -2.1934e-06 1.08839e-19 4.96971e-06 1.75703e-20 3.19235e-10)
(-5.31157e-06 -1.53086e-06 9.49696e-20 5.31124e-06 1.92073e-20 3.30556e-10)
(-5.55845e-06 -8.27486e-07 -1.79434e-19 5.55825e-06 -4.54404e-20 1.99187e-10)
(-5.70727e-06 -9.12963e-08 6.64454e-20 5.70736e-06 1.68938e-20 -9.15128e-11)
(-5.75416e-06 6.66092e-07 -1.8619e-19 5.75409e-06 -2.97144e-20 7.2317e-11)
(-5.69458e-06 1.4348e-06 -5.15015e-20 5.69474e-06 -5.63173e-21 -1.64663e-10)
(-5.52505e-06 2.19976e-06 -1.69619e-19 5.52499e-06 -3.13031e-20 6.43018e-11)
(-5.24427e-06 2.94723e-06 1.56854e-19 5.24426e-06 5.14895e-21 6.3538e-12)
(2.0758e-06 -3.31112e-06 -1.1968e-20 -2.07657e-06 -2.75593e-21 7.70602e-10)
(1.56693e-06 -3.65701e-06 -2.64337e-20 -1.56687e-06 -6.14489e-21 -5.53484e-11)
(9.44496e-07 -3.94395e-06 4.93252e-20 -9.44776e-07 1.15093e-20 2.79789e-10)
(2.59125e-07 -4.12795e-06 5.17282e-20 -2.60018e-07 1.24142e-20 8.93687e-10)
(-4.32008e-07 -4.2007e-06 9.12895e-20 4.32411e-07 2.15641e-20 -4.03103e-10)
(-1.1497e-06 -4.15747e-06 1.96328e-19 1.1495e-06 4.78811e-20 2.00522e-10)
(-1.85136e-06 -3.99821e-06 3.73855e-20 1.85098e-06 3.60971e-21 3.89084e-10)
(-2.50678e-06 -3.73716e-06 -1.35953e-19 2.50662e-06 -3.73731e-20 1.68611e-10)
(-3.1101e-06 -3.38122e-06 -1.95225e-19 3.10985e-06 -4.62285e-20 2.53795e-10)
(-3.64429e-06 -2.94754e-06 -7.55081e-20 3.64389e-06 -9.16589e-21 4.08621e-10)
(-4.10257e-06 -2.45028e-06 7.84273e-20 4.1022e-06 1.51993e-20 3.74799e-10)
(-4.48282e-06 -1.89776e-06 -2.44124e-19 4.48259e-06 -5.58693e-20 2.32295e-10)
(-4.78103e-06 -1.30205e-06 -5.86492e-22 4.78081e-06 -1.55061e-21 2.24528e-10)
(-4.99487e-06 -6.7135e-07 -1.53417e-19 4.99465e-06 -2.61026e-20 2.2384e-10)
(-5.1215e-06 -1.2847e-08 -4.13826e-20 5.12145e-06 -1.44227e-20 5.02808e-11)
(-5.15776e-06 6.63175e-07 3.42476e-20 5.15764e-06 1.15443e-20 1.17471e-10)
(-5.09995e-06 1.34838e-06 2.8124e-19 5.10006e-06 6.26972e-20 -1.08488e-10)
(-4.94541e-06 2.0301e-06 3.29367e-19 4.94531e-06 6.11336e-20 9.4226e-11)
(-4.69268e-06 2.69541e-06 -2.13293e-19 4.69262e-06 -3.86317e-20 6.00078e-11)
(1.81773e-06 -2.98571e-06 2.3147e-21 -1.81851e-06 2.41063e-22 7.76901e-10)
(1.35709e-06 -3.28983e-06 1.87882e-20 -1.35703e-06 4.38937e-21 -5.58772e-11)
(7.9515e-07 -3.53947e-06 -9.64125e-20 -7.95381e-07 -2.16117e-20 2.31223e-10)
(1.77995e-07 -3.69588e-06 6.40059e-20 -1.78868e-07 1.37782e-20 8.73471e-10)
(-4.42834e-07 -3.75223e-06 -1.57593e-19 4.43179e-07 -3.55663e-20 -3.45513e-10)
(-1.08593e-06 -3.70407e-06 1.43288e-19 1.08575e-06 2.94198e-20 1.83394e-10)
(-1.71301e-06 -3.55203e-06 -5.22471e-19 1.71264e-06 -1.19543e-19 3.73969e-10)
(-2.29705e-06 -3.30953e-06 3.11355e-20 2.29682e-06 1.06002e-20 2.327e-10)
(-2.83287e-06 -2.98265e-06 -5.93778e-20 2.83256e-06 -8.63515e-21 3.17477e-10)
(-3.30559e-06 -2.58763e-06 3.8879e-19 3.30524e-06 8.31629e-20 3.50306e-10)
(-3.70963e-06 -2.13702e-06 -1.16555e-19 3.70932e-06 -2.92993e-20 3.04895e-10)
(-4.04331e-06 -1.63823e-06 2.65267e-20 4.04301e-06 1.13627e-20 2.9861e-10)
(-4.30322e-06 -1.10242e-06 -2.09821e-21 4.30306e-06 2.59415e-21 1.62985e-10)
(-4.48772e-06 -5.36912e-07 1.09345e-19 4.48755e-06 2.85529e-20 1.71685e-10)
(-4.59465e-06 5.23503e-08 -2.18335e-19 4.59471e-06 -4.66423e-20 -6.59659e-11)
(-4.62155e-06 6.56012e-07 -9.86859e-20 4.62143e-06 -1.38251e-20 1.25739e-10)
(-4.5651e-06 1.26699e-06 1.24487e-19 4.56517e-06 1.6024e-20 -6.88116e-11)
(-4.42352e-06 1.8741e-06 -1.45556e-19 4.42348e-06 -4.0603e-20 4.32018e-11)
(-4.19525e-06 2.46649e-06 2.1798e-19 4.19511e-06 4.07535e-20 1.42348e-10)
(1.59139e-06 -2.69238e-06 -5.7662e-21 -1.59213e-06 -1.15867e-21 7.37212e-10)
(1.1744e-06 -2.95969e-06 -5.05672e-20 -1.1743e-06 -1.11406e-20 -9.91987e-11)
(6.67015e-07 -3.17668e-06 5.72866e-20 -6.67227e-07 1.27708e-20 2.11416e-10)
(1.11105e-07 -3.3091e-06 -1.08878e-19 -1.11918e-07 -2.39042e-20 8.13441e-10)
(-4.46612e-07 -3.35166e-06 2.00797e-19 4.46972e-07 4.46796e-20 -3.60187e-10)
(-1.02296e-06 -3.29998e-06 -2.44488e-20 1.02276e-06 -7.12376e-21 2.00601e-10)
(-1.58338e-06 -3.15522e-06 4.24507e-20 1.583e-06 1.36762e-20 3.76378e-10)
(-2.10368e-06 -2.93e-06 3.40968e-20 2.10348e-06 8.39483e-21 1.92223e-10)
(-2.57956e-06 -2.63004e-06 -6.52253e-20 2.57936e-06 -1.56416e-20 1.95018e-10)
(-2.99795e-06 -2.27001e-06 -2.4234e-19 2.9976e-06 -5.27004e-20 3.45518e-10)
(-3.35401e-06 -1.86133e-06 -3.0767e-20 3.35374e-06 -5.68942e-21 2.69969e-10)