/*--------------------------------*- C++ -*----------------------------------*\
| =========                 |                                                 |
| \\      /  F ield         | OpenFOAM: The Open Source CFD Toolbox           |
|  \\    /   O peration     | Version:  2306                                  |
|   \\  /    A nd           | Website:  www.openfoam.com                      |
|    \\/     M anipulation  |                                                 |
\*---------------------------------------------------------------------------*/
FoamFile
{
    version     2.0;
    format      ascii;
    arch        "LSB;label=32;scalar=64";
    class       volScalarField;
    location    "125";
    object      turbulenceProperties:L;
}
// * * * * * * * * * * * * * * * * * * * * * * * * * * * * * * * * * * * * * //

dimensions      [0 1 0 0 0 0 0];

internalField   nonuniform List<scalar> 
1340
(
0.00984805
0.00981071
0.00978468
0.0106888
0.0106411
0.0106041
0.0105786
0.0105688
0.0115635
0.0115046
0.0114566
0.0114186
0.011394
0.0113848
0.0113954
0.0124758
0.0124057
0.0123464
0.0122961
0.0122581
0.0122339
0.0122275
0.0122406
0.0134277
0.0133462
0.0132755
0.0132124
0.0131601
0.013121
0.0130987
0.0130954
0.0131115
0.0144221
0.0143289
0.0142466
0.0141705
0.0141037
0.0140497
0.0140113
0.0139909
0.0139902
0.0154616
0.0153565
0.0152623
0.0151725
0.0150909
0.0150215
0.014967
0.0149295
0.0149113
0.0149141
0.0165491
0.0164321
0.0163251
0.0162211
0.0161247
0.0160395
0.0159683
0.0159141
0.0158782
0.0158637
0.0158719
0.0176878
0.0175583
0.0174379
0.0173196
0.0172072
0.0171061
0.0170184
0.0169469
0.0168932
0.0168604
0.0168501
0.018881
0.018738
0.0186039
0.0184701
0.0183419
0.018224
0.0181195
0.0180306
0.017959
0.0179075
0.017879
0.017873
0.0201319
0.0199747
0.019826
0.0196764
0.0195314
0.0193969
0.0192749
0.0191682
0.0190784
0.0190083
0.01896
0.0189347
0.0214437
0.0212717
0.0211075
0.0209415
0.0207794
0.0206277
0.0204877
0.0203627
0.0202543
0.020165
0.0200969
0.0200523
0.0200317
0.0228203
0.022632
0.0224522
0.022269
0.0220893
0.0219197
0.0217612
0.0216173
0.0214897
0.0213811
0.0212934
0.021228
0.0211874
0.024265
0.0240602
0.0238637
0.0236627
0.0234651
0.0232765
0.0230989
0.0229354
0.0227882
0.0226595
0.0225516
0.0224652
0.022404
0.0223675
0.0257821
0.0255597
0.0253459
0.0251271
0.0249103
0.0247023
0.0245046
0.024321
0.0241534
0.0240046
0.0238758
0.0237688
0.0236857
0.0236274
0.0273757
0.027135
0.0269031
0.0266657
0.026429
0.0262005
0.0259819
0.0257774
0.0255891
0.0254191
0.0252694
0.0251409
0.0250357
0.0249557
0.02905
0.0287904
0.0285406
0.0282834
0.0280256
0.0277755
0.0275356
0.0273091
0.0270993
0.0269078
0.0267364
0.0265859
0.0264583
0.0263557
0.026277
0.0308109
0.0305316
0.0302629
0.0299846
0.0297045
0.0294321
0.0291693
0.0289206
0.0286884
0.0284746
0.0282809
0.0281078
0.0279572
0.0278308
0.0277288
0.0326625
0.0323637
0.032075
0.031774
0.0314702
0.0311747
0.0308883
0.0306164
0.0303608
0.0301241
0.0299073
0.0297113
0.029537
0.0293862
0.0292605
0.0346095
0.0342914
0.0339807
0.0336562
0.0333283
0.0330083
0.0326975
0.0324017
0.0321222
0.0318614
0.031621
0.0314007
0.0312022
0.0310265
0.0308761
0.0307493
0.0366593
0.0363205
0.0359857
0.0356365
0.0352837
0.0349384
0.0346025
0.0342813
0.0339769
0.0336912
0.033426
0.0331811
0.032958
0.032757
0.0325809
0.0324291
0.0388142
0.0384561
0.0380958
0.037721
0.0373423
0.0369709
0.0366085
0.036261
0.0359307
0.0356192
0.0353286
0.0350583
0.0348097
0.0345833
0.0343803
0.0342029
0.0414474
0.0410844
0.0407029
0.0403178
0.0399163
0.0395106
0.039112
0.0387222
0.038347
0.0379898
0.0376517
0.0373345
0.037038
0.0367629
0.03651
0.0362802
0.0360759
0.0358952
0.0438642
0.0434794
0.0430706
0.0426584
0.0422291
0.0417952
0.0413678
0.040949
0.0405457
0.0401601
0.0397941
0.0394496
0.0391259
0.0388238
0.0385438
0.0382862
0.0380534
0.037845
0.0464098
0.0460004
0.0455654
0.0451251
0.0446666
0.0442027
0.0437455
0.0432966
0.0428631
0.0424479
0.0420533
0.0416803
0.0413284
0.0409982
0.04069
0.0404044
0.0401425
0.039906
0.0490913
0.0486566
0.0481943
0.0477249
0.0472357
0.046741
0.0462523
0.0457718
0.045307
0.0448613
0.0444363
0.0440338
0.0436525
0.0432935
0.0429566
0.0426419
0.0423499
0.0420846
0.0418427
0.0519169
0.0514557
0.050965
0.0504659
0.0499446
0.0494171
0.0488956
0.0483819
0.0478843
0.0474069
0.0469507
0.0465172
0.0461059
0.0457169
0.0453501
0.0450055
0.0446838
0.0443875
0.0441164
0.0548948
0.0544064
0.0538864
0.053356
0.0528015
0.0522399
0.0516838
0.051135
0.0506042
0.0500929
0.0496036
0.0491382
0.0486954
0.0482757
0.0478781
0.0475028
0.047151
0.0468236
0.0465221
0.0580345
0.0575176
0.0569671
0.056405
0.0558153
0.0552177
0.0546257
0.0540409
0.0534737
0.0529273
0.0524038
0.0519052
0.05143
0.0509781
0.0505486
0.0501422
0.0497586
0.0494001
0.0490675
0.0613453
0.0607993
0.0602175
0.0596216
0.0589954
0.0583604
0.0577302
0.0571072
0.0565024
0.0559196
0.0553603
0.0548268
0.0543174
0.0538323
0.0533705
0.0529317
0.0525162
0.0521254
0.0517613
0.0648379
0.0642618
0.0636475
0.0630164
0.0623521
0.0616774
0.0610076
0.0603444
0.0597001
0.0590785
0.0584817
0.0579116
0.057367
0.0568473
0.0563518
0.0558797
0.0554315
0.0550076
0.054612
0.0542412
0.0685227
0.067916
0.0672684
0.0666001
0.0658961
0.06518
0.0644682
0.0637622
0.0630763
0.0624142
0.0617776
0.0611698
0.0605882
0.0600326
0.059502
0.0589957
0.0585139
0.058057
0.0576284
0.0572265
0.0724122
0.071774
0.0710916
0.0703851
0.0696391
0.0688792
0.0681228
0.0673725
0.0666422
0.0659374
0.0652595
0.0646115
0.0639912
0.0633979
0.0628309
0.0622894
0.0617729
0.0612831
0.0608202
0.0603875
0.0765189
0.0758486
0.0751304
0.0743835
0.073593
0.0727875
0.0719839
0.0711858
0.0704096
0.0696591
0.0689368
0.0682467
0.0675859
0.0669535
0.0663487
0.0657703
0.0652186
0.0646935
0.064198
0.0637331
0.080857
0.0801536
0.0793977
0.0786094
0.0777718
0.0769172
0.076064
0.0752158
0.0743892
0.0735906
0.0728222
0.0720874
0.0713838
0.0707104
0.070066
0.0694496
0.0688608
0.0683008
0.0677707
0.0672746
0.0854407
0.0847039
0.0839092
0.0830765
0.0821899
0.0812836
0.0803767
0.0794743
0.0785951
0.0777453
0.0769269
0.0761448
0.0753958
0.0746796
0.073994
0.0733382
0.0727115
0.0721153
0.0715499
0.0710216
0.0705286
0.0902871
0.0895154
0.0886806
0.0878016
0.0868625
0.0859003
0.0849368
0.0839765
0.0830397
0.0821348
0.0812641
0.0804314
0.0796352
0.0788731
0.0781444
0.0774475
0.076782
0.0761488
0.0755489
0.0749865
0.0744647
0.095413
0.094606
0.0937293
0.092801
0.0918061
0.0907848
0.0897593
0.0887358
0.0877383
0.0867744
0.0858465
0.0849606
0.0841134
0.0833036
0.0825296
0.0817898
0.0810838
0.080412
0.0797773
0.0791816
0.0786308
0.100838
0.099994
0.0990738
0.098094
0.0970392
0.0959533
0.0948613
0.0937703
0.0927058
0.0916776
0.090689
0.089745
0.0888438
0.0879828
0.0871613
0.0863768
0.0856288
0.0849185
0.0842471
0.0836185
0.0830385
0.106581
0.105701
0.104735
0.1037
0.102581
0.101426
0.10026
0.0990952
0.0979584
0.0968601
0.0958048
0.0947993
0.0938397
0.0929251
0.092053
0.0912214
0.0904301
0.0896795
0.0889717
0.0883096
0.0877018
0.112666
0.111748
0.110736
0.109642
0.108454
0.107221
0.105976
0.10473
0.103512
0.102338
0.101211
0.100138
0.0991159
0.0981428
0.0972171
0.0963365
0.0954998
0.0947077
0.0939621
0.093266
0.0926284
0.0920451
0.119117
0.118162
0.1171
0.115944
0.11468
0.113364
0.112029
0.110692
0.109387
0.108129
0.106922
0.105776
0.104686
0.103651
0.102668
0.101735
0.10085
0.100015
0.0992311
0.0985011
0.0978317
0.0972254
0.125962
0.124968
0.123855
0.122631
0.121283
0.119874
0.118442
0.117005
0.115601
0.11425
0.112957
0.11173
0.110566
0.109463
0.108419
0.10743
0.106495
0.105615
0.104791
0.104026
0.103328
0.1027
0.133229
0.132198
0.131031
0.129733
0.128293
0.12678
0.125237
0.123687
0.122176
0.120721
0.119332
0.118016
0.116771
0.115595
0.114484
0.113435
0.112447
0.11152
0.110655
0.109856
0.10913
0.108479
0.140953
0.139883
0.138659
0.13728
0.135738
0.134108
0.132441
0.130765
0.129131
0.127562
0.126065
0.124652
0.123319
0.122062
0.120879
0.119766
0.118721
0.117744
0.116836
0.116002
0.115248
0.114577
0.149169
0.148063
0.146778
0.145309
0.143651
0.141888
0.14008
0.138262
0.136491
0.134792
0.133176
0.131654
0.130223
0.128879
0.127618
0.126436
0.12533
0.124301
0.123349
0.122477
0.121696
0.121005
0.157922
0.156777
0.155427
0.153858
0.152068
0.150153
0.148185
0.146205
0.144278
0.142433
0.140684
0.139042
0.137503
0.136062
0.134716
0.133459
0.132289
0.131204
0.130205
0.129297
0.128487
0.127779
0.167254
0.166074
0.164653
0.16297
0.161028
0.15894
0.156787
0.154623
0.152518
0.15051
0.14861
0.146833
0.145174
0.143628
0.142189
0.14085
0.139609
0.138464
0.137416
0.136469
0.135629
0.134905
0.134308
0.177221
0.176006
0.174509
0.172693
0.170577
0.168288
0.165923
0.163547
0.161239
0.159044
0.156975
0.155046
0.153254
0.15159
0.150049
0.148621
0.147303
0.146093
0.144993
0.144004
0.143137
0.14239
0.141792
0.187881
0.186634
0.185052
0.183082
0.180764
0.178242
0.175629
0.173009
0.17047
0.168062
0.1658
0.1637
0.161759
0.159966
0.158311
0.156784
0.155382
0.154102
0.152946
0.151916
0.15102
0.150257
0.149662
0.199305
0.198025
0.196348
0.194197
0.191642
0.188848
0.185948
0.18305
0.180242
0.177593
0.175112
0.172817
0.170707
0.168769
0.166989
0.165354
0.163863
0.162512
0.161302
0.160232
0.15931
0.158536
0.157945
0.211563
0.210258
0.208471
0.206104
0.203275
0.200159
0.196926
0.193706
0.190591
0.187667
0.184935
0.182415
0.180118
0.178022
0.176105
0.174359
0.17278
0.171364
0.170105
0.169002
0.168061
0.16728
0.166698
0.224743
0.223413
0.221499
0.218877
0.215725
0.212228
0.208615
0.205022
0.20155
0.198321
0.195292
0.192512
0.190015
0.187758
0.185707
0.183854
0.182195
0.18072
0.179419
0.178286
0.177329
0.176544
0.175978
0.238949
0.237598
0.235533
0.232603
0.229072
0.225123
0.221075
0.217045
0.213169
0.209602
0.206202
0.203123
0.200438
0.198042
0.195864
0.193905
0.192167
0.190631
0.189282
0.188115
0.187137
0.186348
0.185801
0.254305
0.252927
0.250683
0.247383
0.243405
0.238914
0.234391
0.229834
0.22551
0.221584
0.217708
0.214298
0.211466
0.208949
0.206629
0.204539
0.202697
0.201074
0.199656
0.198437
0.197431
0.196644
0.196136
0.270925
0.269526
0.267062
0.263318
0.258802
0.253673
0.24864
0.243415
0.238675
0.234364
0.229855
0.226128
0.223203
0.220527
0.217985
0.215704
0.213711
0.211965
0.210442
0.209153
0.208125
0.20734
0.206875
0.206689
0.28893
0.28752
0.28478
0.280495
0.275331
0.269458
0.263872
0.257774
0.252895
0.247956
0.242433
0.238561
0.235733
0.232789
0.229873
0.227332
0.225166
0.223275
0.22164
0.220286
0.219227
0.218458
0.218037
0.21794
0.308136
0.306747
0.303682
0.298791
0.29292
0.286283
0.280122
0.27302
0.268621
0.262432
0.255295
0.251522
0.249132
0.245732
0.242178
0.239285
0.236931
0.23489
0.233143
0.231727
0.23066
0.229915
0.229539
0.229492
0.327505
0.326142
0.322754
0.317367
0.310893
0.303786
0.297265
0.289585
0.286343
0.278519
0.269574
0.265826
0.263546
0.259179
0.254616
0.251141
0.248444
0.24614
0.244185
0.242632
0.241472
0.240699
0.240332
0.240335
0.34527
0.344013
0.340568
0.335081
0.328468
0.321568
0.31515
0.307977
0.305825
0.297611
0.28696
0.282629
0.279337
0.273537
0.267696
0.263285
0.259907
0.257075
0.254698
0.25282
0.25143
0.250553
0.250167
0.250247
0.363205
0.362102
0.358768
0.353393
0.346924
0.340554
0.334453
0.328357
0.327114
0.319659
0.307523
0.302157
0.296903
0.289439
0.282197
0.276584
0.272247
0.268682
0.265733
0.263415
0.261736
0.260687
0.260263
0.260374
0.384246
0.383258
0.379955
0.374603
0.368238
0.362363
0.356488
0.351688
0.351192
0.34465
0.330725
0.324212
0.316245
0.306809
0.298071
0.291166
0.285769
0.281408
0.277866
0.275096
0.273118
0.271894
0.271435
0.271599
0.408124
0.407215
0.403938
0.398614
0.392452
0.38715
0.381632
0.378513
0.378772
0.373516
0.357353
0.349618
0.338009
0.326045
0.315599
0.307268
0.300668
0.295394
0.291179
0.287928
0.285633
0.284235
0.283681
0.283811
0.435421
0.434546
0.431305
0.426081
0.42033
0.415688
0.410835
0.409848
0.410965
0.407561
0.388477
0.379234
0.362797
0.347581
0.335051
0.325063
0.317056
0.310694
0.305698
0.301917
0.299317
0.297847
0.297455
0.29797
0.466396
0.4655
0.462464
0.457672
0.452798
0.449092
0.445594
0.447119
0.449392
0.448688
0.425823
0.414332
0.391458
0.371935
0.356729
0.344714
0.335032
0.327379
0.321441
0.316976
0.313835
0.311848
0.310874
0.310704
0.501246
0.500248
0.497718
0.49411
0.491098
0.489202
0.488555
0.492814
0.497305
0.499964
0.471772
0.456517
0.42496
0.399612
0.38081
0.366203
0.354466
0.345315
0.338496
0.333732
0.330828
0.329694
0.330293
0.332288
0.334763
0.540617
0.539348
0.537678
0.536311
0.536701
0.538592
0.543809
0.551139
0.561729
0.566105
0.529218
0.507802
0.464327
0.430953
0.407468
0.389665
0.37521
0.36364
0.354675
0.347878
0.34283
0.339034
0.336064
0.333812
0.332347
0.584618
0.583057
0.583471
0.586608
0.59315
0.602265
0.617252
0.627681
0.653908
0.646379
0.599577
0.570562
0.510469
0.465953
0.43645
0.415159
0.398555
0.385878
0.376726
0.370683
0.367607
0.367462
0.370048
0.37401
0.376877
0.627906
0.627274
0.634446
0.6496
0.670961
0.696
0.725071
0.733924
0.782179
0.715577
0.676697
0.644988
0.565038
0.506167
0.466675
0.436492
0.411732
0.39163
0.375411
0.36193
0.350027
0.338671
0.327746
0.318597
0.312516
0.657944
0.659933
0.680042
0.720594
0.781466
0.860592
0.933272
0.925941
0.954987
0.765872
0.745457
0.709489
0.618949
0.550922
0.502745
0.462538
0.427837
0.398879
0.375229
0.356041
0.340724
0.328695
0.319308
0.312196
0.306671
0.671785
0.676012
0.706577
0.772007
0.891446
1.12792
1.53848
1.3488
1.087
0.84546
0.917487
0.733086
0.578023
0.484901
0.423014
0.378288
0.344114
0.31721
0.295773
0.278667
0.265285
0.255342
0.248781
0.245255
0.242999
)
;

boundaryField
{
    inlet
    {
        type            calculated;
        value           nonuniform List<scalar> 
25
(
0.728563
0.733918
0.768148
0.842011
0.982375
1.28885
1.91743
1.38961
1.04515
1.04748
0.669509
0.487271
0.372973
0.303857
0.257985
0.225216
0.20052
0.181258
0.165892
0.153463
0.143364
0.13523
0.128813
0.123946
0.120298
)
;
    }
    outlet
    {
        type            calculated;
        value           nonuniform List<scalar> 0();
    }
    walls
    {
        type            calculated;
        value           nonuniform List<scalar> 0();
    }
    frontAndBack
    {
        type            empty;
    }
    procBoundary4to0
    {
        type            processor;
        value           nonuniform List<scalar> 
72
(
0.00989121
0.0107417
0.0116265
0.0125489
0.013511
0.0145154
0.0155654
0.0166639
0.0178139
0.0190184
0.0202813
0.0216059
0.0229961
0.0244553
0.0259879
0.0275981
0.0292907
0.0310696
0.0329386
0.0349043
0.0369732
0.0391514
0.0391514
0.0418036
0.0442423
0.0468107
0.0495164
0.0523672
0.0553713
0.0585375
0.0618759
0.0653965
0.0691101
0.0730282
0.0771639
0.0815307
0.0861432
0.0910169
0.0961698
0.10162
0.107389
0.113497
0.119971
0.126835
0.13412
0.141857
0.150084
0.158842
0.168176
0.178136
0.188784
0.200184
0.212411
0.225542
0.239686
0.254958
0.271469
0.289342
0.308416
0.327697
0.345389
0.363233
0.38417
0.407959
0.435224
0.466332
0.501558
0.541843
0.587912
0.635306
0.670652
0.68744
)
;
    }
    procBoundary4to5
    {
        type            processor;
        value           nonuniform List<scalar> 
95
(
0.00904019
0.0090144
0.00900158
0.00977249
0.00977249
0.00977612
0.0105761
0.0105761
0.0106025
0.0114268
0.0114268
0.012278
0.012278
0.0131556
0.0140127
0.0140127
0.0149451
0.0149451
0.0159113
0.0168658
0.0168658
0.0179
0.0189365
0.0189365
0.0200452
0.0211742
0.0211742
0.022366
0.0235996
0.024903
0.024903
0.026234
0.0276567
0.0291615
0.0291615
0.0306592
0.0323074
0.0340521
0.0340521
0.0357507
0.0376654
0.0396959
0.0396959
0.0416388
0.0438752
0.0462505
0.048764
0.0514235
0.0514235
0.0539114
0.0568566
0.0599881
0.0633019
0.066811
0.066811
0.0700854
0.0739859
0.0781263
0.0825077
0.0871425
0.0871425
0.0915436
0.0966976
0.102157
0.107922
0.114008
0.120425
0.127187
0.127187
0.133849
0.141338
0.149224
0.157529
0.166308
0.175623
0.185488
0.195884
0.195884
0.206609
0.217951
0.229537
0.240431
0.250479
0.260673
0.272013
0.284198
0.298881
0.310906
0.310906
0.33707
0.331649
0.377777
0.309128
0.301459
0.242903
)
;
    }
}


// ************************************************************************* //
