/*--------------------------------*- C++ -*----------------------------------*\
| =========                 |                                                 |
| \\      /  F ield         | OpenFOAM: The Open Source CFD Toolbox           |
|  \\    /   O peration     | Version:  2306                                  |
|   \\  /    A nd           | Website:  www.openfoam.com                      |
|    \\/     M anipulation  |                                                 |
\*---------------------------------------------------------------------------*/
FoamFile
{
    version     2.0;
    format      ascii;
    arch        "LSB;label=32;scalar=64";
    class       volScalarField;
    location    "225";
    object      div(phi);
}
// * * * * * * * * * * * * * * * * * * * * * * * * * * * * * * * * * * * * * //

dimensions      [0 0 -1 0 0 0 0];

internalField   nonuniform List<scalar> 
1340
(
3.1407e-07
6.98263e-08
3.22834e-08
6.7636e-08
9.10688e-08
4.79759e-08
4.68563e-09
1.24329e-08
6.21226e-09
1.96865e-08
6.35501e-08
1.3883e-07
2.82627e-08
1.32296e-08
2.94758e-08
1.93284e-09
-8.31274e-09
4.9449e-10
2.88562e-08
6.86316e-08
6.51977e-08
-6.74782e-09
-9.8339e-09
5.39038e-11
-1.62322e-08
1.60099e-08
7.0946e-09
1.64395e-08
7.32418e-10
7.31576e-10
1.81202e-10
1.43094e-09
7.54455e-09
6.22459e-08
1.36423e-07
4.05141e-08
9.66091e-09
5.38971e-09
1.437e-08
3.68826e-10
-9.8491e-10
-9.31416e-09
-8.1006e-09
4.04248e-09
-1.59323e-09
1.26719e-08
6.2355e-09
1.45318e-08
-1.34514e-10
-1.13535e-08
-4.69127e-09
3.35027e-08
6.34191e-08
6.14389e-08
-4.19054e-08
2.22294e-08
-4.84486e-08
-1.06202e-08
-2.34368e-08
-6.19327e-09
3.87249e-09
2.2276e-08
6.64128e-09
4.47999e-09
7.93984e-09
7.74433e-09
-8.32344e-09
-1.05932e-08
-9.86949e-10
-6.2e-09
8.32975e-09
5.01034e-09
1.50647e-08
-2.37047e-09
-1.64354e-09
-7.43447e-10
2.15365e-09
4.84572e-09
6.30107e-08
1.24005e-07
1.29394e-07
-3.59877e-07
1.28477e-08
-2.40039e-07
4.32484e-08
-1.64238e-07
4.35832e-08
-1.13229e-07
5.37569e-08
-7.70728e-08
4.84128e-08
-6.97478e-08
4.39768e-08
-5.23504e-08
3.13456e-08
-4.59291e-08
2.38986e-08
-1.87835e-08
2.21736e-08
5.35121e-09
3.51337e-09
9.83297e-09
1.6035e-08
5.28157e-09
-1.58759e-08
-5.76995e-09
-9.29326e-09
6.55263e-09
-1.95954e-09
1.10247e-08
2.41965e-09
1.21634e-08
-1.69231e-09
-1.18344e-08
-5.47e-09
3.45348e-08
6.34359e-08
5.01565e-08
-2.86765e-05
-1.97751e-05
-1.1452e-05
-1.42097e-05
-6.64894e-06
-1.052e-05
-3.25047e-06
-7.90516e-06
-1.31326e-06
-6.10997e-06
1.06296e-07
-4.82948e-06
8.48786e-07
-3.96142e-06
1.4007e-06
-3.34014e-06
1.65365e-06
-2.89566e-06
1.7433e-06
-2.52027e-06
1.72908e-06
-2.18816e-06
1.56121e-06
-1.86466e-06
1.40929e-06
-1.56762e-06
1.14943e-06
-1.29657e-06
9.83274e-07
-1.04063e-06
7.47044e-07
-7.82763e-07
7.05554e-07
-5.53817e-07
6.51555e-07
-4.21999e-07
5.32108e-07
-3.66684e-07
4.1297e-07
-3.55767e-07
2.64475e-07
-3.27398e-07
1.1416e-07
-2.40871e-07
6.48701e-08
-1.70049e-07
4.94159e-08
-1.12888e-07
3.94407e-08
-7.01445e-08
2.84619e-08
-4.20731e-08
2.01462e-08
-2.52537e-08
7.91634e-09
-1.80601e-08
3.55489e-09
-1.30729e-08
-1.81749e-09
-7.48395e-09
4.61219e-09
5.48148e-09
5.52756e-09
6.57472e-09
1.63549e-08
2.12824e-08
-1.8034e-08
3.70342e-09
-2.15539e-08
7.5717e-09
-7.87984e-09
1.06624e-08
3.88583e-09
1.33123e-08
-4.67348e-09
-3.49727e-09
-1.04181e-09
3.96556e-09
5.77114e-09
6.28852e-08
1.10148e-07
2.58965e-06
-1.01796e-05
-4.74036e-06
-9.08754e-06
-4.22025e-06
-7.66821e-06
-2.80648e-06
-6.06239e-06
-1.66649e-06
-4.7182e-06
-6.4485e-07
-3.67884e-06
-1.12268e-07
-2.98163e-06
3.38987e-07
-2.52147e-06
5.18065e-07
-2.2481e-06
6.82468e-07
-2.05324e-06
7.30593e-07
-1.8919e-06
7.65023e-07
-1.71221e-06
7.63265e-07
-1.51599e-06
7.22165e-07
-1.30702e-06
6.89479e-07
-1.07976e-06
5.93608e-07
-8.51579e-07
6.13569e-07
-6.40925e-07
5.03747e-07
-4.80356e-07
4.71314e-07
-3.76425e-07
3.6072e-07
-3.12295e-07
2.49077e-07
-2.64229e-07
1.69077e-07
-2.10077e-07
1.10194e-07
-1.61783e-07
6.94966e-08
-1.11706e-07
4.34551e-08
-7.53486e-08
2.47468e-08
-4.53102e-08
1.14969e-08
-2.79003e-08
2.42487e-09
-1.50624e-08
-2.97027e-09
-7.98372e-09
-4.08789e-09
-2.40865e-09
-1.50891e-09
5.69888e-09
3.20394e-09
8.84431e-09
2.44412e-08
-1.19973e-08
1.60511e-08
-3.27823e-08
1.12949e-08
-1.1911e-08
1.2813e-08
-3.98948e-09
9.42122e-09
-1.60623e-09
9.00602e-09
-3.52372e-09
-1.12277e-08
-4.27717e-09
4.28431e-08
6.23776e-08
4.16669e-08
-8.67327e-06
-9.70313e-06
-5.65592e-06
-9.15083e-06
-5.26406e-06
-7.92149e-06
-4.22052e-06
-6.46908e-06
-2.87611e-06
-5.11658e-06
-1.90375e-06
-4.05932e-06
-1.12027e-06
-3.2563e-06
-6.72446e-07
-2.68721e-06
-2.69193e-07
-2.28457e-06
-4.23962e-08
-2.00615e-06
1.83182e-07
-1.7954e-06
3.1939e-07
-1.61599e-06
4.16247e-07
-1.43969e-06
4.81896e-07
-1.25505e-06
4.79859e-07
-1.06848e-06
4.9027e-07
-8.63617e-07
4.35183e-07
-6.60283e-07
4.96329e-07
-4.82476e-07
4.48713e-07
-3.69569e-07
3.89386e-07
-2.99228e-07
2.95962e-07
-2.60857e-07
1.87817e-07
-2.24228e-07
1.13721e-07
-1.7967e-07
7.01537e-08
-1.327e-07
4.36464e-08
-9.08078e-08
2.59228e-08
-5.83463e-08
1.34266e-08
-3.49367e-08
4.31115e-09
-1.92718e-08
-9.13005e-10
-8.86314e-09
-2.6616e-09
-2.47055e-09
-2.26298e-09
2.77164e-09
1.02396e-09
1.21105e-08
-2.57222e-09
1.31108e-08
-2.56206e-08
5.90677e-09
-1.38836e-08
1.2151e-08
-1.41143e-08
8.84017e-09
-5.159e-11
1.41778e-08
-8.24655e-09
-6.96011e-09
2.60322e-10
1.2472e-08
9.02792e-09
6.33202e-08
9.03183e-08
-6.68344e-07
-5.81593e-06
-1.6544e-06
-3.9372e-06
-3.1949e-07
-3.27016e-06
9.65976e-08
-2.96371e-06
1.85003e-07
-2.6994e-06
1.90952e-07
-2.41246e-06
2.19309e-07
-2.1015e-06
1.99613e-07
-1.82152e-06
2.66731e-07
-1.58294e-06
2.65193e-07
-1.41349e-06
3.46813e-07
-1.29187e-06
3.65572e-07
-1.21029e-06
4.08452e-07
-1.13224e-06
4.1714e-07
-1.04778e-06
4.03989e-07
-9.43103e-07
3.96005e-07
-8.09107e-07
3.42708e-07
-6.52683e-07
3.79916e-07
-4.92751e-07
3.47047e-07
-3.66282e-07
3.461e-07
-2.7943e-07
2.79793e-07
-2.29162e-07
2.07888e-07
-1.97255e-07
1.42226e-07
-1.64642e-07
9.42523e-08
-1.28787e-07
6.38373e-08
-9.35145e-08
4.15748e-08
-6.20244e-08
2.50569e-08
-3.83944e-08
1.18326e-08
-2.20606e-08
2.6231e-09
-1.10327e-08
-1.92863e-09
-4.25563e-09
-3.30282e-09
-7.95733e-10
-7.46499e-10
-5.98113e-10
4.64153e-09
-1.42533e-08
2.06268e-10
-8.58318e-09
9.46307e-09
-1.85622e-08
1.11142e-08
-6.25148e-09
1.28673e-08
-1.14723e-08
2.84684e-09
2.12386e-09
-3.25913e-09
6.00733e-10
4.85037e-08
6.24121e-08
3.7153e-08
-9.89165e-06
-3.57084e-06
-8.25624e-07
-1.97458e-06
5.9416e-07
-1.57241e-06
8.84257e-07
-1.65004e-06
7.79881e-07
-1.78725e-06
5.41712e-07
-1.84189e-06
3.44918e-07
-1.79628e-06
1.93868e-07
-1.67433e-06
8.0971e-08
-1.52028e-06
6.01497e-08
-1.36666e-06
3.8632e-08
-1.23637e-06
8.59394e-08
-1.1335e-06
1.18795e-07
-1.0458e-06
1.6929e-07
-9.63393e-07
2.11234e-07
-8.72425e-07
2.23987e-07
-7.7359e-07
2.45882e-07
-6.50783e-07
2.27829e-07
-5.16144e-07
2.80121e-07
-3.92922e-07
2.55401e-07
-3.0307e-07
2.44879e-07
-2.47462e-07
1.92735e-07
-2.11343e-07
1.4056e-07
-1.73977e-07
1.12207e-07
-1.3477e-07
8.54253e-08
-9.61094e-08
6.54637e-08
-6.44482e-08
4.17936e-08
-4.15952e-08
1.94284e-08
-2.38617e-08
2.56881e-09
-9.33467e-09
-7.48257e-09
1.4847e-09
-1.28677e-08
7.75534e-09
-1.39592e-08
9.14207e-09
-1.56125e-08
1.47247e-09
-8.22292e-09
6.57065e-09
-1.55946e-08
1.30687e-08
-1.28145e-08
1.14928e-08
-1.58023e-08
7.62099e-09
-9.20083e-10
-2.73802e-09
2.79473e-09
2.38486e-08
1.53236e-08
5.67012e-08
6.77113e-08
2.17177e-06
-5.75022e-06
-3.19137e-06
-4.54629e-06
-2.58888e-06
-3.69573e-06
-1.61288e-06
-2.9642e-06
-8.65878e-07
-2.41295e-06
-2.54592e-07
-1.98453e-06
1.0418e-07
-1.662e-06
3.21658e-07
-1.39498e-06
3.94689e-07
-1.18762e-06
4.30901e-07
-1.01714e-06
3.88078e-07
-9.0179e-07
3.86304e-07
-8.24934e-07
3.40598e-07
-7.93413e-07
3.46168e-07
-7.76688e-07
3.27232e-07
-7.72415e-07
3.19478e-07
-7.49557e-07
3.05313e-07
-7.13244e-07
2.84575e-07
-6.50985e-07
2.74537e-07
-5.79072e-07
2.49148e-07
-5.00826e-07
2.40997e-07
-4.21279e-07
2.03199e-07
-3.3974e-07
2.1858e-07
-2.61461e-07
2.0239e-07
-2.02707e-07
1.92474e-07
-1.57681e-07
1.62579e-07
-1.28773e-07
1.22016e-07
-1.04629e-07
8.55655e-08
-8.02717e-08
5.77034e-08
-5.64922e-08
3.68761e-08
-3.65008e-08
2.07421e-08
-2.16903e-08
9.03016e-09
-1.2711e-08
-2.51803e-09
-8.09563e-09
9.76785e-10
-3.80865e-09
1.6541e-08
-1.29449e-08
1.57281e-08
-2.24606e-08
8.44082e-09
-7.15169e-09
3.05586e-09
-9.75801e-10
8.06082e-09
-1.572e-09
5.23967e-08
5.26128e-08
2.74304e-08
-1.26059e-05
-1.51312e-06
-9.47661e-07
1.92973e-07
6.88556e-07
5.10978e-07
1.05256e-06
1.91771e-07
9.19481e-07
-2.3996e-07
7.98503e-07
-5.71657e-07
6.74095e-07
-7.74015e-07
6.22393e-07
-8.57997e-07
5.59893e-07
-8.72102e-07
5.05882e-07
-8.31094e-07
4.24659e-07
-7.70952e-07
3.92707e-07
-7.05597e-07
3.28078e-07
-6.61944e-07
3.1921e-07
-6.36025e-07
2.83229e-07
-6.27751e-07
2.84085e-07
-6.18e-07
2.67569e-07
-6.00123e-07
2.62834e-07
-5.65072e-07
2.50798e-07
-5.16765e-07
2.31027e-07
-4.57113e-07
2.17951e-07
-3.85316e-07
1.90587e-07
-3.09068e-07
2.15732e-07
-2.35885e-07
2.10177e-07
-1.81493e-07
2.20857e-07
-1.44575e-07
1.95323e-07
-1.22454e-07
1.5815e-07
-1.03731e-07
1.16865e-07
-8.39268e-08
8.05325e-08
-6.29141e-08
5.07968e-08
-4.33904e-08
2.86225e-08
-2.76783e-08
1.25082e-08
-1.50857e-08
-1.88559e-09
-8.53425e-09
5.33915e-10
1.21016e-08
-7.14258e-09
2.06441e-08
-2.63533e-08
9.33455e-09
-1.43537e-08
1.02922e-08
-1.13075e-08
4.15478e-09
-6.55982e-09
4.23773e-08
1.71298e-08
5.23091e-08
4.54099e-08
7.27927e-06
7.64835e-06
5.89262e-06
5.25545e-06
3.93867e-06
3.69601e-06
2.67188e-06
2.56132e-06
1.92292e-06
1.69622e-06
1.38212e-06
1.03055e-06
1.08927e-06
5.41632e-07
8.60007e-07
1.89588e-07
7.29557e-07
-4.3622e-08
6.02166e-07
-1.96738e-07
5.30761e-07
-2.83011e-07
4.34405e-07
-3.39374e-07
3.88802e-07
-3.72465e-07
3.15815e-07
-4.03304e-07
3.0873e-07
-4.31713e-07
2.7745e-07
-4.62838e-07
2.72265e-07
-4.84108e-07
2.55788e-07
-4.89936e-07
2.40191e-07
-4.76165e-07
2.26787e-07
-4.44731e-07
1.99354e-07
-4.01208e-07
1.83919e-07
-3.44122e-07
1.58236e-07
-2.80661e-07
1.79177e-07
-2.19131e-07
1.72626e-07
-1.73745e-07
1.68939e-07
-1.38663e-07
1.42684e-07
-1.1367e-07
1.07663e-07
-9.01736e-08
7.59168e-08
-6.71719e-08
5.06078e-08
-4.67701e-08
3.07453e-08
-3.16289e-08
1.52006e-08
-1.89722e-08
2.75249e-09
-1.46166e-08
2.73879e-09
-1.08736e-08
3.76395e-09
-1.74344e-08
1.28051e-08
-1.38384e-08
1.7551e-08
-2.24746e-08
1.02558e-08
-1.24831e-08
3.2288e-08
-7.38402e-09
6.34362e-08
4.52081e-08
2.15942e-08
-3.38821e-05
-7.50878e-06
-5.6722e-06
-6.62218e-06
-3.13535e-06
-3.84297e-06
-1.66155e-06
-2.50079e-06
-9.92368e-07
-1.67125e-06
-6.98931e-07
-1.22689e-06
-5.97026e-07
-7.73099e-07
-5.61399e-07
-4.91671e-07
-5.62867e-07
-2.13107e-07
-5.55733e-07
-4.98808e-08
-5.43507e-07
8.97742e-08
-5.09538e-07
1.46107e-07
-4.71931e-07
2.04457e-07
-4.28003e-07
1.99535e-07
-4.00345e-07
2.16919e-07
-3.83435e-07
1.93855e-07
-3.84168e-07
2.06822e-07
-3.89094e-07
1.9572e-07
-3.95968e-07
2.05282e-07
-3.9228e-07
2.02277e-07
-3.77482e-07
1.95051e-07
-3.48415e-07
1.89576e-07
-3.034e-07
1.68785e-07
-2.46985e-07
1.94752e-07
-1.86466e-07
1.99028e-07
-1.39195e-07
2.12468e-07
-1.06635e-07
1.9113e-07
-8.78213e-08
1.53795e-07
-7.43872e-08
1.08757e-07
-6.14105e-08
6.91263e-08
-4.76449e-08
3.85959e-08
-3.47949e-08
1.8775e-08
-2.15426e-08
5.04482e-09
-1.41743e-08
1.9671e-09
-7.25299e-09
-5.5007e-09
1.41046e-08
-8.02955e-09
2.23258e-08
-2.54686e-08
2.04382e-08
-1.82724e-08
3.14132e-08
-2.14898e-08
6.16419e-08
7.27043e-09
4.45328e-08
3.49821e-08
3.19924e-05
3.20586e-06
5.70803e-06
3.14144e-06
2.94167e-06
7.62523e-07
1.53717e-06
-1.49912e-07
9.11509e-07
-5.23113e-07
5.68342e-07
-5.43755e-07
3.22341e-07
-5.56945e-07
9.1751e-08
-4.41257e-07
-1.05129e-07
-3.73131e-07
-2.67637e-07
-2.35135e-07
-3.75132e-07
-1.50443e-07
-4.42068e-07
-4.24994e-08
-4.64052e-07
9.54146e-09
-4.65473e-07
6.67775e-08
-4.45364e-07
7.75806e-08
-4.23348e-07
1.20892e-07
-4.02523e-07
1.27213e-07
-3.94269e-07
1.49831e-07
-3.90609e-07
1.52668e-07
-3.87167e-07
1.61139e-07
-3.75958e-07
1.63855e-07
-3.55176e-07
1.57742e-07
-3.24416e-07
1.53005e-07
-2.82e-07
1.4136e-07
-2.33542e-07
1.61397e-07
-1.85571e-07
1.53274e-07
-1.4849e-07
1.46924e-07
-1.17219e-07
1.17363e-07
-9.31351e-08
8.28499e-08
-7.08036e-08
5.361e-08
-5.10622e-08
3.23365e-08
-3.56963e-08
1.79669e-08
-2.13609e-08
7.71534e-09
-1.30761e-08
8.76729e-09
-1.04352e-08
6.79888e-09
-8.16667e-09
1.56528e-08
-1.45944e-08
3.02722e-08
-1.58258e-08
3.87352e-08
-3.20019e-08
5.5789e-08
-3.45178e-08
5.94524e-08
3.63735e-08
1.61075e-08
-2.56696e-05
-4.27724e-06
-3.05973e-06
-5.03235e-06
-1.24359e-06
-2.80924e-06
-4.52331e-07
-1.81011e-06
-1.95306e-07
-1.39357e-06
-1.29037e-07
-1.08207e-06
-1.08399e-07
-9.10251e-07
-1.27172e-07
-6.1594e-07
-1.62979e-07
-4.37595e-07
-2.31005e-07
-2.0335e-07
-2.94026e-07
-6.87467e-08
-3.51133e-07
7.35447e-08
-3.79509e-07
1.42012e-07
-3.89226e-07
2.10248e-07
-3.76026e-07
2.23347e-07
-3.59167e-07
2.37167e-07
-3.37347e-07
2.17854e-07
-3.21185e-07
2.21481e-07
-3.07977e-07
2.0592e-07
-3.00993e-07
2.08334e-07
-2.92723e-07
2.00798e-07
-2.81796e-07
1.90402e-07
-2.62841e-07
1.83436e-07
-2.31693e-07
1.61011e-07
-1.8823e-07
1.81212e-07
-1.37685e-07
1.84295e-07
-9.67774e-08
1.88609e-07
-6.87077e-08
1.6238e-07
-5.35501e-08
1.2278e-07
-4.47037e-08
8.04075e-08
-3.64629e-08
4.75833e-08
-2.69483e-08
2.69536e-08
-1.469e-08
1.43003e-08
-5.90077e-09
1.23074e-08
8.97726e-11
8.19273e-09
1.22005e-08
1.68326e-09
3.32602e-08
-7.49996e-09
4.23259e-08
-3.31977e-08
5.60237e-08
-6.13473e-08
6.86053e-08
-2.13249e-09
3.71014e-08
2.40972e-08
1.97332e-05
-6.72267e-06
4.20161e-06
1.7771e-06
2.46648e-06
4.04319e-07
1.32869e-06
-1.77844e-07
7.20094e-07
-3.29324e-07
4.07327e-07
-4.08206e-07
2.19733e-07
-3.3131e-07
8.95252e-08
-3.23897e-07
-5.2386e-08
-2.40397e-07
-1.87815e-07
-2.14876e-07
-3.14113e-07
-1.01016e-07
-4.08108e-07
-3.66045e-08
-4.76379e-07
4.94242e-08
-5.07361e-07
9.61226e-08
-5.10951e-07
1.32892e-07
-4.85428e-07
1.43853e-07
-4.43981e-07
1.65851e-07
-3.9599e-07
1.66069e-07
-3.5552e-07
1.68674e-07
-3.2346e-07
1.60626e-07
-2.98189e-07
1.57609e-07
-2.76004e-07
1.52326e-07
-2.53136e-07
1.42595e-07
-2.28278e-07
1.3374e-07
-1.97145e-07
1.22336e-07
-1.6315e-07
1.32985e-07
-1.2912e-07
1.21704e-07
-1.00086e-07
1.14835e-07
-7.33715e-08
9.10535e-08
-5.10733e-08
6.70969e-08
-3.15035e-08
4.91821e-08
-1.79408e-08
3.53094e-08
-5.90943e-09
2.4124e-08
7.06502e-10
2.20186e-08
2.20171e-10
2.30082e-08
-3.11571e-09
2.00882e-08
-1.63423e-09
3.58793e-08
-1.49125e-08
6.31587e-08
-6.77007e-08
7.45767e-08
-4.17068e-08
6.08986e-08
2.96563e-08
2.37023e-08
1.65723e-06
3.82789e-06
3.61973e-06
-3.47243e-07
2.85142e-06
-5.98134e-07
2.2127e-06
-7.42261e-07
1.6684e-06
-7.79139e-07
1.26565e-06
-7.75672e-07
9.85282e-07
-6.98046e-07
8.10132e-07
-6.49052e-07
6.79527e-07
-4.53657e-07
5.68897e-07
-3.47878e-07
4.32372e-07
-1.59432e-07
2.96403e-07
-6.61123e-08
1.5743e-07
7.05415e-08
4.56229e-08
1.33098e-07
-4.52949e-08
2.09864e-07
-1.03228e-07
2.34052e-07
-1.42179e-07
2.48392e-07
-1.58368e-07
2.35484e-07
-1.6268e-07
2.28596e-07
-1.58172e-07
2.08659e-07
-1.53262e-07
1.98548e-07
-1.4709e-07
1.83284e-07
-1.40934e-07
1.6737e-07
-1.31767e-07
1.58242e-07
-1.14144e-07
1.40639e-07
-8.5796e-08
1.56117e-07
-4.82224e-08
1.68436e-07
-1.75115e-08
1.7638e-07
2.33203e-09
1.5998e-07
9.86171e-09
1.30986e-07
9.49443e-09
9.43715e-08
8.9714e-09
6.72885e-08
1.26423e-08
4.78029e-08
1.44888e-08
3.57955e-08
1.3044e-08
2.8099e-08
2.24895e-08
1.72464e-08
3.85283e-08
1.22064e-08
6.50186e-08
-5.49744e-08
7.51133e-08
-4.52565e-08
8.37719e-08
2.82159e-08
5.27254e-08
2.35902e-08
1.8465e-05
3.69457e-06
5.00812e-06
2.1114e-06
3.38231e-06
7.17615e-07
2.31302e-06
2.30292e-07
1.60124e-06
2.31499e-08
1.07411e-06
3.23476e-08
7.07469e-07
1.71296e-08
4.48375e-07
7.77656e-08
2.82237e-07
7.39959e-08
1.51212e-07
1.13055e-07
4.79269e-08
1.09125e-07
-4.36929e-08
1.57343e-07
-1.14429e-07
1.78923e-07
-1.6667e-07
2.17695e-07
-1.9337e-07
2.39347e-07
-1.98242e-07
2.56426e-07
-1.82869e-07
2.61657e-07
-1.55206e-07
2.63909e-07
-1.2173e-07
2.56638e-07
-9.15119e-08
2.51705e-07
-6.70378e-08
2.41625e-07
-4.97987e-08
2.41588e-07
-3.7533e-08
2.37092e-07
-2.76865e-08
2.4004e-07
-1.96949e-08
2.33248e-07
-1.06734e-08
2.34731e-07
-2.36969e-09
2.30448e-07
5.32576e-09
1.97971e-07
1.13421e-08
1.72485e-07
2.04304e-08
1.33519e-07
2.87732e-08
1.09722e-07
3.54062e-08
9.09119e-08
3.89716e-08
7.01175e-08
3.61236e-08
5.23239e-08
2.80837e-08
6.05943e-08
2.67397e-08
5.07062e-08
2.13388e-08
5.19022e-08
-2.2312e-08
6.45074e-08
-8.38016e-09
8.42254e-08
3.28092e-08
5.44429e-08
3.36577e-08
8.00562e-09
8.49043e-06
-4.64851e-07
5.381e-06
-3.53929e-07
5.45231e-06
1.00304e-07
4.8845e-06
1.10533e-07
4.11815e-06
-3.80144e-08
3.35265e-06
-8.19321e-08
2.6889e-06
-1.32197e-07
2.14274e-06
-8.53814e-08
1.7357e-06
-6.89294e-08
1.4247e-06
3.11571e-08
1.19578e-06
8.99123e-08
1.0063e-06
2.45932e-07
8.5932e-07
3.47808e-07
7.33717e-07
5.36198e-07
6.43701e-07
6.49952e-07
5.68169e-07
7.9642e-07
5.18868e-07
8.64859e-07
4.77009e-07
9.28249e-07
4.47823e-07
9.30276e-07
4.17102e-07
9.03683e-07
3.87775e-07
8.47323e-07
3.55228e-07
7.62625e-07
3.23058e-07
6.80703e-07
2.92448e-07
5.82524e-07
2.65822e-07
5.07521e-07
2.44315e-07
4.2383e-07
2.30417e-07
3.87174e-07
2.2064e-07
3.61988e-07
2.05939e-07
3.30305e-07
1.81405e-07
2.85739e-07
1.48623e-07
2.2136e-07
1.12977e-07
1.56138e-07
8.36586e-08
1.03554e-07
5.56418e-08
6.87289e-08
4.29695e-08
7.83595e-08
4.66776e-08
3.9039e-08
3.64102e-08
1.90155e-08
3.85857e-08
2.13346e-08
4.57227e-08
2.36607e-08
2.62765e-08
1.65018e-08
6.47544e-09
0
)
;

boundaryField
{
    inlet
    {
        type            extrapolatedCalculated;
        value           nonuniform List<scalar> 
23
(
6.98263e-08
4.79759e-08
1.3883e-07
6.51977e-08
1.36423e-07
6.14389e-08
1.24005e-07
5.01565e-08
1.10148e-07
4.16669e-08
9.03183e-08
3.7153e-08
6.77113e-08
2.74304e-08
4.54099e-08
2.15942e-08
3.49821e-08
1.61075e-08
2.40972e-08
2.37023e-08
2.35902e-08
8.00562e-09
0
)
;
    }
    outlet
    {
        type            extrapolatedCalculated;
        value           nonuniform List<scalar> 
82
(
8.49043e-06
5.381e-06
-4.64851e-07
-3.53929e-07
5.45231e-06
1.00304e-07
4.8845e-06
1.10533e-07
4.11815e-06
-3.80144e-08
3.35265e-06
-8.19321e-08
2.6889e-06
-1.32197e-07
2.14274e-06
-8.53814e-08
1.7357e-06
-6.89294e-08
1.4247e-06
3.11571e-08
1.19578e-06
8.99123e-08
1.0063e-06
2.45932e-07
8.5932e-07
3.47808e-07
7.33717e-07
5.36198e-07
6.43701e-07
6.49952e-07
5.68169e-07
7.9642e-07
5.18868e-07
8.64859e-07
4.77009e-07
9.28249e-07
4.47823e-07
9.30276e-07
4.17102e-07
9.03683e-07
3.87775e-07
8.47323e-07
3.55228e-07
7.62625e-07
3.23058e-07
6.80703e-07
2.92448e-07
5.82524e-07
2.65822e-07
5.07521e-07
2.44315e-07
4.2383e-07
2.30417e-07
3.87174e-07
2.2064e-07
3.61988e-07
2.05939e-07
3.30305e-07
1.81405e-07
2.85739e-07
1.48623e-07
2.2136e-07
1.12977e-07
1.56138e-07
8.36586e-08
1.03554e-07
5.56418e-08
6.87289e-08
4.29695e-08
7.83595e-08
4.66776e-08
3.9039e-08
3.64102e-08
1.90155e-08
3.85857e-08
2.13346e-08
4.57227e-08
2.36607e-08
2.62765e-08
1.65018e-08
6.47544e-09
0
)
;
    }
    walls
    {
        type            extrapolatedCalculated;
        value           nonuniform List<scalar> 0();
    }
    frontAndBack
    {
        type            empty;
    }
    procBoundary3to2
    {
        type            processor;
        value           nonuniform List<scalar> 
88
(
1.20895e-07
-8.81325e-09
1.57905e-09
2.57481e-08
2.57481e-08
5.50467e-10
-1.1286e-08
-1.1286e-08
-2.20365e-09
1.99577e-08
-1.29444e-08
-1.29444e-08
2.06187e-09
-2.73559e-09
-9.98941e-09
1.06674e-08
-1.16328e-08
-1.16328e-08
-2.84924e-08
6.55061e-09
5.46884e-09
8.23098e-10
1.14648e-08
1.14648e-08
-1.20022e-08
-1.99131e-08
-1.70044e-08
-1.66418e-08
-3.92211e-08
2.50734e-08
-2.97248e-08
-2.97248e-08
-5.10485e-08
-2.03689e-07
-4.46331e-08
-1.27839e-07
-4.10475e-08
-7.57994e-08
-3.16889e-08
-3.27423e-08
-2.68534e-08
-7.19634e-09
-1.1634e-08
-1.32387e-08
-1.32387e-08
1.38938e-05
-7.87199e-07
2.97977e-06
-8.41133e-07
2.15362e-06
-1.0945e-06
1.39675e-06
-1.28435e-06
1.01587e-06
-1.44319e-06
6.90067e-07
-1.62753e-06
5.78407e-07
-1.79354e-06
4.74777e-07
-1.92409e-06
4.53119e-07
-1.95888e-06
4.35625e-07
-1.91843e-06
4.22322e-07
-1.79527e-06
4.34369e-07
-1.63572e-06
4.20185e-07
-1.4491e-06
4.46897e-07
-1.23754e-06
4.29935e-07
-1.00079e-06
5.05175e-07
-7.85353e-07
4.71593e-07
-6.29864e-07
4.31213e-07
-5.31074e-07
3.55473e-07
-4.48639e-07
2.56502e-07
-4.46258e-07
2.97444e-07
-7.62269e-07
-7.62269e-07
)
;
    }
    procBoundary3to6
    {
        type            processor;
        value           uniform 1.92615e-06;
    }
    procBoundary3to7
    {
        type            processor;
        value           nonuniform List<scalar> 
16
(
-3.70587e-05
-8.2274e-06
-2.03429e-05
-7.65583e-06
-1.53015e-05
-5.25585e-06
-1.0716e-05
1.18844e-05
1.18844e-05
-3.01639e-05
3.16212e-05
-1.84325e-05
1.28501e-05
6.73206e-06
1.75071e-05
1.68468e-05
)
;
    }
}


// ************************************************************************* //
