/*--------------------------------*- C++ -*----------------------------------*\
| =========                 |                                                 |
| \\      /  F ield         | OpenFOAM: The Open Source CFD Toolbox           |
|  \\    /   O peration     | Version:  2306                                  |
|   \\  /    A nd           | Website:  www.openfoam.com                      |
|    \\/     M anipulation  |                                                 |
\*---------------------------------------------------------------------------*/
FoamFile
{
    version     2.0;
    format      ascii;
    arch        "LSB;label=32;scalar=64";
    class       volScalarField;
    location    "225";
    object      magR;
}
// * * * * * * * * * * * * * * * * * * * * * * * * * * * * * * * * * * * * * //

dimensions      [0 2 -2 0 0 0 0];

internalField   nonuniform List<scalar> 
1340
(
8.15057e-07
1.60603e-06
1.81356e-07
7.47638e-07
8.125e-07
1.60835e-06
2.02243e-07
3.24133e-07
1.77817e-07
7.5044e-07
8.12743e-07
1.60905e-06
3.72972e-07
3.28475e-07
3.08178e-07
2.1209e-07
3.31631e-07
1.75771e-07
7.53456e-07
8.14941e-07
1.60891e-06
5.33226e-07
4.94188e-07
4.62247e-07
4.32545e-07
4.01598e-07
3.72432e-07
3.3012e-07
3.11767e-07
2.22616e-07
3.38836e-07
1.75058e-07
7.5659e-07
8.18443e-07
1.6084e-06
7.4833e-07
7.0153e-07
6.54837e-07
6.09349e-07
5.64757e-07
5.22836e-07
4.8644e-07
4.56696e-07
4.2884e-07
3.99652e-07
3.72032e-07
3.32115e-07
3.15777e-07
2.33727e-07
3.45604e-07
1.75522e-07
7.59562e-07
8.22717e-07
1.60764e-06
1.01952e-06
9.75625e-07
9.31947e-07
8.88781e-07
8.46209e-07
8.0408e-07
7.62002e-07
7.19622e-07
6.76846e-07
6.34092e-07
5.92368e-07
5.51193e-07
5.12312e-07
4.78632e-07
4.51111e-07
4.25127e-07
3.97795e-07
3.71798e-07
3.34468e-07
3.20163e-07
2.45268e-07
3.51801e-07
1.7706e-07
7.62317e-07
8.27342e-07
1.60634e-06
1.38011e-06
1.34776e-06
1.31468e-06
1.2809e-06
1.24655e-06
1.21168e-06
1.1764e-06
1.14078e-06
1.10483e-06
1.06848e-06
1.03163e-06
9.94306e-07
9.56584e-07
9.1842e-07
8.8018e-07
8.42151e-07
8.04403e-07
7.668e-07
7.28959e-07
6.90652e-07
6.51953e-07
6.13173e-07
5.75237e-07
5.37548e-07
5.01833e-07
4.70899e-07
4.45582e-07
4.21471e-07
3.96028e-07
3.71665e-07
3.37121e-07
3.2486e-07
2.57145e-07
3.57308e-07
1.79599e-07
7.64752e-07
8.31711e-07
1.60487e-06
1.56073e-06
1.71303e-06
1.47376e-06
1.48478e-06
1.47203e-06
1.5185e-06
1.5398e-06
1.55956e-06
1.5759e-06
1.59113e-06
1.60486e-06
1.61686e-06
1.6266e-06
1.63414e-06
1.64002e-06
1.64352e-06
1.64495e-06
1.6444e-06
1.64192e-06
1.6377e-06
1.63183e-06
1.62446e-06
1.61583e-06
1.60599e-06
1.59499e-06
1.58287e-06
1.56982e-06
1.55597e-06
1.54132e-06
1.52605e-06
1.51009e-06
1.4935e-06
1.47632e-06
1.45849e-06
1.44009e-06
1.4211e-06
1.40147e-06
1.38127e-06
1.36031e-06
1.33862e-06
1.31621e-06
1.29272e-06
1.26847e-06
1.244e-06
1.21862e-06
1.19208e-06
1.16482e-06
1.13691e-06
1.10839e-06
1.07937e-06
1.04992e-06
1.02003e-06
9.89644e-07
9.58694e-07
9.27009e-07
8.94695e-07
8.6197e-07
8.28954e-07
7.95862e-07
7.62773e-07
7.2958e-07
6.95978e-07
6.61817e-07
6.27151e-07
5.92314e-07
5.58132e-07
5.2391e-07
4.91371e-07
4.632e-07
4.40056e-07
4.17817e-07
3.94297e-07
3.71607e-07
3.40059e-07
3.2985e-07
2.69288e-07
3.62062e-07
1.83037e-07
7.66602e-07
8.35584e-07
1.60347e-06
1.66005e-06
1.36674e-06
1.25674e-06
1.32779e-06
1.33756e-06
1.36102e-06
1.37097e-06
1.3833e-06
1.39384e-06
1.40378e-06
1.41246e-06
1.41975e-06
1.42556e-06
1.42988e-06
1.43287e-06
1.43413e-06
1.43391e-06
1.43237e-06
1.42941e-06
1.4252e-06
1.41993e-06
1.41361e-06
1.40636e-06
1.39823e-06
1.38924e-06
1.37949e-06
1.36917e-06
1.35824e-06
1.34683e-06
1.335e-06
1.3227e-06
1.30999e-06
1.29682e-06
1.28326e-06
1.26928e-06
1.25486e-06
1.24001e-06
1.22467e-06
1.20873e-06
1.19216e-06
1.17496e-06
1.15707e-06
1.13823e-06
1.11868e-06
1.09861e-06
1.07764e-06
1.05598e-06
1.03362e-06
1.01065e-06
9.87159e-07
9.63201e-07
9.38752e-07
9.13776e-07
8.88199e-07
8.61838e-07
8.34776e-07
8.071e-07
7.7895e-07
7.50503e-07
7.21831e-07
6.92862e-07
6.63365e-07
6.33234e-07
6.02532e-07
5.71583e-07
5.41105e-07
5.10316e-07
4.80967e-07
4.55548e-07
4.3453e-07
4.14163e-07
3.92592e-07
3.7163e-07
3.43266e-07
3.35115e-07
2.81599e-07
3.66018e-07
1.87145e-07
7.68203e-07
8.38504e-07
1.60272e-06
1.29711e-06
1.19947e-06
1.15989e-06
1.2182e-06
1.21552e-06
1.22558e-06
1.23006e-06
1.2364e-06
1.24173e-06
1.24658e-06
1.25038e-06
1.25358e-06
1.25573e-06
1.25687e-06
1.25703e-06
1.25615e-06
1.25424e-06
1.25154e-06
1.24792e-06
1.24341e-06
1.23832e-06
1.23254e-06
1.2261e-06
1.21895e-06
1.21136e-06
1.20332e-06
1.19486e-06
1.18609e-06
1.17706e-06
1.16775e-06
1.15818e-06
1.14837e-06
1.13827e-06
1.12794e-06
1.11739e-06
1.10655e-06
1.0954e-06
1.08387e-06
1.07189e-06
1.05935e-06
1.04635e-06
1.03286e-06
1.01855e-06
1.0036e-06
9.88039e-07
9.71698e-07
9.54723e-07
9.37088e-07
9.18899e-07
9.00224e-07
8.81088e-07
8.61483e-07
8.41373e-07
8.20641e-07
7.99114e-07
7.76831e-07
7.53817e-07
7.30169e-07
7.06065e-07
6.81584e-07
6.56661e-07
6.31134e-07
6.04924e-07
5.78127e-07
5.50998e-07
5.24146e-07
4.96763e-07
4.70617e-07
4.47913e-07
4.2896e-07
4.10481e-07
3.90879e-07
3.71711e-07
3.46739e-07
3.40649e-07
2.9398e-07
3.69202e-07
1.91898e-07
7.68523e-07
8.41149e-07
1.60313e-06
1.15151e-06
1.11797e-06
1.08129e-06
1.11553e-06
1.10629e-06
1.10981e-06
1.1097e-06
1.1109e-06
1.11146e-06
1.11188e-06
1.11177e-06
1.11133e-06
1.11032e-06
1.10871e-06
1.10655e-06
1.10384e-06
1.10051e-06
1.09679e-06
1.09256e-06
1.08781e-06
1.08274e-06
1.07723e-06
1.07127e-06
1.06493e-06
1.05845e-06
1.05161e-06
1.04463e-06
1.03758e-06
1.03033e-06
1.02298e-06
1.01549e-06
1.00794e-06
1.0002e-06
9.92413e-07
9.84505e-07
9.76431e-07
9.68167e-07
9.59621e-07
9.50698e-07
9.41396e-07
9.31738e-07
9.21702e-07
9.11009e-07
8.99687e-07
8.87777e-07
8.75243e-07
8.62129e-07
8.48448e-07
8.3431e-07
8.19744e-07
8.04789e-07
7.89418e-07
7.73602e-07
7.57148e-07
7.39943e-07
7.21952e-07
7.03101e-07
6.83566e-07
6.63468e-07
6.42846e-07
6.21726e-07
5.99977e-07
5.77503e-07
5.54446e-07
5.30989e-07
5.07618e-07
4.83542e-07
4.6052e-07
4.4045e-07
4.2348e-07
4.06858e-07
3.89213e-07
3.71913e-07
3.50482e-07
3.46459e-07
3.06164e-07
3.71721e-07
1.96386e-07
7.68096e-07
8.4223e-07
1.60701e-06
1.06432e-06
1.03267e-06
9.93636e-07
1.01348e-06
1.00176e-06
1.00024e-06
9.95996e-07
9.92928e-07
9.89505e-07
9.86418e-07
9.83131e-07
9.79745e-07
9.76273e-07
9.72465e-07
9.68535e-07
9.64496e-07
9.60121e-07
9.55576e-07
9.509e-07
9.45965e-07
9.40877e-07
9.35552e-07
9.30041e-07
9.24476e-07
9.18816e-07
9.13071e-07
9.07457e-07
9.01769e-07
8.95999e-07
8.90233e-07
8.84614e-07
8.78904e-07
8.73248e-07
8.67502e-07
8.61806e-07
8.56258e-07
8.50289e-07
8.44221e-07
8.37954e-07
8.31454e-07
8.24615e-07
8.17571e-07
8.09919e-07
8.01631e-07
7.93006e-07
7.83735e-07
7.74012e-07
7.6388e-07
7.53291e-07
7.42448e-07
7.31253e-07
7.19705e-07
7.0783e-07
6.95311e-07
6.82042e-07
6.68038e-07
6.53091e-07
6.3737e-07
6.21097e-07
6.04159e-07
5.86696e-07
5.68667e-07
5.49874e-07
5.30503e-07
5.10691e-07
4.90809e-07
4.7003e-07
4.50166e-07
4.32731e-07
4.17765e-07
4.0303e-07
3.87417e-07
3.72182e-07
3.54518e-07
3.52702e-07
3.18487e-07
3.73519e-07
2.04691e-07
7.63267e-07
8.46572e-07
1.61126e-06
9.55735e-07
9.28209e-07
8.90845e-07
9.00245e-07
8.85781e-07
8.79642e-07
8.71468e-07
8.64065e-07
8.57773e-07
8.5119e-07
8.44886e-07
8.39487e-07
8.33636e-07
8.27879e-07
8.22721e-07
8.17713e-07
8.12065e-07
8.07168e-07
8.02114e-07
7.96994e-07
7.92132e-07
7.86913e-07
7.82163e-07
7.77514e-07
7.72702e-07
7.68216e-07
7.6391e-07
7.59642e-07
7.55513e-07
7.51296e-07
7.47588e-07
7.43926e-07
7.40254e-07
7.36514e-07
7.33308e-07
7.30018e-07
7.26373e-07
7.22746e-07
7.19151e-07
7.15427e-07
7.11346e-07
7.07281e-07
7.02392e-07
6.97239e-07
6.91898e-07
6.85774e-07
6.79518e-07
6.72998e-07
6.65955e-07
6.58953e-07
6.51638e-07
6.43988e-07
6.36255e-07
6.27799e-07
6.186e-07
6.08727e-07
5.97939e-07
5.86221e-07
5.74003e-07
5.61115e-07
5.47673e-07
5.33727e-07
5.19031e-07
5.03791e-07
4.88035e-07
4.71999e-07
4.54921e-07
4.38626e-07
4.24079e-07
4.11297e-07
3.98716e-07
3.85465e-07
3.72685e-07
3.59561e-07
3.59738e-07
3.32976e-07
3.71991e-07
2.2078e-07
7.48743e-07
8.38711e-07
1.55712e-06
8.37014e-07
8.18163e-07
7.85499e-07
7.84669e-07
7.68265e-07
7.58302e-07
7.46723e-07
7.36577e-07
7.27611e-07
7.18459e-07
7.10222e-07
7.02948e-07
6.95331e-07
6.88265e-07
6.82169e-07
6.76113e-07
6.69728e-07
6.64581e-07
6.58989e-07
6.54022e-07
6.49411e-07
6.44327e-07
6.40276e-07
6.36525e-07
6.32408e-07
6.28996e-07
6.25648e-07
6.22596e-07
6.19951e-07
6.17198e-07
6.1488e-07
6.12975e-07
6.10928e-07
6.09032e-07
6.07777e-07
6.06126e-07
6.04547e-07
6.03064e-07
6.01691e-07
6.00159e-07
5.98542e-07
5.96698e-07
5.9432e-07
5.92038e-07
5.89244e-07
5.8614e-07
5.8306e-07
5.79726e-07
5.76157e-07
5.7269e-07
5.69146e-07
5.65314e-07
5.61466e-07
5.56988e-07
5.51822e-07
5.4595e-07
5.39223e-07
5.31635e-07
5.23555e-07
5.14885e-07
5.05724e-07
4.96082e-07
4.85794e-07
4.74956e-07
4.6349e-07
4.51568e-07
4.38525e-07
4.26048e-07
4.1456e-07
4.04146e-07
3.93963e-07
3.83413e-07
3.73659e-07
3.65673e-07
3.68045e-07
3.48459e-07
3.69366e-07
2.3834e-07
7.47967e-07
8.31784e-07
1.55493e-06
7.30671e-07
7.17541e-07
6.87949e-07
6.81084e-07
6.64146e-07
6.51408e-07
6.3851e-07
6.27407e-07
6.1613e-07
6.06142e-07
5.97237e-07
5.88356e-07
5.80082e-07
5.72533e-07
5.65825e-07
5.5889e-07
5.52771e-07
5.4721e-07
5.4146e-07
5.36844e-07
5.32403e-07
5.27757e-07
5.24122e-07
5.20756e-07
5.17229e-07
5.14713e-07
5.12027e-07
5.09694e-07
5.08012e-07
5.06346e-07
5.04923e-07
5.04142e-07
5.03179e-07
5.02498e-07
5.02329e-07
5.01858e-07
5.01641e-07
5.01656e-07
5.0168e-07
5.01584e-07
5.01566e-07
5.01189e-07
5.00763e-07
5.00328e-07
4.9944e-07
4.98683e-07
4.97945e-07
4.97075e-07
4.96282e-07
4.95582e-07
4.9505e-07
4.94338e-07
4.93501e-07
4.92323e-07
4.90402e-07
4.87848e-07
4.84568e-07
4.80525e-07
4.76118e-07
4.71214e-07
4.65907e-07
4.6024e-07
4.54002e-07
4.47171e-07
4.39716e-07
4.31655e-07
4.22456e-07
4.13616e-07
4.05038e-07
3.96974e-07
3.89276e-07
3.81561e-07
3.75224e-07
3.72419e-07
3.77254e-07
3.63202e-07
3.68287e-07
2.55818e-07
7.54794e-07
8.10225e-07
1.55452e-06
6.44751e-07
5.92249e-07
6.26343e-07
5.99467e-07
5.90057e-07
5.7271e-07
5.5868e-07
5.45777e-07
5.3371e-07
5.22092e-07
5.11657e-07
5.02299e-07
4.93221e-07
4.84725e-07
4.77155e-07
4.70322e-07
4.63323e-07
4.57534e-07
4.52035e-07
4.4675e-07
4.42445e-07
4.38119e-07
4.34351e-07
4.31012e-07
4.28034e-07
4.25398e-07
4.23299e-07
4.21397e-07
4.19743e-07
4.18804e-07
4.17945e-07
4.17254e-07
4.17281e-07
4.17069e-07
4.17269e-07
4.17907e-07
4.18279e-07
4.19109e-07
4.20117e-07
4.21019e-07
4.22011e-07
4.2295e-07
4.23773e-07
4.24665e-07
4.25429e-07
4.26203e-07
4.2706e-07
4.28017e-07
4.29103e-07
4.30353e-07
4.3176e-07
4.3342e-07
4.35002e-07
4.36415e-07
4.37616e-07
4.38094e-07
4.3806e-07
4.37456e-07
4.36214e-07
4.34749e-07
4.32955e-07
4.30843e-07
4.28488e-07
4.25628e-07
4.22192e-07
4.18168e-07
4.1346e-07
4.07655e-07
4.02018e-07
3.96043e-07
3.9019e-07
3.84954e-07
3.80123e-07
3.77451e-07
3.7967e-07
3.86883e-07
3.76621e-07
3.68435e-07
2.77186e-07
7.65518e-07
7.82593e-07
1.55372e-06
5.56942e-07
5.06449e-07
5.43049e-07
5.18299e-07
5.07759e-07
4.90707e-07
4.77041e-07
4.638e-07
4.51856e-07
4.40737e-07
4.30166e-07
4.20859e-07
4.12133e-07
4.0411e-07
3.96795e-07
3.90005e-07
3.83733e-07
3.78295e-07
3.73309e-07
3.68582e-07
3.64514e-07
3.60763e-07
3.57827e-07
3.54855e-07
3.52511e-07
3.50541e-07
3.48887e-07
3.47865e-07
3.46807e-07
3.4642e-07
3.46166e-07
3.46246e-07
3.46751e-07
3.47197e-07
3.48111e-07
3.49342e-07
3.50566e-07
3.52007e-07
3.53757e-07
3.55391e-07
3.57121e-07
3.58918e-07
3.60633e-07
3.62539e-07
3.64444e-07
3.6649e-07
3.6866e-07
3.70989e-07
3.73647e-07
3.76519e-07
3.79526e-07
3.82828e-07
3.86114e-07
3.89178e-07
3.9213e-07
3.94434e-07
3.96312e-07
3.9781e-07
3.98849e-07
3.99772e-07
4.00505e-07
4.01039e-07
4.01377e-07
4.01322e-07
4.00723e-07
3.99565e-07
3.97741e-07
3.94892e-07
3.92036e-07
3.88377e-07
3.84617e-07
3.81755e-07
3.79804e-07
3.80906e-07
3.8783e-07
3.97045e-07
3.89097e-07
3.70741e-07
3.05945e-07
7.80266e-07
7.50285e-07
1.5541e-06
4.81938e-07
4.36064e-07
4.68984e-07
4.45995e-07
4.34571e-07
4.18304e-07
4.05017e-07
3.92145e-07
3.80855e-07
3.69851e-07
3.60006e-07
3.51274e-07
3.4296e-07
3.3555e-07
3.28843e-07
3.22516e-07
3.17106e-07
3.12209e-07
3.07831e-07
3.03723e-07
3.00301e-07
2.97454e-07
2.94826e-07
2.92666e-07
2.91068e-07
2.89528e-07
2.88684e-07
2.88236e-07
2.87658e-07
2.87848e-07
2.88083e-07
2.88752e-07
2.89669e-07
2.90589e-07
2.92053e-07
2.93823e-07
2.95411e-07
2.97365e-07
2.99567e-07
3.01625e-07
3.03849e-07
3.06336e-07
3.08661e-07
3.11249e-07
3.14116e-07
3.16967e-07
3.20153e-07
3.23513e-07
3.27267e-07
3.31229e-07
3.35342e-07
3.39797e-07
3.44156e-07
3.48371e-07
3.5254e-07
3.56184e-07
3.59532e-07
3.62695e-07
3.65586e-07
3.6846e-07
3.71226e-07
3.73934e-07
3.76514e-07
3.78734e-07
3.80518e-07
3.81784e-07
3.82416e-07
3.8212e-07
3.81615e-07
3.80003e-07
3.78289e-07
3.77834e-07
3.78845e-07
3.83824e-07
3.94946e-07
4.05243e-07
3.97839e-07
3.72781e-07
3.39169e-07
7.9864e-07
7.10555e-07
1.55876e-06
4.13349e-07
3.72395e-07
4.03218e-07
3.82784e-07
3.7126e-07
3.56308e-07
3.43471e-07
3.31783e-07
3.21164e-07
3.10965e-07
3.02123e-07
2.94099e-07
2.86627e-07
2.79906e-07
2.74063e-07
2.68601e-07
2.64021e-07
2.59945e-07
2.56129e-07
2.52918e-07
2.50387e-07
2.48241e-07
2.46175e-07
2.44667e-07
2.43915e-07
2.42902e-07
2.42563e-07
2.42614e-07
2.4265e-07
2.43193e-07
2.4396e-07
2.45027e-07
2.46344e-07
2.47769e-07
2.4965e-07
2.51722e-07
2.53707e-07
2.56144e-07
2.58674e-07
2.61311e-07
2.64e-07
2.67143e-07
2.70195e-07
2.73532e-07
2.77201e-07
2.80816e-07
2.84962e-07
2.89162e-07
2.93713e-07
2.98489e-07
3.03418e-07
3.08582e-07
3.13659e-07
3.18766e-07
3.23754e-07
3.28455e-07
3.33034e-07
3.37514e-07
3.41875e-07
3.46296e-07
3.50648e-07
3.5503e-07
3.59334e-07
3.63304e-07
3.67012e-07
3.7025e-07
3.72894e-07
3.74765e-07
3.76341e-07
3.76647e-07
3.76753e-07
3.78298e-07
3.81764e-07
3.90003e-07
4.04237e-07
4.14834e-07
4.08045e-07
3.83349e-07
3.88228e-07
8.27118e-07
6.73566e-07
1.58014e-06
3.55222e-07
3.16958e-07
3.44926e-07
3.25861e-07
3.15428e-07
3.0149e-07
2.89796e-07
2.79083e-07
2.68953e-07
2.59776e-07
2.51944e-07
2.44727e-07
2.38085e-07
2.32075e-07
2.26984e-07
2.22594e-07
2.18749e-07
2.15301e-07
2.12208e-07
2.10199e-07
2.08272e-07
2.06723e-07
2.05551e-07
2.0463e-07
2.04564e-07
2.04251e-07
2.0435e-07
2.04793e-07
2.05492e-07
2.06421e-07
2.07437e-07
2.08972e-07
2.10408e-07
2.12148e-07
2.14224e-07
2.16267e-07
2.18482e-07
2.20845e-07
2.23596e-07
2.26339e-07
2.29112e-07
2.32415e-07
2.35699e-07
2.39213e-07
2.42967e-07
2.46932e-07
2.51165e-07
2.55528e-07
2.60163e-07
2.64964e-07
2.69998e-07
2.751e-07
2.80318e-07
2.85613e-07
2.90836e-07
2.96029e-07
3.01267e-07
3.06522e-07
3.11769e-07
3.17191e-07
3.22608e-07
3.28146e-07
3.33654e-07
3.38938e-07
3.44075e-07
3.48768e-07
3.52935e-07
3.56383e-07
3.59159e-07
3.60634e-07
3.62584e-07
3.6657e-07
3.73278e-07
3.85534e-07
4.0232e-07
4.10598e-07
4.00236e-07
3.77331e-07
4.2021e-07
8.44653e-07
6.10775e-07
1.61724e-06
2.98049e-07
2.64747e-07
2.90204e-07
2.75261e-07
2.65306e-07
2.5386e-07
2.44195e-07
2.35695e-07
2.27443e-07
2.20187e-07
2.14403e-07
2.09055e-07
2.04277e-07
1.99847e-07
1.9644e-07
1.93701e-07
1.9122e-07
1.89231e-07
1.87481e-07
1.86779e-07
1.8611e-07
1.85472e-07
1.8544e-07
1.85632e-07
1.86314e-07
1.86927e-07
1.87902e-07
1.89007e-07
1.90458e-07
1.92104e-07
1.93743e-07
1.95926e-07
1.97966e-07
2.00434e-07
2.03094e-07
2.05867e-07
2.08867e-07
2.1202e-07
2.15663e-07
2.19189e-07
2.23051e-07
2.27174e-07
2.31348e-07
2.35693e-07
2.40209e-07
2.44866e-07
2.49456e-07
2.5427e-07
2.591e-07
2.64036e-07
2.6923e-07
2.74497e-07
2.80057e-07
2.85724e-07
2.91556e-07
2.97455e-07
3.03402e-07
3.0936e-07
3.15185e-07
3.2109e-07
3.26923e-07
3.32854e-07
3.38798e-07
3.4466e-07
3.50459e-07
3.55935e-07
3.61089e-07
3.65808e-07
3.70394e-07
3.73769e-07
3.76522e-07
3.80571e-07
3.86863e-07
3.98239e-07
4.13496e-07
4.20297e-07
4.15318e-07
4.14366e-07
5.09828e-07
8.92823e-07
6.31038e-07
1.77765e-06
2.16879e-07
1.92426e-07
2.11134e-07
2.00719e-07
1.90132e-07
1.80427e-07
1.71765e-07
1.64583e-07
1.58393e-07
1.53176e-07
1.48906e-07
1.45418e-07
1.42889e-07
1.40869e-07
1.39503e-07
1.38622e-07
1.38289e-07
1.38382e-07
1.38737e-07
1.3958e-07
1.40583e-07
1.41845e-07
1.43319e-07
1.44934e-07
1.46772e-07
1.48684e-07
1.50685e-07
1.52693e-07
1.54905e-07
1.57078e-07
1.59333e-07
1.61695e-07
1.64009e-07
1.66529e-07
1.69008e-07
1.71633e-07
1.74295e-07
1.77025e-07
1.79877e-07
1.82672e-07
1.85645e-07
1.88602e-07
1.91566e-07
1.9454e-07
1.97586e-07
2.00567e-07
2.03558e-07
2.0668e-07
2.0984e-07
2.13231e-07
2.16803e-07
2.20622e-07
2.24729e-07
2.28983e-07
2.33495e-07
2.38125e-07
2.4295e-07
2.47902e-07
2.52974e-07
2.5837e-07
2.63933e-07
2.6977e-07
2.75751e-07
2.81791e-07
2.87826e-07
2.93547e-07
2.98925e-07
3.0369e-07
3.06411e-07
3.07522e-07
3.11485e-07
3.19767e-07
3.32701e-07
3.52322e-07
3.70576e-07
3.68163e-07
3.46904e-07
3.53981e-07
4.98606e-07
7.61135e-07
5.72115e-07
1.79035e-06
)
;

boundaryField
{
    inlet
    {
        type            calculated;
        value           nonuniform List<scalar> 
23
(
6.77252e-06
6.73838e-06
6.70527e-06
6.67313e-06
6.64128e-06
6.60898e-06
6.57529e-06
6.53953e-06
6.50077e-06
6.45819e-06
6.41067e-06
6.35862e-06
6.29884e-06
6.20517e-06
6.12686e-06
6.03176e-06
5.91359e-06
5.76967e-06
5.59665e-06
5.39379e-06
5.15252e-06
4.96894e-06
4.61715e-06
)
;
    }
    outlet
    {
        type            calculated;
        value           nonuniform List<scalar> 
82
(
2.07316e-07
2.01207e-07
1.81048e-07
1.89875e-07
1.7828e-07
1.67504e-07
1.5772e-07
1.4945e-07
1.42156e-07
1.35844e-07
1.30531e-07
1.26034e-07
1.22596e-07
1.19701e-07
1.17547e-07
1.15953e-07
1.14992e-07
1.14544e-07
1.14398e-07
1.14848e-07
1.15496e-07
1.16444e-07
1.17663e-07
1.19044e-07
1.20692e-07
1.22423e-07
1.24257e-07
1.26087e-07
1.28151e-07
1.30155e-07
1.3223e-07
1.34417e-07
1.36516e-07
1.38832e-07
1.41064e-07
1.43432e-07
1.45814e-07
1.48236e-07
1.50773e-07
1.53207e-07
1.5583e-07
1.5841e-07
1.60984e-07
1.63564e-07
1.66232e-07
1.6884e-07
1.71473e-07
1.74284e-07
1.77149e-07
1.8028e-07
1.83592e-07
1.87136e-07
1.90942e-07
1.94832e-07
1.98945e-07
2.03149e-07
2.07579e-07
2.12216e-07
2.1709e-07
2.22459e-07
2.28129e-07
2.34175e-07
2.40406e-07
2.46685e-07
2.5294e-07
2.58808e-07
2.64175e-07
2.68596e-07
2.70368e-07
2.70579e-07
2.74702e-07
2.84309e-07
3.0001e-07
3.23632e-07
3.44915e-07
3.40747e-07
3.09303e-07
3.03089e-07
4.46721e-07
7.31631e-07
4.6502e-07
1.62204e-06
)
;
    }
    walls
    {
        type            calculated;
        value           nonuniform List<scalar> 0();
    }
    frontAndBack
    {
        type            empty;
    }
    procBoundary3to2
    {
        type            processor;
        value           nonuniform List<scalar> 
88
(
8.2101e-07
1.60307e-06
1.86391e-07
7.44496e-07
7.44496e-07
1.93195e-07
3.1645e-07
3.1645e-07
3.73775e-07
3.27278e-07
3.05106e-07
3.05106e-07
5.43523e-07
5.01926e-07
4.6783e-07
4.36319e-07
4.03667e-07
4.03667e-07
7.76602e-07
7.25837e-07
6.75292e-07
6.26107e-07
5.78133e-07
5.78133e-07
1.08286e-06
1.03309e-06
9.83823e-07
9.35391e-07
8.87911e-07
8.41215e-07
7.94841e-07
7.94841e-07
1.5255e-06
1.4854e-06
1.44465e-06
1.40336e-06
1.36162e-06
1.31958e-06
1.27733e-06
1.2349e-06
1.19235e-06
1.14955e-06
1.10649e-06
1.06315e-06
1.06315e-06
1.38691e-06
1.79719e-06
1.83789e-06
1.66979e-06
1.69975e-06
1.73961e-06
1.77141e-06
1.7962e-06
1.81731e-06
1.83563e-06
1.85254e-06
1.86646e-06
1.8774e-06
1.88585e-06
1.89129e-06
1.89422e-06
1.89439e-06
1.89191e-06
1.88714e-06
1.88009e-06
1.87105e-06
1.86022e-06
1.84769e-06
1.8337e-06
1.81837e-06
1.80157e-06
1.78364e-06
1.76472e-06
1.74483e-06
1.72406e-06
1.70237e-06
1.67996e-06
1.65666e-06
1.63253e-06
1.60774e-06
1.58206e-06
1.55567e-06
1.52847e-06
1.50034e-06
1.47135e-06
1.44158e-06
1.41131e-06
1.41131e-06
)
;
    }
    procBoundary3to6
    {
        type            processor;
        value           uniform 5.03512e-09;
    }
    procBoundary3to7
    {
        type            processor;
        value           nonuniform List<scalar> 
16
(
5.90317e-08
1.24505e-06
1.27881e-06
1.03759e-06
9.50254e-07
8.81266e-07
7.90463e-07
7.0047e-07
7.0047e-07
5.64075e-07
4.79079e-07
4.09657e-07
3.47449e-07
2.93406e-07
2.43411e-07
1.75452e-07
)
;
    }
}


// ************************************************************************* //
