/*--------------------------------*- C++ -*----------------------------------*\
| =========                 |                                                 |
| \\      /  F ield         | OpenFOAM: The Open Source CFD Toolbox           |
|  \\    /   O peration     | Version:  2306                                  |
|   \\  /    A nd           | Website:  www.openfoam.com                      |
|    \\/     M anipulation  |                                                 |
\*---------------------------------------------------------------------------*/
FoamFile
{
    version     2.0;
    format      ascii;
    arch        "LSB;label=32;scalar=64";
    class       volScalarField;
    location    "225";
    object      turbulenceProperties:k;
}
// * * * * * * * * * * * * * * * * * * * * * * * * * * * * * * * * * * * * * //

dimensions      [0 2 -2 0 0 0 0];

internalField   nonuniform List<scalar> 
1340
(
7.03128e-07
1.38434e-06
1.5673e-07
6.44403e-07
7.00955e-07
1.38637e-06
1.74213e-07
2.79242e-07
1.53695e-07
6.46823e-07
7.01204e-07
1.38703e-06
3.21243e-07
2.82916e-07
2.65435e-07
1.82692e-07
2.85697e-07
1.51939e-07
6.49427e-07
7.03136e-07
1.38696e-06
4.59273e-07
4.25649e-07
3.98137e-07
3.72554e-07
3.45899e-07
3.20778e-07
2.84333e-07
2.68525e-07
1.91756e-07
2.91899e-07
1.51322e-07
6.5213e-07
7.06185e-07
1.38658e-06
6.44557e-07
6.04245e-07
5.64025e-07
5.24844e-07
4.86434e-07
4.50325e-07
4.18975e-07
3.93356e-07
3.69362e-07
3.44222e-07
3.20433e-07
2.86051e-07
2.71979e-07
2.01323e-07
2.97724e-07
1.51712e-07
6.54691e-07
7.09894e-07
1.38598e-06
8.78136e-07
8.40334e-07
8.02714e-07
7.65534e-07
7.28866e-07
6.92579e-07
6.56335e-07
6.1983e-07
5.82984e-07
5.46157e-07
5.10217e-07
4.7475e-07
4.41259e-07
4.12249e-07
3.88544e-07
3.66165e-07
3.42623e-07
3.20231e-07
2.88077e-07
2.75755e-07
2.11261e-07
3.03058e-07
1.53019e-07
6.57063e-07
7.13903e-07
1.38491e-06
1.18871e-06
1.16085e-06
1.13236e-06
1.10326e-06
1.07367e-06
1.04364e-06
1.01326e-06
9.82572e-07
9.51613e-07
9.20301e-07
8.88569e-07
8.5642e-07
8.23932e-07
7.91062e-07
7.58126e-07
7.25371e-07
6.92857e-07
6.60468e-07
6.27873e-07
5.94877e-07
5.61543e-07
5.28138e-07
4.95462e-07
4.62997e-07
4.32233e-07
4.05589e-07
3.83782e-07
3.63015e-07
3.41101e-07
3.20116e-07
2.90362e-07
2.79801e-07
2.21488e-07
3.07796e-07
1.55181e-07
6.59157e-07
7.17687e-07
1.3837e-06
1.34462e-06
1.47308e-06
1.26867e-06
1.2789e-06
1.26801e-06
1.30789e-06
1.3262e-06
1.34322e-06
1.35731e-06
1.37043e-06
1.38226e-06
1.3926e-06
1.40099e-06
1.40749e-06
1.41255e-06
1.41557e-06
1.41681e-06
1.41633e-06
1.4142e-06
1.41057e-06
1.4055e-06
1.39916e-06
1.39173e-06
1.38325e-06
1.37377e-06
1.36334e-06
1.35209e-06
1.34017e-06
1.32755e-06
1.3144e-06
1.30065e-06
1.28637e-06
1.27157e-06
1.25621e-06
1.24036e-06
1.224e-06
1.2071e-06
1.1897e-06
1.17165e-06
1.15297e-06
1.13366e-06
1.11344e-06
1.09255e-06
1.07147e-06
1.04961e-06
1.02676e-06
1.00328e-06
9.79243e-07
9.54678e-07
9.2968e-07
9.04316e-07
8.78572e-07
8.52402e-07
8.25745e-07
7.98456e-07
7.70625e-07
7.42439e-07
7.14003e-07
6.85501e-07
6.57001e-07
6.28409e-07
5.99466e-07
5.7004e-07
5.4018e-07
5.10172e-07
4.80728e-07
4.5125e-07
4.23223e-07
3.98957e-07
3.79022e-07
3.59868e-07
3.39609e-07
3.20066e-07
2.92891e-07
2.84097e-07
2.31944e-07
3.11885e-07
1.58111e-07
6.60743e-07
7.21038e-07
1.38253e-06
1.42758e-06
1.17683e-06
1.08253e-06
1.14373e-06
1.15204e-06
1.17222e-06
1.1808e-06
1.19142e-06
1.20051e-06
1.20907e-06
1.21655e-06
1.22283e-06
1.22783e-06
1.23155e-06
1.23413e-06
1.23522e-06
1.23504e-06
1.23371e-06
1.23116e-06
1.22754e-06
1.223e-06
1.21756e-06
1.21131e-06
1.20431e-06
1.19656e-06
1.18817e-06
1.17928e-06
1.16986e-06
1.16004e-06
1.14985e-06
1.13925e-06
1.1283e-06
1.11696e-06
1.10528e-06
1.09325e-06
1.08082e-06
1.06803e-06
1.05482e-06
1.04109e-06
1.02682e-06
1.01201e-06
9.966e-07
9.80374e-07
9.63537e-07
9.46247e-07
9.28192e-07
9.09531e-07
8.90276e-07
8.70489e-07
8.50258e-07
8.29623e-07
8.08566e-07
7.87055e-07
7.65026e-07
7.42323e-07
7.19016e-07
6.95178e-07
6.70934e-07
6.46431e-07
6.21736e-07
5.96783e-07
5.71375e-07
5.45421e-07
5.18975e-07
4.92315e-07
4.66062e-07
4.39541e-07
4.14261e-07
3.92366e-07
3.74263e-07
3.56721e-07
3.38141e-07
3.20085e-07
2.95654e-07
2.88631e-07
2.42545e-07
3.15287e-07
1.61612e-07
6.62111e-07
7.23559e-07
1.38192e-06
1.11714e-06
1.03321e-06
9.99077e-07
1.04924e-06
1.0469e-06
1.05557e-06
1.05944e-06
1.06491e-06
1.0695e-06
1.07368e-06
1.07695e-06
1.07972e-06
1.08156e-06
1.08254e-06
1.08269e-06
1.08193e-06
1.08028e-06
1.07796e-06
1.07484e-06
1.07096e-06
1.06658e-06
1.06159e-06
1.05605e-06
1.04989e-06
1.04336e-06
1.03643e-06
1.02914e-06
1.02159e-06
1.01381e-06
1.00579e-06
9.97547e-07
9.891e-07
9.80405e-07
9.71508e-07
9.62416e-07
9.5308e-07
9.43478e-07
9.33549e-07
9.23228e-07
9.12433e-07
9.01233e-07
8.89613e-07
8.77288e-07
8.64416e-07
8.51012e-07
8.36938e-07
8.22319e-07
8.0713e-07
7.91463e-07
7.75379e-07
7.58898e-07
7.42013e-07
7.24693e-07
7.06838e-07
6.88297e-07
6.69106e-07
6.49285e-07
6.28917e-07
6.08156e-07
5.87069e-07
5.65602e-07
5.43613e-07
5.21036e-07
4.97953e-07
4.74585e-07
4.51454e-07
4.27868e-07
4.05346e-07
3.8579e-07
3.69465e-07
3.53549e-07
3.36665e-07
3.20154e-07
2.98644e-07
2.93397e-07
2.53206e-07
3.18023e-07
1.65664e-07
6.62369e-07
7.25833e-07
1.3823e-06
9.91974e-07
9.62936e-07
9.31317e-07
9.60788e-07
9.52843e-07
9.55872e-07
9.55785e-07
9.56814e-07
9.57304e-07
9.57664e-07
9.57572e-07
9.57197e-07
9.5632e-07
9.54937e-07
9.53077e-07
9.50748e-07
9.47877e-07
9.44677e-07
9.41027e-07
9.36942e-07
9.32568e-07
9.27822e-07
9.2269e-07
9.17232e-07
9.11647e-07
9.05761e-07
8.99748e-07
8.93676e-07
8.87429e-07
8.81101e-07
8.74649e-07
8.68144e-07
8.61482e-07
8.54774e-07
8.47962e-07
8.41009e-07
8.33891e-07
8.26531e-07
8.18846e-07
8.10835e-07
8.02517e-07
7.93874e-07
7.84664e-07
7.74913e-07
7.64656e-07
7.53861e-07
7.42566e-07
7.30783e-07
7.18606e-07
7.0606e-07
6.9318e-07
6.79942e-07
6.66321e-07
6.5215e-07
6.37332e-07
6.21837e-07
6.05602e-07
5.88777e-07
5.71466e-07
5.53703e-07
5.35511e-07
5.16777e-07
4.97417e-07
4.77556e-07
4.5735e-07
4.37219e-07
4.1648e-07
3.96649e-07
3.79361e-07
3.64745e-07
3.50427e-07
3.3523e-07
3.20328e-07
3.01868e-07
2.984e-07
2.63698e-07
3.20187e-07
1.69479e-07
6.61973e-07
7.26732e-07
1.38564e-06
9.16768e-07
8.89427e-07
8.55818e-07
8.72905e-07
8.6282e-07
8.61505e-07
8.57855e-07
8.55212e-07
8.52265e-07
8.49607e-07
8.46776e-07
8.4386e-07
8.4087e-07
8.37591e-07
8.34206e-07
8.30728e-07
8.2696e-07
8.23045e-07
8.19018e-07
8.14768e-07
8.10385e-07
8.05799e-07
8.01052e-07
7.96259e-07
7.91383e-07
7.86435e-07
7.81599e-07
7.76701e-07
7.71731e-07
7.66765e-07
7.61925e-07
7.57007e-07
7.52135e-07
7.47187e-07
7.42281e-07
7.37503e-07
7.32362e-07
7.27136e-07
7.21739e-07
7.1614e-07
7.10251e-07
7.04184e-07
6.97594e-07
6.90456e-07
6.83027e-07
6.75043e-07
6.66669e-07
6.57943e-07
6.48822e-07
6.39484e-07
6.29843e-07
6.19897e-07
6.09669e-07
5.98888e-07
5.87461e-07
5.754e-07
5.62527e-07
5.48987e-07
5.3497e-07
5.2038e-07
5.05338e-07
4.89808e-07
4.7362e-07
4.56933e-07
4.39866e-07
4.2274e-07
4.04841e-07
3.8773e-07
3.72713e-07
3.59822e-07
3.4713e-07
3.33683e-07
3.20559e-07
3.05343e-07
3.03777e-07
2.7431e-07
3.21729e-07
1.76578e-07
6.57791e-07
7.3046e-07
1.38936e-06
8.23215e-07
7.99468e-07
7.67293e-07
7.75385e-07
7.62928e-07
7.57641e-07
7.50601e-07
7.44225e-07
7.38806e-07
7.33136e-07
7.27707e-07
7.23057e-07
7.18018e-07
7.13059e-07
7.08617e-07
7.04303e-07
6.99439e-07
6.95221e-07
6.90868e-07
6.86458e-07
6.8227e-07
6.77774e-07
6.73683e-07
6.69679e-07
6.65534e-07
6.61671e-07
6.57961e-07
6.54285e-07
6.50729e-07
6.47097e-07
6.43904e-07
6.40749e-07
6.37587e-07
6.34366e-07
6.31605e-07
6.28771e-07
6.25632e-07
6.22509e-07
6.19412e-07
6.16205e-07
6.12691e-07
6.0919e-07
6.0498e-07
6.00542e-07
5.95942e-07
5.90667e-07
5.8528e-07
5.79664e-07
5.73598e-07
5.67568e-07
5.61268e-07
5.5468e-07
5.4802e-07
5.40739e-07
5.32817e-07
5.24314e-07
5.15023e-07
5.0493e-07
4.94407e-07
4.83306e-07
4.71726e-07
4.59713e-07
4.47053e-07
4.33925e-07
4.20352e-07
4.06538e-07
3.91827e-07
3.77791e-07
3.6526e-07
3.54251e-07
3.43414e-07
3.32001e-07
3.20992e-07
3.09685e-07
3.09835e-07
2.86788e-07
3.20407e-07
1.90378e-07
6.45275e-07
7.23747e-07
1.34285e-06
7.20953e-07
7.0469e-07
6.76559e-07
6.75841e-07
6.61713e-07
6.53132e-07
6.43159e-07
6.3442e-07
6.26698e-07
6.18815e-07
6.11721e-07
6.05456e-07
5.98896e-07
5.9281e-07
5.87558e-07
5.82342e-07
5.76843e-07
5.7241e-07
5.67593e-07
5.63315e-07
5.59343e-07
5.54964e-07
5.51475e-07
5.48244e-07
5.44698e-07
5.41759e-07
5.38876e-07
5.36247e-07
5.33968e-07
5.31597e-07
5.296e-07
5.2796e-07
5.26197e-07
5.24564e-07
5.23483e-07
5.22062e-07
5.20702e-07
5.19425e-07
5.18243e-07
5.16924e-07
5.15532e-07
5.13944e-07
5.11895e-07
5.0993e-07
5.07524e-07
5.04851e-07
5.02198e-07
4.99328e-07
4.96254e-07
4.93269e-07
4.90217e-07
4.86917e-07
4.83604e-07
4.79748e-07
4.753e-07
4.70243e-07
4.64449e-07
4.57914e-07
4.50954e-07
4.43486e-07
4.35594e-07
4.27288e-07
4.18425e-07
4.09088e-07
3.9921e-07
3.8894e-07
3.77704e-07
3.66957e-07
3.57061e-07
3.48092e-07
3.39321e-07
3.30233e-07
3.2183e-07
3.14949e-07
3.16989e-07
3.00121e-07
3.18141e-07
2.05459e-07
6.44605e-07
7.17902e-07
1.34116e-06
6.29349e-07
6.18024e-07
5.92539e-07
5.86624e-07
5.72035e-07
5.61064e-07
5.49955e-07
5.40392e-07
5.30679e-07
5.22076e-07
5.14406e-07
5.06757e-07
4.9963e-07
4.93128e-07
4.87351e-07
4.81377e-07
4.76107e-07
4.71317e-07
4.66364e-07
4.62388e-07
4.58563e-07
4.54561e-07
4.5143e-07
4.48531e-07
4.45493e-07
4.43326e-07
4.41013e-07
4.39003e-07
4.37554e-07
4.36119e-07
4.34894e-07
4.34221e-07
4.33392e-07
4.32806e-07
4.3266e-07
4.32255e-07
4.32069e-07
4.32082e-07
4.32102e-07
4.3202e-07
4.32005e-07
4.3168e-07
4.31314e-07
4.30939e-07
4.30175e-07
4.29523e-07
4.28888e-07
4.28139e-07
4.27457e-07
4.26854e-07
4.26396e-07
4.25784e-07
4.25064e-07
4.24051e-07
4.22397e-07
4.20198e-07
4.17373e-07
4.13891e-07
4.10095e-07
4.05871e-07
4.01298e-07
3.96416e-07
3.91041e-07
3.85156e-07
3.78733e-07
3.71788e-07
3.63864e-07
3.56248e-07
3.4886e-07
3.41914e-07
3.35283e-07
3.28637e-07
3.23177e-07
3.20758e-07
3.2492e-07
3.12817e-07
3.17207e-07
2.20472e-07
6.50462e-07
6.99389e-07
1.34082e-06
5.55342e-07
5.1011e-07
5.39475e-07
5.16328e-07
5.08222e-07
4.93281e-07
4.81197e-07
4.70083e-07
4.5969e-07
4.49683e-07
4.40696e-07
4.32636e-07
4.24817e-07
4.17498e-07
4.10978e-07
4.05093e-07
3.99065e-07
3.94078e-07
3.89342e-07
3.8479e-07
3.81081e-07
3.77356e-07
3.7411e-07
3.71233e-07
3.68669e-07
3.66399e-07
3.6459e-07
3.62952e-07
3.61527e-07
3.60719e-07
3.59979e-07
3.59384e-07
3.59407e-07
3.59224e-07
3.59397e-07
3.59947e-07
3.60267e-07
3.60982e-07
3.61851e-07
3.62628e-07
3.63483e-07
3.64292e-07
3.65001e-07
3.6577e-07
3.66428e-07
3.67094e-07
3.67833e-07
3.68658e-07
3.69593e-07
3.7067e-07
3.71883e-07
3.73314e-07
3.74677e-07
3.75895e-07
3.7693e-07
3.77343e-07
3.77314e-07
3.76794e-07
3.75725e-07
3.74462e-07
3.72916e-07
3.71096e-07
3.69066e-07
3.66601e-07
3.6364e-07
3.60172e-07
3.56116e-07
3.51115e-07
3.46258e-07
3.41111e-07
3.3607e-07
3.3156e-07
3.27398e-07
3.25094e-07
3.27002e-07
3.33212e-07
3.24374e-07
3.17331e-07
2.38838e-07
6.59666e-07
6.75617e-07
1.34009e-06
4.79706e-07
4.36209e-07
4.67733e-07
4.46417e-07
4.37338e-07
4.22651e-07
4.10881e-07
3.99476e-07
3.89189e-07
3.79611e-07
3.70507e-07
3.6249e-07
3.54975e-07
3.48064e-07
3.41763e-07
3.35915e-07
3.30513e-07
3.25829e-07
3.21535e-07
3.17463e-07
3.13958e-07
3.10728e-07
3.08199e-07
3.05639e-07
3.0362e-07
3.01924e-07
3.00498e-07
2.99618e-07
2.98708e-07
2.98374e-07
2.98155e-07
2.98224e-07
2.9866e-07
2.99044e-07
2.99831e-07
3.00891e-07
3.01945e-07
3.03187e-07
3.04694e-07
3.06103e-07
3.07593e-07
3.0914e-07
3.10618e-07
3.12259e-07
3.13901e-07
3.15663e-07
3.17532e-07
3.19539e-07
3.21829e-07
3.24303e-07
3.26893e-07
3.29738e-07
3.32569e-07
3.35209e-07
3.37752e-07
3.39737e-07
3.41355e-07
3.42646e-07
3.43541e-07
3.44335e-07
3.44966e-07
3.45424e-07
3.45715e-07
3.45666e-07
3.45148e-07
3.44149e-07
3.42576e-07
3.40121e-07
3.3766e-07
3.34508e-07
3.3127e-07
3.28804e-07
3.27122e-07
3.28069e-07
3.34029e-07
3.41963e-07
3.35119e-07
3.19314e-07
2.63578e-07
6.72329e-07
6.47816e-07
1.34033e-06
4.15103e-07
3.75586e-07
4.03941e-07
3.8414e-07
3.743e-07
3.60289e-07
3.48845e-07
3.37759e-07
3.28034e-07
3.18557e-07
3.10077e-07
3.02556e-07
2.95395e-07
2.89013e-07
2.83236e-07
2.77786e-07
2.73127e-07
2.68909e-07
2.65137e-07
2.61599e-07
2.58652e-07
2.562e-07
2.53935e-07
2.52075e-07
2.50699e-07
2.49372e-07
2.48646e-07
2.48259e-07
2.47762e-07
2.47926e-07
2.48128e-07
2.48704e-07
2.49494e-07
2.50287e-07
2.51547e-07
2.53073e-07
2.54441e-07
2.56124e-07
2.58021e-07
2.59793e-07
2.61708e-07
2.63851e-07
2.65854e-07
2.68083e-07
2.70552e-07
2.73008e-07
2.75753e-07
2.78647e-07
2.81881e-07
2.85293e-07
2.88837e-07
2.92675e-07
2.9643e-07
3.00062e-07
3.03652e-07
3.06792e-07
3.09676e-07
3.124e-07
3.1489e-07
3.17365e-07
3.19747e-07
3.22078e-07
3.24299e-07
3.26209e-07
3.27745e-07
3.28834e-07
3.29376e-07
3.2912e-07
3.28684e-07
3.27296e-07
3.25819e-07
3.25427e-07
3.26295e-07
3.30581e-07
3.40156e-07
3.49023e-07
3.42648e-07
3.2107e-07
2.92166e-07
6.8812e-07
6.13599e-07
1.34424e-06
3.56023e-07
3.20747e-07
3.47296e-07
3.29697e-07
3.1977e-07
3.06892e-07
2.95835e-07
2.85768e-07
2.76622e-07
2.67838e-07
2.60222e-07
2.5331e-07
2.46875e-07
2.41086e-07
2.36053e-07
2.31349e-07
2.27403e-07
2.23893e-07
2.20606e-07
2.17841e-07
2.15661e-07
2.13812e-07
2.12032e-07
2.10734e-07
2.10086e-07
2.09213e-07
2.08921e-07
2.08965e-07
2.08996e-07
2.09464e-07
2.10125e-07
2.11044e-07
2.12178e-07
2.13406e-07
2.15026e-07
2.16811e-07
2.1852e-07
2.20619e-07
2.22799e-07
2.2507e-07
2.27387e-07
2.30093e-07
2.32722e-07
2.35596e-07
2.38757e-07
2.41871e-07
2.45442e-07
2.4906e-07
2.5298e-07
2.57094e-07
2.61341e-07
2.65789e-07
2.70163e-07
2.74562e-07
2.78859e-07
2.82909e-07
2.86853e-07
2.90711e-07
2.94467e-07
2.98275e-07
3.02022e-07
3.05795e-07
3.09501e-07
3.12919e-07
3.16111e-07
3.18898e-07
3.21174e-07
3.22785e-07
3.24141e-07
3.24405e-07
3.24495e-07
3.25825e-07
3.28809e-07
3.35902e-07
3.48157e-07
3.57283e-07
3.51438e-07
3.3017e-07
3.34405e-07
7.12595e-07
5.81742e-07
1.3624e-06
3.05959e-07
2.72999e-07
2.97089e-07
2.80668e-07
2.71682e-07
2.59677e-07
2.49605e-07
2.40377e-07
2.31652e-07
2.23748e-07
2.17002e-07
2.10787e-07
2.05066e-07
1.99889e-07
1.95504e-07
1.91723e-07
1.88411e-07
1.85441e-07
1.82777e-07
1.81046e-07
1.79387e-07
1.78053e-07
1.77043e-07
1.7625e-07
1.76193e-07
1.75924e-07
1.76009e-07
1.76391e-07
1.76993e-07
1.77793e-07
1.78668e-07
1.7999e-07
1.81227e-07
1.82726e-07
1.84514e-07
1.86274e-07
1.88182e-07
1.90217e-07
1.92587e-07
1.9495e-07
1.97338e-07
2.00183e-07
2.03012e-07
2.06039e-07
2.09272e-07
2.12687e-07
2.16334e-07
2.20092e-07
2.24084e-07
2.28219e-07
2.32556e-07
2.36951e-07
2.41446e-07
2.46007e-07
2.50507e-07
2.54979e-07
2.59492e-07
2.64017e-07
2.68536e-07
2.73206e-07
2.7787e-07
2.82639e-07
2.87382e-07
2.91932e-07
2.96355e-07
3.00396e-07
3.03984e-07
3.06953e-07
3.09343e-07
3.10613e-07
3.12292e-07
3.15724e-07
3.21499e-07
3.32051e-07
3.46505e-07
3.53634e-07
3.44714e-07
3.24988e-07
3.6192e-07
7.27697e-07
5.27434e-07
1.39414e-06
2.56713e-07
2.2803e-07
2.49956e-07
2.37087e-07
2.28511e-07
2.18653e-07
2.10328e-07
2.03007e-07
1.95899e-07
1.8965e-07
1.84668e-07
1.80062e-07
1.75947e-07
1.72132e-07
1.69197e-07
1.66837e-07
1.64701e-07
1.62988e-07
1.61481e-07
1.60876e-07
1.603e-07
1.5975e-07
1.59723e-07
1.59888e-07
1.60476e-07
1.61004e-07
1.61844e-07
1.62796e-07
1.64046e-07
1.65463e-07
1.66876e-07
1.68756e-07
1.70513e-07
1.72639e-07
1.7493e-07
1.77318e-07
1.79902e-07
1.82618e-07
1.85756e-07
1.88793e-07
1.92119e-07
1.9567e-07
1.99265e-07
2.03008e-07
2.06897e-07
2.10908e-07
2.14862e-07
2.19009e-07
2.2317e-07
2.27421e-07
2.31896e-07
2.36433e-07
2.41223e-07
2.46104e-07
2.51127e-07
2.56209e-07
2.61331e-07
2.66462e-07
2.71479e-07
2.76564e-07
2.81587e-07
2.86694e-07
2.91812e-07
2.9686e-07
3.01853e-07
3.06568e-07
3.11006e-07
3.15069e-07
3.19019e-07
3.21926e-07
3.24296e-07
3.27782e-07
3.33198e-07
3.42992e-07
3.56129e-07
3.61987e-07
3.57702e-07
3.56884e-07
4.3912e-07
7.69057e-07
5.44637e-07
1.53166e-06
1.86801e-07
1.6574e-07
1.81853e-07
1.72883e-07
1.63765e-07
1.55406e-07
1.47945e-07
1.4176e-07
1.36429e-07
1.31936e-07
1.28259e-07
1.25255e-07
1.23077e-07
1.21338e-07
1.20162e-07
1.19404e-07
1.19117e-07
1.19199e-07
1.19505e-07
1.20232e-07
1.21096e-07
1.22184e-07
1.23454e-07
1.24846e-07
1.26429e-07
1.28078e-07
1.29801e-07
1.31532e-07
1.33438e-07
1.3531e-07
1.37253e-07
1.39289e-07
1.41282e-07
1.43454e-07
1.4559e-07
1.47851e-07
1.50145e-07
1.52497e-07
1.54954e-07
1.57362e-07
1.59923e-07
1.62471e-07
1.65025e-07
1.67587e-07
1.70212e-07
1.7278e-07
1.75357e-07
1.78048e-07
1.8077e-07
1.83692e-07
1.8677e-07
1.9006e-07
1.93599e-07
1.97264e-07
2.01151e-07
2.0514e-07
2.09296e-07
2.13562e-07
2.1793e-07
2.22578e-07
2.27369e-07
2.32396e-07
2.37547e-07
2.42749e-07
2.47947e-07
2.52874e-07
2.57505e-07
2.61611e-07
2.63954e-07
2.64908e-07
2.68321e-07
2.75453e-07
2.86589e-07
3.03484e-07
3.19202e-07
3.17126e-07
2.98839e-07
3.04932e-07
4.29449e-07
6.55764e-07
4.93004e-07
1.54293e-06
)
;

boundaryField
{
    inlet
    {
        type            calculated;
        value           nonuniform List<scalar> 
23
(
5.80418e-06
5.77507e-06
5.74689e-06
5.71953e-06
5.69239e-06
5.66484e-06
5.63609e-06
5.60553e-06
5.57238e-06
5.5359e-06
5.49515e-06
5.4504e-06
5.39918e-06
5.31935e-06
5.25262e-06
5.17103e-06
5.06949e-06
4.94579e-06
4.79705e-06
4.62227e-06
4.41444e-06
4.25385e-06
3.95173e-06
)
;
    }
    outlet
    {
        type            calculated;
        value           nonuniform List<scalar> 
82
(
1.78627e-07
1.73369e-07
1.56016e-07
1.63619e-07
1.53641e-07
1.44367e-07
1.35948e-07
1.28833e-07
1.22559e-07
1.17131e-07
1.12564e-07
1.08699e-07
1.05746e-07
1.03261e-07
1.01413e-07
1.00046e-07
9.92249e-08
9.88446e-08
9.87242e-08
9.91164e-08
9.9679e-08
1.005e-07
1.01553e-07
1.02746e-07
1.04169e-07
1.05664e-07
1.07247e-07
1.08827e-07
1.10607e-07
1.12337e-07
1.14128e-07
1.16015e-07
1.17826e-07
1.19824e-07
1.2175e-07
1.23794e-07
1.25849e-07
1.2794e-07
1.30129e-07
1.32229e-07
1.34492e-07
1.36719e-07
1.38941e-07
1.41167e-07
1.4347e-07
1.4572e-07
1.47992e-07
1.50418e-07
1.52889e-07
1.5559e-07
1.58446e-07
1.61502e-07
1.64784e-07
1.68139e-07
1.71685e-07
1.75311e-07
1.79131e-07
1.83128e-07
1.87328e-07
1.91954e-07
1.96837e-07
2.02044e-07
2.07409e-07
2.12815e-07
2.18201e-07
2.23254e-07
2.27877e-07
2.31688e-07
2.33217e-07
2.33399e-07
2.36949e-07
2.45215e-07
2.58713e-07
2.79023e-07
2.97324e-07
2.93741e-07
2.66769e-07
2.61524e-07
3.85164e-07
6.30989e-07
4.00511e-07
1.39919e-06
)
;
    }
    walls
    {
        type            calculated;
        value           nonuniform List<scalar> 0();
    }
    frontAndBack
    {
        type            empty;
    }
    procBoundary3to2
    {
        type            processor;
        value           nonuniform List<scalar> 
88
(
7.08228e-07
1.38177e-06
1.61049e-07
6.41693e-07
6.41693e-07
1.66421e-07
2.72626e-07
2.72626e-07
3.21934e-07
2.81886e-07
2.62789e-07
2.62789e-07
4.68143e-07
4.32314e-07
4.02945e-07
3.75804e-07
3.47681e-07
3.47681e-07
6.68909e-07
6.25181e-07
5.81644e-07
5.39278e-07
4.97955e-07
4.97955e-07
9.32694e-07
8.89833e-07
8.47396e-07
8.05681e-07
7.64786e-07
7.24564e-07
6.8462e-07
6.8462e-07
1.31394e-06
1.2794e-06
1.2443e-06
1.20874e-06
1.17279e-06
1.13658e-06
1.10019e-06
1.06364e-06
1.02699e-06
9.90134e-07
9.53045e-07
9.15715e-07
9.15715e-07
1.19616e-06
1.54558e-06
1.58155e-06
1.43825e-06
1.46415e-06
1.49834e-06
1.52569e-06
1.54703e-06
1.56522e-06
1.58101e-06
1.59558e-06
1.60758e-06
1.617e-06
1.62428e-06
1.62897e-06
1.63149e-06
1.63165e-06
1.62951e-06
1.62541e-06
1.61934e-06
1.61155e-06
1.60222e-06
1.59143e-06
1.57938e-06
1.56618e-06
1.55171e-06
1.53627e-06
1.51996e-06
1.50284e-06
1.48494e-06
1.46627e-06
1.44696e-06
1.4269e-06
1.40612e-06
1.38476e-06
1.36265e-06
1.33992e-06
1.31648e-06
1.29226e-06
1.26729e-06
1.24165e-06
1.21558e-06
1.21558e-06
)
;
    }
    procBoundary3to6
    {
        type            processor;
        value           uniform 4.36054e-09;
    }
    procBoundary3to7
    {
        type            processor;
        value           nonuniform List<scalar> 
16
(
5.1122e-08
1.07183e-06
1.09978e-06
8.93625e-07
8.18547e-07
7.59044e-07
6.8083e-07
6.03322e-07
6.03322e-07
4.85843e-07
4.12636e-07
3.52841e-07
2.99261e-07
2.52713e-07
2.09653e-07
1.51121e-07
)
;
    }
}


// ************************************************************************* //
