/*--------------------------------*- C++ -*----------------------------------*\
| =========                 |                                                 |
| \\      /  F ield         | OpenFOAM: The Open Source CFD Toolbox           |
|  \\    /   O peration     | Version:  2306                                  |
|   \\  /    A nd           | Website:  www.openfoam.com                      |
|    \\/     M anipulation  |                                                 |
\*---------------------------------------------------------------------------*/
FoamFile
{
    version     2.0;
    format      ascii;
    arch        "LSB;label=32;scalar=64";
    class       volSymmTensorField;
    location    "225";
    object      turbulenceProperties:R;
}
// * * * * * * * * * * * * * * * * * * * * * * * * * * * * * * * * * * * * * //

dimensions      [0 2 -2 0 0 0 0];

internalField   nonuniform List<symmTensor> 
1340
(
(4.89141e-07 2.97328e-08 -4.14964e-20 4.21542e-07 -5.37248e-21 4.95573e-07)
(8.42343e-07 3.61977e-08 2.09284e-20 1.03994e-06 2.4282e-21 8.86396e-07)
(1.03298e-07 -1.79874e-09 -8.12913e-20 9.70496e-08 -1.01707e-20 1.13112e-07)
(3.8939e-07 9.84205e-09 -1.2723e-20 4.86251e-07 -1.43887e-21 4.13165e-07)
(4.85365e-07 3.11125e-08 6.1377e-21 4.22116e-07 6.62935e-22 4.94429e-07)
(8.44222e-07 3.58471e-08 -8.4077e-20 1.04142e-06 -9.51678e-21 8.87107e-07)
(1.00605e-07 -1.45428e-09 -0 1.29796e-07 -5.00473e-23 1.18025e-07)
(1.65791e-07 -5.42685e-09 -2.75068e-20 2.10715e-07 -3.24815e-21 1.81977e-07)
(9.99461e-08 -1.42065e-09 7.72587e-20 9.63343e-08 9.69197e-21 1.1111e-07)
(3.90868e-07 9.30994e-09 3.89291e-20 4.88169e-07 4.60131e-21 4.14608e-07)
(4.83145e-07 3.23095e-08 1.30979e-23 4.24189e-07 7.70804e-23 4.95073e-07)
(8.45657e-07 3.52929e-08 6.9266e-20 1.04179e-06 7.78143e-21 8.86613e-07)
(1.87604e-07 6.96199e-09 -3.50248e-20 2.40812e-07 -4.20723e-21 2.1407e-07)
(1.6479e-07 5.10523e-09 7.24715e-22 2.1215e-07 1.78225e-22 1.88891e-07)
(1.54677e-07 1.59282e-09 4.78733e-21 1.99999e-07 5.70995e-22 1.76193e-07)
(1.05665e-07 -2.56485e-09 -0 1.36069e-07 -1.00696e-23 1.2365e-07)
(1.69791e-07 -6.6253e-09 -1.25545e-22 2.15291e-07 -2.1993e-23 1.86312e-07)
(9.74433e-08 -1.08765e-09 5.53332e-22 9.64971e-08 9.52086e-23 1.09938e-07)
(3.92484e-07 8.96477e-09 3.25284e-22 4.9019e-07 6.01488e-23 4.16179e-07)
(4.82244e-07 3.33769e-08 2.86598e-24 4.27173e-07 2.49111e-24 4.96855e-07)
(8.46562e-07 3.43484e-08 3.73427e-22 1.04172e-06 6.87359e-23 8.85644e-07)
(2.68013e-07 9.27653e-09 2.4828e-21 3.44363e-07 3.90342e-22 3.06171e-07)
(2.48308e-07 8.2886e-09 1.05401e-20 3.19236e-07 1.27602e-21 2.83754e-07)
(2.32193e-07 7.5531e-09 1.0713e-20 2.98641e-07 1.08361e-21 2.6544e-07)
(2.17276e-07 7.04077e-09 -3.72834e-20 2.79474e-07 -4.46682e-21 2.48357e-07)
(2.01686e-07 6.4298e-09 9.7341e-21 2.59488e-07 1.26048e-21 2.30623e-07)
(1.86979e-07 5.44616e-09 -1.48569e-20 2.40812e-07 -1.8313e-21 2.13764e-07)
(1.6535e-07 3.67142e-09 9.61921e-23 2.13489e-07 1.37047e-22 1.89826e-07)
(1.56401e-07 1.26439e-10 3.53847e-20 2.02373e-07 4.30242e-21 1.78276e-07)
(1.11145e-07 -3.72277e-09 -0 1.42715e-07 -7.19166e-23 1.29651e-07)
(1.73652e-07 -7.76002e-09 2.05016e-21 2.19641e-07 1.41046e-22 1.90505e-07)
(9.57235e-08 -7.82345e-10 -7.06305e-20 9.74277e-08 -8.8367e-21 1.09494e-07)
(3.94128e-07 8.75569e-09 -3.55524e-20 4.92272e-07 -4.20791e-21 4.17859e-07)
(4.8236e-07 3.43632e-08 -2.32398e-21 4.30678e-07 -2.29604e-22 4.99332e-07)
(8.47065e-07 3.29927e-08 9.1416e-21 1.04155e-06 1.03853e-21 8.84548e-07)
(3.75323e-07 8.51097e-09 2.05462e-20 4.84083e-07 2.13868e-21 4.29708e-07)
(3.51942e-07 8.63583e-09 -1.89837e-20 4.53716e-07 -2.31716e-21 4.02832e-07)
(3.28564e-07 8.44288e-09 -4.94713e-21 4.23465e-07 -6.17585e-22 3.76022e-07)
(3.05762e-07 8.04671e-09 -3.07343e-20 3.94036e-07 -3.58046e-21 3.49889e-07)
(2.83375e-07 7.55501e-09 -7.11248e-21 3.65184e-07 -6.88929e-22 3.24308e-07)
(2.62337e-07 6.98257e-09 4.98861e-21 3.38106e-07 6.22047e-22 3.00207e-07)
(2.44006e-07 6.1773e-09 2.54695e-21 3.14636e-07 2.8047e-22 2.79307e-07)
(2.29036e-07 5.61913e-09 5.23841e-23 2.95421e-07 2.56939e-23 2.62255e-07)
(2.15074e-07 5.2676e-09 6.23756e-21 2.77419e-07 6.77214e-22 2.46231e-07)
(2.00397e-07 4.79772e-09 -1.70835e-20 2.58542e-07 -1.96552e-21 2.29505e-07)
(1.8651e-07 3.91794e-09 3.24532e-20 2.40815e-07 3.90484e-21 2.1354e-07)
(1.66174e-07 2.20925e-09 -2.10644e-20 2.1497e-07 -2.72713e-21 1.90957e-07)
(1.58426e-07 -1.3553e-09 -3.34103e-20 2.04922e-07 -3.9912e-21 1.8061e-07)
(1.16996e-07 -4.92057e-09 -0 1.49676e-07 7.32409e-23 1.35974e-07)
(1.77295e-07 -8.82909e-09 -1.95123e-21 2.2368e-07 -1.27753e-22 1.94473e-07)
(9.47108e-08 -4.92992e-10 6.70482e-20 9.90298e-08 8.36526e-21 1.09684e-07)
(3.95658e-07 8.66035e-09 3.36016e-20 4.94237e-07 3.9562e-21 4.19487e-07)
(4.83132e-07 3.52663e-08 2.21167e-21 4.34446e-07 2.19356e-22 5.0221e-07)
(8.47303e-07 3.12615e-08 -8.60163e-21 1.04131e-06 -9.70009e-22 8.83349e-07)
(5.10582e-07 -4.85229e-09 -2.22213e-21 6.60259e-07 -3.73561e-22 5.85432e-07)
(4.88524e-07 -2.86915e-09 -1.20158e-20 6.31914e-07 -1.45849e-21 5.60229e-07)
(4.66619e-07 -1.03356e-09 -2.14404e-20 6.0366e-07 -2.22448e-21 5.35149e-07)
(4.45011e-07 6.85271e-10 7.58409e-21 5.75696e-07 9.78009e-22 5.10362e-07)
(4.23735e-07 2.26545e-09 -1.95668e-21 5.48082e-07 -2.09457e-22 4.85916e-07)
(4.02706e-07 3.63028e-09 9.79674e-21 5.20727e-07 1.27262e-21 4.61724e-07)
(3.81714e-07 4.68486e-09 2.53107e-20 4.93395e-07 2.81524e-21 4.37561e-07)
(3.60557e-07 5.3509e-09 1.39749e-22 4.6588e-07 -4.18093e-23 4.13224e-07)
(3.39174e-07 5.63961e-09 1.49619e-20 4.38135e-07 1.70663e-21 3.88659e-07)
(3.17771e-07 5.63142e-09 -1.37195e-21 4.10433e-07 -2.19871e-22 3.6411e-07)
(2.96871e-07 5.43135e-09 1.3149e-21 3.83425e-07 2.09294e-22 3.40139e-07)
(2.76216e-07 5.13475e-09 1.3528e-20 3.56765e-07 1.54923e-21 3.1652e-07)
(2.56727e-07 4.74057e-09 -4.69378e-21 3.31629e-07 -6.11666e-22 2.94163e-07)
(2.398e-07 4.11006e-09 -2.36139e-21 3.09875e-07 -2.57932e-22 2.74823e-07)
(2.25976e-07 3.71971e-09 7.83441e-23 2.92067e-07 2.68246e-23 2.59046e-07)
(2.12971e-07 3.51894e-09 -4.67737e-23 2.75259e-07 -3.81286e-24 2.44099e-07)
(1.99248e-07 3.17979e-09 -1.36943e-22 2.57563e-07 -8.06311e-23 2.28436e-07)
(1.8621e-07 2.39024e-09 -1.76968e-20 2.40839e-07 -2.06379e-21 2.13413e-07)
(1.67267e-07 7.24943e-10 2.00361e-20 2.16595e-07 2.46766e-21 1.92291e-07)
(1.60727e-07 -2.84858e-09 -1.33655e-22 2.07617e-07 -7.62598e-23 1.83166e-07)
(1.2314e-07 -6.15165e-09 -0 1.56854e-07 4.51047e-24 1.42528e-07)
(1.80646e-07 -9.82682e-09 1.85263e-21 2.27331e-07 1.1337e-22 1.98138e-07)
(9.43434e-08 -2.13193e-10 -6.83459e-20 1.01246e-07 -8.45022e-21 1.10447e-07)
(3.97049e-07 8.66879e-09 1.12553e-22 4.96051e-07 1.18004e-22 4.21026e-07)
(4.84281e-07 3.60768e-08 -6.29175e-21 4.3827e-07 -8.12127e-22 5.05256e-07)
(8.47157e-07 2.91678e-08 -4.6986e-23 1.04079e-06 -3.42315e-24 8.81872e-07)
(7.01918e-07 -4.6199e-08 2.13632e-21 8.83017e-07 2.0829e-23 7.92482e-07)
(6.84228e-07 -4.25814e-08 -1.34521e-20 8.63562e-07 -1.40838e-21 7.73907e-07)
(6.66273e-07 -3.89813e-08 -2.69117e-22 8.43526e-07 2.99989e-22 7.54915e-07)
(6.48064e-07 -3.5387e-08 1.22122e-20 8.22937e-07 1.1035e-21 7.35518e-07)
(6.29679e-07 -3.18198e-08 -1.30371e-20 8.01875e-07 -1.47743e-21 7.15793e-07)
(6.11151e-07 -2.83088e-08 2.37897e-21 7.80362e-07 4.16971e-22 6.95773e-07)
(5.9254e-07 -2.48854e-08 9.21287e-22 7.5846e-07 4.62641e-23 6.75516e-07)
(5.73884e-07 -2.15925e-08 -2.21019e-21 7.36201e-07 -8.59995e-23 6.55058e-07)
(5.55203e-07 -1.84733e-08 1.54396e-20 7.13605e-07 1.87974e-21 6.34418e-07)
(5.36447e-07 -1.5573e-08 2.17015e-20 6.90612e-07 2.18836e-21 6.13543e-07)
(5.17567e-07 -1.29181e-08 1.614e-21 6.67183e-07 2.36233e-23 5.92388e-07)
(4.98548e-07 -1.05107e-08 5.70284e-21 6.43339e-07 5.51343e-22 5.70954e-07)
(4.79416e-07 -8.34354e-09 -6.14776e-21 6.19153e-07 -7.17182e-22 5.49294e-07)
(4.60127e-07 -6.34586e-09 -6.8152e-23 5.94617e-07 2.85617e-22 5.2738e-07)
(4.40847e-07 -4.44787e-09 3.23239e-20 5.69982e-07 3.55762e-21 5.05423e-07)
(4.21718e-07 -2.64567e-09 4.4311e-23 5.45439e-07 -3.5085e-22 4.83585e-07)
(4.02769e-07 -9.73035e-10 -1.83963e-20 5.21036e-07 -2.08346e-21 4.61909e-07)
(3.8393e-07 4.86349e-10 -3.75905e-21 4.9669e-07 -4.07326e-22 4.40316e-07)
(3.64997e-07 1.63704e-09 -1.72955e-20 4.72164e-07 -1.95398e-21 4.18586e-07)
(3.45838e-07 2.41767e-09 -4.06812e-21 4.47331e-07 -3.65545e-22 3.96586e-07)
(3.26473e-07 2.83782e-09 1.38716e-22 4.2225e-07 -5.23346e-23 3.74363e-07)
(3.07054e-07 2.97922e-09 -2.13469e-20 3.97127e-07 -2.45847e-21 3.52095e-07)
(2.88056e-07 2.94591e-09 -1.40638e-21 3.72568e-07 -8.74253e-23 3.303e-07)
(2.69158e-07 2.8181e-09 -5.19784e-21 3.48153e-07 -6.01145e-22 3.08683e-07)
(2.5127e-07 2.57718e-09 -3.8957e-23 3.25051e-07 2.3383e-23 2.88146e-07)
(2.3575e-07 2.10514e-09 2.24855e-21 3.05043e-07 1.81055e-22 2.70385e-07)
(2.23051e-07 1.87057e-09 -1.8242e-20 2.88642e-07 -2.10066e-21 2.55871e-07)
(2.10993e-07 1.80699e-09 1.65854e-20 2.73037e-07 2.0998e-21 2.42e-07)
(1.98233e-07 1.58471e-09 1.52574e-20 2.5655e-07 1.85244e-21 2.27418e-07)
(1.86046e-07 8.70722e-10 2.77658e-20 2.40841e-07 3.19033e-21 2.13345e-07)
(1.68604e-07 -7.7373e-10 -3.23157e-20 2.18327e-07 -3.97417e-21 1.93794e-07)
(1.63274e-07 -4.34735e-09 -5.52689e-23 2.10419e-07 7.25079e-23 1.85908e-07)
(1.29526e-07 -7.40823e-09 -0 1.64189e-07 -2.71394e-24 1.4926e-07)
(1.83636e-07 -1.07468e-08 -1.74774e-21 2.30524e-07 -1.78753e-22 2.01431e-07)
(9.45813e-08 6.55465e-11 1.74565e-20 1.04037e-07 2.15283e-21 1.11743e-07)
(3.98239e-07 8.7673e-09 7.50482e-21 4.9765e-07 8.80521e-22 4.22425e-07)
(4.85439e-07 3.67962e-08 -7.37593e-21 4.41833e-07 -9.64456e-22 5.08102e-07)
(8.46807e-07 2.67042e-08 1.88833e-24 1.04023e-06 6.51448e-24 8.8036e-07)
(8.21296e-07 -7.59472e-08 1.45722e-21 9.85014e-07 1.92282e-22 8.82931e-07)
(9.00185e-07 -1.18131e-07 1.89936e-21 1.06314e-06 1.20121e-22 9.82834e-07)
(7.81894e-07 -9.6015e-08 -8.88174e-23 9.0403e-07 -4.1339e-23 8.51416e-07)
(7.89291e-07 -8.83475e-08 3.36671e-22 9.17231e-07 4.59731e-23 8.51282e-07)
(7.84913e-07 -8.8985e-08 4.21124e-22 9.0532e-07 3.6408e-23 8.45782e-07)
(8.09752e-07 -9.30171e-08 1.9047e-22 9.3432e-07 7.54166e-24 8.71716e-07)
(8.22022e-07 -9.53532e-08 1.00549e-22 9.46212e-07 -3.34824e-23 8.84166e-07)
(8.33369e-07 -9.70481e-08 -1.50489e-21 9.5765e-07 -1.58573e-22 8.95423e-07)
(8.42885e-07 -9.85209e-08 -5.92353e-22 9.66853e-07 1.56534e-23 9.04874e-07)
(8.51621e-07 -9.97668e-08 1.33864e-21 9.75637e-07 1.41789e-22 9.13604e-07)
(8.59428e-07 -1.0088e-07 -0 9.83589e-07 -3.75116e-23 9.21503e-07)
(8.6614e-07 -1.01776e-07 -7.10904e-23 9.90679e-07 6.17634e-23 9.28381e-07)
(8.71508e-07 -1.02456e-07 2.70417e-21 9.96481e-07 2.64431e-22 9.33984e-07)
(8.75547e-07 -1.02906e-07 8.11525e-23 1.0011e-06 1.17712e-23 9.38327e-07)
(8.78519e-07 -1.03138e-07 2.77359e-21 1.0049e-06 2.69288e-22 9.41673e-07)
(8.80099e-07 -1.03159e-07 1.6839e-22 1.00734e-06 -3.36792e-23 9.43693e-07)
(8.80418e-07 -1.02952e-07 5.42492e-22 1.00868e-06 9.05987e-23 9.44517e-07)
(8.79535e-07 -1.02536e-07 1.99873e-21 1.00892e-06 1.98666e-22 9.44199e-07)
(8.77489e-07 -1.0191e-07 9.65976e-22 1.00813e-06 1.07318e-22 9.42775e-07)
(8.74394e-07 -1.01094e-07 2.59141e-21 1.00638e-06 1.76265e-22 9.40354e-07)
(8.70301e-07 -1.00092e-07 -2.29371e-21 1.00373e-06 -3.47431e-22 9.3698e-07)
(8.65323e-07 -9.89286e-08 -3.29688e-21 1.00024e-06 -2.43172e-22 9.32761e-07)
(8.59572e-07 -9.76019e-08 1.10278e-21 9.96079e-07 1.58071e-22 9.27801e-07)
(8.53107e-07 -9.6131e-08 -7.8874e-22 9.91246e-07 -1.46963e-22 9.22155e-07)
(8.45949e-07 -9.45138e-08 -2.24975e-21 9.85763e-07 -2.45321e-22 9.15838e-07)
(8.38142e-07 -9.2757e-08 -1.91907e-21 9.79655e-07 -6.49859e-23 9.08887e-07)
(8.29778e-07 -9.08661e-08 3.82095e-21 9.73024e-07 3.83947e-22 9.01388e-07)
(8.20964e-07 -8.88648e-08 -1.2905e-21 9.65938e-07 -1.8843e-22 8.9344e-07)
(8.11696e-07 -8.67519e-08 4.82685e-22 9.58376e-07 3.93591e-23 8.85027e-07)
(8.02086e-07 -8.45407e-08 -1.67289e-21 9.5045e-07 -1.22573e-22 8.76257e-07)
(7.9211e-07 -8.22326e-08 2.64537e-21 9.42104e-07 3.18318e-22 8.67095e-07)
(7.81804e-07 -7.98331e-08 1.61687e-21 9.33363e-07 1.44182e-22 8.5757e-07)
(7.71196e-07 -7.73497e-08 1.89908e-21 9.24236e-07 2.40315e-22 8.47701e-07)
(7.60268e-07 -7.47803e-08 4.66379e-21 9.1469e-07 3.70621e-22 8.37462e-07)
(7.49074e-07 -7.21402e-08 -3.55793e-21 9.04754e-07 -4.64608e-22 8.26898e-07)
(7.37606e-07 -6.94292e-08 -1.96792e-21 8.94412e-07 -1.38679e-22 8.15991e-07)
(7.25856e-07 -6.6659e-08 1.66524e-22 8.83618e-07 1.30837e-23 8.04722e-07)
(7.13862e-07 -6.38311e-08 -2.283e-21 8.72417e-07 -2.441e-22 7.93121e-07)
(7.01532e-07 -6.09464e-08 -9.08437e-22 8.60677e-07 -1.15155e-22 7.81091e-07)
(6.88879e-07 -5.8002e-08 -3.61954e-21 8.48415e-07 -3.31541e-22 7.68636e-07)
(6.75924e-07 -5.50096e-08 1.25345e-21 8.35635e-07 2.05559e-22 7.55771e-07)
(6.62471e-07 -5.19374e-08 1.59511e-21 8.22116e-07 8.92821e-23 7.42287e-07)
(6.48693e-07 -4.88143e-08 -4.06074e-21 8.0804e-07 -3.9505e-22 7.28361e-07)
(6.34912e-07 -4.57289e-08 3.21528e-21 7.93717e-07 3.90978e-22 7.14315e-07)
(6.20753e-07 -4.26163e-08 -1.06414e-22 7.78734e-07 -6.49482e-23 6.99743e-07)
(6.06064e-07 -3.94241e-08 1.58907e-27 7.62949e-07 -1.61681e-23 6.84509e-07)
(5.9109e-07 -3.62126e-08 6.53601e-23 7.4661e-07 5.81589e-23 6.68856e-07)
(5.75887e-07 -3.29975e-08 3.24287e-21 7.29767e-07 2.13787e-22 6.52833e-07)
(5.60476e-07 -2.98069e-08 -1.12099e-20 7.12424e-07 -1.21641e-21 6.36457e-07)
(5.44926e-07 -2.6676e-08 4.62071e-24 6.94641e-07 1.15545e-22 6.19793e-07)
(5.29287e-07 -2.36441e-08 2.73493e-23 6.76463e-07 -4.1486e-23 6.02883e-07)
(5.13554e-07 -2.07579e-08 -4.28484e-21 6.5787e-07 -4.5391e-22 5.8572e-07)
(4.97702e-07 -1.80568e-08 1.61193e-22 6.38828e-07 7.0105e-23 5.68273e-07)
(4.81687e-07 -1.55711e-08 -5.04353e-22 6.19301e-07 -4.7191e-23 5.50502e-07)
(4.65408e-07 -1.32955e-08 1.65527e-23 5.99195e-07 -9.37119e-24 5.32308e-07)
(4.48899e-07 -1.12001e-08 -2.38647e-21 5.786e-07 -2.59811e-22 5.13752e-07)
(4.32244e-07 -9.22916e-09 2.01556e-23 5.57673e-07 -8.6671e-23 4.94962e-07)
(4.15492e-07 -7.33328e-09 -1.38035e-20 5.36511e-07 -1.51334e-21 4.76004e-07)
(3.98746e-07 -5.50947e-09 3.47415e-24 5.15254e-07 2.05712e-22 4.57001e-07)
(3.82048e-07 -3.80244e-09 1.54738e-20 4.93952e-07 1.72172e-21 4.38001e-07)
(3.65342e-07 -2.30147e-09 -1.77513e-23 4.72536e-07 -6.17748e-24 4.1894e-07)
(3.4847e-07 -1.10079e-09 1.65281e-20 4.50816e-07 1.85818e-21 3.99645e-07)
(3.31341e-07 -2.55132e-10 -1.00739e-21 4.28711e-07 -2.79207e-22 3.80029e-07)
(3.13969e-07 2.53149e-10 -1.37478e-20 4.06268e-07 -1.56133e-21 3.60122e-07)
(2.96513e-07 5.08472e-10 -1.97145e-22 3.83712e-07 3.88346e-23 3.40119e-07)
(2.79391e-07 6.09726e-10 -1.60569e-23 3.61586e-07 1.41163e-23 3.20478e-07)
(2.62232e-07 6.20434e-10 5.0276e-21 3.39415e-07 5.98224e-22 3.00853e-07)
(2.45945e-07 5.10058e-10 4.30578e-21 3.18362e-07 4.81576e-22 2.82138e-07)
(2.3183e-07 1.81173e-10 4.17709e-23 3.00119e-07 -8.93852e-24 2.65965e-07)
(2.2023e-07 8.96401e-11 -1.2668e-22 2.85117e-07 -1.95041e-23 2.52698e-07)
(2.0911e-07 1.47841e-10 8.27307e-23 2.70723e-07 -4.05164e-23 2.39903e-07)
(1.97323e-07 2.51563e-11 -1.44742e-20 2.55475e-07 -1.79554e-21 2.26421e-07)
(1.86004e-07 -6.31687e-10 -2.23927e-20 2.40808e-07 -2.54059e-21 2.1332e-07)
(1.70173e-07 -2.27941e-09 3.19078e-20 2.20153e-07 3.92851e-21 1.95457e-07)
(1.66053e-07 -5.84595e-09 1.53808e-20 2.13319e-07 1.77174e-21 1.88823e-07)
(1.36113e-07 -8.68097e-09 -0 1.71643e-07 -4.42619e-23 1.56132e-07)
(1.86226e-07 -1.15835e-08 -5.07985e-21 2.33228e-07 -5.40816e-22 2.04316e-07)
(9.53668e-08 3.58226e-10 4.52568e-20 1.07344e-07 5.53628e-21 1.1351e-07)
(3.99069e-07 8.93366e-09 -3.48663e-20 4.98867e-07 -4.28983e-21 4.23549e-07)
(4.86477e-07 3.74508e-08 1.84195e-21 4.4501e-07 2.94965e-22 5.1059e-07)
(8.46342e-07 2.38722e-08 1.84969e-24 1.03976e-06 -1.64586e-24 8.78966e-07)
(8.68125e-07 -1.03656e-07 -1.36315e-22 1.05048e-06 -8.99734e-24 9.36547e-07)
(7.30926e-07 -8.86893e-08 1.9022e-22 8.3748e-07 1.75476e-23 7.85253e-07)
(6.75236e-07 -8.04463e-08 -2.10433e-22 7.64104e-07 -2.57118e-23 7.25713e-07)
(7.11393e-07 -8.22849e-08 -7.69655e-23 8.146e-07 -2.80261e-24 7.6147e-07)
(7.17642e-07 -8.48789e-08 5.87065e-25 8.18081e-07 2.41951e-24 7.68365e-07)
(7.30425e-07 -8.66486e-08 1.69582e-25 8.32711e-07 -3.53811e-23 7.81295e-07)
(7.36497e-07 -8.7683e-08 -1.52083e-21 8.37884e-07 -1.31127e-22 7.87209e-07)
(7.43595e-07 -8.8666e-08 6.13606e-22 8.45022e-07 9.46003e-23 7.94224e-07)
(7.49703e-07 -8.95556e-08 5.90283e-23 8.50999e-07 -3.21555e-23 8.00316e-07)
(7.55353e-07 -9.0336e-08 -9.71808e-22 8.56766e-07 -9.54359e-23 8.06019e-07)
(7.60227e-07 -9.09909e-08 -0 8.61853e-07 -2.04865e-23 8.11012e-07)
(7.64239e-07 -9.14882e-08 -1.85007e-21 8.66215e-07 -1.98339e-22 8.15198e-07)
(7.67346e-07 -9.18321e-08 -7.52522e-22 8.6978e-07 -3.09794e-23 8.18541e-07)
(7.69537e-07 -9.20198e-08 1.55613e-25 8.72546e-07 -2.36697e-23 8.21026e-07)
(7.70888e-07 -9.20474e-08 -1.89314e-21 8.74648e-07 -1.455e-22 8.2273e-07)
(7.71211e-07 -9.19164e-08 1.72403e-21 8.75766e-07 2.46456e-22 8.23463e-07)
(7.70622e-07 -9.16203e-08 1.85801e-21 8.7611e-07 1.1543e-22 8.2334e-07)
(7.6921e-07 -9.117e-08 -1.41289e-21 8.75768e-07 -1.97151e-22 8.22447e-07)
(7.66942e-07 -9.05762e-08 -1.14814e-21 8.74629e-07 -9.69549e-23 8.20747e-07)
(7.63912e-07 -8.98381e-08 -5.78119e-22 8.72834e-07 -3.58074e-23 8.18331e-07)
(7.60225e-07 -8.89738e-08 -3.22313e-22 8.70465e-07 3.71381e-23 8.15301e-07)
(7.55907e-07 -8.79864e-08 2.86756e-21 8.67531e-07 2.83322e-22 8.11675e-07)
(7.51017e-07 -8.68848e-08 1.96532e-24 8.64082e-07 -2.98201e-23 8.07512e-07)
(7.45594e-07 -8.56638e-08 1.24411e-21 8.60181e-07 1.4999e-22 8.02847e-07)
(7.3965e-07 -8.43347e-08 1.44397e-21 8.55788e-07 1.19399e-22 7.97687e-07)
(7.3325e-07 -8.28967e-08 1.83654e-22 8.5099e-07 -3.42506e-23 7.92091e-07)
(7.26504e-07 -8.13672e-08 -1.15802e-21 8.45881e-07 -1.23936e-22 7.86165e-07)
(7.19402e-07 -7.9748e-08 -6.17992e-22 8.40425e-07 -4.00364e-23 7.79892e-07)
(7.12025e-07 -7.80473e-08 1.56069e-24 8.34702e-07 1.65101e-23 7.73347e-07)
(7.04405e-07 -7.6268e-08 3.37448e-22 8.28735e-07 3.03377e-23 7.66555e-07)
(6.96523e-07 -7.44106e-08 8.82827e-24 8.22486e-07 3.1594e-23 7.59493e-07)
(6.88422e-07 -7.24792e-08 2.31651e-21 8.15989e-07 2.33007e-22 7.52195e-07)
(6.80086e-07 -7.0477e-08 3.88473e-24 8.09204e-07 -3.56015e-23 7.44639e-07)
(6.71547e-07 -6.84025e-08 1.69549e-23 8.02168e-07 7.28186e-23 7.3685e-07)
(6.62811e-07 -6.62662e-08 3.99156e-21 7.94855e-07 4.18811e-22 7.28826e-07)
(6.53863e-07 -6.40674e-08 1.2149e-21 7.87236e-07 2.66733e-23 7.20544e-07)
(6.44726e-07 -6.18129e-08 -2.21916e-21 7.79322e-07 -2.19666e-22 7.1202e-07)
(6.35366e-07 -5.94986e-08 1.43676e-21 7.71066e-07 1.7466e-22 7.0321e-07)
(6.2573e-07 -5.71205e-08 -4.25723e-24 7.62396e-07 -4.58939e-23 6.94058e-07)
(6.15805e-07 -5.46792e-08 -1.70882e-21 7.53288e-07 -1.96828e-22 6.84543e-07)
(6.05603e-07 -5.21758e-08 -1.51417e-21 7.43747e-07 -1.14795e-22 6.74671e-07)
(5.9509e-07 -4.9616e-08 1.36523e-21 7.33711e-07 1.90973e-22 6.64398e-07)
(5.84151e-07 -4.70021e-08 2.19252e-21 7.23015e-07 2.16211e-22 6.53582e-07)
(5.72909e-07 -4.43424e-08 1.16731e-21 7.1181e-07 2.11044e-22 6.42355e-07)
(5.61449e-07 -4.16308e-08 9.31821e-21 7.00215e-07 9.48965e-22 6.30829e-07)
(5.4959e-07 -3.8852e-08 1.06848e-24 6.88e-07 -1.16935e-22 6.18794e-07)
(5.37443e-07 -3.60343e-08 6.66772e-24 6.75265e-07 -2.65734e-23 6.06354e-07)
(5.25023e-07 -3.31907e-08 -3.20853e-21 6.62012e-07 -2.52719e-22 5.93518e-07)
(5.1238e-07 -3.0349e-08 7.02665e-21 6.48271e-07 7.64243e-22 5.80328e-07)
(4.9958e-07 -2.75456e-08 1.18939e-22 6.34095e-07 -1.45028e-22 5.66841e-07)
(4.86657e-07 -2.48171e-08 -8.52949e-21 6.19506e-07 -9.08197e-22 5.53084e-07)
(4.73607e-07 -2.22073e-08 3.15841e-23 6.04478e-07 -1.29211e-23 5.39047e-07)
(4.60416e-07 -1.97552e-08 -9.88027e-21 5.88987e-07 -1.05266e-21 5.24707e-07)
(4.4704e-07 -1.74849e-08 4.85449e-22 5.72992e-07 1.66111e-22 5.1002e-07)
(4.33369e-07 -1.53841e-08 3.22521e-21 5.5639e-07 3.35912e-22 4.94886e-07)
(4.19424e-07 -1.34183e-08 -1.89618e-21 5.39258e-07 -2.71394e-22 4.79348e-07)
(4.05228e-07 -1.15364e-08 -5.46636e-21 5.21671e-07 -5.89879e-22 4.63458e-07)
(3.90839e-07 -9.69581e-09 -1.20861e-22 5.03734e-07 1.30485e-23 4.47294e-07)
(3.76343e-07 -7.90398e-09 3.24742e-24 4.85561e-07 -2.25085e-24 4.30959e-07)
(3.61782e-07 -6.21579e-09 1.25639e-22 4.67195e-07 2.32273e-23 4.14495e-07)
(3.47125e-07 -4.72436e-09 -1.19628e-23 4.48582e-07 -9.23365e-23 3.97859e-07)
(3.32253e-07 -3.52072e-09 -1.56929e-20 4.29576e-07 -1.73849e-21 3.8092e-07)
(3.17102e-07 -2.65197e-09 5.58788e-21 4.10122e-07 7.89998e-22 3.63617e-07)
(3.01689e-07 -2.0922e-09 1.30568e-20 3.90273e-07 1.56181e-21 3.45987e-07)
(2.86165e-07 -1.75729e-09 1.94367e-20 3.7025e-07 2.17661e-21 3.28215e-07)
(2.7089e-07 -1.55376e-09 -4.43007e-23 3.50532e-07 -1.46206e-22 3.10702e-07)
(2.55446e-07 -1.43572e-09 -1.16968e-20 3.30587e-07 -1.37686e-21 2.93048e-07)
(2.4076e-07 -1.44017e-09 -4.08134e-21 3.11598e-07 -4.58608e-22 2.76164e-07)
(2.28037e-07 -1.64248e-09 -7.55534e-21 2.95124e-07 -8.0998e-22 2.61572e-07)
(2.17502e-07 -1.60513e-09 1.17899e-20 2.81498e-07 1.4123e-21 2.49525e-07)
(2.07313e-07 -1.44201e-09 -3.67192e-21 2.68323e-07 -4.34225e-22 2.37806e-07)
(1.96507e-07 -1.48545e-09 1.413e-20 2.54335e-07 1.81886e-21 2.25439e-07)
(1.86082e-07 -2.10627e-09 3.86867e-20 2.40747e-07 4.62436e-21 2.13342e-07)
(1.71967e-07 -3.7842e-09 1.76459e-20 2.22067e-07 2.00895e-21 1.97274e-07)
(1.69052e-07 -7.33739e-09 6.25752e-23 2.16308e-07 -3.48452e-23 1.91901e-07)
(1.42845e-07 -9.95725e-09 -0 1.79157e-07 1.25989e-23 1.63088e-07)
(1.88384e-07 -1.23338e-08 4.80749e-21 2.35419e-07 5.83562e-22 2.06772e-07)
(9.65686e-08 6.86331e-10 1.5533e-22 1.11053e-07 7.32486e-23 1.15604e-07)
(3.99687e-07 9.13307e-09 3.30961e-20 4.99931e-07 4.02057e-21 4.24603e-07)
(4.87168e-07 3.80777e-08 1.88544e-20 4.47544e-07 2.38618e-21 5.12407e-07)
(8.45983e-07 2.06619e-08 1.83944e-24 1.03978e-06 -1.67532e-23 8.78084e-07)
(6.91458e-07 -7.59975e-08 4.78696e-22 8.07954e-07 5.58747e-23 7.34872e-07)
(6.48134e-07 -7.77809e-08 4.94073e-22 7.28844e-07 4.05774e-23 6.89447e-07)
(6.27796e-07 -7.67082e-08 -2.58927e-23 7.01039e-07 -1.99104e-23 6.69318e-07)
(6.56841e-07 -7.8869e-08 -3.90782e-22 7.42984e-07 -3.76746e-23 6.98652e-07)
(6.56324e-07 -7.9696e-08 4.64579e-23 7.3929e-07 1.58489e-23 6.98187e-07)
(6.6184e-07 -8.02085e-08 1.56647e-22 7.45753e-07 1.68318e-23 7.03557e-07)
(6.64646e-07 -8.06754e-08 -2.01508e-24 7.47968e-07 -4.19151e-24 7.06275e-07)
(6.68269e-07 -8.11579e-08 5.69533e-25 7.51661e-07 -1.1147e-24 7.09883e-07)
(6.71302e-07 -8.1566e-08 -2.06437e-25 7.54749e-07 2.74695e-25 7.12951e-07)
(6.74011e-07 -8.19154e-08 -1.98648e-24 7.57608e-07 -1.27515e-24 7.15746e-07)
(6.76078e-07 -8.21614e-08 -0 7.59886e-07 9.66208e-25 7.17946e-07)
(6.77724e-07 -8.231e-08 -3.16754e-24 7.61934e-07 -3.13388e-24 7.19773e-07)
(6.78732e-07 -8.23628e-08 2.05134e-25 7.63383e-07 -6.32596e-25 7.21013e-07)
(6.79108e-07 -8.23038e-08 5.36325e-25 7.64311e-07 1.09959e-23 7.21669e-07)
(6.78877e-07 -8.21381e-08 4.40092e-22 7.64735e-07 3.39546e-23 7.21767e-07)
(6.7799e-07 -8.18556e-08 -3.66599e-22 7.64613e-07 -4.61866e-23 7.21258e-07)
(6.76477e-07 -8.14711e-08 3.58812e-24 7.63918e-07 1.13178e-23 7.20169e-07)
(6.7444e-07 -8.09702e-08 -3.86961e-24 7.62876e-07 2.21993e-24 7.18601e-07)
(6.71857e-07 -8.03844e-08 -3.49804e-24 7.61298e-07 6.20071e-24 7.16529e-07)
(6.68721e-07 -7.96915e-08 5.56252e-22 7.5926e-07 6.27923e-23 7.13943e-07)
(6.65208e-07 -7.89155e-08 3.00209e-22 7.56932e-07 1.75143e-23 7.11017e-07)
(6.61256e-07 -7.80467e-08 9.42731e-24 7.54244e-07 -3.43423e-24 7.07687e-07)
(6.56907e-07 -7.70963e-08 -3.179e-25 7.51203e-07 1.29874e-24 7.03992e-07)
(6.52123e-07 -7.60563e-08 3.54178e-24 7.47772e-07 8.64171e-25 6.99893e-07)
(6.47048e-07 -7.49333e-08 2.5994e-24 7.44134e-07 -2.83338e-23 6.95529e-07)
(6.41698e-07 -7.3742e-08 -1.76991e-21 7.40249e-07 -1.75054e-22 6.90914e-07)
(6.36088e-07 -7.24792e-08 2.23342e-22 7.36137e-07 5.23384e-23 6.86056e-07)
(6.30293e-07 -7.11553e-08 -2.42773e-24 7.31866e-07 -4.89839e-24 6.81026e-07)
(6.2433e-07 -6.97702e-08 -2.35783e-23 7.27451e-07 -8.26792e-24 6.7584e-07)
(6.18206e-07 -6.83252e-08 -3.26385e-22 7.22885e-07 -3.46238e-23 6.70497e-07)
(6.11928e-07 -6.6821e-08 1.14091e-24 7.18166e-07 7.07372e-25 6.65001e-07)
(6.05519e-07 -6.52595e-08 8.73242e-24 7.13311e-07 2.36395e-23 6.5937e-07)
(5.98957e-07 -6.36421e-08 1.2865e-21 7.08276e-07 1.32444e-22 6.53576e-07)
(5.92273e-07 -6.1968e-08 2.09826e-24 7.03096e-07 -1.41109e-23 6.47646e-07)
(5.8548e-07 -6.02435e-08 1.15795e-23 6.97766e-07 -1.0627e-23 6.41585e-07)
(5.78556e-07 -5.84702e-08 -1.15934e-21 6.92241e-07 -8.60405e-23 6.35363e-07)
(5.71487e-07 -5.66448e-08 2.10706e-21 6.86506e-07 2.10523e-22 6.28963e-07)
(5.6424e-07 -5.47632e-08 -1.37497e-21 6.80514e-07 -1.68868e-22 6.22344e-07)
(5.56776e-07 -5.28193e-08 -8.49695e-25 6.74215e-07 3.75239e-23 6.15464e-07)
(5.4905e-07 -5.08105e-08 1.6137e-21 6.67546e-07 1.82164e-22 6.0827e-07)
(5.41109e-07 -4.87429e-08 1.43507e-21 6.60553e-07 1.24478e-22 6.00803e-07)
(5.32958e-07 -4.66302e-08 8.82983e-24 6.5321e-07 -1.39604e-23 5.93058e-07)
(5.24421e-07 -4.44492e-08 6.48715e-24 6.45311e-07 -1.41904e-23 5.84845e-07)
(5.1559e-07 -4.21992e-08 -1.07163e-21 6.36978e-07 -1.61668e-22 5.76264e-07)
(5.06481e-07 -3.98873e-08 -4.73385e-21 6.28213e-07 -4.76736e-22 5.6733e-07)
(4.97016e-07 -3.7505e-08 9.39871e-25 6.18911e-07 4.5068e-23 5.5795e-07)
(4.8728e-07 -3.5071e-08 5.88755e-24 6.09153e-07 9.94521e-24 5.48204e-07)
(4.7727e-07 -3.25966e-08 -2.75946e-23 5.9891e-07 -1.98798e-23 5.3808e-07)
(4.67055e-07 -3.01123e-08 -1.78017e-21 5.88235e-07 -1.93298e-22 5.27637e-07)
(4.56685e-07 -2.76487e-08 -1.1185e-22 5.77159e-07 9.06745e-24 5.16915e-07)
(4.46184e-07 -2.52442e-08 -6.56267e-23 5.65684e-07 1.97731e-23 5.05928e-07)
(4.35558e-07 -2.29374e-08 3.91707e-21 5.53796e-07 4.04987e-22 4.94673e-07)
(4.24793e-07 -2.0766e-08 -1.49664e-21 5.41466e-07 -1.95419e-22 4.83126e-07)
(4.13824e-07 -1.87456e-08 -5.54793e-24 5.28628e-07 -1.56127e-23 4.71223e-07)
(4.02544e-07 -1.68529e-08 -3.04874e-21 5.15187e-07 -2.96821e-22 4.58863e-07)
(3.90953e-07 -1.50535e-08 3.89175e-21 5.0119e-07 4.87878e-22 4.4607e-07)
(3.79043e-07 -1.32989e-08 5.1487e-21 4.86672e-07 6.25262e-22 4.32856e-07)
(3.66849e-07 -1.15542e-08 1.40081e-20 4.71707e-07 1.5102e-21 4.19277e-07)
(3.54467e-07 -9.83875e-09 -3.87956e-23 4.56408e-07 -1.73443e-22 4.05437e-07)
(3.41944e-07 -8.21565e-09 -1.24955e-20 4.40815e-07 -1.37851e-21 3.9138e-07)
(3.29258e-07 -6.77901e-09 3.31682e-21 4.24877e-07 4.47916e-22 3.77068e-07)
(3.16329e-07 -5.61577e-09 -1.30818e-22 4.08488e-07 -8.06585e-23 3.62409e-07)
(3.03107e-07 -4.76358e-09 -7.01606e-21 3.91607e-07 -8.84049e-22 3.47358e-07)
(2.89627e-07 -4.18567e-09 -1.80698e-20 3.74311e-07 -2.09287e-21 3.31969e-07)
(2.76e-07 -3.80608e-09 -1.66417e-20 3.56777e-07 -1.78536e-21 3.16392e-07)
(2.62529e-07 -3.52955e-09 9.17806e-21 3.39417e-07 1.12841e-21 3.00962e-07)
(2.48785e-07 -3.336e-09 -7.46623e-22 3.21686e-07 -1.1453e-22 2.85264e-07)
(2.35701e-07 -3.25858e-09 3.88152e-21 3.04771e-07 4.47162e-22 2.70219e-07)
(2.24343e-07 -3.3509e-09 -1.08921e-21 2.90048e-07 -1.4252e-22 2.57188e-07)
(2.14835e-07 -3.20129e-09 4.37362e-23 2.77769e-07 1.26678e-23 2.46326e-07)
(2.05578e-07 -2.95227e-09 9.0763e-24 2.65828e-07 -5.62632e-23 2.35691e-07)
(1.95761e-07 -2.93806e-09 -1.60707e-20 2.53117e-07 -1.96182e-21 2.24453e-07)
(1.86263e-07 -3.5467e-09 -1.52381e-20 2.40648e-07 -1.76616e-21 2.13397e-07)
(1.73979e-07 -5.28222e-09 8.34695e-23 2.24067e-07 5.57986e-23 1.99243e-07)
(1.72267e-07 -8.8183e-09 7.10198e-24 2.19388e-07 2.28851e-24 1.95139e-07)
(1.49661e-07 -1.12236e-08 -0 1.86679e-07 -6.6551e-24 1.70073e-07)
(1.90115e-07 -1.30036e-08 -4.72747e-21 2.37115e-07 -5.83932e-22 2.08817e-07)
(9.8171e-08 1.09478e-09 5.93023e-23 1.15159e-07 -2.19221e-23 1.17998e-07)
(3.99522e-07 9.30659e-09 -1.98918e-20 5.00181e-07 -2.42004e-21 4.25035e-07)
(4.87969e-07 3.87595e-08 -1.79002e-20 4.49766e-07 -2.27283e-21 5.1393e-07)
(8.46065e-07 1.71509e-08 2.41416e-22 1.04056e-06 6.10929e-23 8.77977e-07)
(6.19251e-07 -6.93777e-08 -4.33603e-22 7.11243e-07 -4.39624e-23 6.53454e-07)
(6.0799e-07 -7.50816e-08 9.59697e-25 6.75207e-07 1.15669e-23 6.42675e-07)
(5.88832e-07 -7.35845e-08 -1.14552e-25 6.50179e-07 9.09482e-24 6.23623e-07)
(6.05149e-07 -7.42766e-08 3.73054e-22 6.76524e-07 3.54213e-23 6.39904e-07)
(6.0084e-07 -7.41443e-08 -4.38307e-23 6.69354e-07 -1.43678e-23 6.35492e-07)
(6.02594e-07 -7.41793e-08 -1.48634e-22 6.71972e-07 -1.1929e-23 6.37178e-07)
(6.02648e-07 -7.42327e-08 -4.80828e-25 6.71694e-07 2.06445e-24 6.37228e-07)
(6.03271e-07 -7.42822e-08 -3.27356e-26 6.72473e-07 1.66293e-24 6.37884e-07)
(6.03539e-07 -7.42936e-08 1.49684e-22 6.72846e-07 3.13646e-23 6.38223e-07)
(6.03666e-07 -7.42648e-08 9.04292e-22 6.73201e-07 8.73477e-23 6.3846e-07)
(6.0347e-07 -7.41857e-08 -0 6.73263e-07 -5.9256e-24 6.38411e-07)
(6.03026e-07 -7.40489e-08 4.87302e-22 6.73212e-07 3.45124e-23 6.38156e-07)
(6.02217e-07 -7.38526e-08 -7.03285e-22 6.72847e-07 -8.89132e-23 6.37575e-07)
(6.01032e-07 -7.35894e-08 -5.64935e-22 6.72184e-07 -2.89567e-23 6.36659e-07)
(5.99483e-07 -7.32567e-08 8.77464e-22 6.71251e-07 1.0229e-22 6.35419e-07)
(5.9758e-07 -7.28566e-08 3.52126e-22 6.70051e-07 1.9815e-23 6.33865e-07)
(5.95289e-07 -7.23916e-08 7.50952e-25 6.68504e-07 1.86823e-23 6.3196e-07)
(5.92723e-07 -7.18577e-08 1.28679e-21 6.66813e-07 1.48853e-22 6.29817e-07)
(5.89833e-07 -7.12654e-08 1.03915e-21 6.64836e-07 7.26234e-23 6.27385e-07)
(5.8662e-07 -7.06079e-08 -5.28874e-22 6.626e-07 -7.17012e-23 6.24665e-07)
(5.83174e-07 -6.98902e-08 -2.87918e-22 6.60219e-07 -6.32684e-23 6.21744e-07)
(5.79449e-07 -6.91096e-08 -2.6116e-21 6.57621e-07 -2.58844e-22 6.18575e-07)
(5.75441e-07 -6.82671e-08 -1.56338e-24 6.54786e-07 2.89587e-23 6.15154e-07)
(5.71189e-07 -6.73639e-08 -6.97901e-22 6.51759e-07 -7.04039e-23 6.11516e-07)
(5.66817e-07 -6.6408e-08 -2.42803e-25 6.48694e-07 1.2629e-23 6.07783e-07)
(5.62237e-07 -6.54056e-08 -5.70332e-24 6.45419e-07 -4.65153e-24 6.03865e-07)
(5.57546e-07 -6.43513e-08 4.1356e-24 6.42096e-07 9.60411e-25 5.99854e-07)
(5.52801e-07 -6.32605e-08 -1.84662e-24 6.38746e-07 -3.03692e-25 5.95804e-07)