/*--------------------------------*- C++ -*----------------------------------*\
| =========                 |                                                 |
| \\      /  F ield         | OpenFOAM: The Open Source CFD Toolbox           |
|  \\    /   O peration     | Version:  2306                                  |
|   \\  /    A nd           | Website:  www.openfoam.com                      |
|    \\/     M anipulation  |                                                 |
\*---------------------------------------------------------------------------*/
FoamFile
{
    version     2.0;
    format      ascii;
    arch        "LSB;label=32;scalar=64";
    class       volScalarField;
    location    "225";
    object      turbulenceProperties:I;
}
// * * * * * * * * * * * * * * * * * * * * * * * * * * * * * * * * * * * * * //

dimensions      [0 0 0 0 0 0 0];

internalField   nonuniform List<scalar> 
1340
(
2.65614e-05
3.7256e-05
1.25703e-05
2.55058e-05
2.65181e-05
3.72636e-05
1.32405e-05
1.67712e-05
1.24466e-05
2.55461e-05
2.65196e-05
3.72526e-05
1.7977e-05
1.68679e-05
1.63376e-05
1.3556e-05
1.69606e-05
1.23735e-05
2.55896e-05
2.65518e-05
3.72319e-05
2.15069e-05
2.06998e-05
2.00162e-05
1.93591e-05
1.86506e-05
1.79578e-05
1.69048e-05
1.64279e-05
1.38849e-05
1.714e-05
1.23463e-05
2.56345e-05
2.66039e-05
3.72068e-05
2.55023e-05
2.46838e-05
2.38406e-05
2.29908e-05
2.21275e-05
2.12851e-05
2.05269e-05
1.98866e-05
1.92678e-05
1.8598e-05
1.79415e-05
1.69501e-05
1.65282e-05
1.42235e-05
1.73061e-05
1.23599e-05
2.56759e-05
2.66671e-05
3.71787e-05
2.97926e-05
2.91386e-05
2.84729e-05
2.77995e-05
2.7119e-05
2.64285e-05
2.57207e-05
2.49882e-05
2.42275e-05
2.34436e-05
2.26535e-05
2.18471e-05
2.10581e-05
2.0351e-05
1.9755e-05
1.91755e-05
1.85469e-05
1.79288e-05
1.70039e-05
1.66372e-05
1.45663e-05
1.7456e-05
1.24102e-05
2.5713e-05
2.67346e-05
3.7144e-05
3.46326e-05
3.42268e-05
3.38062e-05
3.33705e-05
3.29209e-05
3.24575e-05
3.19812e-05
3.14921e-05
3.09903e-05
3.04739e-05
2.99411e-05
2.93911e-05
2.88245e-05
2.82396e-05
2.76411e-05
2.70327e-05
2.64149e-05
2.57847e-05
2.51349e-05
2.446e-05
2.37595e-05
2.30371e-05
2.23086e-05
2.15616e-05
2.08296e-05
2.01751e-05
1.96236e-05
1.90837e-05
1.84973e-05
1.79181e-05
1.70647e-05
1.6753e-05
1.49103e-05
1.75872e-05
1.24945e-05
2.57439e-05
2.67965e-05
3.71072e-05
3.66225e-05
3.8333e-05
3.55748e-05
3.57187e-05
3.55671e-05
3.61233e-05
3.63765e-05
3.66107e-05
3.68038e-05
3.69832e-05
3.71446e-05
3.72856e-05
3.74002e-05
3.74896e-05
3.756e-05
3.76033e-05
3.76232e-05
3.76205e-05
3.7596e-05
3.75517e-05
3.74885e-05
3.74082e-05
3.73131e-05
3.7204e-05
3.70811e-05
3.69449e-05
3.67972e-05
3.66396e-05
3.64718e-05
3.62958e-05
3.61107e-05
3.5917e-05
3.57149e-05
3.55037e-05
3.52841e-05
3.50556e-05
3.48175e-05
3.45704e-05
3.43117e-05
3.40413e-05
3.37593e-05
3.34607e-05
3.31489e-05
3.28308e-05
3.24972e-05
3.21439e-05
3.17763e-05
3.13949e-05
3.09997e-05
3.05916e-05
3.01714e-05
2.97382e-05
2.92907e-05
2.88275e-05
2.83451e-05
2.78443e-05
2.73276e-05
2.67961e-05
2.62525e-05
2.56973e-05
2.51279e-05
2.45382e-05
2.39241e-05
2.3285e-05
2.26252e-05
2.19594e-05
2.12726e-05
2.05991e-05
1.99982e-05
1.94912e-05
1.89913e-05
1.84481e-05
1.79088e-05
1.71318e-05
1.6875e-05
1.52533e-05
1.76984e-05
1.26083e-05
2.57642e-05
2.68489e-05
3.70706e-05
3.7691e-05
3.42221e-05
3.28231e-05
3.37391e-05
3.38625e-05
3.41588e-05
3.42849e-05
3.44402e-05
3.4573e-05
3.46977e-05
3.48068e-05
3.48986e-05
3.49722e-05
3.50276e-05
3.50669e-05
3.50851e-05
3.50854e-05
3.50697e-05
3.50366e-05
3.49885e-05
3.49272e-05
3.48531e-05
3.47673e-05
3.46707e-05
3.4563e-05
3.44456e-05
3.43207e-05
3.41877e-05
3.40482e-05
3.39028e-05
3.37506e-05
3.35925e-05
3.34278e-05
3.32569e-05
3.30798e-05
3.28957e-05
3.27048e-05
3.25062e-05
3.22981e-05
3.208e-05
3.18517e-05
3.1612e-05
3.13571e-05
3.109e-05
3.08128e-05
3.05201e-05
3.02141e-05
2.98946e-05
2.9562e-05
2.92175e-05
2.88614e-05
2.84929e-05
2.8111e-05
2.77141e-05
2.72987e-05
2.68654e-05
2.64147e-05
2.59481e-05
2.54677e-05
2.49739e-05
2.44647e-05
2.39352e-05
2.33821e-05
2.28053e-05
2.22091e-05
2.16066e-05
2.0981e-05
2.03672e-05
1.98208e-05
1.93577e-05
1.88982e-05
1.83991e-05
1.7901e-05
1.7205e-05
1.70025e-05
1.55927e-05
1.77891e-05
1.27432e-05
2.57795e-05
2.68847e-05
3.70409e-05
3.33078e-05
3.20332e-05
3.15004e-05
3.22825e-05
3.22476e-05
3.23821e-05
3.24427e-05
3.25276e-05
3.25992e-05
3.26645e-05
3.2716e-05
3.27598e-05
3.27898e-05
3.28068e-05
3.28112e-05
3.28021e-05
3.27796e-05
3.2747e-05
3.27023e-05
3.26461e-05
3.25822e-05
3.25091e-05
3.24273e-05
3.23359e-05
3.22384e-05
3.21347e-05
3.2025e-05
3.19109e-05
3.17928e-05
3.16705e-05
3.15442e-05
3.14141e-05
3.12795e-05
3.11411e-05
3.09989e-05
3.0852e-05
3.07e-05
3.05418e-05
3.03762e-05
3.02017e-05
3.00193e-05
2.98286e-05
2.96246e-05
2.94096e-05
2.91836e-05
2.8944e-05
2.86925e-05
2.84284e-05
2.8153e-05
2.78669e-05
2.75701e-05
2.72623e-05
2.69426e-05
2.66086e-05
2.6257e-05
2.58878e-05
2.55008e-05
2.50966e-05
2.46776e-05
2.42443e-05
2.3795e-05
2.33258e-05
2.28342e-05
2.23207e-05
2.1789e-05
2.125e-05
2.06865e-05
2.0134e-05
1.96422e-05
1.92222e-05
1.88036e-05
1.83493e-05
1.78941e-05
1.72839e-05
1.71352e-05
1.59259e-05
1.78601e-05
1.28974e-05
2.57723e-05
2.69147e-05
3.70234e-05
3.13583e-05
3.0897e-05
3.03865e-05
3.08645e-05
3.07378e-05
3.07877e-05
3.07876e-05
3.08055e-05
3.08147e-05
3.0822e-05
3.08221e-05
3.08178e-05
3.08054e-05
3.0785e-05
3.07569e-05
3.07213e-05
3.0677e-05
3.06274e-05
3.05705e-05
3.05065e-05
3.04377e-05
3.03627e-05
3.02812e-05
3.01943e-05
3.0105e-05
3.00105e-05
2.99136e-05
2.98155e-05
2.97142e-05
2.96111e-05
2.95056e-05
2.93989e-05
2.92891e-05
2.9178e-05
2.90648e-05
2.89486e-05
2.88291e-05
2.87049e-05
2.85744e-05
2.84375e-05
2.82944e-05
2.81447e-05
2.7984e-05
2.78124e-05
2.76305e-05
2.74374e-05
2.72334e-05
2.70186e-05
2.67944e-05
2.65611e-05
2.63189e-05
2.60674e-05
2.58057e-05
2.55303e-05
2.52388e-05
2.49302e-05
2.46025e-05
2.42581e-05
2.38982e-05
2.3523e-05
2.31323e-05
2.27228e-05
2.22918e-05
2.18412e-05
2.13733e-05
2.08971e-05
2.03952e-05
1.99039e-05
1.94657e-05
1.90876e-05
1.87098e-05
1.83002e-05
1.78898e-05
1.73687e-05
1.72732e-05
1.62463e-05
1.79143e-05
1.30402e-05
2.57514e-05
2.69183e-05
3.70444e-05
3.01223e-05
2.96708e-05
2.91058e-05
2.93959e-05
2.92267e-05
2.92055e-05
2.91448e-05
2.91011e-05
2.90522e-05
2.90082e-05
2.89612e-05
2.89128e-05
2.8863e-05
2.88083e-05
2.87517e-05
2.86934e-05
2.863e-05
2.8564e-05
2.8496e-05
2.8424e-05
2.83495e-05
2.82712e-05
2.819e-05
2.81078e-05
2.80239e-05
2.79385e-05
2.78549e-05
2.77699e-05
2.76834e-05
2.75967e-05
2.7512e-05
2.74257e-05
2.734e-05
2.72526e-05
2.71657e-05
2.70808e-05
2.69891e-05
2.68954e-05
2.67981e-05
2.66967e-05
2.65895e-05
2.64784e-05
2.63569e-05
2.62242e-05
2.60853e-05
2.59347e-05
2.57756e-05
2.56083e-05
2.5432e-05
2.52499e-05
2.50602e-05
2.48627e-05
2.46577e-05
2.44395e-05
2.42059e-05
2.39567e-05
2.36876e-05
2.3401e-05
2.31003e-05
2.27829e-05
2.24508e-05
2.21025e-05
2.17337e-05
2.13471e-05
2.09445e-05
2.05329e-05
2.0094e-05
1.96656e-05
1.9282e-05
1.89467e-05
1.86105e-05
1.82476e-05
1.78866e-05
1.74596e-05
1.74202e-05
1.65631e-05
1.79503e-05
1.3305e-05
2.56552e-05
2.6974e-05
3.70675e-05
2.85187e-05
2.81054e-05
2.7535e-05
2.76808e-05
2.74585e-05
2.73643e-05
2.72379e-05
2.7123e-05
2.70252e-05
2.69225e-05
2.68238e-05
2.67392e-05
2.66471e-05
2.65563e-05
2.64748e-05
2.63955e-05
2.63056e-05
2.62276e-05
2.61469e-05
2.60649e-05
2.59869e-05
2.59028e-05
2.58262e-05
2.5751e-05
2.5673e-05
2.56002e-05
2.55302e-05
2.54607e-05
2.53933e-05
2.53243e-05
2.52638e-05
2.52038e-05
2.51436e-05
2.50822e-05
2.50297e-05
2.49756e-05
2.49154e-05
2.48554e-05
2.47957e-05
2.47337e-05
2.46653e-05
2.4597e-05
2.45141e-05
2.44262e-05
2.43346e-05
2.42288e-05
2.412e-05
2.40058e-05
2.38816e-05
2.37573e-05
2.36264e-05
2.34886e-05
2.33484e-05
2.31938e-05
2.30243e-05
2.28408e-05
2.26384e-05
2.24162e-05
2.2182e-05
2.19319e-05
2.16678e-05
2.13904e-05
2.1094e-05
2.07825e-05
2.04556e-05
2.01177e-05
1.97517e-05
1.93963e-05
1.90735e-05
1.87854e-05
1.84974e-05
1.81891e-05
1.7887e-05
1.75727e-05
1.75834e-05
1.69273e-05
1.7905e-05
1.38083e-05
2.53933e-05
2.68336e-05
3.64165e-05
2.66641e-05
2.63626e-05
2.58319e-05
2.58191e-05
2.55487e-05
2.53834e-05
2.51897e-05
2.50189e-05
2.48671e-05
2.47112e-05
2.45701e-05
2.44449e-05
2.43132e-05
2.41903e-05
2.4084e-05
2.39779e-05
2.38655e-05
2.37748e-05
2.36757e-05
2.35874e-05
2.35053e-05
2.34143e-05
2.33419e-05
2.32746e-05
2.32005e-05
2.31392e-05
2.30789e-05
2.30239e-05
2.29763e-05
2.29267e-05
2.2885e-05
2.28511e-05
2.28144e-05
2.27805e-05
2.27586e-05
2.27293e-05
2.27014e-05
2.26752e-05
2.26511e-05
2.2624e-05
2.25953e-05
2.25622e-05
2.2519e-05
2.24774e-05
2.24261e-05
2.23686e-05
2.23114e-05
2.22491e-05
2.2182e-05
2.21166e-05
2.20494e-05
2.19764e-05
2.19027e-05
2.18165e-05
2.17164e-05
2.16018e-05
2.14696e-05
2.13191e-05
2.11576e-05
2.09826e-05
2.07959e-05
2.05976e-05
2.03839e-05
2.01565e-05
1.99132e-05
1.96572e-05
1.93733e-05
1.90982e-05
1.88413e-05
1.86052e-05
1.83714e-05
1.8126e-05
1.78968e-05
1.77089e-05
1.77739e-05
1.73063e-05
1.78317e-05
1.43359e-05
2.53621e-05
2.67035e-05
3.63741e-05
2.48931e-05
2.46689e-05
2.41557e-05
2.40356e-05
2.37356e-05
2.35076e-05
2.32745e-05
2.3072e-05
2.28645e-05
2.26792e-05
2.25127e-05
2.23455e-05
2.21886e-05
2.20446e-05
2.19158e-05
2.17819e-05
2.16632e-05
2.15548e-05
2.14421e-05
2.13513e-05
2.12637e-05
2.11716e-05
2.10994e-05
2.10325e-05
2.09621e-05
2.0912e-05
2.08583e-05
2.08117e-05
2.07783e-05
2.07453e-05
2.07171e-05
2.07022e-05
2.06835e-05
2.06706e-05
2.06683e-05
2.06598e-05
2.06565e-05
2.06581e-05
2.06598e-05
2.06591e-05
2.06601e-05
2.06536e-05
2.06462e-05
2.06386e-05
2.06216e-05
2.06073e-05
2.05933e-05
2.05765e-05
2.05613e-05
2.0548e-05
2.05382e-05
2.05246e-05
2.05084e-05
2.04852e-05
2.04466e-05
2.03946e-05
2.03273e-05
2.02437e-05
2.01519e-05
2.00491e-05
1.99371e-05
1.98169e-05
1.96836e-05
1.95368e-05
1.93754e-05
1.91994e-05
1.89964e-05
1.87997e-05
1.86066e-05
1.8423e-05
1.8246e-05
1.80671e-05
1.792e-05
1.78583e-05
1.79828e-05
1.76578e-05
1.77949e-05
1.48402e-05
2.54576e-05
2.63335e-05
3.63515e-05
2.33672e-05
2.23946e-05
2.30316e-05
2.25328e-05
2.23559e-05
2.20254e-05
2.17546e-05
2.15025e-05
2.12641e-05
2.1032e-05
2.08214e-05
2.06307e-05
2.04441e-05
2.02678e-05
2.01096e-05
1.99657e-05
1.98172e-05
1.96936e-05
1.95755e-05
1.94613e-05
1.9368e-05
1.92737e-05
1.91913e-05
1.9118e-05
1.90525e-05
1.89944e-05
1.89481e-05
1.89062e-05
1.88697e-05
1.88493e-05
1.88307e-05
1.88158e-05
1.88172e-05
1.88132e-05
1.88185e-05
1.88337e-05
1.88429e-05
1.88624e-05
1.8886e-05
1.89072e-05
1.89304e-05
1.89524e-05
1.89717e-05
1.89927e-05
1.90107e-05
1.9029e-05
1.90491e-05
1.90714e-05
1.90965e-05
1.91252e-05
1.91574e-05
1.91951e-05
1.92312e-05
1.92635e-05
1.92911e-05
1.9303e-05
1.93035e-05
1.92916e-05
1.92656e-05
1.92345e-05
1.91962e-05
1.91507e-05
1.90999e-05
1.9038e-05
1.89632e-05
1.88751e-05
1.87714e-05
1.86424e-05
1.85166e-05
1.83818e-05
1.82483e-05
1.81284e-05
1.80176e-05
1.79583e-05
1.80174e-05
1.8198e-05
1.79692e-05
1.77867e-05
1.54343e-05
2.56155e-05
2.58573e-05
3.6321e-05
2.17038e-05
2.06959e-05
2.14318e-05
2.09384e-05
2.07249e-05
2.03744e-05
2.00892e-05
1.9809e-05
1.95528e-05
1.93112e-05
1.90787e-05
1.88716e-05
1.86754e-05
1.84932e-05
1.83255e-05
1.81685e-05
1.80223e-05
1.78946e-05
1.77767e-05
1.76642e-05
1.75669e-05
1.74767e-05
1.74059e-05
1.73339e-05
1.7277e-05
1.72291e-05
1.71889e-05
1.71641e-05
1.71385e-05
1.71294e-05
1.71236e-05
1.71261e-05
1.71391e-05
1.71506e-05
1.71737e-05
1.72045e-05
1.72352e-05
1.72712e-05
1.73146e-05
1.73552e-05
1.7398e-05
1.74424e-05
1.74846e-05
1.75314e-05
1.75781e-05
1.7628e-05
1.76808e-05
1.77372e-05
1.78013e-05
1.78702e-05
1.79422e-05
1.80208e-05
1.80988e-05
1.81714e-05
1.82413e-05
1.82959e-05
1.83406e-05
1.83765e-05
1.84018e-05
1.84244e-05
1.84427e-05
1.84565e-05
1.84661e-05
1.84669e-05
1.84555e-05
1.84316e-05
1.83927e-05
1.83302e-05
1.82677e-05
1.81859e-05
1.81007e-05
1.80365e-05
1.79941e-05
1.8025e-05
1.81955e-05
1.84218e-05
1.82516e-05
1.78293e-05
1.62003e-05
2.58357e-05
2.52935e-05
3.63013e-05
2.01769e-05
1.9192e-05
1.99043e-05
1.94108e-05
1.9161e-05
1.87994e-05
1.84988e-05
1.82029e-05
1.79393e-05
1.76787e-05
1.74422e-05
1.72297e-05
1.70249e-05
1.68404e-05
1.66715e-05
1.65107e-05
1.6372e-05
1.62454e-05
1.61314e-05
1.60237e-05
1.59335e-05
1.58581e-05
1.57882e-05
1.57305e-05
1.56878e-05
1.56465e-05
1.5624e-05
1.56122e-05
1.55968e-05
1.56023e-05
1.56089e-05
1.56274e-05
1.56525e-05
1.56776e-05
1.57174e-05
1.57653e-05
1.58082e-05
1.58607e-05
1.59197e-05
1.59747e-05
1.60339e-05
1.60997e-05
1.61611e-05
1.62291e-05
1.63041e-05
1.63783e-05
1.64608e-05
1.65473e-05
1.66435e-05
1.67443e-05
1.68485e-05
1.69606e-05
1.70697e-05
1.71747e-05
1.7278e-05
1.7368e-05
1.74505e-05
1.75281e-05
1.7599e-05
1.76693e-05
1.77369e-05
1.7803e-05
1.78661e-05
1.79209e-05
1.79656e-05
1.79984e-05
1.80166e-05
1.80134e-05
1.80056e-05
1.79713e-05
1.7934e-05
1.79267e-05
1.79547e-05
1.80778e-05
1.83462e-05
1.85963e-05
1.84414e-05
1.78638e-05
1.70401e-05
2.61093e-05
2.4588e-05
3.63273e-05
1.86757e-05
1.77259e-05
1.84458e-05
1.79727e-05
1.77004e-05
1.73407e-05
1.70257e-05
1.67339e-05
1.64642e-05
1.6201e-05
1.59693e-05
1.5756e-05
1.55548e-05
1.53716e-05
1.52106e-05
1.50585e-05
1.49298e-05
1.48143e-05
1.47054e-05
1.46131e-05
1.454e-05
1.44777e-05
1.44175e-05
1.43735e-05
1.43516e-05
1.43219e-05
1.43121e-05
1.43137e-05
1.4315e-05
1.43311e-05
1.43539e-05
1.43854e-05
1.44241e-05
1.4466e-05
1.45209e-05
1.45813e-05
1.46388e-05
1.47091e-05
1.47817e-05
1.48571e-05
1.49335e-05
1.50223e-05
1.5108e-05
1.52012e-05
1.5303e-05
1.54026e-05
1.5516e-05
1.56301e-05
1.57528e-05
1.58806e-05
1.60115e-05
1.61475e-05
1.62802e-05
1.64128e-05
1.65414e-05
1.66618e-05
1.67784e-05
1.68917e-05
1.70015e-05
1.71122e-05
1.72206e-05
1.73294e-05
1.74359e-05
1.75341e-05
1.7626e-05
1.77066e-05
1.77731e-05
1.78215e-05
1.78632e-05
1.78743e-05
1.78802e-05
1.79204e-05
1.80067e-05
1.82061e-05
1.85446e-05
1.87996e-05
1.86612e-05
1.80992e-05
1.82112e-05
2.65382e-05
2.39112e-05
3.65408e-05
1.73013e-05
1.63425e-05
1.7049e-05
1.65714e-05
1.63043e-05
1.59402e-05
1.56283e-05
1.53369e-05
1.50563e-05
1.47974e-05
1.45728e-05
1.43628e-05
1.41668e-05
1.3987e-05
1.38329e-05
1.36986e-05
1.358e-05
1.34727e-05
1.33757e-05
1.33123e-05
1.32513e-05
1.32021e-05
1.31647e-05
1.31352e-05
1.31332e-05
1.31233e-05
1.31265e-05
1.31408e-05
1.31633e-05
1.31931e-05
1.32256e-05
1.32745e-05
1.33201e-05
1.33751e-05
1.34404e-05
1.35044e-05
1.35734e-05
1.36467e-05
1.37314e-05
1.38154e-05
1.38998e-05
1.39996e-05
1.40982e-05
1.42029e-05
1.43138e-05
1.44301e-05
1.45533e-05
1.46791e-05
1.48116e-05
1.49477e-05
1.50892e-05
1.52312e-05
1.53753e-05
1.55202e-05
1.56619e-05
1.58016e-05
1.59415e-05
1.60806e-05
1.62184e-05
1.63597e-05
1.64999e-05
1.66424e-05
1.67832e-05
1.69176e-05
1.70479e-05
1.71667e-05
1.72724e-05
1.73604e-05
1.74321e-05
1.74716e-05
1.75221e-05
1.76219e-05
1.7787e-05
1.80833e-05
1.84828e-05
1.8686e-05
1.84643e-05
1.79375e-05
1.89215e-05
2.67794e-05
2.27329e-05
3.69162e-05
1.58413e-05
1.49299e-05
1.56317e-05
1.52242e-05
1.49465e-05
1.46208e-05
1.434e-05
1.40884e-05
1.38397e-05
1.36173e-05
1.34374e-05
1.32689e-05
1.31166e-05
1.29737e-05
1.28627e-05
1.27728e-05
1.26909e-05
1.26248e-05
1.25664e-05
1.25429e-05
1.25205e-05
1.2499e-05
1.2498e-05
1.25045e-05
1.25274e-05
1.2548e-05
1.25808e-05
1.26177e-05
1.2666e-05
1.27206e-05
1.27747e-05
1.28464e-05
1.29131e-05
1.29933e-05
1.30791e-05
1.3168e-05
1.32635e-05
1.33632e-05
1.34774e-05
1.3587e-05
1.3706e-05
1.38319e-05
1.39582e-05
1.40884e-05
1.42226e-05
1.43595e-05
1.44933e-05
1.46323e-05
1.47704e-05
1.49103e-05
1.50562e-05
1.52027e-05
1.5356e-05
1.55108e-05
1.56685e-05
1.58266e-05
1.59844e-05
1.61411e-05
1.62929e-05
1.64456e-05
1.65953e-05
1.67464e-05
1.68969e-05
1.70445e-05
1.71898e-05
1.73265e-05
1.7455e-05
1.75725e-05
1.76865e-05
1.77707e-05
1.78394e-05
1.79389e-05
1.80915e-05
1.83627e-05
1.87219e-05
1.88899e-05
1.87932e-05
1.87796e-05
2.08186e-05
2.74945e-05
2.30708e-05
3.86415e-05
1.35016e-05
1.27175e-05
1.33217e-05
1.29892e-05
1.26422e-05
1.23154e-05
1.20163e-05
1.17625e-05
1.15394e-05
1.13479e-05
1.11886e-05
1.10569e-05
1.09605e-05
1.08828e-05
1.083e-05
1.07958e-05
1.07828e-05
1.07865e-05
1.08004e-05
1.08332e-05
1.0872e-05
1.09207e-05
1.09773e-05
1.1039e-05
1.11087e-05
1.11808e-05
1.12557e-05
1.13304e-05
1.14121e-05
1.14918e-05
1.15739e-05
1.16592e-05
1.17422e-05
1.18319e-05
1.19195e-05
1.20115e-05
1.21041e-05
1.21983e-05
1.22959e-05
1.23907e-05
1.24909e-05
1.25896e-05
1.26878e-05
1.27856e-05
1.28849e-05
1.29814e-05
1.30775e-05
1.31771e-05
1.32771e-05
1.33837e-05
1.34951e-05
1.36133e-05
1.37393e-05
1.38687e-05
1.40047e-05
1.4143e-05
1.42857e-05
1.44308e-05
1.4578e-05
1.47333e-05
1.48918e-05
1.50567e-05
1.52241e-05
1.53918e-05
1.5558e-05
1.57145e-05
1.58609e-05
1.59903e-05
1.60655e-05
1.60979e-05
1.62043e-05
1.64221e-05
1.6756e-05
1.72506e-05
1.77029e-05
1.76591e-05
1.71546e-05
1.73313e-05
2.05459e-05
2.53291e-05
2.19069e-05
3.86327e-05
)
;

boundaryField
{
    inlet
    {
        type            calculated;
        value           nonuniform List<scalar> 
23
(
7.5932e-05
7.57238e-05
7.55214e-05
7.53239e-05
7.51275e-05
7.49279e-05
7.47197e-05
7.44989e-05
7.42599e-05
7.39977e-05
7.37052e-05
7.3384e-05
7.30155e-05
7.24516e-05
7.19789e-05
7.1402e-05
7.06799e-05
6.97927e-05
6.87128e-05
6.74241e-05
6.58533e-05
6.46058e-05
6.21631e-05
)
;
    }
    outlet
    {
        type            calculated;
        value           nonuniform List<scalar> 
82
(
1.32031e-05
1.30075e-05
1.23391e-05
1.26366e-05
1.22454e-05
1.18702e-05
1.1519e-05
1.12136e-05
1.09373e-05
1.06924e-05
1.04819e-05
1.03005e-05
1.01596e-05
1.00396e-05
9.94939e-06
9.88217e-06
9.84155e-06
9.82268e-06
9.81671e-06
9.83618e-06
9.86405e-06
9.90455e-06
9.9563e-06
1.00146e-05
1.00836e-05
1.01557e-05
1.02314e-05
1.03064e-05
1.03903e-05
1.04711e-05
1.05541e-05
1.06408e-05
1.07234e-05
1.08138e-05
1.09002e-05
1.09911e-05
1.10818e-05
1.11732e-05
1.12681e-05
1.13584e-05
1.14549e-05
1.15491e-05
1.16422e-05
1.17348e-05
1.18297e-05
1.19218e-05
1.20141e-05
1.21118e-05
1.22106e-05
1.23177e-05
1.243e-05
1.25492e-05
1.26759e-05
1.28043e-05
1.29386e-05
1.30746e-05
1.32164e-05
1.33633e-05
1.3516e-05
1.36824e-05
1.38562e-05
1.40393e-05
1.42258e-05
1.44118e-05
1.45952e-05
1.47657e-05
1.49208e-05
1.50483e-05
1.51014e-05
1.51104e-05
1.52278e-05
1.54947e-05
1.59204e-05
1.65409e-05
1.70856e-05
1.69957e-05
1.6208e-05
1.60504e-05
1.94579e-05
2.48463e-05
1.97458e-05
3.67904e-05
)
;
    }
    walls
    {
        type            calculated;
        value           nonuniform List<scalar> 0();
    }
    frontAndBack
    {
        type            empty;
    }
    procBoundary3to2
    {
        type            processor;
        value           nonuniform List<scalar> 
88
(
2.66589e-05
3.72404e-05
1.27435e-05
2.54592e-05
2.54592e-05
1.29435e-05
1.65744e-05
1.65744e-05
1.80021e-05
1.68421e-05
1.62602e-05
1.62602e-05
2.17244e-05
2.08709e-05
2.01455e-05
1.94512e-05
1.87056e-05
1.87056e-05
2.59999e-05
2.51261e-05
2.42264e-05
2.33193e-05
2.24009e-05
2.24009e-05
3.07407e-05
3.00185e-05
2.92862e-05
2.85483e-05
2.7806e-05
2.70565e-05
2.62916e-05
2.62916e-05
3.64704e-05
3.59897e-05
3.54937e-05
3.49834e-05
3.44591e-05
3.39221e-05
3.33729e-05
3.28116e-05
3.22383e-05
3.16507e-05
3.10478e-05
3.04288e-05
3.04288e-05
3.45896e-05
3.93189e-05
3.97745e-05
3.79306e-05
3.82715e-05
3.87171e-05
3.90702e-05
3.93443e-05
3.95769e-05
3.97783e-05
3.99638e-05
4.01165e-05
4.02371e-05
4.0331e-05
4.03929e-05
4.04281e-05
4.04343e-05
4.04123e-05
4.03661e-05
4.02956e-05
4.02037e-05
4.00926e-05
3.99627e-05
3.98167e-05
3.96557e-05
3.9478e-05
3.92869e-05
3.90838e-05
3.88689e-05
3.86427e-05
3.84048e-05
3.8157e-05
3.78972e-05
3.76258e-05
3.73444e-05
3.70502e-05
3.67449e-05
3.6427e-05
3.60948e-05
3.57485e-05
3.53889e-05
3.50187e-05
3.50187e-05
)
;
    }
    procBoundary3to6
    {
        type            processor;
        value           uniform 2.08842e-06;
    }
    procBoundary3to7
    {
        type            processor;
        value           nonuniform List<scalar> 
16
(
7.14075e-06
3.26577e-05
3.30468e-05
2.97622e-05
2.84618e-05
2.73836e-05
2.59106e-05
2.4372e-05
2.4372e-05
2.18548e-05
2.01284e-05
1.86014e-05
1.71216e-05
1.57234e-05
1.43155e-05
1.21436e-05
)
;
    }
}


// ************************************************************************* //
