/*--------------------------------*- C++ -*----------------------------------*\
| =========                 |                                                 |
| \\      /  F ield         | OpenFOAM: The Open Source CFD Toolbox           |
|  \\    /   O peration     | Version:  2306                                  |
|   \\  /    A nd           | Website:  www.openfoam.com                      |
|    \\/     M anipulation  |                                                 |
\*---------------------------------------------------------------------------*/
FoamFile
{
    version     2.0;
    format      ascii;
    arch        "LSB;label=32;scalar=64";
    class       volScalarField;
    location    "425";
    object      magR;
}
// * * * * * * * * * * * * * * * * * * * * * * * * * * * * * * * * * * * * * //

dimensions      [0 2 -2 0 0 0 0];

internalField   nonuniform List<scalar> 
1340
(
59.2334
56.6215
53.5797
43.8863
1.7808
1.96131
2.36382
3.28791
0.383847
0.528973
0.633165
1.08072
0.0141386
0.0467138
0.117997
0.429379
0.00138244
0.00195877
0.00364731
0.0833408
0.000202265
0.000335153
0.000837764
0.00952391
3.55355e-06
1.59456e-06
0
0.00205058
2.3641e-05
1.78422e-05
1.88657e-06
0
2.83729e-05
3.0667e-05
3.31582e-05
1.3857e-06
2.39731e-05
2.36542e-05
4.00444e-05
1.8937e-05
2.42488e-05
2.41413e-05
3.4341e-05
4.31341e-05
2.24912e-05
2.27412e-05
2.92533e-05
4.68942e-05
2.1634e-05
2.19419e-05
2.69132e-05
4.29501e-05
2.04295e-05
2.06118e-05
2.49143e-05
3.86072e-05
1.93463e-05
1.94148e-05
2.30492e-05
3.48134e-05
1.81846e-05
1.81484e-05
2.11946e-05
3.13821e-05
1.70275e-05
1.68958e-05
1.94206e-05
2.82042e-05
1.5851e-05
1.56308e-05
1.77216e-05
2.52577e-05
1.46712e-05
1.43699e-05
1.60972e-05
2.25341e-05
1.34914e-05
1.31159e-05
1.45509e-05
2.00387e-05
1.23191e-05
1.18766e-05
1.3078e-05
1.77554e-05
1.11604e-05
1.066e-05
1.16807e-05
1.5677e-05
1.00228e-05
9.47162e-06
1.03593e-05
1.3796e-05
8.91408e-06
8.31948e-06
9.11242e-06
1.2097e-05
7.84113e-06
7.20889e-06
7.94388e-06
1.05732e-05
6.81186e-06
6.14598e-06
6.8544e-06
9.2118e-06
5.83425e-06
5.13621e-06
5.84719e-06
8.00442e-06
4.91683e-06
4.18374e-06
4.92526e-06
6.94119e-06
4.06924e-06
3.29263e-06
4.09429e-06
6.01459e-06
3.30408e-06
2.46618e-06
3.36193e-06
5.21835e-06
2.63872e-06
1.70569e-06
2.74021e-06
4.54646e-06
2.10012e-06
1.0136e-06
2.2462e-06
3.99394e-06
1.72688e-06
3.9281e-07
1.90147e-06
3.55484e-06
1.55459e-06
1.87357e-07
1.72059e-06
3.22122e-06
1.57413e-06
6.67202e-07
1.69021e-06
2.98148e-06
1.71999e-06
1.09217e-06
1.76622e-06
2.82065e-06
1.91928e-06
1.45598e-06
1.89705e-06
2.72105e-06
2.12417e-06
1.76117e-06
2.04377e-06
2.66465e-06
2.92143e-06
2.30977e-06
2.01097e-06
2.1831e-06
2.63524e-06
2.96545e-06
2.46454e-06
2.2092e-06
2.30277e-06
2.61957e-06
2.99845e-06
2.58413e-06
2.36007e-06
2.3972e-06
2.60791e-06
3.01409e-06
2.668e-06
2.46783e-06
2.46449e-06
2.59344e-06
3.00932e-06
2.71776e-06
2.537e-06
2.5051e-06
2.57201e-06
2.98351e-06
2.73611e-06
2.57194e-06
2.52054e-06
2.54126e-06
2.93762e-06
2.72649e-06
2.57707e-06
2.51301e-06
2.50007e-06
2.87348e-06
2.69257e-06
2.55669e-06
2.48531e-06
2.44858e-06
2.79351e-06
2.63804e-06
2.51475e-06
2.44006e-06
2.38732e-06
2.70041e-06
2.56658e-06
2.45507e-06
2.38003e-06
2.31722e-06
2.59677e-06
2.48147e-06
2.38107e-06
2.3079e-06
2.23962e-06
2.48505e-06
2.38567e-06
2.29567e-06
2.2259e-06
2.15563e-06
2.36733e-06
2.28178e-06
2.20148e-06
2.13615e-06
2.06644e-06
2.24533e-06
2.17175e-06
2.10052e-06
2.04028e-06
1.97303e-06
2.18459e-06
2.12042e-06
2.05728e-06
1.99446e-06
1.93966e-06
1.87617e-06
2.04781e-06
1.99374e-06
1.93973e-06
1.88466e-06
1.83547e-06
1.77661e-06
1.91197e-06
1.86651e-06
1.82046e-06
1.77252e-06
1.7289e-06
1.67512e-06
1.77829e-06
1.74016e-06
1.70107e-06
1.65959e-06
1.62137e-06
1.57282e-06
1.64833e-06
1.61644e-06
1.58341e-06
1.54773e-06
1.5146e-06
1.47118e-06
1.52383e-06
1.49723e-06
1.46941e-06
1.43886e-06
1.41039e-06
1.37181e-06
1.40606e-06
1.38389e-06
1.36052e-06
1.33446e-06
1.31017e-06
1.27613e-06
1.29526e-06
1.2768e-06
1.25719e-06
1.23506e-06
1.21446e-06
1.18466e-06
1.19053e-06
1.17515e-06
1.15875e-06
1.14004e-06
1.12273e-06
1.09693e-06
1.10219e-06
1.09022e-06
1.07742e-06
1.06377e-06
1.0481e-06
1.03376e-06
1.01172e-06
1.00312e-06
9.93151e-07
9.8254e-07
9.71276e-07
9.58318e-07
9.4669e-07
9.28167e-07
9.07406e-07
8.991e-07
8.90352e-07
8.81157e-07
8.7059e-07
8.61438e-07
8.46081e-07
8.1613e-07
8.09223e-07
8.02062e-07
7.94641e-07
7.86144e-07
7.79218e-07
7.66612e-07
7.30574e-07
7.24827e-07
7.18981e-07
7.13052e-07
7.06293e-07
7.01233e-07
6.90866e-07
6.53096e-07
6.48263e-07
6.43474e-07
6.38807e-07
6.33578e-07
6.30151e-07
6.21946e-07
5.88754e-07
5.84426e-07
5.80259e-07
5.76356e-07
5.72087e-07
5.69747e-07
5.63369e-07
5.36986e-07
5.32871e-07
5.28989e-07
5.25418e-07
5.21578e-07
5.19736e-07
5.14349e-07
4.90421e-07
4.86392e-07
4.82622e-07
4.79204e-07
4.75616e-07
4.74028e-07
4.69388e-07
4.4551e-07
4.41594e-07
4.37929e-07
4.34675e-07
4.31325e-07
4.29918e-07
4.25894e-07
4.0529e-07
4.00732e-07
3.966e-07
3.92865e-07
3.89699e-07
3.8671e-07
3.8594e-07
3.84142e-07
3.60335e-07
3.54877e-07
3.49758e-07
3.45035e-07
3.4086e-07
3.36932e-07
3.34329e-07
3.30098e-07
3.03695e-07
2.97917e-07
2.92929e-07
2.88787e-07
2.85762e-07
2.83914e-07
2.86387e-07
2.92162e-07
2.25e-07
2.13806e-07
2.03583e-07
1.94572e-07
1.86848e-07
1.80367e-07
1.75127e-07
1.67323e-07
1.79996e-07
1.76729e-07
1.75798e-07
1.77425e-07
1.82738e-07
1.92287e-07
2.15046e-07
2.4857e-07
2.00563e-07
1.99484e-07
1.98158e-07
1.963e-07
1.94816e-07
2.00475e-07
2.35952e-07
2.74404e-07
5.40477e-07
5.60643e-07
5.78195e-07
5.94389e-07
6.1307e-07
6.40582e-07
7.08508e-07
7.65201e-07
1.01491e-06
1.01809e-06
1.02036e-06
1.02186e-06
1.02279e-06
1.02586e-06
1.04601e-06
9.96646e-07
1.93988e-06
1.94058e-06
1.93953e-06
1.93745e-06
1.93293e-06
1.93027e-06
1.9139e-06
1.77561e-06
12.8595
3.47163
0.920187
0.284668
0.0497356
0.00315664
0.000627051
0
1.66687e-06
2.83858e-05
4.9343e-05
4.94264e-05
4.48278e-05
4.0498e-05
3.67288e-05
3.32911e-05
3.00848e-05
2.71039e-05
2.43512e-05
2.18151e-05
1.94916e-05
1.73719e-05
1.54469e-05
1.37076e-05
1.21424e-05
1.07424e-05
9.49684e-06
8.39554e-06
7.42871e-06
6.58684e-06
5.86071e-06
5.24125e-06
4.71898e-06
4.28472e-06
3.92867e-06
3.64041e-06
3.4094e-06
3.225e-06
3.07699e-06
2.95617e-06
2.85448e-06
2.76523e-06
2.68335e-06
2.60486e-06
2.52699e-06
2.44802e-06
2.36691e-06
2.2831e-06
2.19666e-06
2.10759e-06
2.01625e-06
1.92284e-06
1.82758e-06
1.73076e-06
1.6328e-06
1.53449e-06
1.43704e-06
1.34186e-06
1.25015e-06
1.16235e-06
1.07798e-06
9.95855e-07
9.15187e-07
8.3583e-07
7.58917e-07
6.85357e-07
6.18488e-07
5.61425e-07
5.13526e-07
4.6938e-07
4.26333e-07
3.85855e-07
3.30471e-07
2.98744e-07
1.64203e-07
2.71145e-07
2.4977e-07
7.51912e-07
8.81316e-07
1.57784e-06
7.73572
2.50209
0.474493
0.0741516
0.00725084
0.00142655
0
1.61656e-07
3.07546e-06
2.35595e-05
2.88824e-05
2.80546e-05
2.63466e-05
2.48342e-05
2.34495e-05
2.20867e-05
2.07257e-05
1.93676e-05
1.80328e-05
1.67253e-05
1.54563e-05
1.42321e-05
1.30594e-05
1.19494e-05
1.09043e-05
9.92791e-06
9.02431e-06
8.19509e-06
7.43956e-06
6.75731e-06
6.14627e-06
5.60366e-06
5.12572e-06
4.7081e-06
4.34623e-06
4.03425e-06
3.7668e-06
3.53787e-06
3.34144e-06
3.17191e-06
3.02398e-06
2.89267e-06
2.77408e-06
2.66452e-06
2.56126e-06
2.46215e-06
2.36558e-06
2.27044e-06
2.17602e-06
2.08176e-06
1.98742e-06
1.89274e-06
1.79751e-06
1.70167e-06
1.60541e-06
1.50933e-06
1.41442e-06
1.32194e-06
1.23288e-06
1.14753e-06
1.06536e-06
9.85209e-07
9.06352e-07
8.28739e-07
7.53524e-07
6.81496e-07
6.15863e-07
5.59505e-07
5.12268e-07
4.68828e-07
4.2617e-07
3.86126e-07
3.30659e-07
3.00471e-07
1.62678e-07
2.8447e-07
2.1877e-07
7.55072e-07
8.7411e-07
1.61493e-06
4.87958
1.57882
0.213302
0.0137391
0.000452596
9.09434e-05
0
4.56539e-07
7.73148e-06
1.76387e-05
1.73694e-05
1.64666e-05
1.55574e-05
1.48101e-05
1.41257e-05
1.34619e-05
1.28192e-05
1.21931e-05
1.15808e-05
1.0991e-05
1.04167e-05
9.85921e-06
9.31491e-06
8.78856e-06
8.27844e-06
7.78306e-06
7.30516e-06
6.84662e-06
6.40762e-06
5.99062e-06
5.59703e-06
5.22822e-06
4.88538e-06
4.56905e-06
4.27945e-06
4.01577e-06
3.77726e-06
3.56218e-06
3.36858e-06
3.1941e-06
3.03645e-06
2.89294e-06
2.76135e-06
2.63932e-06
2.52492e-06
2.41652e-06
2.31264e-06
2.21228e-06
2.11453e-06
2.01868e-06
1.92423e-06
1.83067e-06
1.73756e-06
1.64463e-06
1.5519e-06
1.4598e-06
1.36914e-06
1.28101e-06
1.19621e-06
1.11488e-06
1.0364e-06
9.59668e-07
8.83999e-07
8.09424e-07
7.37122e-07
6.67792e-07
6.04423e-07
5.49782e-07
5.04161e-07
4.62414e-07
4.2104e-07
3.82169e-07
3.27863e-07
2.98665e-07
1.64787e-07
2.90016e-07
2.0421e-07
7.48911e-07
8.56564e-07
1.61888e-06
2.93931
0.791089
0.0572702
0.000549938
0.000122883
0
1.0996e-07
1.91529e-06
9.95289e-06
1.23017e-05
1.14344e-05
1.10047e-05
1.05821e-05
1.02252e-05
9.86583e-06
9.50068e-06
9.1404e-06
8.78314e-06
8.43064e-06
8.08969e-06
7.7554e-06
7.43254e-06
7.11874e-06
6.81375e-06
6.51857e-06
6.23174e-06
5.95239e-06
5.68093e-06
5.41672e-06
5.16002e-06
4.91095e-06
4.66979e-06
4.43757e-06
4.21457e-06
4.00158e-06
3.79936e-06
3.60814e-06
3.42817e-06
3.25945e-06
3.10149e-06
2.95389e-06
2.81587e-06
2.68635e-06
2.56449e-06
2.44928e-06
2.33977e-06
2.23503e-06
2.13437e-06
2.03706e-06
1.94246e-06
1.85006e-06
1.75922e-06
1.66947e-06
1.58045e-06
1.49203e-06
1.40455e-06
1.3187e-06
1.23538e-06
1.15524e-06
1.07832e-06
1.00392e-06
9.30978e-07
8.58887e-07
7.87712e-07
7.18658e-07
6.5235e-07
5.91608e-07
5.3915e-07
4.95485e-07
4.55611e-07
4.15735e-07
3.78288e-07
3.25503e-07
2.974e-07
1.6969e-07
2.94019e-07
1.97606e-07
7.41316e-07
8.34505e-07
1.60679e-06
1.45355
0.251339
0.00366374
0.000382145
0
2.39681e-08
4.52353e-07
5.30064e-06
9.19991e-06
8.95027e-06
8.46777e-06
8.32497e-06
8.16622e-06
8.02786e-06
7.87072e-06
7.70246e-06
7.52344e-06
7.33115e-06
7.13025e-06
6.92078e-06
6.70265e-06
6.47914e-06
6.25332e-06
6.02384e-06
5.79427e-06
5.56763e-06
5.34268e-06
5.12215e-06
4.90692e-06
4.69734e-06
4.49404e-06
4.29705e-06
4.10719e-06
3.92395e-06
3.74756e-06
3.57852e-06
3.41627e-06
3.26121e-06
3.11313e-06
2.97185e-06
2.83748e-06
2.70956e-06
2.58761e-06
2.47152e-06
2.3607e-06
2.2547e-06
2.15299e-06
2.05517e-06
1.96075e-06
1.86922e-06
1.78014e-06
1.69289e-06
1.60703e-06
1.52216e-06
1.43811e-06
1.35517e-06
1.27393e-06
1.19515e-06
1.11936e-06
1.0465e-06
9.75846e-07
9.06393e-07
8.37614e-07
7.69603e-07
7.03588e-07
6.40104e-07
5.81807e-07
5.31376e-07
4.89488e-07
4.51222e-07
4.1265e-07
3.76453e-07
3.25062e-07
2.9817e-07
1.764e-07
3.00403e-07
1.92821e-07
7.41613e-07
8.22947e-07
1.60519e-06
0.488103
0.0337297
0.00128382
0
0
1.9303e-07
3.2645e-06
7.02549e-06
7.5755e-06
7.0166e-06
6.84339e-06
6.78299e-06
6.69871e-06
6.61508e-06
6.51641e-06
6.41148e-06
6.2958e-06
6.17083e-06
6.04016e-06
5.9018e-06
5.75716e-06
5.60658e-06
5.45226e-06
5.29271e-06
5.12993e-06
4.96547e-06
4.798e-06
4.63022e-06
4.46246e-06
4.29542e-06
4.13026e-06
3.96737e-06
3.80811e-06
3.65249e-06
3.50112e-06
3.35474e-06
3.213e-06
3.07652e-06
2.94502e-06
2.81851e-06
2.69717e-06
2.5805e-06
2.46837e-06
2.36081e-06
2.25732e-06
2.15778e-06
2.06186e-06
1.96931e-06
1.87984e-06
1.79304e-06
1.70859e-06
1.62592e-06
1.54467e-06
1.46447e-06
1.38513e-06
1.30693e-06
1.2304e-06
1.1562e-06
1.08474e-06
1.01588e-06
9.48922e-07
8.82914e-07
8.17407e-07
7.52556e-07
6.8958e-07
6.2891e-07
5.73014e-07
5.24563e-07
4.84431e-07
4.47713e-07
4.10425e-07
3.75446e-07
3.25471e-07
2.99947e-07
1.84037e-07
3.08159e-07
1.87196e-07
7.44921e-07
0.0703531
0.000139969
5.99391e-05
0
9.41251e-08
1.62908e-06
5.16069e-06
5.91241e-06
5.55882e-06
5.32897e-06
5.32589e-06
5.31469e-06
5.28853e-06
5.2569e-06
5.21385e-06
5.16506e-06
5.10618e-06
5.03847e-06
4.96452e-06
4.88294e-06
4.79516e-06
4.70114e-06
4.60119e-06
4.49677e-06
4.3888e-06
4.27669e-06
4.16125e-06
4.04424e-06
3.92497e-06
3.80443e-06
3.68321e-06
3.56145e-06
3.44011e-06
3.31942e-06
3.1998e-06
3.08186e-06
2.96577e-06
2.85217e-06
2.74097e-06
2.63258e-06
2.52724e-06
2.4247e-06
2.32528e-06
2.22888e-06
2.13531e-06
2.04472e-06
1.95685e-06
1.87164e-06
1.78891e-06
1.70839e-06
1.62987e-06
1.5529e-06
1.47717e-06
1.40233e-06
1.32832e-06
1.25534e-06
1.1839e-06
1.11459e-06
1.0477e-06
9.83075e-07
9.20012e-07
8.57662e-07
7.95633e-07
7.34152e-07
6.74421e-07
6.16742e-07
5.63401e-07
5.17097e-07
4.78882e-07
4.43828e-07
4.0797e-07
3.74336e-07
3.25962e-07
3.02036e-07
1.92303e-07
3.16021e-07
0.000725446
0.000286973
0
4.42087e-08
8.10032e-07
3.8634e-06
4.64078e-06
4.39239e-06
4.18717e-06
4.172e-06
4.20541e-06
4.21276e-06
4.21344e-06
4.20754e-06
4.19358e-06
4.17364e-06
4.14602e-06
4.11159e-06
4.07139e-06
4.02488e-06
3.9729e-06
3.91576e-06
3.85312e-06
3.78639e-06
3.71618e-06
3.64166e-06
3.56399e-06
3.48397e-06
3.40115e-06
3.31639e-06
3.22997e-06
3.14191e-06
3.05294e-06
2.96318e-06
2.87281e-06
2.7823e-06
2.6918e-06
2.60174e-06
2.5122e-06
2.4235e-06
2.33593e-06
2.24951e-06
2.16458e-06
2.08117e-06
1.99933e-06
1.91935e-06
1.84104e-06
1.76457e-06
1.68985e-06
1.61675e-06
1.54514e-06
1.47471e-06
1.4052e-06
1.33635e-06
1.26813e-06
1.20079e-06
1.13477e-06
1.0706e-06
1.00851e-06
9.48308e-07
8.8933e-07
8.30823e-07
7.72479e-07
7.14555e-07
6.58257e-07
6.03734e-07
5.53111e-07
5.09141e-07
4.72981e-07
4.39689e-07
4.05397e-07
3.73218e-07
3.26658e-07
3.04514e-07
0.000323689
0
1.42188e-08
2.51034e-07
3.11056e-06
3.74681e-06
3.55251e-06
3.37987e-06
3.36605e-06
3.41174e-06
3.44354e-06
3.46183e-06
3.47566e-06
3.4827e-06
3.48345e-06
3.47794e-06
3.46603e-06
3.44863e-06
3.4257e-06
3.3973e-06
3.36387e-06
3.32606e-06
3.28422e-06
3.23805e-06
3.18876e-06
3.13639e-06
3.08097e-06
3.02308e-06
2.96288e-06
2.90078e-06
2.83671e-06
2.77095e-06
2.70413e-06
2.63584e-06
2.56654e-06
2.49659e-06
2.42584e-06
2.3547e-06
2.28325e-06
2.21162e-06
2.14004e-06
2.06869e-06
1.99764e-06
1.9271e-06
1.85718e-06
1.78812e-06
1.71988e-06
1.65268e-06
1.58653e-06
1.5214e-06
1.45724e-06
1.39379e-06
1.33092e-06
1.26843e-06
1.20632e-06
1.14485e-06
1.08444e-06
1.02555e-06
9.68359e-07
9.12678e-07
8.57886e-07
8.0333e-07
7.48789e-07
6.94545e-07
6.4179e-07
5.90524e-07
5.42726e-07
5.01214e-07
4.67173e-07
4.35682e-07
4.03039e-07
0
2.98275e-10
6.38153e-09
2.17368e-06
3.16837e-06
2.84864e-06
2.74164e-06
2.73372e-06
2.78298e-06
2.82721e-06
2.85711e-06
2.8819e-06
2.90214e-06
2.91638e-06
2.92538e-06
2.9295e-06
2.928e-06
2.92141e-06
2.91013e-06
2.89414e-06
2.87379e-06
2.84938e-06
2.8214e-06
2.78971e-06
2.75509e-06
2.71776e-06
2.67757e-06
2.63517e-06
2.5907e-06
2.54442e-06
2.49614e-06
2.44634e-06
2.39542e-06
2.34281e-06
2.28917e-06
2.23456e-06
2.1789e-06
2.12252e-06
2.06539e-06
2.00767e-06
1.9495e-06
1.89094e-06
1.83217e-06
1.77326e-06
1.71434e-06
1.65563e-06
1.59713e-06
1.53906e-06
1.48146e-06
1.42437e-06
1.36777e-06
1.31148e-06
1.25543e-06
1.19944e-06
1.1436e-06
1.08812e-06
1.0334e-06
9.79847e-07
9.27609e-07
8.765e-07
8.25961e-07
7.75438e-07
7.24787e-07
6.74321e-07
6.25194e-07
5.77258e-07
0
7.70989e-08
1.59436e-06
2.6208e-06
2.33525e-06
2.20664e-06
2.23257e-06
2.27736e-06
2.32517e-06
2.36022e-06
2.38966e-06
2.41574e-06
2.4372e-06
2.45424e-06
2.4666e-06
2.47496e-06
2.47886e-06
2.47821e-06
2.47384e-06
2.46562e-06
2.45387e-06
2.43869e-06
2.42045e-06
2.39931e-06
2.37569e-06
2.34966e-06
2.32122e-06
2.29094e-06
2.25877e-06
2.22492e-06
2.18935e-06
2.15232e-06
2.11405e-06
2.07428e-06
2.0334e-06
1.99138e-06
1.94823e-06
1.90417e-06
1.8591e-06
1.81318e-06
1.76654e-06
1.71914e-06
1.67115e-06
1.62262e-06
1.57366e-06
1.52447e-06
1.47505e-06
1.42562e-06
1.37623e-06
1.32693e-06
1.27775e-06
1.22855e-06
1.17928e-06
1.12981e-06
1.08023e-06
1.03075e-06
9.81733e-07
9.33527e-07
8.86253e-07
8.39739e-07
7.935e-07
6.25744e-08
1.03353e-06
2.13521e-06
1.91839e-06
1.79937e-06
1.83225e-06
1.88316e-06
1.92631e-06
1.96299e-06
1.99335e-06
2.02108e-06
2.04554e-06
2.06609e-06
2.08317e-06
2.09611e-06
2.10572e-06
2.11174e-06
2.11393e-06
2.11315e-06
2.10914e-06
2.10228e-06
2.09258e-06
2.08052e-06
2.0661e-06
2.04963e-06
2.03128e-06
2.01102e-06
1.98928e-06
1.96601e-06
1.94134e-06
1.91526e-06
1.888e-06
1.85957e-06
1.82985e-06
1.79912e-06
1.76728e-06
1.73436e-06
1.70049e-06
1.66553e-06
1.62961e-06
1.59283e-06
1.55511e-06
1.51654e-06
1.47722e-06
1.43719e-06
1.39659e-06
1.35548e-06
1.31404e-06
1.27233e-06
1.2304e-06
1.18831e-06
1.14594e-06
1.10325e-06
1.06017e-06
1.01438e-06
1.55369e-06
1.6284e-06
1.47687e-06
1.52328e-06
1.57119e-06
1.61116e-06
1.64462e-06
1.67441e-06
1.70112e-06
1.72606e-06
1.74767e-06
1.76606e-06
1.78169e-06
1.794e-06
1.80352e-06
1.81e-06
1.81354e-06
1.81454e-06
1.81298e-06
1.80908e-06
1.80301e-06
1.79485e-06
1.78491e-06
1.77339e-06
1.76019e-06
1.74563e-06
1.72984e-06
1.71284e-06
1.69471e-06
1.67547e-06
1.65532e-06
1.63413e-06
1.61195e-06
1.58894e-06
1.5649e-06
1.53998e-06
1.51412e-06
1.48726e-06
1.45953e-06
1.43084e-06
1.40119e-06
)
;

boundaryField
{
    inlet
    {
        type            calculated;
        value           nonuniform List<scalar> 
13
(
6.56493e-06
6.6528e-06
6.72998e-06
6.79929e-06
6.86613e-06
6.93445e-06
7.02312e-06
7.05012e-06
6.98788e-06
6.95149e-06
6.89965e-06
6.8542e-06
6.81747e-06
)
;
    }
    outlet
    {
        type            calculated;
        value           nonuniform List<scalar> 0();
    }
    walls
    {
        type            calculated;
        value           nonuniform List<scalar> 4(1.01147 0.960056 0.889624 0.707857);
    }
    frontAndBack
    {
        type            empty;
    }
    procBoundary2to1
    {
        type            processor;
        value           nonuniform List<scalar> 
84
(
61.0188
1.61011
0.250399
0.00263463
0.00163584
6.09223e-07
2.78679e-05
2.6049e-05
2.81313e-05
2.45709e-05
2.45539e-05
2.31781e-05
2.23687e-05
2.12885e-05
2.02753e-05
1.92026e-05
1.81222e-05
1.70197e-05
1.59061e-05
1.47864e-05
1.36666e-05
1.25537e-05
1.14558e-05
1.03817e-05
9.33988e-06
8.3397e-06
7.39112e-06
6.50469e-06
5.69111e-06
4.96244e-06
4.33077e-06
3.80751e-06
3.40179e-06
3.11614e-06
2.94298e-06
2.86312e-06
2.85032e-06
2.87743e-06
2.87743e-06
3.6636e-06
3.58579e-06
3.51576e-06
3.44541e-06
3.36938e-06
3.28465e-06
3.18995e-06
3.0853e-06
2.97168e-06
2.85047e-06
2.72329e-06
2.5918e-06
2.45744e-06
2.3214e-06
2.3214e-06
2.24862e-06
2.10117e-06
1.95639e-06
1.81519e-06
1.67893e-06
1.54915e-06
1.42699e-06
1.31259e-06
1.2049e-06
1.2049e-06
1.11353e-06
1.01264e-06
9.15438e-07
8.22929e-07
7.36366e-07
6.58076e-07
5.93285e-07
5.41363e-07
4.94739e-07
4.49735e-07
4.49735e-07
4.10197e-07
3.66044e-07
3.10214e-07
2.36882e-07
1.85456e-07
2.0203e-07
5.1754e-07
1.01028e-06
1.93666e-06
)
;
    }
    procBoundary2to3
    {
        type            processor;
        value           nonuniform List<scalar> 
88
(
8.1702e-07
1.6082e-06
1.82045e-07
8.1702e-07
7.48069e-07
2.01321e-07
1.82045e-07
3.23698e-07
3.72365e-07
3.27807e-07
2.01321e-07
3.07549e-07
5.32372e-07
4.93407e-07
4.61527e-07
4.31855e-07
3.72365e-07
4.0093e-07
7.4708e-07
7.00403e-07
6.53799e-07
6.08378e-07
5.32372e-07
5.63838e-07
1.01673e-06
9.73153e-07
9.2975e-07
8.8682e-07
8.44462e-07
8.0253e-07
7.4708e-07
7.60607e-07
1.37062e-06
1.3392e-06
1.30692e-06
1.27387e-06
1.2402e-06
1.20596e-06
1.17125e-06
1.13614e-06
1.10066e-06
1.06473e-06
1.02831e-06
1.01673e-06
9.91306e-07
1.37539e-06
1.2368e-06
1.26978e-06
1.26944e-06
1.32709e-06
1.35815e-06
1.38868e-06
1.41521e-06
1.44028e-06
1.46335e-06
1.48429e-06
1.50254e-06
1.51823e-06
1.53188e-06
1.54275e-06
1.55122e-06
1.55736e-06
1.56126e-06
1.56309e-06
1.56287e-06
1.56075e-06
1.55696e-06
1.55161e-06
1.5448e-06
1.53664e-06
1.52731e-06
1.51694e-06
1.50548e-06
1.49315e-06
1.47991e-06
1.46583e-06
1.45098e-06
1.43531e-06
1.41891e-06
1.40174e-06
1.38376e-06
1.36506e-06
1.34549e-06
1.32507e-06
1.30386e-06
1.28174e-06
1.37062e-06
1.25872e-06
)
;
    }
    procBoundary2to6
    {
        type            processor;
        value           nonuniform List<scalar> 
13
(
18.6561
13.5009
8.78908
5.76402
3.49939
1.7463
0.578036
0.07676
0.00066125
0.000163401
0
2.64078e-16
3.07683e-12
)
;
    }
}


// ************************************************************************* //
