/*--------------------------------*- C++ -*----------------------------------*\
| =========                 |                                                 |
| \\      /  F ield         | OpenFOAM: The Open Source CFD Toolbox           |
|  \\    /   O peration     | Version:  2306                                  |
|   \\  /    A nd           | Website:  www.openfoam.com                      |
|    \\/     M anipulation  |                                                 |
\*---------------------------------------------------------------------------*/
FoamFile
{
    version     2.0;
    format      ascii;
    arch        "LSB;label=32;scalar=64";
    class       volVectorField;
    location    "425";
    object      momentError;
}
// * * * * * * * * * * * * * * * * * * * * * * * * * * * * * * * * * * * * * //

dimensions      [0 1 -2 0 0 0 0];

internalField   nonuniform List<vector> 
1340
(
(-4.78091e-05 3.34524e-06 1.26233e-15)
(-0.000106828 1.23689e-05 -2.16347e-15)
(-0.000319135 0.000133116 -1.10552e-14)
(-0.0021361 0.00125301 -2.14907e-14)
(-9.10292e-05 -2.14605e-07 -1.55173e-15)
(-0.000152406 7.75579e-07 -6.70904e-17)
(-0.00034916 -9.90605e-06 3.77854e-15)
(-0.00155359 -0.000220217 9.20228e-15)
(-5.10619e-07 1.8104e-05 3.6189e-17)
(-0.000202247 -8.84846e-06 1.44733e-14)
(-0.000332434 2.6903e-05 8.75044e-15)
(-0.00127009 -0.000230131 -1.03369e-13)
(-0.00044476 -0.00107645 7.59855e-15)
(0.00037507 0.00190919 -1.28747e-14)
(-0.000296079 -0.00039066 -2.9916e-14)
(-0.00117276 -0.000221134 -1.02949e-16)
(0.000138419 0.00123973 -6.92306e-16)
(-0.000101196 -0.002555 1.03009e-14)
(-0.000357398 0.000491061 -1.08694e-14)
(-0.000933091 -0.000200627 5.47871e-15)
(7.56257e-05 -7.09242e-05 -1.1913e-14)
(-0.000474751 0.000808492 3.4485e-15)
(-0.00022786 -0.000183879 4.42001e-14)
(-0.00126524 0.000376241 3.10336e-14)
(-0.000165858 -0.000191379 7.24118e-15)
(-0.000124161 -0.000131546 -1.53642e-15)
(-0.00020681 6.29192e-05 -2.46427e-15)
(-0.000696103 -0.000398745 -4.22072e-14)
(-7.08382e-05 -3.5206e-05 -3.42278e-15)
(-0.00011262 5.51305e-06 -6.46635e-15)
(-0.000227756 -4.49938e-05 3.78586e-15)
(-0.000299441 -0.000601054 -2.26296e-14)
(-7.8861e-05 -2.30277e-05 -1.09939e-15)
(-0.000119323 -1.40503e-05 8.88988e-16)
(-0.00025055 -2.75959e-05 -8.14194e-15)
(-0.000652763 -0.000196501 7.9353e-15)
(-7.79049e-05 -2.17232e-05 -4.81023e-16)
(-0.000118959 -1.00725e-05 -2.28688e-14)
(-0.000242238 -3.8786e-05 6.30561e-16)
(-0.000530447 -0.000245023 1.68634e-14)
(-7.80961e-05 -1.98049e-05 2.33463e-15)
(-0.000119467 -1.18091e-05 2.05404e-14)
(-0.00023587 -4.16623e-05 7.87228e-15)
(-0.000477505 -0.000233429 -7.15051e-14)
(-7.79989e-05 -1.97751e-05 7.27801e-15)
(-0.00011896 -1.39036e-05 -4.67747e-15)
(-0.000225856 -4.87668e-05 -2.28009e-14)
(-0.000416626 -0.000238083 4.09784e-14)
(-7.78336e-05 -1.95043e-05 -1.25854e-14)
(-0.000118 -1.67036e-05 4.02318e-15)
(-0.000214887 -5.50588e-05 2.53865e-14)
(-0.000362362 -0.000238673 6.16881e-14)
(-7.74476e-05 -1.96167e-05 7.45393e-16)
(-0.000116201 -1.96364e-05 2.62319e-15)
(-0.00020263 -6.15491e-05 -1.32514e-14)
(-0.000312676 -0.000238574 -6.36695e-15)
(-7.69143e-05 -2.00476e-05 7.2828e-16)
(-0.000113983 -2.29167e-05 -6.63899e-15)
(-0.00018982 -6.76484e-05 -2.43954e-14)
(-0.000267941 -0.000236247 -2.48067e-14)
(-7.60901e-05 -2.06112e-05 -1.03626e-15)
(-0.000110927 -2.62231e-05 4.81723e-16)
(-0.000176328 -7.32396e-05 1.92355e-14)
(-0.000227935 -0.000232169 4.7716e-14)
(-7.50571e-05 -2.16391e-05 3.09194e-15)
(-0.000107503 -2.97008e-05 -4.24523e-15)
(-0.00016275 -7.81217e-05 1.71466e-14)
(-0.000192449 -0.000226177 -1.92927e-14)
(-7.36645e-05 -2.26875e-05 1.59411e-15)
(-0.000103328 -3.30788e-05 7.49977e-15)
(-0.000148953 -8.22589e-05 3.81772e-15)
(-0.000161152 -0.000218897 -9.94823e-15)
(-7.20356e-05 -2.38815e-05 5.6514e-15)
(-9.88671e-05 -3.64246e-05 1.59014e-14)
(-0.000135424 -8.55508e-05 -1.01166e-14)
(-0.000133778 -0.000210086 -3.12919e-14)
(-7.00367e-05 -2.50798e-05 -9.50777e-15)
(-9.3741e-05 -3.96009e-05 -1.78553e-14)
(-0.000122058 -8.81109e-05 -1.3245e-14)
(-0.000110017 -0.000200468 1.15023e-14)
(-6.77445e-05 -2.66528e-05 5.55207e-15)
(-8.838e-05 -4.28337e-05 4.16653e-15)
(-0.000109239 -8.97592e-05 1.99619e-14)
(-8.94989e-05 -0.000189889 1.62189e-14)
(-6.5011e-05 -2.82726e-05 -2.00676e-15)
(-8.2541e-05 -4.58446e-05 2.88708e-15)
(-9.69409e-05 -9.06953e-05 -5.29528e-15)
(-7.18931e-05 -0.00017917 -1.26012e-14)
(-6.20342e-05 -2.99134e-05 -7.53532e-18)
(-7.66668e-05 -4.83697e-05 -3.65771e-15)
(-8.53602e-05 -9.08394e-05 -1.08313e-14)
(-5.68247e-05 -0.000168113 -2.18419e-15)
(-5.87165e-05 -3.15052e-05 1.0194e-16)
(-7.04738e-05 -5.05612e-05 1.74182e-15)
(-7.44536e-05 -9.04642e-05 1.47797e-14)
(-4.41294e-05 -0.00015724 1.78708e-14)
(-5.52071e-05 -3.29846e-05 2.43591e-15)
(-6.43413e-05 -5.23617e-05 -5.36289e-15)
(-6.43941e-05 -8.92412e-05 -4.54193e-15)
(-3.34003e-05 -0.000146311 -1.11215e-14)
(-5.14089e-05 -3.44315e-05 -9.86053e-17)
(-5.80694e-05 -5.37723e-05 8.99488e-15)
(-5.51591e-05 -8.75293e-05 -1.18232e-14)
(-2.45102e-05 -0.000135825 -1.96139e-14)
(-4.7496e-05 -3.56301e-05 4.49135e-15)
(-5.20752e-05 -5.44328e-05 -1.19959e-14)
(-4.68152e-05 -8.5047e-05 -2.31733e-15)
(-1.70844e-05 -0.000125588 2.12668e-14)
(-4.34633e-05 -3.66349e-05 -8.95951e-15)
(-4.61359e-05 -5.46559e-05 2.83505e-15)
(-3.92691e-05 -8.21925e-05 1.38968e-15)
(-1.1087e-05 -0.000115835 -9.70454e-15)
(-3.94461e-05 -3.72087e-05 7.55948e-15)
(-4.05879e-05 -5.41426e-05 -1.63742e-16)
(-3.26137e-05 -7.86449e-05 7.08216e-15)
(-6.18842e-06 -0.000106381 1.40631e-14)
(-3.54681e-05 -3.75509e-05 -8.13895e-15)
(-3.52379e-05 -5.32316e-05 6.89055e-15)
(-2.66966e-05 -7.48571e-05 2.02181e-15)
(-2.34956e-06 -9.74486e-05 4.6299e-16)
(-3.16127e-05 -3.74808e-05 -1.7559e-15)
(-3.03629e-05 -5.17446e-05 2.66409e-15)
(-2.16105e-05 -7.0576e-05 1.10586e-15)
(7.00104e-07 -8.89107e-05 -9.27208e-15)
(-2.79611e-05 -3.72112e-05 7.90523e-15)
(-2.57872e-05 -4.99708e-05 -1.50035e-15)
(-1.71716e-05 -6.62088e-05 -3.67932e-15)
(3.01229e-06 -8.09769e-05 -1.3589e-14)
(-2.45288e-05 -3.65209e-05 1.32748e-15)
(-2.17559e-05 -4.77566e-05 -1.19573e-16)
(-1.34549e-05 -6.16243e-05 1.74046e-15)
(4.79394e-06 -7.34835e-05 8.45826e-15)
(-2.13627e-05 -3.57019e-05 -6.34212e-15)
(-1.8056e-05 -4.53738e-05 -3.62205e-15)
(-1.02228e-05 -5.71764e-05 -1.62703e-15)
(6.07866e-06 -6.66127e-05 9.13669e-15)
(-1.84397e-05 -3.4626e-05 4.021e-15)
(-1.4891e-05 -4.27849e-05 4.77777e-15)
(-7.58592e-06 -5.27212e-05 3.64577e-15)
(7.01488e-06 -6.02137e-05 -8.00771e-15)
(-1.58288e-05 -3.34222e-05 -2.96899e-15)
(-1.20535e-05 -4.02569e-05 -3.87326e-15)
(-5.313e-06 -4.84823e-05 -2.11686e-15)
(7.63338e-06 -5.44265e-05 1.06782e-14)
(-1.34327e-05 -3.21557e-05 -1.86144e-15)
(-9.72377e-06 -3.75482e-05 2.96564e-15)
(-3.54541e-06 -4.43956e-05 1.36673e-15)
(8.03579e-06 -4.90636e-05 -3.06821e-15)
(-1.14756e-05 -3.03939e-05 -7.37741e-16)
(-7.76258e-06 -3.48985e-05 -3.03716e-15)
(-1.9785e-06 -4.06601e-05 3.66959e-15)
(8.22436e-06 -4.42506e-05 -2.85029e-15)
(-1.13458e-05 -2.45935e-05 4.84935e-15)
(-9.31122e-06 -2.79886e-05 -2.38779e-16)
(-6.88713e-06 -3.3188e-05 2.12447e-15)
(-4.43272e-07 -3.67687e-05 -1.46872e-15)
(8.21175e-06 -3.98982e-05 -8.22355e-15)
(-9.86658e-06 -2.33382e-05 -6.37922e-15)
(-7.69287e-06 -2.64088e-05 1.8401e-15)
(-5.23664e-06 -3.06452e-05 1.71766e-15)
(5.16676e-07 -3.34989e-05 -1.14228e-14)
(8.13594e-06 -3.59599e-05 1.80462e-15)
(-8.50175e-06 -2.20444e-05 1.45753e-15)
(-6.27865e-06 -2.47151e-05 -3.21819e-16)
(-3.97677e-06 -2.82444e-05 -8.76004e-16)
(1.20509e-06 -3.0392e-05 1.00859e-14)
(7.94215e-06 -3.23388e-05 6.41078e-15)
(-7.30201e-06 -2.08039e-05 8.91685e-16)
(-4.99762e-06 -2.30916e-05 -6.22622e-16)
(-2.85334e-06 -2.59868e-05 -2.18177e-15)
(1.74886e-06 -2.75841e-05 -7.18909e-17)
(7.67446e-06 -2.91125e-05 1.13487e-16)
(-6.20725e-06 -1.95217e-05 -3.51995e-15)
(-3.9983e-06 -2.14415e-05 -3.48837e-15)
(-2.03722e-06 -2.38056e-05 -3.82636e-15)
(2.09029e-06 -2.49546e-05 -2.07581e-15)
(7.33071e-06 -2.61469e-05 -2.49754e-15)
(-5.28526e-06 -1.82351e-05 -1.43797e-15)
(-3.10853e-06 -1.98194e-05 -4.17646e-16)
(-1.30277e-06 -2.18064e-05 3.377e-15)
(2.34895e-06 -2.25833e-05 1.1225e-15)
(6.95433e-06 -2.35195e-05 -6.51141e-15)
(-4.45623e-06 -1.69403e-05 -4.27804e-15)
(-2.4173e-06 -1.82707e-05 3.39639e-15)
(-8.03512e-07 -1.98788e-05 1.87331e-15)
(2.44264e-06 -2.03797e-05 -1.79866e-15)
(6.52801e-06 -2.11126e-05 3.29858e-15)
(-3.76978e-06 -1.56639e-05 1.24481e-15)
(-1.82622e-06 -1.6779e-05 -1.67447e-15)
(-3.68937e-07 -1.81016e-05 -5.73246e-16)
(2.51198e-06 -1.84079e-05 2.40954e-15)
(6.10247e-06 -1.89955e-05 5.67495e-15)
(-3.15598e-06 -1.44358e-05 1.78137e-15)
(-1.36769e-06 -1.53274e-05 -1.43823e-15)
(-9.53628e-08 -1.64491e-05 -2.47499e-15)
(2.46192e-06 -1.6599e-05 -1.56036e-16)
(5.64615e-06 -1.70741e-05 -4.64024e-15)
(-2.66968e-06 -1.32672e-05 -5.82912e-16)
(-9.88065e-07 -1.39565e-05 8.81653e-17)
(1.60051e-07 -1.49696e-05 3.19955e-15)
(2.42466e-06 -1.49899e-05 -1.99202e-15)
(5.22183e-06 -1.53951e-05 1.2653e-15)
(-2.23565e-06 -1.21939e-05 -2.29051e-15)
(-6.76692e-07 -1.27373e-05 1.52007e-16)
(3.17113e-07 -1.36068e-05 3.73102e-15)
(2.29165e-06 -1.35282e-05 -3.22261e-15)
(4.77084e-06 -1.38726e-05 -2.51716e-15)
(-1.87865e-06 -1.12059e-05 1.71916e-15)
(-4.54767e-07 -1.161e-05 4.62751e-16)
(4.26436e-07 -1.23796e-05 7.62235e-16)
(2.18928e-06 -1.22293e-05 6.05293e-16)
(4.36756e-06 -1.25332e-05 -9.63411e-16)
(-1.60056e-06 -1.03478e-05 8.71155e-16)
(-2.80377e-07 -1.05598e-05 -2.28032e-15)
(4.77831e-07 -1.12588e-05 -1.95357e-15)
(2.01104e-06 -1.10496e-05 1.88917e-15)
(3.9304e-06 -1.13248e-05 4.57269e-15)
(-1.41531e-06 -9.39413e-06 -1.1201e-15)
(-2.81071e-07 -9.72207e-06 3.02917e-15)
(5.19052e-07 -1.01747e-05 9.01193e-17)
(1.86937e-06 -1.00037e-05 -2.19509e-15)
(3.56197e-06 -1.02553e-05 2.81481e-15)
(-2.28005e-06 -8.42881e-06 -2.12012e-15)
(-1.09285e-06 -8.4611e-06 3.54602e-16)
(-5.54296e-07 -9.34405e-06 1.34313e-15)
(6.67798e-07 -9.01713e-06 1.38522e-16)
(1.6679e-06 -9.0798e-06 -3.53585e-15)
(3.15929e-06 -9.29367e-06 -3.18194e-15)
(-2.08699e-06 -7.69825e-06 1.27125e-15)
(-1.02312e-06 -7.70915e-06 2.98474e-15)
(-5.8034e-07 -8.494e-06 6.32701e-17)
(6.34055e-07 -8.15865e-06 -3.07446e-15)
(1.5164e-06 -8.2383e-06 9.15952e-16)
(2.89751e-06 -8.48513e-06 -2.43805e-15)
(-1.98289e-06 -6.9774e-06 -1.76693e-15)
(-9.30843e-07 -6.99169e-06 -2.28275e-15)
(-4.43056e-07 -7.67684e-06 1.03145e-15)
(5.6497e-07 -7.37815e-06 1.47174e-15)
(1.40668e-06 -7.46643e-06 -1.43035e-15)
(2.57218e-06 -7.74717e-06 2.62973e-16)
(-1.71631e-06 -6.27581e-06 7.03639e-16)
(-8.6242e-07 -6.29689e-06 -2.93916e-16)
(-5.2445e-07 -6.89805e-06 6.38962e-17)
(5.37379e-07 -6.66861e-06 -1.11175e-16)
(1.29921e-06 -6.76427e-06 1.74721e-15)
(2.40099e-06 -7.04589e-06 5.85343e-16)
(-1.62601e-06 -5.6179e-06 1.16524e-15)
(-8.07071e-07 -5.63598e-06 6.73135e-16)
(-3.50973e-07 -6.24533e-06 -2.22886e-15)
(5.32547e-07 -6.05322e-06 -1.42321e-15)
(1.2284e-06 -6.13532e-06 -1.08051e-15)
(2.15777e-06 -6.41169e-06 2.50063e-16)
(-1.34698e-06 -5.03904e-06 -1.37788e-15)
(-6.25742e-07 -5.14436e-06 -1.8853e-15)
(-3.37721e-07 -5.67354e-06 -1.11302e-15)
(5.02901e-07 -5.52733e-06 2.91317e-15)
(1.12053e-06 -5.57397e-06 3.96758e-16)
(1.9987e-06 -5.78165e-06 2.95006e-16)
(-1.14159e-06 -4.53939e-06 -1.68279e-16)
(-5.10002e-07 -4.62018e-06 1.198e-15)
(-1.70898e-07 -5.15876e-06 -6.80378e-16)
(4.9535e-07 -5.02378e-06 -5.5472e-16)
(9.84098e-07 -5.03328e-06 3.39648e-15)
(1.7401e-06 -5.22711e-06 -1.3697e-15)
(-8.46211e-07 -4.0558e-06 1.84819e-15)
(-2.66976e-07 -4.17835e-06 1.39732e-15)
(-1.17312e-07 -4.63067e-06 -2.44645e-15)
(3.78679e-07 -4.48894e-06 7.58272e-16)
(8.2522e-07 -4.50871e-06 -9.80899e-16)
(1.55597e-06 -4.69656e-06 1.0687e-15)
(-6.00457e-07 -3.60141e-06 -1.23998e-15)
(-2.07335e-07 -3.73791e-06 7.98656e-16)
(-8.29903e-08 -4.04611e-06 1.74157e-15)
(3.38256e-07 -3.96638e-06 -2.73661e-15)
(7.25097e-07 -4.0371e-06 1.41607e-15)
(1.36557e-06 -4.24692e-06 2.64381e-15)
(-8.21931e-07 -3.11014e-06 -4.9659e-16)
(-3.55837e-07 -3.14336e-06 4.34839e-16)
(-2.81046e-07 -3.55895e-06 3.70468e-16)
(3.30712e-08 -3.48374e-06 -1.01375e-15)
(3.00326e-07 -3.56604e-06 1.37257e-16)
(6.68844e-07 -3.62639e-06 1.55228e-15)
(1.28542e-06 -3.89771e-06 5.71195e-17)
(-6.03263e-07 -2.83421e-06 1.46587e-15)
(-2.31256e-07 -2.84913e-06 1.99521e-15)
(-2.55135e-07 -3.21424e-06 -1.83368e-15)
(7.95097e-08 -3.15734e-06 -1.12614e-16)
(3.35506e-07 -3.23224e-06 -6.98119e-16)
(6.78931e-07 -3.33334e-06 -7.65314e-16)
(1.17346e-06 -3.56953e-06 2.45344e-15)
(-4.9738e-07 -2.57424e-06 -1.30462e-16)
(-1.67315e-07 -2.5675e-06 -1.01753e-15)
(-1.09925e-07 -2.92911e-06 -1.21594e-15)
(1.46334e-07 -2.87495e-06 2.6286e-15)
(3.7417e-07 -2.96232e-06 1.13561e-15)
(6.41104e-07 -3.03035e-06 -3.14479e-15)
(1.07454e-06 -3.25388e-06 -2.31365e-15)
(-3.35266e-07 -2.32192e-06 6.42573e-16)
(-4.33434e-08 -2.31817e-06 -7.64155e-16)
(-6.02837e-08 -2.65812e-06 2.2035e-16)
(2.10181e-07 -2.60439e-06 5.32774e-16)
(3.84943e-07 -2.67562e-06 -1.09198e-15)
(5.9976e-07 -2.73712e-06 -2.18631e-15)
(9.65583e-07 -2.93996e-06 2.52184e-15)
(-2.75714e-07 -2.12103e-06 2.81691e-15)
(2.71365e-08 -2.07445e-06 5.83726e-17)
(6.64363e-08 -2.41847e-06 -1.8531e-15)
(2.53688e-07 -2.34147e-06 1.48382e-16)
(3.84719e-07 -2.39336e-06 1.29662e-15)
(5.40619e-07 -2.44121e-06 5.96313e-16)
(8.4493e-07 -2.62497e-06 -4.78336e-16)
(-1.77016e-07 -1.95076e-06 -3.40408e-16)
(1.07342e-07 -1.89484e-06 3.2618e-16)
(8.22076e-08 -2.17869e-06 -5.0114e-16)
(2.61872e-07 -2.07093e-06 -7.19055e-16)
(3.44984e-07 -2.10429e-06 4.86212e-16)
(4.73142e-07 -2.14282e-06 -1.13229e-15)
(7.45829e-07 -2.3132e-06 1.82907e-16)
(-1.74299e-07 -1.81459e-06 1.68643e-15)
(9.27969e-08 -1.71469e-06 8.08894e-16)
(9.20484e-08 -2.0056e-06 2.24117e-16)
(2.25132e-07 -1.8659e-06 6.99861e-16)
(3.15193e-07 -1.89142e-06 -5.75976e-17)
(4.25926e-07 -1.9181e-06 8.101e-16)
(6.63153e-07 -2.06181e-06 -3.77377e-17)
(-1.5184e-07 -1.69801e-06 7.49257e-16)
(8.37966e-08 -1.62316e-06 1.82414e-15)
(4.56265e-08 -1.87274e-06 -5.75326e-16)
(1.97989e-07 -1.735e-06 -1.08862e-15)
(2.77697e-07 -1.74679e-06 6.13577e-16)
(3.92409e-07 -1.78807e-06 4.74131e-16)
(6.10211e-07 -1.91891e-06 4.45038e-16)
(-1.45947e-07 -1.59681e-06 8.21039e-16)
(6.10815e-08 -1.51249e-06 -8.55021e-16)
(4.19729e-08 -1.75475e-06 -4.58437e-16)
(1.60433e-07 -1.62881e-06 7.71324e-16)
(2.44954e-07 -1.63085e-06 1.9099e-15)
(3.51055e-07 -1.67842e-06 -8.10385e-16)
(5.47951e-07 -1.80519e-06 -2.53895e-15)
(-1.13442e-07 -1.47831e-06 -1.06433e-17)
(3.92128e-08 -1.44556e-06 -5.17734e-16)
(1.5119e-08 -1.58856e-06 1.24852e-17)
(1.28329e-07 -1.49836e-06 7.25965e-16)
(1.97188e-07 -1.49249e-06 -1.38602e-16)
(2.93484e-07 -1.5311e-06 -4.51161e-16)
(4.8024e-07 -1.66916e-06 6.02228e-16)
(-1.74553e-07 -1.25217e-06 -1.44218e-15)
(-4.08373e-08 -1.20595e-06 -8.67079e-16)
(-1.11893e-07 -1.42827e-06 -5.64564e-17)
(2.77356e-08 -1.33632e-06 4.67221e-16)
(8.1288e-08 -1.3323e-06 4.40493e-16)
(1.51536e-07 -1.31782e-06 1.30016e-15)
(2.34483e-07 -1.3556e-06 -6.24625e-16)
(4.09148e-07 -1.48893e-06 -1.53131e-15)
(-1.62492e-07 -1.0438e-06 1.55498e-16)
(-5.20371e-08 -9.87318e-07 -3.97699e-17)
(-8.10644e-08 -1.20463e-06 -5.04317e-16)
(7.77725e-09 -1.13336e-06 1.23244e-15)
(5.41601e-08 -1.14111e-06 3.8167e-16)
(1.11151e-07 -1.13439e-06 -1.26853e-15)
(1.80112e-07 -1.17357e-06 -6.36895e-16)
(3.30343e-07 -1.28861e-06 3.2423e-16)
(-1.12693e-07 -8.52578e-07 -9.35329e-16)
(-2.41595e-08 -8.1808e-07 4.77418e-18)
(-8.41434e-08 -1.00985e-06 3.80571e-16)
(7.11687e-09 -9.52509e-07 -1.37285e-15)
(3.9583e-08 -9.66533e-07 2.70994e-15)
(8.31741e-08 -9.67274e-07 -3.04024e-16)
(1.34608e-07 -1.01029e-06 -1.15035e-15)
(2.50495e-07 -1.11674e-06 1.03807e-15)
(-1.16597e-07 -7.36753e-07 5.2516e-17)
(-8.4038e-09 -6.71495e-07 5.93254e-16)
(-5.08238e-08 -8.84599e-07 7.44856e-16)
(1.10524e-08 -8.15438e-07 -1.08845e-15)
(3.61545e-08 -8.32958e-07 1.20603e-15)
(6.87293e-08 -8.37171e-07 -6.35071e-16)
(1.04311e-07 -8.83734e-07 -1.47678e-15)
(1.82945e-07 -9.88189e-07 1.68976e-15)
(-9.82562e-08 -6.58441e-07 1.74297e-16)
(-7.59655e-09 -6.04234e-07 6.63966e-16)
(-5.56842e-08 -8.05241e-07 1.31545e-15)
(1.90916e-08 -7.36535e-07 -2.56967e-17)
(3.95164e-08 -7.52839e-07 -1.89745e-15)
(6.42354e-08 -7.58253e-07 5.56115e-16)
(8.31985e-08 -8.0829e-07 -5.4804e-16)
(1.3001e-07 -9.11836e-07 -3.61692e-16)
(-9.41919e-08 -6.14046e-07 -6.26364e-16)
(7.30777e-09 -5.59654e-07 -9.79114e-16)
(-1.30315e-08 -7.51959e-07 3.07383e-16)
(2.62715e-08 -6.82488e-07 1.49007e-15)
(4.18489e-08 -6.94764e-07 2.82956e-16)
(5.87419e-08 -6.97518e-07 -5.88832e-16)
(6.93331e-08 -7.46095e-07 1.3325e-16)
(9.93434e-08 -8.46189e-07 8.44331e-16)
(-6.12032e-08 -5.86331e-07 1.59276e-15)
(3.92418e-09 -5.54728e-07 4.65305e-16)
(-2.51918e-08 -7.3385e-07 -1.3097e-15)
(2.37971e-08 -6.61851e-07 1.39633e-16)
(3.40493e-08 -6.74652e-07 -9.35903e-16)
(4.44711e-08 -6.8112e-07 -3.36776e-16)
(4.21056e-08 -7.31925e-07 1.74058e-15)
(6.19181e-08 -7.95614e-07 -1.12692e-16)
(-5.26141e-08 -6.50443e-07 -1.05417e-15)
(3.25618e-08 -6.06112e-07 -4.73442e-16)
(2.90566e-08 -7.79277e-07 1.00519e-15)
(3.33864e-08 -6.96702e-07 -4.35867e-16)
(3.58647e-08 -7.04363e-07 -3.6324e-16)
(3.52137e-08 -7.00997e-07 1.22523e-15)
(2.43662e-08 -7.37645e-07 -8.85004e-17)
(2.3533e-08 -8.25931e-07 -8.54981e-16)
(-4.0573e-08 -7.93601e-07 -6.32215e-16)
(1.00691e-08 -7.7249e-07 -1.25381e-15)
(1.44606e-08 -8.31768e-07 -6.62603e-16)
(1.76537e-08 -7.79869e-07 2.37661e-15)
(1.41463e-08 -7.75251e-07 -1.31034e-16)
(5.90816e-09 -7.70925e-07 -6.26942e-16)
(-1.71356e-08 -8.10214e-07 -8.63896e-16)
(-8.20535e-08 -9.43514e-07 -3.35962e-15)
(0.029527 0.0119244 -1.46535e-14)
(-0.00535831 -0.00317686 1.77504e-14)
(-0.00287403 -0.00343688 -9.39081e-14)
(-0.00169044 -0.00297393 1.65238e-14)
(-0.000868968 -0.00274352 3.68589e-14)
(-0.000603276 -0.00236857 -1.78214e-14)
(-0.000528484 -0.00198668 -5.6255e-14)
(-0.000398611 -0.00161775 3.64497e-15)
(-0.00034917 -0.00159094 4.87518e-15)
(-0.000296637 -0.00139275 -2.55649e-14)
(-0.000242306 -0.00122141 -1.26902e-14)
(-0.000198315 -0.0010679 3.63747e-14)
(-0.00016076 -0.000932302 5.63616e-14)
(-0.000129108 -0.000813181 -3.53961e-14)
(-0.000102277 -0.000708405 2.2168e-14)
(-7.98909e-05 -0.000617328 9.86771e-15)
(-6.10779e-05 -0.000537799 -4.68414e-14)
(-4.55701e-05 -0.000469218 3.68816e-14)
(-3.27109e-05 -0.000409398 -5.0853e-14)
(-2.23051e-05 -0.000358054 3.02208e-14)
(-1.37723e-05 -0.000313777 -8.06948e-15)
(-6.99203e-06 -0.000275933 1.88444e-15)
(-1.55355e-06 -0.000243021 1.08737e-14)
(2.63974e-06 -0.000214839 -9.95618e-15)
(5.93797e-06 -0.000190364 -2.99902e-15)
(8.38524e-06 -0.000169294 -4.26606e-15)
(1.02291e-05 -0.000150723 1.61446e-14)
(1.14827e-05 -0.000134514 -1.03327e-14)
(1.23604e-05 -0.000120075 1.22502e-14)
(1.2841e-05 -0.000107352 2.20398e-15)
(1.31115e-05 -9.5942e-05 -1.40425e-14)
(1.31211e-05 -8.5839e-05 -1.23057e-14)
(1.30227e-05 -7.67489e-05 1.19056e-14)
(1.2755e-05 -6.86997e-05 8.64766e-15)
(1.24568e-05 -6.14371e-05 -2.95927e-15)
(1.20399e-05 -5.50054e-05 5.99288e-15)
(1.16231e-05 -4.9194e-05 -1.71091e-15)
(1.1112e-05 -4.40761e-05 -1.18968e-14)
(1.06702e-05 -3.93699e-05 3.52783e-15)
(1.01128e-05 -3.52189e-05 -2.02799e-16)
(9.60815e-06 -3.14218e-05 -7.94664e-16)
(9.00027e-06 -2.80859e-05 6.57804e-15)
(8.46443e-06 -2.50357e-05 -4.84493e-15)
(7.83454e-06 -2.2363e-05 -8.18212e-16)
(7.29627e-06 -1.99317e-05 7.70523e-16)
(6.67559e-06 -1.78179e-05 5.91747e-15)
(6.15675e-06 -1.59085e-05 -2.64755e-15)
(5.57304e-06 -1.42486e-05 5.5907e-15)
(5.08643e-06 -1.2749e-05 -1.04798e-15)
(4.54757e-06 -1.14361e-05 1.48373e-15)
(4.08851e-06 -1.02535e-05 1.41614e-15)
(3.5942e-06 -9.2154e-06 2.8896e-16)
(3.18085e-06 -8.35792e-06 1.53606e-15)
(2.7847e-06 -7.6304e-06 1.86653e-15)
(2.44438e-06 -6.97865e-06 -1.0459e-15)
(2.15475e-06 -6.37761e-06 -3.69631e-16)
(1.94195e-06 -5.74687e-06 -1.36931e-15)
(1.7247e-06 -5.16672e-06 1.99264e-15)
(1.56747e-06 -4.56972e-06 -3.96576e-15)
(1.37412e-06 -4.11271e-06 1.2354e-15)
(1.25046e-06 -3.70073e-06 -4.68286e-15)
(1.11218e-06 -3.35926e-06 -2.02098e-15)
(9.82296e-07 -3.06655e-06 1.71059e-16)
(8.65048e-07 -2.75829e-06 3.04071e-15)
(7.48188e-07 -2.45649e-06 3.48977e-15)
(6.33824e-07 -2.17209e-06 -7.68464e-16)
(5.52593e-07 -1.8844e-06 -2.94971e-15)
(5.12084e-07 -1.63698e-06 -1.35036e-15)
(4.86561e-07 -1.50062e-06 1.87338e-15)
(4.49487e-07 -1.37427e-06 5.28597e-15)
(4.17187e-07 -1.25366e-06 -2.39355e-15)
(3.80699e-07 -1.11494e-06 2.02678e-15)
(3.27585e-07 -9.55501e-07 -1.70054e-15)
(2.5479e-07 -8.08053e-07 -7.02316e-16)
(1.90951e-07 -6.97442e-07 -8.05707e-16)
(1.19906e-07 -6.3239e-07 3.81717e-15)
(1.06543e-07 -5.54743e-07 -3.98552e-16)
(1.02091e-07 -4.43967e-07 2.29184e-16)
(6.37674e-08 -5.33918e-07 8.96847e-16)
(-1.9174e-07 -7.50176e-07 9.78964e-15)
(0.0203562 0.000477126 3.87805e-15)
(0.00334146 -0.000370287 -4.31354e-15)
(0.00179983 -0.00051429 1.90283e-14)
(0.00134071 -0.000577445 -3.98111e-15)
(0.000784199 -0.001296 -6.10651e-15)
(0.000905585 -0.000816593 1.92157e-15)
(0.000834889 -0.000122939 1.03926e-14)
(0.0006791 -0.000622274 -6.27075e-16)
(0.00060129 -0.000604131 -7.38802e-16)
(0.000525408 -0.000572792 3.52988e-15)
(0.000458843 -0.000537617 3.86385e-15)
(0.000399699 -0.00050276 -7.55442e-15)
(0.000347269 -0.000468447 -1.00663e-14)
(0.00030074 -0.00043408 6.31333e-15)
(0.000259893 -0.000400684 -3.51153e-15)
(0.000223975 -0.000367979 -2.51066e-15)
(0.000192776 -0.000336622 7.90468e-15)
(0.000165593 -0.000306573 -6.18699e-15)
(0.000142262 -0.00027823 9.16676e-15)
(0.000122106 -0.000251679 -5.81848e-15)
(0.000104948 -0.000227119 1.02442e-15)
(9.01802e-05 -0.0002046 -1.89139e-16)
(7.76938e-05 -0.000184035 -1.44313e-15)
(6.69765e-05 -0.000165502 8.80278e-16)
(5.79269e-05 -0.00014873 8.80473e-16)
(5.01477e-05 -0.000133704 1.41187e-15)
(4.3586e-05 -0.000120164 -3.25431e-15)
(3.79321e-05 -0.000108018 2.13312e-15)
(3.31681e-05 -9.70082e-05 -2.63739e-15)
(2.90576e-05 -8.71067e-05 -1.36687e-16)
(2.55986e-05 -7.8112e-05 2.30014e-15)
(2.25989e-05 -7.00292e-05 2.41257e-15)
(2.0072e-05 -6.26735e-05 -2.59775e-15)
(1.78686e-05 -5.60928e-05 -1.2832e-15)
(1.6001e-05 -5.00995e-05 1.29659e-15)
(1.43517e-05 -4.47541e-05 -1.35354e-15)
(1.29555e-05 -3.98627e-05 1.47415e-16)
(1.16521e-05 -3.56085e-05 1.87508e-15)
(1.05438e-05 -3.16836e-05 -4.04003e-16)
(9.53708e-06 -2.81793e-05 4.42789e-16)
(8.6541e-06 -2.49752e-05 6.25506e-16)
(7.82137e-06 -2.21513e-05 -1.92678e-15)
(7.08364e-06 -1.95927e-05 9.36322e-16)
(6.37118e-06 -1.73506e-05 4.48715e-16)
(5.74438e-06 -1.53407e-05 -1.11693e-15)
(5.12719e-06 -1.35923e-05 -7.93023e-16)
(4.59465e-06 -1.20429e-05 8.67856e-17)
(4.06213e-06 -1.06881e-05 -2.06566e-16)
(3.61049e-06 -9.48617e-06 -3.60991e-16)
(3.14728e-06 -8.41914e-06 6.51129e-16)
(2.76575e-06 -7.4708e-06 -6.80003e-16)
(2.3605e-06 -6.6659e-06 1.20884e-15)
(2.05457e-06 -5.98925e-06 2.60159e-16)
(1.67151e-06 -5.44964e-06 -1.44137e-16)
(1.3965e-06 -4.97782e-06 4.27735e-16)
(1.08199e-06 -4.57699e-06 9.34412e-16)
(8.90504e-07 -4.14708e-06 2.08969e-16)
(7.19057e-07 -3.7039e-06 1.31795e-16)
(6.23652e-07 -3.27952e-06 1.87776e-15)
(5.65956e-07 -2.88146e-06 -1.41436e-15)
(4.73391e-07 -2.57539e-06 -7.77789e-16)
(3.88584e-07 -2.30971e-06 -1.48481e-15)
(3.11223e-07 -2.06972e-06 -9.69541e-16)
(2.20572e-07 -1.84267e-06 -2.7475e-15)
(1.48613e-07 -1.61176e-06 -8.19261e-16)
(9.27786e-08 -1.39716e-06 -2.07352e-16)
(5.72057e-08 -1.2046e-06 6.69775e-16)
(9.05805e-08 -1.02603e-06 5.13557e-16)
(1.15034e-07 -8.89749e-07 -9.12825e-16)
(1.19874e-07 -7.83206e-07 -2.93806e-16)
(1.17448e-07 -6.81484e-07 8.62355e-16)
(1.20948e-07 -5.62099e-07 -3.3776e-16)
(1.11586e-07 -4.44385e-07 -5.077e-16)
(1.03024e-07 -3.47622e-07 7.98399e-16)
(9.58469e-08 -2.67559e-07 5.88629e-17)
(5.25769e-08 -2.28546e-07 -5.37249e-16)
(7.08359e-08 -1.69426e-07 1.16847e-15)
(1.02578e-07 -1.00181e-07 -2.37683e-16)
(1.13675e-07 -1.49757e-07 -1.53249e-16)
(-1.32948e-07 -3.27392e-07 4.13601e-16)
(0.00171047 0.00102971 -1.25389e-16)
(0.000485514 0.00089256 -7.02804e-17)
(0.000687812 0.000840277 -8.53849e-17)
(0.000665114 0.000777618 1.09588e-16)
(0.000625262 0.000628807 -2.41342e-16)
(0.000636011 0.000410883 -1.69535e-16)
(0.000565085 0.000376457 1.61936e-17)
(0.000553976 0.000399126 -2.0878e-16)
(0.000522247 0.000308664 -2.36633e-16)
(0.000486426 0.000243564 1.07811e-16)
(0.000451873 0.00018679 -2.45457e-16)
(0.000417877 0.000136471 -2.05146e-16)
(0.000384731 9.21593e-05 1.78235e-16)
(0.000352712 5.41245e-05 3.57706e-16)
(0.000322023 2.17336e-05 -1.90592e-16)
(0.000292833 -5.08745e-06 1.89407e-16)
(0.000265273 -2.71237e-05 9.73124e-17)
(0.000239425 -4.44618e-05 -1.27926e-17)
(0.000215359 -5.78614e-05 -3.79896e-17)
(0.000193087 -6.77218e-05 1.52368e-16)
(0.000172605 -7.46686e-05 7.1632e-16)
(0.000153867 -7.91241e-05 -3.43115e-17)
(0.000136836 -8.14281e-05 2.03536e-16)
(0.000121427 -8.21089e-05 8.6685e-17)
(0.000107561 -8.14226e-05 -1.12856e-16)
(9.51251e-05 -7.97008e-05 -1.89403e-16)
(8.40403e-05 -7.71027e-05 -4.93111e-16)
(7.41791e-05 -7.38896e-05 -8.84164e-18)
(6.54599e-05 -7.01908e-05 1.30359e-18)
(5.7757e-05 -6.61879e-05 1.85323e-16)
(5.0992e-05 -6.19759e-05 2.37409e-16)
(4.50467e-05 -5.77037e-05 -1.10034e-15)
(3.98412e-05 -5.34257e-05 -1.24146e-15)
(3.52812e-05 -4.92471e-05 -6.14864e-16)
(3.1287e-05 -4.5183e-05 2.37188e-16)
(2.77905e-05 -4.1326e-05 6.74018e-16)
(2.47263e-05 -3.76122e-05 1.85424e-18)
(2.20385e-05 -3.41656e-05 1.51619e-16)
(1.9639e-05 -3.09182e-05 4.91862e-16)
(1.75299e-05 -2.79365e-05 5.03366e-16)
(1.5636e-05 -2.51361e-05 4.43885e-17)
(1.39688e-05 -2.26125e-05 -2.36023e-16)
(1.24526e-05 -2.02719e-05 -1.62155e-16)
(1.11167e-05 -1.81917e-05 -7.96101e-16)
(9.89182e-06 -1.62959e-05 -1.40161e-15)
(8.81178e-06 -1.46295e-05 -6.92529e-16)
(7.82166e-06 -1.31299e-05 -2.66285e-16)
(6.94858e-06 -1.18102e-05 9.38519e-16)
(6.15068e-06 -1.06263e-05 1.38097e-15)
(5.44185e-06 -9.57236e-06 -3.26977e-17)
(4.80777e-06 -8.61947e-06 4.27558e-16)
(4.2426e-06 -7.78046e-06 -1.54511e-15)
(3.72199e-06 -7.06657e-06 -1.20151e-15)
(3.23323e-06 -6.46997e-06 1.63408e-16)
(2.74459e-06 -5.99235e-06 -8.58504e-16)
(2.32043e-06 -5.55893e-06 -2.68471e-16)
(1.91354e-06 -5.15868e-06 -3.01888e-16)
(1.61892e-06 -4.72545e-06 6.05241e-16)
(1.39189e-06 -4.28211e-06 2.97667e-15)
(1.2281e-06 -3.85128e-06 5.48483e-16)
(1.0924e-06 -3.46046e-06 3.30913e-15)
(9.5758e-07 -3.1499e-06 1.40984e-16)
(8.14563e-07 -2.87571e-06 3.43944e-16)
(6.86223e-07 -2.60253e-06 -1.47831e-15)
(5.69937e-07 -2.33772e-06 -2.43393e-16)
(4.75971e-07 -2.08585e-06 8.26598e-16)
(4.06909e-07 -1.85629e-06 -3.29692e-16)
(3.80405e-07 -1.66252e-06 6.2721e-16)
(3.76109e-07 -1.51224e-06 -2.15459e-16)
(3.6309e-07 -1.37687e-06 -6.75777e-16)
(3.35573e-07 -1.24705e-06 -9.31593e-16)
(2.92921e-07 -1.09096e-06 4.8659e-16)
(2.46343e-07 -9.17484e-07 1.62723e-15)
(2.17611e-07 -7.65676e-07 -1.57743e-15)
(1.98439e-07 -6.41079e-07 5.89778e-17)
(1.11579e-07 -5.98456e-07 -1.02049e-16)
(1.30348e-07 -5.58481e-07 -2.62291e-15)
(1.56469e-07 -5.21833e-07 2.06786e-15)
(1.48752e-07 -5.40573e-07 -2.08177e-17)
(-6.11178e-08 -6.91488e-07 -3.54631e-15)
(0.000452053 0.000251611 2.70381e-17)
(0.000173201 0.000210382 -3.34584e-17)
(0.000224675 0.000226583 2.89965e-18)
(0.000146261 0.000207483 -6.76521e-17)
(0.000135308 0.000154006 2.68948e-17)
(0.000135728 0.000156658 1.93682e-17)
(0.000156048 0.000170149 -1.76132e-17)
(0.000168934 0.000161398 -1.54365e-17)
(0.000177586 0.000152551 -1.57879e-16)
(0.000183506 0.000145323 -7.84593e-18)
(0.000187836 0.000137094 1.37246e-16)
(0.000190383 0.000127242 -1.08851e-17)
(0.000191055 0.000115626 5.45675e-17)
(0.000189984 0.00010331 -1.59526e-17)
(0.000187232 9.02034e-05 -3.66459e-19)
(0.000182993 7.70303e-05 -1.82593e-16)
(0.000177406 6.37107e-05 -3.46963e-16)
(0.000170697 5.08736e-05 -3.55189e-16)
(0.000163032 3.86048e-05 1.66719e-16)
(0.000154655 2.71364e-05 -2.76098e-17)
(0.000145721 1.65879e-05 5.20201e-16)
(0.000136447 6.91281e-06 -1.31792e-16)
(0.000126969 -1.63484e-06 -3.68009e-16)
(0.000117506 -9.16406e-06 2.92305e-16)
(0.000108141 -1.5508e-05 -5.09487e-17)
(9.90389e-05 -2.0824e-05 5.96402e-18)
(9.02551e-05 -2.50448e-05 -1.22702e-16)
(8.19288e-05 -2.82994e-05 -2.48794e-17)
(7.40694e-05 -3.05505e-05 4.52306e-17)
(6.67601e-05 -3.19716e-05 9.61483e-17)
(5.99861e-05 -3.25968e-05 4.51127e-16)
(5.37827e-05 -3.26055e-05 5.01506e-17)
(4.81128e-05 -3.20586e-05 3.21443e-16)
(4.29763e-05 -3.11225e-05 -2.00857e-16)
(3.83269e-05 -2.98322e-05 8.13472e-18)
(3.4145e-05 -2.83434e-05 7.78832e-17)
(3.03921e-05 -2.66445e-05 -5.12845e-16)
(2.70268e-05 -2.48992e-05 -1.94797e-16)
(2.40003e-05 -2.30799e-05 4.20311e-16)
(2.13013e-05 -2.13034e-05 -7.06494e-17)
(1.88847e-05 -1.9518e-05 -1.78453e-16)
(1.67364e-05 -1.78414e-05 4.92048e-16)
(1.48107e-05 -1.62171e-05 6.30279e-16)
(1.31066e-05 -1.47433e-05 7.65205e-16)
(1.1577e-05 -1.33582e-05 4.08717e-16)
(1.02286e-05 -1.21287e-05 1.88709e-16)
(9.01966e-06 -1.09969e-05 9.26075e-16)
(7.95703e-06 -9.99688e-06 -1.86328e-16)
(7.0055e-06 -9.08183e-06 -1.83809e-16)
(6.17158e-06 -8.26141e-06 -1.60858e-15)
(5.43345e-06 -7.51137e-06 2.98963e-16)
(4.79303e-06 -6.81962e-06 1.84164e-15)
(4.21417e-06 -6.23102e-06 -1.68106e-15)
(3.68065e-06 -5.70927e-06 -2.64756e-16)
(3.17472e-06 -5.29325e-06 2.5005e-16)
(2.67828e-06 -4.95515e-06 -7.89646e-16)
(2.22995e-06 -4.63426e-06 2.91529e-16)
(1.83017e-06 -4.33453e-06 -1.46659e-15)
(1.53872e-06 -3.99118e-06 -1.69819e-15)
(1.32139e-06 -3.62828e-06 -1.53515e-16)
(1.14323e-06 -3.28971e-06 -1.69802e-15)
(9.80039e-07 -2.9889e-06 4.94795e-17)
(8.33411e-07 -2.72952e-06 -3.89768e-16)
(6.92253e-07 -2.4881e-06 3.97916e-15)
(5.74581e-07 -2.24401e-06 6.34448e-16)
(4.89303e-07 -2.01403e-06 -8.29889e-17)
(4.16141e-07 -1.80771e-06 5.68436e-16)
(3.78562e-07 -1.63314e-06 -3.03851e-16)
(3.61163e-07 -1.49397e-06 7.13112e-16)
(3.41244e-07 -1.36132e-06 2.04471e-15)
(3.14251e-07 -1.22246e-06 1.64681e-15)
(2.72655e-07 -1.06394e-06 1.23134e-15)
(2.32043e-07 -9.00661e-07 4.1647e-16)
(2.14765e-07 -7.61087e-07 4.68257e-17)
(2.04801e-07 -6.29373e-07 -2.15139e-18)
(1.11608e-07 -6.0382e-07 5.31747e-16)
(1.262e-07 -5.94619e-07 -4.11476e-15)
(1.44199e-07 -5.55382e-07 -3.44169e-15)
(1.26521e-07 -5.28097e-07 5.97677e-17)