/*--------------------------------*- C++ -*----------------------------------*\
| =========                 |                                                 |
| \\      /  F ield         | OpenFOAM: The Open Source CFD Toolbox           |
|  \\    /   O peration     | Version:  2306                                  |
|   \\  /    A nd           | Website:  www.openfoam.com                      |
|    \\/     M anipulation  |                                                 |
\*---------------------------------------------------------------------------*/
FoamFile
{
    version     2.0;
    format      ascii;
    arch        "LSB;label=32;scalar=64";
    class       volScalarField;
    location    "425";
    object      nut;
}
// * * * * * * * * * * * * * * * * * * * * * * * * * * * * * * * * * * * * * //

dimensions      [0 2 -1 0 0 0 0];

internalField   nonuniform List<scalar> 
1340
(
0.106577
0.104431
0.101996
0.0924634
0.0699954
0.0717271
0.0752991
0.0784605
0.0395993
0.0470022
0.0536733
0.0631651
0.0068848
0.0131282
0.0218469
0.0392292
0.000716393
0.00123969
0.00164119
0.013713
0.000160151
0.000289837
0.000429658
0.00239494
5.85009e-08
1.1704e-08
0
0.000572274
6.0218e-06
3.66881e-06
1.92493e-08
0
6.18546e-06
6.70692e-06
4.79012e-06
3.40434e-09
6.18765e-06
5.84524e-06
8.90311e-06
7.56961e-07
6.16538e-06
5.86218e-06
7.18316e-06
4.45902e-06
6.11924e-06
6.06112e-06
6.21464e-06
6.21472e-06
6.10289e-06
6.1174e-06
6.05515e-06
6.26871e-06
6.10211e-06
6.11273e-06
6.08209e-06
6.15007e-06
6.10312e-06
6.1056e-06
6.10229e-06
6.10824e-06
6.10316e-06
6.10338e-06
6.1058e-06
6.10296e-06
6.10284e-06
6.10297e-06
6.10491e-06
6.10366e-06
6.10257e-06
6.10279e-06
6.10405e-06
6.10383e-06
6.10241e-06
6.1026e-06
6.10359e-06
6.10357e-06
6.10231e-06
6.10245e-06
6.1033e-06
6.10328e-06
6.1022e-06
6.10231e-06
6.10304e-06
6.10303e-06
6.10218e-06
6.10224e-06
6.10285e-06
6.10284e-06
6.10214e-06
6.10218e-06
6.10268e-06
6.10269e-06
6.10208e-06
6.10211e-06
6.10252e-06
6.10256e-06
6.10199e-06
6.10201e-06
6.10233e-06
6.10242e-06
6.10189e-06
6.1019e-06
6.10214e-06
6.10226e-06
6.10173e-06
6.10181e-06
6.10198e-06
6.10213e-06
6.10154e-06
6.10169e-06
6.1018e-06
6.102e-06
6.10133e-06
6.10154e-06
6.10159e-06
6.10185e-06
6.10109e-06
6.10135e-06
6.10142e-06
6.10171e-06
6.10083e-06
6.10111e-06
6.10123e-06
6.10159e-06
6.10053e-06
6.10084e-06
6.101e-06
6.10144e-06
6.10019e-06
6.10053e-06
6.10072e-06
6.10124e-06
6.09981e-06
6.10017e-06
6.1004e-06
6.10098e-06
6.09938e-06
6.09977e-06
6.10002e-06
6.10066e-06
6.0989e-06
6.09931e-06
6.09959e-06
6.10027e-06
6.09836e-06
6.09878e-06
6.09908e-06
6.09981e-06
6.09776e-06
6.09819e-06
6.09851e-06
6.09927e-06
6.09673e-06
6.09709e-06
6.09753e-06
6.09786e-06
6.09865e-06
6.096e-06
6.09636e-06
6.0968e-06
6.09714e-06
6.09795e-06
6.0952e-06
6.09555e-06
6.096e-06
6.09634e-06
6.09716e-06
6.09435e-06
6.09469e-06
6.09513e-06
6.09547e-06
6.09629e-06
6.09344e-06
6.09377e-06
6.09421e-06
6.09454e-06
6.09536e-06
6.09249e-06
6.09282e-06
6.09324e-06
6.09357e-06
6.09437e-06
6.09152e-06
6.09184e-06
6.09224e-06
6.09257e-06
6.09334e-06
6.09055e-06
6.09085e-06
6.09124e-06
6.09155e-06
6.09231e-06
6.08958e-06
6.08987e-06
6.09025e-06
6.09056e-06
6.09127e-06
6.08864e-06
6.08892e-06
6.08928e-06
6.08958e-06
6.09027e-06
6.0877e-06
6.08798e-06
6.08833e-06
6.08862e-06
6.08928e-06
6.08676e-06
6.08702e-06
6.08737e-06
6.08766e-06
6.08829e-06
6.08576e-06
6.08601e-06
6.08636e-06
6.08664e-06
6.08726e-06
6.08462e-06
6.08487e-06
6.08521e-06
6.08549e-06
6.0861e-06
6.08308e-06
6.08328e-06
6.08352e-06
6.08384e-06
6.08411e-06
6.08472e-06
6.08149e-06
6.08167e-06
6.08188e-06
6.08218e-06
6.08244e-06
6.08305e-06
6.07963e-06
6.07978e-06
6.07996e-06
6.08022e-06
6.08046e-06
6.08104e-06
6.07757e-06
6.07767e-06
6.07782e-06
6.07804e-06
6.07823e-06
6.07877e-06
6.07547e-06
6.07554e-06
6.07564e-06
6.07581e-06
6.07595e-06
6.07641e-06
6.07359e-06
6.07363e-06
6.07369e-06
6.0738e-06
6.07389e-06
6.07424e-06
6.07221e-06
6.07223e-06
6.07225e-06
6.07232e-06
6.07235e-06
6.07257e-06
6.07164e-06
6.07164e-06
6.07164e-06
6.07166e-06
6.07166e-06
6.07174e-06
6.07221e-06
6.07225e-06
6.07228e-06
6.07228e-06
6.07229e-06
6.07223e-06
6.07366e-06
6.07376e-06
6.07384e-06
6.0739e-06
6.07392e-06
6.07397e-06
6.07382e-06
6.07594e-06
6.0761e-06
6.07624e-06
6.07635e-06
6.07642e-06
6.07651e-06
6.07636e-06
6.07894e-06
6.07918e-06
6.07938e-06
6.07956e-06
6.07969e-06
6.07984e-06
6.07973e-06
6.08251e-06
6.08282e-06
6.0831e-06
6.08336e-06
6.08356e-06
6.08379e-06
6.08375e-06
6.08639e-06
6.08677e-06
6.08712e-06
6.08745e-06
6.08773e-06
6.08804e-06
6.08809e-06
6.09034e-06
6.09077e-06
6.09118e-06
6.09156e-06
6.09191e-06
6.09229e-06
6.09242e-06
6.0936e-06
6.09409e-06
6.09456e-06
6.09502e-06
6.09545e-06
6.09593e-06
6.09618e-06
6.09586e-06
6.09639e-06
6.09691e-06
6.09743e-06
6.09795e-06
6.09852e-06
6.09893e-06
6.09762e-06
6.09816e-06
6.09869e-06
6.09924e-06
6.09979e-06
6.10041e-06
6.10092e-06
6.09898e-06
6.09952e-06
6.10007e-06
6.10063e-06
6.1012e-06
6.10185e-06
6.10241e-06
6.09967e-06
6.10025e-06
6.10083e-06
6.10141e-06
6.102e-06
6.10261e-06
6.10329e-06
6.10388e-06
6.10167e-06
6.10237e-06
6.10307e-06
6.10376e-06
6.10447e-06
6.10519e-06
6.10599e-06
6.10665e-06
6.10556e-06
6.10651e-06
6.10744e-06
6.10838e-06
6.10934e-06
6.11032e-06
6.11143e-06
6.11233e-06
6.11149e-06
6.11271e-06
6.11393e-06
6.11516e-06
6.11642e-06
6.11773e-06
6.11918e-06
6.12049e-06
6.11632e-06
6.11755e-06
6.11877e-06
6.12001e-06
6.12128e-06
6.12262e-06
6.12413e-06
6.12557e-06
6.11421e-06
6.11497e-06
6.11573e-06
6.11648e-06
6.11724e-06
6.11804e-06
6.11884e-06
6.11977e-06
6.10693e-06
6.10791e-06
6.10892e-06
6.10997e-06
6.1111e-06
6.11229e-06
6.11375e-06
6.11491e-06
6.11363e-06
6.11661e-06
6.11965e-06
6.12277e-06
6.12604e-06
6.1295e-06
6.1334e-06
6.13705e-06
6.11016e-06
6.11144e-06
6.1126e-06
6.11367e-06
6.11466e-06
6.11558e-06
6.11657e-06
6.11741e-06
0.126619
0.0830838
0.054264
0.0293307
0.00866009
0.000784408
0.000175957
0
4.75232e-09
1.55813e-06
5.37914e-06
6.35449e-06
6.25169e-06
6.14043e-06
6.11145e-06
6.10905e-06
6.10927e-06
6.10861e-06
6.10765e-06
6.10677e-06
6.10602e-06
6.1054e-06
6.10487e-06
6.10442e-06
6.104e-06
6.10362e-06
6.10331e-06
6.10302e-06
6.10275e-06
6.10252e-06
6.10231e-06
6.10209e-06
6.10182e-06
6.10151e-06
6.10114e-06
6.10071e-06
6.10021e-06
6.09964e-06
6.09899e-06
6.09825e-06
6.09743e-06
6.09654e-06
6.09558e-06
6.09457e-06
6.09352e-06
6.09247e-06
6.09143e-06
6.09042e-06
6.08943e-06
6.08844e-06
6.08739e-06
6.08622e-06
6.08481e-06
6.08309e-06
6.08104e-06
6.07873e-06
6.07634e-06
6.07419e-06
6.07257e-06
6.07181e-06
6.07235e-06
6.07399e-06
6.07661e-06
6.08006e-06
6.08415e-06
6.08855e-06
6.09292e-06
6.09672e-06
6.09948e-06
6.10145e-06
6.10293e-06
6.10443e-06
6.10734e-06
6.11327e-06
6.12167e-06
6.1265e-06
6.12032e-06
6.11595e-06
6.13946e-06
6.11821e-06
0.149891
0.0867128
0.0431789
0.0174648
0.00341412
0.000827948
0
1.60736e-10
6.32404e-08
3.8162e-06
6.16084e-06
6.36005e-06
6.20029e-06
6.1284e-06
6.11528e-06
6.11455e-06
6.11376e-06
6.11227e-06
6.11075e-06
6.10942e-06
6.10829e-06
6.10733e-06
6.10651e-06
6.10581e-06
6.10518e-06
6.10465e-06
6.10419e-06
6.10379e-06
6.10343e-06
6.10314e-06
6.10287e-06
6.10259e-06
6.10227e-06
6.10191e-06
6.1015e-06
6.10104e-06
6.10051e-06
6.0999e-06
6.09922e-06
6.09845e-06
6.09761e-06
6.09669e-06
6.09571e-06
6.09469e-06
6.09363e-06
6.09257e-06
6.09153e-06
6.09052e-06
6.08952e-06
6.08853e-06
6.08747e-06
6.08627e-06
6.08483e-06
6.08307e-06
6.08097e-06
6.07862e-06
6.07621e-06
6.07407e-06
6.07249e-06
6.07183e-06
6.07247e-06
6.0742e-06
6.0769e-06
6.08044e-06
6.08459e-06
6.08902e-06
6.09343e-06
6.09724e-06
6.09996e-06
6.1019e-06
6.10335e-06
6.10488e-06
6.10794e-06
6.11408e-06
6.12263e-06
6.12711e-06
6.1207e-06
6.11692e-06
6.14102e-06
6.1187e-06
0.151242
0.0808097
0.0295105
0.0071184
0.000413158
7.27956e-05
0
3.64759e-09
1.11917e-06
6.04161e-06
6.40307e-06
6.28321e-06
6.15621e-06
6.12294e-06
6.11931e-06
6.11855e-06
6.11682e-06
6.11477e-06
6.11291e-06
6.1113e-06
6.10992e-06
6.10875e-06
6.10775e-06
6.10688e-06
6.10612e-06
6.10548e-06
6.10493e-06
6.10445e-06
6.10405e-06
6.1037e-06
6.10338e-06
6.10305e-06
6.1027e-06
6.1023e-06
6.10186e-06
6.10137e-06
6.1008e-06
6.10017e-06
6.09946e-06
6.09867e-06
6.0978e-06
6.09686e-06
6.09586e-06
6.09482e-06
6.09376e-06
6.09269e-06
6.09165e-06
6.09063e-06
6.08964e-06
6.08864e-06
6.08757e-06
6.08634e-06
6.08485e-06
6.08304e-06
6.08088e-06
6.07849e-06
6.07607e-06
6.07394e-06
6.07241e-06
6.07185e-06
6.0726e-06
6.07443e-06
6.07723e-06
6.08085e-06
6.08507e-06
6.08954e-06
6.09398e-06
6.0978e-06
6.10048e-06
6.10237e-06
6.10379e-06
6.10536e-06
6.10859e-06
6.11498e-06
6.12366e-06
6.12772e-06
6.1211e-06
6.11805e-06
6.14261e-06
6.11918e-06
0.135165
0.0642205
0.0149512
0.000789759
0.000188107
0
5.16199e-10
1.64151e-07
4.37538e-06
6.89736e-06
6.32227e-06
6.2073e-06
6.13256e-06
6.12347e-06
6.12275e-06
6.1211e-06
6.11869e-06
6.11633e-06
6.11428e-06
6.11251e-06
6.11099e-06
6.1097e-06
6.10859e-06
6.10763e-06
6.10681e-06
6.10611e-06
6.10552e-06
6.10501e-06
6.10458e-06
6.10421e-06
6.10386e-06
6.1035e-06
6.10311e-06
6.10269e-06
6.10222e-06
6.1017e-06
6.10111e-06
6.10045e-06
6.09971e-06
6.09889e-06
6.098e-06
6.09704e-06
6.09602e-06
6.09497e-06
6.09389e-06
6.09282e-06
6.09178e-06
6.09077e-06
6.08977e-06
6.08876e-06
6.08767e-06
6.08641e-06
6.08487e-06
6.083e-06
6.08079e-06
6.07835e-06
6.07592e-06
6.07381e-06
6.07233e-06
6.07187e-06
6.07275e-06
6.07468e-06
6.07759e-06
6.0813e-06
6.08559e-06
6.0901e-06
6.09457e-06
6.09839e-06
6.10102e-06
6.10285e-06
6.10425e-06
6.10587e-06
6.10929e-06
6.11594e-06
6.12473e-06
6.12835e-06
6.12152e-06
6.11932e-06
6.14428e-06
6.11963e-06
0.104389
0.0387234
0.0029756
0.000731736
0
4.72549e-11
1.73743e-08
2.36324e-06
6.91594e-06
6.72736e-06
6.1947e-06
6.1628e-06
6.1252e-06
6.12666e-06
6.12528e-06
6.12271e-06
6.11991e-06
6.11739e-06
6.11522e-06
6.11336e-06
6.11176e-06
6.11039e-06
6.10922e-06
6.10821e-06
6.10736e-06
6.10663e-06
6.10602e-06
6.1055e-06
6.10506e-06
6.10467e-06
6.1043e-06
6.10392e-06
6.10351e-06
6.10307e-06
6.10257e-06
6.10203e-06
6.10141e-06
6.10072e-06
6.09996e-06
6.09912e-06
6.0982e-06
6.09722e-06
6.09619e-06
6.09512e-06
6.09404e-06
6.09296e-06
6.09192e-06
6.09091e-06
6.08991e-06
6.08889e-06
6.08778e-06
6.08648e-06
6.08489e-06
6.08295e-06
6.08068e-06
6.0782e-06
6.07576e-06
6.07367e-06
6.07226e-06
6.07191e-06
6.07291e-06
6.07496e-06
6.07797e-06
6.08178e-06
6.08614e-06
6.09069e-06
6.09519e-06
6.09901e-06
6.10159e-06
6.10336e-06
6.10473e-06
6.10642e-06
6.11004e-06
6.11698e-06
6.12584e-06
6.12899e-06
6.12196e-06
6.12072e-06
6.14604e-06
6.12003e-06
0.0648446
0.0145616
0.00358664
0
0
4.97324e-09
1.40751e-06
6.2276e-06
7.23591e-06
6.34059e-06
6.13436e-06
6.14439e-06
6.12637e-06
6.12975e-06
6.12674e-06
6.12364e-06
6.12068e-06
6.11811e-06
6.1159e-06
6.11399e-06
6.11235e-06
6.11095e-06
6.10974e-06
6.10871e-06
6.10784e-06
6.10711e-06
6.10649e-06
6.10597e-06
6.10553e-06
6.10513e-06
6.10474e-06
6.10434e-06
6.10391e-06
6.10344e-06
6.10293e-06
6.10236e-06
6.10172e-06
6.10101e-06
6.10021e-06
6.09935e-06
6.09841e-06
6.09741e-06
6.09635e-06
6.09527e-06
6.09419e-06
6.09311e-06
6.09207e-06
6.09106e-06
6.09006e-06
6.08903e-06
6.08789e-06
6.08654e-06
6.08489e-06
6.08289e-06
6.08055e-06
6.07803e-06
6.07559e-06
6.07353e-06
6.07219e-06
6.07195e-06
6.07309e-06
6.07526e-06
6.07838e-06
6.08229e-06
6.08672e-06
6.09132e-06
6.09585e-06
6.09965e-06
6.10218e-06
6.10389e-06
6.10524e-06
6.10701e-06
6.11085e-06
6.11809e-06
6.127e-06
6.12965e-06
6.12242e-06
6.12228e-06
0.025773
0.00060103
0.00013216
0
2.15477e-09
6.22524e-07
5.84863e-06
7.47937e-06
6.63915e-06
6.12895e-06
6.13113e-06
6.13845e-06
6.13009e-06
6.13142e-06
6.12728e-06
6.12406e-06
6.12108e-06
6.11853e-06
6.11632e-06
6.11441e-06
6.11278e-06
6.11137e-06
6.11016e-06
6.10914e-06
6.10828e-06
6.10755e-06
6.10694e-06
6.10643e-06
6.10599e-06
6.10558e-06
6.10517e-06
6.10475e-06
6.10431e-06
6.10382e-06
6.10329e-06
6.10269e-06
6.10202e-06
6.10129e-06
6.10047e-06
6.09958e-06
6.09861e-06
6.09759e-06
6.09652e-06
6.09543e-06
6.09434e-06
6.09326e-06
6.09222e-06
6.09121e-06
6.09021e-06
6.08916e-06
6.08799e-06
6.0866e-06
6.08489e-06
6.08281e-06
6.08041e-06
6.07785e-06
6.0754e-06
6.07338e-06
6.07212e-06
6.07202e-06
6.07329e-06
6.07559e-06
6.07883e-06
6.08284e-06
6.08734e-06
6.09198e-06
6.09654e-06
6.10033e-06
6.10279e-06
6.10444e-06
6.10577e-06
6.10764e-06
6.11173e-06
6.11929e-06
6.12821e-06
6.13033e-06
0.00295233
0.000730637
0
8.95704e-10
2.70073e-07
5.60999e-06
7.74829e-06
6.86998e-06
6.19847e-06
6.09602e-06
6.14196e-06
6.13666e-06
6.13311e-06
6.1316e-06
6.12721e-06
6.12408e-06
6.12118e-06
6.1187e-06
6.11653e-06
6.11467e-06
6.11306e-06
6.11168e-06
6.1105e-06
6.1095e-06
6.10867e-06
6.10796e-06
6.10737e-06
6.10687e-06
6.10643e-06
6.10601e-06
6.1056e-06
6.10516e-06
6.1047e-06
6.1042e-06
6.10364e-06
6.10302e-06
6.10233e-06
6.10156e-06
6.10072e-06
6.0998e-06
6.09882e-06
6.09777e-06
6.09669e-06
6.09559e-06
6.09449e-06
6.09342e-06
6.09238e-06
6.09137e-06
6.09036e-06
6.0893e-06
6.0881e-06
6.08665e-06
6.08486e-06
6.08271e-06
6.08025e-06
6.07766e-06
6.07521e-06
6.07323e-06
6.07207e-06
6.07211e-06
6.07353e-06
6.07595e-06
6.07932e-06
6.08344e-06
6.08801e-06
6.09268e-06
6.09727e-06
6.10104e-06
6.10343e-06
6.10502e-06
6.10634e-06
6.10831e-06
6.11268e-06
6.12057e-06
0.000807262
0
1.39689e-10
4.60377e-08
5.75075e-06
8.02032e-06
7.031e-06
6.26077e-06
6.08223e-06
6.12638e-06
6.14533e-06
6.13624e-06
6.13424e-06
6.13077e-06
6.12678e-06
6.1238e-06
6.12103e-06
6.11865e-06
6.11658e-06
6.11478e-06
6.11324e-06
6.11191e-06
6.11078e-06
6.10983e-06
6.10903e-06
6.10835e-06
6.10779e-06
6.1073e-06
6.10686e-06
6.10644e-06
6.10601e-06
6.10557e-06
6.10509e-06
6.10456e-06
6.10399e-06
6.10334e-06
6.10262e-06
6.10183e-06
6.10096e-06
6.10002e-06
6.09901e-06
6.09795e-06
6.09686e-06
6.09575e-06
6.09465e-06
6.09358e-06
6.09254e-06
6.09154e-06
6.09052e-06
6.08944e-06
6.08819e-06
6.08668e-06
6.08482e-06
6.08259e-06
6.08007e-06
6.07744e-06
6.075e-06
6.07308e-06
6.07202e-06
6.07223e-06
6.07379e-06
6.07635e-06
6.07985e-06
6.08407e-06
6.08871e-06
6.09342e-06
6.09804e-06
6.10178e-06
6.10409e-06
6.10562e-06
6.10693e-06
0
1.3465e-13
4.52471e-11
4.63943e-06
8.72238e-06
7.01521e-06
6.28427e-06
6.07578e-06
6.11174e-06
6.14653e-06
6.14241e-06
6.1361e-06
6.13361e-06
6.12952e-06
6.1261e-06
6.12327e-06
6.12068e-06
6.11845e-06
6.11649e-06
6.1148e-06
6.11334e-06
6.11209e-06
6.11102e-06
6.11013e-06
6.10937e-06
6.10874e-06
6.1082e-06
6.10773e-06
6.1073e-06
6.10687e-06
6.10643e-06
6.10597e-06
6.10547e-06
6.10493e-06
6.10433e-06
6.10366e-06
6.10291e-06
6.10209e-06
6.1012e-06
6.10023e-06
6.0992e-06
6.09813e-06
6.09702e-06
6.09591e-06
6.09481e-06
6.09374e-06
6.09271e-06
6.0917e-06
6.09068e-06
6.08957e-06
6.08828e-06
6.0867e-06
6.08476e-06
6.08245e-06
6.07986e-06
6.07721e-06
6.07479e-06
6.07293e-06
6.07199e-06
6.07237e-06
6.07408e-06
6.07679e-06
6.08042e-06
6.08475e-06
6.08946e-06
6.09421e-06
0
1.42388e-08
3.67245e-06
9.28391e-06
7.10548e-06
6.19497e-06
6.07714e-06
6.102e-06
6.14514e-06
6.1472e-06
6.13898e-06
6.13528e-06
6.13194e-06
6.12817e-06
6.12521e-06
6.12256e-06
6.12019e-06
6.11812e-06
6.11631e-06
6.11474e-06
6.11339e-06
6.11223e-06
6.11125e-06
6.11042e-06
6.10972e-06
6.10913e-06
6.10862e-06
6.10816e-06
6.10773e-06
6.10729e-06
6.10685e-06
6.10637e-06
6.10586e-06
6.10529e-06
6.10466e-06
6.10397e-06
6.10319e-06
6.10235e-06
6.10143e-06
6.10043e-06
6.09939e-06
6.09829e-06
6.09718e-06
6.09606e-06
6.09497e-06
6.09391e-06
6.09288e-06
6.09188e-06
6.09084e-06
6.0897e-06
6.08835e-06
6.0867e-06
6.08467e-06
6.08227e-06
6.07963e-06
6.07695e-06
6.07456e-06
6.07278e-06
6.07197e-06
6.07254e-06
6.07442e-06
1.1303e-08
2.92696e-06
8.69683e-06
7.26772e-06
6.07655e-06
6.05318e-06
6.1066e-06
6.14323e-06
6.15039e-06
6.14174e-06
6.1366e-06
6.13352e-06
6.12998e-06
6.12681e-06
6.12417e-06
6.12174e-06
6.1196e-06
6.11772e-06
6.11607e-06
6.11465e-06
6.11341e-06
6.11236e-06
6.11147e-06
6.11071e-06
6.11007e-06
6.10953e-06
6.10904e-06
6.1086e-06
6.10816e-06
6.10772e-06
6.10726e-06
6.10677e-06
6.10623e-06
6.10564e-06
6.10499e-06
6.10426e-06
6.10347e-06
6.10259e-06
6.10164e-06
6.10063e-06
6.09956e-06
6.09845e-06
6.09733e-06
6.09622e-06
6.09513e-06
6.09408e-06
6.09306e-06
6.09205e-06
6.091e-06
6.08982e-06
6.08841e-06
6.08667e-06
6.08455e-06
6.08207e-06
3.29547e-06
8.04796e-06
7.22081e-06
6.0449e-06
6.00825e-06
6.11942e-06
6.14529e-06
6.15143e-06
6.14378e-06
6.13753e-06
6.13439e-06
6.13123e-06
6.12808e-06
6.12542e-06
6.12304e-06
6.12088e-06
6.11897e-06
6.11729e-06
6.11582e-06
6.11455e-06
6.11345e-06
6.11251e-06
6.11171e-06
6.11103e-06
6.11044e-06
6.10993e-06
6.10947e-06
6.10903e-06
6.10859e-06
6.10814e-06
6.10767e-06
6.10716e-06
6.1066e-06
6.10599e-06
6.10531e-06
6.10455e-06
6.10372e-06
6.10282e-06
6.10185e-06
6.10081e-06
6.09973e-06
6.09861e-06
)
;

boundaryField
{
    inlet
    {
        type            freestream;
        freestreamValue uniform 1e-05;
        value           uniform 1e-05;
    }
    outlet
    {
        type            freestream;
        freestreamValue nonuniform List<scalar> 0();
        value           nonuniform List<scalar> 0();
    }
    walls
    {
        type            nutUSpaldingWallFunction;
        value           nonuniform List<scalar> 4(0.00272753 0.00266325 0.00257245 0.00231613);
    }
    frontAndBack
    {
        type            empty;
    }
    procBoundary2to1
    {
        type            processor;
        value           nonuniform List<scalar> 
84
(
0.107974
0.0680051
0.0311566
0.0030415
0.000728291
2.89105e-09
3.4051e-06
6.3143e-06
6.12528e-06
6.08895e-06
6.09351e-06
6.10156e-06
6.10475e-06
6.10411e-06
6.10327e-06
6.10278e-06
6.10252e-06
6.10236e-06
6.10227e-06
6.10222e-06
6.10216e-06
6.10216e-06
6.1021e-06
6.10199e-06
6.10186e-06
6.10171e-06
6.10152e-06
6.10131e-06
6.10108e-06
6.10082e-06
6.10054e-06
6.10022e-06
6.09986e-06
6.09947e-06
6.09903e-06
6.09854e-06
6.098e-06
6.09739e-06
6.09739e-06
6.09638e-06
6.09566e-06
6.09487e-06
6.09403e-06
6.09313e-06
6.0922e-06
6.09124e-06
6.09028e-06
6.08932e-06
6.08838e-06
6.08746e-06
6.08652e-06
6.08553e-06
6.0844e-06
6.0844e-06
6.08292e-06
6.08135e-06
6.07953e-06
6.0775e-06
6.07544e-06
6.07358e-06
6.07221e-06
6.07163e-06
6.07217e-06
6.07217e-06
6.07354e-06
6.07575e-06
6.07867e-06
6.08216e-06
6.08597e-06
6.08987e-06
6.09308e-06
6.09531e-06
6.09707e-06
6.09843e-06
6.09843e-06
6.09909e-06
6.10096e-06
6.1046e-06
6.11024e-06
6.11507e-06
6.11342e-06
6.106e-06
6.1107e-06
6.10877e-06
)
;
    }
    procBoundary2to3
    {
        type            processor;
        value           nonuniform List<scalar> 
88
(
6.14788e-06
6.12038e-06
6.12291e-06
6.14788e-06
6.124e-06
6.12946e-06
6.12291e-06
6.13101e-06
6.10904e-06
6.11372e-06
6.12946e-06
6.12194e-06
6.09885e-06
6.10256e-06
6.10478e-06
6.10624e-06
6.10904e-06
6.10756e-06
6.07727e-06
6.08104e-06
6.08548e-06
6.09026e-06
6.09885e-06
6.09505e-06
6.07937e-06
6.07668e-06
6.07432e-06
6.07263e-06
6.07198e-06
6.07275e-06
6.07727e-06
6.07479e-06
6.09749e-06
6.09637e-06
6.09529e-06
6.09425e-06
6.09324e-06
6.09223e-06
6.09115e-06
6.08993e-06
6.08845e-06
6.08662e-06
6.0844e-06
6.07937e-06
6.08183e-06
7.49095e-06
6.94226e-06
6.05524e-06
5.9909e-06
6.12577e-06
6.15276e-06
6.15052e-06
6.14457e-06
6.13798e-06
6.13464e-06
6.13186e-06
6.12892e-06
6.12631e-06
6.12401e-06
6.1219e-06
6.12002e-06
6.11835e-06
6.11688e-06
6.11559e-06
6.11447e-06
6.11351e-06
6.11268e-06
6.11197e-06
6.11136e-06
6.11083e-06
6.11036e-06
6.10991e-06
6.10947e-06
6.10903e-06
6.10857e-06
6.10808e-06
6.10755e-06
6.10697e-06
6.10632e-06
6.10561e-06
6.10483e-06
6.10397e-06
6.10304e-06
6.10204e-06
6.10098e-06
6.09988e-06
6.09749e-06
6.09876e-06
)
;
    }
    procBoundary2to6
    {
        type            processor;
        value           nonuniform List<scalar> 
13
(
0.172963
0.214
0.217825
0.202675
0.172727
0.130226
0.0788975
0.0300029
0.00322537
0.000424529
0
1.31446e-25
2.5827e-17
)
;
    }
}


// ************************************************************************* //
