/*--------------------------------*- C++ -*----------------------------------*\
| =========                 |                                                 |
| \\      /  F ield         | OpenFOAM: The Open Source CFD Toolbox           |
|  \\    /   O peration     | Version:  2306                                  |
|   \\  /    A nd           | Website:  www.openfoam.com                      |
|    \\/     M anipulation  |                                                 |
\*---------------------------------------------------------------------------*/
FoamFile
{
    version     2.0;
    format      ascii;
    arch        "LSB;label=32;scalar=64";
    class       surfaceScalarField;
    location    "425";
    object      phi;
}
// * * * * * * * * * * * * * * * * * * * * * * * * * * * * * * * * * * * * * //

dimensions      [0 3 -1 0 0 0 0];

oriented        oriented;

internalField   nonuniform List<scalar> 
2579
(
0.201731
0.00470606
0.194918
0.00681336
0.181099
0.0138198
0.161219
0.0198802
0.228741
0.00873098
0.223786
0.0117685
0.213441
0.0241648
0.195395
0.0379276
0.248126
0.0123451
0.242974
0.0169211
0.232689
0.0344501
0.214889
0.0557277
0.265379
0.0153314
0.260652
0.0216477
0.250923
0.0441795
0.232558
0.074094
0.279303
0.0180975
0.274958
0.0259932
0.266414
0.0527238
0.248622
0.0918863
0.294582
0.0210008
0.289913
0.0306623
0.281549
0.0610879
0.26417
0.109266
0.310231
0.0239958
0.30536
0.0355341
0.29698
0.0694676
0.280112
0.126134
0.32695
0.0270919
0.321891
0.0405933
0.313388
0.077971
0.29703
0.142494
0.344493
0.0302621
0.339257
0.0458286
0.330727
0.0865014
0.314951
0.15827
0.362991
0.0335242
0.357633
0.0511866
0.349091
0.0950436
0.333873
0.173488
0.382498
0.0368376
0.377007
0.0566784
0.368475
0.103575
0.353883
0.188081
0.403031
0.0402145
0.397433
0.0622771
0.388975
0.112033
0.375018
0.202038
0.4247
0.0436138
0.419024
0.067953
0.410603
0.120454
0.397325
0.215316
0.447508
0.0470419
0.441787
0.0736746
0.433492
0.12875
0.420866
0.227942
0.471566
0.0504809
0.465827
0.0794134
0.457628
0.136949
0.445699
0.23987
0.496922
0.0539071
0.491181
0.0851547
0.483143
0.144987
0.471931
0.251082
0.523642
0.0573097
0.51796
0.0908367
0.510075
0.152872
0.49955
0.261608
0.551837
0.0606242
0.546204
0.0964701
0.538551
0.160525
0.528721
0.271438
0.581544
0.0638762
0.576038
0.101976
0.568592
0.167971
0.559468
0.280562
0.612881
0.0670098
0.607512
0.107345
0.600315
0.175169
0.591875
0.289002
0.645918
0.0700362
0.64074
0.112523
0.633832
0.182077
0.626037
0.296797
0.68079
0.0728737
0.675796
0.117517
0.66919
0.188683
0.662088
0.303899
0.717559
0.075543
0.712821
0.122255
0.706545
0.19496
0.700053
0.31039
0.756355
0.0779907
0.751902
0.126707
0.745954
0.200907
0.74008
0.316265
0.797282
0.0802778
0.793166
0.130823
0.787571
0.206502
0.782278
0.321558
0.840476
0.0822736
0.836628
0.13467
0.831532
0.211599
0.826787
0.326303
0.8861
0.0839074
0.882702
0.138068
0.877851
0.21645
0.873646
0.330508
0.93437
0.0852781
0.931071
0.141367
0.92679
0.220731
0.923128
0.33417
0.985037
0.0863747
0.982372
0.144031
0.978402
0.224701
0.975339
0.337234
1.03876
0.0871646
1.03646
0.146327
1.03298
0.228188
1.03036
0.339854
1.09552
0.0876498
1.09352
0.148331
1.09049
0.231213
1.08819
0.342158
1.15536
0.0878132
1.1539
0.149793
1.15136
0.233749
1.14947
0.344054
1.21877
0.0874102
1.21759
0.150972
1.2153
0.236044
1.21407
0.345283
1.28541
0.0870704
1.28479
0.15159
1.28299
0.237845
1.28202
0.346259
1.3562
0.086152
1.35572
0.152064
1.35453
0.239038
1.35395
0.346837
1.43087
0.0850472
1.43093
0.151998
1.42985
0.24012
1.42963
0.34706
1.50971
0.0836362
1.51004
0.151672
1.50955
0.240613
1.50969
0.34692
1.59324
0.0819541
1.59395
0.150956
1.59368
0.240884
1.59403
0.346575
1.67954
0.0228161
1.68139
0.0801115
1.68234
0.149999
1.68237
0.240858
1.68317
0.345773
1.77255
0.019869
1.77464
0.078018
1.77582
0.148828
1.77627
0.240398
1.77725
0.344797
1.87098
0.0167711
1.87319
0.0758091
1.87469
0.147335
1.87531
0.23977
1.87656
0.343548
1.97499
0.0136625
1.97742
0.0733878
1.9791
0.145648
1.97984
0.239029
1.98137
0.342027
2.08511
0.0104298
2.0876
0.0708968
2.08957
0.143686
2.09057
0.238028
2.09207
0.340524
2.2015
0.00720497
2.20419
0.0682091
2.20616
0.141716
2.20723
0.236952
2.2091
0.338654
2.32468
0.004001
2.32742
0.0654726
2.32936
0.13977
2.33066
0.235653
2.33258
0.336735
2.45494
0.000573107
2.45757
0.0628397
2.45975
0.137586
2.46097
0.234439
2.46295
0.334757
2.59256
-0.0027122
2.59534
0.0600623
2.59748
0.135442
2.59887
0.233051
2.60073
0.332901
2.73805
-0.0059505
2.74085
0.0572581
2.74293
0.133363
2.74434
0.231642
2.74635
0.330892
2.89199
-0.00917998
2.89465
0.0545976
2.89692
0.131097
2.8981
0.230461
2.90009
0.328895
3.05473
-0.0125039
3.05731
0.0520261
3.05936
0.129039
3.06067
0.229158
3.06264
0.326924
3.2266
-0.0155682
3.22916
0.0494598
3.23127
0.12693
3.23234
0.22809
3.23412
0.32514
3.40823
-0.0186346
3.41093
0.0467555
3.41272
0.125146
3.41378
0.227025
3.41551
0.323413
3.59732
-0.0817517
3.60038
-0.0217016
3.60275
0.0443928
3.60457
0.123325
3.60539
0.226203
3.60694
0.321859
3.80014
-0.0855221
3.80314
-0.0246936
3.8055
0.0420316
3.80729
0.121531
3.80786
0.225637
3.80933
0.320381
4.01454
-0.0893572
4.01757
-0.0277197
4.01976
0.0398387
4.02134
0.119954
4.0218
0.225171
4.02309
0.319092
4.24089
-0.0930319
4.24385
-0.0306791
4.24611
0.0375794
4.24741
0.118653
4.24767
0.22491
4.24863
0.318127
4.48007
-0.0969421
4.48289
-0.033502
4.48485
0.0356168
4.48614
0.117366
4.48619
0.224858
4.48709
0.317229
4.73238
-0.100763
4.73518
-0.0362988
4.73727
0.0335278
4.73829
0.116346
4.73804
0.225105
4.73864
0.316626
4.99893
-0.104748
5.00176
-0.0391342
5.00359
0.0317033
5.00453
0.115407
5.00403
0.225606
5.00433
0.316325
5.28029
-0.108694
5.28304
-0.0418866
5.28481
0.0299391
5.28552
0.11469
5.28477
0.226364
5.28492
0.316171
5.57723
-0.112635
5.57995
-0.0446062
5.58152
0.0283732
5.5822
0.114006
5.5811
0.22746
5.581
0.316277
5.88655
-0.186119
5.89066
-0.116741
5.89335
-0.0472976
5.89502
0.0267025
5.89532
0.113701
5.89405
0.228732
5.89356
0.316767
6.21736
-0.192124
6.2214
-0.120774
6.22413
-0.0500269
6.22568
0.0251446
6.22588
0.1135
6.22422
0.230401
6.22353
0.31745
6.56619
-0.198282
6.57045
-0.12503
6.57324
-0.0528142
6.57448
0.023902
6.57461
0.113368
6.57263
0.232382
6.57171
0.318365
6.93437
-0.204759
6.9389
-0.129563
6.94167
-0.055583
6.94287
0.0227011
6.94286
0.11338
6.93967
0.235575
6.93887
0.31916
7.3225
-0.212242
7.32658
-0.133641
7.32885
-0.0578599
7.32992
0.0216342
7.33044
0.112865
7.3284
0.23761
7.32595
0.321608
7.73053
-0.217973
7.73535
-0.138458
7.73831
-0.0608225
7.74006
0.0198874
7.73875
0.114172
7.73624
0.240119
7.7351
0.32275
5.66328
-0.245998
5.69467
-0.169844
5.731
-0.0971565
5.77027
-0.0193823
5.81694
0.0675071
5.87525
0.18181
5.92677
0.271227
6.23302
-0.277819
6.26815
-0.204977
6.30566
-0.13467
6.34997
-0.0636874
6.40177
0.0157113
6.46549
0.118089
6.52316
0.213554
6.85858
-0.31227
6.89759
-0.243984
6.9402
-0.177288
6.98967
-0.113157
7.04547
-0.0400855
7.11602
0.04754
7.17737
0.152206
7.54899
-0.349484
7.59069
-0.285684
7.63729
-0.223895
7.69076
-0.166626
7.75322
-0.102539
7.82953
-0.0287695
7.89971
0.0820185
8.26553
-0.457618
8.3082
-0.39216
8.35277
-0.330249
8.406
-0.27713
8.4636
-0.224218
8.53291
-0.171853
8.61764
-0.113494
8.69301
0.00664773
9.09688
-0.497969
9.1426
-0.437883
9.19396
-0.381611
9.24888
-0.332047
9.31462
-0.289955
9.38961
-0.246849
9.48177
-0.205656
9.56627
-0.0778501
10.0108
-0.542869
10.0597
-0.486793
10.1155
-0.43734
10.1786
-0.395144
10.2487
-0.360074
10.3307
-0.328924
10.4342
-0.309078
10.5252
-0.168874
11.0154
-0.592461
11.0702
-0.541569
11.1317
-0.498869
11.1993
-0.462729
11.2766
-0.437312
11.3673
-0.419633
11.4801
-0.42187
11.5808
-0.269663
12.1165
-0.646634
12.177
-0.602096
12.2429
-0.564783
12.3174
-0.537216
12.4028
-0.522743
12.5017
-0.518504
12.6235
-0.543649
12.7322
-0.378342
13.3268
-0.704748
13.3923
-0.667638
13.4657
-0.638159
13.5476
-0.619086
13.6406
-0.61577
13.7504
-0.628343
13.889
-0.682171
14.0119
-0.501275
14.6507
-0.768883
14.7223
-0.739296
14.8018
-0.717681
14.8911
-0.708384
14.9937
-0.718329
15.1115
-0.746195
15.2532
-0.823872
15.3794
-0.62741
16.1469
-0.841507
16.2278
-0.820164
16.3187
-0.80858
16.4194
-0.809143
16.5337
-0.832621
16.6716
-0.884066
16.8497
-1.00203
17.0084
-0.786108
17.778
17.8663
17.9634
18.0722
18.1952
18.3326
18.4903
18.6388
-0.179019
0.177426
-0.191509
0.207884
-0.204235
0.227615
-0.215932
0.244254
-0.2269
0.25959
-0.237238
0.274509
-0.247028
0.289902
-0.256223
0.306225
-0.264805
0.323533
-0.272758
0.341826
-0.280112
0.361236
-0.28684
0.381746
-0.292967
0.403452
-0.298509
0.426408
-0.303491
0.450681
-0.307928
0.476369
-0.311889
0.503511
-0.315377
0.532209
-0.318449
0.56254
-0.321149
0.594575
-0.323527
0.628415
-0.32563
0.664191
-0.327508
0.701931
-0.329208
0.74178
-0.330777
0.783847
-0.332256
0.828266
-0.333685
0.875076
-0.335102
0.924545
-0.336536
0.976773
-0.338017
1.03184
-0.339568
1.08974
-0.341198
1.1511
-0.342961
1.21583
-0.344834
1.28389
-0.346842
1.35596
-0.348991
1.43178
-0.351288
1.51199
-0.353736
1.59647
-0.356335
1.68577
-0.359082
1.78
-0.361972
1.87945
-0.364998
1.98439
-0.368149
2.09522
-0.371401
2.21236
-0.374764
2.33595
-0.378224
2.46641
-0.381737
2.60424
-0.3853
2.74991
-0.388893
2.90369
-0.392499
3.06624
-0.3961
3.23773
-0.399677
3.41909
-0.403216
3.61048
-0.406698
3.81282
-0.41011
4.0265
-0.413437
4.25196
-0.41667
4.49032
-0.419798
4.74177
-0.422816
5.00734
-0.42572
5.28782
-0.42849
5.58377
-0.431168
5.89624
-0.433704
6.22607
-0.43611
6.57412
-0.438384
6.94115
-0.440526
7.3281
-0.44254
7.73711
-0.443925
5.92816
-0.445316
6.52455
-0.446691
7.17874
-0.448091
7.90111
-0.449459
8.69437
-0.450788
9.5676
-0.452066
10.5265
-0.4531
11.5819
-0.45421
12.7333
-0.454332
14.012
-0.457142
15.3822
-0.455333
17.0066
18.6481
-0.192717
0.1912
-0.200593
0.215759
-0.206965
0.233987
-0.211917
0.249206
-0.216168
0.263841
-0.220416
0.278758
-0.22498
0.294466
-0.229859
0.311105
-0.235017
0.328691
-0.24042
0.34723
-0.246005
0.366821
-0.251756
0.387499
-0.257624
0.40932
-0.263563
0.432347
-0.269529
0.456646
-0.275485
0.482325
-0.28136
0.509386
-0.28714
0.53799
-0.292783
0.568182
-0.298254
0.600047
-0.303529
0.63369
-0.308587
0.669249
-0.313417
0.70676
-0.318013
0.746377
-0.322378
0.788212
-0.326519
0.832407
-0.330451
0.879008
-0.334193
0.928287
-0.337767
0.980347
-0.341199
1.03527
-0.344515
1.09305
-0.347755
1.15434
-0.350911
1.21899
-0.354042
1.28702
-0.357162
1.35908
-0.360291
1.43491
-0.363448
1.51514
-0.366648
1.59967
-0.369904
1.68903
-0.373224
1.78332
-0.376615
1.88284
-0.380079
1.98786
-0.383616
2.09876
-0.387235
2.21598
-0.390905
2.33962
-0.394616
2.47012
-0.398386
2.60801
-0.402188
2.75371
-0.40601
2.90751
-0.409837
3.07007
-0.413655
3.24154
-0.417448
3.42288
-0.421201
3.61423
-0.4249
3.81651
-0.428529
4.03013
-0.432074
4.25551
-0.435541
4.49379
-0.438889
4.74512
-0.442112
5.01057
-0.445234
5.29095
-0.448251
5.58679
-0.451113
5.8991
-0.453858
6.22881
-0.456484
6.57675
-0.458941
6.9436
-0.461276
7.33043
-0.463476
7.73932
-0.465008
5.92969
-0.46652
6.52606
-0.468064
7.18029
-0.469575
7.90262
-0.471088
8.69589
-0.472562
9.56907
-0.473986
10.5279
-0.475151
11.583
-0.476411
12.7345
-0.476662
14.0123
-0.479738
15.3853
-0.478456
17.0053
18.6576
-0.221876
0.203317
-0.229765
0.223648
-0.235879
0.240101
-0.240884
0.254211
-0.245401
0.268358
-0.249807
0.283163
-0.254178
0.298838
-0.258507
0.315433
-0.262764
0.332948
-0.266976
0.351442
-0.271154
0.370999
-0.275292
0.391637
-0.27941
0.413438
-0.283509
0.436446
-0.287618
0.460756
-0.291739
0.486446
-0.295889
0.513535
-0.300044
0.542145
-0.304236
0.572374
-0.308453
0.604265
-0.312704
0.63794
-0.316951
0.673496
-0.321215
0.711025
-0.325487
0.750649
-0.329734
0.792459
-0.333944
0.836617
-0.338127
0.883191
-0.342265
0.932425
-0.346352
0.984433
-0.350381
1.0393
-0.354354
1.09702
-0.358272
1.15825
-0.362141
1.22286
-0.365979
1.29086
-0.369774
1.36287
-0.373547
1.43868
-0.37731
1.5189
-0.381073
1.60344
-0.384835
1.69279
-0.388642
1.78713
-0.392451
1.88665
-0.396306
1.99171
-0.40021
2.10266
-0.404125
2.21989
-0.408088
2.34358
-0.412083
2.47411
-0.416116
2.61204
-0.420154
2.75775
-0.424201
2.91156
-0.428232
3.0741
-0.432263
3.24557
-0.436279
3.4269
-0.440228
3.61818
-0.444136
3.82042
-0.447989
4.03399
-0.451733
4.25925
-0.455399
4.49745
-0.458962
4.74868
-0.462416
5.01402
-0.465755
5.29428
-0.468972
5.59
-0.472062
5.90219
-0.475019
6.23177
-0.477836
6.57956
-0.480526
6.94629
-0.483058
7.33296
-0.485436
7.74169
-0.487089
5.93134
-0.488772
6.52774
-0.490431
7.18195
-0.492122
7.90431
-0.493772
8.69754
-0.495414
9.57072
-0.496998
10.5295
-0.498287
11.5843
-0.499731
12.736
-0.500066
14.0126
-0.503512
15.3887
-0.50257
17.0044
18.6674
-0.250571
0.211598
-0.255932
0.22901
-0.259678
0.243848
-0.262919
0.257453
-0.266168
0.271607
-0.269569
0.286564
-0.273109
0.302378
-0.27676
0.319085
-0.280506
0.336694
-0.284334
0.35527
-0.288231
0.374897
-0.292185
0.39559
-0.296181
0.417434
-0.300207
0.440473
-0.304263
0.464811
-0.30831
0.490494
-0.312369
0.517594
-0.316424
0.546201
-0.320472
0.576423
-0.324512
0.608304
-0.328543
0.641972
-0.332577
0.67753
-0.336587
0.715034
-0.340605
0.754667
-0.344625
0.796479
-0.34865
0.840642
-0.352681
0.887222
-0.356719
0.936463
-0.360766
0.98848
-0.364819
1.04335
-0.368879
1.10108
-0.372944
1.16232
-0.377013
1.22693
-0.381085
1.29493
-0.38516
1.36695
-0.389239
1.44276
-0.393323
1.52299
-0.397415
1.60753
-0.40153
1.6969
-0.405634
1.79123
-0.409768
1.89079
-0.41392
1.99586
-0.418093
2.10683
-0.422287
2.22408
-0.426502
2.34779
-0.430734
2.47834
-0.43498
2.61629
-0.439234
2.76201
-0.443489
2.91581
-0.447737
3.07835
-0.451967
3.2498
-0.45617
3.4311
-0.460331
3.62234
-0.46444
3.82453
-0.468482
4.03803
-0.47246
4.26323
-0.476319
4.50131
-0.480093
4.75246
-0.483774
5.0177
-0.487327
5.29784
-0.490745
5.59342
-0.49405
5.9055
-0.49722
6.23494
-0.500248
6.58259
-0.503131
6.94918
-0.505866
7.3357
-0.508459
7.74429
-0.510255
5.93314
-0.51207
6.52956
-0.513898
7.18377
-0.515731
7.90615
-0.517559
8.69937
-0.51935
9.57251
-0.521099
10.5312
-0.522544
11.5858
-0.524171
12.7376
-0.524678
14.0131
-0.528382
15.3924
-0.527998
17.004
18.6773
-0.286266
0.217465
-0.28976
0.232503
-0.291932
0.24602
-0.293927
0.259447
-0.296035
0.273715
-0.298283
0.288813
-0.300629
0.304723
-0.303094
0.32155
-0.305674
0.339274
-0.308373
0.357969
-0.311194
0.377718
-0.314138
0.398534
-0.317204
0.4205
-0.3204
0.443669
-0.323695
0.468107
-0.327112
0.493911
-0.330635
0.521117
-0.334257
0.549822
-0.337968
0.580134
-0.341759
0.612095
-0.34562
0.645832
-0.34954
0.681451
-0.353511
0.719005
-0.357522
0.758679
-0.361568
0.800524
-0.365641
0.844715
-0.369736
0.891317
-0.37385
0.940577
-0.377981
0.992611
-0.382127
1.0475
-0.386287
1.10524
-0.390462
1.16649
-0.394653
1.23112
-0.398859
1.29914
-0.403082
1.37117
-0.407322
1.447
-0.41158
1.52725
-0.415856
1.61181
-0.420151
1.7012
-0.424465
1.79554
-0.428799
1.89512
-0.433165
2.00023
-0.437525
2.11119
-0.441916
2.22848
-0.446323
2.3522
-0.450743
2.48277
-0.455174
2.62072
-0.459609
2.76644
-0.464044
2.92025
-0.46847
3.08278
-0.472892
3.25423
-0.477261
3.43547
-0.481605
3.62669
-0.485899
3.82882
-0.490131
4.04226
-0.494288
4.26739
-0.49836
4.50539
-0.502336
4.75643
-0.506209
5.02158
-0.509971
5.3016
-0.513616
5.59707
-0.517149
5.90903
-0.520518
6.23831
-0.523759
6.58583
-0.526852
6.95227
-0.529797
7.33864
-0.532596
7.74708
-0.534539
5.93508
-0.536509
6.53153
-0.538497
7.18576
-0.540497
7.90815
-0.542496
8.70137
-0.544464
9.57448
-0.546385
10.5331
-0.54801
11.5874
-0.54979
12.7394
-0.550563
14.0139
-0.554429
15.3963
-0.554751
-0.323389
0.221325
-0.325501
0.234615
-0.326993
0.247512
-0.328578
0.261033
-0.330276
0.275413
-0.332052
0.290588
-0.333921
0.306593
-0.335852
0.32348
-0.337881
0.341304
-0.339986
0.360074
-0.342168
0.379901
-0.344451
0.400816
-0.346827
0.422876
-0.3493
0.446142
-0.351873
0.47068
-0.354549
0.496587
-0.357332
0.5239
-0.360232
0.552723
-0.363233
0.583134
-0.366344
0.615206
-0.369554
0.649043
-0.372883
0.68478
-0.376327
0.722449
-0.379852
0.762204
-0.383483
0.804155
-0.387214
0.848446
-0.391017
0.895121
-0.394897
0.944457
-0.398845
0.996559
-0.402856
1.05151
-0.406921
1.10931
-0.411037
1.17061
-0.415199
1.23528
-0.419389
1.30333
-0.42363
1.37541
-0.427906
1.45127
-0.432216
1.53156
-0.436558
1.61615
-0.440932
1.70557
-0.445336
1.79995
-0.449781
1.89957
-0.454229
2.00468
-0.458715
2.11568
-0.463238
2.233
-0.467769
2.35673
-0.472318
2.48731
-0.476867
2.62527
-0.481438
2.77101
-0.486011
2.92482
-0.490594
3.08736
-0.495137
3.25877
-0.499672
3.44
-0.504188
3.6312
-0.508647
3.83328
-0.513035
4.04665
-0.517369
4.27172
-0.521624
4.50964
-0.525789
4.7606
-0.529858
5.02564
-0.533822
5.30556
-0.537672
5.60092
-0.541399
5.91276
-0.545008
6.24192
-0.548446
6.58927
-0.551751
6.95558
-0.554907
7.3418
-0.557931
7.75011
-0.560012
5.93716
-0.562141
6.53366
-0.564296
7.18792
-0.56647
7.91032
-0.568666
8.70356
-0.570805
9.57662
-0.572908
10.5353
-0.574724
11.5892
-0.576688
12.7413
-0.577729
-0.360659
0.223413
-0.361858
0.235813
-0.363011
0.248666
-0.364317
0.262338
-0.365698
0.276793
-0.367147
0.292037
-0.368663
0.30811
-0.370251
0.325068
-0.371913
0.342966
-0.373652
0.361813
-0.37547
0.381719
-0.37737
0.402716
-0.379353
0.42486
-0.381422
0.448211
-0.383579
0.472836
-0.385825
0.498834
-0.388163
0.526238
-0.390595
0.555155
-0.393123
0.585662
-0.395747
0.617831
-0.398471
0.651767
-0.401297
0.687605
-0.404225
0.725377
-0.407256
0.765235
-0.410392
0.807291
-0.413633
0.851687
-0.416978
0.898466
-0.420426
0.947905
-0.423975
1.00011
-0.427621
1.05516
-0.431361
1.11305
-0.43519
1.17444
-0.439105
1.23919
-0.443099
1.30732
-0.447168
1.37948
-0.451307
1.45541
-0.45551
1.53576
-0.459775
1.62041
-0.464095
1.70989
-0.468469
1.80432
-0.472891
1.90399
-0.477358
2.00914
-0.481866
2.12019
-0.486413
2.23754
-0.490993
2.36131
-0.495602
2.49192
-0.500235
2.6299
-0.504887
2.77567
-0.509551
2.92948
-0.514221
3.09203
-0.518887
3.26344
-0.52354
3.44465
-0.52817
3.63583
-0.532766
3.83788
-0.537314
4.0512
-0.541803
4.27621
-0.546222
4.51406
-0.550561
4.76494
-0.554812
5.0299
-0.558965
5.30972
-0.563025
5.60498
-0.566939
5.91667
-0.570738
6.24572
-0.574399
6.59293
-0.577915
6.95909
-0.581284
7.34517
-0.584505
7.75333
-0.586756
5.93941
-0.589049
6.53595
-0.591377
7.19024
-0.593732
7.91268
-0.596102
8.70593
-0.598452
9.57897
-0.600749
10.5376
-0.602767
-0.398648
0.224414
-0.399468
0.236634
-0.400437
0.249635
-0.401489
0.26339
-0.402588
0.277892
-0.403741
0.29319
-0.404951
0.30932
-0.406232
0.326349
-0.407557
0.344291
-0.40896
0.363216
-0.410443
0.383202
-0.41199
0.404263
-0.413615
0.426484
-0.41531
0.449906
-0.417099
0.474625
-0.418985
0.50072
-0.420951
0.528204
-0.422998
0.557202
-0.425151
0.587815
-0.427401
0.620081
-0.429761
0.654127
-0.4322
0.690045
-0.434753
0.72793
-0.43742
0.767902
-0.44018
0.810052
-0.443036
0.854543
-0.446008
0.901438
-0.449088
0.950984
-0.452274
1.00329
-0.455567
1.05845
-0.458966
1.11645
-0.462469
1.17794
-0.466077
1.2428
-0.469796
1.31104
-0.473602
1.38329
-0.477503
1.45931
-0.481496
1.53975
-0.485576
1.62449
-0.489726
1.71404
-0.493978
1.80857
-0.498279
1.90829
-0.502661
2.01352
-0.507118
2.12465
-0.511607
2.24203
-0.516162
2.36587
-0.520763
2.49652
-0.525418
2.63456
-0.530094
2.78034
-0.534797
2.93419
-0.539506
3.09674
-0.544238
3.26817
-0.548985
3.4494
-0.553694
3.64054
-0.558394
3.84258
-0.563074
4.05588
-0.567678
4.28081
-0.572253
4.51863
-0.576745
4.76943
-0.581145
5.0343
-0.585472
5.31404
-0.589701
5.6092
-0.59382
5.92079
-0.597817
6.24971
-0.601696
6.59681
-0.605419
6.96282
-0.608999
7.34875
-0.612418
7.75675
-0.614842
5.94184
-0.617302
6.53841
-0.619808
7.19275
-0.62235
7.91522
-0.624902
-0.627473
-0.437593
0.225026
-0.438335
0.237376
-0.439145
0.250444
-0.440001
0.264246
-0.440895
0.278787
-0.441846
0.29414
-0.442822
0.310296
-0.44386
0.327386
-0.44495
0.345382
-0.446097
0.364362
-0.447302
0.384408
-0.448571
0.405531
-0.449905
0.427819
-0.45132
0.451321
-0.452796
0.476102
-0.45434
0.502263
-0.455974
0.529838
-0.457693
0.558921
-0.4595
0.589622
-0.461399
0.62198
-0.463393
0.656121
-0.465498
0.692149
-0.467681
0.730114
-0.469981
0.770202
-0.472388
0.812459
-0.474904
0.857058
-0.477531
0.904065
-0.48027
0.953723
-0.483122
1.00615
-0.486088
1.06141
-0.489179
1.11954
-0.492361
1.18113
-0.495668
1.24611
-0.499087
1.31446
-0.502617
1.38682
-0.506256
1.46295
-0.510002
1.5435
-0.513852
1.62834
-0.517816
1.71801
-0.521852
1.81261
-0.526007
1.91244
-0.530238
2.01776
-0.53454
2.12895
-0.538934
2.24643
-0.5434
2.37033
-0.547932
2.50106
-0.552524
2.63915
-0.557169
2.78499
-0.561859
2.93888
-0.566585
3.10146
-0.571353
3.27294
-0.576111
3.45416
-0.580901
3.64533
-0.585671
3.84735
-0.590409
4.06061
-0.595141
4.28555
-0.599803
4.5233
-0.604424
4.77405
-0.608996
5.03887
-0.613479
5.31853
-0.61786
5.61359
-0.622172
5.9251
-0.626341
6.25388
-0.630399
6.60087
-0.634325
6.96674
-0.638112
7.35253
-0.641775
-0.644326
-0.646956
-0.649643
-0.477646
0.225595
-0.478297
0.238027
-0.47899
0.251137
-0.479699
0.264955
-0.480444
0.279532
-0.481216
0.294912
-0.48205
0.31113
-0.482904
0.328241
-0.483826
0.346303
-0.484784
0.36532
-0.485781
0.385406
-0.486843
0.406593
-0.487962
0.428937
-0.48914
0.452499
-0.490382
0.477344
-0.491691
0.503571
-0.49307
0.531218
-0.494534
0.560386
-0.496066
0.591153
-0.497679
0.623594
-0.499367
0.65781
-0.501157
0.693938
-0.503052
0.732008
-0.505022
0.772172
-0.507105
0.814542
-0.509304
0.859258
-0.511601
0.906362
-0.514009
0.956131
-0.516532
1.00867
-0.519171
1.06405
-0.521916
1.12228
-0.524805
1.18401
-0.527802
1.2491
-0.530908
1.31757
-0.534147
1.39006
-0.537506
1.46631
-0.540984
1.54698
-0.544579
1.63194
-0.548289
1.72172
-0.552112
1.81643
-0.556045
1.91638
-0.560083
2.02179
-0.564222
2.13309
-0.568471
2.25068
-0.572799
2.37466
-0.577213
2.50547
-0.581693
2.64363
-0.586257
2.78955
-0.590887
2.94351
-0.595586
3.10616
-0.600305
3.27765
-0.605073
3.45893
-0.609864
3.65013
-0.614668
3.85215
-0.61947
4.06541
-0.624257
4.29033
-0.629019
4.52806
-0.633743
4.77878
-0.638419
5.04354
-0.643036
5.32314
-0.647596
5.61815
-0.65204
-0.656411
-0.660639
-0.664758
-0.518904
0.226116
-0.519454
0.238576
-0.520011
0.251695
-0.520608
0.265552
-0.521235
0.280159
-0.521905
0.295582
-0.522587
0.311811
-0.523327
0.328981
-0.524084
0.347059
-0.524893
0.366129
-0.525756
0.386269
-0.526654
0.407492
-0.527602
0.429885
-0.528591
0.453488
-0.529657
0.478411
-0.530772
0.504685
-0.531948
0.532394
-0.533179
0.561617
-0.534491
0.592466
-0.535877
0.624979
-0.537352
0.659284
-0.538897
0.695483
-0.540516
0.733627
-0.542247
0.773904
-0.544061
0.816356
-0.545961
0.861158
-0.547974
0.908375
-0.550092
0.95825
-0.55232
1.0109
-0.554661
1.06639
-0.557117
1.12474
-0.559692
1.18659
-0.562388
1.2518
-0.56522
1.3204
-0.568164
1.393
-0.571235
1.46938
-0.574431
1.55017
-0.577754
1.63526
-0.581203
1.72516
-0.584775
1.82001
-0.588458
1.92006
-0.592272
2.02561
-0.596215
2.13703
-0.600247
2.25471
-0.604399
2.37881
-0.608654
2.50973
-0.613019
2.648
-0.617463
2.794
-0.621991
2.94803
-0.626581
3.11075
-0.631251
3.28232
-0.63599
3.46367
-0.640745
3.65488
-0.645545
3.85695
-0.650377
-0.655201
-0.660018
-0.664816
-0.669572
-0.674315
-0.561427
0.226561
-0.561888
0.239037
-0.562381
0.252188
-0.562888
0.266058
-0.563421
0.280691
-0.563969
0.296131
-0.56457
0.312412
-0.565179
0.32959
-0.565844
0.347724
-0.566532
0.366818
-0.567247
0.386984
-0.568013
0.408258
-0.568822
0.430694
-0.569688
0.454354
-0.57058
0.479302
-0.571535
0.50564
-0.572544
0.533404
-0.573624
0.562697
-0.574755
0.593596
-0.575951
0.626176
-0.577205
0.660539
-0.578545
0.696823
-0.579975
0.735057
-0.581463
0.775392
-0.583049
0.817941
-0.584737
0.862846
-0.586508
0.910146
-0.588377
0.96012
-0.59035
1.01287
-0.59243
1.06847
-0.59462
1.12693
-0.596913
1.18888
-0.599348
1.25424
-0.60188
1.32293
-0.604548
1.39567
-0.607342
1.47217
-0.610264
1.5531
-0.613316
1.63831
-0.616499
1.72835
-0.619813
1.82332
-0.62327
1.92352
-0.626844
2.02918
-0.630532
-0.634359
-0.638322
-0.642389
-0.646558
-0.650847
-0.655239
-0.659739
-0.66431
-0.668944
-0.673668
-0.605362
-0.605744
-0.606157
-0.606592
-0.607049
-0.60753
-0.608036
-0.608581
-0.60913
-0.609723
-0.610347
-0.611019
-0.611716
-0.612441
-0.613221
-0.614058
-0.614931
-0.615845
-0.616825
-0.617864
-0.618978
-0.620134
-0.621372
-0.622684
-0.624087
-0.625549
-0.62711
-0.628763
-0.630512
-0.632361
-0.634315
-0.63639
-0.638554
-0.640847
-0.643261
-0.645798
-0.648463
-0.65127
-0.654183
-0.657243
-0.660437
)
;

boundaryField
{
    inlet
    {
        type            calculated;
        value           nonuniform List<scalar> 
13
(
-0.919758
-0.908411
-0.905727
-0.917927
-0.955592
-1.02152
-1.15972
-0.934638
-0.464632
-0.487908
-0.51236
-0.537885
-0.5646
)
;
    }
    outlet
    {
        type            calculated;
        value           nonuniform List<scalar> 0();
    }
    walls
    {
        type            calculated;
        value           uniform 0;
    }
    frontAndBack
    {
        type            empty;
        value           nonuniform List<scalar> 0();
    }
    procBoundary2to1
    {
        type            processor;
        value           nonuniform List<scalar> 
84
(
-0.206437
-0.232766
-0.25174
-0.268365
-0.282069
-0.297485
-0.313226
-0.330046
-0.347663
-0.366253
-0.385812
-0.406408
-0.428099
-0.450936
-0.475005
-0.500348
-0.527045
-0.555152
-0.584796
-0.616014
-0.648945
-0.683627
-0.720229
-0.758802
-0.799569
-0.842471
-0.887734
-0.93574
-0.986133
-1.03955
-1.096
-1.15552
-1.21837
-1.28507
-1.35528
-1.42976
-1.5083
-1.59155
-0.0257233
-1.67664
-1.7696
-1.86789
-1.97189
-2.08188
-2.19828
-2.32148
-2.45151
-2.58928
-2.73481
-2.88876
-3.05141
-3.22353
-3.40516
0.0778983
-3.59346
-3.79637
-4.0107
-4.23721
-4.47616
-4.72856
-4.99494
-5.27634
-5.57329
0.180482
-5.88091
-6.21136
-6.56004
-6.92789
-7.31502
-7.7248
-5.63526
-6.2012
-6.82413
-7.51177
0.420407
-8.22832
-9.05653
-9.96592
-10.9658
-12.0623
-13.2687
-14.5865
-16.0743
-17.6998
)
;
    }
    procBoundary2to3
    {
        type            processor;
        value           nonuniform List<scalar> 
88
(
17.0043
18.6871
14.0149
-0.581793
15.4003
11.5912
-0.6049
12.7435
8.70848
9.58154
-0.629973
10.5401
7.76041
5.94439
6.54104
7.19544
-0.652379
7.91795
5.92954
6.25826
6.6051
6.97086
-0.668749
7.35652
4.07025
4.29516
4.53287
4.78358
5.0483
5.32789
-0.678973
5.6228
2.14072
2.25854
2.38277
2.51379
2.65216
2.79829
2.95243
3.11525
3.28689
3.4683
3.65961
-0.67843
3.86172
0.226949
0.239419
0.252602
0.266493
0.281148
0.296612
0.312918
0.330135
0.348274
0.36741
0.387608
0.40893
0.431391
0.455079
0.480082
0.506477
0.534278
0.56361
0.594576
0.627215
0.661652
0.697979
0.736295
0.776704
0.819344
0.864308
0.911707
0.961772
1.01462
1.07032
1.12888
1.19096
1.2564
1.32522
1.39808
1.47471
1.55576
1.64112
1.73126
1.82638
1.92671
-0.663767
2.03251
)
;
    }
    procBoundary2to6
    {
        type            processor;
        value           nonuniform List<scalar> 
13
(
0.162815
0.178945
0.209761
0.242291
0.280399
0.31953
0.358572
0.397646
0.436981
0.477077
0.518383
0.560983
0.604974
)
;
    }
}


// ************************************************************************* //
