/*--------------------------------*- C++ -*----------------------------------*\
| =========                 |                                                 |
| \\      /  F ield         | OpenFOAM: The Open Source CFD Toolbox           |
|  \\    /   O peration     | Version:  2306                                  |
|   \\  /    A nd           | Website:  www.openfoam.com                      |
|    \\/     M anipulation  |                                                 |
\*---------------------------------------------------------------------------*/
FoamFile
{
    version     2.0;
    format      ascii;
    arch        "LSB;label=32;scalar=64";
    class       volScalarField;
    location    "425";
    object      turbulenceProperties:L;
}
// * * * * * * * * * * * * * * * * * * * * * * * * * * * * * * * * * * * * * //

dimensions      [0 1 0 0 0 0 0];

internalField   nonuniform List<scalar> 
1340
(
0.0560832
0.0562072
0.0564335
0.0565274
0.212398
0.207405
0.198332
0.175243
0.258858
0.261731
0.273182
0.246069
0.234496
0.245981
0.257574
0.242439
0.0780585
0.113435
0.110065
0.19234
0.0485053
0.064829
0.0603295
0.0993693
0.180727
0.328358
0
0.0512399
0.0478416
0.0551334
0.283933
0
0.0437005
0.042123
0.0403194
0.41053
0.0475427
0.0478096
0.037343
0.0590828
0.0472683
0.0473271
0.0398996
0.0353603
0.0490726
0.0487925
0.0430432
0.0339956
0.0500326
0.0496827
0.0448506
0.0355293
0.0514862
0.0512599
0.0466193
0.0374584
0.0529081
0.0528152
0.0484721
0.0394411
0.054572
0.0546264
0.050549
0.0415407
0.0563956
0.056615
0.0528072
0.0438187
0.0584511
0.0588614
0.0552804
0.0463043
0.0607558
0.0613896
0.0580025
0.0490228
0.0633565
0.0642571
0.0610065
0.0519856
0.0663027
0.0675265
0.0643504
0.0552273
0.0696595
0.0712756
0.0680906
0.0587743
0.0735065
0.075615
0.0723029
0.0626532
0.0779439
0.0806811
0.0770911
0.0669085
0.0831057
0.0866734
0.0825666
0.0715676
0.0891635
0.0938695
0.0888865
0.0766739
0.0963446
0.102683
0.096238
0.0822536
0.104949
0.113772
0.104859
0.0883289
0.115362
0.128247
0.115009
0.0948892
0.128025
0.148186
0.126919
0.101872
0.143259
0.178184
0.140581
0.10914
0.160582
0.231144
0.155273
0.116444
0.177087
0.371293
0.168761
0.123427
0.186642
0.53758
0.17741
0.129661
0.185479
0.284895
0.178998
0.134773
0.177441
0.222674
0.175103
0.138562
0.167975
0.192858
0.168957
0.141075
0.159668
0.175353
0.162779
0.142559
0.136149
0.153119
0.164101
0.157499
0.143352
0.135134
0.148233
0.156565
0.153351
0.14378
0.134388
0.144762
0.151478
0.1503
0.144101
0.134039
0.142468
0.148133
0.148234
0.144502
0.134145
0.141157
0.146099
0.147027
0.145102
0.134723
0.140682
0.145103
0.146575
0.145977
0.135771
0.14093
0.144958
0.146794
0.147174
0.137277
0.141814
0.145534
0.147609
0.148713
0.139228
0.143272
0.146742
0.148971
0.150608
0.141607
0.145253
0.148515
0.150838
0.152869
0.144405
0.147722
0.150804
0.153176
0.155494
0.147615
0.150658
0.153583
0.155972
0.158494
0.15124
0.154049
0.156834
0.159214
0.161877
0.155294
0.157903
0.160558
0.162911
0.165665
0.157437
0.159802
0.162236
0.164771
0.167082
0.169886
0.162609
0.164799
0.167078
0.169502
0.171758
0.17458
0.168285
0.170322
0.172463
0.17478
0.176971
0.17979
0.174495
0.176396
0.178411
0.180628
0.182744
0.185543
0.181242
0.183021
0.18492
0.18704
0.189074
0.191845
0.188499
0.190166
0.191958
0.193985
0.195934
0.19867
0.196234
0.197799
0.199491
0.201429
0.203288
0.205982
0.204454
0.205927
0.207527
0.209378
0.211146
0.213786
0.213258
0.214649
0.216163
0.217929
0.219603
0.22217
0.221641
0.222854
0.224174
0.225608
0.227289
0.22886
0.231338
0.23233
0.233493
0.23475
0.236108
0.237699
0.239154
0.241529
0.244278
0.245404
0.246607
0.24789
0.24939
0.250712
0.252977
0.257579
0.258676
0.259829
0.261039
0.262446
0.26361
0.265769
0.272247
0.273325
0.274434
0.275573
0.276889
0.277886
0.279963
0.287947
0.289019
0.290093
0.291151
0.29235
0.293144
0.295072
0.303276
0.304398
0.305489
0.306522
0.307664
0.308296
0.310036
0.317561
0.318785
0.319953
0.321039
0.322219
0.322791
0.324477
0.332296
0.333671
0.334972
0.336165
0.337431
0.337996
0.339663
0.348645
0.350188
0.35165
0.352965
0.354334
0.354914
0.356587
0.365535
0.367609
0.369519
0.371272
0.372778
0.374217
0.374591
0.375467
0.387669
0.390639
0.393488
0.396173
0.398593
0.40091
0.402469
0.405041
0.422278
0.426354
0.42997
0.433043
0.435331
0.436746
0.434858
0.430539
0.490599
0.503278
0.515758
0.527563
0.538353
0.547934
0.556051
0.568844
0.548469
0.553501
0.554952
0.55239
0.54429
0.530581
0.501688
0.466617
0.519244
0.520597
0.52229
0.524701
0.52661
0.518994
0.478318
0.443616
0.316317
0.310586
0.305843
0.301652
0.297015
0.290542
0.276235
0.265822
0.23081
0.230453
0.230198
0.230027
0.22991
0.229525
0.227244
0.23279
0.166989
0.166961
0.167007
0.167095
0.167284
0.16738
0.168067
0.174489
0.142994
0.180592
0.229081
0.222567
0.157136
0.056499
0.0299516
0
0.359102
0.0455178
0.0330638
0.0331283
0.0347728
0.0365702
0.0383973
0.0403311
0.0424261
0.0446985
0.0471574
0.0498233
0.0527095
0.0558329
0.0592099
0.0628543
0.0667825
0.0710014
0.0755139
0.0803143
0.0853808
0.0906732
0.0961263
0.101648
0.107126
0.112423
0.117407
0.121967
0.126031
0.129584
0.132663
0.135347
0.137737
0.139941
0.14206
0.144184
0.146388
0.14873
0.151256
0.154007
0.157007
0.16029
0.16388
0.167813
0.17213
0.176878
0.182105
0.187846
0.19411
0.200874
0.208111
0.215827
0.224115
0.233174
0.243235
0.254523
0.267113
0.281086
0.295896
0.310573
0.324737
0.339667
0.356404
0.374633
0.404813
0.42577
0.574228
0.446832
0.465068
0.268241
0.247667
0.185172
0.218261
0.222008
0.253858
0.259621
0.162114
0.088644
0
1.75884
0.192462
0.0479415
0.0433079
0.0439755
0.0453519
0.046701
0.0480582
0.0495188
0.0511189
0.0528806
0.0548026
0.0569041
0.0591938
0.061687
0.0643968
0.0673214
0.0704736
0.0738576
0.0774669
0.0812916
0.0853196
0.0895231
0.0938676
0.0983072
0.102788
0.10725
0.111625
0.115861
0.119903
0.123722
0.127306
0.130663
0.133821
0.136824
0.139718
0.142561
0.145405
0.148303
0.151299
0.154436
0.15775
0.161282
0.165064
0.169142
0.173564
0.178383
0.183652
0.189406
0.195656
0.202382
0.209564
0.217217
0.225439
0.23443
0.244418
0.25561
0.268068
0.281882
0.296526
0.311106
0.325136
0.339868
0.356473
0.374502
0.404698
0.424548
0.57692
0.436285
0.497039
0.267744
0.248802
0.183085
0.277289
0.260466
0.258781
0.245952
0.0790283
0.0422669
0
0.709097
0.0894013
0.0553967
0.0558977
0.0573827
0.0590079
0.0604714
0.061918
0.0634261
0.0649964
0.0666443
0.0683831
0.0701939
0.0721029
0.0741137
0.0762484
0.0784986
0.0808811
0.0834154
0.0861008
0.0889372
0.0919334
0.0950792
0.0983655
0.101776
0.105286
0.10887
0.112493
0.116127
0.119737
0.123299
0.126792
0.130209
0.133546
0.136818
0.140039
0.14324
0.146448
0.149696
0.153021
0.156453
0.160028
0.163782
0.167753
0.171985
0.176532
0.18145
0.186791
0.192592
0.198865
0.20559
0.212752
0.220374
0.228566
0.23753
0.247489
0.258642
0.271034
0.28476
0.29932
0.313846
0.327741
0.342217
0.358639
0.376437
0.406421
0.425831
0.573225
0.432097
0.514413
0.268846
0.251337
0.182859
0.319297
0.292425
0.253023
0.136437
0.0718002
0
1.84306
0.218079
0.0736223
0.0665655
0.0688723
0.0701741
0.0715433
0.0727791
0.0740929
0.0755033
0.0769766
0.0785261
0.0801506
0.0818218
0.0835663
0.0853617
0.0872225
0.0891529
0.0911488
0.0932226
0.0953849
0.097637
0.0999897
0.102447
0.105012
0.10769
0.110471
0.113356
0.116333
0.119389
0.122512
0.125686
0.128897
0.132139
0.135399
0.138678
0.141981
0.145315
0.148693
0.152132
0.155655
0.159283
0.163042
0.166964
0.171083
0.175443
0.180096
0.185098
0.190502
0.196343
0.202632
0.209352
0.216491
0.224079
0.232234
0.241162
0.251082
0.262183
0.274494
0.288111
0.302545
0.316926
0.330598
0.344763
0.36092
0.378363
0.407893
0.426736
0.564888
0.429142
0.52283
0.270207
0.254602
0.183533
0.350664
0.312822
0.1991
0.151731
0
5.26685
0.587188
0.102772
0.0769839
0.077981
0.0799974
0.0806713
0.081441
0.0821401
0.0829555
0.083856
0.0848469
0.0859516
0.0871534
0.088462
0.0898895
0.0914264
0.0930622
0.0948181
0.0966779
0.0986259
0.100681
0.102825
0.105056
0.107374
0.109775
0.112263
0.114829
0.117479
0.120212
0.123018
0.125905
0.128863
0.131892
0.13499
0.138149
0.141372
0.144664
0.148022
0.151456
0.154975
0.158593
0.162323
0.166185
0.170204
0.17441
0.178847
0.183562
0.188608
0.19404
0.199889
0.206162
0.212846
0.219933
0.22746
0.235551
0.244411
0.25425
0.26525
0.277419
0.290855
0.305083
0.319236
0.332618
0.346436
0.362267
0.379285
0.40817
0.426186
0.554045
0.424558
0.529195
0.270148
0.256365
0.183619
0.375899
0.32111
0.405408
0
0
1.04921
0.135191
0.0878363
0.0849746
0.0879293
0.0889676
0.0893659
0.0899207
0.0904884
0.09117
0.0919121
0.0927516
0.0936854
0.0946926
0.0957956
0.0969909
0.0982843
0.0996652
0.101156
0.102748
0.104435
0.106242
0.10815
0.110164
0.112285
0.114508
0.116835
0.119253
0.121766
0.124371
0.127055
0.129827
0.132675
0.135604
0.138614
0.141697
0.144864
0.148117
0.151454
0.154886
0.158418
0.16206
0.165824
0.169724
0.173782
0.178025
0.182494
0.18723
0.192288
0.197716
0.203544
0.209777
0.216402
0.223415
0.230862
0.23887
0.24764
0.257374
0.268238
0.280223
0.293432
0.307416
0.321303
0.33435
0.347792
0.363248
0.379794
0.407915
0.424924
0.542435
0.419185
0.537023
0.269548
0.393529
0.206
0.0767218
0
1.66674
0.205167
0.102358
0.096314
0.0989111
0.100818
0.100848
0.100957
0.101203
0.101508
0.101924
0.102404
0.102991
0.10368
0.104449
0.105317
0.106276
0.107333
0.108492
0.109744
0.111085
0.112532
0.114082
0.11572
0.117465
0.119311
0.121258
0.123314
0.125469
0.12773
0.130095
0.132561
0.13513
0.137794
0.140561
0.143425
0.146383
0.149446
0.152607
0.155872
0.15925
0.162738
0.166352
0.170096
0.173984
0.178036
0.182273
0.186735
0.191461
0.196501
0.2019
0.207684
0.213856
0.220404
0.22733
0.234683
0.242594
0.251259
0.260873
0.27158
0.283355
0.296313
0.310028
0.323615
0.336282
0.349311
0.36434
0.380358
0.407609
0.423454
0.530656
0.413942
0.443933
0.174818
0
2.70854
0.317167
0.118228
0.10888
0.11139
0.113765
0.11393
0.113495
0.113394
0.113383
0.113462
0.113649
0.113919
0.114297
0.114773
0.115337
0.116001
0.116757
0.117605
0.118557
0.119597
0.120721
0.121949
0.123271
0.124678
0.126187
0.127789
0.129487
0.131289
0.133188
0.13519
0.1373
0.139514
0.14184
0.144274
0.146822
0.149484
0.15226
0.155156
0.15817
0.161308
0.164576
0.16797
0.171504
0.17518
0.179011
0.183012
0.187204
0.191622
0.196303
0.201294
0.206636
0.212349
0.218437
0.224886
0.231705
0.238946
0.246744
0.255286
0.264754
0.275279
0.286814
0.299489
0.312899
0.326134
0.338374
0.350952
0.365495
0.380928
0.407176
0.421729
0.181839
0
5.87857
0.699837
0.131807
0.121374
0.123957
0.126653
0.126833
0.125999
0.125425
0.125089
0.124839
0.124711
0.124696
0.124793
0.125006
0.12532
0.125738
0.126262
0.126887
0.127606
0.128415
0.129327
0.130323
0.131406
0.132582
0.133845
0.135198
0.136637
0.138172
0.139801
0.141518
0.143339
0.145261
0.147282
0.149413
0.151653
0.154007
0.156481
0.159076
0.161795
0.164647
0.167633
0.170758
0.174024
0.177442
0.181013
0.184747
0.18866
0.192768
0.197105
0.201706
0.206613
0.211863
0.217474
0.223448
0.229773
0.23646
0.243566
0.251225
0.259618
0.26891
0.279217
0.290471
0.302821
0.315879
0.328704
0.340471
0.352563
0.366563
0
0.677532
8.99212
0.157487
0.132595
0.138416
0.140637
0.140736
0.139502
0.138423
0.137695
0.137098
0.136618
0.136282
0.136071
0.135974
0.136007
0.13616
0.136422
0.136798
0.137281
0.137867
0.138548
0.139333
0.140205
0.141164
0.142219
0.143359
0.144584
0.145892
0.147296
0.148788
0.150361
0.152039
0.15381
0.155678
0.157653
0.159733
0.161926
0.164237
0.166669
0.169229
0.171921
0.174753
0.17773
0.180853
0.184135
0.187576
0.191187
0.19498
0.198973
0.203196
0.207682
0.212472
0.217595
0.223072
0.2289
0.23507
0.241598
0.248542
0.256034
0.264246
0.273326
0.283374
0.294301
0.306282
0
1.45686
0.184442
0.146366
0.152945
0.15671
0.155733
0.154207
0.152636
0.1515
0.150559
0.149742
0.14908
0.14856
0.148185
0.147933
0.147816
0.147834
0.147964
0.148209
0.148563
0.149024
0.149584
0.150241
0.150986
0.15182
0.152747
0.153753
0.154843
0.156016
0.157279
0.158625
0.160055
0.161581
0.163197
0.16491
0.166725
0.168643
0.170674
0.172821
0.175087
0.177484
0.180013
0.182685
0.185504
0.188473
0.191603
0.194896
0.198362
0.202012
0.205862
0.209943
0.214282
0.218921
0.223886
0.229195
0.234846
0.240831
0.24717
0.253924
0.261219
1.66338
0.23061
0.161491
0.168889
0.173469
0.171892
0.169583
0.167694
0.166125
0.16485
0.163712
0.162728
0.161915
0.161248
0.160748
0.160379
0.16015
0.160066
0.160094
0.160245
0.160506
0.160877
0.161342
0.161904
0.162553
0.163285
0.164105
0.164999
0.165973
0.167024
0.168156
0.169366
0.170656
0.172035
0.173498
0.175053
0.176707
0.178457
0.18032
0.182295
0.184387
0.18661
0.188967
0.191465
0.194112
0.196913
0.199876
0.203003
0.206302
0.209787
0.213469
0.217378
0.221542
0.225997
0.231872
0.188513
0.183265
0.191454
0.188493
0.185666
0.183365
0.181493
0.179867
0.178446
0.17715
0.176049
0.175128
0.174357
0.173756
0.173295
0.172984
0.172814
0.172765
0.172839
0.173025
0.173315
0.173708
0.174191
0.174755
0.175409
0.176139
0.176941
0.177816
0.178765
0.179788
0.180878
0.182047
0.183295
0.184617
0.186029
0.187528
0.189121
0.190821
0.192624
0.194545
0.196592
)
;

boundaryField
{
    inlet
    {
        type            calculated;
        value           nonuniform List<scalar> 
13
(
0.0988009
0.0981465
0.0975817
0.0970812
0.0966035
0.096117
0.0954966
0.0953179
0.0957685
0.0960394
0.0963976
0.0967101
0.0969676
)
;
    }
    outlet
    {
        type            calculated;
        value           nonuniform List<scalar> 0();
    }
    walls
    {
        type            calculated;
        value           uniform 0;
    }
    frontAndBack
    {
        type            empty;
    }
    procBoundary2to1
    {
        type            processor;
        value           nonuniform List<scalar> 
84
(
0.0559807
0.217004
0.252159
0.239724
0.0728685
0.631859
0.0441928
0.0456242
0.0438781
0.0469448
0.046962
0.0483371
0.0492044
0.0504372
0.0516819
0.0531057
0.0546658
0.0564085
0.0583498
0.0605187
0.0629491
0.0656802
0.0687555
0.0722248
0.0761464
0.0805832
0.0855981
0.0912443
0.0975484
0.104465
0.111824
0.119261
0.126172
0.131828
0.135651
0.137529
0.137837
0.137186
0.137186
0.121579
0.122891
0.124108
0.125368
0.126774
0.128399
0.13029
0.132481
0.13499
0.137829
0.141011
0.144543
0.148441
0.152728
0.152728
0.155179
0.160531
0.166364
0.172712
0.179583
0.186953
0.194789
0.203101
0.211983
0.211983
0.220509
0.231235
0.243204
0.256513
0.271174
0.286855
0.302116
0.316274
0.330843
0.347002
0.347002
0.363341
0.384633
0.417816
0.478137
0.540349
0.51741
0.32324
0.231336
0.167125
)
;
    }
    procBoundary2to3
    {
        type            processor;
        value           nonuniform List<scalar> 
88
(
0.257288
0.183447
0.544511
0.257288
0.268982
0.518643
0.544511
0.409008
0.381365
0.406463
0.518643
0.419645
0.318937
0.331295
0.342548
0.354122
0.381365
0.367527
0.269215
0.278044
0.287787
0.298342
0.318937
0.309906
0.230772
0.23588
0.241321
0.247092
0.253212
0.259744
0.269215
0.266808
0.198772
0.201089
0.203557
0.206179
0.208959
0.211904
0.21502
0.218316
0.221806
0.225515
0.229473
0.230772
0.233715
0.199704
0.209986
0.206484
0.206469
0.202025
0.19972
0.197511
0.195647
0.193933
0.192396
0.191032
0.189866
0.188881
0.188036
0.187371
0.186857
0.186488
0.186253
0.186144
0.186156
0.186282
0.186508
0.186829
0.18724
0.187735
0.188308
0.18895
0.189668
0.190449
0.191299
0.192215
0.193196
0.194247
0.195366
0.196558
0.19783
0.19918
0.200623
0.202162
0.203799
0.20555
0.198772
0.20742
)
;
    }
    procBoundary2to6
    {
        type            processor;
        value           nonuniform List<scalar> 
13
(
0.162179
0.235877
0.29757
0.341893
0.373952
0.399109
0.420279
0.438577
0.507579
0.13508
0
5.68298e-10
0.000714714
)
;
    }
}


// ************************************************************************* //
