/*--------------------------------*- C++ -*----------------------------------*\
| =========                 |                                                 |
| \\      /  F ield         | OpenFOAM: The Open Source CFD Toolbox           |
|  \\    /   O peration     | Version:  2306                                  |
|   \\  /    A nd           | Website:  www.openfoam.com                      |
|    \\/     M anipulation  |                                                 |
\*---------------------------------------------------------------------------*/
FoamFile
{
    version     2.0;
    format      ascii;
    arch        "LSB;label=32;scalar=64";
    class       volScalarField;
    location    "425";
    object      turbulenceProperties:I;
}
// * * * * * * * * * * * * * * * * * * * * * * * * * * * * * * * * * * * * * //

dimensions      [0 0 0 0 0 0 0];

internalField   nonuniform List<scalar> 
1340
(
0.244662
0.246102
0.249517
0.255937
0.0396027
0.0424671
0.0476505
0.0611857
0.0179017
0.0214177
0.023968
0.0337473
0.003395
0.0062667
0.0101598
0.0207136
0.00106571
0.00128529
0.00178331
0.00901176
0.000410577
0.00053328
0.000856143
0.00303052
5.58558e-05
3.79106e-05
0
0.0014037
0.000143866
0.000126713
4.19808e-05
0
0.000157802
0.00016608
0.000175734
3.74555e-05
0.00014524
0.000146046
0.00019289
0.00013807
0.000146274
0.000147683
0.000178837
0.000207525
0.000141069
0.000143456
0.00016519
0.000215695
0.000138546
0.000141036
0.000158506
0.000205932
0.00013482
0.000136813
0.00015254
0.000194803
0.000131378
0.000132894
0.000146743
0.000184573
0.000127547
0.000128592
0.00014073
0.000174863
0.000123591
0.000124172
0.000134717
0.000165427
0.000119405
0.000119523
0.000128687
0.000156234
0.000115028
0.000114684
0.000122638
0.000147287
0.00011045
0.000109641
0.000116585
0.000138638
0.000105676
0.0001044
0.000110508
0.000130273
0.000100707
9.89688e-05
0.000104417
0.000122208
9.55493e-05
9.33421e-05
9.831e-05
0.000114462
9.02117e-05
8.7527e-05
9.21792e-05
0.000107023
8.46993e-05
8.1515e-05
8.6041e-05
9.99146e-05
7.90245e-05
7.52988e-05
7.98985e-05
9.31366e-05
7.3203e-05
6.88623e-05
7.37707e-05
8.67099e-05
6.72595e-05
6.21712e-05
6.76824e-05
8.06506e-05
6.12359e-05
5.51698e-05
6.16872e-05
7.4991e-05
5.52172e-05
4.77575e-05
5.58778e-05
6.97777e-05
4.93748e-05
3.9724e-05
5.04279e-05
6.50662e-05
4.40704e-05
3.06256e-05
4.56385e-05
6.09272e-05
3.99787e-05
1.90663e-05
4.19734e-05
5.74293e-05
3.79429e-05
1.31678e-05
3.991e-05
5.46214e-05
3.81876e-05
2.48458e-05
3.95384e-05
5.25067e-05
3.99205e-05
3.17834e-05
4.03989e-05
5.10306e-05
4.21683e-05
3.66888e-05
4.18476e-05
5.00832e-05
4.43554e-05
4.03389e-05
4.3413e-05
4.95242e-05
5.20895e-05
4.62405e-05
4.30887e-05
4.48435e-05
4.92136e-05
5.24618e-05
4.77472e-05
4.51421e-05
4.60288e-05
4.90308e-05
5.27276e-05
4.88689e-05
4.66336e-05
4.69336e-05
4.88852e-05
5.28333e-05
4.96274e-05
4.76579e-05
4.75559e-05
4.87128e-05
5.27542e-05
5.00548e-05
4.82889e-05
4.7912e-05
4.84741e-05
5.24851e-05
5.01858e-05
4.85845e-05
4.80233e-05
4.81459e-05
5.2033e-05
5.00558e-05
4.85939e-05
4.79133e-05
4.77159e-05
5.14113e-05
4.96982e-05
4.83598e-05
4.76085e-05
4.71831e-05
5.06374e-05
4.91445e-05
4.79174e-05
4.71316e-05
4.65495e-05
4.97309e-05
4.84241e-05
4.72994e-05
4.65055e-05
4.58209e-05
4.87101e-05
4.75626e-05
4.65338e-05
4.57515e-05
4.50066e-05
4.75928e-05
4.65827e-05
4.56432e-05
4.48869e-05
4.41135e-05
4.63937e-05
4.55037e-05
4.46482e-05
4.39275e-05
4.31501e-05
4.51245e-05
4.43397e-05
4.35633e-05
4.28854e-05
4.21223e-05
4.44843e-05
4.37945e-05
4.31025e-05
4.24005e-05
4.17697e-05
4.10344e-05
4.30099e-05
4.24107e-05
4.18012e-05
4.11689e-05
4.05882e-05
3.98904e-05
4.1502e-05
4.09815e-05
4.04455e-05
3.98785e-05
3.93491e-05
3.86947e-05
3.99705e-05
3.95187e-05
3.90486e-05
3.85422e-05
3.80639e-05
3.74561e-05
3.8431e-05
3.80394e-05
3.76279e-05
3.71776e-05
3.67492e-05
3.61887e-05
3.6903e-05
3.65639e-05
3.62045e-05
3.58052e-05
3.54242e-05
3.49099e-05
3.54033e-05
3.51097e-05
3.47962e-05
3.44431e-05
3.41062e-05
3.36368e-05
3.39377e-05
3.36835e-05
3.34103e-05
3.30989e-05
3.28025e-05
3.23769e-05
3.24976e-05
3.22771e-05
3.20395e-05
3.1766e-05
3.15071e-05
3.11248e-05
3.12393e-05
3.10623e-05
3.0871e-05
3.06648e-05
3.04261e-05
3.02026e-05
2.98632e-05
2.97683e-05
2.96142e-05
2.94484e-05
2.92705e-05
2.90643e-05
2.88747e-05
2.85771e-05
2.82821e-05
2.81473e-05
2.8004e-05
2.78517e-05
2.76754e-05
2.75185e-05
2.72602e-05
2.67949e-05
2.66771e-05
2.65537e-05
2.64243e-05
2.62751e-05
2.61497e-05
2.59269e-05
2.53278e-05
2.52246e-05
2.51184e-05
2.50094e-05
2.48841e-05
2.47867e-05
2.45938e-05
2.39267e-05
2.38351e-05
2.37434e-05
2.36527e-05
2.35502e-05
2.34794e-05
2.33183e-05
2.27024e-05
2.26164e-05
2.25325e-05
2.24527e-05
2.23646e-05
2.23127e-05
2.21805e-05
2.16702e-05
2.15849e-05
2.15034e-05
2.14272e-05
2.13445e-05
2.13012e-05
2.11843e-05
2.06988e-05
2.06118e-05
2.05293e-05
2.04534e-05
2.03729e-05
2.03339e-05
2.02285e-05
1.97186e-05
1.96301e-05
1.95464e-05
1.9471e-05
1.93924e-05
1.93563e-05
1.92605e-05
1.87992e-05
1.86924e-05
1.85944e-05
1.85049e-05
1.84278e-05
1.83541e-05
1.83319e-05
1.82847e-05
1.77177e-05
1.75824e-05
1.7454e-05
1.73343e-05
1.72272e-05
1.71251e-05
1.70555e-05
1.69434e-05
1.62588e-05
1.6103e-05
1.59669e-05
1.58526e-05
1.57678e-05
1.57148e-05
1.57804e-05
1.59357e-05
1.39905e-05
1.36379e-05
1.33075e-05
1.30091e-05
1.27473e-05
1.25231e-05
1.23384e-05
1.20583e-05
1.25138e-05
1.24004e-05
1.23682e-05
1.24255e-05
1.261e-05
1.29352e-05
1.36794e-05
1.47067e-05
1.32189e-05
1.31851e-05
1.31427e-05
1.30824e-05
1.30348e-05
1.32254e-05
1.43481e-05
1.54661e-05
2.17156e-05
2.21178e-05
2.24615e-05
2.27737e-05
2.31289e-05
2.36443e-05
2.48721e-05
2.58539e-05
2.96956e-05
2.97415e-05
2.97742e-05
2.97959e-05
2.98093e-05
2.98542e-05
3.01386e-05
2.93962e-05
4.10399e-05
4.1041e-05
4.10227e-05
4.09936e-05
4.09421e-05
4.09183e-05
4.07697e-05
3.92992e-05
0.141768
0.0645574
0.031851
0.01732
0.00715737
0.00179394
0.000797834
0
4.19537e-05
0.000172284
0.000225848
0.000225047
0.000213504
0.000202184
0.000191858
0.000182032
0.000172477
0.000163199
0.000154233
0.000145573
0.000137241
0.000129244
0.000121591
0.000114293
0.000107353
0.000100785
9.45965e-05
8.8798e-05
8.34024e-05
7.84241e-05
7.38785e-05
6.978e-05
6.61368e-05
6.29531e-05
6.02203e-05
5.7914e-05
5.59959e-05
5.44136e-05
5.31062e-05
5.2011e-05
5.10682e-05
5.02243e-05
4.94367e-05
4.86704e-05
4.78998e-05
4.7108e-05
4.62835e-05
4.54192e-05
4.45134e-05
4.35639e-05
4.25715e-05
4.15359e-05
4.04565e-05
3.93333e-05
3.81675e-05
3.69654e-05
3.57383e-05
3.45019e-05
3.32708e-05
3.20514e-05
3.0838e-05
2.96134e-05
2.83639e-05
2.70836e-05
2.57871e-05
2.44875e-05
2.32466e-05
2.21363e-05
2.1162e-05
2.02236e-05
1.92663e-05
1.83219e-05
1.69499e-05
1.61117e-05
1.19435e-05
1.5357e-05
1.47503e-05
2.56224e-05
2.762e-05
3.70354e-05
0.0972034
0.0508646
0.0214535
0.00838365
0.00261311
0.00115822
0
1.26741e-05
5.52124e-05
0.000152364
0.000168306
0.00016563
0.000160289
0.000155395
0.000150774
0.000146104
0.000141312
0.000136391
0.000131403
0.000126353
0.000121278
0.0001162
0.000111144
0.000106161
0.000101269
9.64961e-05
9.18783e-05
8.74441e-05
8.32143e-05
7.92146e-05
7.54642e-05
7.19799e-05
6.87725e-05
6.58479e-05
6.32088e-05
6.08445e-05
5.87436e-05
5.68843e-05
5.52391e-05
5.37785e-05
5.24701e-05
5.12805e-05
5.01815e-05
4.91447e-05
4.81476e-05
4.71719e-05
4.62027e-05
4.52294e-05
4.42444e-05
4.32408e-05
4.22151e-05
4.11627e-05
4.00794e-05
3.89623e-05
3.7811e-05
3.66296e-05
3.54277e-05
3.42198e-05
3.30179e-05
3.18269e-05
3.06398e-05
2.94397e-05
2.82137e-05
2.69573e-05
2.56857e-05
2.44103e-05
2.31902e-05
2.20924e-05
2.11308e-05
2.02071e-05
1.92586e-05
1.83249e-05
1.69519e-05
1.61558e-05
1.18865e-05
1.57267e-05
1.38011e-05
2.56648e-05
2.74967e-05
3.74373e-05
0.0714772
0.0386025
0.0138758
0.00350131
0.000634843
0.000287438
0
2.07914e-05
8.54851e-05
0.000128794
0.000127742
0.000124339
0.000120819
0.000117837
0.000115037
0.000112254
0.000109494
0.000106737
0.000103971
0.000101237
9.85028e-05
9.57756e-05
9.30386e-05
9.03152e-05
8.75981e-05
8.48801e-05
8.21765e-05
7.95001e-05
7.68547e-05
7.42587e-05
7.17264e-05
6.92734e-05
6.69159e-05
6.46676e-05
6.25409e-05
6.05419e-05
5.86765e-05
5.69433e-05
5.53376e-05
5.38501e-05
5.247e-05
5.11819e-05
4.99718e-05
4.88233e-05
4.77219e-05
4.66552e-05
4.56104e-05
4.45789e-05
4.3552e-05
4.25226e-05
4.1485e-05
4.04328e-05
3.93604e-05
3.82628e-05
3.71384e-05
3.59902e-05
3.48262e-05
3.36593e-05
3.24996e-05
3.135e-05
3.02021e-05
2.90395e-05
2.78495e-05
2.66291e-05
2.53942e-05
2.41547e-05
2.29662e-05
2.1893e-05
2.09572e-05
2.00634e-05
1.9138e-05
1.8227e-05
1.6877e-05
1.61046e-05
1.19618e-05
1.58771e-05
1.33348e-05
2.55527e-05
2.72237e-05
3.74595e-05
0.0531343
0.0266846
0.00708671
0.000693545
0.000328454
0
1.01159e-05
4.22048e-05
9.60049e-05
0.000106593
0.000102764
0.000100793
9.88149e-05
9.71087e-05
9.53611e-05
9.35541e-05
9.17378e-05
8.99019e-05
8.80543e-05
8.62303e-05
8.44046e-05
8.26035e-05
8.08151e-05
7.90387e-05
7.7281e-05
7.55343e-05
7.3794e-05
7.20633e-05
7.03387e-05
6.86224e-05
6.69161e-05
6.52226e-05
6.35504e-05
6.19032e-05
6.02891e-05
5.87165e-05
5.71908e-05
5.57175e-05
5.43008e-05
5.29407e-05
5.1638e-05
5.03899e-05
4.91903e-05
4.80349e-05
4.69168e-05
4.58294e-05
4.47652e-05
4.37188e-05
4.26837e-05
4.16538e-05
4.06238e-05
3.95867e-05
3.85365e-05
3.74678e-05
3.63778e-05
3.52691e-05
3.41487e-05
3.30276e-05
3.19145e-05
3.08106e-05
2.97064e-05
2.85857e-05
2.74368e-05
2.62572e-05
2.50634e-05
2.38646e-05
2.27136e-05
2.16735e-05
2.07701e-05
1.991e-05
1.90125e-05
1.81303e-05
1.68129e-05
1.60677e-05
1.21369e-05
1.59843e-05
1.31197e-05
2.54178e-05
2.68762e-05
3.73019e-05
0.0361995
0.0147775
0.00177486
0.000573461
0
4.68807e-06
2.03639e-05
6.96257e-05
9.15362e-05
9.02844e-05
8.78288e-05
8.70782e-05
8.62372e-05
8.54953e-05
8.4646e-05
8.37275e-05
8.27396e-05
8.16656e-05
8.05285e-05
7.93258e-05
7.8054e-05
7.67292e-05
7.53672e-05
7.39576e-05
7.25203e-05
7.10729e-05
6.96067e-05
6.81388e-05
6.66751e-05
6.52184e-05
6.37736e-05
6.23419e-05
6.09304e-05
5.95365e-05
5.81634e-05
5.68166e-05
5.54935e-05
5.4199e-05
5.29336e-05
5.16977e-05
5.04945e-05
4.9322e-05
4.8178e-05
4.70633e-05
4.59744e-05
4.49083e-05
4.38615e-05
4.28311e-05
4.18129e-05
4.08022e-05
3.97947e-05
3.87835e-05
3.77634e-05
3.6729e-05
3.56769e-05
3.46096e-05
3.35334e-05
3.2458e-05
3.13905e-05
3.03308e-05
2.92689e-05
2.81888e-05
2.70801e-05
2.59407e-05
2.47881e-05
2.363e-05
2.25165e-05
2.15096e-05
2.06377e-05
1.98084e-05
1.8937e-05
1.8082e-05
1.6798e-05
1.60855e-05
1.23728e-05
1.61547e-05
1.29612e-05
2.54173e-05
2.6691e-05
3.7266e-05
0.0205157
0.00535043
0.00104325
0
0
1.32104e-05
5.42872e-05
7.94668e-05
8.24813e-05
7.94091e-05
7.84292e-05
7.80824e-05
7.75974e-05
7.71129e-05
7.65378e-05
7.59214e-05
7.5236e-05
7.44879e-05
7.36973e-05
7.28502e-05
7.19535e-05
7.10071e-05
7.0023e-05
6.89901e-05
6.79193e-05
6.6819e-05
6.56789e-05
6.45157e-05
6.33305e-05
6.21272e-05
6.09135e-05
5.96917e-05
5.84719e-05
5.72545e-05
5.60445e-05
5.48486e-05
5.3665e-05
5.24998e-05
5.13518e-05
5.02224e-05
4.91147e-05
4.80253e-05
4.69545e-05
4.59037e-05
4.48695e-05
4.38518e-05
4.28482e-05
4.18573e-05
4.08766e-05
3.99025e-05
3.89317e-05
3.79581e-05
3.69772e-05
3.59839e-05
3.49751e-05
3.39532e-05
3.29242e-05
3.18965e-05
3.08759e-05
2.98613e-05
2.88422e-05
2.78036e-05
2.67358e-05
2.56382e-05
2.45283e-05
2.34122e-05
2.23369e-05
2.13635e-05
2.0524e-05
1.97252e-05
1.88806e-05
1.80532e-05
1.68048e-05
1.61301e-05
1.26357e-05
1.63593e-05
1.27713e-05
2.54674e-05
0.00769226
0.000342745
0.000225247
0
9.17687e-06
3.8165e-05
6.77672e-05
7.24839e-05
7.03076e-05
6.88542e-05
6.88358e-05
6.87655e-05
6.85994e-05
6.83978e-05
6.81217e-05
6.78074e-05
6.74254e-05
6.69829e-05
6.64957e-05
6.59535e-05
6.53643e-05
6.47265e-05
6.40406e-05
6.33154e-05
6.25556e-05
6.17559e-05
6.09203e-05
6.00605e-05
5.91702e-05
5.82555e-05
5.732e-05
5.63636e-05
5.5393e-05
5.44097e-05
5.34164e-05
5.24178e-05
5.14151e-05
5.0414e-05
4.94138e-05
4.84184e-05
4.74306e-05
4.64483e-05
4.54752e-05
4.45111e-05
4.35545e-05
4.26078e-05
4.16686e-05
4.0737e-05
3.98116e-05
3.88898e-05
3.79694e-05
3.70454e-05
3.61136e-05
3.51696e-05
3.42114e-05
3.32409e-05
3.2264e-05
3.12884e-05
3.03183e-05
2.93518e-05
2.83787e-05
2.73846e-05
2.63611e-05
2.53085e-05
2.42447e-05
2.31738e-05
2.21394e-05
2.12028e-05
2.03988e-05
1.96329e-05
1.88183e-05
1.80215e-05
1.68132e-05
1.61826e-05
1.2914e-05
1.65637e-05
0.000776904
0.000488978
0
6.26486e-06
2.68118e-05
5.84129e-05
6.39618e-05
6.22495e-05
6.07959e-05
6.06899e-05
6.09335e-05
6.09898e-05
6.09986e-05
6.09603e-05
6.08642e-05
6.07249e-05
6.05298e-05
6.02845e-05
5.99959e-05
5.96593e-05
5.92801e-05
5.88595e-05
5.83942e-05
5.78934e-05
5.73611e-05
5.67897e-05
5.6187e-05
5.55584e-05
5.48993e-05
5.42154e-05
5.35082e-05
5.27768e-05
5.20265e-05
5.12574e-05
5.04702e-05
4.96686e-05
4.88528e-05
4.80265e-05
4.71897e-05
4.63452e-05
4.54954e-05
4.46402e-05
4.37828e-05
4.29235e-05
4.2063e-05
4.1204e-05
4.03449e-05
3.94876e-05
3.8631e-05
3.77741e-05
3.69153e-05
3.60506e-05
3.51767e-05
3.42897e-05
3.33885e-05
3.24753e-05
3.15553e-05
3.06355e-05
2.97194e-05
2.88044e-05
2.78802e-05
2.69338e-05
2.59578e-05
2.49536e-05
2.39394e-05
2.29168e-05
2.19264e-05
2.10303e-05
2.0265e-05
1.95342e-05
1.87528e-05
1.79892e-05
1.68266e-05
1.62449e-05
0.000517611
0
3.54183e-06
1.48804e-05
5.22451e-05
5.72843e-05
5.58022e-05
5.44476e-05
5.43414e-05
5.47098e-05
5.49662e-05
5.51153e-05
5.5229e-05
5.52895e-05
5.53004e-05
5.52623e-05
5.51736e-05
5.50414e-05
5.4865e-05
5.46442e-05
5.43821e-05
5.40831e-05
5.37494e-05
5.33778e-05
5.29775e-05
5.2548e-05
5.20888e-05
5.1604e-05
5.10941e-05
5.05618e-05
5.00059e-05
4.94279e-05
4.88328e-05
4.8216e-05
4.75811e-05
4.69306e-05
4.62625e-05
4.55799e-05
4.48832e-05
4.41727e-05
4.34505e-05
4.27176e-05
4.19743e-05
4.12225e-05
4.04629e-05
3.96977e-05
3.89262e-05
3.81508e-05
3.73712e-05
3.6587e-05
3.57973e-05
3.49987e-05
3.41891e-05
3.33652e-05
3.25262e-05
3.16746e-05
3.08154e-05
2.99546e-05
2.90952e-05
2.8234e-05
2.73612e-05
2.6465e-05
2.55394e-05
2.45864e-05
2.36246e-05
2.26529e-05
2.17093e-05
2.08569e-05
2.0132e-05
1.94377e-05
1.86916e-05
0
5.1165e-07
2.36639e-06
4.35807e-05
5.25243e-05
4.98386e-05
4.8909e-05
4.88432e-05
4.92818e-05
4.9673e-05
4.99374e-05
5.01566e-05
5.03359e-05
5.04633e-05
5.05457e-05
5.05863e-05
5.05788e-05
5.05278e-05
5.04365e-05
5.03043e-05
5.0134e-05
4.99277e-05
4.96892e-05
4.94167e-05
4.91165e-05
4.879e-05
4.84352e-05
4.80573e-05
4.76569e-05
4.72361e-05
4.6792e-05
4.6329e-05
4.58498e-05
4.53485e-05
4.48309e-05
4.4297e-05
4.37452e-05
4.31783e-05
4.25954e-05
4.19973e-05
4.13851e-05
4.07588e-05
4.01196e-05
3.94678e-05
3.88042e-05
3.81308e-05
3.74471e-05
3.67552e-05
3.60553e-05
3.53472e-05
3.46304e-05
3.39024e-05
3.31614e-05
3.24044e-05
3.16316e-05
3.0845e-05
3.00495e-05
2.92504e-05
2.84498e-05
2.76445e-05
2.68253e-05
2.59817e-05
2.51091e-05
2.42101e-05
2.33033e-05
2.23848e-05
0
8.20735e-06
3.7259e-05
4.76559e-05
4.50249e-05
4.37844e-05
4.40435e-05
4.44835e-05
4.49483e-05
4.52875e-05
4.55713e-05
4.5822e-05
4.60282e-05
4.61924e-05
4.63125e-05
4.63953e-05
4.64366e-05
4.64357e-05
4.64002e-05
4.63288e-05
4.62244e-05
4.60874e-05
4.59213e-05
4.57269e-05
4.5508e-05
4.52648e-05
4.49968e-05
4.47091e-05
4.44008e-05
4.40734e-05
4.3726e-05
4.33608e-05
4.29794e-05
4.25788e-05
4.21622e-05
4.17291e-05
4.12789e-05
4.08133e-05
4.03308e-05
3.98324e-05
3.93188e-05
3.87894e-05
3.82451e-05
3.76859e-05
3.71126e-05
3.65268e-05
3.59278e-05
3.5318e-05
3.46973e-05
3.40658e-05
3.34235e-05
3.27679e-05
3.20976e-05
3.14103e-05
3.07061e-05
2.99869e-05
2.92573e-05
2.85218e-05
2.77819e-05
2.70344e-05
2.62709e-05
7.38047e-06
2.9954e-05
4.2947e-05
4.07318e-05
3.94678e-05
3.98274e-05
4.03765e-05
4.08367e-05
4.12247e-05
4.15439e-05
4.1834e-05
4.20886e-05
4.23022e-05
4.24798e-05
4.26149e-05
4.27162e-05
4.27813e-05
4.28079e-05
4.28046e-05
4.2769e-05
4.27046e-05
4.26113e-05
4.2494e-05
4.23522e-05
4.2189e-05
4.20057e-05
4.18017e-05
4.15812e-05
4.13433e-05
4.10891e-05
4.08182e-05
4.05324e-05
4.02317e-05
3.99144e-05
3.95831e-05
3.92363e-05
3.88737e-05
3.84966e-05
3.81027e-05
3.76932e-05
3.72685e-05
3.68271e-05
3.63696e-05
3.58965e-05
3.54076e-05
3.49042e-05
3.43862e-05
3.38553e-05
3.33118e-05
3.27557e-05
3.21874e-05
3.16043e-05
3.10055e-05
3.0389e-05
2.96239e-05
3.65886e-05
3.74698e-05
3.57015e-05
3.62587e-05
3.68231e-05
3.72887e-05
3.76747e-05
3.80156e-05
3.8319e-05
3.86007e-05
3.88436e-05
3.90497e-05
3.92247e-05
3.9363e-05
3.94704e-05
3.95446e-05
3.9587e-05
3.96019e-05
3.9589e-05
3.95508e-05
3.9489e-05
3.94042e-05
3.92999e-05
3.91779e-05
3.9037e-05
3.88805e-05
3.87095e-05
3.85241e-05
3.8325e-05
3.81122e-05
3.78877e-05
3.76495e-05
3.73982e-05
3.71353e-05
3.6858e-05
3.6568e-05
3.62641e-05
3.59451e-05
3.56122e-05
3.52639e-05
3.48997e-05
)
;

boundaryField
{
    inlet
    {
        type            calculated;
        value           nonuniform List<scalar> 
13
(
7.48355e-05
7.53301e-05
7.57606e-05
7.61454e-05
7.65178e-05
7.69052e-05
7.74202e-05
7.75912e-05
7.72293e-05
7.69933e-05
7.66858e-05
7.642e-05
7.62007e-05
)
;
    }
    outlet
    {
        type            calculated;
        value           nonuniform List<scalar> 0();
    }
    walls
    {
        type            calculated;
        value           uniform 0;
    }
    frontAndBack
    {
        type            empty;
    }
    procBoundary2to1
    {
        type            processor;
        value           nonuniform List<scalar> 
84
(
0.243552
0.0371134
0.0142957
0.00145491
0.00115186
2.29117e-05
0.000155059
0.000149922
0.000156052
0.000146067
0.000146253
0.000142328
0.000140054
0.00013686
0.000133791
0.000130427
0.000126922
0.000123212
0.000119316
0.000115235
0.00011097
0.000106529
0.000101925
9.71779e-05
9.23081e-05
8.73468e-05
8.23366e-05
7.73349e-05
7.24169e-05
6.76891e-05
6.32894e-05
5.9387e-05
5.6168e-05
5.37834e-05
5.22851e-05
5.15806e-05
5.14678e-05
5.17074e-05
5.17074e-05
5.84465e-05
5.77982e-05
5.71991e-05
5.65852e-05
5.59127e-05
5.51551e-05
5.42999e-05
5.33441e-05
5.22923e-05
5.11525e-05
4.99351e-05
4.8651e-05
4.73098e-05
4.59191e-05
4.59191e-05
4.51606e-05
4.35917e-05
4.20028e-05
4.04016e-05
3.88019e-05
3.72218e-05
3.56773e-05
3.41737e-05
3.27014e-05
3.27014e-05
3.14055e-05
2.99141e-05
2.8411e-05
2.69095e-05
2.54307e-05
2.40199e-05
2.27914e-05
2.17599e-05
2.07911e-05
1.98129e-05
1.98129e-05
1.89132e-05
1.78578e-05
1.64325e-05
1.4355e-05
1.27011e-05
1.3265e-05
2.12484e-05
2.96281e-05
4.10104e-05
)
;
    }
    procBoundary2to3
    {
        type            processor;
        value           nonuniform List<scalar> 
88
(
2.6594e-05
3.7282e-05
1.25945e-05
2.6594e-05
2.55141e-05
1.32106e-05
1.25945e-05
1.67605e-05
1.79629e-05
1.68513e-05
1.32106e-05
1.63214e-05
2.14904e-05
2.06842e-05
2.00013e-05
1.93443e-05
1.79629e-05
1.86357e-05
2.54823e-05
2.46652e-05
2.38228e-05
2.29735e-05
2.14904e-05
2.21104e-05
2.97545e-05
2.91041e-05
2.84415e-05
2.77708e-05
2.70928e-05
2.64046e-05
2.54823e-05
2.56986e-05
3.45196e-05
3.41238e-05
3.37118e-05
3.32841e-05
3.28419e-05
3.23853e-05
3.19152e-05
3.14319e-05
3.09354e-05
3.04239e-05
2.98958e-05
2.97545e-05
2.93496e-05
3.43864e-05
3.26158e-05
3.30596e-05
3.30561e-05
3.37966e-05
3.41899e-05
3.45727e-05
3.49023e-05
3.52111e-05
3.54933e-05
3.57479e-05
3.59688e-05
3.6158e-05
3.63224e-05
3.64535e-05
3.6556e-05
3.66311e-05
3.66801e-05
3.67048e-05
3.67058e-05
3.66845e-05
3.66437e-05
3.65847e-05
3.65085e-05
3.64162e-05
3.63098e-05
3.61907e-05
3.60583e-05
3.59149e-05
3.57599e-05
3.55941e-05
3.5418e-05
3.52309e-05
3.50335e-05
3.48255e-05
3.46058e-05
3.43754e-05
3.41322e-05
3.38763e-05
3.36079e-05
3.3325e-05
3.45196e-05
3.30277e-05
)
;
    }
    procBoundary2to6
    {
        type            processor;
        value           nonuniform List<scalar> 
13
(
0.250204
0.146522
0.103053
0.0780092
0.0579436
0.0395242
0.0222284
0.00800326
0.000739933
0.000366913
0
4.79491e-10
5.16722e-08
)
;
    }
}


// ************************************************************************* //
