/*--------------------------------*- C++ -*----------------------------------*\
| =========                 |                                                 |
| \\      /  F ield         | OpenFOAM: The Open Source CFD Toolbox           |
|  \\    /   O peration     | Version:  2306                                  |
|   \\  /    A nd           | Website:  www.openfoam.com                      |
|    \\/     M anipulation  |                                                 |
\*---------------------------------------------------------------------------*/
FoamFile
{
    version     2.0;
    format      ascii;
    arch        "LSB;label=32;scalar=64";
    class       volScalarField;
    location    "225";
    object      div(phi);
}
// * * * * * * * * * * * * * * * * * * * * * * * * * * * * * * * * * * * * * //

dimensions      [0 0 -1 0 0 0 0];

internalField   nonuniform List<scalar> 
1340
(
0.00025873
-0.000128881
7.7775e-05
-5.26365e-05
4.30346e-05
6.53747e-05
2.88211e-05
0.000122411
6.50033e-05
6.14262e-05
4.48025e-05
3.35021e-05
1.98822e-05
1.18341e-05
2.76977e-06
1.82511e-08
-4.316e-06
-1.14891e-06
-1.09187e-06
5.04919e-06
1.0743e-05
6.78757e-06
-1.48452e-06
-2.07944e-05
-2.67274e-05
-2.77527e-05
1.39951e-05
9.79239e-06
1.27133e-05
2.33358e-05
0.000135454
-9.6286e-05
5.90621e-06
-1.68689e-05
-1.45176e-05
-0.000239059
0.000394731
-1.39916e-06
0.000151824
6.42913e-05
-0.000136289
-9.41834e-05
0.000105556
-2.25334e-05
5.399e-05
-1.68702e-05
4.91715e-05
4.79142e-05
0.000125543
3.09324e-05
6.71139e-05
4.75839e-05
3.65703e-05
3.08893e-05
2.69475e-05
2.42186e-05
2.17407e-05
1.88047e-05
1.46877e-05
1.00504e-05
3.9638e-06
1.25595e-06
5.37059e-07
4.22891e-06
1.14826e-05
8.72129e-06
5.52126e-06
2.00746e-05
4.26684e-05
5.4878e-05
4.17744e-05
3.44323e-05
8.91979e-05
-6.17956e-05
-1.37815e-05
-3.5108e-05
-3.17163e-05
4.55272e-05
0.000133324
1.50178e-05
7.2769e-05
-5.04202e-05
-3.40328e-05
-0.000159378
9.45162e-05
-5.44707e-05
5.35186e-05
6.93193e-05
7.53581e-05
3.79336e-05
9.6642e-05
3.64208e-05
2.91477e-05
2.37838e-05
1.68817e-05
1.35684e-05
7.16848e-06
4.24704e-06
-3.38607e-07
-1.45629e-06
-2.95003e-06
-2.58661e-06
-1.18974e-06
2.07106e-07
4.78389e-07
-4.72121e-06
-7.69206e-06
-1.48766e-05
-1.83236e-05
-2.29372e-05
-1.47181e-05
-1.41733e-05
3.74492e-07
5.68916e-05
-4.35926e-05
4.48992e-06
1.32148e-07
-1.80504e-07
0.000200597
-8.63848e-05
8.43172e-05
-6.40079e-05
-4.73743e-06
-2.67316e-05
0.000130054
-3.91041e-05
3.80237e-05
5.0906e-05
1.28445e-05
8.78332e-05
8.30304e-05
-2.5333e-06
2.83733e-05
1.72599e-05
1.41016e-05
1.58209e-05
1.62321e-05
1.78813e-05
1.81545e-05
1.7944e-05
1.6393e-05
1.32711e-05
9.4936e-06
7.34119e-06
8.48122e-06
1.43928e-05
2.36319e-05
2.42525e-05
1.96084e-05
1.93359e-05
2.54478e-05
3.62529e-05
3.19613e-05
3.1228e-05
5.75103e-05
-3.25902e-05
-8.0365e-06
-1.9508e-05
-2.16412e-05
-5.08517e-05
4.22085e-05
-5.97178e-05
-1.63053e-05
-2.90018e-05
6.9112e-05
3.35414e-05
2.40776e-05
2.59515e-06
0.00010796
2.00107e-05
-5.65684e-07
4.99753e-05
3.05341e-06
5.78476e-06
6.53698e-06
8.47314e-06
7.76688e-06
7.35904e-06
4.16491e-06
2.49023e-06
-4.39891e-07
-1.4992e-06
-2.54768e-06
-2.24871e-06
-2.56678e-07
-2.40328e-07
-2.58299e-06
-6.39449e-06
-1.17844e-05
-2.5071e-05
-2.51393e-05
-3.05846e-05
-1.9639e-05
-7.93666e-06
3.13553e-05
-2.74022e-05
2.21663e-06
1.54593e-06
2.66522e-06
-2.10342e-05
-1.98888e-05
-3.80989e-05
-2.81608e-05
1.40357e-05
2.12298e-05
1.54421e-05
4.64221e-05
8.27417e-05
-3.07567e-06
5.88116e-05
4.18184e-05
-2.36303e-05
6.58431e-06
1.98795e-06
6.02853e-06
8.08031e-06
1.25805e-05
1.34646e-05
1.52085e-05
1.51052e-05
1.50966e-05
1.35669e-05
1.19846e-05
1.17001e-05
1.41108e-05
2.0502e-05
2.7482e-05
3.07381e-05
2.46966e-05
1.96098e-05
1.52206e-05
2.23047e-05
2.13067e-05
2.6489e-05
4.24133e-05
-1.71472e-05
-4.56336e-06
-1.38944e-05
-1.87186e-05
1.30757e-05
-3.67266e-05
-5.08232e-05
9.35897e-06
-1.61593e-05
6.43608e-05
3.55345e-05
3.10113e-05
8.40523e-05
4.45917e-06
-1.33498e-05
2.59955e-05
-4.30509e-06
1.65255e-06
4.42742e-06
7.60463e-06
8.86377e-06
8.22262e-06
6.65564e-06
3.83762e-06
1.82702e-06
-2.20839e-07
-1.0238e-06
-8.35874e-07
5.78326e-07
1.21794e-06
-4.80152e-07
-3.27924e-06
-8.70874e-06
-2.05132e-05
-2.87969e-05
-3.08606e-05
-3.16559e-05
-1.26241e-05
1.35541e-05
-1.72861e-05
4.36054e-07
9.30367e-07
4.84847e-06
-6.03201e-06
-5.35914e-05
-3.9437e-06
-3.23917e-05
5.40841e-05
1.64763e-05
5.98575e-05
3.85761e-05
2.6984e-06
2.23808e-05
1.83659e-05
-2.02258e-05
3.37753e-06
3.87616e-06
6.47345e-06
1.11391e-05
1.1683e-05
1.43883e-05
1.36401e-05
1.41247e-05
1.34088e-05
1.33139e-05
1.27332e-05
1.36006e-05
1.66048e-05
2.14149e-05
2.76315e-05
2.95542e-05
2.72311e-05
1.85035e-05
1.16737e-05
9.60873e-06
9.93337e-06
1.5653e-05
2.84022e-05
-6.87537e-06
-2.22043e-06
-1.0063e-05
-1.57188e-05
-2.72588e-05
-6.7976e-06
-3.19998e-05
4.9856e-05
2.06512e-05
5.51459e-05
-1.214e-05
4.90341e-05
-9.4145e-07
-1.90933e-05
-9.91933e-06
1.91548e-05
5.89796e-07
4.79815e-06
9.05906e-06
9.75705e-06
1.168e-05
1.06013e-05
8.86311e-06
6.39006e-06
3.95342e-06
1.97477e-06
9.25915e-07
8.70707e-07
1.90576e-06
2.46635e-06
1.28478e-06
8.93831e-09
-5.55662e-06
-1.32633e-05
-2.43621e-05
-3.03044e-05
-3.30897e-05
-1.9681e-05
9.03792e-07
-8.83345e-06
-2.0295e-06
1.18773e-06
5.94621e-06
1.49639e-05
-1.75271e-05
3.48176e-05
2.50251e-05
3.25153e-05
2.06946e-07
-1.57588e-05
1.06815e-05
2.11191e-06
4.50954e-06
1.03887e-05
1.38889e-05
1.32845e-05
1.44208e-05
1.31383e-05
1.29267e-05
1.26126e-05
1.28382e-05
1.39847e-05
1.64667e-05
2.05571e-05
2.47889e-05
2.72961e-05
2.5972e-05
1.9312e-05
1.15584e-05
3.9063e-06
2.8267e-06
4.7547e-06
1.86986e-05
-3.64e-06
-2.44322e-06
-7.69389e-06
-1.24807e-05
2.52541e-05
3.97675e-05
-1.76814e-05
7.60697e-06
1.40155e-05
1.01942e-05
1.06749e-05
1.16755e-05
1.00785e-05
8.33889e-06
5.78881e-06
4.0689e-06
2.54559e-06
2.33857e-06
2.8502e-06
2.79552e-06
3.20559e-06
4.45179e-07
-4.60412e-07
-1.03773e-05
-1.40389e-05
-2.81361e-05
-2.81238e-05
-2.62472e-05
-1.85981e-06
-1.07352e-05
-1.91451e-06
4.8013e-08
6.43654e-06
5.70155e-05
-1.48059e-06
4.98256e-07
1.40078e-05
1.163e-05
1.32078e-05
1.24887e-05
1.24254e-05
1.15592e-05
1.13416e-05
1.20203e-05
1.30868e-05
1.50529e-05
1.82166e-05
2.11383e-05
2.36732e-05
2.30178e-05
1.92608e-05
1.25159e-05
4.17312e-06
-7.55082e-08
-3.78373e-07
1.12578e-05
-3.32372e-06
-5.15929e-06
-7.34429e-06
-1.01443e-05
3.34274e-05
1.84578e-05
7.00029e-06
9.49254e-06
9.37597e-06
9.86573e-06
7.95295e-06
6.39256e-06
4.53389e-06
3.5513e-06
2.97395e-06
2.93894e-06
3.45619e-06
2.55583e-06
2.74875e-06
-7.92252e-07
-3.58733e-06
-1.10503e-05
-1.69472e-05
-2.52117e-05
-2.20269e-05
-6.14147e-06
-8.16932e-06
-7.03797e-06
8.51352e-07
5.61953e-06
6.85314e-06
9.30766e-06
9.87624e-06
9.40049e-06
9.99906e-06
9.47519e-06
8.99136e-06
9.18293e-06
9.98653e-06
1.12289e-05
1.30058e-05
1.4889e-05
1.76928e-05
1.87901e-05
1.99553e-05
1.69606e-05
1.39029e-05
5.53367e-06
2.30899e-06
-1.74533e-06
7.71931e-06
-4.54845e-06
-7.09498e-06
-9.10498e-06
-8.876e-06
2.74364e-05
-2.98136e-06
5.41282e-06
7.34407e-06
6.48187e-06
5.94745e-06
4.63722e-06
4.00423e-06
3.32797e-06
2.97834e-06
3.03845e-06
2.96629e-06
3.11374e-06
2.14619e-06
1.38786e-06
-2.34097e-06
-4.54269e-06
-1.17299e-05
-1.47667e-05
-1.8132e-05
-5.09711e-06
-9.08524e-06
-7.3236e-06
-2.12198e-06
5.17457e-06
2.26957e-05
-6.48851e-07
5.39384e-06
5.45075e-06
5.38679e-06
6.0455e-06
6.39366e-06
7.69557e-06
9.23495e-06
1.03904e-05
1.22914e-05
1.34283e-05
1.5365e-05
1.522e-05
1.54767e-05
1.25104e-05
8.56552e-06
4.22346e-06
1.5721e-06
4.86986e-06
-3.61131e-06
-8.55833e-06
-1.01422e-05
-8.92927e-06
1.02117e-05
3.46619e-06
3.18487e-06
2.85654e-06
2.97447e-06
3.10683e-06
3.30626e-06
3.11167e-06
3.09993e-06
2.97557e-06
2.99573e-06
2.48904e-06
1.93517e-06
-1.87991e-07
-1.38983e-06
-5.83253e-06
-7.43634e-06
-1.13338e-05
-2.70417e-06
-8.36408e-06
-6.9759e-06
-3.85284e-06
4.59562e-06
3.48756e-06
1.48704e-07
2.19751e-06
2.82424e-06
3.52069e-06
5.11996e-06
5.99833e-06
7.50112e-06
8.6041e-06
9.42655e-06
1.06965e-05
1.13434e-05
1.22041e-05
1.23195e-05
1.157e-05
9.1996e-06
6.39317e-06
4.35799e-06
4.10589e-06
-2.26667e-06
-8.03118e-06
-9.95501e-06
-9.47833e-06
2.74838e-06
1.46067e-06
1.57135e-06
2.65583e-06
3.21386e-06
3.64098e-06
3.60891e-06
3.21891e-06
3.28455e-06
2.74511e-06
3.09252e-06
1.92465e-06
1.88897e-06
-3.00585e-07
-6.86866e-07
-4.1136e-06
-3.48651e-06
-3.28402e-06
-3.90032e-06
-7.36814e-06
-2.69379e-06
2.28439e-06
1.15666e-06
-5.42876e-07
1.73994e-06
3.39447e-06
4.22721e-06
5.34257e-06
6.07824e-06
6.93773e-06
7.38428e-06
8.04579e-06
8.50852e-06
9.11041e-06
9.63404e-06
9.54408e-06
8.74361e-06
6.80774e-06
5.82627e-06
3.32713e-06
-3.78606e-07
-6.74453e-06
-8.19936e-06
-9.68611e-06
1.46881e-06
2.41281e-06
2.71966e-06
3.50724e-06
3.64444e-06
3.65968e-06
3.36732e-06
2.92776e-06
2.97183e-06
2.53499e-06
2.68966e-06
1.69202e-06
1.54304e-06
2.09399e-07
-4.03364e-07
-1.52404e-06
-1.09758e-06
-2.8835e-06
-4.28892e-06
-2.74034e-06
1.88044e-06
2.31202e-06
-1.43706e-06
8.97161e-08
3.49642e-06
4.11053e-06
4.73461e-06
5.25677e-06
5.5364e-06
5.76523e-06
6.10175e-06
6.40732e-06
6.97452e-06
7.22553e-06
7.05498e-06
6.0396e-06
5.32401e-06
2.85847e-06
5.75316e-07
-4.88537e-06
-5.9428e-06
-8.50603e-06
2.70607e-06
5.86764e-06
2.35932e-06
3.09851e-06
3.0704e-06
2.73576e-06
2.548e-06
2.25528e-06
2.34367e-06
2.05365e-06
1.90108e-06
1.22914e-06
1.10801e-06
-5.72399e-08
1.52255e-07
-1.2729e-06
-7.92251e-07
-3.50789e-06
-7.57284e-07
1.47346e-06
1.22971e-06
1.70206e-06
5.07705e-06
3.57718e-06
3.22578e-06
3.62412e-06
3.68266e-06
3.9163e-06
3.90665e-06
4.23011e-06
4.43261e-06
5.0331e-06
4.78126e-06
4.70848e-06
3.80874e-06
2.45798e-06
6.33889e-07
-3.09393e-06
-3.93946e-06
-6.75694e-06
7.49191e-06
5.23315e-06
3.25896e-06
2.32218e-06
2.11423e-06
1.89956e-06
1.70416e-06
1.60487e-06
1.56621e-06
1.55128e-06
1.2542e-06
1.05486e-06
6.15451e-07
2.97806e-07
-9.63717e-08
-6.62356e-07
-6.49819e-07
-2.13236e-06
-1.19958e-07
1.0848e-06
7.96474e-06
2.3555e-06
1.67398e-06
1.81364e-06
2.01906e-06
2.27507e-06
2.24381e-06
2.38537e-06
2.27611e-06
2.70577e-06
2.842e-06
3.10059e-06
2.93154e-06
2.58754e-06
1.70952e-06
4.81851e-07
-1.78425e-06
-2.71516e-06
-4.94175e-06
-1.25797e-06
8.37392e-07
1.05158e-06
9.87997e-07
1.03627e-06
9.12551e-07
9.21159e-07
8.71703e-07
9.53947e-07
7.31182e-07
6.27127e-07
2.85047e-07
1.54578e-07
-2.54242e-07
-4.38558e-07
-6.90846e-07
-1.23064e-06
-3.15261e-07
1.26385e-06
4.68968e-06
-1.91055e-06
-1.14694e-06
4.44742e-07
9.25737e-07
1.11469e-06
1.22831e-06
1.13954e-06
1.17905e-06
1.27875e-06
1.53843e-06
1.6331e-06
1.73836e-06
1.46824e-06
1.14201e-06
1.88885e-07
-1.03697e-06
-1.70468e-06
-3.64955e-06
1.3941e-06
1.70219e-06
4.84823e-08
4.02622e-07
4.89756e-07
3.60469e-07
4.89402e-07
4.07041e-07
4.6462e-07
2.10837e-07
1.91953e-07
-9.63995e-08
-1.76939e-07
-4.69371e-07
-5.80786e-07
-8.51454e-07
-4.93111e-07
-1.14333e-06
-3.65534e-07
-5.46532e-07
1.44583e-06
7.65507e-07
6.43006e-07
6.26279e-07
5.12493e-07
4.73611e-07
5.14797e-07
6.55982e-07
7.73378e-07
8.44192e-07
7.83081e-07
5.88179e-07
1.67143e-08
-7.0817e-07
-1.99117e-06
1.27875e-07
2.5929e-06
1.7567e-06
7.57047e-07
5.64936e-07
3.31924e-07
2.63375e-07
1.619e-07
2.40829e-07
1.31655e-07
1.2697e-07
-4.11333e-08
-6.71887e-08
-2.83174e-07
-3.25232e-07
-6.29187e-07
-7.21647e-07
5.34073e-07
-2.40803e-06
2.99203e-06
6.04024e-07
4.36789e-07
4.88728e-07
3.39474e-07
2.59601e-07
1.02156e-07
1.35475e-07
1.41733e-07
2.66902e-07
2.8028e-07
3.33538e-07
1.74002e-07
-1.09182e-07
-3.40696e-07
-1.96159e-06
2.92571e-06
-1.99209e-06
1.98987e-07
4.8809e-07
3.7914e-07
2.11225e-07
9.90643e-08
5.73657e-08
1.93938e-08
-5.2988e-08
-9.38247e-08
-1.717e-07
-2.41666e-07
-3.55345e-07
-4.85997e-07
-6.67839e-07
1.06763e-06
-3.76309e-06
1.8257e-06
-5.47751e-07
2.51408e-07
3.6606e-07
3.0233e-07
9.50603e-08
-3.1676e-09
-1.24238e-07
-7.56105e-08
-6.6183e-08
-4.17253e-09
1.77122e-08
-5.80561e-08
-1.77846e-07
-2.22319e-07
-1.66561e-06
1.00728e-06
4.20545e-07
3.65024e-07
1.42873e-07
4.20327e-08
-6.51383e-08
-8.81434e-08
-1.47072e-07
-1.6081e-07
-2.00056e-07
-2.46337e-07
-3.21763e-07
-3.95746e-07
-5.35215e-07
3.99117e-07
-3.47037e-07
-2.33325e-07
2.07535e-07
1.27638e-07
3.80962e-08
-1.39796e-07
-1.78685e-07
-2.10798e-07
-1.77011e-07
-1.47059e-07
-1.30998e-07
-1.64486e-07
-1.98902e-07
-1.86033e-07
-1.03935e-06
2.39021e-07
6.47397e-07
-1.23197e-08
7.43144e-08
-9.44298e-08
-8.7597e-08
-1.71699e-07
-1.53799e-07
-1.73351e-07
-1.83379e-07
-2.19625e-07
-2.68608e-07
-3.05195e-07
-4.37481e-07
3.72599e-07
-4.33072e-08
-4.46802e-07
3.58856e-07
1.35403e-07
-1.61243e-08
-1.25016e-07
-1.96579e-07
-1.83277e-07
-1.95636e-07
-1.53134e-07
-1.88327e-07
-1.65263e-07
-2.08185e-07
-9.97406e-08
-7.34645e-07
2.19509e-07
9.80059e-07
1.8218e-07
2.49669e-08
-1.29422e-08
-1.4514e-07
-1.08462e-07
-1.54823e-07
-1.19506e-07
-1.59371e-07
-1.718e-07
-2.15429e-07
-2.27938e-07
-3.58891e-07
3.11459e-07
1.57757e-07
3.56591e-07
1.53096e-07
-1.28259e-08
-8.08197e-08
-1.46569e-07
-1.62821e-07
-1.3792e-07
-1.61846e-07
-1.54792e-07
-1.724e-07
-1.83359e-07
-3.99796e-08
-5.89757e-07
5.49666e-07
1.21965e-07
5.39746e-08
-6.17521e-08
-1.04702e-07
-1.489e-07
-1.03637e-07
-1.37555e-07
-1.1206e-07
-1.60124e-07
-1.64164e-07
-1.72946e-07
-3.31166e-07
1.13148e-07
3.4584e-07
2.60201e-08
-4.55221e-08
-6.51976e-08
-8.51592e-08
-2.21091e-07
-1.80184e-07
-1.34033e-07
-1.40389e-07
-1.41478e-07
-1.49534e-07
-1.88844e-07
-1.7165e-07
-3.53946e-07
-8.3994e-07
-1.84073e-07
-8.59728e-08
-4.2001e-08
-2.83411e-07
-2.22444e-07
-2.64455e-07
-1.56087e-07
-1.35358e-07
-1.24511e-07
-1.61738e-07
-2.18138e-07
-1.07176e-07
-2.09414e-08
-6.8742e-08
-3.3406e-07
-1.26215e-07
-3.22467e-08
-2.36473e-07
-3.32845e-07
-3.28509e-07
-2.08148e-07
-1.41857e-07
-1.42782e-07
-1.56407e-07
-5.68235e-08
-2.10815e-07
-7.8224e-08
-1.49645e-07
1.46592e-07
-1.90335e-07
-8.94955e-08
-4.55215e-07
-3.00273e-07
-2.64034e-07
-1.54113e-07
-1.25352e-07
-1.05549e-07
-2.13064e-07
5.82506e-08
-1.31211e-07
-2.52711e-07
-1.19619e-07
1.49011e-07
-2.77497e-07
-2.73777e-07
-3.98701e-07
-2.06511e-07
-1.86178e-07
-1.33463e-07
-1.42245e-07
1.82061e-09
-2.26563e-07
-2.40769e-07
9.73969e-08
-2.46775e-08
-1.11007e-07
-3.35199e-07
-1.94968e-07
-2.79265e-07
-1.61505e-07
-1.59547e-07
-9.43999e-08
-1.91441e-07
-1.54586e-08
-1.13398e-07
-2.10543e-08
3.84295e-08
-1.1145e-07
-9.84389e-08
-2.32806e-07
-1.65177e-07
-2.23974e-07
-1.3657e-07
-1.79321e-07
-2.65913e-08
-1.76642e-07
-1.99729e-07
1.27178e-07
9.91121e-09
3.80053e-08
-1.10382e-07
-4.0624e-08
-2.41283e-07
-7.19863e-08
-2.49624e-07
-9.08441e-08
-2.22369e-07
-3.74795e-08
-1.4655e-07
1.95914e-07
-1.29129e-07
1.4733e-07
-2.30701e-07
6.29738e-08
-3.10102e-07
-1.20066e-07
-2.62631e-07
-4.34081e-08
-1.88459e-07
1.70188e-07
-1.37615e-07
1.57259e-07
-1.64531e-07
8.20187e-08
-2.14862e-07
-1.18752e-07
-2.75659e-07
-7.31177e-08
-2.16025e-07
-4.89143e-08
-2.8406e-08
1.77736e-08
-4.93149e-08
-1.60458e-08
-7.4317e-08
-9.52999e-08
-2.17715e-07
-5.53846e-08
-1.54743e-07
-4.36367e-08
-1.44346e-07
-3.80254e-08
-2.26212e-08
-4.40133e-08
-4.37011e-08
-5.36271e-08
-1.17179e-07
-2.66092e-08
-7.3077e-08
-2.25121e-08
-1.41595e-07
-1.91906e-07
-4.14635e-08
-1.2331e-08
-5.93138e-08
-2.88415e-08
-6.39574e-08
-1.7906e-08
-5.60356e-08
2.54866e-08
-1.00525e-07
-1.66056e-07
-4.84753e-08
6.00676e-08
-9.77683e-08
3.34778e-08
-1.1746e-07
4.52808e-08
-1.15698e-07
8.01233e-08
-9.94059e-08
-9.93301e-08
-3.63564e-08
-1.7727e-07
1.08943e-07
-1.36603e-07
8.12077e-08
-1.28191e-07
7.38565e-08
-9.35889e-08
-6.90116e-08
-3.48224e-08
-1.138e-07
-7.62729e-08
4.01612e-09
-4.15187e-08
-1.46112e-09
-2.75093e-08
-6.15285e-08
-5.11298e-08
-1.09425e-07
5.34314e-08
-1.94147e-08
-9.07027e-09
-2.47802e-08
-1.18703e-08
-3.33275e-08
-4.74637e-08
-1.13682e-07
-1.18024e-08
-2.99229e-08
-2.94564e-08
-1.18647e-08
-2.85053e-08
-2.40704e-08
-3.22679e-08
-7.62044e-08
-1.34728e-08
-7.38613e-08
5.789e-08
-1.8477e-08
-1.84657e-08
-2.15902e-08
-3.03104e-08
-7.80248e-09
1.64886e-08
-7.61034e-08
6.6428e-08
-1.24776e-07
-3.84501e-08
-7.19662e-09
-3.40323e-08
-1.67386e-09
1.92895e-08
-3.56455e-08
6.74678e-08
-1.35366e-07
1.69651e-07
-2.57003e-08
-1.19394e-08
-2.73504e-08
-7.97731e-09
-6.62835e-09
1.47141e-08
-4.13366e-08
7.1067e-08
-6.7076e-09
-2.3656e-08
-2.14237e-09
-2.93896e-08
5.05558e-09
-9.95542e-09
-2.9515e-08
2.64916e-08
-8.37811e-08
4.25257e-08
-5.13759e-08
3.57719e-08
-4.99712e-08
-8.17665e-09
-3.68789e-08
2.30707e-08
-4.0324e-08
-8.15479e-10
-9.81433e-09
-3.93397e-08
-7.27649e-09
-4.79689e-08
3.20336e-08
-4.39297e-08
2.12735e-09
-2.01194e-08
-1.53366e-08
-3.79772e-08
-7.57586e-09
2.41822e-09
-2.43662e-08
-5.47323e-09
-1.599e-08
-3.79157e-08
-1.83783e-08
-2.21574e-08
1.72282e-08
-2.85597e-08
-1.27245e-08
-2.1119e-08
-2.89306e-08
-7.0545e-09
-3.67143e-08
6.48386e-08
-1.85648e-08
-1.85726e-08
-1.74047e-08
-1.93772e-08
-2.33567e-08
1.10393e-08
-2.51471e-08
-1.73193e-08
-2.02846e-08
-2.00785e-08
-1.8577e-08
-9.82971e-09
-2.83688e-08
-1.82466e-08
-2.12643e-08
-1.62908e-08
-2.56581e-08
-5.6769e-09
-2.48106e-08
-1.84434e-08
-1.93676e-08
-1.84973e-08
-2.2468e-08
-1.24108e-08
-3.72611e-08
-1.82353e-08
-1.88515e-08
-1.6966e-08
-2.87129e-08
-3.91411e-09
-4.67877e-08
-9.05714e-09
-2.5333e-08
-2.03288e-08
-2.46044e-08
-1.64799e-08
-4.33134e-08
-2.43325e-08
-1.03883e-08
-2.94939e-08
4.22988e-09
-3.15043e-08
-3.00353e-09
-1.54717e-09
1.86458e-09
-3.87412e-10
-6.12968e-08
4.82941e-09
-6.03096e-09
8.76038e-09
-2.05931e-09
-2.20055e-08
-2.21927e-08
-9.10042e-09
-2.20359e-08
-5.63271e-08
-5.72314e-08
-4.29646e-08
-5.66055e-08
-7.93001e-08
-7.24645e-08
-3.14401e-08
-9.21745e-08
)
;

boundaryField
{
    inlet
    {
        type            extrapolatedCalculated;
        value           nonuniform List<scalar> 4(-7.93001e-08 -7.24645e-08 -3.14401e-08 -9.21745e-08);
    }
    outlet
    {
        type            extrapolatedCalculated;
        value           nonuniform List<scalar> 0();
    }
    walls
    {
        type            extrapolatedCalculated;
        value           nonuniform List<scalar> 
42
(
0.00025873
-0.000128881
7.7775e-05
-5.26365e-05
4.30346e-05
6.53747e-05
2.88211e-05
0.000122411
6.50033e-05
6.14262e-05
4.48025e-05
3.35021e-05
1.98822e-05
1.18341e-05
2.76977e-06
1.82511e-08
-4.316e-06
-1.14891e-06
-1.09187e-06
5.04919e-06
1.0743e-05
6.78757e-06
-1.48452e-06
-2.07944e-05
-2.67274e-05
-2.77527e-05
1.39951e-05
9.79239e-06
1.27133e-05
2.33358e-05
0.000135454
-9.6286e-05
5.90621e-06
-1.68689e-05
-1.45176e-05
-0.000239059
0.000394731
-1.39916e-06
0.000151824
6.42913e-05
-0.000136289
-9.41834e-05
)
;
    }
    frontAndBack
    {
        type            empty;
    }
    procBoundary5to0
    {
        type            processor;
        value           nonuniform List<scalar> 4(6.08054e-05 9.95359e-06 1.71488e-05 -4.05034e-06);
    }
    procBoundary5to1
    {
        type            processor;
        value           nonuniform List<scalar> 
13
(
-0.000207771
-0.000121758
-0.000121758
-2.63504e-06
1.85129e-06
1.85129e-06
1.40595e-05
-3.08883e-05
-3.08883e-05
2.89127e-05
-7.95918e-06
-2.3549e-05
-2.3549e-05
)
;
    }
    procBoundary5to4
    {
        type            processor;
        value           nonuniform List<scalar> 
95
(
2.93545e-05
9.38834e-05
-1.96134e-05
-1.96134e-05
1.35047e-05
-3.00181e-05
-3.00181e-05
2.03153e-05
-2.48609e-05
-2.48609e-05
-1.81492e-05
-1.81492e-05
8.52894e-06
8.52894e-06
7.48739e-07
-1.09509e-05
-1.09509e-05
-7.06997e-06
-7.06997e-06
2.91255e-06
6.83889e-07
6.83889e-07
-9.7261e-08
-9.8943e-07
-9.8943e-07
-1.58593e-07
-2.9873e-06
-2.9873e-06
4.03469e-06
-1.23914e-06
1.58398e-06
1.58398e-06
6.05885e-06
-3.12768e-06
-3.96956e-06
-3.96956e-06
1.98202e-06
-1.44529e-06
-8.02702e-07
-8.02702e-07
2.38129e-06
-2.46973e-06
-1.97396e-06
-1.97396e-06
4.23841e-07
-7.05666e-07
6.77649e-07
-4.48321e-07
7.00888e-07
7.00888e-07
1.31752e-07
-3.02309e-07
2.30891e-07
-8.9486e-07
-9.02974e-07
-9.02974e-07
-1.73013e-07
-2.39708e-07
-1.61011e-07
-1.27545e-07
6.11019e-08
6.11019e-08
-9.05422e-08
2.86198e-11
2.35837e-08
2.18287e-09
-4.81408e-08
7.01873e-08
1.00899e-07
1.00899e-07
8.674e-09
1.49018e-08
-5.02549e-09
7.88568e-09
-7.91705e-09
-1.19051e-08
3.50749e-08
2.73534e-08
2.73534e-08
9.30418e-09
-6.30697e-09
-2.14943e-09
-1.52241e-08
-1.04521e-08
-1.22796e-08
-2.00451e-08
-1.04039e-08
-1.76882e-08
-2.20454e-08
-2.20454e-08
-2.943e-08
6.56186e-09
-4.44377e-08
-5.6548e-08
-5.92861e-08
)
;
    }
    procBoundary5to6
    {
        type            processor;
        value           nonuniform List<scalar> 
86
(
2.09931e-05
-1.4616e-05
2.022e-05
-1.22459e-05
1.95906e-05
-1.42252e-05
1.9555e-05
-1.64661e-05
1.76722e-05
-1.71516e-05
1.52834e-05
-1.61529e-05
1.40019e-05
-1.4981e-05
1.24611e-05
-1.29224e-05
1.22669e-05
-1.06574e-05
1.06933e-05
-8.03564e-06
1.01348e-05
-5.4729e-06
8.00689e-06
-3.5496e-06
6.03614e-06
-2.10315e-06
3.86686e-06
-1.13478e-06
1.87559e-06
-1.46786e-06
1.77218e-06
-1.24916e-06
1.01379e-06
2.83443e-06
2.83443e-06
-1.65628e-06
7.52173e-07
-1.01538e-06
6.19529e-07
-7.58455e-07
4.39285e-07
-6.21163e-07
1.73314e-07
-3.48615e-07
6.35543e-08
-2.61756e-07
-1.09424e-07
-1.09424e-07
-1.28489e-07
-1.36275e-07
-1.34559e-07
-1.36357e-07
-1.45279e-07
-2.11851e-07
-9.65474e-08
-2.74524e-07
-3.03508e-07
-3.03508e-07
1.03252e-07
-4.50927e-08
2.89478e-08
-5.1945e-08
1.2171e-07
-1.43525e-07
-7.40109e-08
-7.40109e-08
-4.71771e-09
-1.64759e-08
-2.70242e-08
6.83519e-09
8.44709e-09
-3.83771e-08
-2.72386e-08
-2.72386e-08
-1.96328e-08
-3.43009e-08
-3.40551e-08
-4.32347e-08
-3.90577e-08
-4.77684e-08
-8.2199e-10
1.22647e-08
-1.32417e-08
-1.32417e-08
-9.23403e-08
-1.04145e-07
)
;
    }
}


// ************************************************************************* //
