/*--------------------------------*- C++ -*----------------------------------*\
| =========                 |                                                 |
| \\      /  F ield         | OpenFOAM: The Open Source CFD Toolbox           |
|  \\    /   O peration     | Version:  2306                                  |
|   \\  /    A nd           | Website:  www.openfoam.com                      |
|    \\/     M anipulation  |                                                 |
\*---------------------------------------------------------------------------*/
FoamFile
{
    version     2.0;
    format      ascii;
    arch        "LSB;label=32;scalar=64";
    class       volScalarField;
    location    "225";
    object      magR;
}
// * * * * * * * * * * * * * * * * * * * * * * * * * * * * * * * * * * * * * //

dimensions      [0 2 -2 0 0 0 0];

internalField   nonuniform List<scalar> 
1340
(
0.0234606
0.0273734
0.0323743
0.039167
0.0472157
0.0574617
0.0705636
0.0867946
0.107404
0.133698
0.167658
0.212506
0.27266
0.355421
0.473162
0.645602
0.910527
1.32071
2.03404
3.16399
5.64316
9.54166
21.9669
43.5902
48.9308
46.9883
46.1275
46.883
47.8605
48.0757
47.3918
45.937
43.6323
40.5086
36.4971
0.0199657
0.0171305
0.0139525
0.0112265
0.00865285
0.00633341
0.00446197
0.00360184
0.00358166
0.00354037
0.00343801
0.00327973
0.00309775
0.00288305
0.00264162
0.00240268
0.00216831
0.00194506
0.0017886
0.00176475
0.00193576
0.00250699
0.0039364
0.00749384
0.0157168
0.0376662
0.0927325
0.270511
0.754225
2.27479
7.33523
14.4561
21.8179
28.7589
33.7582
34.9075
32.1782
27.4936
22.682
18.7624
15.7579
13.4533
0.00356931
0.00352108
0.00342242
0.00327613
0.00307588
0.00281161
0.00241758
0.00239833
0.0023441
0.00226122
0.00217454
0.00207926
0.0019829
0.00189623
0.00182167
0.00176377
0.00171905
0.0016931
0.00168606
0.00170009
0.00170574
0.00165789
0.001428
0.00107333
3.00415e-05
0.0011679
0.0158003
0.00752007
0.00239907
0.0316373
0.221813
0.740162
1.88331
4.2723
8.51676
14.2169
19.4989
22.2413
21.9029
19.7438
17.1543
0.00243654
0.00243363
0.00242722
0.00238409
0.00230738
0.00217836
0.00204001
0.00204421
0.00203391
0.00201693
0.00198197
0.00192993
0.00186507
0.00178411
0.00169159
0.00158925
0.00147933
0.00136337
0.0012425
0.00111882
0.000993548
0.000862217
0.000729727
0.000610967
0.000485741
0.000343074
3.16044e-05
0.000896425
0.00236978
0.00909187
0.0276048
0.052142
0.0743578
0.00177535
0.0309182
0.371749
1.73597
4.89333
9.39438
13.2887
15.0828
0.00201817
0.00198509
0.00193314
0.00187055
0.00179201
0.00153083
0.0015281
0.00151612
0.00149481
0.00146186
0.0014172
0.00136321
0.00130073
0.00123179
0.0011606
0.00108945
0.0010212
0.000958883
0.00090442
0.000859069
0.000821103
0.000781417
0.000732104
0.0006725
0.000587506
0.000417672
8.66539e-05
2.01944e-05
4.84472e-06
0
0
0
0.000725575
0.0235746
0.0859083
0.00803397
0.0647409
0.318474
2.096
5.64909
0.00152687
0.00151607
0.00149457
0.00146014
0.00141157
0.00125465
0.00125999
0.00125947
0.00125495
0.00124262
0.00122263
0.00119586
0.00116126
0.00111954
0.00107183
0.00101854
0.000960924
0.000900356
0.000837906
0.000774686
0.000709253
0.000637975
0.000564745
0.00049566
0.000436525
0.000387265
0.000335386
0.000228267
6.26607e-05
1.30284e-05
7.08422e-06
4.04551e-06
5.05686e-07
0
0
0.00146445
0.0398784
0.0515351
0.130188
0.18708
0.00124328
0.00122758
0.00120477
0.00117463
0.00101499
0.00101944
0.00102015
0.00101756
0.00100945
0.000995418
0.000975789
0.000949991
0.000918248
0.000881436
0.000840187
0.000795532
0.000748847
0.000701456
0.000654475
0.000609452
0.000568638
0.00053067
0.000492001
0.000451426
0.000412811
0.000376527
0.000347102
0.00029558
0.000212247
0.000126746
6.15199e-05
6.37973e-06
4.91102e-06
1.36715e-06
0
0
0.0074235
0.0375219
0.0238199
0.00100665
0.000995367
0.000978969
0.00095637
0.000841233
0.000846969
0.000850377
0.000851745
0.000849418
0.000843053
0.000832898
0.000818213
0.000798994
0.00077565
0.00074815
0.000717027
0.000682892
0.000646307
0.000607923
0.000568528
0.000527661
0.00048423
0.000440227
0.000398503
0.000361523
0.000330991
0.000309099
0.000292223
0.000268966
0.000229059
0.000181277
0.00012943
8.25478e-05
2.19366e-05
4.38258e-06
4.23575e-07
0
0
0.00339851
0.000832607
0.000822218
0.000808299
0.000789801
0.000701747
0.000707269
0.000711301
0.000713814
0.000713724
0.00071067
0.00070471
0.000695192
0.000682032
0.000665354
0.000645104
0.000621568
0.000595162
0.000566309
0.000535639
0.000503646
0.000471052
0.000439118
0.00040797
0.000377569
0.000348379
0.000321602
0.000297969
0.000276768
0.000255184
0.000230379
0.000202574
0.000176206
0.000151178
0.000115454
8.08555e-05
8.59998e-06
2.05787e-06
0
0
0.000694168
0.000685398
0.00067407
0.000606658
0.000606241
0.000603716
0.000598522
0.000590579
0.000579877
0.000566243
0.00054981
0.000530774
0.000509347
0.000485867
0.000460675
0.000434292
0.000406684
0.000378016
0.000349502
0.000322626
0.000298505
0.0002773
0.000257304
0.000235743
0.000211682
0.00018702
0.000165518
0.000149056
0.000135496
0.000123473
9.61305e-05
3.91149e-05
3.61027e-06
0
0.00051863
0.000516019
0.000511235
0.000504244
0.00049483
0.000483027
0.000468907
0.000452561
0.000434226
0.000414178
0.000392716
0.000370325
0.000347506
0.000324703
0.000302633
0.000281868
0.000262636
0.000243962
0.000223764
0.000201018
0.000177331
0.000155885
0.000138693
0.000125957
0.000116122
0.000111597
9.85953e-05
6.2516e-05
3.76894e-06
0.000444853
0.000440653
0.000434514
0.000426402
0.000416314
0.000404272
0.000390392
0.000374833
0.000357829
0.000339731
0.000320662
0.000301033
0.000281698
0.000263309
0.000246033
0.000229149
0.000211101
0.000190937
0.00016968
0.000149778
0.000132953
0.000119422
0.000108155
0.000100563
9.68256e-05
9.50359e-05
6.08572e-05
0.000385793
0.000381918
0.000376433
0.00036927
0.000360397
0.000349879
0.00033781
0.000324325
0.000309722
0.000294221
0.000278111
0.000261912
0.000246104
0.0002308
0.000215541
0.000199286
0.000181339
0.000162423
0.000144426
0.000128828
0.000115765
0.000104595
9.51095e-05
8.83143e-05
8.58044e-05
9.10539e-05
0.000336475
0.000332934
0.000328017
0.000321655
0.000313856
0.000304658
0.000294134
0.000282512
0.000269939
0.000256585
0.000242837
0.000229177
0.000215704
0.000202099
0.000187615
0.000171731
0.000154971
0.000138812
0.000124546
0.000112387
0.000101919
9.27594e-05
8.49762e-05
7.91604e-05
7.74631e-05
0.000296929
0.000294817
0.000291566
0.000287094
0.000281374
0.000274425
0.000266289
0.000257085
0.000246984
0.000236094
0.000224621
0.000212981
0.000201264
0.000189243
0.000176414
0.000162397
0.000147569
0.000133084
0.000120052
0.00010878
9.90023e-05
9.05193e-05
8.30655e-05
7.74531e-05
6.9645e-05
0.000261421
0.000259401
0.00025637
0.000252291
0.000247144
0.000240943
0.000233742
0.000225704
0.000216864
0.000207336
0.000197462
0.000187341
0.000176826
0.000165553
0.000153249
0.000140192
0.000127276
0.000115432
0.000105015
9.58806e-05
8.79478e-05
8.09814e-05
7.57761e-05
6.92372e-05
0.000230971
0.000229034
0.000226215
0.000222477
0.000217814
0.000212248
0.000205903
0.000198798
0.000190978
0.000182683
0.000174025
0.000164914
0.000155087
0.000144344
0.000132896
0.000121435
0.000110731
0.000101154
9.26575e-05
8.51991e-05
7.87074e-05
7.34222e-05
6.94505e-05
0.000205839
0.00020471
0.000202853
0.000200214
0.000196781
0.000192545
0.000187592
0.000181936
0.000175579
0.000168663
0.000161322
0.000153501
0.000145002
0.000135679
0.000125692
0.000115574
0.00010596
9.72097e-05
8.93546e-05
8.23666e-05
7.63072e-05
7.10298e-05
6.79382e-05
0.000183042
0.000181916
0.000180134
0.00017767
0.000174511
0.000170694
0.00016624
0.000161125
0.000155414
0.000149249
0.0001426
0.00013531
0.000127269
0.000118601
0.000109717
0.000101133
9.31886e-05
8.59676e-05
7.94686e-05
7.37874e-05
6.87777e-05
6.54124e-05
0.000163759
0.000163177
0.000162055
0.00016035
0.000158046
0.000155144
0.000151681
0.000147616
0.000142952
0.000137822
0.000132219
0.000126017
0.000119129
0.000111648
0.000103891
9.62747e-05
8.91065e-05
8.25035e-05
7.65001e-05
7.11702e-05
6.65299e-05
6.27874e-05
0.000146387
0.000145763
0.000144649
0.00014302
0.000140866
0.000138223
0.000135033
0.00013127
0.000127045
0.000122367
0.000117136
0.000111275
0.000104857
9.81227e-05
9.14067e-05
8.4981e-05
7.89777e-05
7.34624e-05
6.84835e-05
6.41784e-05
6.03484e-05
0.000131351
0.000131097
0.000130441
0.000129348
0.000127795
0.000125812
0.000123343
0.000120347
0.000116906
0.000113038
0.000108666
0.000103719
9.82474e-05
9.24366e-05
8.65523e-05
8.08288e-05
7.54044e-05
7.03623e-05
6.5745e-05
6.1719e-05
5.80282e-05
0.000117906
0.000117594
0.000116916
0.000115841
0.000114388
0.000112513
0.000110167
0.000107398
0.000104233
0.000100614
9.64712e-05
9.18373e-05
8.68554e-05
8.17333e-05
7.66696e-05
7.17984e-05
6.72112e-05
6.29561e-05
5.91813e-05
5.57115e-05
0.000106037
0.000105984
0.000105624
0.000104927
0.0001039
0.000102509
0.000100707
9.85091e-05
9.59508e-05
9.29816e-05
8.95402e-05
8.56439e-05
8.14012e-05
7.69715e-05
7.2522e-05
6.81752e-05
6.40256e-05
6.01245e-05
5.65953e-05
5.33425e-05
9.53602e-05
9.54972e-05
9.53815e-05
9.49807e-05
9.42905e-05
9.32936e-05
9.19376e-05
9.02175e-05
8.81733e-05
8.57664e-05
8.29348e-05
7.96845e-05
7.60957e-05
7.22912e-05
6.84059e-05
6.45519e-05
6.08188e-05
5.72596e-05
5.39784e-05
5.09215e-05
8.60315e-05
8.60963e-05
8.59233e-05
8.54985e-05
8.48156e-05
8.38265e-05
8.25066e-05
8.08991e-05
7.89697e-05
7.66608e-05
7.39696e-05
7.09552e-05
6.77108e-05
6.43418e-05
6.09457e-05
5.76058e-05
5.43755e-05
5.13369e-05
4.84663e-05
7.74896e-05
7.76857e-05
7.76843e-05
7.74675e-05
7.70327e-05
7.63379e-05
7.53513e-05
7.41073e-05
7.2581e-05
7.0718e-05
6.85095e-05
6.59966e-05
6.32485e-05
6.03477e-05
5.73743e-05
5.44025e-05
5.14847e-05
4.86873e-05
4.59945e-05
6.97823e-05
7.00699e-05
7.01982e-05
7.01417e-05
6.99025e-05
6.94417e-05
6.87273e-05
6.77831e-05
6.65933e-05
6.51084e-05
6.33123e-05
6.1234e-05
5.89225e-05
5.64405e-05
5.38541e-05
5.1226e-05
4.86002e-05
4.60388e-05
4.35229e-05
6.31829e-05
6.34021e-05
6.34673e-05
6.33777e-05
6.31016e-05
6.2606e-05
6.19102e-05
6.09987e-05
5.98284e-05
5.8382e-05
5.66772e-05
5.47474e-05
5.26381e-05
5.04013e-05
4.80897e-05
4.57409e-05
4.3402e-05
4.10648e-05
5.69554e-05
5.72372e-05
5.73912e-05
5.74146e-05
5.72815e-05
5.69611e-05
5.64653e-05
5.57822e-05
5.48741e-05
5.37222e-05
5.23352e-05
5.07355e-05
4.89549e-05
4.70324e-05
4.50091e-05
4.29175e-05
4.07937e-05
3.86297e-05
5.13258e-05
5.16474e-05
5.18657e-05
5.1973e-05
5.19492e-05
5.1767e-05
5.14314e-05
5.09327e-05
5.02395e-05
4.9333e-05
4.82143e-05
4.68977e-05
4.54041e-05
4.3761e-05
4.20002e-05
4.01453e-05
3.82251e-05
3.62306e-05
4.65848e-05
4.68457e-05
4.70134e-05
4.70715e-05
4.6995e-05
4.67854e-05
4.64347e-05
4.59166e-05
4.52121e-05
4.43187e-05
4.3243e-05
4.19975e-05
4.06007e-05
3.90751e-05
3.74384e-05
3.5709e-05
3.38797e-05
4.20029e-05
4.22886e-05
4.24969e-05
4.2614e-05
4.26179e-05
4.25056e-05
4.22719e-05
4.1894e-05
4.13548e-05
4.06484e-05
3.97762e-05
3.8744e-05
3.75628e-05
3.62471e-05
3.48082e-05
3.32582e-05
3.15875e-05
3.78548e-05
3.81532e-05
3.83883e-05
3.85466e-05
3.86095e-05
3.85711e-05
3.84286e-05
3.81629e-05
3.7757e-05
3.72039e-05
3.65015e-05
3.56509e-05
3.46564e-05
3.35264e-05
3.22666e-05
3.08829e-05
3.44065e-05
3.46548e-05
3.48404e-05
3.4945e-05
3.49617e-05
3.48889e-05
3.47104e-05
3.44109e-05
3.39826e-05
3.3421e-05
3.27234e-05
3.18896e-05
3.09225e-05
2.98236e-05
2.8593e-05
3.10124e-05
3.12653e-05
3.14664e-05
3.15992e-05
3.16554e-05
3.16344e-05
3.1523e-05
3.13079e-05
3.09805e-05
3.05344e-05
2.99648e-05
2.92681e-05
2.84431e-05
2.74874e-05
2.63975e-05
2.79392e-05
2.81905e-05
2.83985e-05
2.85481e-05
2.86318e-05
2.86489e-05
2.85882e-05
2.84384e-05
2.81913e-05
2.78394e-05
2.73759e-05
2.67954e-05
2.60936e-05
2.5265e-05
2.43031e-05
2.51593e-05
2.54044e-05
2.56123e-05
2.57702e-05
2.58713e-05
2.59146e-05
2.58916e-05
2.5792e-05
2.5608e-05
2.53319e-05
2.49561e-05
2.44736e-05
2.38777e-05
2.31612e-05
2.23153e-05
2.26465e-05
2.28807e-05
2.3084e-05
2.3244e-05
2.33551e-05
2.34161e-05
2.342e-05
2.33581e-05
2.32233e-05
2.30076e-05
2.27034e-05
2.23027e-05
2.17975e-05
2.11792e-05
2.04379e-05
2.05977e-05
2.07925e-05
2.09505e-05
2.10657e-05
2.11372e-05
2.11594e-05
2.11253e-05
2.10282e-05
2.08605e-05
2.06143e-05
2.02816e-05
1.98537e-05
1.93211e-05
1.86732e-05
1.85341e-05
1.87178e-05
1.88699e-05
1.89847e-05
1.90614e-05
1.90958e-05
1.90817e-05
1.90131e-05
1.88831e-05
1.8684e-05
1.84075e-05
1.80451e-05
1.75869e-05
1.70223e-05
1.66692e-05
1.68408e-05
1.6985e-05
1.70963e-05
1.71744e-05
1.72159e-05
1.72156e-05
1.71681e-05
1.70674e-05
1.6906e-05
1.66761e-05
1.6369e-05
1.59754e-05
1.54846e-05
1.4986e-05
1.51447e-05
1.52793e-05
1.53849e-05
1.54613e-05
1.55062e-05
1.55151e-05
1.54832e-05
1.5405e-05
1.52738e-05
1.50821e-05
1.48218e-05
1.44839e-05
1.40582e-05
1.34678e-05
1.36129e-05
1.37374e-05
1.38361e-05
1.3909e-05
1.39546e-05
1.39691e-05
1.39483e-05
1.38872e-05
1.37801e-05
1.36197e-05
1.33988e-05
1.31089e-05
1.27403e-05
1.22316e-05
1.23453e-05
1.24363e-05
1.25045e-05
1.25488e-05
1.25662e-05
1.25531e-05
1.25052e-05
1.2417e-05
1.22824e-05
1.20946e-05
1.18458e-05
1.15273e-05
1.09869e-05
1.10897e-05
1.11726e-05
1.12353e-05
1.12771e-05
1.12955e-05
1.12877e-05
1.12496e-05
1.11766e-05
1.1063e-05
1.0903e-05
1.06895e-05
9.86589e-06
9.95828e-06
1.00331e-05
1.00899e-05
1.01284e-05
1.01467e-05
1.01422e-05
1.01115e-05
1.00504e-05
9.95429e-06
9.81765e-06
9.63436e-06
8.8572e-06
8.93981e-06
9.00668e-06
9.05758e-06
9.0924e-06
9.10969e-06
9.10721e-06
9.08197e-06
9.03046e-06
8.9486e-06
8.83164e-06
8.67418e-06
7.95041e-06
8.02373e-06
8.0832e-06
8.12825e-06
8.15923e-06
8.17496e-06
8.17352e-06
8.15238e-06
8.10851e-06
8.03844e-06
7.93808e-06
7.80271e-06
7.20069e-06
7.25308e-06
7.29271e-06
7.31987e-06
7.33373e-06
7.33267e-06
7.31459e-06
7.27688e-06
7.21653e-06
7.13014e-06
7.01367e-06
6.46179e-06
6.50758e-06
6.54214e-06
6.56569e-06
6.57761e-06
6.57657e-06
6.56076e-06
6.528e-06
6.47578e-06
6.40116e-06
6.30078e-06
5.79868e-06
5.83859e-06
5.8685e-06
5.88868e-06
5.89869e-06
5.8974e-06
5.88331e-06
5.85463e-06
5.8092e-06
5.7446e-06
5.65795e-06
5.20414e-06
5.23875e-06
5.26442e-06
5.2815e-06
5.28966e-06
5.288e-06
5.27525e-06
5.24991e-06
5.21022e-06
5.15413e-06
5.07922e-06
4.67134e-06
4.70118e-06
4.72308e-06
4.73739e-06
4.74386e-06
4.74178e-06
4.73009e-06
4.70753e-06
4.67268e-06
4.6238e-06
4.5589e-06
4.19414e-06
4.21979e-06
4.23836e-06
4.25018e-06
4.2551e-06
4.25259e-06
4.24175e-06
4.22154e-06
4.19079e-06
4.14807e-06
3.76694e-06
3.78888e-06
3.80453e-06
3.81416e-06
3.81774e-06
3.81481e-06
3.80466e-06
3.78644e-06
3.75917e-06
3.72171e-06
3.40348e-06
3.41655e-06
3.42428e-06
3.42669e-06
3.42338e-06
3.4138e-06
3.39725e-06
3.37296e-06
3.33998e-06
3.05902e-06
3.0698e-06
3.07589e-06
3.07727e-06
3.07364e-06
3.06455e-06
3.04944e-06
3.02767e-06
2.99851e-06
2.75091e-06
2.75978e-06
2.76448e-06
2.76502e-06
2.76115e-06
2.75252e-06
2.73868e-06
2.71911e-06
2.69322e-06
2.47484e-06
2.48209e-06
2.48564e-06
2.48549e-06
2.48149e-06
2.47334e-06
2.46067e-06
2.44309e-06
2.4201e-06
2.22654e-06
2.23242e-06
2.23503e-06
2.2344e-06
2.2304e-06
2.22278e-06
2.21127e-06
2.19553e-06
2.17518e-06
2.00263e-06
2.00732e-06
2.00914e-06
2.00814e-06
2.00419e-06
1.99712e-06
1.9867e-06
1.97267e-06
1.80116e-06
1.80483e-06
1.80594e-06
1.80456e-06
1.80062e-06
1.79398e-06
1.78447e-06
1.77189e-06
1.62094e-06
1.62366e-06
1.62411e-06
1.62233e-06
1.61829e-06
1.6119e-06
1.60304e-06
1.59158e-06
1.46271e-06
1.46253e-06
1.46033e-06
1.45612e-06
1.44984e-06
1.44139e-06
1.43073e-06
1.31947e-06
1.31868e-06
1.31607e-06
1.31165e-06
1.30537e-06
1.29715e-06
1.28706e-06
1.19336e-06
1.19245e-06
1.18989e-06
1.18591e-06
1.18004e-06
1.17233e-06
1.16333e-06
1.09378e-06
1.09259e-06
1.08979e-06
1.08603e-06
1.08025e-06
1.07257e-06
1.06447e-06
1.01314e-06
1.01148e-06
1.00806e-06
1.00379e-06
9.97406e-07
9.88916e-07
9.37113e-07
9.35746e-07
9.32585e-07
9.2855e-07
9.22488e-07
9.14196e-07
8.62437e-07
8.60468e-07
8.56639e-07
8.51906e-07
8.45458e-07
8.36468e-07
7.93136e-07
7.92088e-07
7.89287e-07
7.85387e-07
7.80059e-07
7.72748e-07
7.18149e-07
7.14561e-07
7.09172e-07
7.03071e-07
6.96017e-07
6.85261e-07
6.69926e-07
6.702e-07
6.68689e-07
6.64966e-07
6.60643e-07
6.56651e-07
5.69378e-07
5.61739e-07
5.5536e-07
5.4778e-07
5.31334e-07
6.02931e-07
6.06248e-07
6.02631e-07
6.01572e-07
6.12712e-07
4.74346e-07
4.75307e-07
4.8238e-07
4.79403e-07
4.60452e-07
7.19316e-07
7.3936e-07
7.37429e-07
7.4604e-07
7.84752e-07
8.04712e-07
8.28356e-07
8.6205e-07
1.14948e-06
1.21656e-06
1.17291e-06
1.11343e-06
)
;

boundaryField
{
    inlet
    {
        type            calculated;
        value           nonuniform List<scalar> 4(5.07506e-06 5.40014e-06 5.46923e-06 5.53299e-06);
    }
    outlet
    {
        type            calculated;
        value           nonuniform List<scalar> 0();
    }
    walls
    {
        type            calculated;
        value           nonuniform List<scalar> 
42
(
1.33064
1.54545
1.78628
2.0133
2.23103
2.43794
2.61447
2.75833
2.87065
2.94662
2.99138
3.00348
2.9761
2.91007
2.80236
2.65342
2.45864
2.21684
1.92286
1.57962
1.19596
0.807324
0.477548
0.288681
0.226498
0.253717
0.318067
0.39282
0.459899
0.507327
0.533644
0.542786
0.531789
0.503146
0.457136
1.12476
0.919467
0.712367
0.503114
0.319305
0.170633
0.0718403
)
;
    }
    frontAndBack
    {
        type            empty;
    }
    procBoundary5to0
    {
        type            processor;
        value           nonuniform List<scalar> 4(0.000591597 0.000584653 0.00057701 0.000567489);
    }
    procBoundary5to1
    {
        type            processor;
        value           nonuniform List<scalar> 
13
(
0.00334181
0.00250182
0.00250182
0.00200069
0.00168907
0.00168907
0.00134275
0.00113591
0.00113591
0.000927023
0.000766608
0.000659007
0.000659007
)
;
    }
    procBoundary5to4
    {
        type            processor;
        value           nonuniform List<scalar> 
95
(
0.000597008
0.000601533
0.000605033
0.000605033
0.000518218
0.000519236
0.000519236
0.000448114
0.000447318
0.000447318
0.000388098
0.000388098
0.000338693
0.000338693
0.000297969
0.000262504
0.000262504
0.000232074
0.000232074
0.000206273
0.000183571
0.000183571
0.000163837
0.000146565
0.000146565
0.000131226
0.000117883
0.000117883
0.00010581
9.49892e-05
8.57574e-05
8.57574e-05
7.71193e-05
6.93475e-05
6.28323e-05
6.28323e-05
5.65629e-05
5.09116e-05
4.62388e-05
4.62388e-05
4.16445e-05
3.74958e-05
3.41042e-05
3.41042e-05
3.07128e-05
2.76486e-05
2.48814e-05
2.23835e-05
2.03763e-05
2.03763e-05
1.83264e-05
1.64768e-05
1.4809e-05
1.33061e-05
1.20997e-05
1.20997e-05
1.08673e-05
9.7584e-06
8.76108e-06
7.86474e-06
7.13593e-06
7.13593e-06
6.40466e-06
5.74859e-06
5.16035e-06
4.63319e-06
4.16098e-06
3.73816e-06
3.38479e-06
3.38479e-06
3.04308e-06
2.73743e-06
2.46347e-06
2.21698e-06
1.99466e-06
1.79457e-06
1.61557e-06
1.46085e-06
1.46085e-06
1.31836e-06
1.19253e-06
1.09323e-06
1.01293e-06
9.36671e-07
8.62526e-07
7.92464e-07
7.20149e-07
6.67576e-07
5.75543e-07
5.75543e-07
5.98099e-07
4.71405e-07
7.01548e-07
7.54987e-07
1.14715e-06
)
;
    }
    procBoundary5to6
    {
        type            processor;
        value           nonuniform List<scalar> 
86
(
31.685
11.6288
14.7024
14.9719
9.44278
1.98146
0.152339
0.0067816
0.00067779
0
0
3.16384e-06
4.88202e-05
9.62031e-05
8.64439e-05
6.915e-05
6.13031e-05
6.01241e-05
6.04547e-05
5.97918e-05
5.7962e-05
5.55708e-05
5.30699e-05
5.06152e-05
4.82139e-05
4.58307e-05
4.34546e-05
4.10899e-05
3.87419e-05
3.6427e-05
3.41569e-05
3.19371e-05
2.97799e-05
2.93645e-05
2.93645e-05
2.722e-05
2.51609e-05
2.31945e-05
2.13262e-05
1.9559e-05
1.78955e-05
1.63369e-05
1.48829e-05
1.35319e-05
1.22815e-05
1.11284e-05
1.04147e-05
1.04147e-05
9.39747e-06
8.47018e-06
7.62712e-06
6.86255e-06
6.17076e-06
5.54596e-06
4.98273e-06
4.47571e-06
4.09173e-06
4.09173e-06
3.6727e-06
3.29719e-06
2.96103e-06
2.66027e-06
2.39111e-06
2.14972e-06
1.95471e-06
1.95471e-06
1.75599e-06
1.57733e-06
1.41773e-06
1.27498e-06
1.15249e-06
1.05481e-06
9.8044e-07
9.8044e-07
9.05707e-07
8.27436e-07
7.6427e-07
6.75766e-07
6.47424e-07
5.23767e-07
6.00926e-07
4.67648e-07
8.07781e-07
8.07781e-07
8.65787e-07
1.46584e-06
)
;
    }
}


// ************************************************************************* //
