/*--------------------------------*- C++ -*----------------------------------*\
| =========                 |                                                 |
| \\      /  F ield         | OpenFOAM: The Open Source CFD Toolbox           |
|  \\    /   O peration     | Version:  2306                                  |
|   \\  /    A nd           | Website:  www.openfoam.com                      |
|    \\/     M anipulation  |                                                 |
\*---------------------------------------------------------------------------*/
FoamFile
{
    version     2.0;
    format      ascii;
    arch        "LSB;label=32;scalar=64";
    class       volVectorField;
    location    "225";
    object      momentError;
}
// * * * * * * * * * * * * * * * * * * * * * * * * * * * * * * * * * * * * * //

dimensions      [0 1 -2 0 0 0 0];

internalField   nonuniform List<vector> 
1340
(
(0.110992 -0.432143 -6.9575e-15)
(0.0773506 -0.423997 2.39837e-14)
(0.00621408 -0.354766 -4.70373e-14)
(-0.0234751 -0.336581 1.78058e-14)
(-0.0442834 -0.302186 1.09806e-13)
(-0.0583623 -0.266595 -1.74493e-13)
(-0.0696067 -0.232547 8.98055e-14)
(-0.0729402 -0.194859 -1.10861e-13)
(-0.0713366 -0.161533 -2.54105e-13)
(-0.066275 -0.129126 3.43486e-13)
(-0.0587744 -0.107944 1.23969e-13)
(-0.0345261 -0.0639894 -2.28495e-13)
(-0.0161899 -0.0367123 -3.3416e-13)
(-0.000153271 -0.0135867 -5.7141e-14)
(0.0187149 0.00772426 -1.39651e-13)
(0.0387942 0.0271218 -3.10215e-13)
(0.0624628 0.0438608 -1.46713e-13)
(0.090658 0.0579193 8.32592e-13)
(0.124239 0.0695627 4.23525e-13)
(0.163376 0.0767548 -5.95697e-13)
(0.193424 0.0783605 1.05628e-13)
(0.208404 0.0664113 1.5347e-13)
(0.158221 0.0445904 -6.74068e-14)
(0.104783 0.0325632 -1.52559e-13)
(0.0669595 0.0164063 3.60914e-14)
(0.0390544 0.000634366 -2.33631e-15)
(0.0316354 -0.00531373 4.1561e-14)
(0.0308927 -0.00628726 -1.64802e-14)
(0.0323872 -0.0053334 4.404e-14)
(0.0364618 -0.00438074 1.54929e-13)
(0.0385583 -0.00366475 3.05135e-14)
(0.0334873 -0.00285497 -1.29023e-13)
(0.0302098 -0.00281321 -7.38358e-15)
(0.0282238 -0.00318861 -2.16515e-13)
(0.0263007 -0.00358883 -2.83922e-13)
(0.125874 -0.404014 -1.08088e-14)
(0.134248 -0.326536 2.66812e-14)
(0.132031 -0.24339 1.69248e-15)
(0.112206 -0.177295 3.62295e-14)
(0.0923898 -0.125577 -3.28618e-14)
(0.0702301 -0.0703579 -9.44443e-14)
(0.0293043 -0.0187011 -1.0577e-13)
(-0.0310795 -0.306783 -1.3183e-14)
(-0.0644447 -0.304559 5.83462e-15)
(-0.0884584 -0.255965 7.72803e-15)
(-0.120505 -0.246401 -3.34551e-14)
(-0.140486 -0.227335 2.09489e-14)
(-0.152982 -0.205427 8.0062e-14)
(-0.165901 -0.181906 1.03653e-13)
(-0.171202 -0.157522 1.00395e-13)
(-0.170036 -0.133902 -3.99933e-15)
(-0.167364 -0.113165 1.9035e-13)
(-0.157753 -0.0894084 -2.08558e-13)
(-0.156964 -0.10049 -1.19314e-13)
(-0.153447 -0.100012 4.48076e-13)
(-0.151542 -0.0917329 1.28168e-13)
(-0.137234 -0.0902206 -1.19055e-13)
(-0.124979 -0.088133 -1.77689e-14)
(-0.110077 -0.0888588 3.4181e-13)
(-0.0907997 -0.09012 -1.53799e-13)
(-0.0626812 -0.091503 -4.91413e-13)
(-0.0218579 -0.0895516 1.88385e-13)
(0.0647339 -0.0830031 2.35354e-13)
(0.14308 -0.0522019 4.65528e-14)
(0.266694 -0.00137396 -1.29572e-13)
(0.254142 0.0172955 1.92464e-13)
(0.187964 0.00571709 -4.18904e-14)
(0.171674 0.00633474 -7.06257e-14)
(0.149927 0.00506612 -3.0216e-14)
(0.120687 0.000392163 5.57218e-15)
(0.0851892 -0.00271127 -1.51662e-14)
(0.0573713 -0.00483443 -1.63007e-14)
(0.0435046 -0.00626889 -2.04079e-14)
(0.0404533 -0.00708103 3.59746e-14)
(0.0405991 -0.00735227 -1.88795e-13)
(0.0407826 -0.00713557 -2.24038e-13)
(0.0415747 -0.00691349 1.63141e-13)
(-0.0090245 -0.288974 -4.61491e-15)
(0.018545 -0.242515 1.24429e-13)
(0.0397218 -0.1896 -8.06e-15)
(0.0480793 -0.147445 -1.29311e-13)
(0.0515665 -0.107903 -2.56575e-14)
(0.0485353 -0.0675437 1.27519e-13)
(0.0235497 -0.247345 -5.10689e-15)
(0.00601788 -0.244358 -7.62435e-16)
(-0.016004 -0.207401 -5.74707e-15)
(-0.0349163 -0.207668 1.54338e-14)
(-0.0471645 -0.19803 3.89673e-15)
(-0.0577215 -0.182866 -3.35473e-14)
(-0.067865 -0.168432 -1.07305e-13)
(-0.0736533 -0.152231 -9.51712e-14)
(-0.0760155 -0.134466 -1.11149e-13)
(-0.0763162 -0.117577 1.10263e-14)
(-0.07381 -0.101503 2.63608e-13)
(-0.0692366 -0.0843919 7.05628e-14)
(-0.0644314 -0.0672718 -9.92361e-14)
(-0.0574336 -0.0542888 -2.40816e-13)
(-0.0586463 -0.0406338 1.10181e-13)
(-0.0641168 -0.0293353 1.45806e-13)
(-0.0694902 -0.0237073 -9.41989e-14)
(-0.0780401 -0.0223772 -1.89102e-13)
(-0.0934004 -0.0273484 3.16999e-13)
(-0.117547 -0.0375525 -9.49219e-14)
(-0.164967 -0.0496468 -1.19972e-13)
(-0.186618 -0.0774831 1.79073e-13)
(-0.209559 -0.0669894 7.3023e-14)
(-0.100283 -0.0277004 -3.25243e-15)
(0.032864 0.0150885 -3.30277e-14)
(0.0624009 0.0217953 3.69879e-15)
(0.0581895 0.0144763 -3.06255e-14)
(0.0891214 0.00492256 2.11198e-14)
(0.107289 0.000582034 -3.31492e-14)
(0.115987 -0.0014037 -7.23827e-14)
(0.11014 -0.00348221 6.98358e-14)
(0.0840259 -0.00614183 3.07528e-14)
(0.0642199 -0.00844563 -1.22085e-13)
(0.0503495 -0.00931953 7.79176e-14)
(0.0466803 -0.00888406 1.73442e-14)
(0.0366941 -0.23484 2.92979e-14)
(0.0450746 -0.199505 -2.77644e-14)
(0.0503482 -0.156038 -9.85386e-14)
(0.0521108 -0.124896 4.48991e-14)
(0.0494534 -0.0946212 2.04375e-14)
(0.0430964 -0.0641331 -6.46587e-14)
(-0.00546793 -0.195645 7.94281e-15)
(-0.0222358 -0.193013 -2.3586e-15)
(-0.0368911 -0.165834 1.04713e-16)
(-0.0547839 -0.166325 -7.1447e-15)
(-0.0664702 -0.157441 1.88504e-15)
(-0.0767763 -0.144873 3.56713e-14)
(-0.0870003 -0.133056 5.83131e-14)
(-0.0931638 -0.11917 5.45224e-14)
(-0.0962706 -0.104007 -1.33141e-13)
(-0.0974243 -0.0894379 -1.11458e-13)
(-0.095656 -0.0750952 1.4128e-13)
(-0.0917711 -0.0616651 2.56238e-13)
(-0.0856235 -0.0512279 1.35608e-13)
(-0.0783206 -0.0438929 -4.71667e-13)
(-0.0732095 -0.0364144 -1.62065e-13)
(-0.0596805 -0.0376157 3.85577e-13)
(-0.0504455 -0.0362884 8.39958e-14)
(-0.0414995 -0.0364746 -1.24286e-13)
(-0.034398 -0.0381807 -2.28477e-13)
(-0.0319771 -0.041794 1.98047e-13)
(-0.0435353 -0.0551626 4.36552e-14)
(-0.0692877 -0.0532825 -2.22727e-13)
(-0.107999 -0.0510028 1.65688e-13)
(-0.142106 -0.0376792 -1.13968e-13)
(-0.137217 -0.0193622 -3.72997e-14)
(-0.0841214 -0.00447065 3.56964e-14)
(0.01099 -0.0157877 -4.55901e-14)
(-0.0714368 -0.00530797 1.00786e-14)
(-0.0468743 -0.000162381 1.37125e-14)
(0.0114639 -0.00510581 2.10676e-14)
(0.00315532 0.00172747 -9.29607e-15)
(0.0612374 -0.00464592 2.55357e-14)
(0.0881117 -0.00697895 2.08009e-13)
(0.0750405 -0.00981543 5.5037e-14)
(0.061239 -0.00934023 -7.72654e-14)
(0.00890292 -0.186176 1.88463e-14)
(0.0211218 -0.162159 -3.69191e-14)
(0.0309954 -0.130335 -4.07982e-15)
(0.0370998 -0.107741 -3.3682e-14)
(0.0390771 -0.0840569 -2.06308e-14)
(0.00321534 -0.162854 -4.04572e-15)
(-0.00848087 -0.160597 4.80783e-15)
(-0.0195224 -0.139945 2.10237e-17)
(-0.032778 -0.142689 -4.11683e-15)
(-0.0413523 -0.13705 -2.86397e-14)
(-0.0492206 -0.128349 3.45172e-14)
(-0.0574457 -0.121126 1.25224e-14)
(-0.0623851 -0.111525 -6.99229e-14)
(-0.0654482 -0.100672 -5.81256e-14)
(-0.0669444 -0.0900475 -1.2118e-13)
(-0.0660513 -0.0792234 1.7463e-14)
(-0.0635276 -0.0689373 -1.32216e-13)
(-0.0595216 -0.0597791 8.03619e-15)
(-0.0550402 -0.0515455 3.53944e-13)
(-0.0498851 -0.0446547 -2.33932e-13)
(-0.0465292 -0.0359436 -1.67559e-13)
(-0.0448803 -0.0282123 1.01487e-13)
(-0.0428749 -0.0235534 -1.31847e-13)
(-0.0405295 -0.0211814 8.49169e-14)
(-0.0385407 -0.0207772 -1.4411e-13)
(-0.0382276 -0.0218519 -1.61653e-13)
(-0.0423783 -0.0232119 1.83164e-13)
(-0.0533094 -0.0195463 -4.05258e-14)
(-0.0741914 -0.0118263 8.96546e-14)
(-0.0875929 -0.000477046 5.67317e-14)
(-0.102095 0.00991094 6.24549e-15)
(-0.137886 0.017818 1.08772e-13)
(-0.0527878 0.00338263 -2.1143e-14)
(-0.0564086 0.00763826 2.25412e-14)
(-0.065428 0.00239302 -5.53461e-14)
(-0.0729819 -0.00166811 -1.55775e-13)
(-0.0516818 0.00485443 9.97549e-16)
(-0.0472728 0.00515645 1.40471e-13)
(0.0483849 -0.00960934 -3.29741e-14)
(0.049083 -0.00488647 -1.05843e-13)
(0.0131636 -0.154933 2.0307e-14)
(0.0209898 -0.136387 1.43927e-14)
(0.0273291 -0.110797 -3.19972e-14)
(0.0319031 -0.0932396 7.88976e-14)
(0.0338267 -0.0744458 1.86869e-13)
(-0.00126681 -0.135697 1.93606e-15)
(-0.0115657 -0.133707 5.15034e-16)
(-0.0205128 -0.117608 3.17153e-15)
(-0.0322868 -0.120235 -2.44786e-15)
(-0.0400612 -0.11574 -1.09069e-15)
(-0.0472685 -0.10847 1.62305e-14)
(-0.0550619 -0.102461 7.58549e-15)
(-0.0599916 -0.0942998 4.03867e-14)
(-0.0633479 -0.0849699 6.7795e-14)
(-0.0654772 -0.0757111 -3.19865e-14)
(-0.0654189 -0.0661195 -7.79878e-15)
(-0.0639121 -0.0567438 7.49354e-14)
(-0.061201 -0.0481615 -1.45299e-13)
(-0.0574073 -0.0405979 -2.89013e-13)
(-0.0531122 -0.0340484 1.75024e-13)
(-0.0490241 -0.0279102 2.68134e-13)
(-0.0428471 -0.0272448 -3.55539e-13)
(-0.0388482 -0.0271881 6.06002e-14)
(-0.0355002 -0.0284837 1.11913e-13)
(-0.0335272 -0.0306293 -1.12804e-13)
(-0.0340175 -0.0328286 8.54798e-14)
(-0.0368099 -0.0322978 -8.7161e-14)
(-0.0408573 -0.0259385 -1.69365e-13)
(-0.0422349 -0.0139495 -5.02812e-14)
(-0.0406882 -0.00376697 -1.16167e-13)
(-0.0328028 0.00158045 5.62525e-14)
(-0.0274002 0.0034539 -1.6199e-14)
(-0.0250276 0.00239187 -1.08986e-14)
(-0.0285124 0.00201123 2.13607e-14)
(-0.0567233 0.00527165 4.24062e-14)
(-0.0183524 -0.00169131 3.29522e-14)
(-0.0493832 -0.00168831 -4.53321e-14)
(-0.0336677 0.00155834 -1.1704e-13)
(-0.0254016 0.00297105 -1.48289e-13)
(-0.0291383 0.000284837 3.31983e-14)
(0.0077566 -0.129357 8.60861e-15)
(0.0151791 -0.115247 -2.0725e-14)
(0.0214458 -0.0950266 1.05042e-14)
(0.0261782 -0.0811887 -5.94355e-15)
(-0.000464515 -0.115257 3.09519e-15)
(-0.00865735 -0.113869 5.86049e-16)
(-0.0158411 -0.101417 -1.14698e-15)
(-0.02551 -0.104354 4.13314e-15)
(-0.0316661 -0.101041 -8.61208e-15)
(-0.0378583 -0.0957441 -1.03902e-15)
(-0.0445547 -0.0916706 2.35277e-14)
(-0.0488288 -0.0852987 -1.11138e-14)
(-0.0518292 -0.0780003 -3.95004e-14)
(-0.0538294 -0.0708038 2.65184e-14)
(-0.0539714 -0.063176 -6.07191e-14)
(-0.0529556 -0.0556753 -1.50674e-13)
(-0.0509256 -0.0487459 1.06433e-13)
(-0.0478798 -0.0424453 3.76727e-13)
(-0.0444399 -0.0368716 -1.39545e-14)
(-0.040526 -0.0323889 -4.00985e-13)
(-0.0370355 -0.0278696 3.32195e-13)
(-0.0353051 -0.0247224 2.33191e-13)
(-0.0342135 -0.02322 1.24582e-13)
(-0.0339811 -0.0229615 5.87449e-14)
(-0.0354913 -0.0236006 -2.88861e-14)
(-0.0390456 -0.0234456 1.62022e-13)
(-0.042747 -0.0196558 1.12089e-13)
(-0.0427634 -0.0115778 -1.02154e-14)
(-0.0376765 -0.00332452 2.14194e-13)
(-0.0306579 0.00180287 -6.5657e-14)
(-0.0229579 0.00334587 -7.64528e-15)
(-0.0176546 0.00254411 5.67671e-15)
(-0.0147099 0.00172606 -2.01345e-14)
(-0.0116631 0.00126651 -2.07958e-14)
(-0.0118798 0.000217619 -1.5276e-14)
(-0.0127079 -0.000688008 4.77807e-14)
(-0.011532 -0.00397146 -2.26989e-14)
(-0.0648641 0.00828673 -1.27773e-13)
(-0.0335023 0.00122201 -2.07924e-14)
(0.00681363 -0.109932 -9.67266e-15)
(0.0128284 -0.0987149 1.21986e-14)
(0.0180774 -0.0822879 -2.61254e-14)
(0.0222534 -0.0711108 -3.94955e-15)
(-0.00119269 -0.0985674 1.40456e-15)
(-0.00827423 -0.0979306 1.52074e-15)
(-0.0142714 -0.0879914 -9.41461e-16)
(-0.0226798 -0.0906131 -1.92923e-15)
(-0.0287836 -0.0880577 -3.77466e-15)
(-0.0334155 -0.0835587 1.64237e-14)
(-0.0391703 -0.0803145 1.38022e-14)
(-0.0433095 -0.0751534 -5.17976e-14)
(-0.0463648 -0.0690596 2.17028e-14)
(-0.0486131 -0.062935 1.11088e-13)
(-0.0491325 -0.0562784 4.62659e-14)
(-0.0486414 -0.0496445 2.13484e-14)
(-0.0472758 -0.0434021 -1.877e-13)
(-0.0449875 -0.0375682 -4.29407e-13)
(-0.0421907 -0.0323496 -3.03721e-13)
(-0.0390232 -0.0277956 1.19935e-13)
(-0.035801 -0.0237496 -7.37584e-14)
(-0.0331605 -0.0225653 -3.76878e-13)
(-0.031804 -0.0226004 -1.94654e-13)
(-0.03134 -0.0232842 1.60816e-13)
(-0.0324622 -0.023969 1.60993e-13)
(-0.0354247 -0.023404 -9.35594e-14)
(-0.0392697 -0.0197663 -3.82667e-14)
(-0.0407705 -0.0126408 2.24252e-15)
(-0.0375398 -0.00510814 -6.09519e-14)
(-0.0311577 -0.000119056 6.32603e-14)
(-0.02441 0.0018889 7.21386e-15)
(-0.01923 0.00164987 4.31835e-15)
(-0.0159282 0.00104674 -4.4131e-15)
(-0.0133743 0.00094418 5.21648e-14)
(-0.0100698 0.000322506 3.49557e-14)
(-0.00926671 -0.000441437 -3.50964e-15)
(-0.0146329 0.00117608 1.13236e-13)
(-0.0132568 0.000156344 7.81995e-14)
(-0.015383 -0.00167898 -4.05751e-14)
(0.00510413 -0.0940976 7.39723e-15)
(0.0104127 -0.0850749 -1.20488e-14)
(0.0151034 -0.0716921 3.24602e-15)
(0.0189804 -0.0625138 6.11608e-14)
(-0.00124764 -0.085004 2.42096e-15)
(-0.00716484 -0.087593 4.03668e-15)
(-0.0123773 -0.0771685 -1.74195e-16)
(-0.0195037 -0.0793147 -3.98377e-17)
(-0.025493 -0.0787197 -2.56394e-15)
(-0.0296704 -0.0736902 -6.68368e-15)
(-0.0349733 -0.0712025 -4.90197e-15)
(-0.037375 -0.0670767 -5.22439e-14)
(-0.0397957 -0.062153 -9.94678e-16)
(-0.0420733 -0.0573637 1.92183e-14)
(-0.0428671 -0.0518776 -2.32516e-14)
(-0.0427084 -0.0463313 1.41068e-13)
(-0.0417606 -0.0410654 1.48887e-13)
(-0.0399626 -0.0360693 2.69661e-14)
(-0.0376786 -0.031555 2.76627e-13)
(-0.0350553 -0.0275944 -5.75646e-14)
(-0.0321947 -0.0244124 -7.18557e-16)
(-0.030085 -0.0218243 2.14377e-13)
(-0.0294712 -0.0208768 9.99332e-14)
(-0.029534 -0.0205491 -2.94875e-14)
(-0.0307337 -0.0203546 -1.21881e-13)
(-0.0330968 -0.0194806 -1.14878e-14)
(-0.0359708 -0.0165516 -9.36332e-14)
(-0.0372661 -0.0110533 -8.094e-14)
(-0.0350485 -0.00496332 4.88287e-14)
(-0.0300818 -0.000621568 -3.10616e-14)
(-0.0245498 0.00133377 -5.64544e-14)
(-0.0201659 0.00135294 6.4436e-15)
(-0.0173633 0.000877238 -3.11549e-15)
(-0.0150804 0.000698206 -3.85865e-15)
(-0.0126405 0.000287659 8.2074e-14)
(-0.0102927 -0.000388767 -2.93714e-14)
(-0.00793119 -0.00114304 -3.92138e-14)
(-0.00861235 -0.00083815 2.27335e-13)
(-0.00681378 -0.00078994 3.71826e-14)
(0.00415877 -0.0811898 -1.31573e-14)
(0.00874211 -0.0738028 -3.10562e-14)
(0.012858 -0.0627488 5.073e-14)
(-0.021417 -0.0673149 8.95147e-15)
(-0.0270451 -0.0668439 -2.94403e-15)
(-0.0316764 -0.0637104 2.91891e-14)
(-0.034238 -0.0596196 2.04039e-14)
(-0.0366254 -0.0555178 5.16596e-15)
(-0.0373427 -0.0516505 -1.69802e-15)
(-0.0381654 -0.0470585 7.13273e-15)
(-0.03837 -0.0422767 -3.1399e-14)
(-0.0378379 -0.0376599 -1.36922e-13)
(-0.0365037 -0.033196 3.63791e-14)
(-0.0347304 -0.0291033 1.87899e-14)
(-0.0325781 -0.025461 5.24738e-14)
(-0.0302469 -0.0223016 -4.62409e-16)
(-0.0280264 -0.0198443 -9.39875e-14)
(-0.0275072 -0.019005 -1.3894e-13)
(-0.0276168 -0.0188736 -1.19595e-13)
(-0.0286447 -0.0186719 -6.96816e-14)
(-0.0305628 -0.0177471 -5.63943e-14)
(-0.0327968 -0.0151154 1.91655e-14)
(-0.0338086 -0.0104464 6.71807e-14)
(-0.0320541 -0.00518047 -3.61537e-14)
(-0.0280027 -0.00120611 -1.37477e-14)
(-0.0233421 0.000772689 4.44362e-14)
(-0.0195356 0.00103369 2.10257e-15)
(-0.017104 0.000727625 2.45268e-14)
(-0.0153528 0.000584355 -3.05508e-14)
(-0.0136796 0.000256564 -1.01157e-13)
(-0.0121931 -0.000264354 -5.51002e-14)
(-0.0111809 -0.000623825 3.48962e-14)
(-0.0104037 -0.000684466 -1.51689e-14)
(-0.00889843 -0.000480294 2.0502e-14)
(-0.0263847 -0.0552382 -3.54867e-15)
(-0.0320596 -0.0548427 -2.50967e-14)
(-0.0331971 -0.0502228 -5.03288e-14)
(-0.0352497 -0.0468073 2.85641e-14)
(-0.0343447 -0.0429492 2.53802e-14)
(-0.034422 -0.0388968 1.48748e-14)
(-0.034088 -0.0349241 6.21134e-14)
(-0.0330565 -0.031034 4.19951e-15)
(-0.0316344 -0.0274354 3.33327e-14)
(-0.0298701 -0.0241757 -5.09532e-14)
(-0.0279136 -0.021337 -5.49069e-14)
(-0.0259576 -0.0189692 6.42402e-14)
(-0.0254089 -0.0176752 1.26874e-13)
(-0.0257072 -0.0171983 6.41947e-14)
(-0.0266877 -0.0167088 4.55518e-14)
(-0.0283143 -0.0156647 3.3419e-14)
(-0.0300909 -0.013374 6.30917e-14)
(-0.0308892 -0.00954935 -3.60182e-14)
(-0.0294594 -0.00513558 -5.67663e-14)
(-0.0260672 -0.00161209 3.55352e-15)
(-0.0220375 0.000298239 -1.98133e-14)
(-0.0185991 0.000723853 -6.75583e-15)
(-0.0162796 0.000567986 -4.18626e-14)
(-0.0146383 0.000469448 2.2407e-14)
(-0.0132627 0.000212177 5.69486e-14)
(-0.0122095 -0.000218883 1.25291e-13)
(-0.0115307 -0.000570139 1.24179e-14)
(-0.0111219 -0.0006135 -1.16062e-13)
(-0.0104652 -0.000412595 2.1936e-15)
(-0.0279053 -0.0440993 -6.96428e-14)
(-0.0353657 -0.0441786 -7.25924e-14)
(-0.0323079 -0.0389972 -1.31522e-14)
(-0.0312527 -0.0356125 -3.21268e-14)
(-0.0309242 -0.0321522 7.23079e-14)
(-0.0301447 -0.0287102 -2.92098e-14)
(-0.0290086 -0.0254931 -1.44707e-13)
(-0.0275707 -0.0225401 1.0101e-13)
(-0.0259386 -0.0199032 9.97138e-14)
(-0.0243081 -0.0176216 -5.33001e-15)
(-0.0234949 -0.0161361 -1.57418e-13)
(-0.0238959 -0.0155596 -1.2859e-13)
(-0.0247852 -0.0150499 6.83796e-14)
(-0.0261525 -0.0140225 1.075e-13)
(-0.027589 -0.0120134 -3.91513e-14)
(-0.0282496 -0.00882224 -1.50924e-14)
(-0.0271167 -0.0050882 -1.08589e-14)
(-0.0243086 -0.00195898 7.32102e-16)
(-0.020857 -0.000122535 -1.02492e-14)
(-0.0177703 0.000440516 4.37411e-15)
(-0.0155478 0.000424536 6.8891e-15)
(-0.0139147 0.00038114 -2.79226e-14)
(-0.012573 0.000185957 -1.53629e-14)
(-0.0115912 -0.000180285 -2.9087e-14)
(-0.0110288 -0.000496589 -1.7593e-13)
(-0.010803 -0.00053974 -1.05881e-14)
(-0.0104019 -0.000357426 6.23256e-14)
(-0.0265411 -0.0373746 -1.28947e-13)
(-0.0334875 -0.0370577 3.3145e-14)
(-0.0288427 -0.0325889 1.13704e-13)
(-0.0282049 -0.0295881 -7.84993e-14)
(-0.0275481 -0.0265627 -6.53624e-14)
(-0.0266262 -0.0237149 8.22715e-14)
(-0.0254135 -0.0210684 -1.48529e-13)
(-0.0240351 -0.0186556 1.2489e-14)
(-0.0226429 -0.0165589 2.11706e-13)
(-0.0215903 -0.0148457 8.33351e-14)
(-0.0220896 -0.0141365 1.47035e-13)
(-0.022933 -0.0135564 -3.25838e-14)
(-0.0241066 -0.0125315 -9.96895e-14)
(-0.0252926 -0.0107629 2.22524e-14)
(-0.0258492 -0.00809808 5.12706e-14)
(-0.0249518 -0.00495496 4.02983e-14)
(-0.022641 -0.00220521 2.73707e-15)
(-0.019713 -0.000469854 2.26827e-14)
(-0.0169842 0.000191499 -4.36045e-15)
(-0.0149074 0.000293128 1.46577e-14)
(-0.0133234 0.00030315 1.44919e-14)
(-0.0120101 0.000160412 6.65184e-16)
(-0.0110279 -0.000147608 -7.27032e-14)
(-0.010424 -0.000436519 6.70648e-15)
(-0.0101672 -0.000501605 1.43326e-13)
(-0.00969485 -0.000338016 9.95049e-14)
(-0.0260933 -0.031911 6.09307e-15)
(-0.0308182 -0.0308703 -1.81863e-15)
(-0.0255007 -0.02706 4.81972e-14)
(-0.0249378 -0.0244474 -2.60232e-14)
(-0.0242923 -0.0219278 5.76656e-14)
(-0.0233603 -0.0195561 2.32696e-13)
(-0.0222348 -0.0173572 -6.85698e-14)
(-0.0210675 -0.0154031 -5.85677e-14)
(-0.0199694 -0.0136456 2.69979e-14)
(-0.0203704 -0.0127994 -3.62109e-14)
(-0.0211576 -0.012185 1.63017e-14)
(-0.0221704 -0.0112159 1.46956e-14)
(-0.0231675 -0.00966783 -2.7389e-14)
(-0.0236492 -0.00743021 -1.43132e-14)
(-0.0229389 -0.00478101 -2.809e-14)
(-0.0210386 -0.00237645 3.26189e-15)
(-0.0185679 -0.000755277 3.22115e-15)
(-0.0161777 -3.1331e-05 1.71409e-15)
(-0.0142698 0.000166302 -1.78565e-15)
(-0.0127745 0.000221063 -1.754e-14)
(-0.0115294 0.000120292 5.06193e-15)
(-0.0105753 -0.000139827 7.22954e-14)
(-0.00994555 -0.000399957 8.32296e-14)
(-0.00962664 -0.000487031 -1.67094e-13)
(-0.00914526 -0.000343142 -2.4776e-13)
(-0.0221984 -0.0283789 4.1484e-14)
(-0.0276558 -0.0280185 2.3326e-14)
(-0.0242803 -0.0247113 -1.69655e-14)
(-0.0229316 -0.0225167 1.91793e-14)
(-0.0222779 -0.0202673 9.73612e-15)
(-0.0215138 -0.0181229 -3.75026e-14)
(-0.0205719 -0.0161233 5.74026e-14)
(-0.0195726 -0.0143108 -1.57589e-13)
(-0.01859 -0.0126307 -2.19998e-13)
(-0.018727 -0.0116186 -9.03492e-14)
(-0.0194724 -0.01096 1.68952e-14)
(-0.0203565 -0.0100614 9.7453e-15)
(-0.0212098 -0.00870137 2.63317e-14)
(-0.0216367 -0.00681093 4.52285e-14)
(-0.0210769 -0.0045779 -2.27176e-14)
(-0.0195102 -0.00248656 -1.98792e-14)
(-0.0174319 -0.000989792 6.9593e-16)
(-0.0153492 -0.000233094 -6.9744e-15)
(-0.0136121 3.8845e-05 4.95762e-15)
(-0.0122156 0.00013249 5.40156e-14)
(-0.0110521 6.9013e-05 4.56652e-14)
(-0.0101498 -0.000149208 -1.85807e-14)
(-0.00953145 -0.000381804 -1.74117e-14)
(-0.00917921 -0.000485744 1.06856e-13)
(-0.00876115 -0.000379616 2.07313e-13)
(-0.0205291 -0.023879 1.06237e-14)
(-0.025821 -0.0235541 -1.31836e-14)
(-0.0214698 -0.0206681 3.43081e-14)
(-0.0205937 -0.0186692 -3.72578e-15)
(-0.0198977 -0.0167316 -1.57908e-13)
(-0.0190864 -0.0149159 -5.08784e-14)
(-0.0182011 -0.013239 1.91964e-13)
(-0.0173246 -0.0116693 3.43441e-15)
(-0.0171853 -0.0105357 5.68188e-14)
(-0.0178978 -0.00985158 1.19901e-14)
(-0.0186804 -0.00903962 8.10211e-14)
(-0.0194208 -0.00784839 1.59913e-14)
(-0.01981 -0.00624582 -1.1325e-14)
(-0.0193717 -0.00436083 5.91401e-16)
(-0.0180778 -0.00254649 2.33931e-14)
(-0.0163303 -0.00117806 -7.99306e-15)
(-0.0145222 -0.00041184 6.33118e-15)
(-0.0129498 -8.4879e-05 -1.84103e-15)
(-0.0116531 4.38002e-05 -1.5355e-14)
(-0.0105695 1.23021e-05 -4.35879e-14)
(-0.00971995 -0.000166464 -4.22256e-14)
(-0.00912287 -0.000372849 -6.38424e-15)
(-0.00876277 -0.000485923 1.83763e-14)
(-0.00840022 -0.000424193 -7.57407e-14)
(-0.0199282 -0.0203746 9.8714e-16)
(-0.0234649 -0.0196336 2.03319e-14)
(-0.0188409 -0.0171255 -2.73588e-14)
(-0.0182112 -0.0154039 1.39299e-15)
(-0.0175744 -0.0137557 -3.54308e-14)
(-0.0168427 -0.0122121 -1.11667e-13)
(-0.0160826 -0.0107639 8.70423e-14)
(-0.0157083 -0.00954937 -3.19632e-14)
(-0.0163972 -0.00885962 -5.95387e-14)
(-0.0171107 -0.00812838 -9.38583e-14)
(-0.0177637 -0.00708579 -3.16212e-14)
(-0.0181336 -0.00572685 -3.53746e-14)
(-0.0177997 -0.00413435 4.00015e-14)
(-0.016733 -0.00256448 1.04226e-14)
(-0.0152678 -0.0013238 -1.98883e-14)
(-0.0137076 -0.000567859 6.08487e-15)
(-0.0122959 -0.000202279 2.27508e-14)
(-0.0110988 -4.327e-05 -3.12162e-14)
(-0.0100906 -4.43251e-05 -3.98085e-14)
(-0.00929029 -0.000184469 2.37467e-14)
(-0.00871293 -0.00036399 2.21973e-14)
(-0.00835368 -0.000480854 -1.16289e-14)
(-0.00801806 -0.000457213 -4.78765e-14)
(-0.0171478 -0.018235 -2.24459e-14)
(-0.0214698 -0.0178582 -3.1565e-14)
(-0.0177002 -0.0156702 5.28964e-14)
(-0.016876 -0.014151 3.58691e-14)
(-0.0162727 -0.0126469 2.06003e-14)
(-0.0156255 -0.0112287 9.63909e-14)
(-0.014936 -0.00989686 -5.56711e-14)
(-0.0143679 -0.00865388 8.7295e-14)
(-0.014992 -0.00797337 6.93129e-15)
(-0.01565 -0.00731069 1.26854e-14)
(-0.016232 -0.00640186 1.0882e-13)
(-0.0165893 -0.00524894 2.35694e-14)
(-0.0163437 -0.0039004 -4.37e-14)
(-0.015464 -0.00254422 -2.99144e-14)
(-0.014239 -0.00142746 3.61981e-15)
(-0.0129013 -0.000697285 -3.73315e-15)
(-0.0116454 -0.000307594 -6.55751e-15)
(-0.0105514 -0.000123515 1.44165e-14)
(-0.00962017 -9.75697e-05 3.97803e-14)
(-0.00886907 -0.000202054 1.82963e-14)
(-0.00831153 -0.000354384 3.30495e-14)
(-0.00795552 -0.000470218 3.91714e-15)
(-0.00763325 -0.000473879 5.75161e-15)
(-0.0164853 -0.015444 -3.77938e-14)
(-0.0195204 -0.0148584 -3.02505e-14)
(-0.0154948 -0.0129438 4.46455e-15)
(-0.0149279 -0.0115981 -6.34036e-14)
(-0.0144025 -0.0103021 -9.33287e-14)
(-0.0138175 -0.00907661 1.97718e-14)
(-0.0132315 -0.00789255 -2.00595e-14)
(-0.0136945 -0.00719106 5.89994e-14)
(-0.0143013 -0.00657736 -5.67806e-14)
(-0.014828 -0.00579148 -9.08926e-14)
(-0.0151763 -0.00481251 -1.67902e-14)
(-0.015003 -0.00366737 2.59414e-14)
(-0.0142766 -0.00249571 1.71521e-14)
(-0.0132519 -0.0014964 1.33722e-14)
(-0.0121093 -0.000802358 -2.43318e-16)
(-0.0109997 -0.000401374 -1.28063e-15)
(-0.010008 -0.000197826 -2.18603e-15)
(-0.00915258 -0.000147769 -1.27362e-14)
(-0.00845269 -0.000218347 -1.52001e-14)
(-0.00791928 -0.000345005 -1.78882e-15)
(-0.00756918 -0.00045573 5.82168e-15)
(-0.00726409 -0.000478696 3.48014e-14)
(-0.0142486 -0.0138301 -9.84265e-14)
(-0.0178438 -0.0134803 -5.03058e-14)
(-0.0145949 -0.011809 1.60331e-14)
(-0.0138557 -0.0106196 -1.93856e-14)
(-0.0133371 -0.00943112 5.12456e-14)
(-0.0128033 -0.00830087 8.30991e-14)
(-0.0122563 -0.00721871 -1.50231e-14)
(-0.0124885 -0.00649391 -4.81801e-14)
(-0.0130531 -0.00591916 5.03266e-14)
(-0.0135389 -0.00524175 -3.95357e-14)
(-0.0138813 -0.00441084 4.3936e-14)
(-0.0137684 -0.00343672 -2.08526e-15)
(-0.0131695 -0.00242453 2.46512e-15)
(-0.0123129 -0.00153442 -4.14341e-15)
(-0.0113396 -0.000883865 -1.08272e-15)
(-0.010365 -0.000481516 2.73157e-15)
(-0.0094722 -0.000264193 2.23723e-15)
(-0.00869064 -0.000192965 5.00095e-15)
(-0.00804148 -0.000235179 1.43379e-14)
(-0.00753551 -0.000337076 -3.66793e-14)
(-0.00719488 -0.000441087 -3.91741e-14)
(-0.00691077 -0.000477245 3.03299e-14)
(-0.0136318 -0.0116521 -7.3344e-14)
(-0.0162101 -0.011162 5.64114e-14)
(-0.0127448 -0.00967974 4.81448e-14)
(-0.0122404 -0.00861182 -1.859e-14)
(-0.0117925 -0.00757746 -5.0866e-15)
(-0.0113194 -0.0065936 -9.65149e-15)
(-0.0113733 -0.00586209 -7.43598e-14)
(-0.0119021 -0.00532978 1.18997e-14)
(-0.0123573 -0.00474603 1.00236e-13)
(-0.0126954 -0.00404131 -3.38437e-14)
(-0.0126335 -0.00321221 -1.16515e-14)
(-0.0121404 -0.00233809 -3.11249e-14)
(-0.0114255 -0.00154812 6.3228e-15)
(-0.010598 -0.000945165 -2.8017e-15)
(-0.00974749 -0.000549767 -1.22056e-14)
(-0.00894843 -0.000324082 -1.80759e-14)
(-0.00823727 -0.000234477 -6.48658e-15)
(-0.00763721 -0.000251777 1.39199e-14)
(-0.00716034 -0.000331081 5.12938e-14)
(-0.00683095 -0.000426676 3.3168e-14)
(-0.00656953 -0.000472052 -3.86122e-14)
(-0.0118377 -0.0104362 9.86942e-14)
(-0.0147434 -0.0100987 4.00923e-14)
(-0.0120128 -0.00880869 -5.09844e-14)
(-0.0113677 -0.00786105 -3.59094e-15)
(-0.0109092 -0.00691063 3.82773e-14)
(-0.0104668 -0.00601195 -2.75285e-14)
(-0.0103527 -0.00528332 7.6795e-14)
(-0.0108373 -0.00479787 7.51789e-14)
(-0.0112702 -0.00429685 -2.51654e-14)
(-0.011603 -0.00369857 1.14108e-14)
(-0.0115846 -0.00299295 1.75988e-14)
(-0.0111802 -0.00223801 2.72108e-14)
(-0.0105844 -0.00153962 3.809e-16)
(-0.00988365 -0.000986095 -5.90115e-15)
(-0.00914642 -0.000604918 7.77969e-15)
(-0.00843739 -0.000375408 1.64858e-14)
(-0.00779457 -0.000271719 -1.29047e-14)
(-0.00724282 -0.000268159 -2.41586e-14)
(-0.00679655 -0.000327579 -5.47487e-14)
(-0.00648091 -0.000413356 -5.97425e-14)
(-0.00623961 -0.00046534 1.10112e-14)
(-0.0113523 -0.00873251 2.83085e-14)
(-0.0132258 -0.00830814 5.65224e-14)
(-0.0104372 -0.00713402 1.33015e-14)
(-0.0100194 -0.00628077 7.98728e-15)
(-0.00963979 -0.00547137 -3.00725e-14)
(-0.0094163 -0.00475858 -5.32527e-14)
(-0.00986615 -0.00432189 -3.0962e-14)
(-0.0102809 -0.00389259 -2.81657e-14)
(-0.0106063 -0.00338307 -3.3457e-14)
(-0.0106233 -0.0027824 -2.48962e-14)
(-0.0102928 -0.00213008 -1.80376e-14)
(-0.00979502 -0.00151378 -4.90467e-16)
(-0.00920352 -0.00100945 1.03056e-14)
(-0.00856614 -0.000647319 -2.96249e-15)
(-0.00794074 -0.000418472 -3.38358e-15)
(-0.00736182 -0.000304341 1.59836e-14)
(-0.00685859 -0.000283117 -8.7292e-15)
(-0.00644353 -0.000325321 -6.48089e-14)
(-0.00614334 -0.000400189 -4.29984e-14)
(-0.0059213 -0.000456138 -3.04759e-15)
(-0.010268 -0.00787486 9.70872e-15)
(-0.012282 -0.00748439 -1.79129e-14)
(-0.00958097 -0.00644883 4.19174e-15)
(-0.00916998 -0.00570093 -1.4776e-14)
(-0.00884269 -0.00497131 4.8564e-14)
(-0.00854371 -0.00428059 2.85325e-14)
(-0.00896516 -0.00389015 -3.60992e-14)
(-0.00936171 -0.00352178 6.02947e-15)
(-0.00968306 -0.00308951 2.4133e-14)
(-0.00973229 -0.00257948 -2.10084e-15)
(-0.00946587 -0.00201649 9.89711e-15)
(-0.00905189 -0.00147399 2.92344e-15)
(-0.00855568 -0.00101795 -4.64818e-15)
(-0.00800836 -0.000677845 -1.67756e-15)
(-0.00745949 -0.000453477 -3.16866e-15)
(-0.00694323 -0.000332017 -1.24203e-14)
(-0.00648633 -0.000296955 -5.38989e-15)
(-0.00610293 -0.000323533 4.24701e-14)
(-0.00582025 -0.000387676 6.71631e-14)
(-0.0056155 -0.000444968 6.92323e-15)
(-0.0089293 -0.00702073 1.08907e-14)
(-0.0111121 -0.00673412 -1.47515e-14)
(-0.00900617 -0.00583962 -1.27364e-14)
(-0.00849333 -0.00517746 -3.00909e-14)
(-0.00814808 -0.00451052 9.11486e-15)
(-0.00781967 -0.00387041 -2.88753e-14)
(-0.00814778 -0.00350316 3.32833e-14)
(-0.00851904 -0.00318156 2.40652e-14)
(-0.00883302 -0.00281674 -1.06515e-14)
(-0.00890692 -0.0023838 3.90734e-15)
(-0.00869194 -0.00189743 -3.80521e-15)
(-0.00834844 -0.00142083 -3.90911e-15)
(-0.00793353 -0.00101122 7.33822e-16)
(-0.00746689 -0.000695796 4.21038e-15)
(-0.00698957 -0.000479473 8.48206e-15)
(-0.00653309 -0.000354372 1.76893e-14)
(-0.00612239 -0.000308479 3.32254e-15)
(-0.0057724 -0.00032143 2.46066e-14)
(-0.00550835 -0.000374811 1.34526e-15)
(-0.0053218 -0.000430691 -3.68455e-14)
(-0.0084684 -0.00579732 -1.01899e-13)
(-0.00995674 -0.00547798 -3.24736e-14)
(-0.00778287 -0.0046747 -1.59999e-14)
(-0.00746046 -0.00407997 2.37784e-15)
(-0.00717777 -0.00351049 3.18134e-14)
(-0.00740846 -0.00315863 -1.48808e-14)
(-0.00775868 -0.0028742 -3.65436e-14)
(-0.00806629 -0.00256778 -3.37645e-15)
(-0.0081574 -0.00220007 1.70046e-14)
(-0.00798475 -0.00177901 6.77408e-15)
(-0.00769716 -0.0013602 9.44344e-17)
(-0.00734921 -0.000993181 -3.71907e-15)
(-0.00695046 -0.000702896 -2.71902e-16)
(-0.00653674 -0.00049655 -8.63433e-15)
(-0.0061341 -0.000370773 -6.80807e-15)
(-0.00576649 -0.000316912 4.43335e-14)
(-0.00544926 -0.000318441 1.6529e-14)
(-0.00520663 -0.000361719 -1.05949e-14)
(-0.00503759 -0.000414039 3.40116e-14)
(-0.00765521 -0.00520552 4.03459e-14)
(-0.00921399 -0.00491113 2.65781e-14)
(-0.00712846 -0.00420328 -1.95892e-14)
(-0.00681158 -0.0036865 -2.02634e-14)
(-0.00656703 -0.00317862 1.94855e-14)
(-0.00672266 -0.0028415 -1.52651e-15)
(-0.00705438 -0.00259119 1.87999e-14)
(-0.00735811 -0.00233522 6.89032e-15)
(-0.00746572 -0.00202457 -8.33109e-15)
(-0.00732988 -0.00166093 -7.87454e-15)
(-0.00709271 -0.0012939 2.1221e-15)
(-0.00680216 -0.000966656 2.92776e-15)
(-0.00646398 -0.00070137 2.98707e-16)
(-0.00610616 -0.000506526 -1.24879e-15)
(-0.00575199 -0.000381939 -5.07444e-15)
(-0.0054236 -0.000321817 -3.61101e-14)
(-0.00513603 -0.000313615 -2.51998e-14)
(-0.00491369 -0.000346933 2.17638e-14)
(-0.0047611 -0.000394362 1.61037e-14)
(-0.00667323 -0.00462487 2.9452e-14)
(-0.00828663 -0.00439201 4.67192e-14)
(-0.00667748 -0.00378463 6.34906e-14)
(-0.0062845 -0.00333159 1.24113e-14)
(-0.00602774 -0.00287304 -1.42009e-15)
(-0.00610004 -0.0025502 -5.48093e-14)
(-0.00640755 -0.00233181 -2.14301e-14)
(-0.00670393 -0.00211812 2.05097e-14)
(-0.00682255 -0.00185595 -2.20175e-15)
(-0.00671712 -0.00154227 -1.08414e-15)
(-0.00652265 -0.00122136 7.48441e-15)
(-0.00628271 -0.000931252 -4.45583e-15)
(-0.0059988 -0.000690992 -2.69405e-15)
(-0.00569267 -0.000509334 1.12776e-14)
(-0.00538506 -0.000388082 -8.39478e-15)
(-0.00509446 -0.000323982 6.31364e-15)