/*--------------------------------*- C++ -*----------------------------------*\
| =========                 |                                                 |
| \\      /  F ield         | OpenFOAM: The Open Source CFD Toolbox           |
|  \\    /   O peration     | Version:  2306                                  |
|   \\  /    A nd           | Website:  www.openfoam.com                      |
|    \\/     M anipulation  |                                                 |
\*---------------------------------------------------------------------------*/
FoamFile
{
    version     2.0;
    format      ascii;
    arch        "LSB;label=32;scalar=64";
    class       volScalarField;
    location    "225";
    object      nuTilda;
}
// * * * * * * * * * * * * * * * * * * * * * * * * * * * * * * * * * * * * * //

dimensions      [0 2 -1 0 0 0 0];

internalField   nonuniform List<scalar> 
1340
(
6.28332e-05
6.60316e-05
7.01253e-05
7.52175e-05
8.15733e-05
8.96158e-05
0.000100008
0.0001133
0.000130749
0.000153802
0.000184758
0.000226995
0.000285022
0.000366706
0.000485384
0.000663054
0.000943273
0.00139213
0.00220581
0.00358472
0.00682955
0.0127051
0.0332554
0.0756281
0.0942358
0.0954413
0.0963591
0.0997415
0.103201
0.10493
0.104882
0.103591
0.101192
0.0977475
0.0931331
5.99313e-05
5.72963e-05
5.4546e-05
5.18508e-05
4.91048e-05
4.63239e-05
4.36189e-05
3.80738e-05
3.78539e-05
3.76529e-05
3.74842e-05
3.72886e-05
3.71067e-05
3.69705e-05
3.68501e-05
3.67978e-05
3.68417e-05
3.69049e-05
3.74921e-05
3.95973e-05
4.41948e-05
5.37024e-05
7.16825e-05
0.000107036
0.000172735
0.000314505
0.000584674
0.00129184
0.00279536
0.00689129
0.0199418
0.0386757
0.062093
0.0908749
0.121719
0.146866
0.161141
0.166602
0.167443
0.165879
0.16257
0.158108
3.82464e-05
3.84777e-05
3.86724e-05
3.89333e-05
3.91966e-05
3.94593e-05
4.03581e-05
4.03895e-05
4.04221e-05
4.0457e-05
4.04998e-05
4.05474e-05
4.06018e-05
4.06651e-05
4.07396e-05
4.08265e-05
4.09291e-05
4.10544e-05
4.11929e-05
4.1436e-05
4.14621e-05
4.07823e-05
3.7682e-05
3.26024e-05
5.45634e-06
3.5902e-05
0.000265188
0.000193707
0.00032885
0.000920083
0.00305691
0.00721427
0.0149402
0.0297391
0.0552222
0.090817
0.129444
0.16128
0.181955
0.193927
0.200665
4.03344e-05
4.03e-05
4.02738e-05
4.02345e-05
4.02007e-05
4.01641e-05
4.00298e-05
4.00253e-05
4.00242e-05
4.00249e-05
4.00266e-05
4.00316e-05
4.00407e-05
4.00532e-05
4.00718e-05
4.00969e-05
4.01301e-05
4.01734e-05
4.02296e-05
4.03005e-05
4.03943e-05
4.05002e-05
4.02881e-05
3.95135e-05
3.65201e-05
2.99767e-05
8.3379e-06
4.12298e-05
6.62448e-05
0.000188875
0.000638727
0.00153279
0.00323084
0.000183246
0.00303827
0.0121951
0.0332139
0.0691185
0.114327
0.156756
0.188823
4.00312e-05
4.00358e-05
4.00416e-05
4.00457e-05
4.00529e-05
4.00764e-05
4.00773e-05
4.00777e-05
4.00792e-05
4.00821e-05
4.00857e-05
4.00905e-05
4.00971e-05
4.01056e-05
4.01169e-05
4.01316e-05
4.01509e-05
4.01762e-05
4.02086e-05
4.02525e-05
4.03039e-05
4.03856e-05
4.04403e-05
4.04825e-05
3.97345e-05
3.47849e-05
1.58077e-05
7.3204e-06
3.36475e-06
0
0
0
3.98185e-05
0.000669377
0.00273212
0.000349467
0.00689207
0.0265401
0.0659481
0.118168
4.00764e-05
4.00739e-05
4.00752e-05
4.00734e-05
4.00751e-05
4.00654e-05
4.00649e-05
4.00657e-05
4.00663e-05
4.00666e-05
4.00674e-05
4.00685e-05
4.007e-05
4.00723e-05
4.00754e-05
4.00798e-05
4.00858e-05
4.00939e-05
4.01049e-05
4.01199e-05
4.01402e-05
4.01676e-05
4.01966e-05
4.02511e-05
4.04682e-05
4.07643e-05
4.00483e-05
3.3671e-05
1.73566e-05
7.82039e-06
5.78134e-06
4.38046e-06
1.51869e-06
0
0
7.84144e-05
0.00162817
0.00233455
0.00962833
0.0349077
4.00642e-05
4.0063e-05
4.00648e-05
4.00645e-05
4.00659e-05
4.00663e-05
4.00668e-05
4.0067e-05
4.00672e-05
4.00675e-05
4.00678e-05
4.00685e-05
4.00694e-05
4.00707e-05
4.00725e-05
4.00752e-05
4.00788e-05
4.0084e-05
4.00911e-05
4.01012e-05
4.01146e-05
4.01294e-05
4.01478e-05
4.01556e-05
4.03105e-05
4.05196e-05
4.09526e-05
3.97058e-05
3.54179e-05
2.90881e-05
2.16887e-05
7.40806e-06
6.73572e-06
3.54642e-06
0
0
0.000532395
0.00225436
0.00149764
4.00648e-05
4.00631e-05
4.00639e-05
4.00635e-05
4.00653e-05
4.00655e-05
4.00662e-05
4.00664e-05
4.00663e-05
4.00663e-05
4.00662e-05
4.0066e-05
4.0066e-05
4.00661e-05
4.00663e-05
4.00668e-05
4.00675e-05
4.00687e-05
4.00704e-05
4.0073e-05
4.00769e-05
4.00815e-05
4.00874e-05
4.00903e-05
4.00926e-05
4.00955e-05
4.03009e-05
4.08476e-05
4.13598e-05
4.09604e-05
3.96116e-05
3.6372e-05
3.12064e-05
1.69585e-05
7.91487e-06
2.51343e-06
0
0
0.000359743
4.00642e-05
4.00623e-05
4.00624e-05
4.00617e-05
4.00656e-05
4.00657e-05
4.00661e-05
4.0066e-05
4.00656e-05
4.00654e-05
4.0065e-05
4.00648e-05
4.00646e-05
4.00645e-05
4.00645e-05
4.00647e-05
4.00651e-05
4.00657e-05
4.00668e-05
4.00684e-05
4.00708e-05
4.0074e-05
4.00773e-05
4.00812e-05
4.00819e-05
4.00764e-05
4.0059e-05
4.01306e-05
4.0423e-05
4.09081e-05
4.13991e-05
4.1848e-05
4.18264e-05
3.90799e-05
3.47549e-05
1.18084e-05
5.99675e-06
0
0
4.00645e-05
4.00623e-05
4.00618e-05
4.0065e-05
4.00647e-05
4.00643e-05
4.00639e-05
4.00636e-05
4.00633e-05
4.0063e-05
4.00629e-05
4.00628e-05
4.00627e-05
4.00627e-05
4.00628e-05
4.0063e-05
4.00634e-05
4.00637e-05
4.00647e-05
4.00666e-05
4.00693e-05
4.00649e-05
4.00478e-05
4.00467e-05
4.01303e-05
4.033e-05
4.07031e-05
4.12864e-05
4.18968e-05
4.25215e-05
3.96242e-05
2.62782e-05
8.22945e-06
0
4.00634e-05
4.00629e-05
4.00625e-05
4.00622e-05
4.00619e-05
4.00617e-05
4.00616e-05
4.00616e-05
4.00617e-05
4.00619e-05
4.00623e-05
4.0063e-05
4.00639e-05
4.00648e-05
4.00657e-05
4.00669e-05
4.00686e-05
4.00667e-05
4.00543e-05
4.00371e-05
4.00326e-05
4.00733e-05
4.02016e-05
4.05475e-05
4.10925e-05
4.25054e-05
4.19428e-05
3.45384e-05
8.64632e-06
4.00618e-05
4.00615e-05
4.00612e-05
4.00611e-05
4.00609e-05
4.00608e-05
4.00607e-05
4.00607e-05
4.00606e-05
4.00607e-05
4.00609e-05
4.00614e-05
4.00622e-05
4.00633e-05
4.00648e-05
4.0067e-05
4.0068e-05
4.00641e-05
4.00523e-05
4.00352e-05
4.00133e-05
4.00387e-05
4.00866e-05
4.05628e-05
4.16702e-05
4.3019e-05
3.53109e-05
4.00608e-05
4.00605e-05
4.00603e-05
4.00602e-05
4.00601e-05
4.006e-05
4.00599e-05
4.006e-05
4.00601e-05
4.00604e-05
4.00608e-05
4.00613e-05
4.0062e-05
4.00629e-05
4.00642e-05
4.00662e-05
4.00686e-05
4.00695e-05
4.00669e-05
4.00553e-05
4.0036e-05
3.99964e-05
3.99545e-05
4.01913e-05
4.11364e-05
4.40593e-05
4.006e-05
4.00598e-05
4.00597e-05
4.00597e-05
4.00597e-05
4.00596e-05
4.00596e-05
4.00596e-05
4.00597e-05
4.00599e-05
4.00603e-05
4.00608e-05
4.00615e-05
4.00624e-05
4.00637e-05
4.00656e-05
4.00682e-05
4.00711e-05
4.00736e-05
4.00715e-05
4.00626e-05
4.00102e-05
3.99421e-05
3.99595e-05
4.08648e-05
4.00597e-05
4.00596e-05
4.00595e-05
4.00595e-05
4.00595e-05
4.00594e-05
4.00594e-05
4.00594e-05
4.00595e-05
4.00596e-05
4.00598e-05
4.00602e-05
4.00607e-05
4.00613e-05
4.00623e-05
4.00635e-05
4.00653e-05
4.00676e-05
4.0071e-05
4.00751e-05
4.00799e-05
4.00804e-05
4.00206e-05
4.00593e-05
3.91322e-05
4.00595e-05
4.00595e-05
4.00595e-05
4.00595e-05
4.00595e-05
4.00595e-05
4.00595e-05
4.00595e-05
4.00596e-05
4.00597e-05
4.00599e-05
4.00603e-05
4.00607e-05
4.00614e-05
4.00624e-05
4.00637e-05
4.00653e-05
4.00674e-05
4.00706e-05
4.0074e-05
4.00882e-05
4.00621e-05
4.01627e-05
3.95683e-05
4.00597e-05
4.00597e-05
4.00597e-05
4.00597e-05
4.00598e-05
4.00597e-05
4.00597e-05
4.00598e-05
4.00598e-05
4.006e-05
4.00602e-05
4.00605e-05
4.0061e-05
4.00618e-05
4.00628e-05
4.00642e-05
4.00657e-05
4.00678e-05
4.00694e-05
4.00772e-05
4.00776e-05
4.00887e-05
4.02335e-05
4.00599e-05
4.006e-05
4.006e-05
4.006e-05
4.006e-05
4.006e-05
4.006e-05
4.006e-05
4.00601e-05
4.00602e-05
4.00603e-05
4.00605e-05
4.00609e-05
4.00615e-05
4.00623e-05
4.00634e-05
4.00648e-05
4.00663e-05
4.00682e-05
4.0069e-05
4.0085e-05
4.00233e-05
4.04027e-05
4.00603e-05
4.00603e-05
4.00603e-05
4.00604e-05
4.00604e-05
4.00604e-05
4.00604e-05
4.00604e-05
4.00604e-05
4.00605e-05
4.00607e-05
4.00609e-05
4.00614e-05
4.00621e-05
4.0063e-05
4.00642e-05
4.00654e-05
4.00676e-05
4.00662e-05
4.00832e-05
4.00246e-05
4.02717e-05
4.00606e-05
4.00607e-05
4.00607e-05
4.00607e-05
4.00607e-05
4.00607e-05
4.00607e-05
4.00607e-05
4.00607e-05
4.00608e-05
4.00609e-05
4.00611e-05
4.00615e-05
4.0062e-05
4.00628e-05
4.00638e-05
4.00648e-05
4.00668e-05
4.00662e-05
4.00761e-05
4.00524e-05
4.01214e-05
4.0061e-05
4.0061e-05
4.0061e-05
4.00611e-05
4.00611e-05
4.00611e-05
4.0061e-05
4.00611e-05
4.00611e-05
4.00612e-05
4.00613e-05
4.00616e-05
4.0062e-05
4.00627e-05
4.00635e-05
4.00645e-05
4.0066e-05
4.00668e-05
4.00699e-05
4.00718e-05
4.00514e-05
4.00613e-05
4.00614e-05
4.00614e-05
4.00614e-05
4.00615e-05
4.00615e-05
4.00615e-05
4.00615e-05
4.00615e-05
4.00615e-05
4.00616e-05
4.00618e-05
4.00622e-05
4.00627e-05
4.00634e-05
4.00643e-05
4.00654e-05
4.00669e-05
4.0067e-05
4.00767e-05
4.00427e-05
4.00617e-05
4.00618e-05
4.00618e-05
4.00619e-05
4.00619e-05
4.00619e-05
4.00619e-05
4.00619e-05
4.0062e-05
4.0062e-05
4.00622e-05
4.00625e-05
4.00629e-05
4.00634e-05
4.00642e-05
4.00651e-05
4.00666e-05
4.00665e-05
4.00742e-05
4.00549e-05
4.00621e-05
4.00622e-05
4.00622e-05
4.00623e-05
4.00623e-05
4.00623e-05
4.00624e-05
4.00624e-05
4.00624e-05
4.00625e-05
4.00626e-05
4.00628e-05
4.00631e-05
4.00636e-05
4.00642e-05
4.0065e-05
4.00662e-05
4.00667e-05
4.00707e-05
4.00658e-05
4.00624e-05
4.00625e-05
4.00626e-05
4.00627e-05
4.00627e-05
4.00628e-05
4.00628e-05
4.00629e-05
4.00629e-05
4.00629e-05
4.0063e-05
4.00632e-05
4.00635e-05
4.00639e-05
4.00644e-05
4.00651e-05
4.0066e-05
4.00669e-05
4.00686e-05
4.00704e-05
4.00629e-05
4.0063e-05
4.00631e-05
4.00632e-05
4.00632e-05
4.00633e-05
4.00633e-05
4.00634e-05
4.00634e-05
4.00635e-05
4.00637e-05
4.00639e-05
4.00642e-05
4.00647e-05
4.00653e-05
4.0066e-05
4.0067e-05
4.00679e-05
4.00709e-05
4.00632e-05
4.00634e-05
4.00635e-05
4.00636e-05
4.00637e-05
4.00637e-05
4.00638e-05
4.00639e-05
4.00639e-05
4.0064e-05
4.00641e-05
4.00644e-05
4.00646e-05
4.0065e-05
4.00656e-05
4.00662e-05
4.00671e-05
4.00679e-05
4.00702e-05
4.00636e-05
4.00637e-05
4.00638e-05
4.0064e-05
4.00641e-05
4.00642e-05
4.00643e-05
4.00643e-05
4.00644e-05
4.00645e-05
4.00646e-05
4.00648e-05
4.00651e-05
4.00654e-05
4.00659e-05
4.00665e-05
4.00673e-05
4.00681e-05
4.00697e-05
4.00641e-05
4.00642e-05
4.00644e-05
4.00645e-05
4.00646e-05
4.00647e-05
4.00648e-05
4.00649e-05
4.0065e-05
4.00651e-05
4.00653e-05
4.00655e-05
4.00659e-05
4.00663e-05
4.00668e-05
4.00675e-05
4.00684e-05
4.00696e-05
4.00644e-05
4.00646e-05
4.00647e-05
4.00649e-05
4.00651e-05
4.00652e-05
4.00653e-05
4.00654e-05
4.00655e-05
4.00657e-05
4.00658e-05
4.0066e-05
4.00663e-05
4.00667e-05
4.00672e-05
4.00679e-05
4.00687e-05
4.00697e-05
4.00647e-05
4.00649e-05
4.00651e-05
4.00653e-05
4.00655e-05
4.00656e-05
4.00658e-05
4.00659e-05
4.0066e-05
4.00662e-05
4.00663e-05
4.00665e-05
4.00668e-05
4.00672e-05
4.00676e-05
4.00682e-05
4.0069e-05
4.007e-05
4.00653e-05
4.00655e-05
4.00657e-05
4.00659e-05
4.00661e-05
4.00663e-05
4.00664e-05
4.00665e-05
4.00667e-05
4.00669e-05
4.00671e-05
4.00673e-05
4.00677e-05
4.00681e-05
4.00686e-05
4.00693e-05
4.00703e-05
4.00656e-05
4.00659e-05
4.00661e-05
4.00663e-05
4.00665e-05
4.00667e-05
4.00669e-05
4.0067e-05
4.00672e-05
4.00674e-05
4.00676e-05
4.00679e-05
4.00682e-05
4.00686e-05
4.00691e-05
4.00697e-05
4.00706e-05
4.00659e-05
4.00662e-05
4.00665e-05
4.00667e-05
4.00669e-05
4.00672e-05
4.00674e-05
4.00675e-05
4.00677e-05
4.00679e-05
4.00681e-05
4.00684e-05
4.00687e-05
4.00691e-05
4.00696e-05
4.00702e-05
4.00666e-05
4.00668e-05
4.00671e-05
4.00674e-05
4.00676e-05
4.00678e-05
4.0068e-05
4.00682e-05
4.00684e-05
4.00687e-05
4.00689e-05
4.00692e-05
4.00696e-05
4.00701e-05
4.00707e-05
4.00669e-05
4.00672e-05
4.00675e-05
4.00678e-05
4.00681e-05
4.00683e-05
4.00685e-05
4.00687e-05
4.0069e-05
4.00692e-05
4.00695e-05
4.00698e-05
4.00702e-05
4.00706e-05
4.00712e-05
4.00672e-05
4.00675e-05
4.00679e-05
4.00682e-05
4.00685e-05
4.00687e-05
4.0069e-05
4.00692e-05
4.00695e-05
4.00698e-05
4.007e-05
4.00704e-05
4.00707e-05
4.00712e-05
4.00717e-05
4.00675e-05
4.00679e-05
4.00682e-05
4.00686e-05
4.00689e-05
4.00692e-05
4.00695e-05
4.00697e-05
4.007e-05
4.00703e-05
4.00706e-05
4.00709e-05
4.00713e-05
4.00717e-05
4.00723e-05
4.00678e-05
4.00682e-05
4.00686e-05
4.00689e-05
4.00693e-05
4.00696e-05
4.00699e-05
4.00702e-05
4.00705e-05
4.00708e-05
4.00711e-05
4.00715e-05
4.00719e-05
4.00723e-05
4.00728e-05
4.00685e-05
4.00689e-05
4.00693e-05
4.00697e-05
4.007e-05
4.00703e-05
4.00706e-05
4.0071e-05
4.00713e-05
4.00716e-05
4.0072e-05
4.00724e-05
4.00729e-05
4.00734e-05
4.00687e-05
4.00692e-05
4.00696e-05
4.007e-05
4.00704e-05
4.00707e-05
4.00711e-05
4.00714e-05
4.00718e-05
4.00721e-05
4.00725e-05
4.0073e-05
4.00734e-05
4.00739e-05
4.0069e-05
4.00694e-05
4.00699e-05
4.00703e-05
4.00707e-05
4.00711e-05
4.00715e-05
4.00718e-05
4.00722e-05
4.00726e-05
4.0073e-05
4.00735e-05
4.0074e-05
4.00745e-05
4.00691e-05
4.00696e-05
4.00701e-05
4.00706e-05
4.0071e-05
4.00714e-05
4.00718e-05
4.00722e-05
4.00726e-05
4.00731e-05
4.00735e-05
4.0074e-05
4.00745e-05
4.00751e-05
4.00693e-05
4.00698e-05
4.00703e-05
4.00708e-05
4.00712e-05
4.00717e-05
4.00721e-05
4.00725e-05
4.0073e-05
4.00734e-05
4.00739e-05
4.00744e-05
4.0075e-05
4.00756e-05
4.00699e-05
4.00704e-05
4.00709e-05
4.00714e-05
4.00719e-05
4.00723e-05
4.00728e-05
4.00733e-05
4.00738e-05
4.00743e-05
4.00748e-05
4.00754e-05
4.0076e-05
4.00699e-05
4.00704e-05
4.0071e-05
4.00715e-05
4.0072e-05
4.00725e-05
4.0073e-05
4.00735e-05
4.0074e-05
4.00746e-05
4.00752e-05
4.00758e-05
4.00698e-05
4.00704e-05
4.0071e-05
4.00715e-05
4.00721e-05
4.00726e-05
4.00731e-05
4.00737e-05
4.00742e-05
4.00748e-05
4.00754e-05
4.00761e-05
4.00697e-05
4.00703e-05
4.00709e-05
4.00715e-05
4.0072e-05
4.00726e-05
4.00731e-05
4.00737e-05
4.00743e-05
4.0075e-05
4.00756e-05
4.00763e-05
4.00694e-05
4.007e-05
4.00707e-05
4.00713e-05
4.00719e-05
4.00725e-05
4.00731e-05
4.00737e-05
4.00743e-05
4.0075e-05
4.00757e-05
4.00764e-05
4.00697e-05
4.00704e-05
4.0071e-05
4.00716e-05
4.00722e-05
4.00729e-05
4.00735e-05
4.00742e-05
4.00749e-05
4.00757e-05
4.00764e-05
4.00692e-05
4.00699e-05
4.00706e-05
4.00712e-05
4.00719e-05
4.00725e-05
4.00733e-05
4.0074e-05
4.00747e-05
4.00755e-05
4.00763e-05
4.00686e-05
4.00693e-05
4.007e-05
4.00707e-05
4.00714e-05
4.00721e-05
4.00728e-05
4.00736e-05
4.00744e-05
4.00752e-05
4.00761e-05
4.00678e-05
4.00685e-05
4.00692e-05
4.00699e-05
4.00707e-05
4.00714e-05
4.00722e-05
4.0073e-05
4.00739e-05
4.00747e-05
4.00757e-05
4.00668e-05
4.00676e-05
4.00683e-05
4.00691e-05
4.00698e-05
4.00706e-05
4.00714e-05
4.00723e-05
4.00732e-05
4.00741e-05
4.00751e-05
4.00656e-05
4.00664e-05
4.00672e-05
4.0068e-05
4.00688e-05
4.00696e-05
4.00705e-05
4.00713e-05
4.00723e-05
4.00732e-05
4.00643e-05
4.00651e-05
4.00659e-05
4.00667e-05
4.00675e-05
4.00684e-05
4.00693e-05
4.00702e-05
4.00712e-05
4.00722e-05
4.00636e-05
4.00644e-05
4.00652e-05
4.00661e-05
4.0067e-05
4.00679e-05
4.00688e-05
4.00699e-05
4.00709e-05
4.00618e-05
4.00627e-05
4.00635e-05
4.00644e-05
4.00653e-05
4.00663e-05
4.00673e-05
4.00683e-05
4.00694e-05
4.00598e-05
4.00607e-05
4.00616e-05
4.00625e-05
4.00635e-05
4.00645e-05
4.00655e-05
4.00666e-05
4.00677e-05
4.00575e-05
4.00584e-05
4.00593e-05
4.00603e-05
4.00613e-05
4.00623e-05
4.00634e-05
4.00645e-05
4.00657e-05
4.00546e-05
4.00555e-05
4.00564e-05
4.00574e-05
4.00585e-05
4.00596e-05
4.00607e-05
4.00619e-05
4.00632e-05
4.0051e-05
4.00519e-05
4.00528e-05
4.00538e-05
4.00549e-05
4.00561e-05
4.00573e-05
4.00586e-05
4.00468e-05
4.00477e-05
4.00487e-05
4.00497e-05
4.00507e-05
4.00519e-05
4.00531e-05
4.00545e-05
4.00425e-05
4.00433e-05
4.00442e-05
4.00451e-05
4.00462e-05
4.00473e-05
4.00485e-05
4.00498e-05
4.00388e-05
4.00396e-05
4.00406e-05
4.00416e-05
4.00426e-05
4.00438e-05
4.0045e-05
4.00342e-05
4.0035e-05
4.00359e-05
4.00369e-05
4.00379e-05
4.0039e-05
4.00402e-05
4.00294e-05
4.00302e-05
4.0031e-05
4.0032e-05
4.0033e-05
4.00341e-05
4.00353e-05
4.00247e-05
4.00255e-05
4.00263e-05
4.00273e-05
4.00283e-05
4.00295e-05
4.00307e-05
4.00204e-05
4.00211e-05
4.00219e-05
4.00228e-05
4.00238e-05
4.00248e-05
4.00161e-05
4.00167e-05
4.00174e-05
4.00182e-05
4.00191e-05
4.002e-05
4.00118e-05
4.00123e-05
4.00129e-05
4.00135e-05
4.00143e-05
4.00151e-05
4.00078e-05
4.00081e-05
4.00086e-05
4.0009e-05
4.00097e-05
4.00103e-05
4.00055e-05
4.00056e-05
4.00057e-05
4.00058e-05
4.0006e-05
4.00062e-05
4.00082e-05
4.00081e-05
4.00079e-05
4.00077e-05
4.00074e-05
4.00072e-05
4.00132e-05
4.00131e-05
4.00129e-05
4.00127e-05
4.00125e-05
4.00189e-05
4.00189e-05
4.00189e-05
4.00186e-05
4.00186e-05
4.00249e-05
4.00252e-05
4.00255e-05
4.00257e-05
4.00259e-05
4.00312e-05
4.00316e-05
4.00317e-05
4.00315e-05
4.00357e-05
4.00372e-05
4.00391e-05
4.00411e-05
4.00569e-05
4.0058e-05
4.00591e-05
4.00595e-05
)
;

boundaryField
{
    inlet
    {
        type            freestream;
        freestreamValue uniform 4e-05;
        value           nonuniform List<scalar> 4(4.00569e-05 4.0058e-05 4.00591e-05 4.00595e-05);
    }
    outlet
    {
        type            freestream;
        freestreamValue nonuniform List<scalar> 0();
        value           nonuniform List<scalar> 0();
    }
    walls
    {
        type            fixedValue;
        value           uniform 0;
    }
    frontAndBack
    {
        type            empty;
    }
    procBoundary5to0
    {
        type            processor;
        value           nonuniform List<scalar> 4(4.00658e-05 4.00648e-05 4.00625e-05 4.00613e-05);
    }
    procBoundary5to1
    {
        type            processor;
        value           nonuniform List<scalar> 
13
(
4.15346e-05
3.97097e-05
3.97097e-05
4.01313e-05
4.00567e-05
4.00567e-05
4.00729e-05
4.00678e-05
4.00678e-05
4.00667e-05
4.00648e-05
4.00607e-05
4.00607e-05
)
;
    }
    procBoundary5to4
    {
        type            processor;
        value           nonuniform List<scalar> 
95
(
4.00656e-05
4.00658e-05
4.00656e-05
4.00656e-05
4.00644e-05
4.00639e-05
4.00639e-05
4.00626e-05
4.00621e-05
4.00621e-05
4.00611e-05
4.00611e-05
4.00603e-05
4.00603e-05
4.00599e-05
4.00596e-05
4.00596e-05
4.00597e-05
4.00597e-05
4.00599e-05
4.00603e-05
4.00603e-05
4.00606e-05
4.0061e-05
4.0061e-05
4.00613e-05
4.00617e-05
4.00617e-05
4.0062e-05
4.00623e-05
4.00628e-05
4.00628e-05
4.00631e-05
4.00634e-05
4.00639e-05
4.00639e-05
4.00642e-05
4.00645e-05
4.0065e-05
4.0065e-05
4.00654e-05
4.00657e-05
4.00663e-05
4.00663e-05
4.00666e-05
4.00669e-05
4.00671e-05
4.00674e-05
4.00681e-05
4.00681e-05
4.00683e-05
4.00685e-05
4.00686e-05
4.00687e-05
4.00693e-05
4.00693e-05
4.00693e-05
4.00692e-05
4.0069e-05
4.00687e-05
4.0069e-05
4.0069e-05
4.00685e-05
4.00678e-05
4.0067e-05
4.0066e-05
4.00648e-05
4.00634e-05
4.00627e-05
4.00627e-05
4.00609e-05
4.00589e-05
4.00566e-05
4.00537e-05
4.00501e-05
4.0046e-05
4.00416e-05
4.0038e-05
4.0038e-05
4.00335e-05
4.00286e-05
4.0024e-05
4.00198e-05
4.00155e-05
4.00113e-05
4.00075e-05
4.00055e-05
4.00083e-05
4.00132e-05
4.00132e-05
4.00188e-05
4.00245e-05
4.00308e-05
4.00342e-05
4.00557e-05
)
;
    }
    procBoundary5to6
    {
        type            processor;
        value           nonuniform List<scalar> 
86
(
0.0872709
0.152656
0.203547
0.211026
0.168999
0.0874076
0.0191572
0.000567307
0.000131781
0
0
7.98713e-06
3.2179e-05
4.69086e-05
4.48948e-05
4.03687e-05
3.84503e-05
3.87054e-05
3.95314e-05
4.00667e-05
4.02222e-05
4.0188e-05
4.01213e-05
4.00811e-05
4.00678e-05
4.00672e-05
4.00692e-05
4.00705e-05
4.00709e-05
4.0071e-05
4.0071e-05
4.00712e-05
4.00715e-05
4.0071e-05
4.0071e-05
4.00714e-05
4.00719e-05
4.00724e-05
4.0073e-05
4.00735e-05
4.0074e-05
4.00746e-05
4.00752e-05
4.00757e-05
4.00762e-05
4.00767e-05
4.00764e-05
4.00764e-05
4.00768e-05
4.0077e-05
4.00772e-05
4.00773e-05
4.00772e-05
4.0077e-05
4.00766e-05
4.00761e-05
4.00743e-05
4.00743e-05
4.00732e-05
4.0072e-05
4.00706e-05
4.00689e-05
4.0067e-05
4.00645e-05
4.00599e-05
4.00599e-05
4.00559e-05
4.00512e-05
4.00464e-05
4.00414e-05
4.00366e-05
4.0032e-05
4.0026e-05
4.0026e-05
4.0021e-05
4.0016e-05
4.0011e-05
4.00066e-05
4.0007e-05
4.00122e-05
4.00184e-05
4.0026e-05
4.0032e-05
4.0032e-05
4.00424e-05
4.00601e-05
)
;
    }
}


// ************************************************************************* //
