/*--------------------------------*- C++ -*----------------------------------*\
| =========                 |                                                 |
| \\      /  F ield         | OpenFOAM: The Open Source CFD Toolbox           |
|  \\    /   O peration     | Version:  2306                                  |
|   \\  /    A nd           | Website:  www.openfoam.com                      |
|    \\/     M anipulation  |                                                 |
\*---------------------------------------------------------------------------*/
FoamFile
{
    version     2.0;
    format      ascii;
    arch        "LSB;label=32;scalar=64";
    class       volSymmTensorField;
    location    "225";
    object      turbulenceProperties:devReff;
}
// * * * * * * * * * * * * * * * * * * * * * * * * * * * * * * * * * * * * * //

dimensions      [0 2 -2 0 0 0 0];

internalField   nonuniform List<symmTensor> 
1340
(
(0.00163297 0.00424118 -9.62855e-22 -0.00176908 -2.23133e-20 0.000136115)
(0.00238153 0.00486097 -1.57216e-23 -0.00247915 1.39907e-19 9.76191e-05)
(0.00359951 0.00543937 -2.77468e-20 -0.00379607 -4.33367e-19 0.000196561)
(0.00522847 0.00619087 1.18842e-19 -0.00547364 8.75469e-19 0.000245167)
(0.00739994 0.00684727 -2.25124e-19 -0.00766773 -8.30972e-19 0.000267792)
(0.0103692 0.00723487 -1.71864e-19 -0.0107594 -4.49196e-19 0.000390213)
(0.0142525 0.00734791 3.25183e-19 -0.0147373 1.24825e-18 0.000484795)
(0.0191275 0.00683489 -8.29004e-19 -0.0197084 -2.25396e-18 0.000580919)
(0.025163 0.00533263 -2.0588e-19 -0.0259075 6.02302e-19 0.000744524)
(0.03247 0.00259572 6.122e-19 -0.033368 1.25583e-18 0.000898048)
(0.0412233 -0.00189651 1.57542e-18 -0.042312 5.75977e-19 0.00108875)
(0.051813 -0.00871567 -3.54288e-18 -0.0531279 -3.2897e-18 0.00131488)
(0.0647743 -0.0187779 6.709e-19 -0.0663639 8.66298e-19 0.00158958)
(0.0810162 -0.0336666 2.67948e-18 -0.0829667 1.26979e-18 0.00195055)
(0.10206 -0.0560214 -4.06683e-18 -0.10452 -6.35153e-18 0.00246045)
(0.130146 -0.0901759 -4.3553e-18 -0.133314 -2.57545e-18 0.00316735)
(0.169266 -0.144606 1.91387e-17 -0.17356 1.7721e-17 0.00429436)
(0.223663 -0.231939 1.78543e-17 -0.229533 3.36684e-17 0.00587019)
(0.30921 -0.387097 -3.52131e-17 -0.31779 -5.44957e-17 0.00858016)
(0.425839 -0.641721 -1.44499e-18 -0.438023 1.45301e-17 0.0121842)
(0.660006 -1.20426 -2.70845e-17 -0.679288 5.14032e-17 0.0192823)
(0.946224 -2.12159 -1.11915e-17 -0.972547 4.13887e-17 0.0263228)
(1.73735 -5.05969 -1.42657e-16 -1.78906 -6.2094e-16 0.051713)
(2.43111 -10.3392 3.27234e-16 -2.51585 5.47857e-16 0.0847371)
(1.55447 -11.8292 4.10592e-17 -1.59804 -7.06238e-16 0.0435757)
(0.54338 -11.4475 3.71109e-16 -0.533421 5.73945e-16 -0.00995868)
(-0.142101 -11.249 -8.04801e-17 0.171065 -7.81089e-17 -0.0289642)
(-0.671066 -11.4139 2.74413e-16 0.695327 2.28983e-16 -0.0242608)
(-1.15015 -11.6151 7.34612e-16 1.16619 1.20223e-15 -0.016034)
(-1.59172 -11.6161 4.11421e-16 1.59984 1.98928e-15 -0.00812316)
(-1.98196 -11.3874 -1.42116e-15 1.98023 -1.92421e-15 0.00173733)
(-2.3002 -10.966 -4.8257e-16 2.28973 -7.23593e-16 0.0104621)
(-2.5222 -10.3401 -1.81718e-17 2.50715 -4.38414e-15 0.015053)
(-2.63558 -9.52385 -2.59939e-15 2.61998 -7.28003e-15 0.015602)
(-2.6216 -8.5088 1.0067e-15 2.60718 9.21652e-16 0.0144217)
(0.000966505 0.00369881 2.43598e-21 -0.00101824 5.53895e-20 5.17378e-05)
(0.000549758 0.00318501 -3.59637e-21 -0.00063947 -9.14114e-23 8.9712e-05)
(0.000180808 0.00260135 -1.98478e-20 -0.00022772 -1.36541e-19 4.6912e-05)
(-6.45724e-05 0.00208201 5.33786e-21 3.05311e-05 9.31369e-20 3.40413e-05)
(-0.000176199 0.00159112 3.82764e-21 0.000157953 -1.79165e-20 1.82454e-05)
(-0.000169397 0.00116301 -3.41778e-20 0.000169916 1.11533e-19 -5.19088e-07)
(-8.09847e-05 0.000832426 -2.01975e-19 0.000105274 1.62538e-19 -2.42898e-05)
(0.000579232 -0.000459774 1.24401e-22 -0.000519976 3.99437e-21 -5.92566e-05)
(0.000492526 -0.000546622 2.89897e-20 -0.000425537 7.02775e-20 -6.69883e-05)
(0.000371476 -0.000622251 -2.68625e-20 -0.000291295 -4.73787e-20 -8.01809e-05)
(0.000250671 -0.000651564 -1.8159e-20 -0.000158883 -5.1633e-20 -9.17876e-05)
(0.000133364 -0.000644604 1.22171e-19 -3.29111e-05 2.37056e-19 -0.000100453)
(2.33935e-05 -0.000610087 4.75857e-20 8.57889e-05 7.38266e-20 -0.000109182)
(-6.00394e-05 -0.000551105 2.25618e-19 0.00017681 2.07291e-19 -0.000116771)
(-0.000116414 -0.000478798 -1.16552e-19 0.000238118 -2.24456e-20 -0.000121704)
(-0.000149125 -0.000404628 1.6475e-19 0.000274281 1.14179e-19 -0.000125155)
(-0.000157893 -0.000335891 -5.86291e-21 0.000285017 2.43235e-22 -0.000127124)
(-0.000150068 -0.000278185 -2.2285e-19 0.00027687 -1.90384e-19 -0.000126802)
(-0.000132665 -0.000239641 2.86879e-19 0.000258778 3.57099e-19 -0.000126113)
(-0.000110915 -0.000225497 1.76207e-19 0.000240537 8.85249e-20 -0.000129622)
(-8.64132e-05 -0.00024456 -3.67408e-20 0.000230757 1.98748e-20 -0.000144343)
(-4.92771e-05 -0.000341378 -2.25029e-19 0.000240827 3.71178e-20 -0.00019155)
(5.90325e-05 -0.000650217 4.7268e-19 0.000258769 5.40807e-19 -0.000317802)
(0.000442133 -0.00152492 8.44371e-19 0.00014912 -9.25462e-19 -0.000591254)
(0.00147042 -0.00350507 -4.38812e-18 -0.000473312 -5.68112e-18 -0.000997105)
(0.00409484 -0.00850595 5.05413e-19 -0.00244523 7.36069e-18 -0.0016496)
(0.0102605 -0.0208261 7.317e-18 -0.00768751 -2.06003e-18 -0.00257302)
(0.0284727 -0.0607281 1.51663e-17 -0.0241222 6.0341e-18 -0.00435049)
(0.072102 -0.170975 -2.33736e-17 -0.0658776 -2.21526e-17 -0.00622436)
(0.186714 -0.52449 7.25033e-17 -0.178918 1.80067e-16 -0.00779515)
(0.485049 -1.72322 1.68666e-19 -0.481582 -1.48806e-16 -0.00346703)
(0.725542 -3.44837 -2.67832e-16 -0.74737 1.63152e-16 0.021828)
(0.768981 -5.26129 -9.77852e-17 -0.821052 -6.38857e-16 0.0520706)
(0.591184 -6.98541 7.83912e-19 -0.661066 7.3721e-17 0.0698811)
(0.205367 -8.22894 -2.90906e-16 -0.279238 -4.33293e-16 0.0738714)
(-0.283671 -8.50917 -4.91433e-16 0.218899 -2.77844e-15 0.0647721)
(-0.69276 -7.81864 -1.68117e-16 0.65189 -3.48773e-15 0.0408702)
(-0.91932 -6.64247 5.19927e-16 0.910485 4.83421e-15 0.00883531)
(-0.988991 -5.44093 -9.4856e-16 1.00662 -4.65893e-17 -0.0176251)
(-0.976758 -4.46686 -7.18543e-15 1.00649 1.3364e-15 -0.0297304)
(-0.924326 -3.72625 8.7376e-15 0.954307 1.57584e-14 -0.0299812)
(-0.85833 -3.16324 -1.48243e-15 0.88273 -8.40886e-16 -0.0244)
(0.000645327 -0.000344273 9.36676e-21 -0.000595224 2.30938e-20 -5.01033e-05)
(0.000683964 -0.000223904 -1.27037e-20 -0.000637151 -9.60608e-20 -4.68124e-05)
(0.000691116 -7.57618e-05 -1.86636e-20 -0.000654223 -1.10796e-19 -3.6893e-05)
(0.000653562 8.71872e-05 -7.14309e-21 -0.000627119 1.65323e-19 -2.64424e-05)
(0.000564287 0.000235682 2.01917e-21 -0.000550311 4.31925e-20 -1.39765e-05)
(0.00042843 0.000349096 3.79943e-20 -0.000424887 -1.45932e-19 -3.54277e-06)
(0.000333776 -0.000312197 1.73109e-21 -0.000360071 2.40373e-21 2.62953e-05)
(0.000258572 -0.000371669 -2.73034e-20 -0.000290344 -6.62117e-20 3.17722e-05)
(0.000161194 -0.000412982 -6.00589e-21 -0.00019821 -3.05994e-21 3.70159e-05)
(5.2541e-05 -0.000425859 2.28008e-20 -9.72895e-05 4.91648e-20 4.47485e-05)
(-5.3851e-05 -0.00041267 -7.204e-20 3.09984e-06 -1.46415e-19 5.07512e-05)
(-0.000154129 -0.000372168 -8.19916e-20 9.73859e-05 -1.34341e-19 5.67429e-05)
(-0.00023824 -0.000308329 -1.66265e-19 0.000174868 -2.4568e-19 6.33727e-05)
(-0.000299276 -0.000230711 -1.33679e-20 0.000230549 -1.99834e-21 6.87265e-05)
(-0.000337049 -0.000145508 -7.3054e-20 0.000263729 -1.73801e-19 7.33204e-05)
(-0.000352268 -6.13041e-05 3.05507e-19 0.000274896 3.47557e-19 7.73715e-05)
(-0.000348003 1.62957e-05 -5.00264e-20 0.000268011 6.80443e-20 7.9992e-05)
(-0.000330708 8.35596e-05 3.41517e-20 0.000249772 2.09666e-20 8.09356e-05)
(-0.000306639 0.000138882 -2.33285e-19 0.000226888 -2.9691e-19 7.97513e-05)
(-0.0002806 0.000184363 1.5023e-19 0.000203425 -1.39602e-20 7.71751e-05)
(-0.0002533 0.000218311 4.35684e-20 0.000180813 1.35341e-19 7.24871e-05)
(-0.000223184 0.000237322 5.33854e-20 0.000158181 2.55917e-20 6.50026e-05)
(-0.000181242 0.000230031 -2.43944e-19 0.00012866 -1.42074e-19 5.25811e-05)
(-0.00014063 0.000206811 1.92952e-19 0.000101228 1.43909e-19 3.94028e-05)
(-9.72586e-05 0.000161477 4.8363e-20 7.19463e-05 5.68644e-22 2.53124e-05)
(-0.000119362 0.00021685 -2.7734e-19 9.19917e-05 -4.15929e-20 2.73703e-05)
(-0.00183477 0.00355616 5.35034e-18 0.00148832 -2.10768e-18 0.00034644)
(-0.000843054 0.00169889 9.13385e-20 0.000729986 1.5803e-18 0.000113068)
(-0.000339732 0.000488524 1.33824e-18 0.000353973 -1.98372e-18 -1.42415e-05)
(0.00204012 -0.00755506 -3.97084e-18 -0.0016293 -4.24637e-18 -0.000410817)
(0.012067 -0.0530469 4.65726e-18 -0.0102108 1.61712e-17 -0.00185615)
(0.0298666 -0.178497 -2.73105e-17 -0.0258854 7.29259e-18 -0.00398122)
(0.0497526 -0.457116 1.41552e-17 -0.0438991 1.06821e-18 -0.00585353)
(0.0599145 -1.04065 -1.34613e-17 -0.0528068 7.29576e-17 -0.00710768)
(0.0243701 -2.07721 -4.25066e-16 -0.0175414 2.36387e-16 -0.00682868)
(-0.11302 -3.46552 2.07856e-16 0.116508 3.41865e-16 -0.00348827)
(-0.370439 -4.74124 1.53291e-15 0.365894 -5.72521e-16 0.00454543)
(-0.669878 -5.38357 -2.71844e-15 0.65613 2.1289e-15 0.013748)
(-0.885272 -5.2691 5.14052e-16 0.869613 9.19071e-15 0.0156588)
(-0.966862 -4.71793 -4.96421e-17 0.958035 -6.28715e-15 0.00882685)
(-0.951861 -4.07408 3.03277e-15 0.950036 -2.29354e-15 0.00182494)
(0.000395271 -0.000236215 -3.55355e-21 -0.000419268 -6.76498e-21 2.3997e-05)
(0.00043547 -0.000153805 -1.34308e-20 -0.000454757 -1.88675e-20 1.92865e-05)
(0.000459807 -5.27952e-05 5.58219e-20 -0.000474662 1.19955e-19 1.48542e-05)
(0.000454433 5.47793e-05 1.14185e-20 -0.000463821 -1.38041e-20 9.38831e-06)
(0.000415269 0.000160762 7.8801e-21 -0.000420694 -8.88866e-20 5.42516e-06)
(0.00034161 0.000248201 -2.4758e-20 -0.000343563 6.40459e-20 1.95311e-06)
(0.00030617 -0.000257727 9.50699e-21 -0.000296811 1.62469e-20 -9.35905e-06)
(0.000259257 -0.000305586 -1.3235e-20 -0.000248918 -2.38533e-20 -1.03397e-05)
(0.000195953 -0.000346924 -6.0199e-21 -0.000182734 -3.34992e-21 -1.32193e-05)
(0.00012514 -0.00037375 7.15299e-20 -0.000109319 1.04653e-19 -1.58209e-05)
(5.1954e-05 -0.000382217 4.54874e-20 -3.31371e-05 8.23904e-20 -1.88169e-05)
(-2.10627e-05 -0.000372584 5.7711e-20 4.33694e-05 1.10713e-19 -2.23066e-05)
(-8.64116e-05 -0.000346789 8.81047e-20 0.000112253 1.019e-19 -2.58414e-05)
(-0.000139262 -0.000307854 -5.05316e-20 0.00016864 -7.84568e-20 -2.93776e-05)
(-0.000178141 -0.000260394 -1.80785e-19 0.000211325 -1.79081e-19 -3.31837e-05)
(-0.000201745 -0.000209798 2.3472e-19 0.00023835 1.32184e-19 -3.66059e-05)
(-0.000211344 -0.00015997 1.97423e-19 0.000251171 1.67183e-19 -3.98272e-05)
(-0.000209105 -0.000114073 2.55525e-19 0.00025156 1.2239e-19 -4.24542e-05)
(-0.00019759 -7.42179e-05 -4.20563e-19 0.000241778 -1.34669e-19 -4.41881e-05)
(-0.000179773 -4.1251e-05 -3.57819e-19 0.000224551 -2.40335e-19 -4.47783e-05)
(-0.000157701 -1.51022e-05 4.73528e-19 0.000202158 1.48896e-19 -4.44565e-05)
(-0.000133109 7.36017e-06 9.56942e-20 0.00017529 5.89143e-20 -4.2181e-05)
(-0.000107636 2.64535e-05 -7.10071e-20 0.000145837 7.33852e-21 -3.82009e-05)
(-8.41154e-05 4.24371e-05 -2.28356e-19 0.000117002 -1.49639e-19 -3.28862e-05)
(-6.23953e-05 5.47741e-05 5.23384e-20 8.77434e-05 -2.00764e-20 -2.53482e-05)
(-4.60371e-05 6.26263e-05 2.15778e-19 6.33768e-05 6.65729e-20 -1.73397e-05)
(-3.75386e-05 7.02063e-05 -2.68632e-19 4.85932e-05 -7.72507e-20 -1.10546e-05)
(-6.57954e-05 0.000154445 2.39076e-19 7.95557e-05 3.40227e-20 -1.37602e-05)
(-0.000145638 0.000442595 -1.73965e-19 0.000169906 -3.76999e-20 -2.4268e-05)
(-0.000476846 0.00220509 -1.71238e-18 0.000570611 8.42877e-19 -9.37644e-05)
(-0.000615732 0.00677756 3.72898e-18 0.000899257 -1.19375e-18 -0.000283525)
(0.000483255 0.0127702 -7.23464e-18 8.50356e-05 9.63178e-18 -0.000568291)
(0.00322756 0.0179289 1.50658e-19 -0.0023104 -3.32672e-19 -0.00091716)
(0.000224748 0.000388289 4.16914e-19 -0.000188239 -1.48371e-19 -3.65095e-05)
(0.00351031 -0.00677902 5.21452e-18 -0.00309791 1.30775e-17 -0.000412401)
(0.00937599 -0.0902883 2.39186e-17 -0.00824779 -1.10599e-16 -0.00112819)
(0.00133212 -0.423463 -6.24589e-17 0.000731734 -3.69949e-16 -0.00206385)
(-0.0682354 -1.19146 1.9797e-15 0.07083 5.25025e-16 -0.00259453)
(-0.244605 -2.27803 2.87517e-15 0.245603 6.49829e-16 -0.000998636)
(-0.489256 -3.20397 -1.61405e-15 0.486228 -2.19017e-15 0.00302826)
(-0.692182 -3.61323 -7.19773e-15 0.686383 1.40709e-15 0.0057986)
(0.000342047 -0.000198017 -1.46045e-20 -0.000335762 -2.97027e-20 -6.2858e-06)
(0.000364479 -0.000134876 -5.04284e-21 -0.00035903 2.03717e-20 -5.44893e-06)
(0.000373018 -5.68438e-05 4.83326e-20 -0.000370359 9.1988e-20 -2.65886e-06)
(0.000363585 2.54899e-05 -2.07597e-20 -0.00036229 -1.08243e-21 -1.29443e-06)
(0.000332025 0.000105796 1.80052e-20 -0.00033214 1.14086e-19 1.14752e-07)
(0.000222652 -0.000195771 -1.35331e-20 -0.000225649 -2.01285e-20 2.99738e-06)
(0.000184226 -0.000231271 2.65475e-21 -0.000188563 4.21772e-21 4.33776e-06)
(0.000134585 -0.00026091 1.61109e-20 -0.000139395 1.75013e-20 4.81035e-06)
(7.82003e-05 -0.00027888 -9.89292e-20 -8.43358e-05 -1.40465e-19 6.13544e-06)
(1.91876e-05 -0.000283059 -7.24227e-20 -2.67049e-05 -8.46802e-20 7.51729e-06)
(-4.01441e-05 -0.000272868 1.69205e-19 3.13485e-05 2.02435e-19 8.79556e-06)
(-9.45085e-05 -0.000249025 -1.79627e-19 8.3981e-05 -2.2294e-19 1.05275e-05)
(-0.000140007 -0.000213717 -8.11887e-20 0.000127631 -5.40257e-20 1.23757e-05)
(-0.000174401 -0.000169932 -1.93046e-19 0.000160184 -1.4443e-19 1.42169e-05)
(-0.000196355 -0.000121874 -3.59711e-20 0.000180044 -6.54455e-20 1.63112e-05)
(-0.00020598 -7.29793e-05 2.41622e-20 0.000187578 -8.71445e-21 1.84015e-05)
(-0.000204439 -2.64158e-05 -1.32193e-19 0.000183952 -1.7528e-19 2.04873e-05)
(-0.00019374 1.52661e-05 4.30343e-19 0.000171268 2.94683e-19 2.24724e-05)
(-0.000176268 5.05446e-05 -1.4167e-19 0.000152118 -2.47585e-20 2.41493e-05)
(-0.000154329 7.92242e-05 -3.47138e-19 0.000128802 -1.51764e-19 2.55271e-05)
(-0.000130364 0.000100275 2.30188e-19 0.000104442 4.55708e-21 2.59224e-05)
(-0.000105991 0.000113 -1.67243e-19 8.11698e-05 -9.64561e-20 2.48215e-05)
(-8.17892e-05 0.000118161 2.26418e-21 5.90458e-05 1.22419e-19 2.27433e-05)
(-5.89006e-05 0.000116796 -3.98809e-20 3.89874e-05 -3.13273e-20 1.99132e-05)
(-3.80642e-05 0.00010809 -2.77449e-19 2.18482e-05 -1.91776e-19 1.6216e-05)
(-2.01722e-05 8.72191e-05 1.82508e-19 9.17661e-06 1.77351e-19 1.09956e-05)
(-9.56418e-06 6.43099e-05 3.40264e-21 3.36257e-06 -1.04265e-19 6.2016e-06)
(-6.26588e-06 6.91281e-05 3.84057e-20 1.58385e-06 1.17565e-20 4.68203e-06)
(-1.98853e-06 7.87367e-05 1.11477e-19 -1.79754e-06 -5.03157e-21 3.78607e-06)
(4.22328e-06 8.56457e-05 -3.75853e-20 -7.24759e-06 -1.2009e-20 3.02431e-06)
(9.7972e-06 8.78113e-05 1.2655e-19 -1.19448e-05 2.02629e-20 2.14759e-06)
(1.29934e-05 8.7857e-05 -6.94869e-21 -1.42725e-05 1.60683e-22 1.27916e-06)
(2.33323e-05 0.000139529 -2.23899e-20 -2.43444e-05 -1.3924e-20 1.01209e-06)
(0.00108361 0.00572818 1.18918e-20 -0.00109617 1.48586e-18 1.25684e-05)
(0.0046728 0.0205047 -5.92094e-17 -0.00463934 4.8934e-18 -3.34594e-05)
(0.000595512 0.00191685 -2.33624e-18 -0.000586148 3.92513e-19 -9.36416e-06)
(0.00940495 0.012778 2.37568e-17 -0.00921071 -1.39917e-16 -0.000194243)
(0.0185697 -0.0755237 5.15649e-16 -0.0178481 -6.35724e-16 -0.000721581)
(-0.0183163 -0.510857 -2.78306e-15 0.0200955 1.47076e-16 -0.00177917)
(-0.163064 -1.36795 4.62099e-15 0.16486 1.74792e-15 -0.00179531)
(0.000253064 -0.000152548 8.64058e-21 -0.000256204 3.5026e-21 3.14014e-06)
(0.000274079 -0.00010623 -3.12565e-20 -0.000275839 -4.48504e-20 1.75967e-06)
(0.000285557 -4.93504e-05 3.95737e-21 -0.000287168 2.03179e-20 1.61103e-06)
(0.000283239 1.20448e-05 1.70888e-20 -0.000284059 -5.69588e-20 8.20391e-07)
(0.000264197 7.33099e-05 -1.38719e-19 -0.000264769 -1.99103e-19 5.72511e-07)
(0.000184108 -0.000160715 1.18706e-20 -0.000183004 1.37712e-20 -1.10393e-06)
(0.000155897 -0.000189425 -2.98413e-20 -0.000154899 -3.5823e-20 -9.98765e-07)
(0.000118693 -0.000214656 -2.4048e-21 -0.000117099 -4.99037e-21 -1.59423e-06)
(7.61973e-05 -0.000232122 -1.24191e-20 -7.43162e-05 -6.50201e-21 -1.88115e-06)
(3.11824e-05 -0.000239733 9.85802e-20 -2.89259e-05 1.13383e-19 -2.25649e-06)
(-1.52727e-05 -0.000237112 7.55801e-20 1.82345e-05 6.23623e-20 -2.96175e-06)
(-5.91402e-05 -0.000224344 9.79065e-22 6.27411e-05 3.04534e-20 -3.6009e-06)
(-9.74806e-05 -0.000202511 1.87524e-19 0.000101851 1.81629e-19 -4.3703e-06)
(-0.000128575 -0.000173474 -2.34058e-20 0.00013394 -3.11929e-21 -5.36427e-06)
(-0.000150841 -0.000140034 -6.47448e-20 0.000157241 -3.03987e-20 -6.39939e-06)
(-0.000163921 -0.000104689 1.27163e-19 0.000171496 4.74492e-20 -7.57513e-06)
(-0.000168324 -6.98324e-05 -1.71138e-19 0.000177194 -6.63155e-20 -8.86999e-06)
(-0.000165135 -3.76286e-05 -3.02007e-19 0.000175346 -2.36019e-19 -1.0211e-05)
(-0.000155841 -9.39512e-06 -1.26107e-19 0.000167463 3.25135e-20 -1.16218e-05)
(-0.00014211 1.40874e-05 5.43907e-19 0.000155112 2.45578e-19 -1.30023e-05)
(-0.000125123 3.22375e-05 -3.9282e-19 0.000139387 -1.79011e-19 -1.4264e-05)
(-0.000105638 4.61703e-05 -9.43504e-20 0.000120166 8.18786e-20 -1.45278e-05)
(-8.50804e-05 5.58422e-05 1.76228e-19 9.89798e-05 1.1487e-19 -1.38994e-05)
(-6.50406e-05 6.17262e-05 -1.11001e-19 7.75748e-05 -8.61556e-22 -1.25342e-05)
(-4.68673e-05 6.44268e-05 -3.63309e-20 5.7562e-05 9.10428e-20 -1.06947e-05)
(-3.08703e-05 6.46171e-05 5.05582e-20 3.94249e-05 -3.25943e-20 -8.55464e-06)
(-1.66857e-05 6.14789e-05 -3.65479e-19 2.28512e-05 3.56312e-20 -6.16554e-06)
(-4.19568e-06 5.01279e-05 2.94677e-21 7.60589e-06 -4.89383e-20 -3.41021e-06)
(3.56201e-06 3.93408e-05 -1.58952e-19 -1.99227e-06 1.6059e-20 -1.56974e-06)
(9.26621e-06 3.8332e-05 4.21473e-20 -8.32898e-06 1.23589e-20 -9.37231e-07)
(1.30533e-05 3.69922e-05 -1.31624e-20 -1.22659e-05 -5.57065e-20 -7.87384e-07)
(1.45107e-05 3.62209e-05 -2.76434e-21 -1.37591e-05 -2.61589e-22 -7.5158e-07)
(1.47332e-05 3.7769e-05 6.52261e-21 -1.41399e-05 1.69545e-22 -5.93254e-07)
(1.50647e-05 4.19125e-05 6.64586e-20 -1.4674e-05 -2.26704e-20 -3.90714e-07)
(1.59829e-05 4.78211e-05 5.29581e-20 -1.56808e-05 8.60467e-20 -3.021e-07)
(9.53192e-05 0.000296601 -8.93336e-20 -9.36026e-05 1.84479e-19 -1.71654e-06)
(0.00304448 0.00930642 -3.14979e-17 -0.00299471 1.0255e-17 -4.97678e-05)
(0.00437225 0.0118486 -6.28663e-17 -0.00432353 -4.25482e-17 -4.87153e-05)
(0.0153759 0.0278413 -1.00646e-16 -0.015278 1.13168e-16 -9.79422e-05)
(0.0320197 -0.03265 5.92331e-16 -0.0317438 -6.87674e-16 -0.000275842)
(0.00020626 -0.000126333 -1.30007e-20 -0.000206012 -1.90047e-20 -2.47627e-07)
(0.000221401 -8.98612e-05 4.64321e-21 -0.00022092 1.30417e-21 -4.80594e-07)
(0.000229792 -4.52568e-05 1.23928e-20 -0.000229939 1.25407e-20 1.46123e-07)
(0.000228385 2.89842e-06 -1.11309e-20 -0.000228416 -5.18935e-20 3.1579e-08)
(0.000147373 -0.00013118 -5.84269e-21 -0.000147567 -5.49158e-21 1.94858e-07)
(0.000124549 -0.00015398 1.72045e-22 -0.000125147 -1.48971e-21 5.97947e-07)
(9.4735e-05 -0.00017415 4.14305e-20 -9.52453e-05 4.51438e-20 5.10313e-07)
(6.06234e-05 -0.000188227 1.62684e-21 -6.13784e-05 -8.41628e-22 7.54932e-07)
(2.43313e-05 -0.000194711 -1.42871e-19 -2.53091e-05 -1.51631e-19 9.77866e-07)
(-1.34627e-05 -0.000193124 3.28313e-20 1.23395e-05 3.86473e-20 1.1232e-06)
(-4.97487e-05 -0.000183285 3.20455e-20 4.83277e-05 1.98491e-20 1.42098e-06)
(-8.21798e-05 -0.000165856 -7.42085e-20 8.04029e-05 -1.07955e-19 1.77694e-06)
(-0.000109257 -0.000141998 -1.10854e-19 0.000107142 -6.53947e-20 2.11487e-06)
(-0.00012949 -0.000113687 4.20722e-20 0.000126909 5.53622e-20 2.58087e-06)
(-0.000142293 -8.2819e-05 -2.5192e-19 0.000139187 -2.08401e-19 3.10612e-06)
(-0.000147656 -5.13214e-05 1.67743e-19 0.000143967 1.06768e-19 3.68907e-06)
(-0.000146092 -2.11252e-05 3.40902e-19 0.000141717 1.93189e-19 4.37462e-06)
(-0.000138569 6.42907e-06 4.39375e-19 0.000133436 1.65508e-19 5.13307e-06)
(-0.00012623 3.02991e-05 -5.87605e-19 0.000120253 -4.40024e-19 5.97758e-06)
(-0.000110404 4.99183e-05 3.16074e-19 0.000103436 2.41624e-19 6.9688e-06)
(-9.26458e-05 6.47533e-05 3.38078e-19 8.49699e-05 7.80991e-20 7.67586e-06)
(-7.44265e-05 7.42919e-05 2.15664e-19 6.668e-05 -4.71132e-20 7.74646e-06)
(-5.66684e-05 7.8751e-05 1.1011e-19 4.94741e-05 5.87222e-20 7.19425e-06)
(-4.04155e-05 7.8802e-05 -1.44437e-20 3.4201e-05 8.07021e-20 6.21451e-06)
(-2.64767e-05 7.59792e-05 1.10014e-19 2.15269e-05 -1.81887e-20 4.94977e-06)
(-1.46666e-05 7.14525e-05 3.66317e-19 1.10468e-05 1.54237e-19 3.61976e-06)
(-3.82203e-06 6.66189e-05 -1.54941e-19 1.32032e-06 -2.08257e-20 2.50171e-06)
(6.80936e-06 5.71919e-05 3.95923e-19 -8.49458e-06 9.32532e-20 1.68522e-06)
(1.41627e-05 4.24792e-05 -5.64907e-20 -1.52584e-05 2.20867e-21 1.09568e-06)
(1.67409e-05 2.87793e-05 -1.90139e-20 -1.74163e-05 1.32522e-20 6.75367e-07)
(1.647e-05 1.96565e-05 5.03493e-21 -1.69264e-05 2.18274e-21 4.56445e-07)
(1.53561e-05 1.47782e-05 -1.76444e-20 -1.57681e-05 7.50113e-21 4.12038e-07)
(1.4757e-05 1.32191e-05 -4.2567e-20 -1.51895e-05 -2.43848e-20 4.32517e-07)
(1.43633e-05 1.37753e-05 -3.77704e-21 -1.47584e-05 2.93155e-20 3.95165e-07)
(1.43502e-05 1.66774e-05 2.65745e-21 -1.46604e-05 -2.101e-20 3.10221e-07)
(1.48432e-05 2.22803e-05 1.54601e-19 -1.50462e-05 1.22189e-19 2.02963e-07)
(0.000862099 0.00162654 -1.3417e-17 -0.000866256 1.2628e-17 4.15707e-06)
(0.00390541 0.00832058 -1.8026e-17 -0.00390193 1.11828e-17 -3.47306e-06)
(0.00260918 0.00523166 -3.39405e-17 -0.0026142 1.26284e-18 5.01303e-06)
(0.00016546 -0.000104179 1.85232e-21 -0.000165992 6.09217e-21 5.31179e-07)
(0.000178166 -7.55215e-05 2.82457e-20 -0.000178278 2.49099e-20 1.11286e-07)
(0.000185829 -4.048e-05 -2.82006e-20 -0.000186206 -1.00959e-20 3.77009e-07)
(0.000185907 -2.33137e-06 6.97136e-20 -0.00018602 6.71895e-20 1.12992e-07)
(0.000121483 -0.000109652 -2.61708e-22 -0.000121302 -7.61235e-22 -1.80817e-07)
(0.000103229 -0.000128336 -1.83681e-21 -0.000103225 -1.49819e-21 -3.99777e-09)
(7.93575e-05 -0.000145126 -5.41158e-21 -7.91681e-05 -4.80143e-21 -1.89391e-07)
(5.19849e-05 -0.000157283 -2.98708e-20 -5.1823e-05 -2.75455e-20 -1.61939e-07)
(2.2775e-05 -0.00016361 3.69925e-20 -2.2576e-05 4.12949e-20 -1.98981e-07)
(-7.98335e-06 -0.000163734 1.93377e-19 8.30065e-06 1.6354e-19 -3.17306e-07)
(-3.7928e-05 -0.000157411 -1.16658e-20 3.83098e-05 -3.18614e-20 -3.8173e-07)
(-6.52365e-05 -0.000145007 -8.46606e-20 6.57184e-05 -7.00263e-20 -4.8193e-07)
(-8.88065e-05 -0.000127254 2.2375e-19 8.94645e-05 2.05724e-19 -6.57915e-07)
(-0.000107312 -0.000105564 9.00774e-20 0.000108135 5.69196e-20 -8.2328e-07)
(-0.000120098 -8.13137e-05 -7.33492e-20 0.000121154 -1.25197e-20 -1.05589e-06)
(-0.000127017 -5.59638e-05 -2.73424e-19 0.000128361 -1.32706e-19 -1.34357e-06)
(-0.00012825 -3.10708e-05 -5.13023e-19 0.00012991 -3.90512e-19 -1.65976e-06)
(-0.000124367 -7.84631e-06 -5.90731e-19 0.000126416 -3.52775e-19 -2.04934e-06)
(-0.000116211 1.2727e-05 -3.33927e-20 0.000118712 1.34881e-19 -2.50101e-06)
(-0.000104818 2.98866e-05 2.94123e-20 0.000107844 -6.38313e-20 -3.02548e-06)
(-9.10851e-05 4.32278e-05 -4.42932e-19 9.46848e-05 -2.03299e-19 -3.59976e-06)
(-7.57896e-05 5.281e-05 -2.8817e-19 7.9653e-05 -1.24086e-19 -3.86339e-06)
(-5.99729e-05 5.88659e-05 7.35646e-20 6.37528e-05 6.73403e-21 -3.77991e-06)
(-4.47828e-05 6.17786e-05 3.0602e-19 4.81516e-05 4.10635e-20 -3.36879e-06)
(-3.09866e-05 6.22422e-05 -1.2854e-19 3.3747e-05 -5.32375e-20 -2.76034e-06)
(-1.89357e-05 6.10781e-05 -7.98115e-20 2.10237e-05 -1.50562e-19 -2.08804e-06)
(-8.07588e-06 5.92358e-05 1.51946e-20 9.52903e-06 5.61723e-21 -1.45315e-06)
(2.5483e-06 5.62278e-05 -1.40876e-19 -1.65487e-06 -1.36781e-19 -8.93436e-07)
(1.24679e-05 5.00403e-05 1.01088e-19 -1.19439e-05 2.17251e-20 -5.24019e-07)
(1.91896e-05 3.97569e-05 3.24966e-20 -1.87777e-05 -2.32974e-20 -4.11862e-07)
(2.13316e-05 2.84774e-05 1.34427e-21 -2.09375e-05 -9.15102e-21 -3.94028e-07)
(1.95794e-05 1.84918e-05 3.25315e-20 -1.92905e-05 9.82177e-21 -2.88931e-07)
(1.65263e-05 1.12745e-05 1.85495e-20 -1.63776e-05 1.35333e-20 -1.48688e-07)
(1.30668e-05 6.24494e-06 1.27901e-19 -1.30008e-05 6.83955e-21 -6.60466e-08)
(1.22803e-05 4.0841e-06 -5.24453e-20 -1.22447e-05 5.99948e-20 -3.55634e-08)
(1.18675e-05 3.49285e-06 1.31006e-19 -1.18627e-05 -1.76991e-19 -4.7972e-09)
(1.18169e-05 5.24876e-06 3.1476e-19 -1.18418e-05 1.93819e-19 2.49104e-08)
(1.2447e-05 1.02729e-05 -6.9332e-21 -1.24526e-05 1.52368e-19 5.52966e-09)
(0.000506714 0.000680103 4.59926e-18 -0.000506911 -2.10149e-18 1.97177e-07)
(0.000135961 -8.7806e-05 -4.84332e-21 -0.000136104 -7.44717e-21 1.43193e-07)
(0.000146275 -6.46531e-05 -1.52529e-20 -0.000146203 -1.06353e-20 -7.15038e-08)
(0.000152803 -3.64318e-05 2.37119e-20 -0.000153008 8.87819e-21 2.04831e-07)
(0.000153482 -5.55451e-06 -9.82119e-20 -0.000153498 -7.16144e-20 1.60882e-08)
(0.000100423 -9.24173e-05 -9.23184e-21 -0.000100378 -6.72982e-21 -4.5001e-08)
(8.5368e-05 -0.000107783 -2.91027e-20 -8.54914e-05 -2.6096e-20 1.23448e-07)
(6.57515e-05 -0.000121681 -6.69658e-21 -6.5783e-05 -6.73652e-21 3.14968e-08)
(4.32424e-05 -0.00013188 9.97728e-20 -4.33505e-05 8.74957e-20 1.08141e-07)
(1.92415e-05 -0.000137439 -6.66233e-20 -1.93813e-05 -5.90684e-20 1.39802e-07)
(-6.19719e-06 -0.000138059 -7.01901e-20 6.0678e-06 -7.30177e-20 1.2939e-07)
(-3.11928e-05 -0.000133462 -1.72621e-19 3.10027e-05 -1.2524e-19 1.90131e-07)
(-5.43176e-05 -0.00012385 -1.18151e-19 5.4062e-05 -8.23132e-20 2.55587e-07)
(-7.46775e-05 -0.000109701 1.3033e-19 7.4395e-05 8.49974e-20 2.82487e-07)
(-9.11377e-05 -9.20212e-05 3.60306e-20 9.07662e-05 -1.68719e-21 3.71479e-07)
(-0.00010309 -7.18053e-05 5.62746e-20 0.000102633 6.34539e-20 4.56593e-07)
(-0.000110241 -5.01639e-05 5.0775e-19 0.000109691 3.08785e-19 5.50165e-07)
(-0.000112544 -2.8365e-05 -1.73524e-19 0.000111856 -1.93942e-20 6.87849e-07)
(-0.000110282 -7.45199e-06 3.80748e-19 0.000109445 3.28263e-19 8.37571e-07)
(-0.000104004 1.16534e-05 5.07732e-20 0.00010298 3.91297e-20 1.02388e-06)
(-9.44121e-05 2.8162e-05 -8.9823e-20 9.31448e-05 -4.37718e-20 1.26732e-06)
(-8.23259e-05 4.1666e-05 2.70813e-19 8.07406e-05 1.86567e-19 1.58535e-06)
(-6.88022e-05 5.17083e-05 1.03073e-19 6.69709e-05 7.49752e-20 1.83127e-06)
(-5.47908e-05 5.81555e-05 4.9427e-20 5.29524e-05 -2.46873e-20 1.83838e-06)
(-4.12154e-05 6.12509e-05 -1.8057e-19 3.95445e-05 -1.57723e-19 1.67094e-06)
(-2.87324e-05 6.1613e-05 -2.09102e-21 2.73803e-05 4.04465e-21 1.35209e-06)
(-1.76585e-05 6.0109e-05 -1.01266e-19 1.66689e-05 3.59674e-21 9.8963e-07)
(-7.63939e-06 5.74767e-05 -1.48886e-19 6.96115e-06 -8.1207e-21 6.78246e-07)
(1.82439e-06 5.3729e-05 3.92155e-20 -2.32581e-06 5.06882e-20 5.01414e-07)
(1.04722e-05 4.82286e-05 -6.80113e-21 -1.08646e-05 -4.22206e-20 3.92393e-07)
(1.71201e-05 4.08533e-05 -1.17407e-19 -1.73483e-05 3.91698e-21 2.28115e-07)
(2.07872e-05 3.27226e-05 -1.13163e-20 -2.08422e-05 4.19771e-21 5.4994e-08)
(2.19782e-05 2.53947e-05 3.56778e-21 -2.19731e-05 -8.61566e-21 -5.12133e-09)
(2.16852e-05 1.89666e-05 -2.45985e-20 -2.17107e-05 4.33199e-21 2.54984e-08)
(1.91915e-05 1.22173e-05 2.9359e-20 -1.92277e-05 -1.49026e-19 3.61941e-08)
(1.61191e-05 6.61181e-06 1.78563e-19 -1.61342e-05 -3.47706e-20 1.51165e-08)
(1.12526e-05 2.13564e-06 -2.79508e-19 -1.12566e-05 -1.2237e-20 4.03008e-09)
(1.05551e-05 -7.04239e-08 3.19519e-19 -1.05681e-05 -1.77712e-19 1.30983e-08)
(1.01329e-05 -1.04403e-06 3.11626e-19 -1.01485e-05 -4.17187e-21 1.55459e-08)
(1.01616e-05 6.37697e-07 -3.7048e-19 -1.01928e-05 5.51936e-20 3.11718e-08)
(0.000112415 -7.46105e-05 5.95868e-21 -0.000112574 7.88652e-21 1.58185e-07)
(0.000121093 -5.5719e-05 4.48249e-20 -0.000121069 3.02841e-20 -2.3928e-08)
(0.000126846 -3.27093e-05 -2.87478e-20 -0.00012703 -3.19277e-20 1.83616e-07)
(1.65008e-05 -0.00011681 4.18298e-20 -1.65081e-05 3.67227e-20 7.26505e-09)
(-4.70303e-06 -0.000117795 5.93598e-20 4.736e-06 4.96554e-20 -3.29728e-08)
(-2.56752e-05 -0.000114555 2.50977e-19 2.5695e-05 1.92864e-19 -1.97556e-08)
(-4.52949e-05 -0.000107209 -4.2627e-20 4.53216e-05 -3.26092e-20 -2.67576e-08)
(-6.28759e-05 -9.6085e-05 8.76218e-20 6.29359e-05 4.21386e-20 -6.00388e-08)
(-7.74739e-05 -8.19045e-05 -1.73279e-19 7.75431e-05 -1.00267e-19 -6.91995e-08)
(-8.85308e-05 -6.5409e-05 1.28536e-19 8.86325e-05 7.10541e-20 -1.01791e-07)
(-9.57361e-05 -4.74476e-05 -3.20981e-19 9.58911e-05 -2.50829e-19 -1.55016e-07)
(-9.89563e-05 -2.90023e-05 1.12443e-20 9.91597e-05 3.39603e-20 -2.03334e-07)
(-9.83082e-05 -1.09366e-05 5.13469e-20 9.85788e-05 -2.77414e-20 -2.70574e-07)
(-9.41184e-05 5.89815e-06 8.56863e-20 9.44781e-05 1.71325e-20 -3.59745e-07)
(-8.69077e-05 2.07839e-05 1.39824e-20 8.7368e-05 1.21631e-20 -4.60259e-07)
(-7.73457e-05 3.32052e-05 -1.03609e-19 7.7949e-05 -9.66551e-20 -6.03272e-07)
(-6.61372e-05 4.27864e-05 -1.998e-19 6.68676e-05 -6.29573e-20 -7.30394e-07)
(-5.3962e-05 4.94634e-05 -1.7181e-19 5.47692e-05 -5.02177e-20 -8.07191e-07)
(-4.16659e-05 5.3376e-05 -1.25505e-19 4.24472e-05 3.45347e-20 -7.8127e-07)
(-2.99125e-05 5.49523e-05 -7.96474e-20 3.05874e-05 -8.41913e-21 -6.7487e-07)
(-1.91294e-05 5.47037e-05 -8.5266e-21 1.96511e-05 3.7208e-20 -5.21713e-07)
(-9.23165e-06 5.30928e-05 9.76193e-20 9.59541e-06 6.16749e-20 -3.63759e-07)
(-1.09905e-08 5.00454e-05 -7.00501e-21 2.01885e-07 -3.85926e-20 -1.90895e-07)
(8.19039e-06 4.51215e-05 -5.27693e-20 -8.12739e-06 -8.12286e-21 -6.29948e-08)
(1.44395e-05 3.85208e-05 9.16337e-20 -1.43841e-05 2.70959e-20 -5.54264e-08)
(1.80888e-05 3.14378e-05 1.2082e-20 -1.79846e-05 4.40405e-21 -1.04191e-07)
(1.96249e-05 2.52285e-05 1.43737e-20 -1.95263e-05 -1.48304e-20 -9.85499e-08)
(2.01772e-05 2.02455e-05 9.95304e-21 -2.01393e-05 -4.85602e-21 -3.78639e-08)
(2.03205e-05 1.59155e-05 -2.40445e-19 -2.03223e-05 8.09671e-20 1.79766e-09)
(2.01876e-05 1.18161e-05 -2.04198e-19 -2.01866e-05 -5.90075e-20 -9.44064e-10)
(1.75225e-05 6.83969e-06 1.38097e-19 -1.75122e-05 2.83941e-19 -1.02613e-08)
(1.17687e-05 2.11156e-06 -1.69756e-19 -1.17657e-05 -2.05914e-19 -2.98697e-09)
(9.83558e-06 -6.09238e-07 4.4505e-20 -9.82883e-06 -1.21806e-19 -6.75341e-09)
(9.19858e-06 -2.82126e-06 1.96406e-19 -9.21726e-06 4.29969e-20 1.86864e-08)