/*--------------------------------*- C++ -*----------------------------------*\
| =========                 |                                                 |
| \\      /  F ield         | OpenFOAM: The Open Source CFD Toolbox           |
|  \\    /   O peration     | Version:  2306                                  |
|   \\  /    A nd           | Website:  www.openfoam.com                      |
|    \\/     M anipulation  |                                                 |
\*---------------------------------------------------------------------------*/
FoamFile
{
    version     2.0;
    format      ascii;
    arch        "LSB;label=32;scalar=64";
    class       volSymmTensorField;
    location    "225";
    object      turbulenceProperties:R;
}
// * * * * * * * * * * * * * * * * * * * * * * * * * * * * * * * * * * * * * //

dimensions      [0 2 -2 0 0 0 0];

internalField   nonuniform List<symmTensor> 
1340
(
(0.0144515 0.0030539 -6.93312e-22 0.0120019 -1.60669e-20 0.0133737)
(0.0172306 0.00362838 -1.17351e-23 0.0136025 1.04431e-19 0.0155258)
(0.021011 0.00421458 -2.1499e-20 0.0152806 -3.35785e-19 0.0183743)
(0.0261667 0.00497353 9.54736e-20 0.017569 7.03322e-19 0.0221633)
(0.032519 0.00568983 -1.8707e-19 0.0199983 -6.90508e-19 0.0265924)
(0.0408271 0.00619912 -1.4726e-19 0.0227233 -3.84889e-19 0.0322767)
(0.0515764 0.00646953 2.8631e-19 0.0260521 1.09904e-18 0.0394546)
(0.064999 0.00615766 -7.46863e-19 0.0300111 -2.03063e-18 0.0482901)
(0.0819531 0.00489803 -1.89101e-19 0.0350447 5.53215e-19 0.0595247)
(0.103277 0.0024227 5.71394e-19 0.0418272 1.17212e-18 0.0738092)
(0.130243 -0.0017939 1.49018e-18 0.0512268 5.44816e-19 0.0922795)
(0.165002 -0.00833715 -3.38901e-18 0.064619 -3.14683e-18 0.116697)
(0.210493 -0.0181319 6.4782e-19 0.0838662 8.36496e-19 0.149482)
(0.271581 -0.0327666 2.60785e-18 0.111982 1.23584e-18 0.194629)
(0.356487 -0.0548871 -3.98448e-18 0.154089 -6.22293e-18 0.258904)
(0.478127 -0.0888345 -4.29051e-18 0.218586 -2.53714e-18 0.353036)
(0.660962 -0.143088 1.89379e-17 0.321734 1.75351e-17 0.497722)
(0.937824 -0.230284 1.77269e-17 0.487861 3.34282e-17 0.721585)
(1.41015 -0.38535 -3.50541e-17 0.785981 -5.42498e-17 1.11088)
(2.13935 -0.639936 -1.44097e-18 1.27789 1.44896e-17 1.72684)
(3.71728 -1.2025 -2.70449e-17 2.37995 5.1328e-17 3.0775)
(6.11643 -2.11992 -1.11826e-17 4.19917 4.13562e-17 5.19725)
(13.6414 -5.05817 -1.42614e-16 10.1161 -6.20753e-16 11.9563)
(26.0537 -10.3378 3.27191e-16 21.1074 5.47785e-16 23.7076)
(28.0713 -11.8279 4.10549e-17 24.9191 -7.06163e-16 26.5606)
(26.0076 -11.4463 3.71071e-16 24.9309 5.73885e-16 25.4543)
(24.8557 -11.2478 -8.04718e-17 25.1688 -7.81008e-17 24.9688)
(24.7362 -11.4128 2.74386e-16 26.1025 2.2896e-16 25.383)
(24.7869 -11.614 7.34541e-16 27.103 1.20211e-15 25.9209)
(24.462 -11.615 4.11382e-16 27.6532 1.98909e-15 26.0454)
(23.7012 -11.3863 -1.42103e-15 27.663 -1.92402e-15 25.6847)
(22.5946 -10.965 -4.82523e-16 27.1841 -7.23524e-16 24.905)
(21.1236 -10.3391 -1.817e-17 26.1525 -4.38371e-15 23.6606)
(19.3174 -9.52287 -2.59913e-15 24.5725 -7.27929e-15 21.9684)
(17.1575 -8.50789 1.00659e-15 22.3857 9.21553e-16 19.7932)
(0.0119913 0.00256099 1.68663e-21 0.0106171 3.83506e-20 0.0113579)
(0.010098 0.00211399 -2.38703e-21 0.00930865 -6.06727e-23 0.00979263)
(0.00805677 0.00163849 -1.25014e-20 0.00779945 -8.60019e-20 0.00797243)
(0.00636463 0.0012334 3.16219e-21 0.00642097 5.51749e-20 0.00642304)
(0.00484699 0.000874614 2.104e-21 0.00503067 -9.84843e-21 0.00495388)
(0.00353977 0.000583513 -1.7148e-20 0.00371001 5.59595e-20 0.0036245)
(0.00252107 0.000375308 -9.10624e-20 0.00260505 7.32818e-20 0.00254664)
(0.00226539 -0.000155022 4.19442e-23 0.00189478 1.34678e-21 0.00205012)
(0.00222249 -0.000181764 9.63972e-21 0.00191721 2.33688e-20 0.00203643)
(0.00215714 -0.000204268 -8.81821e-21 0.00193957 -1.55531e-20 0.00200888)
(0.00205794 -0.000211567 -5.89633e-21 0.00192495 -1.67656e-20 0.00194674)
(0.00192851 -0.00020664 3.91641e-20 0.00187521 7.59927e-20 0.00185356)
(0.00178874 -0.000193229 1.50715e-20 0.0018085 2.33826e-20 0.00174675)
(0.0016392 -0.000172961 7.0809e-20 0.00171354 6.50571e-20 0.0016214)
(0.00148314 -0.00014905 -3.62827e-20 0.0015935 -6.9873e-21 0.00148149)
(0.00133583 -0.000125513 5.11045e-20 0.00146717 3.54175e-20 0.00134326)
(0.00119826 -0.000104503 -1.82408e-21 0.00133606 7.56754e-23 0.00120783)
(0.00107217 -8.69211e-05 -6.96311e-20 0.00120557 -5.94869e-20 0.00107944)
(0.000985876 -7.78531e-05 9.31994e-20 0.00111305 1.16012e-19 0.000988005)
(0.000973708 -8.3259e-05 6.50598e-20 0.00110347 3.26856e-20 0.000966801)
(0.00107126 -0.000112989 -1.69746e-20 0.0012178 9.18234e-21 0.0010445)
(0.00140231 -0.000211178 -1.39204e-19 0.00158177 2.29613e-20 0.00131429)
(0.00227263 -0.000509949 3.70711e-19 0.00242928 4.24142e-19 0.00197709)
(0.00455797 -0.00136069 7.53435e-19 0.00429651 -8.25792e-19 0.00363587)
(0.00999147 -0.00330071 -4.13228e-18 0.00816107 -5.3499e-18 0.00766781)
(0.0244531 -0.00824091 4.89664e-19 0.0181168 7.13133e-18 0.0188876)
(0.0604052 -0.0204753 7.19374e-18 0.0427595 -2.02533e-18 0.0477878)
(0.174909 -0.0602616 1.50498e-17 0.122718 5.98774e-18 0.142338)
(0.480623 -0.170366 -2.32903e-17 0.343135 -2.20737e-17 0.402575)
(1.41923 -0.52373 7.23983e-17 1.05413 1.79806e-16 1.22501)
(4.45997 -1.72235 1.68582e-19 3.49383 -1.48732e-16 3.9717)
(8.55952 -3.44748 -2.67763e-16 7.08699 1.6311e-16 7.85599)
(12.5927 -5.26044 -9.77695e-17 11.0029 -6.38754e-16 11.8759)
(16.1765 -6.98464 7.83826e-19 14.9244 7.37128e-17 15.6553)
(18.5 -8.22827 -2.90882e-16 18.0154 -4.33258e-16 18.3685)
(18.6338 -8.50859 -4.91399e-16 19.1363 -2.77826e-15 18.9822)
(16.7456 -7.81815 -1.68107e-16 18.0902 -3.48752e-15 17.4792)
(13.9803 -6.64208 5.19896e-16 15.81 4.83392e-15 14.9084)
(11.3031 -5.44061 -9.48504e-16 13.2986 -4.65865e-17 12.2744)
(9.19118 -4.46659 -7.185e-15 11.1743 1.33632e-15 10.1381)
(7.6154 -3.72603 8.73707e-15 9.49391 1.57575e-14 8.50969)
(6.43248 -3.16304 -1.48234e-15 8.17343 -8.40833e-16 7.26635)
(0.00227117 -0.000117334 3.19234e-21 0.00184837 7.87075e-21 0.00203416)
(0.00225975 -7.74027e-05 -4.39162e-21 0.00180305 -3.32078e-20 0.00200713)
(0.00220818 -2.65016e-05 -6.52855e-21 0.00173758 -3.87566e-20 0.00195353)
(0.00211436 3.0977e-05 -2.53789e-21 0.00165934 5.87381e-20 0.00187276)
(0.0019705 8.50405e-05 7.28573e-22 0.00156832 1.5585e-20 0.00176184)
(0.00177184 0.000127886 1.39187e-20 0.00145924 -5.34603e-20 0.00161359)
(0.00151657 -0.000120219 6.66598e-22 0.00124939 9.25614e-22 0.00139817)
(0.00147672 -0.000143362 -1.05316e-20 0.00126499 -2.55395e-20 0.00138924)
(0.00140813 -0.000159576 -2.32067e-21 0.00126926 -1.18236e-21 0.00136015)
(0.00131862 -0.00016486 8.82674e-21 0.00126062 1.90329e-20 0.00131561)
(0.00122764 -0.00016012 -2.79521e-20 0.00124974 -5.68105e-20 0.00126823)
(0.0011339 -0.000144772 -3.18943e-20 0.00123174 -5.22579e-20 0.00121593)
(0.00104563 -0.000120285 -6.4863e-20 0.0012068 -9.58443e-20 0.0011633)
(0.000971705 -9.03069e-05 -5.23259e-21 0.00117909 -7.82206e-22 0.00111575)
(0.000913626 -5.71798e-05 -2.87077e-20 0.00114971 -6.82979e-20 0.00107489)
(0.000873805 -2.42001e-05 1.20601e-19 0.00112138 1.372e-19 0.00104341)
(0.00084908 6.46723e-06 -1.98539e-20 0.00109356 2.70046e-20 0.00101894)
(0.00084017 3.33774e-05 1.36417e-20 0.00107204 8.375e-21 0.0010046)
(0.000844798 5.58703e-05 -9.38472e-20 0.00105943 -1.19443e-19 0.00100024)
(0.000861791 7.50827e-05 6.11818e-20 0.00105891 -5.68534e-21 0.0010075)
(0.000875944 8.90245e-05 1.77666e-20 0.00105297 5.51904e-20 0.0010088)
(0.000864092 9.3468e-05 2.10256e-20 0.00101429 1.00792e-20 0.000977593)
(0.000761388 7.56547e-05 -8.02304e-20 0.000863311 -4.67266e-20 0.000838289)
(0.000586684 4.62182e-05 4.31209e-20 0.000640735 3.21608e-20 0.000626918)
(1.73204e-05 3.9961e-08 1.19685e-23 1.73622e-05 1.40724e-25 1.73507e-05)
(0.000637048 6.31698e-05 -8.0791e-20 0.000698617 -1.21163e-20 0.000679792)
(0.00681429 0.00342455 5.15232e-18 0.0100144 -2.02967e-18 0.00891477)
(0.00329198 0.0016116 8.66452e-20 0.00478419 1.4991e-18 0.00419897)
(0.000971605 0.000473966 1.29836e-18 0.00164464 -1.92461e-18 0.0012874)
(0.0191682 -0.0074738 -3.92812e-18 0.0155382 -4.20069e-18 0.0167436)
(0.132247 -0.052874 4.64207e-18 0.110042 1.61185e-17 0.118369)
(0.430957 -0.17825 -2.72727e-17 0.375282 7.2825e-18 0.397156)
(1.07035 -0.456811 1.41457e-17 0.976764 1.06749e-18 1.01478)
(2.37518 -1.0403 -1.34567e-17 2.2625 7.29331e-17 2.30818)
(4.63984 -2.07683 -4.24989e-16 4.59794 2.36345e-16 4.60865)
(7.59153 -3.46514 2.07833e-16 7.82103 3.41828e-16 7.70105)
(10.1966 -4.74087 1.53279e-15 10.9329 -5.72477e-16 10.5715)
(11.3834 -5.38323 -2.71827e-15 12.7093 2.12877e-15 12.067)
(10.9846 -5.26881 5.14024e-16 12.7394 9.19021e-15 11.8855)
(9.73289 -4.71769 -4.96396e-17 11.6577 -6.28683e-15 10.7085)
(8.34459 -4.07387 3.03262e-15 10.2464 -2.29342e-15 9.29823)
(0.00155094 -9.08438e-05 -1.36663e-21 0.00123769 -2.60168e-21 0.00140816)
(0.00156444 -5.90409e-05 -5.15566e-21 0.00122271 -7.24263e-21 0.00140468)
(0.00156986 -2.02376e-05 2.13979e-20 0.00121165 4.59816e-20 0.0013993)
(0.00154268 2.09536e-05 4.36767e-21 0.00119144 -5.28019e-21 0.00137245)
(0.00148338 6.138e-05 3.00867e-21 0.00116421 -3.39374e-20 0.0013269)
(0.00138094 9.4576e-05 -9.43393e-21 0.00111986 2.44044e-20 0.00125151)
(0.00128722 -9.74853e-05 3.59603e-21 0.00105914 6.14539e-21 0.00116787)
(0.00127186 -0.00011556 -5.00492e-21 0.00107969 -9.02031e-21 0.00116991)
(0.00124201 -0.000131184 -2.27633e-21 0.00109882 -1.26672e-21 0.00116292)
(0.00120549 -0.000141333 2.7049e-20 0.00111683 3.95744e-20 0.00115219)
(0.00115775 -0.000144549 1.72027e-20 0.00112557 3.11589e-20 0.00113098)
(0.00110026 -0.000140944 2.18314e-20 0.00112463 4.18814e-20 0.00109979)
(0.00103829 -0.000131252 3.33457e-20 0.00111348 3.85669e-20 0.00106121)
(0.00097177 -0.000116596 -1.91382e-20 0.00108838 -2.97146e-20 0.00101339)
(0.00090386 -9.87218e-05 -6.85403e-20 0.00105152 -6.78943e-20 0.000958817)
(0.000836059 -7.96496e-05 8.91112e-20 0.00100314 5.01835e-20 0.000898754)
(0.000769164 -6.08426e-05 7.50877e-20 0.000945076 6.35862e-20 0.000834398)
(0.000703263 -4.34892e-05 9.74158e-20 0.000878886 4.66597e-20 0.000766797)
(0.000638034 -2.83814e-05 -1.60826e-19 0.000806051 -5.14985e-20 0.000696696)
(0.000573578 -1.58354e-05 -1.37359e-19 0.000728789 -9.22596e-20 0.000625399)
(0.000509824 -5.82681e-06 1.82699e-19 0.000648667 5.74479e-20 0.000553517)
(0.000443609 2.85587e-06 3.7131e-20 0.000563273 2.28597e-20 0.00047889)
(0.000377932 1.01481e-05 -2.72398e-20 0.00047517 2.81521e-21 0.000404569)
(0.000320205 1.55944e-05 -8.39143e-20 0.00039411 -5.4988e-20 0.00033903)
(0.000260448 1.66694e-05 1.59281e-20 0.00030614 -6.10984e-21 0.000271723)
(0.000189728 1.08613e-05 3.74226e-20 0.000208703 1.15458e-20 0.000194705)
(1.8196e-05 9.45236e-08 -3.61678e-22 1.8312e-05 -1.04008e-22 1.82317e-05)
(0.000487961 6.22477e-05 9.63572e-20 0.000546543 1.37125e-20 0.000508933)
(0.00122875 0.000331084 -1.30135e-19 0.00146479 -2.82014e-20 0.00131954)
(0.00449584 0.00208864 -1.62194e-18 0.00548798 7.98363e-19 0.00485869)
(0.0143575 0.00667294 3.67142e-18 0.0158491 -1.17532e-18 0.0146846)
(0.0287425 0.0126874 -7.18774e-18 0.0283468 9.56935e-18 0.0276978)
(0.0435233 0.0178736 1.50194e-19 0.0380025 -3.31645e-19 0.0393914)
(0.00117932 0.000367091 3.94154e-19 0.000788877 -1.40271e-19 0.000932323)
(0.0202587 -0.00675678 5.19741e-18 0.0136721 1.30346e-17 0.0163488)
(0.210832 -0.0902144 2.3899e-17 0.193223 -1.10508e-16 0.200337)
(0.942102 -0.423335 -6.24401e-17 0.941502 -3.69838e-16 0.938707)
(2.58361 -1.19129 1.97942e-15 2.72265 5.24949e-16 2.64924)
(4.84649 -2.27784 2.87492e-15 5.33666 6.49773e-16 5.09007)
(6.71228 -3.20377 -1.61395e-15 7.6877 -2.19003e-15 7.20454)
(7.48165 -3.61304 -7.19735e-15 8.86014 1.40702e-15 8.17959)
(0.00128826 -7.49058e-05 -5.5246e-21 0.00103186 -1.1236e-20 0.00115649)
(0.00127778 -5.10339e-05 -1.90809e-21 0.00100402 7.70819e-21 0.00113781)
(0.00125122 -2.15152e-05 1.82937e-20 0.000969851 3.48171e-20 0.00110902)
(0.00121174 9.65005e-06 -7.85928e-21 0.000936933 -4.09791e-22 0.0010736)
(0.00115474 4.00683e-05 6.81912e-21 0.000903197 4.32079e-20 0.00102903)
(0.000963444 -7.42404e-05 -5.13204e-21 0.000793439 -7.63316e-21 0.000880147)
(0.000947305 -8.7707e-05 1.00679e-21 0.000805928 1.59953e-21 0.000879084)
(0.000921604 -9.89496e-05 6.11004e-21 0.000817698 6.63731e-21 0.000872387)
(0.000887984 -0.000105774 -3.75219e-20 0.000826338 -5.32757e-20 0.000860652)
(0.000846688 -0.000107375 -2.74728e-20 0.00082928 -3.21225e-20 0.000842261)
(0.000798534 -0.00010353 6.41987e-20 0.000825659 7.68068e-20 0.000817102)
(0.0007469 -9.45088e-05 -6.81711e-20 0.000814639 -8.46092e-20 0.000786762)
(0.000693737 -8.11378e-05 -3.08234e-20 0.000795346 -2.05109e-20 0.000751589)
(0.000641065 -6.4545e-05 -7.33247e-20 0.000768151 -5.48589e-20 0.000712708)
(0.000591806 -4.63197e-05 -1.36713e-20 0.000734862 -2.48735e-20 0.000672633)
(0.000547241 -2.77592e-05 9.19059e-21 0.000696939 -3.31472e-21 0.000632589)
(0.000508565 -1.00584e-05 -5.03354e-20 0.000656453 -6.67415e-20 0.000594211)
(0.000476762 5.82093e-06 1.64088e-19 0.000615938 1.12362e-19 0.000559203)
(0.000452041 1.93066e-05 -5.41138e-20 0.000577475 -9.45702e-21 0.000528594)
(0.000434246 3.03335e-05 -1.32913e-19 0.000542652 -5.81078e-20 0.00050311)
(0.000421481 3.85003e-05 8.83805e-20 0.000511634 1.74969e-21 0.000481487)
(0.000407854 4.35776e-05 -6.44959e-20 0.000480031 -3.71976e-20 0.000458301)
(0.000388762 4.57019e-05 8.75733e-22 0.000443234 4.73489e-20 0.000429193)
(0.000363322 4.52762e-05 -1.54599e-20 0.000401268 -1.21441e-20 0.000393874)
(0.00032329 4.02196e-05 -1.03237e-19 0.000345583 -7.13584e-20 0.000343487)
(0.000234951 2.337e-05 4.89022e-20 0.000242815 4.75204e-20 0.000243302)
(4.98593e-05 1.09088e-06 5.77184e-23 5.00786e-05 -1.76864e-21 5.01268e-05)
(1.16542e-05 5.53597e-08 3.07564e-23 1.16604e-05 9.41496e-24 1.16629e-05)
(2.79703e-06 2.81936e-09 3.99171e-24 2.79704e-06 -1.80168e-25 2.79724e-06)
(0 0 -0 0 -0 0)
(0 0 0 0 0 0)
(0 0 -0 0 0 0)
(0.0004254 5.21625e-05 -8.37039e-21 0.000407576 -5.20544e-21 0.000417055)
(0.0138446 0.00564377 1.17165e-20 0.0116969 1.46396e-18 0.0127893)
(0.0512119 0.0204299 -5.89935e-17 0.0419338 4.87556e-18 0.0465229)
(0.00493552 0.00186309 -2.27072e-18 0.003787 3.81504e-19 0.00434761)
(0.0444767 0.0127595 2.37224e-17 0.025888 -1.39714e-16 0.0348914)
(0.191154 -0.0754952 5.15454e-16 0.15475 -6.35484e-16 0.17187)
(1.11757 -0.510779 -2.78264e-15 1.15597 1.47054e-16 1.1341)
(2.89835 -1.36784 4.6206e-15 3.22625 1.74777e-15 3.0596)
(0.000972698 -5.78491e-05 3.27668e-21 0.000779574 1.32826e-21 0.000877922)
(0.000974453 -4.02793e-05 -1.18515e-20 0.000765941 -1.70059e-20 0.000871198)
(0.000966471 -1.87135e-05 1.50062e-21 0.000749295 7.7045e-21 0.000858799)
(0.000945813 4.5669e-06 6.47934e-21 0.000730717 -2.15964e-20 0.000838732)
(0.00091071 2.77987e-05 -5.26015e-20 0.000710129 -7.54985e-20 0.000810745)
(0.000790204 -6.09099e-05 4.49887e-21 0.000651071 5.21918e-21 0.00072001)
(0.000782574 -7.17888e-05 -1.13093e-20 0.000664787 -1.35763e-20 0.000723113)
(0.000768179 -8.13543e-05 -9.11414e-22 0.000678815 -1.89134e-21 0.000722591)
(0.000749481 -8.79767e-05 -4.70698e-21 0.000692435 -2.46433e-21 0.000719888)
(0.000725338 -9.0863e-05 3.73636e-20 0.000702556 4.29741e-20 0.000712664)
(0.000696254 -8.98734e-05 2.86474e-20 0.000708954 2.36374e-20 0.00070092)
(0.000664254 -8.50391e-05 3.71122e-22 0.000710454 1.15436e-20 0.000685307)
(0.000629849 -7.67696e-05 7.10881e-20 0.000705413 6.88533e-20 0.000665146)
(0.000594099 -6.57703e-05 -8.87396e-21 0.000693628 -1.18263e-21 0.000640813)
(0.000558251 -5.3101e-05 -2.45513e-20 0.000675076 -1.15272e-20 0.000613024)
(0.000522678 -3.97076e-05 4.82319e-20 0.000649899 1.79971e-20 0.000581979)
(0.000487908 -2.64955e-05 -6.49326e-20 0.000619003 -2.51612e-20 0.000548408)
(0.000454314 -1.42833e-05 -1.14637e-19 0.000583556 -8.95895e-20 0.000513121)
(0.000421951 -3.56839e-06 -4.7897e-20 0.000544747 1.23491e-20 0.000476728)
(0.000390825 5.35499e-06 2.06754e-19 0.000503808 9.33509e-20 0.000439903)
(0.000359664 1.22679e-05 -1.49487e-19 0.000460322 -6.81222e-20 0.000401851)
(0.000326093 1.75963e-05 -3.59586e-20 0.000412151 3.12054e-20 0.000360817)
(0.000291826 2.13162e-05 6.72699e-20 0.000362086 4.38483e-20 0.000318997)
(0.000259726 2.3632e-05 -4.24971e-20 0.000314326 -3.29849e-22 0.000279828)
(0.000232488 2.4956e-05 -1.40729e-20 0.000272939 3.52658e-20 0.0002465)
(0.000210176 2.54252e-05 1.98934e-20 0.000237835 -1.2825e-20 0.000218956)
(0.000186278 2.32781e-05 -1.38383e-19 0.000201248 1.34912e-20 0.000190262)
(0.000130373 1.22817e-05 7.21979e-22 0.000133265 -1.19902e-20 0.000130566)
(3.62555e-05 9.5919e-07 -3.8755e-21 3.61201e-05 3.91544e-22 3.61304e-05)
(7.53152e-06 3.99638e-08 4.39415e-23 7.51318e-06 1.2885e-23 7.52089e-06)
(4.09413e-06 1.15366e-08 -4.10492e-24 4.08624e-06 -1.7373e-23 4.08982e-06)
(2.33717e-06 3.72491e-09 -2.84281e-25 2.33426e-06 -2.69015e-26 2.3356e-06)
(2.9198e-07 5.61354e-11 9.69443e-27 2.91937e-07 2.51992e-28 2.91957e-07)
(0 0 0 0 -0 0)
(0 0 0 0 0 0)
(0.00089752 0.00024268 -7.30929e-20 0.000742944 1.50941e-19 0.000818125)
(0.0246373 0.0092496 -3.13057e-17 0.018635 1.01924e-17 0.0215619)
(0.032282 0.0117981 -6.25981e-17 0.0236233 -4.23667e-17 0.0278799)
(0.0859127 0.0278124 -1.00541e-16 0.0552905 1.1305e-16 0.0704548)
(0.133395 -0.0326407 5.92161e-16 0.0696495 -6.87477e-16 0.101108)
(0.000792064 -4.78763e-05 -4.92685e-21 0.000635826 -7.20219e-21 0.000713805)
(0.000788785 -3.40523e-05 1.75951e-21 0.00062117 4.94208e-22 0.000704704)
(0.000778871 -1.71514e-05 4.69661e-21 0.000604643 4.75269e-21 0.00069184)
(0.000761032 1.09843e-06 -4.21831e-21 0.000587916 -1.96663e-20 0.000674492)
(0.000638669 -4.97175e-05 -2.21439e-21 0.000526886 -2.08132e-21 0.000582888)
(0.000632576 -5.83602e-05 6.5207e-23 0.000537938 -5.64617e-22 0.000585597)
(0.000621685 -6.60067e-05 1.57031e-20 0.000549678 1.71105e-20 0.000585972)
(0.000607266 -7.13428e-05 6.16613e-22 0.000561024 -3.18998e-22 0.000584574)
(0.000588856 -7.38013e-05 -5.41523e-20 0.000570041 -5.74728e-20 0.000580005)
(0.000566472 -7.32008e-05 1.24442e-20 0.000576252 1.46487e-20 0.000572)
(0.000541446 -6.9473e-05 1.21466e-20 0.000578622 7.52367e-21 0.000560842)
(0.000514339 -6.28689e-05 -2.81292e-20 0.000575967 -4.0921e-20 0.000546163)
(0.000485846 -5.38278e-05 -4.2022e-20 0.000567878 -2.47895e-20 0.000528065)
(0.000457036 -4.30988e-05 1.59497e-20 0.000554237 2.09879e-20 0.000507104)
(0.000428491 -3.14001e-05 -9.55132e-20 0.000535212 -7.90131e-20 0.000483618)
(0.000400809 -1.94608e-05 6.36075e-20 0.000511391 4.04858e-20 0.000458198)
(0.000374584 -8.01221e-06 1.29295e-19 0.000483742 7.32713e-20 0.000431652)
(0.000350211 2.43906e-06 1.6669e-19 0.000453404 6.27902e-20 0.000404729)
(0.000327898 1.14994e-05 -2.23012e-19 0.000421445 -1.67001e-19 0.000378075)
(0.000308031 1.89558e-05 1.20025e-19 0.000389234 9.17534e-20 0.000352602)
(0.000291314 2.46073e-05 1.28475e-19 0.000358811 2.9679e-20 0.000329438)
(0.000276413 2.8255e-05 8.20225e-20 0.000330079 -1.79183e-20 0.000307665)
(0.000260938 2.9981e-05 4.19195e-20 0.000301348 2.23559e-20 0.000285251)
(0.000243819 3.00132e-05 -5.50115e-21 0.000272238 3.07369e-20 0.000261578)
(0.00022685 2.91825e-05 4.22548e-20 0.000245287 -6.98602e-21 0.00023892)
(0.000210466 2.77535e-05 1.42284e-19 0.000220454 5.99085e-20 0.000217569)
(0.000197709 2.64711e-05 -6.15662e-20 0.000199752 -8.2751e-21 0.000200222)
(0.000172283 2.12464e-05 1.47083e-19 0.000166597 3.4643e-20 0.000170379)
(0.000126087 1.19429e-05 -1.58823e-20 0.000117815 6.20965e-22 0.000122413)
(7.56889e-05 4.53709e-06 -2.99756e-21 7.0304e-05 2.08922e-21 7.31561e-05)
(3.64324e-05 1.11458e-06 2.85494e-22 3.45387e-05 1.23767e-22 3.55244e-05)
(3.69621e-06 1.2411e-08 -1.48181e-23 3.67007e-06 6.29958e-24 3.68366e-06)
(2.84384e-06 7.59178e-09 -2.44464e-23 2.82664e-06 -1.40043e-23 2.83561e-06)
(7.8996e-07 6.08719e-10 -1.66904e-25 7.88673e-07 1.29542e-24 7.89343e-07)
(0 0 0 0 -0 0)
(0 0 0 0 0 0)
(0.00486993 0.00159649 -1.31691e-17 0.00317351 1.23946e-17 0.00402784)
(0.0242224 0.00828384 -1.79464e-17 0.0164495 1.11334e-17 0.0203308)
(0.0155006 0.00519695 -3.37154e-17 0.0103119 1.25446e-18 0.0129138)
(0.000640729 -3.94816e-05 7.01993e-22 0.000515116 2.30881e-21 0.000578225)
(0.000639061 -2.86184e-05 1.07035e-20 0.000503989 9.43943e-21 0.000571588)
(0.000632552 -1.53404e-05 -1.06869e-20 0.000491565 -3.82594e-21 0.000562273)
(0.000619604 -8.83477e-07 2.64181e-20 0.000478661 2.54616e-20 0.000549196)
(0.000529082 -4.15573e-05 -9.9185e-23 0.000437069 -2.88501e-22 0.000482973)
(0.000525458 -4.86387e-05 -6.96143e-22 0.000447213 -5.67808e-22 0.000486333)
(0.000518369 -5.50041e-05 -2.05104e-21 0.000458286 -1.81979e-21 0.00048822)
(0.00050878 -5.96125e-05 -1.13215e-20 0.000469435 -1.04401e-20 0.000489015)
(0.000496373 -6.201e-05 1.40206e-20 0.000479184 1.56512e-20 0.000487665)
(0.00048106 -6.20567e-05 7.32921e-20 0.000487232 6.19833e-20 0.000483966)
(0.00046388 -5.96602e-05 -4.42144e-21 0.000492775 -1.20757e-20 0.00047811)
(0.000445098 -5.49585e-05 -3.20868e-20 0.00049473 -2.65403e-20 0.00046964)
(0.000425129 -4.82299e-05 8.48025e-20 0.000492694 7.79706e-20 0.000458538)
(0.000404711 -4.00096e-05 3.41399e-20 0.000486367 2.15729e-20 0.000445071)
(0.000384074 -3.08188e-05 -2.78002e-20 0.000475511 -4.74511e-21 0.000429192)
(0.000363579 -2.12115e-05 -1.03633e-19 0.000460372 -5.02985e-20 0.000411212)
(0.000343509 -1.1777e-05 -1.94455e-19 0.000441362 -1.48019e-19 0.000391492)
(0.000323971 -2.97423e-06 -2.23923e-19 0.000419033 -1.33723e-19 0.000370337)
(0.000305018 4.82476e-06 -1.26591e-20 0.000394077 5.11329e-20 0.000348125)
(0.000286711 1.13315e-05 1.11517e-20 0.000367342 -2.42017e-20 0.000325306)
(0.000268445 1.63934e-05 -1.67974e-19 0.000338895 -7.70975e-20 0.000301622)
(0.0002493 2.00322e-05 -1.0931e-19 0.000308264 -4.70692e-20 0.000276584)
(0.000230025 2.23366e-05 2.7914e-20 0.000276973 2.55522e-21 0.000251348)
(0.000211828 2.34456e-05 1.16138e-19 0.000247098 1.5584e-20 0.000227545)
(0.000195827 2.36245e-05 -4.87884e-20 0.000220397 -2.02067e-20 0.000206541)
(0.000182868 2.31864e-05 -3.02979e-20 0.000198037 -5.71562e-20 0.000189264)
(0.000174368 2.27398e-05 5.83303e-21 0.000181126 2.15638e-21 0.00017691)
(0.000168742 2.22207e-05 -5.56732e-20 0.000167081 -5.40547e-20 0.000167382)
(0.000159406 2.03013e-05 4.10114e-20 0.000149502 8.81386e-21 0.000154135)
(0.0001391 1.58039e-05 1.29178e-20 0.000124008 -9.26103e-21 0.000131308)
(0.000111994 1.05231e-05 4.96742e-22 9.63748e-05 -3.38152e-21 0.000103966)
(8.0332e-05 5.56983e-06 9.79865e-21 6.86242e-05 2.95837e-21 7.43476e-05)
(5.07957e-05 2.21311e-06 3.64114e-21 4.43369e-05 2.6565e-21 4.75225e-05)
(1.29536e-05 1.39199e-07 2.85089e-21 1.23726e-05 1.52453e-22 1.26609e-05)
(2.54369e-06 4.46703e-09 -5.73626e-23 2.51687e-06 6.562e-23 2.53022e-06)
(2.44683e-07 3.89444e-11 1.46068e-24 2.44419e-07 -1.97341e-24 2.44551e-07)
(0 0 0 0 0 0)
(0 0 -0 0 0 0)
(0.00233577 0.000661572 4.47394e-18 0.00134976 -2.04423e-18 0.00184305)
(0.000529612 -3.32755e-05 -1.83545e-21 0.000426509 -2.82223e-21 0.000478142)
(0.000527551 -2.44989e-05 -5.77975e-21 0.000416723 -4.03e-21 0.000472096)
(0.000522032 -1.38051e-05 8.98516e-21 0.000406151 3.36422e-21 0.000464208)
(0.000511666 -2.1047e-06 -3.72141e-20 0.000395346 -2.71359e-20 0.000453515)
(0.000441007 -3.50259e-05 -3.49884e-21 0.000364904 -2.55058e-21 0.00040293)
(0.000438472 -4.08497e-05 -1.10299e-20 0.000373717 -9.89035e-21 0.000406165)
(0.000433353 -4.61178e-05 -2.53804e-21 0.000383501 -2.55318e-21 0.000408445)
(0.000426265 -4.99832e-05 3.78143e-20 0.000393446 3.31612e-20 0.000409917)
(0.000417117 -5.20888e-05 -2.525e-20 0.000402479 -2.23868e-20 0.000409877)
(0.000405722 -5.23232e-05 -2.66015e-20 0.00041037 -2.76731e-20 0.00040812)
(0.000392827 -5.05799e-05 -6.54207e-20 0.000416398 -4.74639e-20 0.00040472)
(0.000378598 -4.69366e-05 -4.47771e-20 0.000419672 -3.11951e-20 0.00039928)
(0.000363326 -4.15741e-05 4.93921e-20 0.000419821 3.2212e-20 0.000391734)
(0.000347512 -3.48736e-05 1.36547e-20 0.000416448 -6.39401e-22 0.000382191)
(0.000331354 -2.72124e-05 2.13266e-20 0.000409318 2.40474e-20 0.000370596)
(0.000315129 -1.9011e-05 1.92426e-19 0.000398479 1.17023e-19 0.000357117)
(0.000299093 -1.07499e-05 -6.57632e-20 0.000384137 -7.3501e-21 0.000342006)
(0.000283381 -2.8243e-06 1.44303e-19 0.000366658 1.24411e-19 0.000325496)
(0.000268147 4.41688e-06 1.92441e-20 0.000346599 1.4831e-20 0.000307955)
(0.000253409 1.06749e-05 -3.40478e-20 0.000324503 -1.65919e-20 0.000289677)
(0.000239271 1.57958e-05 1.02666e-19 0.00030109 7.07285e-20 0.000271082)
(0.000226056 1.96063e-05 3.90823e-20 0.000277538 2.84285e-20 0.000252839)
(0.000213479 2.20549e-05 1.87447e-20 0.00025434 -9.36241e-21 0.000234955)
(0.000201168 2.32338e-05 -6.84942e-20 0.000231802 -5.98276e-20 0.000217435)
(0.000189141 2.33721e-05 -7.93202e-22 0.000210426 1.53428e-21 0.000200553)
(0.000177968 2.27947e-05 -3.84024e-20 0.000190986 1.36396e-21 0.00018504)
(0.000168202 2.17756e-05 -5.64069e-20 0.000173734 -3.07661e-21 0.000171353)
(0.000159611 2.04357e-05 1.49155e-20 0.000158033 1.92792e-20 0.000159108)
(0.000150551 1.86364e-05 -2.62808e-21 0.000142306 -1.63148e-20 0.000146656)
(0.00013902 1.61958e-05 -4.65444e-20 0.000125355 1.55283e-21 0.000132323)
(0.000124696 1.33018e-05 -4.60009e-21 0.000107773 1.70638e-21 0.000116268)
(0.000110227 1.05548e-05 1.48288e-21 9.19595e-05 -3.58094e-21 0.00010109)
(9.57379e-05 7.87484e-06 -1.02131e-20 7.77202e-05 1.79862e-21 8.6745e-05)
(7.32018e-05 4.37841e-06 1.05216e-20 5.94332e-05 -5.34073e-20 6.6337e-05)
(5.08356e-05 1.76749e-06 4.7734e-20 4.22136e-05 -9.29499e-21 4.65307e-05)
(5.02547e-06 1.14863e-08 -1.50331e-21 4.90441e-06 -6.58156e-23 4.96497e-06)
(1.19192e-06 -2.54208e-11 1.15336e-22 1.1843e-06 -6.41485e-23 1.18812e-06)
(0 -0 0 0 -0 0)
(0 0 -0 0 0 0)
(0.000441198 -2.82754e-05 2.25818e-21 0.000355933 2.98878e-21 0.000398655)
(0.000439446 -2.11135e-05 1.69855e-20 0.000347683 1.14755e-20 0.000393551)
(0.00043512 -1.23941e-05 -1.0893e-20 0.000338922 -1.20979e-20 0.000387125)
(0.0003546 -4.42691e-05 1.58528e-20 0.00034209 1.39173e-20 0.000348349)
(0.000346325 -4.46416e-05 2.2496e-20 0.000349902 1.88182e-20 0.000348095)
(0.000336928 -4.34128e-05 9.51123e-20 0.000356395 7.30895e-20 0.00034665)
(0.00032651 -4.06278e-05 -1.61539e-20 0.00036085 -1.23576e-20 0.000343665)
(0.000315287 -3.64118e-05 3.32046e-20 0.000362964 1.59686e-20 0.000339091)
(0.000303611 -3.10376e-05 -6.56638e-20 0.000362354 -3.7996e-20 0.000332943)
(0.000291592 -2.47863e-05 4.87079e-20 0.000358727 2.69255e-20 0.000325102)
(0.000279427 -1.79798e-05 -1.21633e-19 0.000352042 -9.5049e-20 0.000315646)
(0.000267276 -1.09901e-05 4.26091e-21 0.00034235 1.28689e-20 0.000304697)
(0.000255218 -4.14429e-06 1.94572e-20 0.000329825 -1.05122e-20 0.000292368)
(0.000243323 2.23503e-06 3.24697e-20 0.000314789 6.49213e-21 0.000278852)
(0.00023159 7.87582e-06 5.29847e-21 0.00029763 4.60905e-21 0.000264348)
(0.000220064 1.25829e-05 -3.92618e-20 0.000278912 -3.66268e-20 0.000249145)
(0.000208458 1.6214e-05 -7.57144e-20 0.00025886 -2.38578e-20 0.000233244)
(0.00019661 1.87445e-05 -6.51087e-20 0.000237815 -1.90303e-20 0.000216754)
(0.000184896 2.02283e-05 -4.75636e-20 0.000216773 1.30879e-20 0.00020039)
(0.000173917 2.08279e-05 -3.01878e-20 0.000196847 -3.191e-21 0.000184998)
(0.000164152 2.07367e-05 -3.23221e-21 0.000178853 1.41046e-20 0.000171206)
(0.000155729 2.01212e-05 3.69959e-20 0.000162864 2.33736e-20 0.00015909)
(0.000147742 1.89484e-05 -2.65227e-21 0.000147823 -1.46121e-20 0.000147674)
(0.000138467 1.70831e-05 -1.99786e-20 0.000132289 -3.07534e-21 0.000135342)
(0.000127037 1.46511e-05 3.48521e-20 0.000116074 1.03057e-20 0.000121524)
(0.00011433 1.20875e-05 4.64543e-21 0.00010046 1.69331e-21 0.000107335)
(0.00010271 9.89491e-06 5.63753e-21 8.73549e-05 -5.81665e-21 9.49747e-05)
(9.3695e-05 8.1832e-06 4.023e-21 7.73992e-05 -1.96279e-21 8.55242e-05)
(8.62001e-05 6.63071e-06 -1.00174e-19 6.92675e-05 3.37325e-20 7.77349e-05)
(7.94785e-05 5.07132e-06 -8.76392e-20 6.21504e-05 -2.53252e-20 7.08139e-05)
(6.16894e-05 2.52922e-06 5.10662e-20 4.8734e-05 1.04998e-19 5.5206e-05)
(2.38807e-05 2.3762e-07 -1.91031e-20 2.12323e-05 -2.3172e-20 2.2556e-05)
(2.09693e-06 -7.78512e-10 5.68704e-23 2.07181e-06 -1.55649e-22 2.08436e-06)
(0 -0 0 0 0 0)
(0.000289565 -3.73225e-05 -3.60019e-20 0.000306022 -2.92005e-20 0.000297815)
(0.000281728 -3.51259e-05 -4.32161e-20 0.000310856 -2.78032e-20 0.00029632)
(0.000273234 -3.17271e-05 -9.70918e-21 0.000313859 -1.1996e-20 0.000293571)
(0.000264353 -2.73283e-05 8.00383e-20 0.000314703 5.48373e-20 0.000289564)
(0.000255145 -2.21356e-05 -3.00052e-21 0.000313095 -1.20106e-20 0.000284164)
(0.000245747 -1.63913e-05 3.18024e-20 0.000308934 3.68076e-20 0.000277392)
(0.000236276 -1.03914e-05 3.96709e-21 0.000302181 1.04436e-20 0.000269292)
(0.000226784 -4.40762e-06 3.9845e-20 0.000292894 1.43496e-21 0.000259912)
(0.000217335 1.2943e-06 -2.60906e-20 0.000281276 -1.02568e-20 0.000249396)
(0.000207959 6.46289e-06 -3.01771e-20 0.000267613 -7.84126e-21 0.0002379)
(0.000198647 1.09016e-05 9.02092e-21 0.000252259 1.63504e-20 0.000225595)
(0.000189441 1.44666e-05 7.83161e-20 0.000235718 3.0322e-20 0.000212771)
(0.000180379 1.7066e-05 3.70723e-20 0.000218564 1.10564e-20 0.000199678)
(0.000171443 1.8693e-05 3.7681e-20 0.00020132 1.66247e-20 0.000186577)
(0.00016282 1.94572e-05 8.19642e-21 0.000184624 2.80258e-20 0.000173877)
(0.000154682 1.95122e-05 3.01876e-20 0.000168942 4.08956e-21 0.000161926)
(0.000147154 1.90153e-05 -6.00871e-22 0.000154409 -8.63082e-21 0.000150858)
(0.000139702 1.79767e-05 -4.54137e-20 0.000140423 -1.09252e-20 0.000140127)
(0.000131018 1.62844e-05 4.76898e-22 0.000125913 7.6537e-21 0.000128531)
(0.000120219 1.39955e-05 -2.01074e-20 0.000110611 -1.22422e-20 0.000115452)
(0.000108001 1.14991e-05 -3.42865e-21 9.56556e-05 -2.62863e-21 0.000101822)
(9.6316e-05 9.26535e-06 -1.80708e-20 8.27181e-05 3.83097e-22 8.94958e-05)
(8.66914e-05 7.47584e-06 -1.01291e-20 7.25798e-05 -8.32234e-21 7.96291e-05)
(7.95686e-05 6.07985e-06 1.03504e-19 6.50465e-05 7.59572e-21 7.23129e-05)
(7.4116e-05 4.88594e-06 3.99384e-20 5.91745e-05 2.56963e-20 6.66462e-05)