/*--------------------------------*- C++ -*----------------------------------*\
| =========                 |                                                 |
| \\      /  F ield         | OpenFOAM: The Open Source CFD Toolbox           |
|  \\    /   O peration     | Version:  2306                                  |
|   \\  /    A nd           | Website:  www.openfoam.com                      |
|    \\/     M anipulation  |                                                 |
\*---------------------------------------------------------------------------*/
FoamFile
{
    version     2.0;
    format      ascii;
    arch        "LSB;label=32;scalar=64";
    class       volScalarField;
    location    "225";
    object      turbulenceProperties:nut;
}
// * * * * * * * * * * * * * * * * * * * * * * * * * * * * * * * * * * * * * //

dimensions      [0 2 -1 0 0 0 0];

internalField   nonuniform List<scalar> 
1340
(
2.57218e-05
2.94372e-05
3.44107e-05
4.08559e-05
4.91591e-05
5.98514e-05
7.36527e-05
9.0925e-05
0.000112702
0.000140027
0.000174836
0.000220255
0.000280684
0.000364064
0.000483869
0.000662241
0.000942871
0.00139195
0.00220574
0.00358469
0.00682955
0.0127051
0.0332554
0.0756281
0.0942358
0.0954413
0.0963591
0.0997415
0.103201
0.10493
0.104882
0.103591
0.101192
0.0977475
0.0931331
2.25077e-05
1.97382e-05
1.70169e-05
1.45343e-05
1.22067e-05
1.00694e-05
8.21031e-06
5.0868e-06
4.98178e-06
4.88698e-06
4.80837e-06
4.71819e-06
4.63537e-06
4.57395e-06
4.52011e-06
4.49682e-06
4.51634e-06
4.54456e-06
4.81204e-06
5.85351e-06
8.58766e-06
1.62196e-05
3.63555e-05
8.28533e-05
0.000161518
0.000310928
0.000583629
0.00129163
0.00279532
0.00689129
0.0199418
0.0386757
0.062093
0.0908749
0.121719
0.146866
0.161141
0.166602
0.167443
0.165879
0.16257
0.158108
5.17027e-06
5.28341e-06
5.37993e-06
5.51092e-06
5.64522e-06
5.78124e-06
6.26212e-06
6.27935e-06
6.29726e-06
6.31651e-06
6.3401e-06
6.36648e-06
6.39664e-06
6.43191e-06
6.47353e-06
6.52225e-06
6.58014e-06
6.65123e-06
6.73039e-06
6.87066e-06
6.88582e-06
6.49744e-06
4.90066e-06
2.87797e-06
2.47533e-09
4.11047e-06
0.000260194
0.000184616
0.000325573
0.00091966
0.00305687
0.00721426
0.0149402
0.0297391
0.0552222
0.090817
0.129444
0.16128
0.181955
0.193927
0.200665
6.2491e-06
6.23031e-06
6.21596e-06
6.19457e-06
6.17615e-06
6.15629e-06
6.08366e-06
6.08126e-06
6.08066e-06
6.08104e-06
6.08196e-06
6.08463e-06
6.08953e-06
6.09627e-06
6.10631e-06
6.1199e-06
6.13784e-06
6.16131e-06
6.19189e-06
6.23057e-06
6.28199e-06
6.34032e-06
6.22379e-06
5.80957e-06
4.37462e-06
2.0982e-06
1.34818e-08
6.75155e-06
2.96905e-05
0.000179349
0.000637851
0.00153264
0.00323081
0.000173173
0.00303823
0.0121951
0.0332139
0.0691185
0.114327
0.156756
0.188823
6.08443e-06
6.08693e-06
6.09e-06
6.09226e-06
6.09609e-06
6.1088e-06
6.10928e-06
6.10948e-06
6.11033e-06
6.11186e-06
6.1138e-06
6.11643e-06
6.11996e-06
6.1246e-06
6.13069e-06
6.13868e-06
6.14913e-06
6.16284e-06
6.18048e-06
6.20437e-06
6.23242e-06
6.27718e-06
6.30729e-06
6.33058e-06
5.92594e-06
3.66018e-06
1.72555e-07
8.0147e-09
3.58088e-10
0
0
0
5.97054e-06
0.000668579
0.00273207
0.00034656
0.00689207
0.0265401
0.0659481
0.118168
6.10877e-06
6.10746e-06
6.10817e-06
6.10716e-06
6.10809e-06
6.10286e-06
6.10261e-06
6.10301e-06
6.10334e-06
6.1035e-06
6.10393e-06
6.10455e-06
6.10534e-06
6.10657e-06
6.10828e-06
6.11062e-06
6.11387e-06
6.11825e-06
6.12418e-06
6.13234e-06
6.1433e-06
6.15816e-06
6.17394e-06
6.20359e-06
6.32264e-06
6.48735e-06
6.09361e-06
3.24515e-06
2.49909e-07
1.04366e-08
3.11964e-09
1.02849e-09
1.48628e-11
0
0
4.50059e-05
0.00162804
0.00233448
0.00962832
0.0349077
6.10224e-06
6.10159e-06
6.10254e-06
6.10239e-06
6.10313e-06
6.10335e-06
6.10363e-06
6.10371e-06
6.10386e-06
6.10397e-06
6.10417e-06
6.10453e-06
6.105e-06
6.1057e-06
6.10671e-06
6.10813e-06
6.11012e-06
6.11291e-06
6.11675e-06
6.12219e-06
6.12946e-06
6.13748e-06
6.14741e-06
6.15167e-06
6.23603e-06
6.35106e-06
6.59341e-06
5.91074e-06
3.91107e-06
1.87157e-06
6.01112e-07
8.40523e-09
5.74634e-09
4.41909e-10
0
0
0.000531135
0.00225429
0.00149748
6.10254e-06
6.10159e-06
6.10206e-06
6.10182e-06
6.10283e-06
6.10294e-06
6.10331e-06
6.10342e-06
6.10334e-06
6.10333e-06
6.10327e-06
6.10318e-06
6.10319e-06
6.10323e-06
6.10335e-06
6.10361e-06
6.10401e-06
6.10463e-06
6.10557e-06
6.10699e-06
6.1091e-06
6.11154e-06
6.11472e-06
6.11629e-06
6.11753e-06
6.11912e-06
6.23079e-06
6.53416e-06
6.82651e-06
6.59786e-06
5.86104e-06
4.31036e-06
2.44235e-06
2.27981e-07
1.09496e-08
1.11499e-10
0
0
0.000356998
6.10219e-06
6.10118e-06
6.10125e-06
6.10089e-06
6.10297e-06
6.10301e-06
6.10322e-06
6.10316e-06
6.10299e-06
6.10284e-06
6.10266e-06
6.10256e-06
6.10244e-06
6.10238e-06
6.1024e-06
6.10248e-06
6.10268e-06
6.10303e-06
6.10359e-06
6.10445e-06
6.10577e-06
6.10751e-06
6.10928e-06
6.11141e-06
6.11179e-06
6.10881e-06
6.09943e-06
6.13809e-06
6.29776e-06
6.56826e-06
6.84927e-06
7.11249e-06
7.0997e-06
5.58548e-06
3.64858e-06
5.40748e-08
3.61099e-09
0
0
6.10236e-06
6.10121e-06
6.10089e-06
6.10265e-06
6.10246e-06
6.10225e-06
6.10203e-06
6.10186e-06
6.10172e-06
6.10159e-06
6.10151e-06
6.10145e-06
6.10142e-06
6.10143e-06
6.10147e-06
6.10159e-06
6.10179e-06
6.10194e-06
6.1025e-06
6.10353e-06
6.10496e-06
6.10258e-06
6.09334e-06
6.09277e-06
6.13794e-06
6.24669e-06
6.45309e-06
6.7841e-06
7.14149e-06
7.51886e-06
5.86763e-06
1.26802e-06
1.27948e-08
0
6.10176e-06
6.10151e-06
6.10131e-06
6.10112e-06
6.10098e-06
6.10087e-06
6.10081e-06
6.1008e-06
6.10085e-06
6.10097e-06
6.1012e-06
6.10159e-06
6.10206e-06
6.10253e-06
6.10304e-06
6.10368e-06
6.10457e-06
6.10354e-06
6.09685e-06
6.08758e-06
6.0852e-06
6.10715e-06
6.17662e-06
6.36653e-06
6.67295e-06
7.50897e-06
7.16888e-06
3.56546e-06
1.55871e-08
6.1009e-06
6.10073e-06
6.1006e-06
6.10052e-06
6.10045e-06
6.1004e-06
6.10035e-06
6.1003e-06
6.10028e-06
6.10031e-06
6.10042e-06
6.10069e-06
6.10113e-06
6.10172e-06
6.10256e-06
6.10374e-06
6.10429e-06
6.10217e-06
6.09578e-06
6.08659e-06
6.07476e-06
6.08846e-06
6.11432e-06
6.37497e-06
7.0075e-06
7.82778e-06
3.86788e-06
6.10037e-06
6.10023e-06
6.10012e-06
6.10005e-06
6.09999e-06
6.09993e-06
6.09991e-06
6.09993e-06
6.10002e-06
6.10017e-06
6.10038e-06
6.10065e-06
6.10101e-06
6.10149e-06
6.1022e-06
6.10331e-06
6.1046e-06
6.10508e-06
6.10367e-06
6.09742e-06
6.08699e-06
6.06567e-06
6.0432e-06
6.17106e-06
6.69799e-06
8.49799e-06
6.09995e-06
6.09987e-06
6.09981e-06
6.09978e-06
6.09977e-06
6.09974e-06
6.09971e-06
6.09972e-06
6.09977e-06
6.09989e-06
6.10009e-06
6.10037e-06
6.10075e-06
6.10124e-06
6.10192e-06
6.10295e-06
6.10436e-06
6.10595e-06
6.10728e-06
6.10616e-06
6.10135e-06
6.07311e-06
6.03655e-06
6.04589e-06
6.54382e-06
6.09978e-06
6.09972e-06
6.09969e-06
6.09967e-06
6.09966e-06
6.09965e-06
6.09962e-06
6.09962e-06
6.09966e-06
6.09974e-06
6.09987e-06
6.10005e-06
6.10032e-06
6.10067e-06
6.10116e-06
6.10185e-06
6.1028e-06
6.10405e-06
6.1059e-06
6.1081e-06
6.11071e-06
6.11098e-06
6.07871e-06
6.09959e-06
5.61218e-06
6.09969e-06
6.09968e-06
6.09967e-06
6.09968e-06
6.09968e-06
6.09968e-06
6.09968e-06
6.09968e-06
6.09972e-06
6.09979e-06
6.09991e-06
6.10009e-06
6.10034e-06
6.10071e-06
6.10124e-06
6.10195e-06
6.10283e-06
6.10394e-06
6.10566e-06
6.10752e-06
6.11517e-06
6.10109e-06
6.15552e-06
5.83829e-06
6.09977e-06
6.09977e-06
6.09979e-06
6.0998e-06
6.09981e-06
6.09981e-06
6.0998e-06
6.09982e-06
6.09986e-06
6.09993e-06
6.10005e-06
6.10022e-06
6.10049e-06
6.1009e-06
6.10147e-06
6.10219e-06
6.10301e-06
6.10414e-06
6.10505e-06
6.10922e-06
6.10943e-06
6.11543e-06
6.19401e-06
6.09991e-06
6.09992e-06
6.09995e-06
6.09996e-06
6.09997e-06
6.09997e-06
6.09996e-06
6.09996e-06
6.09998e-06
6.10003e-06
6.10011e-06
6.10023e-06
6.10043e-06
6.10074e-06
6.1012e-06
6.1018e-06
6.10253e-06
6.10337e-06
6.10438e-06
6.10479e-06
6.11345e-06
6.08018e-06
6.28659e-06
6.1001e-06
6.10012e-06
6.10014e-06
6.10015e-06
6.10015e-06
6.10014e-06
6.10014e-06
6.10015e-06
6.10017e-06
6.10022e-06
6.10031e-06
6.10046e-06
6.1007e-06
6.10107e-06
6.10156e-06
6.1022e-06
6.10288e-06
6.10407e-06
6.10327e-06
6.11249e-06
6.08086e-06
6.21481e-06
6.10028e-06
6.1003e-06
6.10032e-06
6.10033e-06
6.10033e-06
6.10032e-06
6.10032e-06
6.10032e-06
6.10033e-06
6.10037e-06
6.10043e-06
6.10054e-06
6.10073e-06
6.10103e-06
6.10144e-06
6.10198e-06
6.10256e-06
6.10362e-06
6.1033e-06
6.10865e-06
6.09587e-06
6.13315e-06
6.10048e-06
6.10051e-06
6.10051e-06
6.10052e-06
6.10052e-06
6.10051e-06
6.10051e-06
6.10052e-06
6.10054e-06
6.10058e-06
6.10066e-06
6.10081e-06
6.10105e-06
6.10139e-06
6.10184e-06
6.10237e-06
6.10317e-06
6.1036e-06
6.1053e-06
6.10633e-06
6.0953e-06
6.10066e-06
6.1007e-06
6.10071e-06
6.10073e-06
6.10073e-06
6.10074e-06
6.10074e-06
6.10074e-06
6.10075e-06
6.10077e-06
6.10083e-06
6.10094e-06
6.10113e-06
6.1014e-06
6.10178e-06
6.10226e-06
6.10285e-06
6.10367e-06
6.10373e-06
6.10897e-06
6.0906e-06
6.10089e-06
6.10091e-06
6.10094e-06
6.10095e-06
6.10097e-06
6.10098e-06
6.10099e-06
6.101e-06
6.10101e-06
6.10105e-06
6.10113e-06
6.10127e-06
6.10149e-06
6.1018e-06
6.10221e-06
6.10268e-06
6.10351e-06
6.10343e-06
6.10762e-06
6.09722e-06
6.10107e-06
6.10111e-06
6.10114e-06
6.10117e-06
6.10119e-06
6.1012e-06
6.10122e-06
6.10123e-06
6.10125e-06
6.10128e-06
6.10134e-06
6.10146e-06
6.10163e-06
6.10188e-06
6.10223e-06
6.10264e-06
6.10331e-06
6.10356e-06
6.10574e-06
6.10309e-06
6.10126e-06
6.10131e-06
6.10135e-06
6.10139e-06
6.10142e-06
6.10145e-06
6.10147e-06
6.10149e-06
6.1015e-06
6.10153e-06
6.10159e-06
6.10168e-06
6.10182e-06
6.10203e-06
6.10232e-06
6.10268e-06
6.10319e-06
6.10368e-06
6.10461e-06
6.10554e-06
6.1015e-06
6.10156e-06
6.10161e-06
6.10165e-06
6.10168e-06
6.10172e-06
6.10175e-06
6.10177e-06
6.1018e-06
6.10185e-06
6.10193e-06
6.10205e-06
6.10223e-06
6.10247e-06
6.10279e-06
6.10319e-06
6.10374e-06
6.10422e-06
6.10582e-06
6.10169e-06
6.10176e-06
6.10182e-06
6.10187e-06
6.10192e-06
6.10196e-06
6.102e-06
6.10203e-06
6.10206e-06
6.10211e-06
6.10219e-06
6.1023e-06
6.10245e-06
6.10267e-06
6.10295e-06
6.1033e-06
6.10379e-06
6.10421e-06
6.10545e-06
6.10187e-06
6.10195e-06
6.10202e-06
6.10209e-06
6.10215e-06
6.1022e-06
6.10225e-06
6.10229e-06
6.10233e-06
6.10238e-06
6.10245e-06
6.10255e-06
6.10269e-06
6.10288e-06
6.10313e-06
6.10345e-06
6.10389e-06
6.10433e-06
6.10517e-06
6.10213e-06
6.10222e-06
6.1023e-06
6.10238e-06
6.10244e-06
6.1025e-06
6.10256e-06
6.1026e-06
6.10266e-06
6.10272e-06
6.10282e-06
6.10294e-06
6.10311e-06
6.10334e-06
6.10363e-06
6.10402e-06
6.10447e-06
6.10511e-06
6.10231e-06
6.10241e-06
6.10251e-06
6.10259e-06
6.10267e-06
6.10275e-06
6.10281e-06
6.10287e-06
6.10293e-06
6.103e-06
6.10309e-06
6.10321e-06
6.10336e-06
6.10357e-06
6.10384e-06
6.10419e-06
6.10462e-06
6.10519e-06
6.10249e-06
6.1026e-06
6.10271e-06
6.10281e-06
6.10291e-06
6.10299e-06
6.10307e-06
6.10314e-06
6.1032e-06
6.10328e-06
6.10337e-06
6.10348e-06
6.10363e-06
6.10382e-06
6.10407e-06
6.10439e-06
6.10479e-06
6.10533e-06
6.10279e-06
6.10291e-06
6.10302e-06
6.10313e-06
6.10323e-06
6.10332e-06
6.1034e-06
6.10348e-06
6.10356e-06
6.10365e-06
6.10376e-06
6.1039e-06
6.10408e-06
6.10431e-06
6.10461e-06
6.10498e-06
6.10549e-06
6.10297e-06
6.10311e-06
6.10323e-06
6.10335e-06
6.10347e-06
6.10357e-06
6.10366e-06
6.10375e-06
6.10384e-06
6.10394e-06
6.10405e-06
6.10419e-06
6.10436e-06
6.10458e-06
6.10486e-06
6.1052e-06
6.10568e-06
6.10315e-06
6.1033e-06
6.10344e-06
6.10357e-06
6.1037e-06
6.10381e-06
6.10392e-06
6.10402e-06
6.10411e-06
6.10422e-06
6.10434e-06
6.10447e-06
6.10464e-06
6.10485e-06
6.10512e-06
6.10544e-06
6.10348e-06
6.10364e-06
6.10379e-06
6.10393e-06
6.10406e-06
6.10418e-06
6.10428e-06
6.10439e-06
6.1045e-06
6.10463e-06
6.10477e-06
6.10493e-06
6.10514e-06
6.10539e-06
6.1057e-06
6.10366e-06
6.10383e-06
6.104e-06
6.10415e-06
6.1043e-06
6.10443e-06
6.10455e-06
6.10467e-06
6.10479e-06
6.10492e-06
6.10507e-06
6.10524e-06
6.10544e-06
6.10568e-06
6.10597e-06
6.10384e-06
6.10402e-06
6.1042e-06
6.10437e-06
6.10453e-06
6.10467e-06
6.1048e-06
6.10494e-06
6.10507e-06
6.10521e-06
6.10537e-06
6.10554e-06
6.10574e-06
6.10598e-06
6.10627e-06
6.104e-06
6.1042e-06
6.10439e-06
6.10457e-06
6.10475e-06
6.1049e-06
6.10505e-06
6.1052e-06
6.10534e-06
6.10549e-06
6.10566e-06
6.10584e-06
6.10605e-06
6.10629e-06
6.10657e-06
6.10415e-06
6.10437e-06
6.10457e-06
6.10477e-06
6.10496e-06
6.10513e-06
6.10529e-06
6.10545e-06
6.10561e-06
6.10577e-06
6.10594e-06
6.10613e-06
6.10635e-06
6.10659e-06
6.10687e-06
6.10452e-06
6.10474e-06
6.10496e-06
6.10516e-06
6.10535e-06
6.10552e-06
6.10569e-06
6.10586e-06
6.10604e-06
6.10623e-06
6.10643e-06
6.10664e-06
6.10689e-06
6.10717e-06
6.10466e-06
6.1049e-06
6.10513e-06
6.10535e-06
6.10555e-06
6.10574e-06
6.10592e-06
6.10611e-06
6.1063e-06
6.1065e-06
6.10671e-06
6.10694e-06
6.1072e-06
6.10748e-06
6.10478e-06
6.10503e-06
6.10528e-06
6.10551e-06
6.10573e-06
6.10593e-06
6.10613e-06
6.10634e-06
6.10655e-06
6.10676e-06
6.10699e-06
6.10723e-06
6.10749e-06
6.10778e-06
6.10488e-06
6.10514e-06
6.1054e-06
6.10565e-06
6.10588e-06
6.1061e-06
6.10632e-06
6.10654e-06
6.10676e-06
6.107e-06
6.10724e-06
6.1075e-06
6.10778e-06
6.10807e-06
6.10494e-06
6.10522e-06
6.1055e-06
6.10576e-06
6.10601e-06
6.10624e-06
6.10648e-06
6.10671e-06
6.10695e-06
6.1072e-06
6.10746e-06
6.10774e-06
6.10803e-06
6.10835e-06
6.10527e-06
6.10556e-06
6.10584e-06
6.1061e-06
6.10635e-06
6.1066e-06
6.10686e-06
6.10712e-06
6.10738e-06
6.10766e-06
6.10795e-06
6.10826e-06
6.10859e-06
6.10528e-06
6.10559e-06
6.10588e-06
6.10616e-06
6.10643e-06
6.10669e-06
6.10697e-06
6.10724e-06
6.10753e-06
6.10783e-06
6.10814e-06
6.10847e-06
6.10524e-06
6.10557e-06
6.10588e-06
6.10617e-06
6.10645e-06
6.10674e-06
6.10703e-06
6.10733e-06
6.10763e-06
6.10795e-06
6.10828e-06
6.10863e-06
6.10516e-06
6.1055e-06
6.10582e-06
6.10613e-06
6.10643e-06
6.10673e-06
6.10704e-06
6.10736e-06
6.10769e-06
6.10803e-06
6.10838e-06
6.10875e-06
6.10501e-06
6.10537e-06
6.10571e-06
6.10604e-06
6.10635e-06
6.10667e-06
6.107e-06
6.10734e-06
6.10769e-06
6.10805e-06
6.10843e-06
6.10882e-06
6.10518e-06
6.10553e-06
6.10588e-06
6.10621e-06
6.10655e-06
6.1069e-06
6.10725e-06
6.10762e-06
6.10801e-06
6.10841e-06
6.10883e-06
6.10491e-06
6.10529e-06
6.10564e-06
6.106e-06
6.10635e-06
6.10672e-06
6.1071e-06
6.10749e-06
6.1079e-06
6.10832e-06
6.10877e-06
6.10457e-06
6.10496e-06
6.10533e-06
6.1057e-06
6.10608e-06
6.10646e-06
6.10686e-06
6.10728e-06
6.10771e-06
6.10816e-06
6.10863e-06
6.10413e-06
6.10454e-06
6.10493e-06
6.10531e-06
6.10571e-06
6.10612e-06
6.10654e-06
6.10698e-06
6.10743e-06
6.1079e-06
6.1084e-06
6.10361e-06
6.10403e-06
6.10443e-06
6.10483e-06
6.10525e-06
6.10567e-06
6.10612e-06
6.10658e-06
6.10705e-06
6.10755e-06
6.10808e-06
6.10298e-06
6.10341e-06
6.10383e-06
6.10425e-06
6.10468e-06
6.10513e-06
6.10559e-06
6.10607e-06
6.10657e-06
6.1071e-06
6.10224e-06
6.10269e-06
6.10313e-06
6.10356e-06
6.104e-06
6.10447e-06
6.10495e-06
6.10545e-06
6.10598e-06
6.10652e-06
6.10187e-06
6.10231e-06
6.10276e-06
6.10322e-06
6.1037e-06
6.1042e-06
6.10472e-06
6.10527e-06
6.10584e-06
6.10093e-06
6.10139e-06
6.10185e-06
6.10233e-06
6.10283e-06
6.10335e-06
6.10389e-06
6.10445e-06
6.10504e-06
6.09987e-06
6.10034e-06
6.10082e-06
6.10131e-06
6.10182e-06
6.10236e-06
6.10292e-06
6.10351e-06
6.10412e-06
6.0986e-06
6.09908e-06
6.09957e-06
6.10009e-06
6.10062e-06
6.10119e-06
6.10178e-06
6.10239e-06
6.10303e-06
6.09702e-06
6.09751e-06
6.09802e-06
6.09855e-06
6.09911e-06
6.09971e-06
6.10033e-06
6.10099e-06
6.10167e-06
6.09509e-06
6.09558e-06
6.09609e-06
6.09663e-06
6.09721e-06
6.09783e-06
6.09849e-06
6.09918e-06
6.09286e-06
6.09333e-06
6.09383e-06
6.09437e-06
6.09495e-06
6.09558e-06
6.09625e-06
6.09696e-06
6.09049e-06
6.09094e-06
6.09142e-06
6.09193e-06
6.0925e-06
6.09311e-06
6.09376e-06
6.09446e-06
6.08852e-06
6.08897e-06
6.08946e-06
6.09e-06
6.09058e-06
6.0912e-06
6.09187e-06
6.08605e-06
6.08648e-06
6.08695e-06
6.08747e-06
6.08802e-06
6.08862e-06
6.08926e-06
6.08344e-06
6.08386e-06
6.08433e-06
6.08485e-06
6.08541e-06
6.086e-06
6.08664e-06
6.08092e-06
6.08133e-06
6.0818e-06
6.08231e-06
6.08288e-06
6.08349e-06
6.08414e-06
6.0786e-06
6.07898e-06
6.07941e-06
6.07988e-06
6.08042e-06
6.08099e-06
6.07629e-06
6.07662e-06
6.07699e-06
6.07741e-06
6.07789e-06
6.07839e-06
6.07397e-06
6.07425e-06
6.07456e-06
6.07492e-06
6.07534e-06
6.07575e-06
6.07181e-06
6.07201e-06
6.07223e-06
6.07249e-06
6.07282e-06
6.07315e-06
6.0706e-06
6.07064e-06
6.07068e-06
6.07075e-06
6.07086e-06
6.07099e-06
6.07205e-06
6.07197e-06
6.07188e-06
6.07176e-06
6.07161e-06
6.07151e-06
6.0747e-06
6.07466e-06
6.07458e-06
6.07444e-06
6.07434e-06
6.0778e-06
6.07782e-06
6.07778e-06
6.07764e-06
6.07763e-06
6.08101e-06
6.08117e-06
6.08133e-06
6.08146e-06
6.08154e-06
6.08444e-06
6.08466e-06
6.08471e-06
6.08459e-06
6.08687e-06
6.08767e-06
6.08869e-06
6.08976e-06
6.09829e-06
6.09886e-06
6.09944e-06
6.09968e-06
)
;

boundaryField
{
    inlet
    {
        type            freestream;
        freestreamValue uniform 1e-05;
        value           nonuniform List<scalar> 4(6.09829e-06 6.09886e-06 6.09944e-06 6.09968e-06);
    }
    outlet
    {
        type            freestream;
        freestreamValue nonuniform List<scalar> 0();
        value           nonuniform List<scalar> 0();
    }
    walls
    {
        type            nutUSpaldingWallFunction;
        value           nonuniform List<scalar> 
42
(
0.00322184
0.0034483
0.0036847
0.00387246
0.00404846
0.00420327
0.00432393
0.00441667
0.00448394
0.00452392
0.00454384
0.00454242
0.00451424
0.00446147
0.00437991
0.00426756
0.00411801
0.003925
0.00367533
0.00335804
0.00295661
0.00247125
0.00194649
0.00154951
0.00138631
0.00145571
0.00161121
0.00177317
0.00190508
0.00199222
0.00203863
0.00205428
0.00203507
0.00198432
0.00189945
0.00298157
0.0027097
0.00241086
0.00204118
0.00163914
0.00120407
0.000766052
)
;
    }
    frontAndBack
    {
        type            empty;
    }
    procBoundary5to0
    {
        type            processor;
        value           nonuniform List<scalar> 4(6.10309e-06 6.10251e-06 6.10131e-06 6.10067e-06);
    }
    procBoundary5to1
    {
        type            processor;
        value           nonuniform List<scalar> 
13
(
6.92806e-06
5.9128e-06
5.9128e-06
6.13851e-06
6.09816e-06
6.09816e-06
6.10692e-06
6.10417e-06
6.10417e-06
6.10354e-06
6.10255e-06
6.10033e-06
6.10033e-06
)
;
    }
    procBoundary5to4
    {
        type            processor;
        value           nonuniform List<scalar> 
95
(
6.10299e-06
6.10309e-06
6.10295e-06
6.10295e-06
6.10231e-06
6.10204e-06
6.10204e-06
6.10137e-06
6.10111e-06
6.10111e-06
6.10055e-06
6.10055e-06
6.10009e-06
6.10009e-06
6.09988e-06
6.09973e-06
6.09973e-06
6.09977e-06
6.09977e-06
6.0999e-06
6.10009e-06
6.10009e-06
6.10025e-06
6.10047e-06
6.10047e-06
6.10063e-06
6.10086e-06
6.10086e-06
6.10103e-06
6.1012e-06
6.10145e-06
6.10145e-06
6.10162e-06
6.10178e-06
6.10205e-06
6.10205e-06
6.10221e-06
6.10237e-06
6.10267e-06
6.10267e-06
6.10284e-06
6.103e-06
6.10333e-06
6.10333e-06
6.10349e-06
6.10365e-06
6.1038e-06
6.10394e-06
6.1043e-06
6.1043e-06
6.10442e-06
6.10453e-06
6.10461e-06
6.10465e-06
6.10498e-06
6.10498e-06
6.10497e-06
6.10491e-06
6.10481e-06
6.10465e-06
6.10481e-06
6.10481e-06
6.10452e-06
6.10416e-06
6.10372e-06
6.10317e-06
6.10253e-06
6.10179e-06
6.10141e-06
6.10141e-06
6.10046e-06
6.09938e-06
6.0981e-06
6.09652e-06
6.0946e-06
6.09239e-06
6.09005e-06
6.08809e-06
6.08809e-06
6.08564e-06
6.08304e-06
6.08054e-06
6.07826e-06
6.07599e-06
6.07372e-06
6.07165e-06
6.07057e-06
6.0721e-06
6.07473e-06
6.07473e-06
6.07776e-06
6.08083e-06
6.08423e-06
6.08603e-06
6.0976e-06
)
;
    }
    procBoundary5to6
    {
        type            processor;
        value           nonuniform List<scalar> 
86
(
0.0872709
0.152656
0.203547
0.211026
0.168999
0.0874076
0.0191572
0.000566197
0.000113958
0
0
1.13545e-08
2.74066e-06
1.04999e-05
9.05983e-06
6.2679e-06
5.26992e-06
5.39635e-06
5.81893e-06
6.10354e-06
6.18787e-06
6.16927e-06
6.13308e-06
6.11132e-06
6.10416e-06
6.10381e-06
6.10491e-06
6.10561e-06
6.10582e-06
6.10586e-06
6.1059e-06
6.106e-06
6.10615e-06
6.10589e-06
6.10589e-06
6.10613e-06
6.10638e-06
6.10665e-06
6.10694e-06
6.10723e-06
6.10753e-06
6.10783e-06
6.10814e-06
6.10844e-06
6.10872e-06
6.10898e-06
6.10881e-06
6.10881e-06
6.109e-06
6.10914e-06
6.10923e-06
6.10926e-06
6.10923e-06
6.10912e-06
6.10892e-06
6.10862e-06
6.10764e-06
6.10764e-06
6.1071e-06
6.10643e-06
6.10565e-06
6.10476e-06
6.1037e-06
6.10239e-06
6.09991e-06
6.09991e-06
6.09772e-06
6.09522e-06
6.09259e-06
6.08994e-06
6.08732e-06
6.08484e-06
6.08161e-06
6.08161e-06
6.07894e-06
6.07623e-06
6.07353e-06
6.07116e-06
6.07139e-06
6.0742e-06
6.07752e-06
6.08164e-06
6.08487e-06
6.08487e-06
6.09048e-06
6.10001e-06
)
;
    }
}


// ************************************************************************* //
