/*--------------------------------*- C++ -*----------------------------------*\
| =========                 |                                                 |
| \\      /  F ield         | OpenFOAM: The Open Source CFD Toolbox           |
|  \\    /   O peration     | Version:  2306                                  |
|   \\  /    A nd           | Website:  www.openfoam.com                      |
|    \\/     M anipulation  |                                                 |
\*---------------------------------------------------------------------------*/
FoamFile
{
    version     2.0;
    format      ascii;
    arch        "LSB;label=32;scalar=64";
    class       volScalarField;
    location    "225";
    object      turbulenceProperties:I;
}
// * * * * * * * * * * * * * * * * * * * * * * * * * * * * * * * * * * * * * //

dimensions      [0 0 0 0 0 0 0];

internalField   nonuniform List<scalar> 
1340
(
0.00417381
0.00414847
0.00416828
0.00429635
0.00445933
0.0046883
0.00500087
0.00538608
0.00586302
0.00645044
0.00716782
0.00805736
0.00917923
0.0106166
0.0125115
0.0150629
0.0186529
0.0237713
0.0318774
0.0442429
0.0687269
0.110628
0.223209
0.413233
0.500372
0.462298
0.405438
0.364341
0.337755
0.320847
0.309887
0.30229
0.297925
0.295868
0.295918
0.00422577
0.0043835
0.00456545
0.00498924
0.00569494
0.00706155
0.010226
0.00181989
0.00166646
0.0015286
0.00139852
0.00127772
0.00116936
0.00107008
0.000978564
0.000897397
0.000824677
0.000759756
0.000711452
0.000691776
0.000710477
0.000793665
0.000976251
0.00132201
0.00189031
0.00291693
0.0046102
0.00803986
0.0139763
0.0259198
0.0509762
0.078941
0.106636
0.134138
0.15815
0.172717
0.175283
0.169291
0.160154
0.151906
0.146034
0.143189
0.001986
0.00219391
0.00247364
0.00287306
0.00347078
0.00440899
0.00158008
0.00145585
0.00133414
0.00121968
0.00112123
0.00103392
0.00095833
0.000895762
0.000844762
0.000804797
0.000773847
0.000752105
0.000738732
0.000733464
0.00072935
0.000715752
0.000662467
0.000573026
9.55434e-05
0.000590103
0.00208393
0.00141879
0.000792591
0.00289178
0.00782174
0.014768
0.0245459
0.0388507
0.0583054
0.0811028
0.103227
0.120036
0.12914
0.132438
0.133762
0.00172403
0.00189514
0.00213146
0.00244676
0.00287143
0.00342767
0.00149122
0.00138754
0.00128768
0.00119686
0.00111366
0.00103627
0.000965777
0.000900781
0.000841131
0.00078612
0.000735147
0.000687396
0.000642013
0.000598476
0.00055605
0.00051263
0.0004687
0.00042804
0.000382563
0.00032336
9.88156e-05
0.000526727
0.000849165
0.00163164
0.00285176
0.00396972
0.00482426
0.000761643
0.00324048
0.0115583
0.0260178
0.0462953
0.069218
0.0899801
0.105546
0.00160116
0.0017294
0.00189251
0.00210722
0.00237452
0.00131532
0.00123
0.00114607
0.00106673
0.000993533
0.000924479
0.000860678
0.000802168
0.000748489
0.000700132
0.000656922
0.000618847
0.00058612
0.00055876
0.000536724
0.00051921
0.000502949
0.000484971
0.000464427
0.000434999
0.000368731
0.00016926
8.23117e-05
4.06641e-05
0
0
0
0.00053026
0.00298507
0.00578444
0.00179691
0.00519903
0.0118852
0.0320381
0.0566632
0.00140653
0.00151007
0.00163848
0.00179642
0.00197731
0.00119726
0.00112962
0.00106184
0.000997857
0.000938452
0.000881987
0.000829484
0.00078068
0.000735162
0.000692897
0.000653482
0.000616672
0.000582327
0.000550206
0.000520124
0.000491055
0.000461157
0.000431158
0.000402792
0.000378153
0.000357348
0.000334568
0.000278703
0.000147961
6.85794e-05
5.16287e-05
3.99403e-05
1.44609e-05
0
0
0.000817767
0.00427839
0.00494719
0.00801431
0.00991106
0.00126728
0.00134476
0.00143856
0.00155082
0.00107755
0.00102263
0.000966703
0.000912994
0.00086273
0.000814191
0.000768375
0.000725334
0.000684653
0.000646464
0.000610627
0.000577025
0.000545739
0.000516811
0.000490233
0.000466238
0.000445422
0.000427034
0.000409394
0.000391619
0.000374981
0.000359449
0.000347265
0.00032371
0.000278563
0.00021968
0.000156675
5.17082e-05
4.65067e-05
2.51713e-05
0
0
0.00194473
0.00447565
0.00364222
0.00113367
0.00119439
0.00126625
0.00134914
0.000977527
0.00093352
0.00088803
0.000843944
0.000802501
0.000762135
0.000723868
0.000687745
0.000653409
0.000620991
0.000590277
0.000561154
0.000533599
0.000507524
0.000482861
0.000459619
0.000437292
0.000415073
0.00039342
0.000373258
0.000355545
0.000341129
0.000331414
0.000324988
0.000315785
0.000296562
0.000269474
0.000233087
0.000190773
0.000100935
4.6344e-05
1.48284e-05
0
0
0.00141462
0.00102169
0.00106868
0.00112346
0.00118516
0.000887844
0.000852156
0.000814764
0.000778089
0.000743435
0.000709333
0.000676707
0.000645659
0.000615872
0.000587459
0.000560292
0.000534263
0.000509389
0.000485639
0.000463041
0.000441579
0.000421328
0.00040262
0.000385305
0.00036915
0.000354162
0.000340797
0.000329448
0.000319899
0.000310697
0.000299855
0.000286575
0.000272952
0.000258529
0.000231475
0.000198863
6.67789e-05
3.36687e-05
0
0
0.000923198
0.000960226
0.00100284
0.000690686
0.000662099
0.000634591
0.000608285
0.00058292
0.000558603
0.000535205
0.000512637
0.00049091
0.000469987
0.000449868
0.000430554
0.000412108
0.000394311
0.000377022
0.000360612
0.000345649
0.000332628
0.000321665
0.000311884
0.000301629
0.000289948
0.000277398
0.000266188
0.000257998
0.000251575
0.000246031
0.000223034
0.000146712
4.60323e-05
0
0.000594552
0.000572145
0.000550393
0.000529413
0.000509085
0.000489323
0.000470132
0.000451479
0.000433382
0.000415877
0.000398985
0.000382804
0.000367434
0.000352952
0.00033959
0.000327549
0.00031692
0.000307137
0.000296854
0.000285048
0.000272149
0.000259987
0.000250266
0.000243752
0.000239604
0.000240887
0.000232832
0.000191411
4.87123e-05
0.000519994
0.000502013
0.000484506
0.000467383
0.000450647
0.000434268
0.000418255
0.000402637
0.000387457
0.000372803
0.000358621
0.000345004
0.000332306
0.000320801
0.00031054
0.000301062
0.000291294
0.000280301
0.000268248
0.000256494
0.000246396
0.000238499
0.000232239
0.000229579
0.000231427
0.000236106
0.00019564
0.000475691
0.000460602
0.000445766
0.000431167
0.000416772
0.000402592
0.00038866
0.000375006
0.00036174
0.000348906
0.000336578
0.000324969
0.000314282
0.000304523
0.00029535
0.000285978
0.000275675
0.00026452
0.000253559
0.000243929
0.000235968
0.000229343
0.000224092
0.000221765
0.000225019
0.000239298
0.000437775
0.000424964
0.000412301
0.000399743
0.000387289
0.000374964
0.000362797
0.000350896
0.000339299
0.000328042
0.000317301
0.000307307
0.000298066
0.000289303
0.000280406
0.000270787
0.000260481
0.000250313
0.000241269
0.000233682
0.000227366
0.000222107
0.000218202
0.000216726
0.000221323
0.000415919
0.000404893
0.000393938
0.000383009
0.000372093
0.000361224
0.000350429
0.00033978
0.000329359
0.000319199
0.000309389
0.000300156
0.0002915
0.000283202
0.000274802
0.000265837
0.000256308
0.000246862
0.000238346
0.000231123
0.0002251
0.000220236
0.000216401
0.000214903
0.000210327
0.000385624
0.000376174
0.000366702
0.000357196
0.000347669
0.000338147
0.000328678
0.000319367
0.000310221
0.000301291
0.000292783
0.000284721
0.000276936
0.000269063
0.000260741
0.000251956
0.000243214
0.000235219
0.000228345
0.000222567
0.000217943
0.00021436
0.000213103
0.000210079
0.000359022
0.00035085
0.000342604
0.000334289
0.000325925
0.00031755
0.000309265
0.000301079
0.000293017
0.000285238
0.000277791
0.000270549
0.000263225
0.000255532
0.000247455
0.000239387
0.000231913
0.000225397
0.000219868
0.000215395
0.000212043
0.00021033
0.000210773
0.000342516
0.000335486
0.000328364
0.000321141
0.000313837
0.000306473
0.000299139
0.000291852
0.00028462
0.000277547
0.000270716
0.000264035
0.00025727
0.000250195
0.000242794
0.000235375
0.000228421
0.000222275
0.000217015
0.000212694
0.00020952
0.000207451
0.000208871
0.000320619
0.000314498
0.000308259
0.000301912
0.000295479
0.00028902
0.000282571
0.000276122
0.000269736
0.000263519
0.000257406
0.000251205
0.00024473
0.000237973
0.000231176
0.000224737
0.000218968
0.000213987
0.000209851
0.000206786
0.000204724
0.000205377
0.000306289
0.000301048
0.00029569
0.000290205
0.000284614
0.000278952
0.000273275
0.000267566
0.000261846
0.000256227
0.000250677
0.000245031
0.000239141
0.000232999
0.000226797
0.000220862
0.000215477
0.000210778
0.000206846
0.000203857
0.00020195
0.000201647
0.000288014
0.000283435
0.000278724
0.000273893
0.000268966
0.000264008
0.000258988
0.000253904
0.000248866
0.000243865
0.000238764
0.000233438
0.00022788
0.000222246
0.000216802
0.000211802
0.000207389
0.000203667
0.00020076
0.00019896
0.000198126
0.000275415
0.000271523
0.000267506
0.000263363
0.000259108
0.0002548
0.000250413
0.000245931
0.000241451
0.000236979
0.000232408
0.000227624
0.000222623
0.000217528
0.000212561
0.000207942
0.000203819
0.000200307
0.000197505
0.000195733
0.000194718
0.000259973
0.00025657
0.000253042
0.000249391
0.000245674
0.000241869
0.000237956
0.000234005
0.00023004
0.000225977
0.00022171
0.000217234
0.000212652
0.000208145
0.000203903
0.000200069
0.000196765
0.000194081
0.000192298
0.000191235
0.000248786
0.000245927
0.000242947
0.000239844
0.000236662
0.00023339
0.000230007
0.000226552
0.000223069
0.000219485
0.000215706
0.000211725
0.000207628
0.00020356
0.000199688
0.000196143
0.000193046
0.000190485
0.000188688
0.000187572
0.000237971
0.000235591
0.0002331
0.000230489
0.000227787
0.000225003
0.000222103
0.000219109
0.000216074
0.000212944
0.000209626
0.000206112
0.00020247
0.000198821
0.000195304
0.000192043
0.000189153
0.000186715
0.000184916
0.000183718
0.00022557
0.00022351
0.000221338
0.000219068
0.000216721
0.000214266
0.000211699
0.000209085
0.000206375
0.000203486
0.000200404
0.000197188
0.000193936
0.000190762
0.000187778
0.00018509
0.000182776
0.00018098
0.000179689
0.000215869
0.000214187
0.000212404
0.000210522
0.000208567
0.000206512
0.00020434
0.000202111
0.000199791
0.000197298
0.000194618
0.000191798
0.000188918
0.000186072
0.000183356
0.000180865
0.000178674
0.000176892
0.000175502
0.000206486
0.000205136
0.000203698
0.000202163
0.00020056
0.000198862
0.00019705
0.000195172
0.000193206
0.000191079
0.000188768
0.000186315
0.000183782
0.000181244
0.000178786
0.000176489
0.000174413
0.000172656
0.000171178
0.000196367
0.000195229
0.000194002
0.000192711
0.000191332
0.000189842
0.000188285
0.000186641
0.000184843
0.000182871
0.000180755
0.000178542
0.000176294
0.00017408
0.000171969
0.000170012
0.000168276
0.000166728
0.00018788
0.000187003
0.000186047
0.000185029
0.000183932
0.000182731
0.000181462
0.000180108
0.000178609
0.000176944
0.000175133
0.000173215
0.000171237
0.000169252
0.000167319
0.000165476
0.000163771
0.000162161
0.000179673
0.000179022
0.000178304
0.000177527
0.000176679
0.000175735
0.000174721
0.000173624
0.000172392
0.000171003
0.000169469
0.000167819
0.000166088
0.000164318
0.000162554
0.000160821
0.000159152
0.000157493
0.000171292
0.000170779
0.000170213
0.000169582
0.000168863
0.000168074
0.000167205
0.00016621
0.000165065
0.000163779
0.000162372
0.000160867
0.000159295
0.000157687
0.000156063
0.000154432
0.000152739
0.000163815
0.000163477
0.00016309
0.000162647
0.000162125
0.000161531
0.000160862
0.000160074
0.000159146
0.000158081
0.00015689
0.00015559
0.000154199
0.00015274
0.000151217
0.000149631
0.000147917
0.000156584
0.000156395
0.000156166
0.000155885
0.000155531
0.000155106
0.000154609
0.000154003
0.000153265
0.000152392
0.000151393
0.000150276
0.000149051
0.000147727
0.000146303
0.000144765
0.000149543
0.000149443
0.0001493
0.00014909
0.000148811
0.000148462
0.000148011
0.000147435
0.000146731
0.000145901
0.000144946
0.000143868
0.000142669
0.000141339
0.000139852
0.000142915
0.000142925
0.000142898
0.000142809
0.000142652
0.000142428
0.000142109
0.000141673
0.000141114
0.00014043
0.000139618
0.000138672
0.000137586
0.000136344
0.000134912
0.000136511
0.000136613
0.000136682
0.000136693
0.000136638
0.000136519
0.00013631
0.000135992
0.000135556
0.000134998
0.000134309
0.00013348
0.000132498
0.000131339
0.000129964
0.000130331
0.000130509
0.000130655
0.000130747
0.000130776
0.000130743
0.000130625
0.000130405
0.000130073
0.000129622
0.00012904
0.000128313
0.000127423
0.000126343
0.000125028
0.000124373
0.00012461
0.000124819
0.000124976
0.000125073
0.000125109
0.000125066
0.000124926
0.00012468
0.000124318
0.000123826
0.000123188
0.000122381
0.000121375
0.000120121
0.000118919
0.000119177
0.000119385
0.000119535
0.000119626
0.000119641
0.000119565
0.000119389
0.000119101
0.000118686
0.000118124
0.000117391
0.000116453
0.000115262
0.000113435
0.000113727
0.000113975
0.000114165
0.000114297
0.000114358
0.000114333
0.000114214
0.000113986
0.000113634
0.000113138
0.00011247
0.000111596
0.000110468
0.000108151
0.000108471
0.000108747
0.000108966
0.000109129
0.000109224
0.000109239
0.000109163
0.000108984
0.000108685
0.000108244
0.000107634
0.00010682
0.000105754
0.00010307
0.000103408
0.000103702
0.000103941
0.000104125
0.000104245
0.000104288
0.000104246
0.000104106
0.00010385
0.000103456
0.000102898
0.00010214
0.000101136
9.81885e-05
9.85349e-05
9.88412e-05
9.90926e-05
9.92896e-05
9.94256e-05
9.94898e-05
9.94723e-05
9.93613e-05
9.91398e-05
9.87859e-05
9.82731e-05
9.75676e-05
9.66243e-05
9.38534e-05
9.41641e-05
9.44217e-05
9.46257e-05
9.47708e-05
9.4848e-05
9.48482e-05
9.47596e-05
9.45656e-05
9.4245e-05
9.37725e-05
9.31155e-05
9.22316e-05
8.93609e-05
8.96699e-05
8.99281e-05
9.01335e-05
9.02824e-05
9.03672e-05
9.03793e-05
9.03071e-05
9.01346e-05
8.9842e-05
8.94054e-05
8.87936e-05
8.50531e-05
8.53571e-05
8.56111e-05
8.5814e-05
8.59625e-05
8.60502e-05
8.60692e-05
8.60085e-05
8.5853e-05
8.55842e-05
8.51793e-05
8.46095e-05
8.09275e-05
8.12234e-05
8.14702e-05
8.16668e-05
8.18114e-05
8.18987e-05
8.19211e-05
8.18678e-05
8.17254e-05
8.14767e-05
8.11003e-05
8.05696e-05
7.69814e-05
7.7266e-05
7.75037e-05
7.76913e-05
7.78295e-05
7.79134e-05
7.7936e-05
7.78874e-05
7.77551e-05
7.75234e-05
7.71727e-05
7.66785e-05
7.34832e-05
7.3709e-05
7.38866e-05
7.40163e-05
7.40947e-05
7.41152e-05
7.40691e-05
7.39446e-05
7.37272e-05
7.33995e-05
7.29392e-05
6.98713e-05
7.00835e-05
7.02497e-05
7.03701e-05
7.04416e-05
7.04588e-05
7.04133e-05
7.02945e-05
7.00896e-05
6.97825e-05
6.93535e-05
6.64252e-05
6.66237e-05
6.67778e-05
6.6888e-05
6.69519e-05
6.69645e-05
6.69184e-05
6.68042e-05
6.66101e-05
6.6322e-05
6.59219e-05
6.31418e-05
6.33262e-05
6.34676e-05
6.3567e-05
6.36227e-05
6.36301e-05
6.35827e-05
6.3472e-05
6.32875e-05
6.30167e-05
6.26435e-05
6.00162e-05
6.01862e-05
6.03149e-05
6.04037e-05
6.04509e-05
6.0453e-05
6.04037e-05
6.02956e-05
6.01197e-05
5.98645e-05
5.9516e-05
5.70438e-05
5.72e-05
5.73162e-05
5.73943e-05
5.7433e-05
5.74294e-05
5.7378e-05
5.72721e-05
5.71037e-05
5.68628e-05
5.422e-05
5.43623e-05
5.44667e-05
5.45343e-05
5.45649e-05
5.45556e-05
5.45018e-05
5.43976e-05
5.42359e-05
5.40081e-05
5.16698e-05
5.17624e-05
5.18201e-05
5.18428e-05
5.18279e-05
5.17715e-05
5.16685e-05
5.15128e-05
5.12968e-05
4.91181e-05
4.91992e-05
4.92474e-05
4.92625e-05
4.92423e-05
4.91832e-05
4.90811e-05
4.89306e-05
4.87253e-05
4.66993e-05
4.67701e-05
4.68095e-05
4.68177e-05
4.67926e-05
4.67312e-05
4.663e-05
4.64843e-05
4.62886e-05
4.44034e-05
4.44648e-05
4.44963e-05
4.44981e-05
4.44689e-05
4.4406e-05
4.43061e-05
4.41655e-05
4.39792e-05
4.22164e-05
4.2269e-05
4.22935e-05
4.22904e-05
4.22581e-05
4.21947e-05
4.20971e-05
4.19622e-05
4.17858e-05
4.01273e-05
4.01717e-05
4.01899e-05
4.01823e-05
4.01477e-05
4.00842e-05
3.99896e-05
3.98609e-05
3.81367e-05
3.81734e-05
3.81851e-05
3.81727e-05
3.81352e-05
3.80711e-05
3.79786e-05
3.78554e-05
3.62521e-05
3.62806e-05
3.62857e-05
3.62676e-05
3.6226e-05
3.61598e-05
3.60676e-05
3.59476e-05
3.45023e-05
3.45002e-05
3.44758e-05
3.44291e-05
3.43593e-05
3.42652e-05
3.4146e-05
3.28301e-05
3.28203e-05
3.2789e-05
3.27365e-05
3.26618e-05
3.2564e-05
3.24435e-05
3.12768e-05
3.12649e-05
3.12323e-05
3.11821e-05
3.1108e-05
3.10106e-05
3.08966e-05
2.99859e-05
2.99695e-05
2.99319e-05
2.98821e-05
2.98052e-05
2.97029e-05
2.95953e-05
2.88928e-05
2.88689e-05
2.88205e-05
2.87611e-05
2.86719e-05
2.8553e-05
2.78202e-05
2.77994e-05
2.77529e-05
2.76941e-05
2.76056e-05
2.74843e-05
2.67204e-05
2.66893e-05
2.66302e-05
2.65576e-05
2.64587e-05
2.63202e-05
2.56548e-05
2.56372e-05
2.55919e-05
2.55295e-05
2.54441e-05
2.53268e-05
2.4441e-05
2.43792e-05
2.42871e-05
2.41831e-05
2.40627e-05
2.38779e-05
2.36333e-05
2.36371e-05
2.36102e-05
2.35447e-05
2.34689e-05
2.33995e-05
2.18136e-05
2.16667e-05
2.15437e-05
2.13969e-05
2.10744e-05
2.24683e-05
2.25294e-05
2.2462e-05
2.24427e-05
2.26509e-05
1.99631e-05
1.99835e-05
2.01318e-05
2.00703e-05
1.96718e-05
2.45901e-05
2.49294e-05
2.48965e-05
2.5042e-05
2.57615e-05
2.60853e-05
2.64635e-05
2.6995e-05
3.11055e-05
3.19948e-05
3.14119e-05
3.05979e-05
)
;

boundaryField
{
    inlet
    {
        type            calculated;
        value           nonuniform List<scalar> 4(6.55173e-05 6.75798e-05 6.80018e-05 6.83823e-05);
    }
    outlet
    {
        type            calculated;
        value           nonuniform List<scalar> 0();
    }
    walls
    {
        type            calculated;
        value           uniform 0;
    }
    frontAndBack
    {
        type            empty;
    }
    procBoundary5to0
    {
        type            processor;
        value           nonuniform List<scalar> 4(0.000809595 0.000837923 0.000867261 0.00090069);
    }
    procBoundary5to1
    {
        type            processor;
        value           nonuniform List<scalar> 
13
(
0.0170326
0.00584821
0.00584821
0.00405931
0.00268624
0.00268624
0.00216799
0.00167285
0.00167285
0.00143495
0.00124695
0.0010497
0.0010497
)
;
    }
    procBoundary5to4
    {
        type            processor;
        value           nonuniform List<scalar> 
95
(
0.000780626
0.000749924
0.000719542
0.000719542
0.000641965
0.000617888
0.000617888
0.000557588
0.000538556
0.000538556
0.000491113
0.000491113
0.000450735
0.000450735
0.000427025
0.000395094
0.000395094
0.000367139
0.000367139
0.000349464
0.000326641
0.000326641
0.00031141
0.000292474
0.000292474
0.00027918
0.000263256
0.000263256
0.000251528
0.000240237
0.000227528
0.000227528
0.000217454
0.000207745
0.000197427
0.000197427
0.000188683
0.000180256
0.000171745
0.000171745
0.000164096
0.000156721
0.000149603
0.000149603
0.000142867
0.000136373
0.00013012
0.000124103
0.000118635
0.000118635
0.000113112
0.000107803
0.000102704
9.78119e-05
9.35035e-05
9.35035e-05
8.90105e-05
8.4708e-05
8.0591e-05
7.66555e-05
7.32116e-05
7.32116e-05
6.96129e-05
6.61816e-05
6.29132e-05
5.98028e-05
5.68455e-05
5.40361e-05
5.15407e-05
5.15407e-05
4.90009e-05
4.6594e-05
4.43092e-05
4.21324e-05
4.00532e-05
3.80718e-05
3.61961e-05
3.4482e-05
3.4482e-05
3.28176e-05
3.12671e-05
2.99795e-05
2.88911e-05
2.7815e-05
2.67232e-05
2.56454e-05
2.44765e-05
2.35935e-05
2.19321e-05
2.19321e-05
2.23794e-05
1.99012e-05
2.42867e-05
2.52707e-05
3.10814e-05
)
;
    }
    procBoundary5to6
    {
        type            processor;
        value           nonuniform List<scalar> 
86
(
0.298142
0.143537
0.135501
0.116599
0.0807742
0.0341514
0.00943747
0.00205275
0.00066317
0
0
4.63425e-05
0.000182037
0.000255091
0.00024226
0.000217171
0.000204792
0.000203034
0.000203794
0.000202892
0.000200001
0.000196078
0.000191864
0.000187623
0.000183368
0.00017903
0.00017458
0.000170019
0.000165348
0.000160592
0.00015577
0.000150887
0.000145967
0.000143044
0.000143044
0.000138139
0.000133217
0.000128299
0.000123403
0.000118545
0.000113743
0.000109012
0.000104366
9.98191e-05
9.53815e-05
9.10629e-05
8.79672e-05
8.79672e-05
8.38386e-05
7.98518e-05
7.60109e-05
7.23191e-05
6.87784e-05
6.53884e-05
6.21488e-05
5.90577e-05
5.65372e-05
5.65372e-05
5.37036e-05
5.10113e-05
4.8457e-05
4.60359e-05
4.37413e-05
4.15627e-05
3.96947e-05
3.96947e-05
3.76984e-05
3.57974e-05
3.39998e-05
3.22987e-05
3.07589e-05
2.94664e-05
2.84347e-05
2.84347e-05
2.73603e-05
2.61812e-05
2.51906e-05
2.37146e-05
2.32369e-05
2.0926e-05
2.24336e-05
1.98264e-05
2.6058e-05
2.6058e-05
2.70554e-05
3.50961e-05
)
;
    }
}


// ************************************************************************* //
