# p  FACE_DATA 150
# x y z  p
0.29576437 -0.05 0.059999701 96051.823
0.28738431 -0.05 0.059968924 95968.918
0.27918472 -0.05 0.059906283 95888.065
0.27116186 -0.05 0.05981265 95807.152
0.26331203 -0.05 0.059689027 95726.332
0.25563166 -0.05 0.059536266 95645.523
0.24811723 -0.05 0.059355154 95564.979
0.24076528 -0.05 0.059146557 95484.385
0.23357246 -0.05 0.058911358 95403.631
0.22653546 -0.05 0.058650341 95322.758
0.21965107 -0.05 0.058364202 95241.74
0.21291613 -0.05 0.058053757 95159.989
0.20632755 -0.05 0.057719714 95078.54
0.19988232 -0.05 0.057362758 94996.604
0.19357748 -0.05 0.056983702 94914.255
0.18741014 -0.05 0.056583118 94832.12
0.18137746 -0.05 0.056161624 94749.568
0.17547671 -0.05 0.055719844 94666.819
0.16970518 -0.05 0.055258362 94583.087
0.16406021 -0.05 0.05477783 94498.731
0.15853921 -0.05 0.054278745 94414.329
0.15313967 -0.05 0.053761636 94328.974
0.14785914 -0.05 0.053226963 94243.277
0.14269518 -0.05 0.052675259 94156.157
0.13764543 -0.05 0.052106992 94069.033
0.13270762 -0.05 0.051522466 93981.182
0.12787949 -0.05 0.050922169 93891.961
0.12315883 -0.05 0.050306449 93802.087
0.11854353 -0.05 0.049675628 93710.829
0.11403148 -0.05 0.04903008 93618.263
0.10962065 -0.05 0.04837006 93524.437
0.10530908 -0.05 0.047695796 93429.367
0.10109483 -0.05 0.047007509 93332.854
0.096976017 -0.05 0.046305459 93234.42
0.092950808 -0.05 0.04558984 93134.472
0.08901745 -0.05 0.044860715 93033.268
0.085174232 -0.05 0.044118143 92929.541
0.081419479 -0.05 0.043362243 92822.643
0.077751578 -0.05 0.042593081 92713.048
0.074168981 -0.05 0.041810614 92600.993
0.070670198 -0.05 0.041014781 92486.911
0.06725379 -0.05 0.040205491 92371.193
0.06391837 -0.05 0.039382651 92252.97
0.060662655 -0.05 0.038545988 92133.275
0.057485397 -0.05 0.037695273 92009.91
0.054385413 -0.05 0.036830261 91884.558
0.051361621 -0.05 0.035950545 91756.718
0.048412992 -0.05 0.035055749 91626.444
0.045538629 -0.05 0.034145316 91493.852
0.042737712 -0.05 0.03321865 91357.787
0.040009498 -0.05 0.032275149 91218.001
0.037353406 -0.05 0.031314032 91075.28
0.034768993 -0.05 0.030334375 90927.418
0.032255944 -0.05 0.02933521 90773.316
0.029814132 -0.05 0.028315426 90617.736
0.027443661 -0.05 0.027273729 90461.604
0.025144824 -0.05 0.026208776 90302.729
0.022918276 -0.05 0.02511886 90144.781
0.020764984 -0.05 0.02400217 89985.142
0.018686283 -0.05 0.022856725 89833.542
0.016684024 -0.05 0.021680228 89701.418
0.01476059 -0.05 0.020470219 89600.668
0.012919252 -0.05 0.019223865 89543.63
0.011164249 -0.05 0.017938283 89530.265
0.0095007128 -0.05 0.016610449 89568.793
0.0079348886 -0.05 0.015236971 89676.688
0.006474941 -0.05 0.013814774 89913.629
0.0051312596 -0.05 0.012341958 90314.276
0.0039150106 -0.05 0.010816511 90923.761
0.0028396284 -0.05 0.009238845 91772.363
0.0019206554 -0.05 0.007613688 92875.399
0.0011720639 -0.05 0.0059475212 94273.971
0.00060615611 -0.05 0.004252283 95911.498
0.00023063831 -0.05 0.0025452878 97662.146
4.5460517e-05 -0.05 0.0008455405 99409.674
0.99536103 -0.05 0.00067021835 101177.35
0.98608198 -0.05 0.0020028877 101087.01
0.97680071 -0.05 0.0033200849 100963.08
0.96751731 -0.05 0.0046220425 100855
0.95823181 -0.05 0.0059090613 100748.85
0.94894428 -0.05 0.0071813587 100648.61
0.93965479 -0.05 0.0084391859 100552.59
0.93036339 -0.05 0.0096828487 100460.62
0.92107012 -0.05 0.010912491 100372.64
0.91177504 -0.05 0.012128333 100288.02
0.90247819 -0.05 0.013330648 100206.71
0.89317963 -0.05 0.014519511 100128.37
0.88387936 -0.05 0.015695054 100052.99
0.87457746 -0.05 0.016857552 99980.052
0.86527394 -0.05 0.01800713 99909.646
0.85596885 -0.05 0.019143875 99841.128
0.84666223 -0.05 0.020267984 99774.652
0.8373541 -0.05 0.021379502 99709.854
0.82804448 -0.05 0.022478516 99646.517
0.8187334 -0.05 0.023565119 99584.361
0.8094209 -0.05 0.024639397 99523.486
0.80010698 -0.05 0.025701394 99463.748
0.79079168 -0.05 0.026751168 99404.961
0.78147501 -0.05 0.027788748 99346.894
0.77215699 -0.05 0.028814138 99289.706
0.76283764 -0.05 0.029827333 99233.274
0.75351698 -0.05 0.030828337 99177.487
0.74419501 -0.05 0.03181713 99122.194
0.73487174 -0.05 0.032793639 99067.471
0.72554719 -0.05 0.033757832 99013.138
0.71622136 -0.05 0.034709535 98959.261
0.70689427 -0.05 0.03564879 98904.924
0.69756592 -0.05 0.036575541 98850.942
0.68823633 -0.05 0.037489546 98796.706
0.67890547 -0.05 0.03839067 98742.733
0.66957337 -0.05 0.039278803 98688.576
0.66024004 -0.05 0.040153805 98634.598
0.65090546 -0.05 0.04101549 98580.415
0.64156964 -0.05 0.041863622 98526.38
0.63223258 -0.05 0.042697993 98471.76
0.62289428 -0.05 0.043518409 98417.209
0.61355475 -0.05 0.04432459 98362.352
0.60421397 -0.05 0.045116236 98307.455
0.59487195 -0.05 0.045893096 98251.665
0.58552869 -0.05 0.046654869 98195.606
0.57618419 -0.05 0.047401205 98138.869
0.56683843 -0.05 0.048131797 98081.781
0.55749143 -0.05 0.048846241 98023.88
0.54814318 -0.05 0.049544112 97965.773
0.53879368 -0.05 0.050225066 97906.842
0.52944294 -0.05 0.050888717 97847.492
0.52009095 -0.05 0.051534504 97787.538
0.51073771 -0.05 0.052161963 97727.179
0.50138323 -0.05 0.052770675 97666.02
0.49202751 -0.05 0.05336005 97604.165
0.48267057 -0.05 0.053929509 97540.875
0.47331239 -0.05 0.054478508 97476.878
0.46395301 -0.05 0.055006444 97411.913
0.45459243 -0.05 0.05551264 97346.239
0.44523065 -0.05 0.055996468 97279.263
0.43586772 -0.05 0.056457197 97211.9
0.42650365 -0.05 0.05689408 97143.45
0.41713847 -0.05 0.057306402 97074.22
0.4077722 -0.05 0.057693321 97003.666
0.39840488 -0.05 0.058053993 96931.994
0.38903656 -0.05 0.058387503 96858.661
0.37966728 -0.05 0.058692933 96783.969
0.3702971 -0.05 0.058969274 96707.946
0.36092607 -0.05 0.059215505 96630.566
0.35155429 -0.05 0.059430617 96551.752
0.34218182 -0.05 0.059613395 96472.307
0.33280876 -0.05 0.059762649 96391.378
0.3234352 -0.05 0.059877122 96308.641
0.31406128 -0.05 0.059955444 96221.835
0.30468712 -0.05 0.059996221 96133.096
