/*--------------------------------*- C++ -*----------------------------------*\
| =========                 |                                                 |
| \\      /  F ield         | OpenFOAM: The Open Source CFD Toolbox           |
|  \\    /   O peration     | Version:  2306                                  |
|   \\  /    A nd           | Website:  www.openfoam.com                      |
|    \\/     M anipulation  |                                                 |
\*---------------------------------------------------------------------------*/
FoamFile
{
    version     2.0;
    format      ascii;
    arch        "LSB;label=32;scalar=64";
    class       volScalarField;
    location    "275";
    object      div(phi);
}
// * * * * * * * * * * * * * * * * * * * * * * * * * * * * * * * * * * * * * //

dimensions      [0 0 -1 0 0 0 0];

internalField   nonuniform List<scalar> 
1340
(
1.06819e-08
-2.56254e-08
-4.65778e-09
-4.14772e-09
1.77587e-10
-4.79721e-09
1.12345e-08
-1.51739e-08
1.01743e-09
5.34738e-10
-6.46447e-10
-3.83181e-09
7.38822e-09
6.33544e-09
-4.02758e-10
3.3212e-09
2.11904e-09
-1.80839e-09
-1.74765e-09
5.26061e-10
-1.68193e-09
-6.43418e-09
6.35719e-09
6.19397e-09
1.12623e-08
-4.62529e-10
8.27411e-09
4.63977e-09
7.53991e-09
-7.64416e-11
-3.68491e-09
1.04594e-09
1.55512e-09
-7.24182e-10
-1.64476e-09
-6.62831e-08
-1.12738e-08
-2.3914e-08
2.99669e-09
-2.41442e-08
8.78307e-09
5.5344e-09
-2.01422e-09
-2.20665e-09
1.0493e-08
3.88952e-09
4.62587e-09
-1.8536e-09
2.21936e-09
2.89905e-09
-1.58151e-09
-1.59884e-09
9.95889e-10
-2.0039e-10
-7.91606e-09
-1.79616e-08
1.83193e-08
7.501e-09
-9.13623e-10
1.03999e-08
-3.16976e-08
-1.00405e-08
-2.07384e-08
-1.08279e-08
-2.78446e-08
7.90334e-09
-8.55573e-10
-3.29039e-09
-1.45618e-09
4.76117e-09
-2.20135e-09
5.33204e-09
2.22737e-09
6.59305e-09
-2.22369e-10
-3.43064e-09
1.36888e-09
2.07502e-09
-5.42177e-10
-6.98194e-10
-1.08555e-07
-6.54185e-08
-3.85241e-08
-2.88613e-08
-2.60712e-08
-8.47985e-09
-2.01943e-08
-7.35173e-10
-1.72808e-08
5.93871e-09
-2.05788e-08
1.23967e-08
-1.79837e-08
1.64344e-08
-1.36116e-08
1.86214e-08
-1.1571e-08
6.20631e-10
-1.39255e-08
-1.79195e-08
-1.54942e-08
-2.65867e-08
-2.87113e-11
-1.53374e-08
4.86203e-09
2.00307e-10
-2.38548e-09
-8.80406e-09
6.97254e-09
2.23257e-09
4.51781e-09
-2.50816e-09
1.49963e-09
3.63939e-09
-1.03355e-09
-1.19093e-09
1.34517e-09
5.32466e-10
3.06475e-06
-2.19603e-06
1.57019e-06
-1.65914e-06
1.80466e-06
-1.33825e-06
1.89273e-06
-1.06839e-06
1.86873e-06
-8.4499e-07
1.77769e-06
-6.59721e-07
1.64558e-06
-5.1392e-07
1.47098e-06
-4.04465e-07
1.29313e-06
-3.29099e-07
1.09162e-06
-2.82893e-07
9.14092e-07
-2.58538e-07
7.23621e-07
-2.48081e-07
5.83577e-07
-2.42162e-07
4.28399e-07
-2.32062e-07
3.42512e-07
-2.04358e-07
2.35106e-07
-1.4696e-07
2.03868e-07
-7.82748e-08
1.8789e-07
-3.52863e-08
1.43155e-07
-5.09091e-09
1.12709e-07
7.32478e-09
8.82616e-08
1.14669e-08
4.7173e-08
2.86689e-08
4.20372e-08
3.7011e-08
3.1758e-08
3.67702e-08
2.05358e-08
3.17404e-08
1.1039e-08
2.47011e-08
3.98429e-09
1.70739e-08
8.81264e-10
1.19104e-08
-8.74112e-10
7.99019e-09
5.15862e-10
2.94339e-09
-5.05907e-09
-9.86498e-09
-1.13787e-08
-1.50529e-08
-5.31965e-09
-2.46887e-08
5.71922e-09
-7.95989e-09
-2.16557e-09
-1.36735e-08
5.99393e-09
-5.30122e-09
3.30783e-09
-6.75754e-11
5.57835e-09
4.07162e-10
-2.76473e-09
1.64831e-09
2.52384e-09
-2.39631e-10
-3.49922e-10
1.92702e-06
-1.8403e-06
3.6989e-07
-1.56527e-06
5.09949e-07
-1.4199e-06
6.30049e-07
-1.27485e-06
6.59521e-07
-1.14429e-06
6.80189e-07
-1.02171e-06
6.51615e-07
-9.13956e-07
6.16945e-07
-8.13029e-07
5.69612e-07
-7.18928e-07
5.18115e-07
-6.26347e-07
4.73236e-07
-5.34491e-07
4.26354e-07
-4.4626e-07
3.88263e-07
-3.64393e-07
3.40692e-07
-2.93231e-07
2.9882e-07
-2.29181e-07
2.45555e-07
-1.86508e-07
2.12927e-07
-1.55899e-07
1.14582e-07
-1.14557e-07
9.68581e-08
-6.64581e-08
7.83051e-08
-1.99944e-08
6.70939e-08
1.59985e-08
7.3195e-08
3.29754e-08
5.94976e-08
3.56001e-08
4.21472e-08
3.22792e-08
2.71585e-08
2.74129e-08
1.62017e-08
2.10354e-08
8.70802e-09
1.5275e-08
4.25277e-09
9.59383e-09
2.29408e-09
5.40876e-09
1.28763e-09
1.48904e-09
-1.70849e-09
-5.32813e-09
-6.0285e-09
-4.96134e-09
-1.95986e-08
7.9249e-10
-1.59407e-08
2.65628e-09
-1.63125e-08
4.77757e-09
-1.35359e-08
6.87994e-09
7.93859e-10
4.19521e-09
-2.82537e-09
1.00681e-09
3.45663e-09
-2.40842e-10
-1.21101e-09
1.4554e-09
7.07494e-10
-1.88152e-07
-2.87646e-06
-1.01194e-06
-2.35867e-06
-5.90463e-07
-1.9321e-06
-2.52427e-07
-1.55714e-06
1.00539e-07
-1.2403e-06
3.15722e-07
-1.00032e-06
4.76813e-07
-8.14721e-07
5.49161e-07
-6.72847e-07
5.82848e-07
-5.5888e-07
5.80085e-07
-4.63718e-07
5.52934e-07
-3.84218e-07
5.1963e-07
-3.13574e-07
4.64403e-07
-2.55258e-07
4.23871e-07
-2.02389e-07
3.55285e-07
-1.58787e-07
3.14143e-07
-1.05457e-07
2.4408e-07
-5.07111e-08
2.44009e-07
-1.56629e-08
1.95643e-07
-5.73663e-09
1.39307e-07
-1.04609e-08
9.84611e-08
-1.75926e-08
4.65121e-08
-1.72771e-08
2.1663e-08
-7.61459e-09
1.21139e-08
2.58054e-09
7.98471e-09
8.82757e-09
5.17391e-09
1.03493e-08
2.46073e-09
8.46018e-09
4.04444e-10
5.45232e-09
-4.8627e-10
2.63507e-09
-5.50763e-10
2.78174e-10
-9.76449e-10
-2.85264e-09
-1.94048e-09
-7.64268e-09
-1.67172e-09
-1.24507e-08
1.45232e-09
-8.55466e-09
4.83365e-09
-1.5615e-08
1.09259e-08
-3.41988e-09
2.98047e-09
-4.53786e-09
4.10054e-09
6.67063e-10
-2.01892e-09
8.45699e-10
2.28143e-09
-2.3931e-10
-1.82578e-10
2.12648e-07
-2.66937e-06
-7.36239e-07
-2.1131e-06
-3.84961e-07
-1.69418e-06
-1.38757e-07
-1.36085e-06
8.89073e-08
-1.09943e-06
2.1551e-07
-9.09014e-07
3.04614e-07
-7.63651e-07
3.36772e-07
-6.53127e-07
3.49289e-07
-5.60496e-07
3.4119e-07
-4.8103e-07
3.2894e-07
-4.08606e-07
3.11294e-07
-3.43557e-07
2.92433e-07
-2.84639e-07
2.72494e-07
-2.329e-07
2.47331e-07
-1.88275e-07
2.23092e-07
-1.5011e-07
1.92818e-07
-1.20971e-07
1.54862e-07
-8.95177e-08
1.1329e-07
-6.25316e-08
9.90382e-08
-3.9352e-08
6.54513e-08
-2.49826e-08
5.05702e-08
-1.57863e-08
3.29529e-08
-1.16736e-08
1.70722e-08
-8.06538e-09
6.3732e-09
-4.63135e-09
2.3621e-10
-1.61104e-09
-2.67545e-09
4.44738e-10
-3.30185e-09
1.33648e-09
-2.49718e-09
1.41645e-09
-1.24278e-09
9.66623e-10
-2.11518e-10
-5.12436e-12
1.68746e-10
-4.4574e-10
-2.91272e-09
2.03637e-10
-1.57545e-09
2.38731e-09
-1.1709e-08
1.12996e-08
-8.7975e-09
5.77002e-09
-5.85903e-09
4.67855e-09
-4.22034e-09
-8.28376e-11
-3.38764e-10
-8.22782e-10
-1.29908e-09
1.2639e-09
7.37604e-10
-7.97289e-07
-2.19337e-06
-4.04974e-07
-1.39914e-06
4.62418e-08
-1.00869e-06
2.40623e-07
-7.95047e-07
3.03491e-07
-6.68327e-07
3.28182e-07
-5.79945e-07
3.22772e-07
-5.09869e-07
3.26814e-07
-4.48749e-07
3.15995e-07
-3.95382e-07
3.08291e-07
-3.48603e-07
2.91745e-07
-3.06824e-07
2.70016e-07
-2.69338e-07
2.48539e-07
-2.32054e-07
2.24414e-07
-1.9842e-07
2.04628e-07
-1.65811e-07
1.79711e-07
-1.38146e-07
1.57975e-07
-1.10473e-07
1.32904e-07
-9.25492e-08
1.12004e-07
-8.25102e-08
6.70771e-08
-7.92475e-08
3.89463e-08
-7.40652e-08
9.94058e-09
-6.59704e-08
-6.90704e-09
-5.00192e-08
-9.53611e-09
-3.19148e-08
-7.41706e-09
-1.56704e-08
-4.07037e-09
-3.91101e-09
-1.50151e-09
2.17836e-09
-6.43062e-10
4.15707e-09
-2.68401e-10
3.88031e-09
2.25132e-10
2.61043e-09
1.10617e-09
1.18736e-09
2.23375e-09
9.11253e-10
2.78939e-09
8.9914e-10
2.45271e-09
-3.44372e-09
9.96477e-09
-1.01016e-08
9.1614e-09
-7.44004e-09
5.02947e-09
-7.56477e-09
2.80145e-09
-3.35864e-09
-2.77094e-09
-2.25532e-09
1.1301e-09
-2.43145e-10
-1.60596e-10
2.00321e-06
-1.74719e-06
-2.10508e-07
-1.43189e-06
-7.15238e-08
-1.16879e-06
1.01711e-07
-9.18113e-07
2.23193e-07
-7.15826e-07
3.0449e-07
-5.63257e-07
3.32722e-07
-4.56699e-07
3.30881e-07
-3.81671e-07
3.08284e-07
-3.29513e-07
2.7934e-07
-2.90233e-07
2.47457e-07
-2.60454e-07
2.18478e-07
-2.34304e-07
1.92876e-07
-2.11718e-07
1.71244e-07
-1.8893e-07
1.54424e-07
-1.67609e-07
1.39612e-07
-1.45752e-07
1.28889e-07
-1.25485e-07
1.14639e-07
-1.05287e-07
1.06388e-07
-8.77533e-08
8.82124e-08
-7.27609e-08
7.79206e-08
-5.83209e-08
5.54726e-08
-4.14004e-08
4.90322e-08
-2.24269e-08
4.23441e-08
-7.07099e-09
3.58465e-08
3.02933e-09
2.93292e-08
6.61382e-09
1.90489e-08
6.27064e-09
9.68796e-09
5.19367e-09
3.35132e-09
4.48893e-09
1.36469e-10
4.22992e-09
-7.43491e-10
4.11963e-09
3.84593e-10
4.07621e-09
2.36941e-09
4.39865e-09
1.0607e-09
6.42589e-09
-9.35692e-09
9.55561e-09
-1.01208e-08
6.43803e-09
-8.88935e-09
5.04696e-09
-5.60781e-09
-1.2919e-09
-3.42426e-09
-9.21108e-10
-1.65553e-09
5.47869e-10
4.32526e-10
3.12019e-07
-1.25186e-06
3.36973e-07
-6.5296e-07
6.26132e-07
-4.10978e-07
6.33302e-07
-3.15935e-07
5.69498e-07
-2.71508e-07
4.77868e-07
-2.4287e-07
4.02491e-07
-2.1548e-07
3.43244e-07
-1.89601e-07
2.95369e-07
-1.67536e-07
2.57877e-07
-1.49161e-07
2.22807e-07
-1.35222e-07
1.96606e-07
-1.24434e-07
1.69169e-07
-1.17523e-07
1.47191e-07
-1.12488e-07
1.25234e-07
-1.08994e-07
1.05715e-07
-1.04509e-07
8.96912e-08
-9.81665e-08
7.61622e-08
-8.9402e-08
6.70484e-08
-7.88484e-08
5.84378e-08
-6.71572e-08
5.20972e-08
-5.43014e-08
4.45603e-08
-4.30281e-08
4.05522e-08
-3.45883e-08
2.6401e-08
-2.86172e-08
1.83557e-08
-2.31971e-08
7.61504e-09
-1.79058e-08
1.11748e-09
-1.13955e-08
-1.29929e-09
-5.18131e-09
-1.77826e-09
-3.55022e-10
-1.35533e-09
2.71711e-09
-7.56997e-10
4.29133e-09
4.90973e-10
4.98297e-09
2.33354e-09
4.13057e-09
1.96069e-09
-4.13041e-09
3.73429e-09
-1.07631e-08
7.43852e-09
-8.63659e-09
6.44091e-09
-7.4212e-09
1.74065e-09
-5.03281e-09
-1.96981e-09
-3.30537e-09
4.81021e-10
-5.54047e-10
-2.80933e-10
4.08684e-06
5.41206e-07
1.52342e-06
4.82202e-07
1.18742e-06
3.27562e-07
9.19682e-07
2.08492e-07
7.07571e-07
1.23595e-07
5.56598e-07
6.71804e-08
4.43821e-07
2.86158e-08
3.60121e-07
1.97772e-09
2.95443e-07
-1.6608e-08
2.44223e-07
-2.91801e-08
2.06711e-07
-3.76292e-08
1.74474e-07
-4.37033e-08
1.51092e-07
-4.80144e-08
1.29101e-07
-5.13197e-08
1.12139e-07
-5.36748e-08
9.6002e-08
-5.49561e-08
8.26579e-08
-5.53086e-08
7.12249e-08
-5.40489e-08
6.00504e-08
-5.18018e-08
5.29845e-08
-4.74691e-08
4.35076e-08
-4.21318e-08
4.01357e-08
-3.37347e-08
3.18772e-08
-2.32156e-08
3.17791e-08
-1.18551e-08
2.89931e-08
-3.54941e-09
2.49074e-08
1.56175e-09
2.01708e-08
3.30647e-09
1.35465e-08
3.36081e-09
7.81233e-09
3.27651e-09
3.78247e-09
3.43923e-09
1.40214e-09
3.871e-09
8.63907e-10
3.98959e-09
1.75939e-09
3.8743e-09
1.18443e-09
3.37797e-09
-1.87559e-09
5.30003e-09
-7.21528e-09
4.69446e-09
-8.47419e-09
3.46687e-09
-6.21635e-09
-5.61821e-10
-4.77506e-09
-3.05974e-10
-2.73207e-09
-1.11471e-10
1.42002e-10
-2.47075e-06
3.26784e-07
-6.65844e-07
-1.86535e-07
-4.71503e-07
-3.29621e-08
-3.56315e-07
2.93857e-08
-2.9486e-07
6.10081e-08
-2.54472e-07
7.36087e-08
-2.2312e-07
8.57517e-08
-1.94782e-07
9.02964e-08
-1.69677e-07
9.55576e-08
-1.46403e-07
9.46038e-08
-1.26179e-07
9.55935e-08
-1.08737e-07
9.05037e-08
-9.54012e-08
8.59572e-08
-8.50642e-08
7.70963e-08
-7.78753e-08
6.93547e-08
-7.24246e-08
6.00068e-08
-6.84246e-08
5.1708e-08
-6.44107e-08
4.41932e-08
-6.00254e-08
3.80224e-08
-5.47694e-08
3.35956e-08
-4.88829e-08
2.95476e-08
-4.2443e-08
2.67251e-08
-3.51192e-08
2.32519e-08
-2.81903e-08
2.23838e-08
-2.25462e-08
1.52836e-08
-1.81168e-08
1.16182e-08
-1.39378e-08
6.1029e-09
-9.89319e-09
2.73688e-09
-5.3337e-09
1.53601e-09
-1.33568e-09
1.01279e-09
1.36785e-09
7.45298e-10
2.70197e-09
3.70935e-10
3.28555e-09
7.75407e-10
3.58589e-09
6.57629e-10
2.76832e-09
1.38129e-09
-4.86064e-09
1.21001e-09
-8.08978e-09
2.65554e-09
-6.63709e-09
1.33402e-09
-5.92798e-09
-4.48004e-10
-4.68558e-09
2.75481e-10
-7.7492e-10
-4.207e-10
3.2044e-06
1.4605e-06
4.71441e-07
5.29497e-07
1.41472e-07
2.44035e-07
-7.56601e-09
1.35803e-07
-6.62545e-08
8.95845e-08
-9.09092e-08
7.44989e-08
-1.00231e-07
6.41989e-08
-1.02544e-07
6.61304e-08
-9.98135e-08
6.46738e-08
-9.5415e-08
6.72699e-08
-8.89784e-08
6.56941e-08
-8.18972e-08
6.6456e-08
-7.42975e-08
6.3528e-08
-6.73325e-08
6.14011e-08
-6.10423e-08
5.66539e-08
-5.57748e-08
5.18823e-08
-5.13641e-08
4.61537e-08
-4.74796e-08
4.06579e-08
-4.41181e-08
3.57394e-08
-4.06706e-08
3.04273e-08
-3.73349e-08
2.73611e-08
-3.32478e-08
2.26813e-08
-2.89508e-08
2.164e-08
-2.30204e-08
1.74272e-08
-1.58607e-08
1.81275e-08
-8.07236e-09
1.72687e-08
-2.0475e-09
1.55787e-08
1.94235e-09
1.34185e-08
3.53528e-09
9.69238e-09
3.5227e-09
5.95924e-09
3.02147e-09
2.83331e-09
2.59776e-09
8.21684e-10
2.16972e-09
2.08513e-10
1.89225e-09
-4.89624e-10
1.53851e-09
-6.30054e-10
7.40957e-10
-3.16559e-09
8.50277e-10
-6.00511e-09
1.0746e-09
-6.43886e-09
2.35178e-10
-5.46548e-09
8.79375e-10
-2.25681e-09
-4.59464e-10
-1.6333e-10
-1.733e-06
-1.15903e-08
-5.07486e-07
-2.53703e-07
-3.49365e-07
-1.05738e-07
-2.55542e-07
-3.22449e-08
-2.05005e-07
-1.67166e-09
-1.75393e-07
1.70708e-08
-1.53589e-07
2.53804e-08
-1.35961e-07
3.50554e-08
-1.19919e-07
3.90883e-08
-1.06151e-07
4.46882e-08
-9.33853e-08
4.53933e-08
-8.24346e-08
4.80346e-08
-7.28586e-08
4.61667e-08
-6.55597e-08
4.46706e-08
-5.97558e-08
4.03116e-08
-5.54762e-08
3.61595e-08
-5.18505e-08
3.1313e-08
-4.86376e-08
2.66347e-08
-4.51762e-08
2.28004e-08
-4.1311e-08
1.93593e-08
-3.69357e-08
1.72582e-08
-3.22665e-08
1.51623e-08
-2.74544e-08
1.40416e-08
-2.23045e-08
1.23464e-08
-1.75109e-08
1.22176e-08
-1.34837e-08
8.46212e-09
-1.01669e-08
6.706e-09
-7.14713e-09
3.92043e-09
-4.61504e-09
1.93722e-09
-2.26224e-09
8.87383e-10
-6.0636e-10
5.65451e-11
1.32944e-10
-7.43748e-10
3.408e-10
-1.22535e-09
4.95247e-10
-1.64252e-09
6.33071e-10
-1.75828e-09
1.66408e-10
-9.94986e-10
-4.01561e-09
-4.88055e-10
-5.31672e-09
4.91718e-10
-5.10187e-09
1.43838e-09
-3.53641e-09
3.97742e-11
-9.1594e-10
-4.51431e-10
3.45105e-07
-2.03264e-08
-1.09928e-07
1.18928e-07
-1.25922e-07
7.16582e-08
-1.28872e-07
5.06017e-08
-1.21309e-07
4.34515e-08
-1.10142e-07
3.89702e-08
-9.90464e-08
3.90332e-08
-8.87832e-08
3.70995e-08
-8.04133e-08
3.77383e-08
-7.29594e-08
3.59203e-08
-6.65678e-08
3.65348e-08
-6.06552e-08
3.48187e-08
-5.55629e-08
3.40738e-08
-5.08623e-08
3.17854e-08
-4.65323e-08
3.00123e-08
-4.24527e-08
2.75207e-08
-3.85489e-08
2.50754e-08
-3.49314e-08
2.25647e-08
-3.14061e-08
1.99874e-08
-2.82452e-08
1.79576e-08
-2.50846e-08
1.53627e-08
-2.21885e-08
1.41418e-08
-1.89537e-08
1.19813e-08
-1.58274e-08
1.18269e-08
-1.19582e-08
9.7472e-09
-7.58458e-09
1.01928e-08
-3.09378e-09
9.69587e-09
9.6262e-11
8.4123e-09
1.74273e-09
6.72337e-09
1.74777e-09
3.99652e-09
8.31072e-10
1.23638e-09
2.39633e-11
-6.88849e-10
-4.96028e-10
-1.60266e-09
-7.29591e-10
-2.10594e-09
-5.61801e-10
-2.60013e-09
-3.09648e-10
-1.32748e-09
-6.29843e-10
-2.24241e-09
-3.05252e-10
-4.05504e-09
1.56127e-09
-4.17033e-09
5.35803e-10
-2.03159e-09
-7.70007e-10
-5.2339e-10
5.52607e-06
1.34355e-06
1.05559e-06
1.05862e-06
5.53397e-07
5.38446e-07
2.60283e-07
2.78144e-07
1.17079e-07
1.43204e-07
4.74375e-08
7.70108e-08
1.44957e-08
4.13732e-08
-1.10472e-09
2.29713e-08
-8.11242e-09
1.37232e-08
-1.1018e-08
8.19848e-09
-1.23383e-08
7.31373e-09
-1.28386e-08
5.55578e-09
-1.37021e-08
6.83255e-09
-1.46117e-08
5.84143e-09
-1.62257e-08
6.73728e-09
-1.77624e-08
5.80139e-09
-1.94342e-08
5.98438e-09
-2.04788e-08
5.38882e-09
-2.10049e-08
5.26231e-09
-2.05969e-08
5.16222e-09
-1.94756e-08
5.07011e-09
-1.75844e-08
5.28632e-09
-1.52901e-08
5.43199e-09
-1.27778e-08
5.55656e-09
-1.01645e-08
5.23007e-09
-7.89502e-09
5.12056e-09
-6.35382e-09
2.77451e-09
-5.43395e-09
1.1566e-09
-4.80274e-09
-9.15476e-10
-4.31013e-09
-2.40273e-09
-3.62507e-09
-2.90642e-09
-3.02574e-09
-3.08358e-09
-2.48212e-09
-3.04819e-09
-1.80004e-09
-2.81951e-09
-1.09906e-09
-3.07116e-09
-4.35809e-10
-1.44399e-09
-3.23957e-10
-8.01787e-10
-2.56792e-09
1.33918e-09
-3.7515e-09
4.60597e-10
-2.87211e-09
-1.11988e-09
-1.30218e-09
-5.25343e-10
-4.51362e-06
-2.54848e-07
-1.04402e-06
-4.97412e-07
-6.26435e-07
-1.55562e-07
-3.99605e-07
-1.32962e-08
-2.87123e-07
4.12553e-08
-2.23841e-07
6.2073e-08
-1.80962e-07
7.05084e-08
-1.47512e-07
7.2729e-08
-1.20287e-07
7.27306e-08
-9.76535e-08
6.80867e-08
-7.91317e-08
6.38851e-08
-6.32372e-08
5.64992e-08
-5.0375e-08
5.08045e-08
-3.95021e-08
4.20364e-08
-3.10186e-08
3.57043e-08
-2.38065e-08
2.79382e-08
-1.83338e-08
2.24179e-08
-1.38702e-08
1.69746e-08
-1.08407e-08
1.29066e-08
-8.76843e-09
9.37606e-09
-7.76001e-09
6.68822e-09
-7.26135e-09
4.27533e-09
-7.18527e-09
2.79515e-09
-6.93422e-09
1.16098e-09
-6.64272e-09
6.90592e-10
-5.78659e-09
-6.51328e-10
-4.49764e-09
-5.97431e-10
-3.0194e-09
-5.64726e-10
-1.99665e-09
-8.65904e-10
-1.63287e-09
-1.06098e-09
-1.77678e-09
-1.78624e-09
-1.95549e-09
-2.26088e-09
-1.84954e-09
-2.24352e-09
-1.61381e-09
-2.02208e-09
-1.29389e-09
-2.49671e-09
-1.09535e-09
-1.59795e-09
-3.6239e-10
-1.09058e-09
8.87774e-10
-2.27e-09
-2.00144e-10
-2.67854e-09
-1.34045e-09
-1.44725e-09
-7.84657e-10
-1.84557e-10
1.05517e-06
4.08245e-07
6.55268e-07
2.14522e-07
5.966e-07
1.74997e-07
5.19373e-07
1.17829e-07
4.39983e-07
6.89441e-08
3.68138e-07
2.74644e-08
3.05317e-07
-3.0778e-09
2.51642e-07
-2.37344e-08
2.06157e-07
-3.90484e-08
1.67137e-07
-4.62557e-08
1.34048e-07
-5.22888e-08
1.05148e-07
-5.2304e-08
8.11011e-08
-5.30786e-08
6.06753e-08
-4.80301e-08
4.4393e-08
-4.51292e-08
3.07227e-08
-3.85997e-08
2.01567e-08
-3.45732e-08
1.16e-08
-2.891e-08
5.35384e-09
-2.51822e-08
6.91379e-10
-2.11204e-08
-2.34056e-09
-1.82485e-08
-4.28698e-09
-1.53706e-08
-5.24076e-09
-1.32627e-08
-5.68108e-09
-1.09227e-08
-5.69509e-09
-9.40909e-09
-5.5763e-09
-7.54479e-09
-5.53138e-09
-6.65096e-09
-5.73865e-09
-6.5688e-09
-5.88392e-09
-6.22732e-09
-5.61561e-09
-5.84869e-09
-4.88053e-09
-4.8339e-09
-3.82427e-09
-3.6043e-09
-2.75955e-09
-2.62244e-09
-1.82191e-09
-1.86967e-09
-1.32107e-09
-2.11094e-09
-9.79128e-10
-9.51537e-10
-5.02047e-10
-2.70526e-10
-7.84659e-10
-5.88358e-10
-1.30842e-09
-8.4047e-10
-7.31954e-10
-4.02826e-10
-1.49283e-10
-4.08569e-16
)
;

boundaryField
{
    inlet
    {
        type            extrapolatedCalculated;
        value           nonuniform List<scalar> 
23
(
-2.56254e-08
-4.79721e-09
-3.83181e-09
-1.68193e-09
-1.64476e-09
-2.0039e-10
-6.98194e-10
5.32466e-10
-3.49922e-10
7.07494e-10
-1.82578e-10
7.37604e-10
-1.60596e-10
4.32526e-10
-2.80933e-10
1.42002e-10
-4.207e-10
-1.6333e-10
-4.51431e-10
-5.2339e-10
-5.25343e-10
-1.84557e-10
-4.08569e-16
)
;
    }
    outlet
    {
        type            extrapolatedCalculated;
        value           nonuniform List<scalar> 
82
(
1.05517e-06
6.55268e-07
4.08245e-07
2.14522e-07
5.966e-07
1.74997e-07
5.19373e-07
1.17829e-07
4.39983e-07
6.89441e-08
3.68138e-07
2.74644e-08
3.05317e-07
-3.0778e-09
2.51642e-07
-2.37344e-08
2.06157e-07
-3.90484e-08
1.67137e-07
-4.62557e-08
1.34048e-07
-5.22888e-08
1.05148e-07
-5.2304e-08
8.11011e-08
-5.30786e-08
6.06753e-08
-4.80301e-08
4.4393e-08
-4.51292e-08
3.07227e-08
-3.85997e-08
2.01567e-08
-3.45732e-08
1.16e-08
-2.891e-08
5.35384e-09
-2.51822e-08
6.91379e-10
-2.11204e-08
-2.34056e-09
-1.82485e-08
-4.28698e-09
-1.53706e-08
-5.24076e-09
-1.32627e-08
-5.68108e-09
-1.09227e-08
-5.69509e-09
-9.40909e-09
-5.5763e-09
-7.54479e-09
-5.53138e-09
-6.65096e-09
-5.73865e-09
-6.5688e-09
-5.88392e-09
-6.22732e-09
-5.61561e-09
-5.84869e-09
-4.88053e-09
-4.8339e-09
-3.82427e-09
-3.6043e-09
-2.75955e-09
-2.62244e-09
-1.82191e-09
-1.86967e-09
-1.32107e-09
-2.11094e-09
-9.79128e-10
-9.51537e-10
-5.02047e-10
-2.70526e-10
-7.84659e-10
-5.88358e-10
-1.30842e-09
-8.4047e-10
-7.31954e-10
-4.02826e-10
-1.49283e-10
-4.08569e-16
)
;
    }
    walls
    {
        type            extrapolatedCalculated;
        value           nonuniform List<scalar> 0();
    }
    frontAndBack
    {
        type            empty;
    }
    procBoundary3to2
    {
        type            processor;
        value           nonuniform List<scalar> 
88
(
-2.25279e-09
-7.33222e-09
3.03867e-09
-2.57482e-10
-2.57482e-10
2.84494e-09
3.9627e-09
3.9627e-09
1.41155e-08
8.62639e-09
1.10631e-08
1.10631e-08
2.48983e-08
7.05258e-09
8.72288e-10
2.10599e-10
1.99999e-08
1.99999e-08
1.1651e-08
-1.42453e-08
-4.7269e-09
-2.09538e-08
2.28297e-08
2.28297e-08
-5.14092e-09
5.74339e-09
3.97947e-09
3.57738e-09
1.86219e-08
-3.30763e-08
2.46688e-08
2.46688e-08
-8.31739e-08
-4.27121e-08
-6.55089e-08
-2.08319e-08
-4.49797e-08
-1.29092e-08
-3.36177e-08
-7.74923e-09
-2.25342e-08
-8.67968e-09
-1.3093e-08
-6.86426e-09
-6.86426e-09
2.52617e-07
-3.04121e-06
-1.31825e-06
-2.03218e-06
-7.53563e-07
-1.55685e-06
-5.24342e-07
-1.30405e-06
-3.57316e-07
-1.14634e-06
-2.73364e-07
-1.04736e-06
-1.84387e-07
-9.65587e-07
-1.30351e-07
-8.94349e-07
-6.29217e-08
-8.19411e-07
-1.27323e-08
-7.46866e-07
1.91291e-08
-6.69036e-07
5.09654e-08
-5.90046e-07
5.78225e-08
-5.06003e-07
6.49761e-08
-4.17143e-07
6.87787e-08
-3.43864e-07
6.67027e-08
-2.89758e-07
-4.31136e-10
-2.41994e-07
-2.10233e-08
-1.87429e-07
-4.71022e-08
-1.30802e-07
-3.76437e-08
-1.13604e-07
-2.27478e-08
-1.31382e-07
-1.31382e-07
)
;
    }
    procBoundary3to6
    {
        type            processor;
        value           uniform -6.91491e-06;
    }
    procBoundary3to7
    {
        type            processor;
        value           nonuniform List<scalar> 
16
(
-3.48797e-06
-2.88183e-06
-4.87658e-06
-4.3363e-06
-5.02393e-06
-1.66687e-06
-3.25542e-06
3.46449e-07
3.46449e-07
-2.28622e-06
3.22834e-06
-1.4268e-06
-1.76893e-07
4.81207e-06
-4.23402e-06
1.51788e-06
)
;
    }
}


// ************************************************************************* //
