/*--------------------------------*- C++ -*----------------------------------*\
| =========                 |                                                 |
| \\      /  F ield         | OpenFOAM: The Open Source CFD Toolbox           |
|  \\    /   O peration     | Version:  2306                                  |
|   \\  /    A nd           | Website:  www.openfoam.com                      |
|    \\/     M anipulation  |                                                 |
\*---------------------------------------------------------------------------*/
FoamFile
{
    version     2.0;
    format      ascii;
    arch        "LSB;label=32;scalar=64";
    class       volScalarField;
    location    "275";
    object      turbulenceProperties:L;
}
// * * * * * * * * * * * * * * * * * * * * * * * * * * * * * * * * * * * * * //

dimensions      [0 1 0 0 0 0 0];

internalField   nonuniform List<scalar> 
1340
(
0.257249
0.183417
0.544452
0.268936
0.257644
0.18328
0.518519
0.408933
0.549958
0.268431
0.257596
0.183235
0.381255
0.406347
0.419537
0.50631
0.404282
0.553284
0.26789
0.25724
0.183238
0.318841
0.331196
0.342448
0.35402
0.367422
0.381552
0.405356
0.41713
0.494128
0.399952
0.554624
0.267332
0.256683
0.183261
0.26913
0.277958
0.287699
0.298252
0.309814
0.32201
0.333844
0.344545
0.355568
0.368329
0.381757
0.404142
0.41448
0.482205
0.396015
0.554121
0.266805
0.256009
0.183299
0.230693
0.235802
0.241242
0.247012
0.253132
0.259662
0.266725
0.274464
0.282999
0.292387
0.302518
0.313617
0.325303
0.33656
0.34668
0.357127
0.369201
0.3819
0.402738
0.411646
0.470679
0.392506
0.551938
0.266318
0.255287
0.183369
0.19869
0.20101
0.203478
0.206102
0.208882
0.211827
0.214943
0.218239
0.221729
0.225438
0.229396
0.233637
0.238185
0.243059
0.248258
0.253782
0.259651
0.265926
0.272721
0.280164
0.288358
0.297343
0.307002
0.317588
0.328705
0.339337
0.348849
0.358695
0.370044
0.381987
0.401163
0.408663
0.459626
0.389462
0.54825
0.26589
0.25461
0.183448
0.203667
0.196435
0.207537
0.20451
0.204583
0.200367
0.198213
0.196151
0.194417
0.192822
0.191393
0.190126
0.189047
0.188141
0.187366
0.186765
0.186308
0.18599
0.185802
0.185734
0.185783
0.185942
0.186198
0.186545
0.18698
0.187497
0.188089
0.188749
0.189482
0.190277
0.19114
0.192067
0.193057
0.194117
0.195244
0.196443
0.197722
0.199077
0.200524
0.202067
0.203707
0.205462
0.207337
0.209338
0.211472
0.213757
0.216192
0.21878
0.221531
0.224447
0.227533
0.230806
0.234289
0.238009
0.242004
0.246295
0.250902
0.255828
0.261073
0.266659
0.272641
0.279127
0.286228
0.294031
0.302559
0.311695
0.321719
0.332208
0.342166
0.351052
0.360275
0.370867
0.382027
0.399431
0.405557
0.449088
0.386888
0.543296
0.265565
0.254014
0.183524
0.197047
0.218867
0.228401
0.21909
0.217329
0.214135
0.212286
0.210289
0.208562
0.206965
0.205544
0.204295
0.203216
0.202301
0.201526
0.200919
0.200452
0.20011
0.1999
0.199809
0.199825
0.199945
0.20016
0.200459
0.200842
0.201299
0.201821
0.202412
0.203064
0.203773
0.204541
0.205366
0.206249
0.20719
0.208191
0.20926
0.210395
0.211603
0.212894
0.214273
0.215747
0.217324
0.21902
0.220841
0.222788
0.224882
0.227119
0.229505
0.232047
0.234742
0.237598
0.240629
0.243857
0.247308
0.251022
0.255022
0.25933
0.263949
0.268882
0.27415
0.279802
0.285935
0.292645
0.300004
0.308021
0.316581
0.325994
0.335799
0.345044
0.353291
0.361871
0.37168
0.382023
0.397563
0.402353
0.439109
0.384783
0.537504
0.265285
0.253566
0.183563
0.224012
0.237321
0.241755
0.23199
0.231093
0.228467
0.226685
0.224804
0.223144
0.221627
0.220299
0.2191
0.218073
0.2172
0.216469
0.215883
0.215435
0.215099
0.214889
0.214798
0.214798
0.214894
0.215077
0.215349
0.215685
0.216087
0.216555
0.217079
0.217655
0.218282
0.218959
0.219682
0.220457
0.22128
0.222153
0.223083
0.224073
0.225128
0.226255
0.227465
0.228762
0.230155
0.231664
0.233288
0.235039
0.236931
0.238956
0.241126
0.243438
0.245891
0.248491
0.251251
0.254189
0.257337
0.260736
0.264409
0.268381
0.272661
0.277247
0.282157
0.287437
0.29317
0.299438
0.306293
0.313741
0.321679
0.330426
0.339485
0.347987
0.35559
0.363499
0.3725
0.381988
0.395566
0.399062
0.42971
0.383111
0.530985
0.265226
0.253163
0.183538
0.241446
0.250185
0.254225
0.245997
0.245572
0.243174
0.241539
0.239837
0.238341
0.236967
0.235757
0.23467
0.233733
0.232937
0.23227
0.231728
0.231318
0.231006
0.23081
0.23072
0.230712
0.23079
0.230952
0.231187
0.23147
0.231827
0.232233
0.23268
0.23318
0.233717
0.234298
0.234911
0.235572
0.236267
0.237004
0.237791
0.238626
0.239518
0.240477
0.241507
0.242619
0.243824
0.245133
0.246554
0.248102
0.249775
0.251578
0.253514
0.255576
0.257765
0.260081
0.262539
0.265153
0.267968
0.271015
0.274325
0.277937
0.281842
0.286045
0.290567
0.295433
0.300715
0.306493
0.312792
0.319622
0.326896
0.334933
0.343206
0.350942
0.357899
0.365127
0.373306
0.381893
0.393449
0.395694
0.42103
0.381804
0.525061
0.265299
0.252998
0.183316
0.255724
0.264742
0.269496
0.262109
0.261873
0.259728
0.258322
0.256838
0.255559
0.25434
0.253273
0.252322
0.251481
0.250783
0.250185
0.249686
0.249314
0.249039
0.248848
0.248753
0.248731
0.248788
0.248915
0.249093
0.249327
0.249617
0.249929
0.250288
0.250693
0.251128
0.25157
0.252057
0.252564
0.253118
0.253695
0.254277
0.254946
0.255647
0.256398
0.25721
0.258113
0.259086
0.260164
0.261362
0.262654
0.264084
0.265627
0.267282
0.269061
0.270931
0.272917
0.275024
0.277255
0.279682
0.282333
0.285224
0.288422
0.291913
0.295673
0.299755
0.304151
0.308908
0.314123
0.319795
0.325931
0.332463
0.339727
0.347141
0.354068
0.360347
0.366861
0.374172
0.381755
0.391192
0.392155
0.412749
0.380868
0.514422
0.266134
0.252344
0.183069
0.275164
0.284708
0.290157
0.283271
0.283484
0.281661
0.280648
0.279611
0.278475
0.277608
0.276792
0.275933
0.275305
0.27478
0.274232
0.273774
0.273547
0.273243
0.273064
0.272962
0.272884
0.272938
0.272961
0.27303
0.273192
0.273343
0.273512
0.273717
0.273939
0.274217
0.274432
0.27468
0.274968
0.275307
0.275573
0.275883
0.27628
0.276694
0.277125
0.277616
0.278214
0.278831
0.279615
0.280465
0.281386
0.282492
0.283652
0.284897
0.286286
0.287695
0.289207
0.290831
0.292515
0.294409
0.296524
0.298855
0.301482
0.304429
0.307606
0.311078
0.314834
0.31889
0.323351
0.32819
0.333433
0.339041
0.345337
0.35169
0.357672
0.363175
0.368842
0.375117
0.381494
0.388423
0.388276
0.403606
0.38164
0.49541
0.268696
0.253507
0.186213
0.301641
0.310312
0.315784
0.310087
0.310783
0.309491
0.309122
0.308533
0.307783
0.307388
0.306854
0.306259
0.305939
0.305632
0.305164
0.304863
0.304771
0.304437
0.304357
0.304187
0.304032
0.304108
0.303978
0.303863
0.303933
0.303876
0.303877
0.303854
0.303785
0.303803
0.303762
0.303663
0.303657
0.303649
0.303508
0.303498
0.303494
0.303498
0.303516
0.303615
0.303762
0.303978
0.304336
0.304689
0.305205
0.30582
0.306451
0.307171
0.307974
0.308769
0.309606
0.310545
0.311511
0.312675
0.314053
0.31566
0.317552
0.319746
0.322149
0.324798
0.327682
0.330815
0.334271
0.338042
0.342179
0.346651
0.351754
0.356861
0.36177
0.366384
0.371066
0.376121
0.380998
0.385151
0.38385
0.394488
0.382997
0.476849
0.268819
0.254533
0.186332
0.331593
0.339851
0.345844
0.340906
0.341998
0.34152
0.341538
0.341162
0.341277
0.341053
0.340715
0.340634
0.340543
0.340357
0.340037
0.340036
0.339839
0.339621
0.33963
0.339328
0.339113
0.339125
0.338847
0.338596
0.338517
0.338141
0.337943
0.337691
0.337288
0.336967
0.336638
0.336139
0.335776
0.335353
0.334794
0.334385
0.333935
0.333459
0.333037
0.332692
0.332336
0.332115
0.33193
0.331776
0.331805
0.331811
0.331833
0.331921
0.332
0.332066
0.332094
0.332204
0.332371
0.332663
0.333215
0.333991
0.335035
0.336367
0.337854
0.339546
0.341424
0.343478
0.345796
0.3484
0.351317
0.354562
0.358382
0.362182
0.365993
0.369671
0.373281
0.37702
0.380188
0.38162
0.379102
0.386346
0.383552
0.46027
0.267589
0.25787
0.186357
0.364464
0.383657
0.373981
0.38152
0.37604
0.37809
0.378158
0.378295
0.37843
0.378914
0.378994
0.378904
0.379024
0.379182
0.379052
0.378827
0.379008
0.378683
0.378501
0.378396
0.377955
0.377736
0.377379
0.376975
0.376514
0.37604
0.375406
0.374823
0.374236
0.3734
0.372647
0.371909
0.370897
0.370089
0.36914
0.368058
0.36718
0.366162
0.365139
0.36422
0.36329
0.362408
0.361608
0.360817
0.360123
0.35946
0.358793
0.358114
0.35741
0.356664
0.355882
0.355025
0.354229
0.353521
0.352911
0.3526
0.352504
0.352649
0.353065
0.353583
0.354246
0.355057
0.355986
0.357142
0.35856
0.360253
0.362274
0.364821
0.367358
0.370112
0.372853
0.375351
0.377712
0.379043
0.377925
0.374317
0.379352
0.383466
0.442141
0.265699
0.262356
0.186411
0.402975
0.424831
0.414011
0.423097
0.41695
0.419812
0.419947
0.420788
0.421115
0.421572
0.422187
0.422235
0.422436
0.422487
0.422489
0.422414
0.422382
0.421962
0.421588
0.4213
0.420779
0.420282
0.419391
0.418807
0.417927
0.417013
0.416042
0.414811
0.413788
0.412433
0.411145
0.409744
0.408188
0.406774
0.40517
0.403476
0.401907
0.400297
0.39858
0.396992
0.395391
0.393801
0.39232
0.39079
0.389321
0.387826
0.386318
0.384776
0.383109
0.381386
0.379648
0.377815
0.376038
0.374404
0.372849
0.371625
0.370621
0.369814
0.369237
0.368725
0.368315
0.368011
0.367808
0.367792
0.368031
0.368533
0.36935
0.370654
0.371988
0.373726
0.375521
0.376897
0.377849
0.377297
0.373894
0.36946
0.37318
0.382263
0.420789
0.263167
0.267912
0.186396
0.447959
0.472282
0.461165
0.471944
0.465274
0.468576
0.469018
0.470074
0.47032
0.471326
0.47172
0.471591
0.471912
0.471717
0.471491
0.471391
0.470778
0.470129
0.469351
0.468758
0.467741
0.466524
0.465422
0.464139
0.46258
0.461273
0.459477
0.457579
0.456011
0.453899
0.451943
0.449753
0.447521
0.445447
0.443058
0.440576
0.438384
0.435995
0.433508
0.431211
0.428868
0.426415
0.424182
0.42184
0.419393
0.417041
0.414545
0.412022
0.409328
0.406598
0.403863
0.401007
0.398284
0.395704
0.393203
0.391043
0.389088
0.387274
0.385638
0.384043
0.382536
0.381091
0.379736
0.378581
0.377655
0.376996
0.376657
0.376774
0.377008
0.377795
0.378622
0.378822
0.378302
0.375835
0.370476
0.365668
0.369024
0.381207
0.39958
0.260112
0.275262
0.186127
0.491494
0.517009
0.504704
0.516919
0.509286
0.512937
0.513992
0.514435
0.514967
0.516059
0.516084
0.515932
0.516082
0.515936
0.515289
0.514984
0.513975
0.513013
0.512239
0.511151
0.509594
0.507987
0.506743
0.505056
0.502725
0.501148
0.498906
0.496495
0.494327
0.491787
0.489179
0.486453
0.48363
0.480888
0.477814
0.474713
0.47183
0.468611
0.465416
0.462238
0.459131
0.455728
0.452541
0.449219
0.445741
0.442432
0.438818
0.435296
0.431633
0.427936
0.424254
0.420523
0.416954
0.413456
0.410119
0.407042
0.404117
0.401323
0.398664
0.396034
0.393509
0.391028
0.388641
0.386478
0.384489
0.382776
0.381393
0.380412
0.3796
0.379432
0.379353
0.378555
0.376824
0.372818
0.366162
0.361387
0.364356
0.375903
0.373402
0.255588
0.282674
0.184884
0.546893
0.577025
0.563156
0.578371
0.566421
0.570792
0.570685
0.570594
0.571523
0.571833
0.570645
0.569814
0.569193
0.5686
0.567184
0.565527
0.563789
0.562302
0.560906
0.558153
0.556087
0.553817
0.551541
0.549217
0.545889
0.543433
0.540602
0.537565
0.534409
0.531205
0.528097
0.52448
0.52123
0.51773
0.513974
0.510416
0.506783
0.503107
0.499103
0.495277
0.491555
0.487394
0.483414
0.479344
0.475185
0.470977
0.466677
0.462418
0.458074
0.453737
0.449346
0.445036
0.440752
0.436526
0.432468
0.428546
0.424705
0.420961
0.417328
0.413687
0.410157
0.406649
0.403252
0.40007
0.397047
0.394345
0.39199
0.390062
0.388538
0.387731
0.386663
0.384537
0.381059
0.374941
0.36699
0.363204
0.367865
0.378864
0.358835
0.252898
0.296798
0.182769
0.555522
0.577085
0.567188
0.577636
0.570538
0.572799
0.571516
0.570822
0.571357
0.57085
0.5693
0.568062
0.567254
0.566731
0.565249
0.563655
0.562319
0.561014
0.559876
0.557495
0.555809
0.554289
0.552321
0.550297
0.547785
0.545626
0.543159
0.540698
0.537855
0.53494
0.532125
0.528683
0.525565
0.521956
0.518224
0.514425
0.510474
0.506431
0.501929
0.497695
0.493207
0.488585
0.484056
0.479505
0.474933
0.470387
0.466054
0.461654
0.457377
0.453131
0.448783
0.444488
0.440066
0.435675
0.431278
0.426959
0.42273
0.418618
0.414718
0.410884
0.407209
0.403575
0.400027
0.396612
0.393315
0.390274
0.387472
0.384948
0.38255
0.380807
0.379395
0.377366
0.374292
0.368912
0.362009
0.359016
0.361158
0.36153
0.32572
0.245992
0.291982
0.174365
0.679122
0.671931
0.676529
0.666646
0.660041
0.656594
0.652483
0.648851
0.644703
0.640619
0.637475
0.633761
0.630122
0.626602
0.623257
0.620119
0.616675
0.613478
0.61037
0.607065
0.604103
0.600873
0.597886
0.594818
0.591614
0.588437
0.585302
0.582224
0.578861
0.575675
0.572338
0.568911
0.565583
0.561962
0.558453
0.554735
0.551029
0.547249
0.543356
0.539601
0.535671
0.531852
0.528107
0.524439
0.520764
0.517263
0.513816
0.510277
0.506746
0.502994
0.499082
0.494943
0.490552
0.486085
0.481447
0.476809
0.472103
0.467413
0.462755
0.457949
0.453145
0.448252
0.443386
0.438619
0.433999
0.42975
0.425857
0.422476
0.420598
0.419837
0.417137
0.41169
0.403597
0.392156
0.382288
0.383468
0.395069
0.391013
0.329193
0.266311
0.306618
0.17372
)
;

boundaryField
{
    inlet
    {
        type            calculated;
        value           nonuniform List<scalar> 
23
(
0.097198
0.0974413
0.0976786
0.0979108
0.0981427
0.09838
0.0986296
0.0988971
0.09919
0.0995155
0.0998829
0.100291
0.100765
0.101518
0.10216
0.102962
0.103987
0.105279
0.106898
0.108899
0.111431
0.113514
0.11777
)
;
    }
    outlet
    {
        type            calculated;
        value           nonuniform List<scalar> 
82
(
0.783247
0.779104
0.769093
0.761186
0.749878
0.744682
0.738326
0.732821
0.72647
0.720284
0.715759
0.710308
0.704985
0.699935
0.69519
0.690829
0.685989
0.681573
0.677349
0.6728
0.66885
0.66451
0.660555
0.656517
0.652285
0.648138
0.644077
0.640164
0.635832
0.631825
0.627646
0.623366
0.619315
0.614858
0.610652
0.606192
0.601808
0.597382
0.592831
0.588554
0.584033
0.579705
0.575498
0.571396
0.567255
0.563331
0.559449
0.55537
0.551276
0.546838
0.542192
0.537269
0.532057
0.526831
0.521431
0.516061
0.510566
0.504998
0.499343
0.493327
0.487198
0.480891
0.474625
0.468541
0.462701
0.457417
0.452728
0.448947
0.447473
0.447297
0.443899
0.436323
0.424742
0.408906
0.395994
0.398309
0.418034
0.42219
0.34757
0.271464
0.340005
0.182421
)
;
    }
    walls
    {
        type            calculated;
        value           nonuniform List<scalar> 0();
    }
    frontAndBack
    {
        type            empty;
    }
    procBoundary3to2
    {
        type            processor;
        value           nonuniform List<scalar> 
88
(
0.256326
0.183589
0.536973
0.269503
0.269503
0.530519
0.413863
0.413863
0.380816
0.407057
0.421616
0.421616
0.315783
0.328605
0.34037
0.352459
0.366456
0.366456
0.264163
0.273241
0.283286
0.294211
0.306189
0.306189
0.22381
0.229118
0.234768
0.240753
0.247091
0.253843
0.261136
0.261136
0.188892
0.19139
0.194038
0.196839
0.199801
0.202928
0.206228
0.209712
0.213394
0.217302
0.221466
0.22592
0.22592
0.221517
0.186746
0.181828
0.189977
0.187237
0.184531
0.182344
0.180568
0.179031
0.177691
0.176468
0.175432
0.17457
0.173851
0.173297
0.172879
0.172605
0.172469
0.172451
0.172552
0.172763
0.173075
0.173488
0.173987
0.174568
0.175236
0.175978
0.176791
0.177677
0.178634
0.179666
0.180763
0.181938
0.183191
0.184518
0.185935
0.187437
0.189034
0.190736
0.192542
0.194465
0.196511
0.196511
)
;
    }
    procBoundary3to6
    {
        type            processor;
        value           uniform 1.42611;
    }
    procBoundary3to7
    {
        type            processor;
        value           nonuniform List<scalar> 
16
(
4.30138
0.236683
0.235093
0.262842
0.279314
0.295937
0.319509
0.348057
0.348057
0.387136
0.428574
0.476962
0.522287
0.581341
0.583616
0.663644
)
;
    }
}


// ************************************************************************* //
