/*--------------------------------*- C++ -*----------------------------------*\
| =========                 |                                                 |
| \\      /  F ield         | OpenFOAM: The Open Source CFD Toolbox           |
|  \\    /   O peration     | Version:  2306                                  |
|   \\  /    A nd           | Website:  www.openfoam.com                      |
|    \\/     M anipulation  |                                                 |
\*---------------------------------------------------------------------------*/
FoamFile
{
    version     2.0;
    format      ascii;
    arch        "LSB;label=32;scalar=64";
    class       volScalarField;
    location    "275";
    object      turbulenceProperties:epsilon;
}
// * * * * * * * * * * * * * * * * * * * * * * * * * * * * * * * * * * * * * //

dimensions      [0 2 -3 0 0 0 0];

internalField   nonuniform List<scalar> 
1340
(
3.78134e-10
1.46284e-09
1.88379e-11
3.16495e-10
3.75826e-10
1.46721e-09
2.29009e-11
5.92051e-11
1.80946e-11
3.18888e-10
3.76114e-10
1.46866e-09
7.83471e-11
6.07169e-11
5.34376e-11
2.51917e-11
6.19771e-11
1.76635e-11
3.21479e-10
3.78205e-10
1.46857e-09
1.60163e-10
1.37572e-10
1.20365e-10
1.05383e-10
9.08283e-11
7.81041e-11
6.13134e-11
5.46825e-11
2.77703e-11
6.47055e-11
1.74934e-11
3.24179e-10
3.8151e-10
1.46781e-09
3.15449e-10
2.77252e-10
2.41576e-10
2.09168e-10
1.79656e-10
1.53951e-10
1.3326e-10
1.17462e-10
1.0356e-10
8.9938e-11
7.7937e-11
6.20545e-11
5.60951e-11
3.06211e-11
6.73181e-11
1.75573e-11
3.26756e-10
3.85549e-10
1.46659e-09
5.84321e-10
5.35295e-10
4.88607e-10
4.44522e-10
4.03066e-10
3.64023e-10
3.26975e-10
2.91634e-10
2.58023e-10
2.26454e-10
1.97618e-10
1.711e-10
1.47813e-10
1.2901e-10
1.14595e-10
1.01764e-10
8.9092e-11
7.78212e-11
6.29249e-11
5.76571e-11
3.37334e-11
6.97583e-11
1.78367e-11
3.29158e-10
3.89939e-10
1.46437e-09
1.06207e-09
1.01388e-09
9.65562e-10
9.17326e-10
8.69451e-10
8.22083e-10
7.75428e-10
7.29624e-10
6.84759e-10
6.40783e-10
5.97678e-10
5.55432e-10
5.14197e-10
4.74169e-10
4.35666e-10
3.98954e-10
3.64083e-10
3.30919e-10
2.99157e-10
2.68618e-10
2.3937e-10
2.1173e-10
1.86325e-10
1.62702e-10
1.41788e-10
1.24841e-10
1.11772e-10
9.99967e-11
8.82834e-11
7.77512e-11
6.39202e-11
5.93602e-11
3.7098e-11
7.19656e-11
1.83218e-11
3.31293e-10
3.94111e-10
1.46184e-09
9.57097e-10
1.13425e-09
9.00683e-10
9.45883e-10
9.44021e-10
1.02722e-09
1.07286e-09
1.11866e-09
1.15907e-09
1.1978e-09
1.23395e-09
1.26714e-09
1.29628e-09
1.32141e-09
1.34337e-09
1.36074e-09
1.3741e-09
1.38351e-09
1.38911e-09
1.39113e-09
1.38964e-09
1.38488e-09
1.37728e-09
1.36704e-09
1.35437e-09
1.33948e-09
1.32269e-09
1.30428e-09
1.28421e-09
1.26288e-09
1.24023e-09
1.21645e-09
1.19166e-09
1.16585e-09
1.13916e-09
1.11159e-09
1.08311e-09
1.05391e-09
1.0238e-09
9.92881e-10
9.61282e-10
9.28842e-10
8.95691e-10
8.61924e-10
8.27645e-10
7.9282e-10
7.57686e-10
7.22458e-10
6.87228e-10
6.52198e-10
6.17523e-10
5.83226e-10
5.49298e-10
5.15741e-10
4.82514e-10
4.49743e-10
4.17597e-10
3.86344e-10
3.56218e-10
3.27295e-10
2.99501e-10
2.72625e-10
2.46567e-10
2.21426e-10
1.97504e-10
1.75355e-10
1.54507e-10
1.35903e-10
1.20763e-10
1.08994e-10
9.82551e-11
8.75026e-11
7.77195e-11
6.50369e-11
6.12007e-11
4.07057e-11
7.39002e-11
1.89996e-11
3.32927e-10
3.97832e-10
1.45941e-09
1.12725e-09
7.24585e-10
6.08099e-10
7.17861e-10
7.42191e-10
7.87673e-10
8.154e-10
8.46771e-10
8.75133e-10
9.02428e-10
9.27628e-10
9.50498e-10
9.70817e-10
9.88492e-10
1.00376e-09
1.01592e-09
1.02542e-09
1.03244e-09
1.03676e-09
1.03864e-09
1.0383e-09
1.0358e-09
1.03136e-09
1.02522e-09
1.01742e-09
1.0082e-09
9.97811e-10
9.86201e-10
9.73596e-10
9.60117e-10
9.45758e-10
9.30665e-10
9.14813e-10
8.98308e-10
8.81142e-10
8.6328e-10
8.44796e-10
8.25659e-10
8.0581e-10
7.85257e-10
7.64006e-10
7.42068e-10
7.19339e-10
6.95897e-10
6.7188e-10
6.47198e-10
6.2207e-10
5.96588e-10
5.70873e-10
5.45093e-10
5.19352e-10
4.93666e-10
4.68031e-10
4.4244e-10
4.16822e-10
3.91268e-10
3.65899e-10
3.40946e-10
3.16604e-10
2.92961e-10
2.69998e-10
2.47574e-10
2.25642e-10
2.04312e-10
1.83865e-10
1.64778e-10
1.46561e-10
1.30184e-10
1.16785e-10
1.06258e-10
9.65336e-11
8.67403e-11
7.77232e-11
6.62691e-11
6.31746e-11
4.45349e-11
7.55312e-11
1.98322e-11
3.34349e-10
4.00658e-10
1.45814e-09
6.58518e-10
5.21563e-10
4.84418e-10
5.71643e-10
5.80709e-10
6.0779e-10
6.27091e-10
6.48323e-10
6.67814e-10
6.86275e-10
7.02953e-10
7.18453e-10
7.32078e-10
7.43908e-10
7.53986e-10
7.62204e-10
7.6855e-10
7.73365e-10
7.76386e-10
7.77687e-10
7.77684e-10
7.76292e-10
7.7365e-10
7.69739e-10
7.64956e-10
7.59277e-10
7.52732e-10
7.4549e-10
7.37625e-10
7.29179e-10
7.20201e-10
7.10764e-10
7.00819e-10
6.90447e-10
6.79655e-10
6.68386e-10
6.56649e-10
6.44421e-10
6.31676e-10
6.18333e-10
6.04423e-10
5.89918e-10
5.74683e-10
5.58846e-10
5.42372e-10
5.25251e-10
5.07667e-10
4.89634e-10
4.71293e-10
4.52759e-10
4.34096e-10
4.1533e-10
3.96449e-10
3.77394e-10
3.58088e-10
3.38593e-10
3.18981e-10
2.99416e-10
2.80088e-10
2.61094e-10
2.42434e-10
2.24027e-10
2.05855e-10
1.88044e-10
1.7082e-10
1.5458e-10
1.38856e-10
1.24622e-10
1.12885e-10
1.03537e-10
9.48159e-11
8.59795e-11
7.77525e-11
6.76185e-11
6.52861e-11
4.85622e-11
7.68592e-11
2.08247e-11
3.34656e-10
4.03228e-10
1.45894e-09
4.86681e-10
4.22514e-10
3.96417e-10
4.52236e-10
4.55326e-10
4.73518e-10
4.8646e-10
5.00408e-10
5.1308e-10
5.25075e-10
5.35933e-10
5.45922e-10
5.54721e-10
5.62337e-10
5.68814e-10
5.74154e-10
5.78231e-10
5.81348e-10
5.83325e-10
5.84227e-10
5.84309e-10
5.83516e-10
5.81881e-10
5.79511e-10
5.76681e-10
5.73137e-10
5.69135e-10
5.64776e-10
5.59949e-10
5.54811e-10
5.49331e-10
5.43614e-10
5.37535e-10
5.3124e-10
5.24652e-10
5.17741e-10
5.10527e-10
5.02961e-10
4.9498e-10
4.86585e-10
4.77721e-10
4.68347e-10
4.58415e-10
4.47931e-10
4.36857e-10
4.25262e-10
4.13201e-10
4.00717e-10
3.87938e-10
3.74923e-10
3.61737e-10
3.48377e-10
3.34834e-10
3.20976e-10
3.06773e-10
2.92226e-10
2.77321e-10
2.62264e-10
2.47184e-10
2.32152e-10
2.17237e-10
2.02376e-10
1.87547e-10
1.72897e-10
1.58592e-10
1.44947e-10
1.31532e-10
1.19306e-10
1.09132e-10
1.00891e-10
9.31373e-11
8.52399e-11
7.78309e-11
6.9087e-11
6.7539e-11
5.26935e-11
7.79175e-11
2.17809e-11
3.34304e-10
4.0429e-10
1.466e-09
3.87148e-10
3.37099e-10
3.13931e-10
3.50826e-10
3.52072e-10
3.63839e-10
3.71824e-10
3.80486e-10
3.88156e-10
3.95641e-10
4.0235e-10
4.08441e-10
4.1393e-10
4.18553e-10
4.22566e-10
4.25952e-10
4.28492e-10
4.30387e-10
4.31707e-10
4.32365e-10
4.32518e-10
4.32118e-10
4.31237e-10
4.30007e-10
4.28388e-10
4.26401e-10
4.24279e-10
4.21844e-10
4.19123e-10
4.16226e-10
4.13307e-10
4.10123e-10
4.06833e-10
4.03279e-10
3.99624e-10
3.95972e-10
3.91831e-10
3.87545e-10
3.83025e-10
3.78206e-10
3.72936e-10
3.67362e-10
3.61306e-10
3.54723e-10
3.47796e-10
3.4032e-10
3.32476e-10
3.24317e-10
3.1582e-10
3.07183e-10
2.98337e-10
2.89295e-10
2.80087e-10
2.70486e-10
2.60461e-10
2.50055e-10
2.39143e-10
2.27903e-10
2.16526e-10
2.04972e-10
1.9338e-10
1.81746e-10
1.6998e-10
1.58244e-10
1.46665e-10
1.35481e-10
1.24265e-10
1.13988e-10
1.05329e-10
9.81785e-11
9.13898e-11
8.4455e-11
7.7945e-11
7.06965e-11
7.00118e-11
5.70524e-11
7.86865e-11
2.36402e-11
3.3014e-10
4.08505e-10
1.47389e-09
2.88843e-10
2.52001e-10
2.33592e-10
2.5714e-10
2.56366e-10
2.63065e-10
2.66879e-10
2.70859e-10
2.75304e-10
2.78754e-10
2.82053e-10
2.8558e-10
2.88195e-10
2.90402e-10
2.92728e-10
2.94689e-10
2.95668e-10
2.96985e-10
2.9776e-10
2.98204e-10
2.98547e-10
2.98308e-10
2.98206e-10
2.97906e-10
2.97197e-10
2.96541e-10
2.95808e-10
2.94921e-10
2.93965e-10
2.92775e-10
2.91855e-10
2.90804e-10
2.89583e-10
2.88157e-10
2.87045e-10
2.85756e-10
2.84112e-10
2.82415e-10
2.80659e-10
2.78675e-10
2.76285e-10
2.73844e-10
2.70785e-10
2.67512e-10
2.64025e-10
2.59914e-10
2.55685e-10
2.51242e-10
2.46401e-10
2.41604e-10
2.36587e-10
2.31343e-10
2.26057e-10
2.2029e-10
2.14066e-10
2.07458e-10
2.00317e-10
1.92671e-10
1.84831e-10
1.7672e-10
1.68438e-10
1.60036e-10
1.51391e-10
1.42665e-10
1.33906e-10
1.2527e-10
1.16387e-10
1.08206e-10
1.01149e-10
9.51563e-11
8.94426e-11
8.36079e-11
7.81596e-11
7.27361e-11
7.28535e-11
6.24017e-11
7.80521e-11
2.74843e-11
3.17744e-10
4.01068e-10
1.37683e-09
1.99989e-10
1.78553e-10
1.66493e-10
1.79069e-10
1.7747e-10
1.80451e-10
1.81312e-10
1.827e-10
1.84486e-10
1.85435e-10
1.86728e-10
1.88183e-10
1.88971e-10
1.89731e-10
1.90897e-10
1.91651e-10
1.9188e-10
1.92724e-10
1.92926e-10
1.93358e-10
1.93751e-10
1.93556e-10
1.93887e-10
1.94181e-10
1.94002e-10
1.94147e-10
1.94143e-10
1.94202e-10
1.94376e-10
1.9433e-10
1.94434e-10
1.94687e-10
1.947e-10
1.9472e-10
1.95081e-10
1.95106e-10
1.95112e-10
1.951e-10
1.95052e-10
1.94796e-10
1.94418e-10
1.93865e-10
1.92951e-10
1.92057e-10
1.90761e-10
1.8923e-10
1.87673e-10
1.85919e-10
1.83984e-10
1.82095e-10
1.80131e-10
1.77958e-10
1.75755e-10
1.73148e-10
1.70124e-10
1.66684e-10
1.62743e-10
1.58319e-10
1.53649e-10
1.48699e-10
1.43536e-10
1.3818e-10
1.32558e-10
1.26748e-10
1.20734e-10
1.14628e-10
1.08125e-10
1.02071e-10
9.6644e-11
9.18672e-11
8.7319e-11
8.27198e-11
7.85701e-11
7.52426e-11
7.62753e-11
6.83752e-11
7.69526e-11
3.20216e-11
3.17179e-10
3.94648e-10
1.37329e-09
1.36938e-10
1.24104e-10
1.15723e-10
1.22574e-10
1.21016e-10
1.21695e-10
1.21669e-10
1.22205e-10
1.2204e-10
1.22361e-10
1.22847e-10
1.22963e-10
1.23095e-10
1.23363e-10
1.23828e-10
1.23829e-10
1.24117e-10
1.24435e-10
1.24422e-10
1.24865e-10
1.25182e-10
1.25164e-10
1.25575e-10
1.25947e-10
1.26065e-10
1.26625e-10
1.26922e-10
1.273e-10
1.27909e-10
1.28397e-10
1.289e-10
1.29666e-10
1.30226e-10
1.30884e-10
1.31759e-10
1.32404e-10
1.33118e-10
1.33879e-10
1.34557e-10
1.35115e-10
1.35693e-10
1.36053e-10
1.36357e-10
1.36607e-10
1.36559e-10
1.36548e-10
1.3651e-10
1.36365e-10
1.36233e-10
1.36122e-10
1.36073e-10
1.3589e-10
1.35614e-10
1.35134e-10
1.34239e-10
1.32992e-10
1.31339e-10
1.29271e-10
1.27011e-10
1.24499e-10
1.21787e-10
1.18904e-10
1.15751e-10
1.12335e-10
1.08656e-10
1.04737e-10
1.00347e-10
9.6204e-11
9.22609e-11
8.86443e-11
8.52653e-11
8.19356e-11
7.92436e-11
7.80691e-11
8.01708e-11
7.43251e-11
7.65084e-11
3.68924e-11
3.23074e-10
3.74616e-10
1.3725e-09
9.38235e-11
7.64107e-11
8.4631e-11
7.81372e-11
8.27923e-11
8.10112e-11
8.09526e-11
8.08357e-11
8.07199e-11
8.03079e-11
8.02401e-11
8.03163e-11
8.02146e-11
8.00813e-11
8.01905e-11
8.03813e-11
8.02275e-11
8.05031e-11
8.06581e-11
8.07474e-11
8.11249e-11
8.13135e-11
8.16213e-11
8.19711e-11
8.23734e-11
8.27894e-11
8.33492e-11
8.38688e-11
8.4396e-11
8.51538e-11
8.5844e-11
8.6527e-11
8.74746e-11
8.82406e-11
8.91502e-11
9.02031e-11
9.10677e-11
9.20839e-11
9.312e-11
9.40627e-11
9.50278e-11
9.59556e-11
9.68069e-11
9.76579e-11
9.84117e-11
9.91399e-11
9.98778e-11
1.00636e-10
1.0143e-10
1.0228e-10
1.0318e-10
1.04178e-10
1.05115e-10
1.05957e-10
1.06689e-10
1.07063e-10
1.07177e-10
1.06999e-10
1.06495e-10
1.05875e-10
1.05086e-10
1.04133e-10
1.03054e-10
1.0173e-10
1.00135e-10
9.82714e-11
9.61012e-11
9.34494e-11
9.08972e-11
8.82231e-11
8.56579e-11
8.34011e-11
8.13384e-11
8.02078e-11
8.11704e-11
8.43522e-11
7.99614e-11
7.65774e-11
4.33282e-11
3.3239e-10
3.4965e-10
1.37087e-09
6.27776e-11
5.08216e-11
5.63466e-11
5.16596e-11
5.47744e-11
5.32959e-11
5.32274e-11
5.28031e-11
5.26391e-11
5.24114e-11
5.21066e-11
5.20826e-11
5.19837e-11
5.19584e-11
5.19576e-11
5.19944e-11
5.20099e-11
5.22172e-11
5.24029e-11
5.25462e-11
5.2807e-11
5.3057e-11
5.35089e-11
5.38081e-11
5.42626e-11
5.47396e-11
5.52524e-11
5.59111e-11
5.64658e-11
5.72111e-11
5.79308e-11
5.8727e-11
5.96275e-11
6.04601e-11
6.14229e-11
6.24608e-11
6.34412e-11
6.44674e-11
6.55847e-11
6.66399e-11
6.77252e-11
6.88255e-11
6.98698e-11
7.09703e-11
7.20471e-11
7.31638e-11
7.43118e-11
7.55102e-11
7.68314e-11
7.82286e-11
7.96688e-11
8.12244e-11
8.27689e-11
8.42211e-11
8.56326e-11
8.67638e-11
8.77065e-11
8.84737e-11
8.90281e-11
8.95248e-11
8.9927e-11
9.02278e-11
9.04309e-11
9.04502e-11
9.022e-11
8.97346e-11
8.8947e-11
8.77057e-11
8.6457e-11
8.48606e-11
8.32502e-11
8.20424e-11
8.12232e-11
8.17061e-11
8.47309e-11
8.88796e-11
8.53852e-11
7.75466e-11
5.2819e-11
3.45388e-10
3.21534e-10
1.37125e-09
4.111e-11
3.32726e-11
3.65991e-11
3.33682e-11
3.53234e-11
3.43381e-11
3.42088e-11
3.39025e-11
3.38314e-11
3.35434e-11
3.34316e-11
3.34683e-11
3.33771e-11
3.34324e-11
3.34964e-11
3.35249e-11
3.36999e-11
3.38862e-11
3.41116e-11
3.42844e-11
3.45835e-11
3.49456e-11
3.52778e-11
3.56694e-11
3.61526e-11
3.65642e-11
3.71388e-11
3.77587e-11
3.82807e-11
3.89981e-11
3.96772e-11
4.04556e-11
4.12684e-11
4.20424e-11
4.2956e-11
4.39322e-11
4.48171e-11
4.58071e-11
4.68671e-11
4.78733e-11
4.89278e-11
5.00632e-11
5.11252e-11
5.22698e-11
5.35002e-11
5.47169e-11
5.60459e-11
5.74308e-11
5.89568e-11
6.05555e-11
6.22111e-11
6.40011e-11
6.57676e-11
6.74975e-11
6.92298e-11
7.07706e-11
7.22028e-11
7.35649e-11
7.48215e-11
7.6074e-11
7.72819e-11
7.8464e-11
7.95936e-11
8.05737e-11
8.13709e-11
8.19455e-11
8.22448e-11
8.21454e-11
8.19439e-11
8.12647e-11
8.05576e-11
8.03893e-11
8.08366e-11
8.29885e-11
8.79054e-11
9.26267e-11
8.92984e-11
7.84107e-11
6.49633e-11
3.6193e-10
2.88541e-10
1.37912e-09
2.83668e-11
2.31674e-11
2.55112e-11
2.31836e-11
2.46053e-11
2.39121e-11
2.37165e-11
2.36348e-11
2.35373e-11
2.33388e-11
2.33343e-11
2.33617e-11
2.33344e-11
2.3361e-11
2.34785e-11
2.35341e-11
2.37194e-11
2.38978e-11
2.40426e-11
2.4248e-11
2.45456e-11
2.48578e-11
2.51026e-11
2.54397e-11
2.59147e-11
2.62423e-11
2.67171e-11
2.724e-11
2.77207e-11
2.8298e-11
2.8906e-11
2.95594e-11
3.02554e-11
3.09514e-11
3.17554e-11
3.2593e-11
3.33968e-11
3.4324e-11
3.5276e-11
3.6256e-11
3.72472e-11
3.83722e-11
3.94642e-11
4.06446e-11
4.19276e-11
4.31959e-11
4.46361e-11
4.60977e-11
4.76818e-11
4.935e-11
5.10847e-11
5.29207e-11
5.47543e-11
5.66296e-11
5.84941e-11
6.02819e-11
6.20457e-11
6.37915e-11
6.55119e-11
6.7271e-11
6.90166e-11
7.07885e-11
7.25471e-11
7.41886e-11
7.57398e-11
7.7108e-11
7.82368e-11
7.90495e-11
7.97302e-11
7.9872e-11
7.99398e-11
8.06182e-11
8.21157e-11
8.57114e-11
9.21261e-11
9.70973e-11
9.39633e-11
8.29326e-11
8.51959e-11
3.8827e-10
2.5944e-10
1.41652e-09
1.85031e-11
1.49298e-11
1.64561e-11
1.47912e-11
1.60799e-11
1.55928e-11
1.56046e-11
1.56146e-11
1.55133e-11
1.54797e-11
1.5609e-11
1.57003e-11
1.57689e-11
1.58348e-11
1.59935e-11
1.61818e-11
1.63823e-11
1.65563e-11
1.67217e-11
1.70541e-11
1.73089e-11
1.75946e-11
1.78868e-11
1.81914e-11
1.86391e-11
1.89783e-11
1.9379e-11
1.98205e-11
2.0293e-11
2.0787e-11
2.12806e-11
2.18737e-11
2.24243e-11
2.30368e-11
2.37174e-11
2.43857e-11
2.50925e-11
2.58337e-11
2.66726e-11
2.75064e-11
2.8349e-11
2.93293e-11
3.03073e-11
3.13496e-11
3.24615e-11
3.36369e-11
3.48937e-11
3.61965e-11
3.75884e-11
3.90456e-11
4.05934e-11
4.21881e-11
4.38511e-11
4.55731e-11
4.73069e-11
4.90618e-11
5.08611e-11
5.26952e-11
5.45552e-11
5.65033e-11
5.84759e-11
6.05226e-11
6.25913e-11
6.46097e-11
6.66036e-11
6.84517e-11
7.0115e-11
7.15139e-11
7.26437e-11
7.32513e-11
7.40648e-11
7.57198e-11
7.85292e-11
8.37904e-11
9.13013e-11
9.51702e-11
9.04292e-11
8.03724e-11
9.99055e-11
4.05085e-10
2.13463e-10
1.48321e-09
1.73797e-11
1.49236e-11
1.59931e-11
1.48667e-11
1.56207e-11
1.53754e-11
1.55141e-11
1.55897e-11
1.55314e-11
1.55866e-11
1.5757e-11
1.58949e-11
1.59857e-11
1.60448e-11
1.62137e-11
1.6398e-11
1.65543e-11
1.67089e-11
1.68452e-11
1.71348e-11
1.73437e-11
1.75347e-11
1.77859e-11
1.80489e-11
1.83823e-11
1.86749e-11
1.90164e-11
1.93651e-11
1.97777e-11
2.02123e-11
2.06434e-11
2.11862e-11
2.16933e-11
2.22995e-11
2.29488e-11
2.36343e-11
2.43744e-11
2.5162e-11
2.60769e-11
2.69757e-11
2.7971e-11
2.90445e-11
3.01467e-11
3.13076e-11
3.25304e-11
3.38059e-11
3.50805e-11
3.64363e-11
3.78179e-11
3.92544e-11
4.07972e-11
4.23959e-11
4.41248e-11
4.59296e-11
4.78308e-11
4.97954e-11
5.18181e-11
5.38852e-11
5.59427e-11
5.80617e-11
6.01887e-11
6.23894e-11
6.46361e-11
6.68946e-11
6.917e-11
7.13544e-11
7.34443e-11
7.53919e-11
7.73015e-11
7.87271e-11
7.99077e-11
8.1644e-11
8.43671e-11
8.9408e-11
9.6435e-11
9.96918e-11
9.73367e-11
9.69346e-11
1.47177e-10
4.52549e-10
2.2789e-10
1.79046e-09
7.77922e-12
8.11777e-12
7.89922e-12
8.37842e-12
8.71901e-12
8.90368e-12
9.13026e-12
9.33653e-12
9.57922e-12
9.82597e-12
1.00213e-11
1.02584e-11
1.04975e-11
1.07355e-11
1.09679e-11
1.11916e-11
1.14437e-11
1.16842e-11
1.19241e-11
1.21859e-11
1.24267e-11
1.26961e-11
1.29518e-11
1.32211e-11
1.35098e-11
1.3804e-11
1.41021e-11
1.44027e-11
1.47403e-11
1.50694e-11
1.5424e-11
1.57989e-11
1.61741e-11
1.6595e-11
1.7016e-11
1.74768e-11
1.79518e-11
1.84529e-11
1.89875e-11
1.95215e-11
2.01006e-11
2.06842e-11
2.1277e-11
2.18784e-11
2.25022e-11
2.31175e-11
2.37436e-11
2.44088e-11
2.50957e-11
2.58524e-11
2.66718e-11
2.75745e-11
2.85748e-11
2.96392e-11
3.07977e-11
3.20138e-11
3.331e-11
3.46683e-11
3.60866e-11
3.7627e-11
3.925e-11
4.09943e-11
4.28261e-11
4.47211e-11
4.66586e-11
4.85339e-11
5.03351e-11
5.19671e-11
5.29019e-11
5.32875e-11
5.46829e-11
5.76394e-11
6.24104e-11
7.00274e-11
7.75482e-11
7.65944e-11
6.79787e-11
7.08492e-11
1.4109e-10
3.29477e-10
1.87387e-10
1.81722e-09
)
;

boundaryField
{
    inlet
    {
        type            calculated;
        value           nonuniform List<scalar> 
23
(
2.37051e-08
2.34692e-08
2.3242e-08
2.30223e-08
2.28055e-08
2.25862e-08
2.23584e-08
2.21175e-08
2.18574e-08
2.15729e-08
2.12572e-08
2.0913e-08
2.05224e-08
1.99205e-08
1.94243e-08
1.88261e-08
1.80946e-08
1.72229e-08
1.62032e-08
1.50446e-08
1.37228e-08
1.27429e-08
1.09984e-08
)
;
    }
    outlet
    {
        type            calculated;
        value           nonuniform List<scalar> 
82
(
4.39501e-12
4.48934e-12
4.72789e-12
4.92758e-12
5.23187e-12
5.37954e-12
5.56732e-12
5.73663e-12
5.94002e-12
6.14686e-12
6.30389e-12
6.49973e-12
6.69839e-12
6.89391e-12
7.08417e-12
7.26485e-12
7.47215e-12
7.66779e-12
7.86092e-12
8.07576e-12
8.26831e-12
8.4865e-12
8.6916e-12
8.90752e-12
9.141e-12
9.37724e-12
9.61603e-12
9.85336e-12
1.01247e-11
1.0384e-11
1.06634e-11
1.09593e-11
1.1249e-11
1.15787e-11
1.1901e-11
1.22553e-11
1.26163e-11
1.29944e-11
1.3398e-11
1.37918e-11
1.42238e-11
1.46534e-11
1.50866e-11
1.55243e-11
1.59825e-11
1.64324e-11
1.6893e-11
1.73945e-11
1.79166e-11
1.85049e-11
1.91471e-11
1.98582e-11
2.06474e-11
2.14787e-11
2.23824e-11
2.33287e-11
2.43497e-11
2.54422e-11
2.66156e-11
2.79391e-11
2.93733e-11
3.09468e-11
3.26155e-11
3.43449e-11
3.6114e-11
3.78137e-11
3.94063e-11
4.07516e-11
4.12918e-11
4.13577e-11
4.26402e-11
4.56833e-11
5.08796e-11
5.92388e-11
6.73562e-11
6.58009e-11
5.42265e-11
5.21265e-11
1.13534e-10
3.05161e-10
1.23932e-10
1.49457e-09
)
;
    }
    walls
    {
        type            calculated;
        value           nonuniform List<scalar> 0();
    }
    frontAndBack
    {
        type            empty;
    }
    procBoundary3to2
    {
        type            processor;
        value           nonuniform List<scalar> 
88
(
3.83604e-10
1.45734e-09
1.99097e-11
3.13836e-10
3.13836e-10
2.08977e-11
5.64333e-11
5.64333e-11
7.87083e-11
6.02941e-11
5.23906e-11
5.23906e-11
1.66456e-10
1.41962e-10
1.23331e-10
1.07262e-10
9.17894e-11
9.17894e-11
3.39855e-10
2.96897e-10
2.56983e-10
2.20895e-10
1.88315e-10
1.88315e-10
6.59593e-10
6.00545e-10
5.44778e-10
4.92585e-10
4.43953e-10
3.98568e-10
3.55877e-10
3.55877e-10
1.30019e-09
1.23361e-09
1.16763e-09
1.10257e-09
1.03861e-09
9.76046e-10
9.15055e-10
8.5573e-10
7.98181e-10
7.42269e-10
6.87994e-10
6.35306e-10
6.35306e-10
6.90288e-10
1.39755e-09
1.53482e-09
1.27023e-09
1.34571e-09
1.42777e-09
1.49789e-09
1.55778e-09
1.61185e-09
1.66092e-09
1.70742e-09
1.74804e-09
1.78279e-09
1.81243e-09
1.83568e-09
1.85347e-09
1.86522e-09
1.87108e-09
1.87185e-09
1.86743e-09
1.85833e-09
1.84495e-09
1.82744e-09
1.80652e-09
1.78261e-09
1.75558e-09
1.72614e-09
1.69459e-09
1.66103e-09
1.62571e-09
1.5887e-09
1.55047e-09
1.51079e-09
1.46986e-09
1.42803e-09
1.38499e-09
1.34112e-09
1.29636e-09
1.2507e-09
1.20441e-09
1.15746e-09
1.10999e-09
1.10999e-09
)
;
    }
    procBoundary3to6
    {
        type            processor;
        value           uniform 2.01837e-12;
    }
    procBoundary3to7
    {
        type            processor;
        value           nonuniform List<scalar> 
16
(
5.40059e-14
5.28011e-10
5.55046e-10
3.47192e-10
2.71749e-10
2.15865e-10
1.58876e-10
1.12808e-10
1.12808e-10
7.37006e-11
4.90687e-11
3.19857e-11
2.22448e-11
1.44912e-11
1.42665e-11
8.53109e-12
)
;
    }
}


// ************************************************************************* //
