/*--------------------------------*- C++ -*----------------------------------*\
| =========                 |                                                 |
| \\      /  F ield         | OpenFOAM: The Open Source CFD Toolbox           |
|  \\    /   O peration     | Version:  2306                                  |
|   \\  /    A nd           | Website:  www.openfoam.com                      |
|    \\/     M anipulation  |                                                 |
\*---------------------------------------------------------------------------*/
FoamFile
{
    version     2.0;
    format      ascii;
    arch        "LSB;label=32;scalar=64";
    class       volSymmTensorField;
    location    "275";
    object      turbulenceProperties:R;
}
// * * * * * * * * * * * * * * * * * * * * * * * * * * * * * * * * * * * * * //

dimensions      [0 2 -2 0 0 0 0];

internalField   nonuniform List<symmTensor> 
1340
(
(4.90512e-07 2.98401e-08 -4.14968e-20 4.22672e-07 -5.37213e-21 4.9689e-07)
(8.4379e-07 3.64026e-08 2.09293e-20 1.04164e-06 2.42737e-21 8.8789e-07)
(1.03809e-07 -1.79207e-09 -8.12916e-20 9.73548e-08 -1.01696e-20 1.13552e-07)
(3.89781e-07 9.89756e-09 -1.27231e-20 4.86684e-07 -1.43842e-21 4.13526e-07)
(4.86747e-07 3.12249e-08 6.13773e-21 4.23261e-07 6.6268e-22 4.95761e-07)
(8.4569e-07 3.60526e-08 -8.40782e-20 1.04314e-06 -9.51272e-21 8.88622e-07)
(1.00189e-07 -1.4287e-09 -0 1.29257e-07 -5.00951e-23 1.17558e-07)
(1.65645e-07 -5.41779e-09 -2.75069e-20 2.10513e-07 -3.24752e-21 1.81782e-07)
(1.00389e-07 -1.41282e-09 7.72583e-20 9.6573e-08 9.69081e-21 1.11483e-07)
(3.91269e-07 9.36608e-09 3.89287e-20 4.88615e-07 4.60001e-21 4.14979e-07)
(4.84537e-07 3.2427e-08 1.31154e-23 4.25352e-07 7.72155e-23 4.96423e-07)
(8.47144e-07 3.54987e-08 6.92659e-20 1.04354e-06 7.77783e-21 8.88146e-07)
(1.87426e-07 7.03057e-09 -3.50239e-20 2.40539e-07 -4.20666e-21 2.13842e-07)
(1.64562e-07 5.16345e-09 7.24512e-22 2.11825e-07 1.78248e-22 1.88617e-07)
(1.54448e-07 1.63535e-09 4.78717e-21 1.99694e-07 5.70891e-22 1.75919e-07)
(1.05243e-07 -2.54011e-09 -0 1.35525e-07 -1.00773e-23 1.23178e-07)
(1.69645e-07 -6.61792e-09 -1.25654e-22 2.1509e-07 -2.20054e-23 1.86118e-07)
(9.78209e-08 -1.07832e-09 5.53739e-22 9.66767e-08 9.52575e-23 1.10251e-07)
(3.92898e-07 9.02103e-09 3.25677e-22 4.90654e-07 6.0215e-23 4.16565e-07)
(4.83647e-07 3.34998e-08 2.87656e-24 4.28352e-07 2.4997e-24 4.98221e-07)
(8.48065e-07 3.45539e-08 3.73989e-22 1.04348e-06 6.88364e-23 8.87193e-07)
(2.67776e-07 9.3879e-09 2.48263e-21 3.4399e-07 3.90374e-22 3.05866e-07)
(2.48091e-07 8.39826e-09 1.05396e-20 3.18894e-07 1.2759e-21 2.83474e-07)
(2.31993e-07 7.65671e-09 1.07126e-20 2.98326e-07 1.08333e-21 2.65183e-07)
(2.17078e-07 7.12968e-09 -3.72823e-20 2.79169e-07 -4.46631e-21 2.48104e-07)
(2.01484e-07 6.50723e-09 9.7339e-21 2.59185e-07 1.26041e-21 2.30371e-07)
(1.86778e-07 5.51455e-09 -1.48568e-20 2.40519e-07 -1.8311e-21 2.13515e-07)
(1.65099e-07 3.7306e-09 9.62534e-23 2.13144e-07 1.37143e-22 1.8953e-07)
(1.56157e-07 1.69208e-10 3.53845e-20 2.02055e-07 4.30182e-21 1.77989e-07)
(1.10735e-07 -3.69863e-09 -0 1.42189e-07 -7.19734e-23 1.29195e-07)
(1.73515e-07 -7.75571e-09 2.05018e-21 2.19449e-07 1.40927e-22 1.9032e-07)
(9.60212e-08 -7.71652e-10 -7.06305e-20 9.75294e-08 -8.8356e-21 1.09728e-07)
(3.94557e-07 8.81286e-09 -3.55524e-20 4.92753e-07 -4.20673e-21 4.18259e-07)
(4.83778e-07 3.4492e-08 -2.32402e-21 4.31878e-07 -2.29484e-22 5.00717e-07)
(8.48581e-07 3.31979e-08 9.1418e-21 1.04333e-06 1.03808e-21 8.86112e-07)
(3.74968e-07 8.7212e-09 2.05442e-20 4.83542e-07 2.13833e-21 4.29258e-07)
(3.51628e-07 8.82314e-09 -1.8982e-20 4.53233e-07 -2.31707e-21 4.02433e-07)
(3.28276e-07 8.60789e-09 -4.94675e-21 4.23021e-07 -6.1756e-22 3.75655e-07)
(3.05488e-07 8.19016e-09 -3.07322e-20 3.93618e-07 -3.58011e-21 3.49542e-07)
(2.83108e-07 7.67903e-09 -7.11217e-21 3.64783e-07 -6.88753e-22 3.23973e-07)
(2.62071e-07 7.09443e-09 4.98838e-21 3.37713e-07 6.22006e-22 2.99878e-07)
(2.43759e-07 6.28908e-09 2.54688e-21 3.14269e-07 2.8042e-22 2.79e-07)
(2.28805e-07 5.72452e-09 5.24148e-23 2.95078e-07 2.57076e-23 2.61967e-07)
(2.14846e-07 5.35829e-09 6.23726e-21 2.77087e-07 6.77072e-22 2.4595e-07)
(2.00179e-07 4.87778e-09 -1.7083e-20 2.58228e-07 -1.96519e-21 2.29239e-07)
(1.86306e-07 3.98739e-09 3.24526e-20 2.40528e-07 3.90433e-21 2.13294e-07)
(1.65915e-07 2.26782e-09 -2.10642e-20 2.14623e-07 -2.72692e-21 1.90657e-07)
(1.58171e-07 -1.31429e-09 -3.341e-20 2.04597e-07 -3.99056e-21 1.80315e-07)
(1.16586e-07 -4.89783e-09 -0 1.49151e-07 7.32996e-23 1.35517e-07)
(1.77161e-07 -8.82739e-09 -1.95122e-21 2.2349e-07 -1.27616e-22 1.94291e-07)
(9.49313e-08 -4.80727e-10 6.70481e-20 9.90575e-08 8.36413e-21 1.09842e-07)
(3.96105e-07 8.71903e-09 3.36013e-20 4.94741e-07 3.955e-21 4.19906e-07)
(4.84568e-07 3.54014e-08 2.21173e-21 4.3567e-07 2.19254e-22 5.03618e-07)
(8.48831e-07 3.1466e-08 -8.60167e-21 1.04312e-06 -9.69556e-22 8.84926e-07)
(5.09507e-07 -4.4404e-09 -2.22215e-21 6.58934e-07 -3.73764e-22 5.8423e-07)
(4.87594e-07 -2.4913e-09 -1.20159e-20 6.3075e-07 -1.45882e-21 5.59181e-07)
(4.65818e-07 -6.87589e-10 -2.14403e-20 6.02639e-07 -2.22453e-21 5.34237e-07)
(4.4432e-07 1.00066e-09 7.5838e-21 5.74796e-07 9.78193e-22 5.09564e-07)
(4.23142e-07 2.55277e-09 -1.95651e-21 5.47289e-07 -2.09462e-22 4.85222e-07)
(4.02202e-07 3.88976e-09 9.7956e-21 5.20033e-07 1.27267e-21 4.61123e-07)
(3.81273e-07 4.91586e-09 2.5308e-20 4.92776e-07 2.81495e-21 4.37029e-07)
(3.60157e-07 5.56146e-09 1.39829e-22 4.65309e-07 -4.18689e-23 4.12737e-07)
(3.38822e-07 5.8311e-09 1.49604e-20 4.37626e-07 1.70644e-21 3.88228e-07)
(3.17444e-07 5.79929e-09 -1.37178e-21 4.09959e-07 -2.19891e-22 3.63708e-07)
(2.96556e-07 5.57821e-09 1.31471e-21 3.82974e-07 2.0932e-22 3.39754e-07)
(2.75926e-07 5.26356e-09 1.35272e-20 3.56349e-07 1.54902e-21 3.16166e-07)
(2.56459e-07 4.85567e-09 -4.69353e-21 3.31247e-07 -6.11643e-22 2.93839e-07)
(2.39544e-07 4.22303e-09 -2.36129e-21 3.09513e-07 -2.57888e-22 2.74516e-07)
(2.2573e-07 3.82572e-09 7.8394e-23 2.91721e-07 2.68387e-23 2.58751e-07)
(2.12728e-07 3.60956e-09 -4.67915e-23 2.74921e-07 -3.80185e-24 2.43809e-07)
(1.99012e-07 3.25938e-09 -1.37038e-22 2.57237e-07 -8.06863e-23 2.28156e-07)
(1.85981e-07 2.45946e-09 -1.76964e-20 2.40529e-07 -2.06342e-21 2.13143e-07)
(1.66988e-07 7.83256e-10 2.00358e-20 2.1623e-07 2.46735e-21 1.91971e-07)
(1.60458e-07 -2.80893e-09 -1.33764e-22 2.07279e-07 -7.63203e-23 1.82857e-07)
(1.22737e-07 -6.13043e-09 -0 1.56337e-07 4.51472e-24 1.42079e-07)
(1.8052e-07 -9.82746e-09 1.85264e-21 2.27148e-07 1.13248e-22 1.97963e-07)
(9.44932e-08 -1.99128e-10 -6.83457e-20 1.01209e-07 -8.44892e-21 1.10538e-07)
(3.97517e-07 8.72941e-09 1.12682e-22 4.96582e-07 1.18101e-22 4.21468e-07)
(4.85736e-07 3.62182e-08 -6.29188e-21 4.3952e-07 -8.12062e-22 5.0669e-07)
(8.48693e-07 2.93714e-08 -4.70582e-23 1.04261e-06 -3.43569e-24 8.83459e-07)
(6.97266e-07 -4.51658e-08 2.13659e-21 8.7806e-07 2.04976e-23 7.87672e-07)
(6.80066e-07 -4.16294e-08 -1.34533e-20 8.59102e-07 -1.40906e-21 7.69593e-07)
(6.62536e-07 -3.80936e-08 -2.69164e-22 8.39503e-07 3.00683e-22 7.51031e-07)
(6.44722e-07 -3.45626e-08 1.22131e-20 8.19315e-07 1.10368e-21 7.32031e-07)
(6.26698e-07 -3.10577e-08 -1.3038e-20 7.98621e-07 -1.47817e-21 7.12671e-07)
(6.08502e-07 -2.7604e-08 2.37924e-21 7.77446e-07 4.17374e-22 6.92986e-07)
(5.90191e-07 -2.42309e-08 9.21328e-22 7.55852e-07 4.62048e-23 6.73033e-07)
(5.71807e-07 -2.09844e-08 -2.21036e-21 7.33873e-07 -8.58517e-23 6.52852e-07)
(5.53369e-07 -1.79106e-08 1.54401e-20 7.11528e-07 1.88049e-21 6.32459e-07)
(5.34836e-07 -1.5053e-08 2.17022e-20 6.88767e-07 2.18864e-21 6.11812e-07)
(5.16167e-07 -1.24427e-08 1.61403e-21 6.65562e-07 2.34241e-23 5.90873e-07)
(4.9731e-07 -1.00804e-08 5.70294e-21 6.41884e-07 5.51359e-22 5.69606e-07)
(4.78285e-07 -7.93773e-09 -6.14781e-21 6.17804e-07 -7.17332e-22 5.48052e-07)
(4.59136e-07 -5.96195e-09 -6.82207e-23 5.93421e-07 2.85958e-22 5.26286e-07)
(4.39988e-07 -4.09807e-09 3.23234e-20 5.68927e-07 3.55786e-21 5.04464e-07)
(4.20968e-07 -2.327e-09 4.43454e-23 5.44501e-07 -3.5123e-22 4.8274e-07)
(4.02114e-07 -6.82676e-10 -1.83947e-20 5.20196e-07 -2.08339e-21 4.6116e-07)
(3.8336e-07 7.50709e-10 -3.75854e-21 4.95943e-07 -4.07261e-22 4.39656e-07)
(3.64519e-07 1.87601e-09 -1.72934e-20 4.71524e-07 -1.95376e-21 4.18025e-07)
(3.45439e-07 2.63279e-09 -4.06769e-21 4.46787e-07 -3.65426e-22 3.96116e-07)
(3.26108e-07 3.03017e-09 1.38818e-22 4.21749e-07 -5.23778e-23 3.73932e-07)
(3.06707e-07 3.14784e-09 -2.13452e-20 3.96651e-07 -2.45816e-21 3.51685e-07)
(2.8772e-07 3.09315e-09 -1.40626e-21 3.72108e-07 -8.73275e-23 3.29903e-07)
(2.68841e-07 2.94706e-09 -5.1975e-21 3.47721e-07 -6.01068e-22 3.0831e-07)
(2.50967e-07 2.69329e-09 -3.89862e-23 3.24639e-07 2.33984e-23 2.87788e-07)
(2.3546e-07 2.21968e-09 2.24843e-21 3.04651e-07 1.80952e-22 2.70045e-07)
(2.22772e-07 1.97807e-09 -1.82412e-20 2.88267e-07 -2.10031e-21 2.55545e-07)
(2.10722e-07 1.89874e-09 1.65849e-20 2.72674e-07 2.09962e-21 2.41684e-07)
(1.97973e-07 1.66492e-09 1.52571e-20 2.56204e-07 1.85219e-21 2.27116e-07)
(1.85797e-07 9.40086e-10 2.77652e-20 2.40514e-07 3.18973e-21 2.13055e-07)
(1.68309e-07 -7.15665e-10 -3.23153e-20 2.1795e-07 -3.97362e-21 1.93461e-07)
(1.62998e-07 -4.30902e-09 -5.53151e-23 2.10077e-07 7.2561e-23 1.85593e-07)
(1.29138e-07 -7.38867e-09 -0 1.63692e-07 -2.71644e-24 1.48828e-07)
(1.83519e-07 -1.07497e-08 -1.74772e-21 2.30352e-07 -1.78675e-22 2.01266e-07)
(9.46654e-08 8.15488e-11 1.74562e-20 1.0394e-07 2.15247e-21 1.11772e-07)
(3.9873e-07 8.83028e-09 7.50498e-21 4.98211e-07 8.80273e-22 4.22893e-07)
(4.86915e-07 3.69443e-08 -7.37613e-21 4.43111e-07 -9.64395e-22 5.09562e-07)
(8.48348e-07 2.69063e-08 1.8913e-24 1.04206e-06 6.51657e-24 8.81954e-07)
(6.81463e-07 -4.99495e-08 1.28325e-21 8.24511e-07 1.69819e-22 7.35292e-07)
(7.393e-07 -8.77687e-08 1.8121e-21 8.93308e-07 1.14443e-22 8.17543e-07)
(6.61748e-07 -7.69716e-08 -9.08448e-23 7.85379e-07 -4.25257e-23 7.32361e-07)
(6.80569e-07 -7.07952e-08 3.35802e-22 8.07281e-07 4.59858e-23 7.42003e-07)
(6.82393e-07 -7.30557e-08 4.21533e-22 8.02103e-07 3.64677e-23 7.42964e-07)
(7.12719e-07 -7.78979e-08 1.90839e-22 8.36802e-07 7.51165e-24 7.74468e-07)
(7.29845e-07 -8.11003e-08 1.00687e-22 8.53551e-07 -3.38029e-23 7.91762e-07)
(7.46533e-07 -8.37137e-08 -1.50672e-21 8.70401e-07 -1.59032e-22 8.08383e-07)
(7.61093e-07 -8.60513e-08 -5.93059e-22 8.84715e-07 1.60637e-23 8.22902e-07)
(7.74684e-07 -8.80992e-08 1.34017e-21 8.98408e-07 1.42182e-22 8.36506e-07)
(7.87106e-07 -8.99607e-08 -0 9.11025e-07 -3.77814e-23 8.49041e-07)
(7.98245e-07 -9.15579e-08 -7.117e-23 9.22578e-07 6.22188e-23 8.60364e-07)
(8.07842e-07 -9.28993e-08 2.7072e-21 9.32634e-07 2.65021e-22 8.70209e-07)
(8.15932e-07 -9.39719e-08 8.12414e-23 9.41319e-07 1.18041e-23 8.78615e-07)
(8.22789e-07 -9.47906e-08 2.7766e-21 9.49017e-07 2.69858e-22 8.85856e-07)
(8.28062e-07 -9.53642e-08 1.68563e-22 9.55149e-07 -3.3978e-23 8.91575e-07)
(8.31916e-07 -9.5679e-08 5.4305e-22 9.60021e-07 9.09674e-23 8.95938e-07)
(8.34414e-07 -9.57579e-08 2.00069e-21 9.63643e-07 1.99074e-22 8.99003e-07)
(8.35604e-07 -9.56003e-08 9.669e-22 9.66083e-07 1.07571e-22 9.00815e-07)
(8.35584e-07 -9.52258e-08 2.59372e-21 9.6741e-07 1.76258e-22 9.01467e-07)
(8.34381e-07 -9.46365e-08 -2.29564e-21 9.67644e-07 -3.48557e-22 9.00981e-07)
(8.32087e-07 -9.3852e-08 -3.29958e-21 9.66843e-07 -2.43258e-22 8.99443e-07)
(8.28818e-07 -9.28725e-08 1.10365e-21 9.65168e-07 1.5855e-22 8.96966e-07)
(8.24659e-07 -9.17218e-08 -7.89324e-22 9.62647e-07 -1.47457e-22 8.93626e-07)
(8.19666e-07 -9.04047e-08 -2.25132e-21 9.59335e-07 -2.45762e-22 8.89473e-07)
(8.1391e-07 -8.89329e-08 -1.92036e-21 9.55279e-07 -6.46258e-23 8.84572e-07)
(8.07486e-07 -8.73123e-08 3.82334e-21 9.50584e-07 3.84507e-22 8.7901e-07)
(8.00485e-07 -8.55643e-08 -1.29123e-21 9.45307e-07 -1.88903e-22 8.7287e-07)
(7.92892e-07 -8.36858e-08 4.82944e-22 9.39414e-07 3.9385e-23 8.6613e-07)
(7.84828e-07 -8.16909e-08 -1.67372e-21 9.33027e-07 -1.22578e-22 8.58902e-07)
(7.7628e-07 -7.95832e-08 2.64656e-21 9.26103e-07 3.18854e-22 8.51166e-07)
(7.67302e-07 -7.7371e-08 1.61748e-21 9.18683e-07 1.44267e-22 8.42966e-07)
(7.57931e-07 -7.50638e-08 1.89982e-21 9.10786e-07 2.40699e-22 8.34333e-07)
(7.48156e-07 -7.26602e-08 4.6654e-21 9.02384e-07 3.70679e-22 8.25244e-07)
(7.38028e-07 -7.01748e-08 -3.55907e-21 8.93507e-07 -4.65315e-22 8.15743e-07)
(7.27536e-07 -6.7606e-08 -1.96849e-21 8.84135e-07 -1.38618e-22 8.05809e-07)
(7.16669e-07 -6.49634e-08 1.66587e-22 8.74221e-07 1.30913e-23 7.95423e-07)
(7.05476e-07 -6.22505e-08 -2.28352e-21 8.63822e-07 -2.44305e-22 7.84625e-07)
(6.93887e-07 -5.94736e-08 -9.08617e-22 8.52823e-07 -1.15272e-22 7.73336e-07)
(6.81925e-07 -5.66325e-08 -3.62025e-21 8.41248e-07 -3.31681e-22 7.61571e-07)
(6.69619e-07 -5.37376e-08 1.25367e-21 8.29117e-07 2.05859e-22 7.49353e-07)
(6.56896e-07 -5.07856e-08 1.59535e-21 8.1633e-07 8.91769e-23 7.36601e-07)
(6.43785e-07 -4.77873e-08 -4.06129e-21 8.02907e-07 -3.952e-22 7.23339e-07)
(6.30297e-07 -4.47435e-08 3.21567e-21 7.88858e-07 3.91279e-22 7.09575e-07)
(6.1645e-07 -4.1659e-08 -1.06618e-22 7.74196e-07 -6.5051e-23 6.9532e-07)
(6.02208e-07 -3.85371e-08 -2.66468e-27 7.58863e-07 -1.6196e-23 6.80536e-07)
(5.87637e-07 -3.53912e-08 6.54656e-23 7.42929e-07 5.8244e-23 6.65286e-07)
(5.72805e-07 -3.22391e-08 3.24303e-21 7.2646e-07 2.13661e-22 6.49636e-07)
(5.57731e-07 -2.91048e-08 -1.12106e-20 7.09456e-07 -1.21683e-21 6.33598e-07)
(5.42484e-07 -2.60234e-08 4.62683e-24 6.91981e-07 1.1577e-22 6.17239e-07)
(5.27118e-07 -2.30376e-08 2.73886e-23 6.74081e-07 -4.15663e-23 6.00606e-07)
(5.11629e-07 -2.01968e-08 -4.2849e-21 6.55734e-07 -4.54008e-22 5.83688e-07)
(4.95988e-07 -1.75382e-08 1.61402e-22 6.36907e-07 7.0178e-23 5.66455e-07)
(4.80166e-07 -1.50909e-08 -5.04358e-22 6.17577e-07 -4.71935e-23 5.48877e-07)
(4.64094e-07 -1.28514e-08 1.65691e-23 5.97695e-07 -9.38855e-24 5.309e-07)
(4.47779e-07 -1.07875e-08 -2.38652e-21 5.77314e-07 -2.59831e-22 5.12552e-07)
(4.31253e-07 -8.84714e-09 2.019e-23 5.56522e-07 -8.67619e-23 4.93893e-07)
(4.14616e-07 -6.98466e-09 -1.38032e-20 5.35476e-07 -1.5134e-21 4.75051e-07)
(3.97973e-07 -5.19143e-09 3.46934e-24 5.14322e-07 2.05923e-22 4.56151e-07)
(3.81364e-07 -3.51269e-09 1.5472e-20 4.93109e-07 1.72157e-21 4.37241e-07)
(3.64742e-07 -2.0379e-09 -1.77687e-23 4.71781e-07 -6.19258e-24 4.18265e-07)
(3.47953e-07 -8.62659e-10 1.65261e-20 4.50156e-07 1.85793e-21 3.99058e-07)
(3.30889e-07 -4.00627e-11 -1.00732e-21 4.28124e-07 -2.79346e-22 3.79509e-07)
(3.13554e-07 4.46174e-10 -1.37465e-20 4.05726e-07 -1.56112e-21 3.59643e-07)
(2.96121e-07 6.78372e-10 -1.97258e-22 3.83199e-07 3.89024e-23 3.39665e-07)
(2.79017e-07 7.58408e-10 -1.60474e-23 3.61095e-07 1.41497e-23 3.20045e-07)
(2.61881e-07 7.50689e-10 5.02731e-21 3.38955e-07 5.98147e-22 3.00447e-07)
(2.4561e-07 6.27576e-10 4.30556e-21 3.17925e-07 4.81483e-22 2.81752e-07)
(2.31512e-07 2.972e-10 4.17933e-23 2.99706e-07 -8.95413e-24 2.65599e-07)
(2.19926e-07 1.98335e-10 -1.26756e-22 2.84723e-07 -1.95031e-23 2.52349e-07)
(2.08821e-07 2.40813e-10 8.27862e-23 2.70347e-07 -4.05489e-23 2.39571e-07)
(1.97048e-07 1.0646e-10 -1.44738e-20 2.55119e-07 -1.79533e-21 2.26107e-07)
(1.85742e-07 -5.61869e-10 -2.23922e-20 2.40473e-07 -2.54005e-21 2.13021e-07)
(1.69871e-07 -2.22182e-09 3.19072e-20 2.19774e-07 3.92794e-21 1.95119e-07)
(1.65776e-07 -5.80927e-09 1.53807e-20 2.12979e-07 1.77135e-21 1.8851e-07)
(1.35745e-07 -8.66348e-09 -0 1.71169e-07 -4.42989e-23 1.55722e-07)
(1.8612e-07 -1.15889e-08 -5.07989e-21 2.33068e-07 -5.40629e-22 2.04164e-07)
(9.53908e-08 3.76339e-10 4.52568e-20 1.07193e-07 5.5353e-21 1.13482e-07)
(3.99586e-07 8.99941e-09 -3.48665e-20 4.9946e-07 -4.28876e-21 4.24045e-07)
(4.87976e-07 3.76059e-08 1.84197e-21 4.4632e-07 2.95028e-22 5.12079e-07)
(8.47886e-07 2.40724e-08 1.85283e-24 1.04161e-06 -1.648e-24 8.80565e-07)
(7.3294e-07 -7.53133e-08 -1.34665e-22 9.12135e-07 -8.8839e-24 8.00056e-07)
(5.97253e-07 -6.78066e-08 1.92331e-22 7.0417e-07 1.77505e-23 6.51817e-07)
(5.49634e-07 -6.18412e-08 -2.11741e-22 6.38209e-07 -2.59342e-23 6.00116e-07)
(5.96736e-07 -6.46329e-08 -7.69111e-23 6.9922e-07 -2.77914e-24 6.465e-07)
(6.08275e-07 -6.83348e-08 5.90107e-25 7.08309e-07 2.43819e-24 6.58859e-07)
(6.27527e-07 -7.10721e-08 1.69936e-25 7.29396e-07 -3.56737e-23 6.78237e-07)
(6.39685e-07 -7.31533e-08 -1.52294e-21 7.40699e-07 -1.31365e-22 6.90253e-07)
(6.52814e-07 -7.5115e-08 6.14487e-22 7.53936e-07 9.50399e-23 7.03324e-07)
(6.64518e-07 -7.69019e-08 5.9107e-23 7.65559e-07 -3.24352e-23 7.15027e-07)
(6.75502e-07 -7.85167e-08 -9.73115e-22 7.76707e-07 -9.56706e-23 7.2608e-07)
(6.85438e-07 -7.99517e-08 -0 7.86897e-07 -2.06387e-23 7.36149e-07)
(6.94266e-07 -8.11802e-08 -1.85249e-21 7.96106e-07 -1.98888e-22 7.45163e-07)
(7.01945e-07 -8.22101e-08 -7.53462e-22 8.04265e-07 -3.08428e-23 7.53085e-07)
(7.0847e-07 -8.30411e-08 1.56421e-25 8.11379e-07 -2.38388e-23 7.59912e-07)
(7.13942e-07 -8.36731e-08 -1.8954e-21 8.17607e-07 -1.45621e-22 7.65741e-07)
(7.18166e-07 -8.41113e-08 1.72604e-21 8.22624e-07 2.47348e-22 7.70377e-07)
(7.2129e-07 -8.43524e-08 1.86009e-21 8.26674e-07 1.15337e-22 7.73968e-07)
(7.23409e-07 -8.44088e-08 -1.41438e-21 8.29851e-07 -1.97814e-22 7.76603e-07)
(7.24471e-07 -8.42905e-08 -1.1493e-21 8.3203e-07 -9.70545e-23 7.78231e-07)
(7.24565e-07 -8.39952e-08 -5.78659e-22 8.33348e-07 -3.57859e-23 7.78936e-07)
(7.23781e-07 -8.3539e-08 -3.22632e-22 8.33875e-07 3.75187e-23 7.78806e-07)
(7.22149e-07 -8.29264e-08 2.87003e-21 8.33626e-07 2.83793e-22 7.77866e-07)
(7.19757e-07 -8.21709e-08 1.97905e-24 8.32676e-07 -2.99985e-23 7.762e-07)
(7.1668e-07 -8.12731e-08 1.24508e-21 8.31123e-07 1.50332e-22 7.7388e-07)
(7.12953e-07 -8.02494e-08 1.44503e-21 8.28948e-07 1.19486e-22 7.70934e-07)
(7.08649e-07 -7.91001e-08 1.83778e-22 8.26247e-07 -3.45064e-23 7.67431e-07)
(7.03869e-07 -7.78417e-08 -1.15875e-21 8.23102e-07 -1.24148e-22 7.63467e-07)
(6.98591e-07 -7.64737e-08 -6.18385e-22 8.19468e-07 -3.9995e-23 7.59014e-07)
(6.92898e-07 -7.50047e-08 1.56656e-24 8.15426e-07 1.65889e-23 7.54149e-07)
(6.86833e-07 -7.34396e-08 3.37611e-22 8.11013e-07 3.0367e-23 7.48909e-07)
(6.80396e-07 -7.17819e-08 8.8589e-24 8.06204e-07 3.1723e-23 7.43289e-07)
(6.73641e-07 -7.00378e-08 2.31754e-21 8.01049e-07 2.33226e-22 7.37333e-07)
(6.66559e-07 -6.82117e-08 3.89383e-24 7.95513e-07 -3.57645e-23 7.31029e-07)
(6.59186e-07 -6.63025e-08 1.70073e-23 7.89637e-07 7.30829e-23 7.24403e-07)
(6.51522e-07 -6.43192e-08 3.99286e-21 7.83389e-07 4.19216e-22 7.17448e-07)
(6.4355e-07 -6.22595e-08 1.21526e-21 7.76741e-07 2.64068e-23 7.1014e-07)
(6.35294e-07 -6.01299e-08 -2.21979e-21 7.69706e-07 -2.1981e-22 7.02495e-07)
(6.2674e-07 -5.793e-08 1.43712e-21 7.62255e-07 1.74871e-22 6.94492e-07)
(6.17858e-07 -5.5661e-08 -4.26603e-24 7.54336e-07 -4.60388e-23 6.86092e-07)
(6.08646e-07 -5.33276e-08 -1.70922e-21 7.45932e-07 -1.96999e-22 6.77287e-07)
(5.99093e-07 -5.09263e-08 -1.51445e-21 7.37028e-07 -1.14755e-22 6.68059e-07)
(5.89195e-07 -4.84614e-08 1.36547e-21 7.27603e-07 1.91187e-22 6.58395e-07)
(5.78896e-07 -4.59338e-08 2.19281e-21 7.17574e-07 2.16301e-22 6.48234e-07)
(5.68209e-07 -4.33399e-08 1.1675e-21 7.06958e-07 2.11305e-22 6.37584e-07)
(5.57177e-07 -4.06898e-08 9.31935e-21 6.95791e-07 9.49332e-22 6.26484e-07)
(5.45742e-07 -3.79799e-08 1.06716e-24 6.83993e-07 -1.17221e-22 6.14871e-07)
(5.33983e-07 -3.52263e-08 6.65911e-24 6.7164e-07 -2.66648e-23 6.02815e-07)
(5.21925e-07 -3.24436e-08 -3.20875e-21 6.58745e-07 -2.5263e-22 5.90339e-07)
(5.0961e-07 -2.9656e-08 7.02707e-21 6.45331e-07 7.64508e-22 5.77476e-07)
(4.97106e-07 -2.69007e-08 1.18946e-22 6.31452e-07 -1.45329e-22 5.64287e-07)
(4.84453e-07 -2.4218e-08 -8.52993e-21 6.17134e-07 -9.08389e-22 5.50801e-07)
(4.71648e-07 -2.16535e-08 3.15226e-23 6.0235e-07 -1.29485e-23 5.37007e-07)
(4.58668e-07 -1.9244e-08 -9.88061e-21 5.87069e-07 -1.05283e-21 5.22877e-07)
(4.45479e-07 -1.70106e-08 4.85459e-22 5.71263e-07 1.66297e-22 5.08379e-07)
(4.32e-07 -1.49443e-08 3.22529e-21 5.54865e-07 3.35922e-22 4.9344e-07)
(4.18222e-07 -1.30094e-08 -1.89624e-21 5.37909e-07 -2.71492e-22 4.78073e-07)
(4.04156e-07 -1.1157e-08 -5.46641e-21 5.20455e-07 -5.89889e-22 4.62313e-07)
(3.89886e-07 -9.34785e-09 -1.21007e-22 5.02637e-07 1.30732e-23 4.46269e-07)
(3.75499e-07 -7.58546e-09 3.24285e-24 4.84573e-07 -2.25953e-24 4.30042e-07)
(3.61034e-07 -5.92483e-09 1.25753e-22 4.66301e-07 2.32385e-23 4.13674e-07)
(3.46468e-07 -4.4592e-09 -1.19773e-23 4.47783e-07 -9.24212e-23 3.97131e-07)
(3.31683e-07 -3.28114e-09 -1.56908e-20 4.28873e-07 -1.7382e-21 3.80283e-07)
(3.16598e-07 -2.43581e-09 5.58727e-21 4.09494e-07 7.90024e-22 3.6305e-07)
(3.01229e-07 -1.89832e-09 1.30556e-20 3.89697e-07 1.56164e-21 3.45467e-07)
(2.85736e-07 -1.58651e-09 1.94352e-20 3.69709e-07 2.17625e-21 3.27729e-07)
(2.70486e-07 -1.40376e-09 -4.43172e-23 3.50021e-07 -1.463e-22 3.10244e-07)
(2.5507e-07 -1.30372e-09 -1.16961e-20 3.30111e-07 -1.37666e-21 2.9262e-07)
(2.40404e-07 -1.32078e-09 -4.08112e-21 3.11147e-07 -4.58522e-22 2.7576e-07)
(2.27697e-07 -1.52496e-09 -7.55498e-21 2.94697e-07 -8.09783e-22 2.61189e-07)
(2.1718e-07 -1.49546e-09 1.17894e-20 2.81094e-07 1.4121e-21 2.49162e-07)
(2.0701e-07 -1.34808e-09 -3.6718e-21 2.67941e-07 -4.34155e-22 2.37464e-07)
(1.96221e-07 -1.40326e-09 1.41296e-20 2.53975e-07 1.81868e-21 2.25117e-07)
(1.8581e-07 -2.03611e-09 3.86859e-20 2.40407e-07 4.62357e-21 2.13036e-07)
(1.71659e-07 -3.72726e-09 1.76458e-20 2.21687e-07 2.0085e-21 1.96933e-07)
(1.68777e-07 -7.30258e-09 6.26096e-23 2.15973e-07 -3.48876e-23 1.91592e-07)
(1.42498e-07 -9.94211e-09 -0 1.7871e-07 1.26105e-23 1.62701e-07)
(1.88289e-07 -1.23415e-08 4.80753e-21 2.35272e-07 5.83457e-22 2.06632e-07)
(9.65385e-08 7.06907e-10 1.55422e-22 1.10855e-07 7.33059e-23 1.15524e-07)
(4.00232e-07 9.20202e-09 3.30962e-20 5.00559e-07 4.01946e-21 4.2513e-07)
(4.88693e-07 3.82402e-08 1.88551e-20 4.48888e-07 2.38595e-21 5.13927e-07)
(8.47525e-07 2.08596e-08 1.84281e-24 1.04164e-06 -1.67636e-23 8.79685e-07)
(5.67362e-07 -5.42581e-08 4.79088e-22 6.83337e-07 5.6036e-23 6.10539e-07)
(5.11213e-07 -5.7787e-08 4.97877e-22 5.91976e-07 4.08705e-23 5.52599e-07)
(4.93924e-07 -5.73198e-08 -2.59146e-23 5.66604e-07 -2.00573e-23 5.35252e-07)
(5.35405e-07 -6.07059e-08 -3.9151e-22 6.21205e-07 -3.77786e-23 5.77081e-07)
(5.41018e-07 -6.26918e-08 4.65522e-23 6.23664e-07 1.59639e-23 5.82772e-07)
(5.54159e-07 -6.43498e-08 1.56896e-22 6.37773e-07 1.68766e-23 5.95767e-07)
(5.63743e-07 -6.5906e-08 -2.0256e-24 6.46814e-07 -4.21603e-24 6.05284e-07)
(5.73863e-07 -6.73851e-08 5.74616e-25 6.57049e-07 -1.1206e-24 6.15404e-07)
(5.82996e-07 -6.8719e-08 -2.06576e-25 6.66275e-07 2.78907e-25 6.24585e-07)
(5.91474e-07 -6.99334e-08 -2.00025e-24 6.7494e-07 -1.27918e-24 6.3316e-07)
(5.98991e-07 -7.09881e-08 -0 6.827e-07 9.71603e-25 6.40819e-07)
(6.05809e-07 -7.18935e-08 -3.18686e-24 6.89948e-07 -3.14298e-24 6.47827e-07)
(6.11689e-07 -7.26543e-08 2.0251e-25 6.96289e-07 -6.44486e-25 6.53944e-07)
(6.16666e-07 -7.32586e-08 5.40344e-25 7.01833e-07 1.10736e-23 6.59206e-07)
(6.20784e-07 -7.37155e-08 4.40657e-22 7.06612e-07 3.39849e-23 6.63655e-07)
(6.24008e-07 -7.40179e-08 -3.67055e-22 7.10602e-07 -4.63384e-23 6.67258e-07)
(6.26367e-07 -7.41823e-08 3.60589e-24 7.13773e-07 1.13775e-23 6.7004e-07)
(6.27978e-07 -7.41945e-08 -3.89371e-24 7.16369e-07 2.23453e-24 6.72118e-07)
(6.28787e-07 -7.40851e-08 -3.51762e-24 7.18172e-07 6.25612e-24 6.73437e-07)
(6.28804e-07 -7.38323e-08 5.56829e-22 7.19277e-07 6.29256e-23 6.74003e-07)
(6.28214e-07 -7.34619e-08 3.00507e-22 7.19865e-07 1.7502e-23 6.74e-07)
(6.26983e-07 -7.29686e-08 9.47889e-24 7.19892e-07 -3.47007e-24 6.73391e-07)
(6.25183e-07 -7.23692e-08 -3.17575e-25 7.19396e-07 1.30845e-24 6.72245e-07)
(6.22805e-07 -7.16597e-08 3.56124e-24 7.18364e-07 8.6636e-25 6.70549e-07)
(6.20004e-07 -7.08488e-08 2.61582e-24 7.16996e-07 -2.84927e-23 6.68457e-07)
(6.16787e-07 -6.99502e-08 -1.77124e-21 7.15239e-07 -1.75273e-22 6.65971e-07)
(6.13162e-07 -6.89593e-08 2.23487e-22 7.13109e-07 5.25222e-23 6.63095e-07)
(6.09203e-07 -6.78864e-08 -2.43334e-24 7.10671e-07 -4.91222e-24 6.59899e-07)
(6.04939e-07 -6.67331e-08 -2.35931e-23 7.07953e-07 -8.30109e-24 6.56408e-07)
(6.00392e-07 -6.55037e-08 -3.26565e-22 7.04962e-07 -3.46595e-23 6.52639e-07)
(5.95582e-07 -6.42011e-08 1.13938e-24 7.01708e-07 7.06641e-25 6.48609e-07)
(5.90543e-07 -6.28289e-08 8.75441e-24 6.98219e-07 2.37158e-23 6.44345e-07)
(5.85257e-07 -6.13894e-08 1.28706e-21 6.94454e-07 1.32557e-22 6.39824e-07)
(5.79754e-07 -5.9881e-08 2.09519e-24 6.9045e-07 -1.41945e-23 6.35071e-07)
(5.74042e-07 -5.83084e-08 1.16231e-23 6.86195e-07 -1.06752e-23 6.30087e-07)
(5.68096e-07 -5.66727e-08 -1.15971e-21 6.81646e-07 -8.60055e-23 6.24843e-07)
(5.61919e-07 -5.49723e-08 2.10769e-21 6.76799e-07 2.10665e-22 6.19333e-07)
(5.55498e-07 -5.32074e-08 -1.37534e-21 6.7163e-07 -1.69055e-22 6.13539e-07)
(5.48818e-07 -5.13772e-08 -8.48427e-25 6.66112e-07 3.76592e-23 6.07441e-07)
(5.41842e-07 -4.94817e-08 1.61407e-21 6.60185e-07 1.82316e-22 6.00993e-07)
(5.34574e-07 -4.75181e-08 1.43533e-21 6.53853e-07 1.24479e-22 5.94194e-07)
(5.26997e-07 -4.54883e-08 8.85203e-24 6.47082e-07 -1.40118e-23 5.8702e-07)
(5.19037e-07 -4.33843e-08 6.5104e-24 6.39778e-07 -1.42199e-23 5.79391e-07)
(5.10742e-07 -4.12082e-08 -1.07173e-21 6.31992e-07 -1.61855e-22 5.71351e-07)
(5.02085e-07 -3.89632e-08 -4.73438e-21 6.23676e-07 -4.76859e-22 5.62866e-07)
(4.93048e-07 -3.66467e-08 9.38611e-25 6.14799e-07 4.51896e-23 5.53912e-07)
(4.8371e-07 -3.42745e-08 5.87952e-24 6.05435e-07 9.93262e-24 5.44561e-07)
(4.74066e-07 -3.1858e-08 -2.76338e-23 5.95557e-07 -1.99003e-23 5.34802e-07)
(4.64183e-07 -2.9425e-08 -1.78026e-21 5.85213e-07 -1.93342e-22 5.24689e-07)
(4.54113e-07 -2.70083e-08 -1.11858e-22 5.7444e-07 9.10279e-24 5.14269e-07)
(4.43888e-07 -2.46493e-08 -6.5735e-23 5.63241e-07 1.9834e-23 5.03558e-07)
(4.33513e-07 -2.23874e-08 3.91726e-21 5.51603e-07 4.05015e-22 4.92553e-07)
(4.22967e-07 -2.02573e-08 -1.49679e-21 5.39493e-07 -1.95512e-22 4.81225e-07)
(4.12191e-07 -1.82717e-08 -5.56059e-24 5.26851e-07 -1.56361e-23 4.69517e-07)
(4.01098e-07 -1.64126e-08 -3.04881e-21 5.13605e-07 -2.96809e-22 4.57349e-07)
(3.89672e-07 -1.46452e-08 3.8918e-21 4.99779e-07 4.88004e-22 4.44723e-07)
(3.77901e-07 -1.29206e-08 5.1487e-21 4.85403e-07 6.25374e-22 4.3165e-07)
(3.65838e-07 -1.12071e-08 1.40079e-20 4.70568e-07 1.51015e-21 4.18202e-07)
(3.53573e-07 -9.52044e-09 -3.8852e-23 4.55386e-07 -1.73658e-22 4.04478e-07)
(3.41153e-07 -7.92407e-09 -1.24939e-20 4.39894e-07 -1.3783e-21 3.90523e-07)
(3.28564e-07 -6.51244e-09 3.31636e-21 4.24058e-07 4.47926e-22 3.7631e-07)
(3.15723e-07 -5.37436e-09 -1.30931e-22 4.07765e-07 -8.07221e-23 3.61744e-07)
(3.02569e-07 -4.54613e-09 -7.01522e-21 3.90959e-07 -8.83999e-22 3.46764e-07)
(2.89136e-07 -3.99135e-09 -1.80679e-20 3.73716e-07 -2.09253e-21 3.31427e-07)
(2.75546e-07 -3.63514e-09 -1.66403e-20 3.56223e-07 -1.78493e-21 3.15887e-07)
(2.62105e-07 -3.37918e-09 9.17738e-21 3.38897e-07 1.1283e-21 3.0049e-07)
(2.48391e-07 -3.20322e-09 -7.46603e-22 3.21202e-07 -1.14537e-22 2.84824e-07)
(2.35328e-07 -3.13807e-09 3.88128e-21 3.04314e-07 4.47074e-22 2.69803e-07)
(2.23986e-07 -3.23248e-09 -1.08915e-21 2.89613e-07 -1.42506e-22 2.56792e-07)
(2.14497e-07 -3.09104e-09 4.37687e-23 2.77357e-07 1.2678e-23 2.45952e-07)
(2.05264e-07 -2.85779e-09 9.08453e-24 2.65443e-07 -5.63043e-23 2.35342e-07)
(1.95467e-07 -2.85544e-09 -1.60703e-20 2.52755e-07 -1.96153e-21 2.24125e-07)
(1.85983e-07 -3.47659e-09 -1.52377e-20 2.40306e-07 -1.7658e-21 2.13086e-07)
(1.73669e-07 -5.22632e-09 8.35082e-23 2.2369e-07 5.58126e-23 1.98902e-07)
(1.71998e-07 -8.78571e-09 7.09233e-24 2.19062e-07 2.27445e-24 1.94837e-07)
(1.4934e-07 -1.12111e-08 -0 1.86262e-07 -6.66159e-24 1.69714e-07)
(1.90035e-07 -1.30137e-08 -4.72762e-21 2.36983e-07 -5.83835e-22 2.08693e-07)
(9.80966e-08 1.11818e-09 5.93203e-23 1.14925e-07 -2.19807e-23 1.17878e-07)
(4.00095e-07 9.37889e-09 -1.98919e-20 5.00847e-07 -2.41937e-21 4.25596e-07)
(4.89526e-07 3.893e-08 -1.79008e-20 4.51149e-07 -2.27261e-21 5.15487e-07)
(8.47604e-07 1.73455e-08 2.41809e-22 1.04242e-06 6.11737e-23 8.79579e-07)
(4.91093e-07 -4.85529e-08 -4.35121e-22 5.83067e-07 -4.41758e-23 5.25224e-07)
(4.62941e-07 -5.42492e-08 9.61007e-25 5.29957e-07 1.16663e-23 4.97531e-07)
(4.49364e-07 -5.37618e-08 -1.14351e-25 5.10346e-07 9.176e-24 4.84034e-07)
(4.78738e-07 -5.58509e-08 3.7393e-22 5.49927e-07 3.55323e-23 5.1341e-07)
(4.81483e-07 -5.69507e-08 -4.39176e-23 5.49778e-07 -1.44766e-23 5.16048e-07)
(4.91399e-07 -5.81662e-08 -1.48922e-22 5.60592e-07 -1.19516e-23 5.25907e-07)
(4.98639e-07 -5.93081e-08 -4.79824e-25 5.67521e-07 2.09444e-24 5.33152e-07)
(5.06153e-07 -6.03699e-08 -3.26741e-26 5.75211e-07 1.6803e-24 5.40706e-07)
(5.12887e-07 -6.13283e-08 1.49954e-22 5.8207e-07 3.15506e-23 5.47519e-07)
(5.19128e-07 -6.21854e-08 9.05867e-22 5.88556e-07 8.75573e-23 5.53875e-07)
(5.2468e-07 -6.29348e-08 -0 5.94385e-07 -5.98008e-24 5.5958e-07)
(5.2967e-07 -6.35733e-08 4.88098e-22 5.99783e-07 3.4524e-23 5.64761e-07)
(5.33972e-07 -6.41024e-08 -7.04391e-22 6.04542e-07 -8.92361e-23 5.69294e-07)
(5.37598e-07 -6.45181e-08 -5.65789e-22 6.087e-07 -2.88632e-23 5.7319e-07)
(5.40578e-07 -6.48208e-08 8.78728e-22 6.12302e-07 1.02596e-22 5.76479e-07)
(5.42925e-07 -6.5014e-08 3.52608e-22 6.15355e-07 1.97639e-23 5.79174e-07)
(5.446e-07 -6.51011e-08 7.50065e-25 6.17774e-07 1.88021e-23 5.81235e-07)
(5.45732e-07 -6.50789e-08 1.28839e-21 6.19779e-07 1.49239e-22 5.82789e-07)
(5.46265e-07 -6.49592e-08 1.04037e-21 6.21222e-07 7.25959e-23 5.8378e-07)
(5.46228e-07 -6.47384e-08 -5.29466e-22 6.22158e-07 -7.19405e-23 5.84235e-07)
(5.45739e-07 -6.44261e-08 -2.88222e-22 6.2273e-07 -6.3532e-23 5.84272e-07)
(5.44783e-07 -6.40245e-08 -2.61424e-21 6.22895e-07 -2.59243e-22 5.83872e-07)
(5.43381e-07 -6.35385e-08 -1.57172e-24 6.22657e-07 2.91533e-23 5.83055e-07)
(5.41583e-07 -6.29711e-08 -6.98537e-22 6.22075e-07 -7.05079e-23 5.81869e-07)
(5.39515e-07 -6.233e-08 -2.42483e-25 6.21306e-07 1.27051e-23 5.80438e-07)
(5.37076e-07 -6.16204e-08 -5.72712e-24 6.20165e-07 -4.65653e-24 5.78657e-07)
(5.34372e-07 -6.08368e-08 4.15525e-24 6.18823e-07 9.57688e-25 5.76631e-07)