/*--------------------------------*- C++ -*----------------------------------*\
| =========                 |                                                 |
| \\      /  F ield         | OpenFOAM: The Open Source CFD Toolbox           |
|  \\    /   O peration     | Version:  2306                                  |
|   \\  /    A nd           | Website:  www.openfoam.com                      |
|    \\/     M anipulation  |                                                 |
\*---------------------------------------------------------------------------*/
FoamFile
{
    version     2.0;
    format      ascii;
    arch        "LSB;label=32;scalar=64";
    class       volSymmTensorField;
    location    "275";
    object      turbulenceProperties:devReff;
}
// * * * * * * * * * * * * * * * * * * * * * * * * * * * * * * * * * * * * * //

dimensions      [0 2 -2 0 0 0 0];

internalField   nonuniform List<symmTensor> 
1340
(
(5.38114e-08 7.83771e-08 -1.08994e-19 -1.24376e-07 -1.41103e-20 7.0565e-08)
(-2.12419e-07 9.58802e-08 5.51253e-20 3.08684e-07 6.39341e-21 -9.62646e-08)
(-2.88762e-09 -4.71889e-09 -2.14058e-19 -1.98818e-08 -2.67787e-20 2.27694e-08)
(-1.05885e-07 2.60595e-08 -3.34988e-20 1.49253e-07 -3.78725e-21 -4.33674e-08)
(4.76822e-08 8.19985e-08 1.6118e-20 -1.19036e-07 1.74024e-21 7.13537e-08)
(-2.1104e-07 9.49557e-08 -2.21446e-19 3.09005e-07 -2.50547e-20 -9.79646e-08)
(-4.07323e-08 -3.75958e-09 -0 3.57592e-08 -1.31824e-22 4.97309e-09)
(-5.35028e-08 -1.42545e-08 -7.2372e-20 6.45481e-08 -8.5444e-21 -1.10453e-08)
(-6.38837e-09 -3.72006e-09 2.03427e-19 -1.64358e-08 2.55166e-20 2.28241e-08)
(-1.06223e-07 2.46554e-08 1.02477e-19 1.50033e-07 1.21091e-20 -4.38095e-08)
(4.13942e-08 8.51377e-08 3.44346e-23 -1.13997e-07 2.02731e-22 7.26026e-08)
(-2.08413e-07 9.34948e-08 1.82429e-19 3.08835e-07 2.04849e-20 -1.00422e-07)
(-6.99033e-08 1.85391e-08 -9.23552e-20 7.01501e-08 -1.10926e-20 -2.46832e-10)
(-6.26569e-08 1.36091e-08 1.90957e-21 6.19135e-08 4.69802e-22 7.4336e-10)
(-5.85656e-08 4.30664e-09 1.26069e-20 6.05883e-08 1.50342e-21 -2.02272e-09)
(-4.22877e-08 -6.68334e-09 -0 3.73868e-08 -2.65147e-23 4.90086e-09)
(-5.42992e-08 -1.74109e-08 -3.30578e-22 6.52601e-08 -5.78932e-23 -1.09609e-08)
(-9.9051e-09 -2.83915e-09 1.45795e-21 -1.29177e-08 2.50806e-22 2.28228e-08)
(-1.06522e-07 2.37421e-08 8.57137e-22 1.50757e-07 1.58477e-22 -4.4235e-08)
(3.56299e-08 8.79358e-08 7.55086e-24 -1.09516e-07 6.56162e-24 7.3886e-08)
(-2.05913e-07 9.10056e-08 9.84985e-22 3.08771e-07 1.81296e-22 -1.02858e-07)
(-1.00574e-07 2.47808e-08 6.55331e-21 1.00604e-07 1.03045e-21 -3.03883e-11)
(-9.3396e-08 2.21602e-08 2.78106e-20 9.34288e-08 3.36667e-21 -3.28033e-11)
(-8.75154e-08 2.01989e-08 2.82605e-20 8.74749e-08 2.8579e-21 4.05043e-11)
(-8.18708e-08 1.88058e-08 -9.83384e-20 8.1905e-08 -1.17807e-20 -3.42323e-11)
(-7.61198e-08 1.71617e-08 2.56714e-20 7.60565e-08 3.3241e-21 6.32653e-11)
(-7.07319e-08 1.45403e-08 -3.9173e-20 7.09661e-08 -4.82808e-21 -2.34155e-10)
(-6.36661e-08 9.8315e-09 2.53663e-22 6.29487e-08 3.61422e-22 7.17364e-10)
(-5.94464e-08 4.45537e-10 9.31704e-20 6.14075e-08 1.13271e-20 -1.96107e-09)
(-4.37703e-08 -9.73023e-09 -0 3.89773e-08 -1.89345e-22 4.79292e-09)
(-5.50161e-08 -2.04028e-08 5.39338e-21 6.58223e-08 3.70733e-22 -1.08062e-08)
(-1.33522e-08 -2.03157e-09 -1.85953e-19 -9.3813e-09 -2.3262e-20 2.27335e-08)
(-1.06916e-07 2.31888e-08 -9.35472e-20 1.51464e-07 -1.10689e-20 -4.45487e-08)
(3.05831e-08 9.05201e-08 -6.09911e-21 -1.05622e-07 -6.02253e-22 7.50386e-08)
(-2.03924e-07 8.74344e-08 2.40771e-20 3.09002e-07 2.73404e-21 -1.05078e-07)
(-1.43619e-07 2.30718e-08 5.43492e-20 1.43613e-07 5.65692e-21 5.68173e-12)
(-1.34346e-07 2.33324e-08 -5.01972e-20 1.34342e-07 -6.1274e-21 4.28103e-12)
(-1.25223e-07 2.27529e-08 -1.30755e-20 1.25212e-07 -1.63237e-21 1.10163e-11)
(-1.16408e-07 2.16382e-08 -8.11936e-20 1.16428e-07 -9.45855e-21 -1.97763e-11)
(-1.07864e-07 2.02779e-08 -1.8781e-20 1.07815e-07 -1.81878e-21 4.90587e-11)
(-9.98127e-08 1.87252e-08 1.31665e-20 9.98371e-08 1.64174e-21 -2.44008e-11)
(-9.30061e-08 1.65934e-08 6.7198e-21 9.30309e-08 7.39873e-22 -2.48223e-11)
(-8.74333e-08 1.51006e-08 1.38264e-22 8.7388e-08 6.78135e-23 4.53145e-11)
(-8.20662e-08 1.41325e-08 1.64508e-20 8.20948e-08 1.78578e-21 -2.85317e-11)
(-7.65728e-08 1.28634e-08 -4.50503e-20 7.65108e-08 -5.18249e-21 6.20051e-11)
(-7.13702e-08 1.05127e-08 8.55607e-20 7.15859e-08 1.02937e-20 -2.15691e-10)
(-6.45151e-08 5.97579e-09 -5.55049e-20 6.38328e-08 -7.18554e-21 6.82327e-10)
(-6.01733e-08 -3.46007e-09 -8.79573e-20 6.20505e-08 -1.05058e-20 -1.87716e-09)
(-4.51507e-08 -1.28832e-08 -0 4.0506e-08 1.92807e-22 4.64472e-09)
(-5.56426e-08 -2.32204e-08 -5.13268e-21 6.62257e-08 -3.35692e-22 -1.05832e-08)
(-1.67059e-08 -1.26556e-09 1.7651e-19 -5.8431e-09 2.20193e-20 2.2549e-08)
(-1.07361e-07 2.29361e-08 8.83909e-20 1.5211e-07 1.04039e-20 -4.47498e-08)
(2.61044e-08 9.28853e-08 5.80308e-21 -1.02192e-07 5.75272e-22 7.60875e-08)
(-2.02257e-07 8.28746e-08 -2.26549e-20 3.09447e-07 -2.5536e-21 -1.0719e-07)
(-1.97619e-07 -1.17444e-08 -5.87737e-21 1.97603e-07 -9.8857e-22 1.64784e-11)
(-1.89377e-07 -6.59107e-09 -3.17895e-20 1.89362e-07 -3.8595e-21 1.57811e-11)
(-1.8104e-07 -1.81955e-09 -5.67369e-20 1.81026e-07 -5.88671e-21 1.39263e-11)
(-1.72673e-07 2.64847e-09 2.00723e-20 1.72662e-07 2.58901e-21 1.14896e-11)
(-1.64307e-07 6.75696e-09 -5.17871e-21 1.64296e-07 -5.54426e-22 1.09818e-11)
(-1.55936e-07 1.0295e-08 2.5926e-20 1.55927e-07 3.36838e-21 9.58244e-12)
(-1.47531e-07 1.30081e-08 6.69688e-20 1.47522e-07 7.44879e-21 8.88333e-12)
(-1.39085e-07 1.47119e-08 3.69895e-22 1.39078e-07 -1.10757e-22 7.00674e-12)
(-1.30636e-07 1.5419e-08 3.95596e-20 1.3063e-07 4.51231e-21 6.21859e-12)
(-1.22267e-07 1.53278e-08 -3.62568e-21 1.22255e-07 -5.81183e-22 1.18923e-11)
(-1.14137e-07 1.47362e-08 3.47312e-21 1.14156e-07 5.5297e-22 -1.86274e-11)
(-1.06202e-07 1.38981e-08 3.57177e-20 1.06151e-07 4.0901e-21 5.09339e-11)
(-9.8678e-08 1.2815e-08 -1.23871e-20 9.87023e-08 -1.61424e-21 -2.43172e-11)
(-9.22855e-08 1.11413e-08 -6.22959e-21 9.23072e-08 -6.80366e-22 -2.16735e-11)
(-8.70545e-08 1.0091e-08 2.06778e-22 8.7009e-08 7.07918e-23 4.55586e-11)
(-8.19979e-08 9.51956e-09 -1.23404e-22 8.20241e-08 -1.00267e-23 -2.62144e-11)
(-7.67966e-08 8.59481e-09 -3.61363e-22 7.67404e-08 -2.12766e-22 5.61347e-11)
(-7.1802e-08 6.48371e-09 -4.6652e-20 7.19985e-08 -5.43966e-21 -1.96499e-10)
(-6.51865e-08 2.06363e-09 5.27881e-20 6.45505e-08 6.50068e-21 6.35999e-10)
(-6.07329e-08 -7.39372e-09 -3.52097e-22 6.25081e-08 -2.00892e-22 -1.77522e-09)
(-4.64123e-08 -1.61232e-08 -0 4.19563e-08 1.18738e-23 4.45598e-09)
(-5.61762e-08 -2.58492e-08 4.87303e-21 6.64716e-08 2.97878e-22 -1.02954e-08)
(-1.99716e-08 -5.24184e-10 -1.79913e-19 -2.29339e-09 -2.22409e-20 2.2265e-08)
(-1.07838e-07 2.2957e-08 2.96336e-22 1.52687e-07 3.10587e-22 -4.48494e-08)
(2.20884e-08 9.5006e-08 -1.65046e-20 -9.91426e-08 -2.13016e-21 7.70542e-08)
(-2.00773e-07 7.73602e-08 -1.23945e-22 3.09976e-07 -9.04914e-24 -1.09203e-07)
(-2.38659e-07 -1.19239e-07 5.64066e-21 2.38643e-07 5.41144e-23 1.54395e-11)
(-2.36365e-07 -1.09915e-07 -3.55212e-20 2.36349e-07 -3.72039e-21 1.54049e-11)
(-2.3366e-07 -1.00591e-07 -7.10758e-22 2.3364e-07 7.93987e-22 1.98705e-11)
(-2.30553e-07 -9.12761e-08 3.22536e-20 2.30531e-07 2.91471e-21 2.24583e-11)
(-2.27048e-07 -8.20286e-08 -3.44355e-20 2.27027e-07 -3.90409e-21 2.05938e-11)
(-2.23138e-07 -7.29143e-08 6.28461e-21 2.23117e-07 1.10247e-21 2.10683e-11)
(-2.18826e-07 -6.40114e-08 2.43389e-21 2.18805e-07 1.2206e-22 2.08792e-11)
(-2.14105e-07 -5.54418e-08 -5.8399e-21 2.14083e-07 -2.26825e-22 2.10368e-11)
(-2.08972e-07 -4.73279e-08 4.07998e-20 2.08954e-07 4.96912e-21 1.8765e-11)
(-2.03425e-07 -3.97843e-08 5.73576e-20 2.03407e-07 5.78445e-21 1.78754e-11)
(-1.97474e-07 -3.28928e-08 4.26677e-21 1.97458e-07 6.19227e-23 1.65513e-11)
(-1.91152e-07 -2.66551e-08 1.50799e-20 1.91135e-07 1.45792e-21 1.67413e-11)
(-1.84519e-07 -2.09952e-08 -1.62609e-20 1.84505e-07 -1.89733e-21 1.39312e-11)
(-1.77646e-07 -1.57736e-08 -1.80492e-22 1.77633e-07 7.56561e-22 1.25879e-11)
(-1.70615e-07 -1.08449e-08 8.55386e-20 1.70603e-07 9.41529e-21 1.16755e-11)
(-1.63487e-07 -6.15903e-09 1.17372e-22 1.63477e-07 -9.29625e-22 9.58283e-12)
(-1.56281e-07 -1.80697e-09 -4.86888e-20 1.56271e-07 -5.51452e-21 9.14807e-12)
(-1.48986e-07 1.98685e-09 -9.94748e-21 1.48978e-07 -1.07787e-21 7.85699e-12)
(-1.41574e-07 4.96398e-09 -4.57589e-20 1.41567e-07 -5.16973e-21 6.96399e-12)
(-1.34045e-07 6.96419e-09 -1.07598e-20 1.3404e-07 -9.66617e-22 5.36647e-12)
(-1.26443e-07 8.01201e-09 3.67046e-22 1.26438e-07 -1.38491e-22 5.25202e-12)
(-1.18857e-07 8.31918e-09 -5.64116e-20 1.18847e-07 -6.49648e-21 1.05837e-11)
(-1.11446e-07 8.17056e-09 -3.71464e-21 1.11465e-07 -2.30676e-22 -1.94536e-11)
(-1.04154e-07 7.78079e-09 -1.37224e-20 1.04103e-07 -1.58693e-21 5.05881e-11)
(-9.71948e-08 7.10741e-09 -1.02882e-22 9.72208e-08 6.17466e-23 -2.60807e-11)
(-9.12523e-08 5.85549e-09 5.93133e-21 9.12722e-08 4.77348e-22 -1.98975e-11)
(-8.63922e-08 5.21711e-09 -4.81108e-20 8.63481e-08 -5.5395e-21 4.41045e-11)
(-8.16746e-08 5.00724e-09 4.37365e-20 8.16996e-08 5.53696e-21 -2.50057e-11)
(-7.67943e-08 4.38997e-09 4.02291e-20 7.67459e-08 4.88376e-21 4.83467e-11)
(-7.20276e-08 2.47803e-09 7.31881e-20 7.22033e-08 8.40801e-21 -1.75692e-10)
(-6.56753e-08 -1.88528e-09 -8.51281e-20 6.50939e-08 -1.04677e-20 5.81419e-10)
(-6.11215e-08 -1.13402e-08 -1.45575e-22 6.27776e-08 1.90962e-22 -1.6561e-09)
(-4.75469e-08 -1.94295e-08 -0 4.33172e-08 -7.14324e-24 4.22964e-09)
(-5.66177e-08 -2.82731e-08 -4.59673e-21 6.65588e-08 -4.69938e-22 -9.94112e-09)
(-2.31459e-08 2.14651e-10 4.59479e-20 1.26544e-09 5.66568e-21 2.18804e-08)
(-1.08355e-07 2.32151e-08 1.97308e-20 1.53184e-07 2.31427e-21 -4.48287e-08)
(1.84952e-08 9.68873e-08 -1.93441e-20 -9.63816e-08 -2.52915e-21 7.78864e-08)
(-1.99587e-07 7.08712e-08 4.98168e-24 3.10654e-07 1.71646e-23 -1.11068e-07)
(-1.91185e-07 -1.45517e-07 3.73848e-21 2.25552e-07 4.94732e-22 -3.4367e-08)
(-1.78561e-07 -2.02437e-07 4.17958e-21 1.76656e-07 2.63962e-22 1.90418e-09)
(-1.5811e-07 -1.87959e-07 -2.21836e-22 1.43788e-07 -1.03844e-22 1.43216e-08)
(-1.66328e-07 -1.87756e-07 8.90578e-22 1.69725e-07 1.21959e-22 -3.39763e-09)
(-1.60421e-07 -1.95023e-07 1.12529e-21 1.59147e-07 9.73508e-23 1.27339e-09)
(-1.63105e-07 -2.05112e-07 5.02497e-22 1.63618e-07 1.97789e-23 -5.13041e-10)
(-1.62473e-07 -2.12957e-07 2.64387e-22 1.6236e-07 -8.8761e-23 1.12818e-10)
(-1.62587e-07 -2.19862e-07 -3.9572e-21 1.62734e-07 -4.17676e-22 -1.47346e-10)
(-1.62428e-07 -2.2613e-07 -1.55847e-21 1.62432e-07 4.22131e-23 -4.43431e-12)
(-1.62638e-07 -2.31666e-07 3.52413e-21 1.62708e-07 3.73882e-22 -6.9846e-11)
(-1.62961e-07 -2.3664e-07 -0 1.63005e-07 -9.93833e-23 -4.34959e-11)
(-1.63531e-07 -2.40907e-07 -1.87262e-22 1.63615e-07 1.6371e-22 -8.4306e-11)
(-1.64198e-07 -2.44507e-07 7.12523e-21 1.64248e-07 6.97524e-22 -5.02781e-11)
(-1.6504e-07 -2.47393e-07 2.13879e-22 1.65058e-07 3.1076e-23 -1.77092e-11)
(-1.66152e-07 -2.49605e-07 7.3114e-21 1.66234e-07 7.10595e-22 -8.24445e-11)
(-1.67333e-07 -2.51167e-07 4.43955e-22 1.67385e-07 -8.94902e-23 -5.2044e-11)
(-1.68704e-07 -2.52042e-07 1.43053e-21 1.68757e-07 2.39631e-22 -5.28143e-11)
(-1.70217e-07 -2.52291e-07 5.27117e-21 1.70261e-07 5.24494e-22 -4.41383e-11)
(-1.71884e-07 -2.51911e-07 2.54783e-21 1.71934e-07 2.83454e-22 -4.97533e-11)
(-1.73679e-07 -2.50956e-07 6.83542e-21 1.73732e-07 4.64506e-22 -5.2934e-11)
(-1.7559e-07 -2.49429e-07 -6.05053e-21 1.75646e-07 -9.18677e-22 -5.55348e-11)
(-1.77584e-07 -2.47384e-07 -8.69737e-21 1.77622e-07 -6.41203e-22 -3.80605e-11)
(-1.79693e-07 -2.44822e-07 2.90933e-21 1.7974e-07 4.17954e-22 -4.75213e-11)
(-1.81864e-07 -2.41805e-07 -2.08088e-21 1.81913e-07 -3.88739e-22 -4.8232e-11)
(-1.84089e-07 -2.38346e-07 -5.93545e-21 1.84137e-07 -6.47936e-22 -4.75564e-11)
(-1.86344e-07 -2.34477e-07 -5.06315e-21 1.86383e-07 -1.7039e-22 -3.91194e-11)
(-1.8863e-07 -2.30215e-07 1.00809e-20 1.88675e-07 1.01382e-21 -4.44286e-11)
(-1.90909e-07 -2.25615e-07 -3.4047e-21 1.90954e-07 -4.98097e-22 -4.51304e-11)
(-1.93161e-07 -2.20671e-07 1.27347e-21 1.93201e-07 1.03854e-22 -4.0547e-11)
(-1.95378e-07 -2.15419e-07 -4.41361e-21 1.95423e-07 -3.23238e-22 -4.47061e-11)
(-1.97528e-07 -2.0987e-07 6.97929e-21 1.97572e-07 8.40856e-22 -4.47e-11)
(-1.99591e-07 -2.04046e-07 4.26569e-21 1.99637e-07 3.80465e-22 -4.51833e-11)
(-2.01544e-07 -1.97971e-07 5.01053e-21 2.01589e-07 6.34813e-22 -4.51454e-11)
(-2.03367e-07 -1.91643e-07 1.23051e-20 2.03413e-07 9.77674e-22 -4.58807e-11)
(-2.05031e-07 -1.85099e-07 -9.38773e-21 2.05075e-07 -1.22736e-21 -4.40991e-11)
(-2.0652e-07 -1.78336e-07 -5.19263e-21 2.06567e-07 -3.65658e-22 -4.62932e-11)
(-2.07798e-07 -1.71379e-07 4.39471e-22 2.07838e-07 3.45359e-23 -3.95253e-11)
(-2.08861e-07 -1.64236e-07 -6.02464e-21 2.08904e-07 -6.44551e-22 -4.33666e-11)
(-2.09663e-07 -1.56924e-07 -2.39743e-21 2.09696e-07 -3.04152e-22 -3.3736e-11)
(-2.10199e-07 -1.49443e-07 -9.55318e-21 2.10226e-07 -8.75245e-22 -2.69248e-11)
(-2.10452e-07 -1.41819e-07 3.30857e-21 2.10478e-07 5.43282e-22 -2.63503e-11)
(-2.10394e-07 -1.34043e-07 4.21076e-21 2.10415e-07 2.35373e-22 -2.0966e-11)
(-2.10011e-07 -1.26144e-07 -1.07206e-20 2.10022e-07 -1.04321e-21 -1.15891e-11)
(-2.09298e-07 -1.18122e-07 8.48933e-21 2.09302e-07 1.03297e-21 -4.37344e-12)
(-2.08244e-07 -1.09992e-07 -2.81501e-22 2.08249e-07 -1.71753e-22 -4.98586e-12)
(-2.0683e-07 -1.0176e-07 -7.03627e-27 2.06829e-07 -4.27667e-23 8.23157e-13)
(-2.05054e-07 -9.34628e-08 1.72885e-22 2.05048e-07 1.53813e-22 5.65898e-12)
(-2.02912e-07 -8.51473e-08 8.56521e-21 2.02907e-07 5.64304e-22 5.4676e-12)
(-2.00386e-07 -7.68773e-08 -2.96115e-20 2.00378e-07 -3.21413e-21 8.6039e-12)
(-1.97468e-07 -6.87457e-08 1.22226e-23 1.97456e-07 3.05829e-22 1.15616e-11)
(-1.94146e-07 -6.08659e-08 7.23616e-23 1.94135e-07 -1.09819e-22 1.042e-11)
(-1.90401e-07 -5.33689e-08 -1.13226e-20 1.9039e-07 -1.19969e-21 1.08859e-11)
(-1.86229e-07 -4.63528e-08 4.26581e-22 1.86217e-07 1.85478e-22 1.18136e-11)
(-1.81636e-07 -3.98941e-08 -1.33332e-21 1.81625e-07 -1.24761e-22 1.01834e-11)
(-1.76647e-07 -3.39831e-08 4.38139e-23 1.76636e-07 -2.48263e-23 1.07162e-11)
(-1.7132e-07 -2.85338e-08 -6.31252e-21 1.71311e-07 -6.87272e-22 9.33593e-12)
(-1.65723e-07 -2.34077e-08 5.34186e-23 1.65714e-07 -2.29554e-22 9.27995e-12)
(-1.59927e-07 -1.84842e-08 -3.65288e-20 1.59918e-07 -4.00506e-21 8.84178e-12)
(-1.5398e-07 -1.37407e-08 9.18266e-24 1.53972e-07 5.45039e-22 7.52144e-12)
(-1.47892e-07 -9.29768e-09 4.09527e-20 1.47885e-07 4.55679e-21 7.33077e-12)
(-1.41646e-07 -5.39342e-09 -4.7026e-23 1.4164e-07 -1.6389e-23 6.22995e-12)
(-1.35212e-07 -2.28252e-09 4.37266e-20 1.35207e-07 4.91591e-21 5.76268e-12)
(-1.28596e-07 -1.05966e-10 -2.66438e-21 1.28592e-07 -7.38869e-22 4.52015e-12)
(-1.21847e-07 1.17962e-09 -3.6344e-20 1.21843e-07 -4.12738e-21 4.56627e-12)
(-1.15059e-07 1.79265e-09 -5.2127e-22 1.1505e-07 1.02803e-22 9.30192e-12)
(-1.08384e-07 2.00314e-09 -4.2385e-23 1.08404e-07 3.73729e-23 -1.9383e-11)
(-1.01759e-07 1.98176e-09 1.32717e-20 1.01709e-07 1.57906e-21 5.04115e-11)
(-9.53931e-08 1.65596e-09 1.13609e-20 9.54203e-08 1.27047e-21 -2.71748e-11)
(-8.993e-08 7.83938e-10 1.1024e-22 8.99476e-08 -2.36187e-23 -1.7692e-11)
(-8.5464e-08 5.23062e-10 -3.34288e-22 8.54208e-08 -5.14348e-23 4.316e-11)
(-8.11092e-08 6.35009e-10 2.18301e-22 8.11324e-08 -1.06925e-22 -2.32256e-11)
(-7.65731e-08 2.80684e-10 -3.81606e-20 7.65326e-08 -4.73343e-21 4.05634e-11)
(-7.20503e-08 -1.4809e-09 -5.90185e-20 7.22026e-08 -6.69472e-21 -1.52302e-10)
(-6.59801e-08 -5.85199e-09 8.40396e-20 6.5459e-08 1.03457e-20 5.21124e-10)
(-6.13401e-08 -1.52856e-08 4.04704e-20 6.28614e-08 4.66086e-21 -1.52134e-09)
(-4.85543e-08 -2.27783e-08 -0 4.45842e-08 -1.16472e-22 3.97006e-09)
(-5.69753e-08 -3.04782e-08 -1.33598e-20 6.64957e-08 -1.42183e-21 -9.52035e-09)
(-2.62262e-08 9.905e-10 1.19113e-19 4.8376e-09 1.45686e-20 2.13886e-08)
(-1.08923e-07 2.36518e-08 -9.16344e-20 1.53561e-07 -1.12715e-20 -4.46388e-08)
(1.53419e-08 9.85982e-08 4.82944e-21 -9.38773e-08 7.7353e-22 7.85354e-08)
(-1.98794e-07 6.34113e-08 4.8807e-24 3.11505e-07 -4.34113e-24 -1.12711e-07)
(-1.84382e-07 -1.69133e-07 -3.0242e-22 2.18041e-07 -1.99508e-23 -3.36589e-08)
(-1.36173e-07 -1.71539e-07 4.86565e-22 1.34309e-07 4.49057e-23 1.86392e-09)
(-1.22674e-07 -1.63667e-07 -5.60386e-22 1.11746e-07 -6.86366e-23 1.09286e-08)
(-1.35193e-07 -1.72179e-07 -2.04887e-22 1.37818e-07 -7.40347e-24 -2.62521e-09)
(-1.32125e-07 -1.79834e-07 1.55296e-24 1.31131e-07 6.41648e-24 9.94602e-10)
(-1.33462e-07 -1.86502e-07 4.45933e-25 1.33855e-07 -9.36122e-23 -3.93394e-10)
(-1.32722e-07 -1.92154e-07 -4.00034e-21 1.32615e-07 -3.45059e-22 1.06857e-10)
(-1.32844e-07 -1.97425e-07 1.61506e-21 1.32935e-07 2.49794e-22 -9.03465e-11)
(-1.32844e-07 -2.02228e-07 1.55433e-22 1.32863e-07 -8.52947e-23 -1.88858e-11)
(-1.33094e-07 -2.06547e-07 -2.55988e-21 1.33138e-07 -2.51672e-22 -4.31448e-11)
(-1.33465e-07 -2.10372e-07 -0 1.33499e-07 -5.43053e-23 -3.34207e-11)
(-1.33998e-07 -2.1366e-07 -4.87559e-21 1.34039e-07 -5.23457e-22 -4.09241e-11)
(-1.34665e-07 -2.16422e-07 -1.98353e-21 1.34699e-07 -8.11953e-23 -3.44014e-11)
(-1.35474e-07 -2.18656e-07 4.11873e-25 1.35497e-07 -6.27701e-23 -2.23385e-11)
(-1.36478e-07 -2.20363e-07 -4.99175e-21 1.36537e-07 -3.83508e-22 -5.88779e-11)
(-1.3756e-07 -2.21555e-07 4.54651e-21 1.3759e-07 6.51532e-22 -3.04177e-11)
(-1.38803e-07 -2.22225e-07 4.90038e-21 1.38828e-07 3.03853e-22 -2.51307e-11)
(-1.40206e-07 -2.22404e-07 -3.72667e-21 1.40252e-07 -5.21208e-22 -4.61205e-11)
(-1.41701e-07 -2.22119e-07 -3.02858e-21 1.41735e-07 -2.55754e-22 -3.38719e-11)
(-1.43329e-07 -2.21364e-07 -1.52502e-21 1.43364e-07 -9.43114e-23 -3.49316e-11)
(-1.45067e-07 -2.20182e-07 -8.50354e-22 1.45105e-07 9.88873e-23 -3.81277e-11)
(-1.46902e-07 -2.18584e-07 7.56506e-21 1.46939e-07 7.48047e-22 -3.73895e-11)
(-1.48817e-07 -2.16608e-07 5.2169e-24 1.48845e-07 -7.9078e-23 -2.82941e-11)
(-1.50829e-07 -2.14253e-07 3.28231e-21 1.50867e-07 3.96307e-22 -3.8457e-11)
(-1.52887e-07 -2.11565e-07 3.80961e-21 1.52917e-07 3.15006e-22 -2.96494e-11)
(-1.55007e-07 -2.08545e-07 4.84524e-22 1.55036e-07 -9.09747e-23 -2.91707e-11)
(-1.57167e-07 -2.05235e-07 -3.05513e-21 1.572e-07 -3.27324e-22 -3.24295e-11)
(-1.59343e-07 -2.01636e-07 -1.63048e-21 1.5937e-07 -1.05454e-22 -2.68769e-11)
(-1.61529e-07 -1.97771e-07 4.13068e-24 1.61552e-07 4.37412e-23 -2.30059e-11)
(-1.63713e-07 -1.93652e-07 8.90244e-22 1.63736e-07 8.00743e-23 -2.3876e-11)
(-1.65869e-07 -1.89289e-07 2.3361e-23 1.65889e-07 8.36538e-23 -2.04638e-11)
(-1.67987e-07 -1.84699e-07 6.11168e-21 1.68007e-07 6.15048e-22 -2.06809e-11)
(-1.70037e-07 -1.79893e-07 1.02691e-23 1.7005e-07 -9.43208e-23 -1.32786e-11)
(-1.7202e-07 -1.74868e-07 4.48556e-23 1.72035e-07 1.92751e-22 -1.55167e-11)
(-1.739e-07 -1.69649e-07 1.05316e-20 1.73913e-07 1.10573e-21 -1.33682e-11)
(-1.75661e-07 -1.64228e-07 3.20561e-21 1.75671e-07 6.9656e-23 -1.02143e-11)
(-1.77286e-07 -1.58624e-07 -5.85582e-21 1.77294e-07 -5.79861e-22 -8.56121e-12)
(-1.78755e-07 -1.52834e-07 3.79147e-21 1.78765e-07 4.61352e-22 -9.99994e-12)
(-1.80044e-07 -1.46862e-07 -1.12559e-23 1.80053e-07 -1.21473e-22 -8.87644e-12)
(-1.81131e-07 -1.40719e-07 -4.51025e-21 1.81135e-07 -5.19836e-22 -4.08756e-12)
(-1.82007e-07 -1.34397e-07 -3.99671e-21 1.8201e-07 -3.02846e-22 -3.74681e-12)
(-1.8265e-07 -1.27907e-07 3.60397e-21 1.82657e-07 5.0461e-22 -6.85404e-12)
(-1.8303e-07 -1.21249e-07 5.78826e-21 1.83032e-07 5.7096e-22 -1.8657e-12)
(-1.83146e-07 -1.14415e-07 3.08214e-21 1.83145e-07 5.57835e-22 1.39434e-12)
(-1.82988e-07 -1.07431e-07 2.46054e-20 1.82987e-07 2.50647e-21 1.23745e-12)
(-1.82531e-07 -1.00287e-07 2.81786e-24 1.82525e-07 -3.09526e-22 5.80382e-12)
(-1.81767e-07 -9.30256e-08 1.75854e-23 1.8176e-07 -7.04163e-23 7.10299e-12)
(-1.80679e-07 -8.56858e-08 -8.47452e-21 1.80671e-07 -6.67213e-22 8.46643e-12)
(-1.79248e-07 -7.83318e-08 1.85609e-20 1.79237e-07 2.01933e-21 1.10083e-11)
(-1.77455e-07 -7.10622e-08 3.14215e-22 1.77442e-07 -3.8391e-22 1.30014e-11)
(-1.75278e-07 -6.39842e-08 -2.25362e-20 1.75266e-07 -2.39997e-21 1.24422e-11)
(-1.72694e-07 -5.72184e-08 8.32972e-23 1.72681e-07 -3.42157e-23 1.36236e-11)
(-1.6969e-07 -5.08619e-08 -2.61145e-20 1.69675e-07 -2.78264e-21 1.53125e-11)
(-1.66272e-07 -4.49702e-08 1.28339e-21 1.66259e-07 4.39632e-22 1.34831e-11)
(-1.62459e-07 -3.95186e-08 8.52896e-21 1.62444e-07 8.88311e-22 1.41039e-11)
(-1.58303e-07 -3.44121e-08 -5.01586e-21 1.58289e-07 -7.18142e-22 1.31706e-11)
(-1.53863e-07 -2.95203e-08 -1.44635e-20 1.5385e-07 -1.56078e-21 1.36538e-11)
(-1.49203e-07 -2.47389e-08 -3.20241e-22 1.4919e-07 3.4598e-23 1.24553e-11)
(-1.44355e-07 -2.00775e-08 8.58329e-24 1.44345e-07 -5.98061e-24 1.07456e-11)
(-1.39318e-07 -1.56821e-08 3.32851e-22 1.39307e-07 6.15089e-23 1.10103e-11)
(-1.34068e-07 -1.18011e-08 -3.16974e-23 1.34058e-07 -2.44589e-22 9.77344e-12)
(-1.28576e-07 -8.68112e-09 -4.15143e-20 1.28567e-07 -4.59886e-21 8.90004e-12)
(-1.2285e-07 -6.44225e-09 1.47773e-20 1.22842e-07 2.08946e-21 7.19806e-12)
(-1.16941e-07 -5.01847e-09 3.45141e-20 1.16934e-07 4.12841e-21 7.46358e-12)
(-1.10948e-07 -4.19207e-09 5.13539e-20 1.10937e-07 5.75036e-21 1.11741e-11)
(-1.05016e-07 -3.70727e-09 -1.1704e-22 1.05033e-07 -3.86372e-22 -1.70792e-11)
(-9.90662e-08 -3.44134e-09 -3.08734e-20 9.9014e-08 -3.63388e-21 5.21988e-11)
(-9.33113e-08 -3.48472e-09 -1.07675e-20 9.33379e-08 -1.20976e-21 -2.66182e-11)
(-8.83481e-08 -4.02208e-09 -1.99262e-20 8.83621e-08 -2.1358e-21 -1.40078e-11)
(-8.42928e-08 -3.94358e-09 3.10892e-20 8.4249e-08 3.72377e-21 4.37968e-11)
(-8.03193e-08 -3.55452e-09 -9.68153e-21 8.03398e-08 -1.14475e-21 -2.04396e-11)
(-7.61445e-08 -3.69942e-09 3.72499e-20 7.61113e-08 4.79457e-21 3.31345e-11)
(-7.18781e-08 -5.36584e-09 1.01951e-19 7.20055e-08 1.21847e-20 -1.27422e-10)
(-6.61016e-08 -9.81543e-09 4.64686e-20 6.56445e-08 5.2892e-21 4.57115e-10)
(-6.13918e-08 -1.9211e-08 1.64708e-22 6.27657e-08 -9.17793e-23 -1.3739e-09)
(-4.94349e-08 -2.61362e-08 -0 4.5759e-08 3.3151e-23 3.67589e-09)
(-5.72639e-08 -3.24554e-08 1.26427e-20 6.62905e-08 1.53436e-21 -9.0266e-09)
(-2.92137e-08 1.86034e-09 4.0902e-22 8.46269e-09 1.92917e-22 2.0751e-08)
(-1.09664e-07 2.41754e-08 8.69497e-20 1.53915e-07 1.05599e-20 -4.42518e-08)
(1.27314e-08 1.00237e-07 4.94237e-20 -9.16078e-08 6.25415e-21 7.88764e-08)
(-1.987e-07 5.49531e-08 4.85477e-24 3.12676e-07 -4.41627e-23 -1.13976e-07)
(-1.37401e-07 -1.40529e-07 1.24084e-21 1.62975e-07 1.45134e-22 -2.55732e-08)
(-1.08094e-07 -1.53414e-07 1.32177e-21 1.06317e-07 1.08504e-22 1.77654e-09)
(-1.00695e-07 -1.51878e-07 -6.8665e-23 9.18832e-08 -5.31451e-23 8.81127e-09)
(-1.11781e-07 -1.59694e-07 -1.02991e-21 1.13928e-07 -9.93813e-23 -2.14681e-09)
(-1.08797e-07 -1.64486e-07 1.2214e-22 1.08043e-07 4.18849e-23 7.54199e-10)
(-1.0966e-07 -1.69059e-07 4.12195e-22 1.10008e-07 4.43379e-23 -3.48329e-10)
(-1.09206e-07 -1.73273e-07 -5.32546e-24 1.09196e-07 -1.10843e-23 9.8046e-12)
(-1.09346e-07 -1.77225e-07 1.51126e-24 1.09436e-07 -2.94723e-24 -9.08249e-11)
(-1.09502e-07 -1.80789e-07 -5.43467e-25 1.09592e-07 7.33759e-25 -8.94884e-11)
(-1.09775e-07 -1.84024e-07 -5.26349e-24 1.09858e-07 -3.36607e-24 -8.29008e-11)
(-1.10139e-07 -1.86841e-07 -0 1.10185e-07 2.55726e-24 -4.57442e-11)
(-1.10706e-07 -1.89265e-07 -8.38964e-24 1.10796e-07 -8.27412e-24 -9.03518e-11)
(-1.1134e-07 -1.91305e-07 5.33225e-25 1.11419e-07 -1.69698e-24 -7.8925e-11)
(-1.12107e-07 -1.9293e-07 1.42302e-24 1.12184e-07 2.91627e-23 -7.66283e-11)
(-1.12998e-07 -1.94164e-07 1.16068e-21 1.13073e-07 8.9515e-23 -7.52285e-11)
(-1.14017e-07 -1.94989e-07 -9.6695e-22 1.141e-07 -1.22071e-22 -8.23142e-11)
(-1.15118e-07 -1.95447e-07 9.50039e-24 1.1517e-07 2.99761e-23 -5.27505e-11)
(-1.16407e-07 -1.95501e-07 -1.02599e-23 1.16504e-07 5.88795e-24 -9.70992e-11)
(-1.17738e-07 -1.95233e-07 -9.26982e-24 1.17814e-07 1.64864e-23 -7.59065e-11)
(-1.19187e-07 -1.94584e-07 1.46751e-21 1.19253e-07 1.65839e-22 -6.63133e-11)
(-1.20746e-07 -1.93622e-07 7.92042e-22 1.20816e-07 4.61297e-23 -7.01629e-11)
(-1.22406e-07 -1.92335e-07 2.4985e-23 1.22488e-07 -9.14661e-24 -8.25255e-11)
(-1.24133e-07 -1.90765e-07 -8.37128e-25 1.24212e-07 3.44909e-24 -7.8864e-11)
(-1.25923e-07 -1.88905e-07 9.38791e-24 1.25985e-07 2.28384e-24 -6.19376e-11)
(-1.27811e-07 -1.86775e-07 6.89597e-24 1.27886e-07 -7.51139e-23 -7.50454e-11)
(-1.29741e-07 -1.84414e-07 -4.66963e-21 1.29814e-07 -4.62083e-22 -7.36896e-11)
(-1.31717e-07 -1.81809e-07 5.89213e-22 1.31788e-07 1.38473e-22 -7.07039e-11)
(-1.3373e-07 -1.78987e-07 -6.41564e-24 1.33797e-07 -1.29514e-23 -6.6628e-11)
(-1.35773e-07 -1.75953e-07 -6.22072e-23 1.3584e-07 -2.18872e-23 -6.65993e-11)
(-1.37831e-07 -1.72719e-07 -8.6108e-22 1.37897e-07 -9.13895e-23 -6.55444e-11)
(-1.3989e-07 -1.69292e-07 3.00444e-24 1.39953e-07 1.86334e-24 -6.31764e-11)
(-1.41941e-07 -1.65682e-07 2.30857e-23 1.42005e-07 6.25394e-23 -6.39795e-11)
(-1.43958e-07 -1.61895e-07 3.39421e-21 1.44014e-07 3.49577e-22 -5.57277e-11)
(-1.45943e-07 -1.57927e-07 5.52574e-24 1.45998e-07 -3.74359e-23 -5.44361e-11)
(-1.47876e-07 -1.5379e-07 3.06563e-23 1.47931e-07 -2.81562e-23 -5.51033e-11)
(-1.49731e-07 -1.49487e-07 -3.059e-21 1.49781e-07 -2.26859e-22 -4.98466e-11)
(-1.51501e-07 -1.45014e-07 5.55998e-21 1.51547e-07 5.55725e-22 -4.60035e-11)
(-1.53168e-07 -1.40372e-07 -3.62842e-21 1.53212e-07 -4.46e-22 -4.33969e-11)
(-1.54716e-07 -1.35556e-07 -2.23854e-24 1.54759e-07 9.9362e-23 -4.2846e-11)
(-1.5612e-07 -1.30569e-07 4.2591e-21 1.56156e-07 4.81082e-22 -3.61095e-11)
(-1.57373e-07 -1.25401e-07 3.78787e-21 1.57408e-07 3.28503e-22 -3.45882e-11)
(-1.58455e-07 -1.20058e-07 2.33633e-23 1.58489e-07 -3.69817e-23 -3.42791e-11)
(-1.59341e-07 -1.14518e-07 1.7185e-23 1.59369e-07 -3.75352e-23 -2.76376e-11)
(-1.60031e-07 -1.08786e-07 -2.82929e-21 1.6006e-07 -4.27284e-22 -2.83128e-11)
(-1.605e-07 -1.02871e-07 -1.24997e-20 1.60525e-07 -1.259e-21 -2.55534e-11)
(-1.6073e-07 -9.67649e-08 2.47838e-24 1.60751e-07 1.19322e-22 -2.01424e-11)
(-1.60713e-07 -9.05104e-08 1.55263e-23 1.60733e-07 2.62296e-23 -2.02865e-11)
(-1.60421e-07 -8.41375e-08 -7.29814e-23 1.60439e-07 -5.25572e-23 -1.78234e-11)
(-1.59832e-07 -7.77203e-08 -4.7022e-21 1.59847e-07 -5.10675e-22 -1.51568e-11)
(-1.58921e-07 -7.13456e-08 -2.95486e-22 1.58935e-07 2.40461e-23 -1.36714e-11)
(-1.57659e-07 -6.51235e-08 -1.73672e-22 1.5767e-07 5.24014e-23 -1.10994e-11)
(-1.5602e-07 -5.9158e-08 1.03512e-20 1.56029e-07 1.07024e-21 -9.15817e-12)
(-1.53988e-07 -5.3541e-08 -3.95609e-21 1.53996e-07 -5.16748e-22 -7.69279e-12)
(-1.51562e-07 -4.83054e-08 -1.47007e-23 1.51569e-07 -4.13377e-23 -7.14126e-12)
(-1.4876e-07 -4.34029e-08 -8.06256e-21 1.48764e-07 -7.84911e-22 -4.35434e-12)
(-1.45629e-07 -3.87406e-08 1.02949e-20 1.45634e-07 1.2909e-21 -4.25614e-12)
(-1.42223e-07 -3.41877e-08 1.36234e-20 1.42226e-07 1.65473e-21 -3.0909e-12)
(-1.38586e-07 -2.96601e-08 3.70726e-20 1.38588e-07 3.99668e-21 -1.9902e-12)
(-1.34741e-07 -2.51993e-08 -1.02836e-22 1.34743e-07 -4.59649e-22 -1.92995e-12)
(-1.30675e-07 -2.09735e-08 -3.30691e-20 1.30676e-07 -3.64808e-21 -6.17181e-13)
(-1.26356e-07 -1.72342e-08 8.77626e-21 1.26356e-07 1.18537e-21 -6.81687e-13)
(-1.21754e-07 -1.42184e-08 -3.46391e-22 1.21754e-07 -2.13559e-22 -4.51289e-13)
(-1.16879e-07 -1.20227e-08 -1.85524e-20 1.16878e-07 -2.33782e-21 5.34706e-13)
(-1.1179e-07 -1.05507e-08 -4.77604e-20 1.11789e-07 -5.53136e-21 6.57273e-13)
(-1.06579e-07 -9.6042e-09 -4.39645e-20 1.06574e-07 -4.71585e-21 4.72304e-12)
(-1.01382e-07 -8.9233e-09 2.42345e-20 1.01401e-07 2.97948e-21 -1.96135e-11)
(-9.61103e-08 -8.45437e-09 -1.97053e-21 9.60618e-08 -3.02302e-22 4.84596e-11)
(-9.09794e-08 -8.27851e-09 1.02392e-20 9.101e-08 1.17942e-21 -3.06304e-11)
(-8.653e-08 -8.52481e-09 -2.87234e-21 8.65432e-08 -3.75822e-22 -1.31535e-11)
(-8.28964e-08 -8.1505e-09 1.1541e-22 8.28533e-08 3.34296e-23 4.30999e-11)
(-7.9321e-08 -7.53459e-09 2.39514e-23 7.93413e-08 -1.48447e-22 -2.0381e-11)
(-7.55195e-08 -7.52707e-09 -4.23619e-20 7.54944e-08 -5.17066e-21 2.50786e-11)
(-7.15179e-08 -9.16076e-09 -4.01511e-20 7.16207e-08 -4.65286e-21 -1.028e-10)
(-6.6046e-08 -1.37604e-08 2.1987e-22 6.56559e-08 1.4695e-22 3.90139e-10)
(-6.12851e-08 -2.31077e-08 1.86539e-23 6.24998e-08 5.98215e-24 -1.21478e-09)
(-5.01992e-08 -2.94677e-08 -0 4.6848e-08 -1.75095e-23 3.35118e-09)
(-5.75061e-08 -3.42209e-08 -1.24318e-20 6.59497e-08 -1.53526e-21 -8.44359e-09)
(-3.21113e-08 2.94235e-09 1.56093e-22 1.21706e-08 -5.78393e-23 1.99407e-08)
(-1.10518e-07 2.46302e-08 -5.22387e-20 1.54069e-07 -6.3536e-21 -4.35505e-08)
(1.08451e-08 1.0202e-07 -4.69111e-20 -8.97252e-08 -5.95563e-21 7.88801e-08)
(-1.99184e-07 4.5701e-08 6.37106e-22 3.14122e-07 1.61178e-22 -1.14938e-07)
(-1.11995e-07 -1.2936e-07 -1.15929e-21 1.33053e-07 -1.17698e-22 -2.1059e-08)
(-8.93511e-08 -1.43116e-07 2.53526e-24 8.74481e-08 3.07772e-23 1.903e-09)
(-8.38109e-08 -1.41319e-07 -3.00585e-25 7.64872e-08 2.41202e-23 7.32369e-09)
(-9.26309e-08 -1.46614e-07 9.816e-22 9.42456e-08 9.32755e-23 -1.61467e-09)
(-9.0102e-08 -1.49662e-07 -1.15412e-22 8.93707e-08 -3.80435e-23 7.31342e-10)
(-9.09087e-08 -1.52974e-07 -3.91658e-22 9.10644e-08 -3.1432e-23 -1.55711e-10)
(-9.06626e-08 -1.56015e-07 -1.26221e-24 9.05364e-08 5.50958e-24 1.26136e-10)
(-9.08737e-08 -1.58843e-07 -8.59709e-26 9.08307e-08 4.42116e-24 4.29174e-11)
(-9.10689e-08 -1.61397e-07 3.94633e-22 9.09984e-08 8.30314e-23 7.05314e-11)
(-9.14033e-08 -1.63684e-07 2.38441e-21 9.13463e-08 2.30467e-22 5.69853e-11)
(-9.17963e-08 -1.65687e-07 -0 9.17133e-08 -1.57437e-23 8.30117e-11)
(-9.2339e-08 -1.67397e-07 1.28523e-21 9.2278e-08 9.09063e-23 6.09716e-11)
(-9.29576e-08 -1.68816e-07 -1.85504e-21 9.28926e-08 -2.35007e-22 6.50412e-11)
(-9.36742e-08 -1.69936e-07 -1.49024e-21 9.36015e-08 -7.60235e-23 7.27157e-11)
(-9.45048e-08 -1.70755e-07 2.3148e-21 9.44361e-08 2.70264e-22 6.87428e-11)
(-9.54404e-08 -1.71284e-07 9.28972e-22 9.53802e-08 5.20695e-23 6.01177e-11)
(-9.64422e-08 -1.71531e-07 1.97631e-24 9.63583e-08 4.95407e-23 8.39157e-11)
(-9.7589e-08 -1.71489e-07 3.39502e-21 9.75304e-08 3.93258e-22 5.86382e-11)
(-9.8799e-08 -1.71187e-07 2.7417e-21 9.87347e-08 1.91312e-22 6.43274e-11)