/*--------------------------------*- C++ -*----------------------------------*\
| =========                 |                                                 |
| \\      /  F ield         | OpenFOAM: The Open Source CFD Toolbox           |
|  \\    /   O peration     | Version:  2306                                  |
|   \\  /    A nd           | Website:  www.openfoam.com                      |
|    \\/     M anipulation  |                                                 |
\*---------------------------------------------------------------------------*/
FoamFile
{
    version     2.0;
    format      ascii;
    arch        "LSB;label=32;scalar=64";
    class       volVectorField;
    location    "275";
    object      U;
}
// * * * * * * * * * * * * * * * * * * * * * * * * * * * * * * * * * * * * * //

dimensions      [0 1 -1 0 0 0 0];

internalField   nonuniform List<vector> 
1340
(
(25.5597 3.32906 -1.26895e-16)
(25.6222 2.89324 1.57831e-16)
(25.5176 3.17143 -3.90047e-16)
(25.511 3.08342 -6.93629e-17)
(25.562 3.32742 2.02067e-17)
(25.6356 2.89586 -6.6456e-16)
(25.548 3.12267 0)
(25.5358 3.11842 -1.5266e-16)
(25.521 3.16836 3.87128e-16)
(25.5187 3.0828 2.29038e-16)
(25.5654 3.32552 3.59911e-19)
(25.6492 2.89842 5.76803e-16)
(25.5572 3.07658 -2.20883e-16)
(25.5597 3.09005 4.19181e-18)
(25.5596 3.10153 2.94166e-17)
(25.5539 3.11891 0)
(25.5413 3.11557 1.7234e-18)
(25.525 3.16525 -3.33681e-18)
(25.5267 3.08256 -1.71672e-18)
(25.5698 3.32342 5.00795e-19)
(25.6628 2.90098 -7.29483e-19)
(25.5511 3.00595 1.86416e-17)
(25.5553 3.02063 7.36545e-17)
(25.5584 3.03294 7.34655e-17)
(25.5614 3.04573 -2.49974e-16)
(25.5642 3.05872 6.18529e-17)
(25.5667 3.07197 -8.74754e-17)
(25.5683 3.08577 -1.88884e-18)
(25.5674 3.0977 2.1128e-16)
(25.5604 3.11529 0)
(25.5473 3.11297 1.36584e-17)
(25.5296 3.16213 -3.72183e-16)
(25.5351 3.0827 -2.16571e-16)
(25.5755 3.32113 -7.591e-18)
(25.6764 2.90363 7.64024e-17)
(25.5377 2.90803 1.69438e-16)
(25.5441 2.92751 -1.53211e-16)
(25.5502 2.94658 -3.97228e-17)
(25.5558 2.96518 -2.39582e-16)
(25.5608 2.98334 -5.30621e-17)
(25.5653 3.00086 3.57126e-17)
(25.5686 3.01562 1.59011e-17)
(25.5709 3.02804 -1.20897e-18)
(25.573 3.04098 4.76728e-17)
(25.5751 3.05418 -1.15311e-16)
(25.5768 3.0677 2.16344e-16)
(25.5775 3.08178 -1.33523e-16)
(25.5756 3.09415 -2.11339e-16)
(25.5674 3.11186 0)
(25.5536 3.11065 -9.74292e-18)
(25.535 3.15903 3.6355e-16)
(25.5439 3.08324 2.12227e-16)
(25.5822 3.31868 8.94074e-18)
(25.6901 2.90646 -7.76849e-17)
(25.5298 2.76749 -2.20707e-17)
(25.5328 2.78708 -1.06669e-16)
(25.5362 2.80676 -1.80261e-16)
(25.54 2.82647 6.56117e-17)
(25.5442 2.84617 -2.10162e-17)
(25.5488 2.86581 8.26661e-17)
(25.5537 2.88533 2.10544e-16)
(25.5588 2.90467 -4.87864e-18)
(25.5639 2.92375 1.24023e-16)
(25.5687 2.94252 -1.06494e-17)
(25.573 2.96091 1.62411e-17)
(25.5768 2.97892 1.0222e-16)
(25.5801 2.99639 -3.62244e-17)
(25.5824 3.01117 -1.83682e-17)
(25.5839 3.02364 -1.26658e-18)
(25.5853 3.0367 3.42858e-18)
(25.5865 3.05005 8.83888e-19)
(25.5874 3.0638 -1.13697e-16)
(25.5873 3.07811 1.2887e-16)
(25.5843 3.0909 -4.14435e-19)
(25.5749 3.10865 0)
(25.5603 3.10862 1.32593e-17)
(25.5411 3.15599 -3.79668e-16)
(25.5533 3.08419 -2.1007e-18)
(25.59 3.3161 -2.28426e-17)
(25.704 2.90958 -8.02546e-19)
(25.57 2.57606 1.74993e-17)
(25.5669 2.58975 -1.0093e-16)
(25.5641 2.60396 -2.78442e-18)
(25.5617 2.61868 9.64808e-17)
(25.5597 2.6339 -1.04287e-16)
(25.558 2.6496 1.6592e-17)
(25.5569 2.66577 7.57967e-18)
(25.5562 2.68239 -2.10713e-17)
(25.556 2.69942 1.29186e-16)
(25.5563 2.71683 1.82321e-16)
(25.5571 2.73459 1.36463e-17)
(25.5582 2.75265 4.94752e-17)
(25.5598 2.77096 -5.25283e-17)
(25.5616 2.78948 1.5374e-18)
(25.5638 2.80816 2.77248e-16)
(25.5664 2.82696 -1.89164e-18)
(25.5694 2.84583 -1.53465e-16)
(25.5727 2.86473 -3.33783e-17)
(25.5764 2.8836 -1.4519e-16)
(25.5803 2.90237 -3.74232e-17)
(25.5841 2.92098 -1.21316e-18)
(25.5876 2.93935 -1.63809e-16)
(25.5907 2.95744 -6.05476e-18)
(25.5933 2.97524 -4.24729e-17)
(25.5955 2.99258 -3.56485e-19)
(25.5968 3.00731 1.42863e-17)
(25.5975 3.0198 -1.26514e-16)
(25.5981 3.03291 1.15957e-16)
(25.5985 3.04639 1.02269e-16)
(25.5987 3.06031 1.8727e-16)
(25.5976 3.07482 -2.08929e-16)
(25.5936 3.08799 -4.41525e-19)
(25.5829 3.1057 0)
(25.5676 3.10692 -8.73588e-18)
(25.5479 3.15305 1.04899e-16)
(25.5632 3.08559 4.46042e-17)
(25.5989 3.31342 -2.67853e-17)
(25.7181 2.91308 -8.37903e-19)
(25.7188 2.39702 2.34473e-18)
(25.7185 2.39877 2.29761e-18)
(25.7185 2.39937 -1.52996e-19)
(25.7184 2.40085 5.6384e-19)
(25.7181 2.40213 7.59934e-19)
(25.7178 2.40358 3.51927e-19)
(25.7172 2.40507 3.84427e-20)
(25.7166 2.40665 -3.02488e-18)
(25.7157 2.40832 -1.24084e-18)
(25.7148 2.41007 2.92763e-18)
(25.7136 2.41192 0)
(25.7123 2.41387 -4.71825e-19)
(25.7109 2.41593 6.66178e-18)
(25.7092 2.41811 2.10404e-19)
(25.7074 2.42041 7.47845e-18)
(25.7054 2.42285 7.60789e-19)
(25.7033 2.42543 1.90562e-18)
(25.701 2.42816 6.08972e-18)
(25.6985 2.43106 3.05081e-18)
(25.6959 2.43413 8.54626e-18)
(25.6931 2.43739 -7.86639e-18)
(25.6902 2.44086 -1.16993e-17)
(25.6871 2.44453 4.45975e-18)
(25.6839 2.44843 -2.73834e-18)
(25.6805 2.45257 -8.60899e-18)
(25.6771 2.45696 -8.30088e-18)
(25.6735 2.46163 1.63196e-17)
(25.6698 2.46658 -5.73177e-18)
(25.666 2.47184 2.21311e-18)
(25.6622 2.47741 -7.93259e-18)
(25.6583 2.48332 1.29746e-17)
(25.6543 2.48958 8.26422e-18)
(25.6502 2.49621 9.89482e-18)
(25.6461 2.50323 2.51498e-17)
(25.642 2.51065 -1.84969e-17)
(25.6379 2.51849 -1.12677e-17)
(25.6338 2.52677 9.4617e-19)
(25.6297 2.53549 -1.34007e-17)
(25.6256 2.54468 -5.41671e-18)
(25.6216 2.55434 -2.44036e-17)
(25.6177 2.56449 8.20982e-18)
(25.6139 2.57514 1.15775e-17)
(25.6102 2.58629 -2.68969e-17)
(25.6067 2.59796 2.23517e-17)
(25.6034 2.61013 6.03467e-18)
(25.6003 2.62283 -6.23389e-19)
(25.5975 2.63603 -3.89518e-18)
(25.595 2.64975 2.81213e-17)
(25.5928 2.66397 -8.54626e-17)
(25.5911 2.67867 -2.8941e-19)
(25.5897 2.69386 -2.23863e-18)
(25.5888 2.70949 -3.84197e-17)
(25.5884 2.72556 -6.51958e-18)
(25.5883 2.74201 -4.49768e-18)
(25.5885 2.75882 -6.24765e-19)
(25.5891 2.77594 -1.71676e-17)
(25.5899 2.79334 1.50336e-18)
(25.5911 2.81097 -1.19189e-16)
(25.5926 2.82879 -1.86886e-18)
(25.5944 2.84677 1.3004e-16)
(25.5967 2.86486 -5.65619e-19)
(25.5992 2.883 1.33295e-16)
(25.6019 2.90113 -1.07951e-17)
(25.6045 2.91919 -1.07348e-16)
(25.6068 2.9371 9.635e-18)
(25.6088 2.95481 5.25207e-18)
(25.6103 2.97232 3.54402e-17)
(25.6113 2.98946 3.08087e-17)
(25.6117 3.00409 -2.10539e-18)
(25.6116 3.01654 4.034e-18)
(25.6115 3.02968 -9.60106e-19)
(25.6112 3.04322 -9.98759e-17)
(25.6105 3.05729 -1.48051e-16)
(25.6085 3.07193 2.12001e-16)
(25.6034 3.08545 9.64813e-17)
(25.5915 3.10304 0)
(25.5753 3.10557 -2.83844e-17)
(25.5555 3.15027 2.5855e-16)
(25.5736 3.08748 -2.27077e-16)
(25.609 3.31068 9.83468e-18)
(25.7324 2.91707 -8.84241e-19)
(25.7443 2.44846 -2.11644e-19)
(25.744 2.44988 1.84003e-19)
(25.7439 2.4504 -3.03858e-19)
(25.7437 2.45161 -1.45246e-19)
(25.7433 2.45268 -3.45001e-20)
(25.7429 2.45389 -1.60099e-20)
(25.7423 2.45513 -2.61124e-18)
(25.7417 2.45644 1.17855e-18)
(25.7408 2.45783 1.63695e-19)
(25.7399 2.45928 -1.9453e-18)
(25.7388 2.46082 0)
(25.7376 2.46245 -3.99815e-18)
(25.7363 2.46417 -1.96296e-18)
(25.7348 2.46599 -9.72856e-21)
(25.7332 2.46791 -4.72274e-18)
(25.7314 2.46995 4.35748e-18)
(25.7295 2.4721 4.84408e-18)
(25.7274 2.47439 -3.98075e-18)
(25.7252 2.47682 -3.26662e-18)
(25.7229 2.4794 -2.04833e-18)
(25.7204 2.48213 -5.62541e-19)
(25.7178 2.48504 9.34145e-18)
(25.7151 2.48813 1.43523e-19)
(25.7123 2.49141 4.49365e-18)
(25.7093 2.4949 5.67857e-18)
(25.7062 2.49861 6.91051e-19)
(25.703 2.50255 -5.08161e-18)
(25.6997 2.50674 -2.0836e-18)
(25.6964 2.5112 -1.03481e-19)
(25.6929 2.51593 1.7779e-18)
(25.6893 2.52096 -6.04586e-19)
(25.6857 2.5263 9.79974e-18)
(25.682 2.53196 -4.58599e-19)
(25.6783 2.53797 -1.16154e-18)
(25.6745 2.54434 2.14837e-17)
(25.6706 2.55108 6.64356e-18)
(25.6668 2.55822 -1.15206e-17)
(25.6629 2.56577 8.75447e-18)
(25.659 2.57374 4.97012e-19)
(25.6552 2.58215 -9.66722e-18)
(25.6514 2.59102 -9.19014e-18)
(25.6476 2.60035 8.39843e-18)
(25.644 2.61016 1.57682e-17)
(25.6404 2.62045 6.01536e-18)
(25.637 2.63125 6.55879e-17)
(25.6338 2.64254 -5.72832e-19)
(25.6308 2.65435 -3.59685e-18)
(25.628 2.66666 -2.03764e-17)
(25.6255 2.67947 5.40934e-17)
(25.6234 2.69279 5.71041e-19)
(25.6216 2.7066 -6.39935e-17)
(25.6202 2.72088 -1.35862e-18)
(25.6191 2.73562 -8.00039e-17)
(25.6183 2.75078 3.52545e-18)
(25.6178 2.76635 2.38734e-17)
(25.6175 2.78227 -1.13845e-17)
(25.6175 2.79852 -4.06153e-17)
(25.6178 2.81507 6.6785e-19)
(25.6184 2.83189 -1.83659e-18)
(25.6193 2.84893 -2.5804e-18)
(25.6205 2.86616 -5.61678e-19)
(25.6221 2.88352 -1.27468e-16)
(25.6237 2.90095 3.99454e-17)
(25.6252 2.91838 1.04218e-16)
(25.6264 2.93576 1.55806e-16)
(25.6272 2.95303 5.35173e-18)
(25.6276 2.97019 -8.94616e-17)
(25.6276 2.98707 -3.13952e-17)
(25.6271 3.00155 -5.39988e-17)
(25.6263 3.01392 8.44626e-17)
(25.6254 3.02702 -2.57609e-17)
(25.6244 3.04059 9.51085e-17)
(25.6229 3.05476 2.59046e-16)
(25.62 3.06949 1.09959e-16)
(25.6137 3.08332 -4.4347e-18)
(25.6006 3.10074 0)
(25.5835 3.1046 3.34052e-17)
(25.5639 3.14769 -5.60238e-18)
(25.5848 3.0899 2.1808e-16)
(25.6201 3.30787 7.75162e-17)
(25.7471 2.92168 -9.45728e-19)
(25.7663 2.49547 4.92814e-19)
(25.766 2.49664 5.27284e-19)
(25.7658 2.49708 -1.49291e-20)
(25.7655 2.49809 -5.18079e-19)
(25.7651 2.49899 3.309e-20)
(25.7646 2.5 2.06214e-19)
(25.764 2.50103 1.22994e-19)
(25.7633 2.50213 8.77463e-21)
(25.7625 2.50329 3.75596e-20)
(25.7617 2.50452 6.18021e-20)
(25.7607 2.50581 0)
(25.7595 2.50717 1.56849e-19)
(25.7583 2.50862 -1.47479e-19)
(25.757 2.51014 -8.21137e-21)
(25.7555 2.51176 1.05565e-18)
(25.7539 2.51348 -1.02353e-18)
(25.7522 2.5153 -2.87344e-19)
(25.7504 2.51722 1.17438e-19)
(25.7485 2.51927 1.82221e-19)
(25.7464 2.52145 1.2506e-18)
(25.7443 2.52376 1.21082e-18)
(25.742 2.52622 -3.90159e-19)
(25.7396 2.52883 1.22645e-19)
(25.7371 2.53161 -8.02537e-20)
(25.7345 2.53457 1.16032e-19)
(25.7318 2.53771 -5.79978e-18)
(25.729 2.54106 5.26029e-19)
(25.7261 2.54463 4.6173e-19)
(25.7231 2.54842 -1.75919e-19)
(25.72 2.55246 -1.04858e-18)
(25.7168 2.55675 -5.25302e-19)
(25.7136 2.56132 -1.32829e-18)
(25.7102 2.56617 4.98768e-18)
(25.7069 2.57133 -1.01752e-18)
(25.7034 2.5768 -1.47367e-19)
(25.6999 2.58262 -5.53889e-18)
(25.6964 2.58878 1.11972e-17)
(25.6928 2.59532 -6.6289e-18)
(25.6892 2.60224 4.42611e-19)
(25.6856 2.60956 9.32101e-18)
(25.682 2.6173 8.3418e-18)
(25.6784 2.62548 -5.20841e-19)
(25.6749 2.63409 7.15951e-19)
(25.6714 2.64317 -8.22447e-18)
(25.668 2.65272 -2.92351e-17)
(25.6648 2.66275 -5.24967e-19)
(25.6617 2.67326 -3.31141e-18)
(25.6589 2.68428 3.57192e-18)
(25.6562 2.69579 -1.20637e-17)
(25.6538 2.7078 -1.08536e-18)
(25.6517 2.72031 3.17054e-18)
(25.6499 2.73331 2.56439e-17)
(25.6484 2.74677 -1.02337e-17)
(25.6471 2.76069 -4.34546e-19)
(25.646 2.77503 -2.48092e-17)
(25.6451 2.78977 3.28361e-17)
(25.6444 2.80489 4.31138e-17)
(25.6439 2.82036 1.05132e-16)
(25.6437 2.83615 -1.79655e-18)
(25.6438 2.85223 -9.63039e-17)
(25.6442 2.86856 2.43708e-17)
(25.6448 2.8851 2.44844e-18)
(25.6454 2.90178 -5.83811e-17)
(25.6459 2.91855 -1.36349e-16)
(25.6461 2.93534 -1.21228e-16)
(25.6459 2.95211 7.25416e-17)
(25.6453 2.96886 -3.91941e-18)
(25.6443 2.98542 2.73202e-17)
(25.6429 2.9997 -6.87471e-18)
(25.6415 3.01195 1.96272e-19)
(25.6399 3.02498 2.03581e-19)
(25.6381 3.03854 -1.09791e-16)
(25.6359 3.05275 -1.06823e-16)
(25.632 3.06753 -8.25441e-18)
(25.6246 3.08164 -4.68466e-18)
(25.6102 3.09882 0)
(25.5923 3.10405 -2.53704e-17)
(25.5732 3.14535 -6.00217e-18)
(25.5967 3.09295 -1.33126e-16)
(25.6323 3.30497 -7.25852e-17)
(25.7623 2.92704 -1.03202e-18)
(25.7852 2.53848 -5.59149e-19)
(25.7849 2.53944 -1.06653e-19)
(25.7846 2.53982 1.70299e-20)
(25.7842 2.54067 4.6368e-19)
(25.7838 2.54142 -8.32486e-20)
(25.7833 2.54227 -2.20541e-19)
(25.7827 2.54314 1.03409e-19)
(25.7821 2.54407 7.38438e-21)
(25.7813 2.54504 2.49785e-19)
(25.7805 2.54607 1.42966e-18)
(25.7796 2.54716 0)
(25.7786 2.54832 9.43976e-19)
(25.7775 2.54954 -1.34795e-18)
(25.7763 2.55083 -1.03231e-18)
(25.775 2.5522 1.68563e-18)
(25.7736 2.55365 5.87603e-19)
(25.7721 2.55519 -2.44309e-19)
(25.7705 2.55682 2.87396e-18)
(25.7688 2.55856 2.49152e-18)
(25.767 2.56041 -1.53106e-18)
(25.7651 2.56237 -4.3341e-19)
(25.7632 2.56446 -6.97405e-18)
(25.7611 2.56668 1.05213e-19)
(25.7589 2.56905 -1.98907e-18)
(25.7566 2.57157 9.98836e-20)
(25.7543 2.57426 5.25572e-19)
(25.7518 2.57711 -2.77318e-19)
(25.7493 2.58016 3.99746e-19)
(25.7467 2.58341 6.37232e-21)
(25.7439 2.58686 1.35755e-18)
(25.7412 2.59055 -4.5773e-19)
(25.7383 2.59447 -1.16013e-18)
(25.7354 2.59864 -5.60518e-18)
(25.7323 2.60308 -8.93168e-19)
(25.7293 2.60781 -1.29702e-19)
(25.7261 2.61283 1.09048e-18)
(25.7229 2.61818 -8.97071e-18)
(25.7197 2.62385 6.84222e-18)
(25.7164 2.62987 3.94236e-19)
(25.7131 2.63625 -1.67051e-17)
(25.7098 2.64301 7.51137e-18)
(25.7064 2.65017 -6.89454e-18)
(25.7031 2.65775 6.46758e-19)
(25.6998 2.66575 -3.37693e-17)
(25.6966 2.67419 5.82093e-18)
(25.6934 2.68308 -4.79968e-19)
(25.6904 2.69245 -3.04051e-18)
(25.6876 2.70228 2.07587e-17)
(25.6849 2.71261 1.16849e-17)
(25.6824 2.72342 4.48787e-19)
(25.6802 2.73472 5.34651e-17)
(25.6781 2.74651 -3.96839e-18)
(25.6763 2.75877 2.10175e-17)
(25.6746 2.7715 1.64726e-17)
(25.6731 2.78467 7.52898e-18)
(25.6717 2.79828 3.4801e-17)
(25.6704 2.81228 2.08786e-17)
(25.6693 2.82668 -1.18232e-16)
(25.6685 2.84145 8.27828e-17)
(25.6679 2.85657 1.3284e-16)
(25.6675 2.87199 -2.36053e-17)
(25.6673 2.88769 1.21881e-16)
(25.6671 2.90359 -3.24954e-17)
(25.6667 2.91965 -2.86231e-17)
(25.666 2.93582 2.8575e-16)
(25.6649 2.95205 1.3207e-18)
(25.6634 2.96834 -1.71255e-17)
(25.6614 2.98453 -2.02765e-18)
(25.6592 2.99857 -5.73798e-17)
(25.6571 3.01067 2.02162e-19)
(25.6549 3.02359 -4.59473e-17)
(25.6524 3.03709 1.00095e-16)
(25.6494 3.05131 9.24596e-17)
(25.6446 3.0661 -2.57996e-17)
(25.636 3.08043 -4.93844e-18)
(25.6204 3.09733 0)
(25.6017 3.10397 3.07239e-16)
(25.5833 3.14327 -1.04166e-16)
(25.6096 3.09675 1.23094e-16)
(25.6453 3.30192 2.3155e-18)
(25.7783 2.93319 -4.82062e-16)
(25.8019 2.57804 3.65047e-19)
(25.8015 2.57884 -9.09827e-20)
(25.8012 2.57916 1.45359e-20)
(25.8008 2.57987 -3.82957e-19)
(25.8003 2.58051 2.51856e-20)
(25.7998 2.58122 1.53196e-19)
(25.7993 2.58196 8.84842e-20)
(25.7987 2.58275 6.32283e-21)
(25.798 2.58358 6.94263e-21)
(25.7972 2.58445 -8.30224e-20)
(25.7964 2.58538 0)
(25.7955 2.58635 -6.63052e-19)
(25.7945 2.58739 1.06479e-18)
(25.7934 2.58849 1.37669e-18)
(25.7923 2.58966 5.56259e-19)
(25.7911 2.59089 -7.63589e-19)
(25.7898 2.59221 -2.10746e-19)
(25.7884 2.5936 -1.7679e-19)
(25.787 2.59509 -8.79332e-20)
(25.7854 2.59666 9.4554e-19)
(25.7838 2.59834 9.08408e-19)
(25.7821 2.60013 3.46903e-19)
(25.7803 2.60203 2.83468e-18)
(25.7784 2.60406 1.79698e-18)
(25.7765 2.60622 8.69734e-20)
(25.7744 2.60852 3.16863e-18)
(25.7723 2.61097 -6.75327e-18)
(25.7701 2.61358 2.34272e-18)
(25.7679 2.61637 2.86593e-18)
(25.7655 2.61934 5.77129e-18)
(25.7631 2.62251 -8.39829e-18)
(25.7606 2.62589 -1.36458e-17)
(25.758 2.62949 -2.24748e-18)
(25.7554 2.63332 -4.64418e-18)
(25.7527 2.6374 6.41943e-18)
(25.7499 2.64176 8.3301e-18)
(25.7471 2.64639 6.57658e-18)
(25.7442 2.65132 -2.8689e-18)
(25.7412 2.65655 2.00008e-18)
(25.7382 2.66212 1.62426e-17)
(25.7352 2.66803 -8.67246e-18)
(25.7321 2.67431 1.01342e-17)
(25.7291 2.68096 -2.9148e-18)
(25.726 2.688 3.12964e-17)
(25.723 2.69546 2.28711e-17)
(25.7201 2.70334 2.97286e-17)
(25.7172 2.71166 -7.23707e-19)
(25.7144 2.72044 3.22887e-17)
(25.7118 2.72967 1.81966e-17)
(25.7093 2.73939 1.70648e-17)
(25.707 2.74958 -1.39822e-17)
(25.7049 2.76024 -4.4328e-17)
(25.7029 2.77138 4.37614e-17)
(25.7009 2.78299 -1.83698e-18)
(25.6991 2.79505 -5.60708e-17)
(25.6973 2.80755 -5.51146e-17)
(25.6956 2.82049 -2.80356e-19)
(25.6941 2.83385 -1.12314e-17)
(25.6927 2.84762 -1.31241e-16)
(25.6916 2.86179 -5.68746e-18)
(25.6906 2.87631 -6.62881e-19)
(25.6897 2.89115 -2.01333e-17)
(25.6887 2.90626 2.85825e-17)
(25.6875 2.9216 1.01632e-17)
(25.686 2.93712 -1.00317e-17)
(25.684 2.95278 -2.66389e-18)
(25.6816 2.96858 2.0043e-17)
(25.6788 2.98436 7.04851e-17)
(25.6759 2.99812 4.59957e-18)
(25.6732 3.01004 2.07724e-19)
(25.6703 3.02282 4.25656e-17)
(25.6673 3.03624 -3.6922e-18)
(25.6635 3.05043 -7.37471e-18)
(25.6578 3.0652 -8.10878e-18)
(25.6479 3.07972 -5.19803e-18)
(25.6312 3.09629 0)
(25.6118 3.10442 -2.71905e-16)
(25.594 3.14144 1.10739e-16)
(25.6239 3.10154 -7.41001e-17)
(25.6586 3.29853 -4.5862e-18)
(25.7963 2.94034 3.8313e-16)
(25.8205 2.62324 -3.96233e-20)
(25.8201 2.62389 -1.61375e-19)
(25.8198 2.62415 -1.03019e-19)
(25.8194 2.62473 8.4078e-20)
(25.8189 2.62525 -7.73226e-20)
(25.8185 2.62582 1.28451e-19)
(25.818 2.62643 9.19307e-19)
(25.8174 2.62707 1.19736e-19)
(25.8168 2.62774 3.45728e-19)
(25.8161 2.62846 -1.28946e-19)
(25.8154 2.62921 0)
(25.8146 2.63002 5.23332e-19)
(25.8138 2.63087 -1.22396e-18)
(25.8129 2.63177 4.85255e-21)
(25.812 2.63272 -1.78172e-18)
(25.8109 2.63374 -1.12607e-18)
(25.8099 2.63482 -1.3575e-18)
(25.8087 2.63597 -1.08474e-18)
(25.8075 2.63719 -4.38335e-19)
(25.8063 2.63849 -2.44166e-18)
(25.805 2.63988 3.43228e-18)
(25.8036 2.64135 1.75084e-18)
(25.8021 2.64292 -3.24273e-19)
(25.8006 2.64459 -3.01786e-19)
(25.799 2.64638 9.99359e-19)
(25.7973 2.64828 1.03641e-18)
(25.7956 2.65031 3.1292e-18)
(25.7938 2.65247 2.29591e-18)
(25.7919 2.65479 -3.55051e-18)
(25.79 2.65725 -5.32655e-18)
(25.788 2.65988 2.40459e-18)
(25.7859 2.6627 1.5661e-18)
(25.7838 2.66569 1.04183e-18)
(25.7816 2.6689 -8.47126e-18)
(25.7793 2.6723 -7.76024e-18)
(25.7769 2.67595 -1.4457e-18)
(25.7745 2.67983 5.78035e-18)
(25.7721 2.68397 3.41058e-18)
(25.7695 2.68838 -8.61905e-18)
(25.7669 2.69308 -1.22112e-17)
(25.7643 2.69807 1.0683e-18)
(25.7616 2.7034 -1.68984e-17)
(25.7589 2.70906 7.58822e-18)
(25.7561 2.71506 -1.54537e-17)
(25.7534 2.72145 1.45292e-17)
(25.7507 2.72822 -4.65387e-17)
(25.748 2.73538 2.52315e-19)
(25.7455 2.74298 4.74137e-18)
(25.743 2.75101 -3.84753e-17)
(25.7406 2.75948 -1.77051e-17)
(25.7383 2.76842 -2.97672e-17)
(25.7361 2.7778 -7.59235e-18)
(25.7339 2.78765 -5.42231e-17)
(25.7317 2.79796 -4.33304e-17)
(25.7296 2.80873 5.18607e-17)
(25.7275 2.81995 3.86194e-17)
(25.7253 2.83164 -1.95017e-17)
(25.7233 2.84377 6.9207e-17)
(25.7214 2.85634 9.87492e-17)
(25.7196 2.86936 -1.31539e-17)
(25.718 2.88277 3.29197e-17)
(25.7163 2.89657 -1.10124e-16)
(25.7145 2.91071 -5.63895e-17)
(25.7124 2.92514 1.14832e-16)
(25.7099 2.93984 -2.40593e-16)
(25.7069 2.95477 -3.2459e-17)
(25.7036 2.96994 1.22908e-16)
(25.6997 2.98519 -1.07859e-16)
(25.696 2.99859 4.55655e-17)
(25.6925 3.01025 1.14676e-17)
(25.689 3.02283 -5.12693e-18)
(25.6851 3.0361 -1.3803e-16)
(25.6804 3.05022 -1.57821e-16)
(25.6735 3.0649 -1.00405e-16)
(25.6622 3.07959 -6.96553e-17)
(25.644 3.09571 0)
(25.6239 3.10569 2.38444e-16)
(25.6072 3.13965 -1.54989e-16)
(25.6401 3.10804 -1.90161e-16)
(25.6748 3.29456 1.27494e-16)
(25.8136 2.94809 1.39884e-16)
(25.8399 2.67064 -1.54233e-19)
(25.8395 2.67114 -2.82115e-19)
(25.8392 2.67136 3.44806e-19)
(25.8388 2.67182 -2.60273e-20)
(25.8384 2.67223 -5.45342e-20)
(25.838 2.6727 -3.49857e-19)
(25.8376 2.67318 -2.64202e-19)
(25.8371 2.67369 1.37064e-19)
(25.8366 2.67423 -3.17668e-19)
(25.836 2.67481 -5.34408e-19)
(25.8355 2.67541 0)
(25.8348 2.67606 3.58684e-19)
(25.8342 2.67674 4.46512e-19)
(25.8335 2.67747 1.7194e-19)
(25.8328 2.67823 1.65737e-19)
(25.832 2.67906 5.76801e-19)
(25.8311 2.67992 -3.92215e-19)
(25.8303 2.68085 -4.14964e-19)
(25.8294 2.68184 9.9984e-20)
(25.8284 2.68288 1.11902e-18)
(25.8274 2.684 -2.79559e-18)
(25.8263 2.68519 -8.63858e-19)
(25.8252 2.68645 2.53713e-19)
(25.824 2.68781 -5.30764e-19)
(25.8228 2.68925 -2.11053e-18)
(25.8216 2.69079 -1.68102e-18)
(25.8202 2.69243 -2.05133e-18)
(25.8189 2.69418 9.45378e-19)
(25.8174 2.69606 -2.41877e-18)
(25.8159 2.69805 2.02337e-18)
(25.8144 2.70019 1.92976e-18)
(25.8128 2.70247 1.10572e-18)
(25.8111 2.70491 -6.63777e-19)
(25.8094 2.70751 1.05841e-18)
(25.8076 2.71029 -8.44484e-19)
(25.8057 2.71326 -4.00073e-18)
(25.8037 2.71643 -7.50869e-18)
(25.8017 2.71982 -5.3243e-18)
(25.7997 2.72343 1.14924e-17)
(25.7975 2.72729 1.87324e-17)
(25.7953 2.7314 -1.08246e-17)
(25.7931 2.7358 1.10513e-17)
(25.7908 2.74048 1.15622e-18)
(25.7884 2.74547 7.80615e-18)
(25.7861 2.75079 -1.73159e-17)
(25.7838 2.75645 2.59521e-17)
(25.7814 2.76247 -8.66562e-18)
(25.7791 2.76887 2.65179e-18)
(25.7769 2.77567 3.75385e-17)
(25.7746 2.78287 -1.27429e-17)
(25.7724 2.79051 5.74025e-18)
(25.7702 2.79856 2.948e-17)
(25.768 2.80705 -2.7947e-17)
(25.7657 2.816 4.74125e-17)
(25.7633 2.82539 -3.05003e-17)
(25.7609 2.83523 1.19912e-17)
(25.7585 2.84555 5.1024e-17)
(25.756 2.85633 -5.39462e-17)
(25.7536 2.86758 -7.07607e-17)
(25.7513 2.87932 -3.74257e-17)
(25.749 2.89149 -9.84124e-17)
(25.7465 2.90411 4.74637e-17)
(25.7438 2.91712 2.32725e-17)
(25.7408 2.93051 -5.84902e-18)
(25.7373 2.94424 1.17858e-16)
(25.7333 2.95832 -9.74723e-18)
(25.7289 2.97271 -1.84416e-16)
(25.7239 2.98732 9.63791e-17)
(25.7192 3.00025 6.38046e-17)
(25.7151 3.01159 -3.2797e-18)
(25.7107 3.02389 3.77227e-17)
(25.7059 3.03696 -2.86433e-18)
(25.7002 3.05093 2.92379e-17)
(25.6919 3.0655 -4.38684e-17)
(25.6787 3.08028 -1.44708e-18)
(25.659 3.09595 0)
(25.638 3.10785 -2.18661e-16)
(25.6234 3.13868 1.66953e-16)
(25.6577 3.11582 3.83238e-17)
(25.6962 3.29176 -1.21593e-16)
(25.8265 2.95738 9.32331e-17)
(25.8565 2.71094 7.39131e-20)
(25.8562 2.71133 7.48869e-21)
(25.8559 2.71153 -1.68505e-19)
(25.8556 2.7119 -4.57106e-20)
(25.8552 2.71223 -2.87526e-20)
(25.8549 2.71262 -2.41744e-20)
(25.8545 2.713 -4.65651e-20)
(25.8541 2.71343 -1.93253e-19)
(25.8537 2.71387 1.82419e-19)
(25.8533 2.71434 4.44323e-19)
(25.8528 2.71484 0)
(25.8524 2.71537 -6.3388e-20)
(25.8519 2.71593 2.52906e-19)
(25.8513 2.71652 -1.7398e-19)
(25.8508 2.71716 6.3669e-19)
(25.8502 2.71783 -8.25046e-19)
(25.8496 2.71854 6.79556e-19)
(25.8489 2.71931 -1.46411e-19)
(25.8482 2.72012 7.04769e-20)
(25.8475 2.72098 -3.52414e-19)
(25.8468 2.7219 1.5728e-18)
(25.846 2.72288 1.48143e-18)
(25.8452 2.72392 1.40433e-19)
(25.8443 2.72504 5.93381e-19)
(25.8434 2.72623 2.05578e-18)
(25.8425 2.7275 1.68773e-18)
(25.8415 2.72886 1.0858e-18)
(25.8405 2.7303 -4.1464e-18)
(25.8394 2.73185 4.11694e-18)
(25.8383 2.7335 1.78574e-18)
(25.8371 2.73526 -3.66128e-18)
(25.8359 2.73715 2.07609e-19)
(25.8346 2.73917 -1.4928e-18)
(25.8333 2.74132 4.87593e-18)
(25.8319 2.74363 3.15653e-18)
(25.8305 2.74609 -5.81511e-19)
(25.829 2.74872 -7.73309e-19)
(25.8274 2.75153 2.3289e-18)
(25.8257 2.75455 2.21477e-19)
(25.824 2.75776 -6.71092e-18)
(25.8223 2.76121 4.292e-18)
(25.8205 2.76489 3.27744e-18)
(25.8186 2.76881 -6.57523e-18)
(25.8167 2.77301 -2.32473e-18)
(25.8148 2.7775 -3.16361e-18)
(25.8129 2.78229 -1.02399e-18)
(25.8109 2.7874 -5.44609e-18)
(25.809 2.79285 -5.98682e-18)
(25.807 2.79866 -2.28991e-17)
(25.8051 2.80484 2.06771e-17)
(25.8031 2.8114 2.98285e-17)
(25.801 2.81837 -2.93651e-17)
(25.7989 2.82574 3.41006e-17)
(25.7966 2.83353 -2.3037e-17)
(25.7942 2.84176 2.54844e-17)
(25.7917 2.85043 -4.24943e-17)
(25.7891 2.85956 -3.35008e-17)
(25.7865 2.86917 3.33692e-17)
(25.7838 2.87926 1.20008e-17)
(25.7812 2.88985 -1.47452e-17)
(25.7784 2.90091 9.76834e-17)
(25.7754 2.91244 -5.41328e-18)
(25.7721 2.92441 8.50027e-18)
(25.7684 2.93682 2.53033e-17)
(25.7641 2.94964 8.43927e-19)
(25.7593 2.96288 9.85443e-17)
(25.754 2.97653 1.52298e-16)
(25.7482 2.9905 -7.55933e-17)
(25.7427 3.00295 -4.9506e-18)
(25.7379 3.01396 -1.355e-17)
(25.7329 3.02597 8.38025e-18)
(25.7273 3.03881 8.12044e-18)
(25.7205 3.0526 4.05375e-17)
(25.7109 3.06702 4.18594e-17)
(25.696 3.08183 -2.6316e-17)
(25.6748 3.09716 0)
(25.6531 3.11079 -4.70698e-17)
(25.6412 3.13904 -1.68968e-16)
(25.6765 3.12433 9.18199e-17)
(25.7196 3.291 1.65564e-16)
(25.8383 2.96901 -8.97789e-17)
(25.8716 2.74523 -7.44096e-20)
(25.8719 2.7451 7.89547e-20)
(25.8714 2.74557 -1.94391e-21)
(25.8711 2.74573 -8.11681e-21)
(25.8709 2.74603 8.3297e-20)
(25.8706 2.74633 7.68101e-20)
(25.8703 2.74664 9.94878e-20)
(25.8701 2.74697 9.02898e-20)
(25.8698 2.74732 -1.30073e-19)
(25.8695 2.74769 -1.32883e-19)
(25.8691 2.74808 -3.45167e-19)
(25.8688 2.7485 0)
(25.8684 2.74895 -6.44773e-21)
(25.8681 2.74942 -3.69521e-19)
(25.8677 2.74992 -5.28396e-19)
(25.8673 2.75045 -5.66455e-19)
(25.8669 2.75102 5.27917e-19)
(25.8664 2.75162 -2.99766e-19)
(25.866 2.75226 5.83709e-19)
(25.8655 2.75294 3.36938e-20)
(25.865 2.75367 3.5686e-20)
(25.8645 2.75444 -6.97799e-19)
(25.8639 2.75527 -4.66999e-19)
(25.8633 2.75615 -1.51568e-18)
(25.8627 2.75708 -5.30328e-20)
(25.8621 2.75809 2.3117e-20)
(25.8614 2.75915 1.13251e-18)
(25.8607 2.76029 8.1945e-19)
(25.86 2.76151 8.02066e-19)
(25.8592 2.76281 -1.95448e-18)
(25.8584 2.7642 -1.71973e-19)
(25.8576 2.76568 2.88053e-18)
(25.8567 2.76727 -2.05043e-18)
(25.8558 2.76897 -3.97787e-19)
(25.8548 2.77077 -6.2407e-19)
(25.8538 2.77272 5.60158e-19)
(25.8527 2.7748 2.07374e-18)
(25.8516 2.77702 8.10627e-19)
(25.8504 2.7794 9.94692e-19)
(25.8491 2.78195 -1.39524e-18)
(25.8478 2.78467 3.6872e-19)
(25.8465 2.78759 1.56708e-18)
(25.8451 2.79071 -4.66723e-18)
(25.8436 2.79406 7.60953e-18)
(25.8422 2.79764 1.48139e-18)
(25.8407 2.80148 3.80934e-18)
(25.8391 2.80559 -2.62324e-18)
(25.8376 2.80998 -1.00688e-17)
(25.836 2.81468 -1.08912e-17)
(25.8344 2.81969 7.12764e-18)
(25.8328 2.82505 -8.3971e-18)
(25.8311 2.83075 -1.79262e-17)
(25.8292 2.83683 7.77492e-18)
(25.8272 2.84327 -7.00871e-18)
(25.8251 2.85012 4.00619e-18)
(25.8228 2.85738 -2.30478e-17)
(25.8203 2.86507 4.03151e-17)
(25.8178 2.87322 -9.06442e-18)
(25.8151 2.88183 -1.92589e-17)
(25.8124 2.89092 -2.9106e-17)
(25.8096 2.90052 -4.70672e-19)
(25.8066 2.9106 -2.5416e-17)
(25.8033 2.92117 8.24656e-18)
(25.7995 2.93222 -3.54895e-17)
(25.7952 2.94374 -3.04746e-17)
(25.7904 2.95574 8.75834e-18)
(25.785 2.96821 -3.04174e-17)
(25.7791 2.98116 -7.28152e-17)
(25.7725 2.99452 3.80648e-17)
(25.7665 3.00653 -4.27818e-17)
(25.7612 3.01722 9.06465e-18)
(25.7556 3.02893 -4.6776e-17)
(25.7494 3.04155 1.374e-17)
(25.7416 3.05515 -6.23122e-17)
(25.7306 3.06944 -4.9386e-17)
(25.714 3.08423 2.40183e-17)
(25.6916 3.09936 0)
(25.6697 3.1146 6.31443e-17)
(25.6607 3.14085 -4.38495e-17)
(25.6974 3.13391 1.26689e-16)
(25.7446 3.29212 -9.20242e-17)
(25.8514 2.98364 -1.11355e-16)
(25.8856 2.77413 -1.22708e-19)
(25.8858 2.774 -1.50003e-19)
(25.8854 2.77442 2.75572e-20)
(25.8852 2.77457 1.18919e-20)
(25.8851 2.77483 3.31777e-20)
(25.8849 2.77508 3.08668e-20)
(25.8847 2.77535 7.0856e-20)
(25.8845 2.77564 1.74954e-21)
(25.8843 2.77594 1.22419e-19)
(25.8841 2.77627 -2.19542e-20)
(25.8838 2.77661 7.61647e-21)
(25.8836 2.77698 0)
(25.8834 2.77736 5.22072e-20)
(25.8831 2.77777 2.55675e-19)
(25.8829 2.77821 1.54697e-19)
(25.8826 2.77867 1.24293e-19)
(25.8824 2.77916 3.47876e-20)
(25.8821 2.77968 -9.41553e-20)
(25.8818 2.78024 -3.49653e-19)
(25.8815 2.78083 2.52741e-21)
(25.8811 2.78146 1.54329e-19)
(25.8808 2.78213 -2.49069e-19)
(25.8805 2.78284 1.22252e-20)
(25.8801 2.7836 -1.05189e-19)
(25.8797 2.78441 -3.63074e-19)
(25.8793 2.78528 -3.58803e-19)
(25.8789 2.7862 -1.00072e-18)
(25.8784 2.78718 -7.0124e-19)
(25.878 2.78823 1.78934e-18)
(25.8775 2.78935 4.57455e-19)
(25.877 2.79055 -1.60398e-18)
(25.8764 2.79182 -9.32906e-19)
(25.8758 2.79319 2.3398e-18)
(25.8752 2.79465 -7.22703e-19)
(25.8745 2.79621 9.74818e-19)
(25.8738 2.79788 -9.02972e-19)
(25.8731 2.79967 -8.65743e-19)
(25.8723 2.80159 3.36174e-18)
(25.8715 2.80364 4.7002e-19)
(25.8706 2.80583 -2.51359e-18)
(25.8697 2.80818 -2.64669e-18)
(25.8687 2.8107 2.49311e-18)
(25.8677 2.81341 1.4756e-18)
(25.8667 2.8163 -3.56244e-18)
(25.8656 2.81941 5.77259e-18)
(25.8645 2.82274 -5.6944e-18)
(25.8634 2.82632 -3.05128e-18)
(25.8623 2.83015 -1.22239e-18)
(25.8611 2.83426 5.58688e-19)
(25.8598 2.83865 -2.83386e-18)
(25.8585 2.84335 -1.03087e-17)
(25.8571 2.84837 1.48009e-17)
(25.8555 2.85373 -7.06086e-18)
(25.8538 2.85943 -4.08188e-18)
(25.8518 2.86551 -1.06053e-17)
(25.8497 2.87198 6.91661e-18)
(25.8474 2.87886 -1.84849e-17)
(25.845 2.88619 5.4605e-18)
(25.8424 2.89398 1.14699e-17)
(25.8397 2.90224 2.10734e-17)
(25.8369 2.911 -4.83338e-19)
(25.8338 2.92024 -8.81274e-18)
(25.8302 2.92999 -3.03608e-18)
(25.8262 2.94024 2.83332e-17)
(25.8216 2.95099 4.61684e-17)
(25.8164 2.96225 -1.00317e-17)
(25.8105 2.97405 -5.23713e-19)
(25.8041 2.98637 -8.48815e-18)
(25.797 2.99919 -4.5514e-17)
(25.7906 3.01079 1.82493e-17)
(25.785 3.02119 -1.23759e-18)
(25.7789 3.03265 3.89464e-18)
(25.772 3.04506 7.0815e-17)
(25.7634 3.05848 3.19298e-17)
(25.751 3.07264 2.07968e-17)
(25.7329 3.08741 2.67413e-17)
(25.7095 3.1025 0)
(25.6879 3.11927 6.52724e-17)
(25.6822 3.14409 -3.23499e-18)
(25.7207 3.14469 -3.24812e-17)
(25.7714 3.295 -4.22664e-17)
(25.866 3.00165 -9.50039e-17)
(25.8998 2.79802 -1.83964e-20)
(25.8999 2.79788 3.35274e-21)
(25.8996 2.79826 -1.0227e-19)
(25.8995 2.7984 4.19702e-20)
(25.8994 2.79863 5.81658e-21)
(25.8993 2.79885 -8.36135e-20)
(25.8991 2.79909 -1.05936e-19)
(25.899 2.79934 -8.54578e-20)
(25.8989 2.79961 -5.9009e-20)
(25.8988 2.7999 3.54132e-20)
(25.8986 2.8002 2.75795e-20)
(25.8985 2.80052 0)
(25.8984 2.80086 -1.59753e-19)
(25.8983 2.80122 -5.76943e-20)
(25.8981 2.8016 2.5692e-19)
(25.898 2.80201 7.83354e-20)
(25.8978 2.80244 2.11154e-19)
(25.8977 2.8029 2.49733e-19)
(25.8975 2.8034 7.44333e-20)
(25.8974 2.80392 -2.63292e-19)
(25.8972 2.80447 -1.35744e-19)
(25.897 2.80507 3.00924e-19)
(25.8968 2.8057 1.86333e-19)
(25.8967 2.80637 3.08868e-19)
(25.8965 2.80709 -2.28742e-20)
(25.8963 2.80785 -2.17272e-19)
(25.896 2.80866 -8.25763e-19)
(25.8958 2.80954 5.62211e-19)
(25.8955 2.81046 -8.02954e-19)
(25.8953 2.81146 3.40589e-19)
(25.895 2.81252 -9.18025e-21)
(25.8947 2.81364 8.99545e-19)
(25.8943 2.81486 -8.63913e-19)
(25.894 2.81615 1.39742e-18)
(25.8936 2.81753 -2.73212e-19)
(25.8932 2.81901 -5.73421e-19)
(25.8927 2.82059 9.2676e-19)
(25.8922 2.82229 -4.64789e-19)
(25.8917 2.8241 1.17477e-18)
(25.8912 2.82605 1.25848e-18)
(25.8906 2.82813 1.45574e-18)
(25.89 2.83037 -5.05809e-19)
(25.8894 2.83277 -1.28291e-18)