# Force and moment coefficients
# dragDir       : (1.00000000e+00 0.00000000e+00 0.00000000e+00)
# sideDir       : (0.00000000e+00 1.00000000e+00 0.00000000e+00)
# liftDir       : (0.00000000e+00 0.00000000e+00 1.00000000e+00)
# rollAxis      : (1.00000000e+00 0.00000000e+00 0.00000000e+00)
# pitchAxis     : (0.00000000e+00 1.00000000e+00 0.00000000e+00)
# yawAxis       : (0.00000000e+00 0.00000000e+00 1.00000000e+00)
# magUInf       : 2.22360000e+02
# lRef          : 1.00000000e+00
# Aref          : 1.00000000e-01
# CofR          : (2.50000000e-01 0.00000000e+00 0.00000000e+00)
#
# Time          	Cd              	Cd(f)           	Cd(r)           	Cl              	Cl(f)           	Cl(r)           	CmPitch         	CmRoll          	CmYaw           	Cs              	Cs(f)           	Cs(r)           
2e-05           	1.71278990e-01	7.01713109e-02	1.01107679e-01	3.09363685e-01	6.90208798e-02	2.40342805e-01	-8.56609628e-02	-1.54681843e-02	8.56394952e-03	4.60446112e-21	8.56394952e-03	-8.56394952e-03
4e-05           	2.09548546e-01	9.00440829e-02	1.19504463e-01	2.94603803e-01	7.58972132e-02	2.18706590e-01	-7.14046885e-02	-1.47301902e-02	1.04774273e-02	4.08650545e-21	1.04774273e-02	-1.04774273e-02
6e-05           	2.10835402e-01	9.15129437e-02	1.19322458e-01	2.78095144e-01	7.61422065e-02	2.01952938e-01	-6.29053656e-02	-1.39047572e-02	1.05417701e-02	3.65041734e-21	1.05417701e-02	-1.05417701e-02
8e-05           	2.06573379e-01	8.97204796e-02	1.16852899e-01	2.71324195e-01	7.49484492e-02	1.96375746e-01	-6.07136485e-02	-1.35662098e-02	1.03286689e-02	3.53668893e-21	1.03286689e-02	-1.03286689e-02
0.0001          	2.03030561e-01	8.79448871e-02	1.15085674e-01	2.71407865e-01	7.44124340e-02	1.96995431e-01	-6.12914986e-02	-1.35703933e-02	1.01515280e-02	3.53315643e-21	1.01515280e-02	-1.01515280e-02
0.00012         	2.00805532e-01	8.68931162e-02	1.13912416e-01	2.70192996e-01	7.43157259e-02	1.95877270e-01	-6.07807721e-02	-1.35096498e-02	1.00402766e-02	3.47685724e-21	1.00402766e-02	-1.00402766e-02
0.00014         	1.99377580e-01	8.62047239e-02	1.13172856e-01	2.69681323e-01	7.42543945e-02	1.95426929e-01	-6.05862670e-02	-1.34840662e-02	9.96887901e-03	3.44240303e-21	9.96887901e-03	-9.96887901e-03
0.00016         	1.97665386e-01	8.53858251e-02	1.12279560e-01	2.68937354e-01	7.41141045e-02	1.94823249e-01	-6.03545723e-02	-1.34468677e-02	9.88326928e-03	3.40267923e-21	9.88326928e-03	-9.88326928e-03
0.00018         	1.95647440e-01	8.44015475e-02	1.11245893e-01	2.68443455e-01	7.40363673e-02	1.94407087e-01	-6.01853599e-02	-1.34221727e-02	9.78237202e-03	3.36520562e-21	9.78237202e-03	-9.78237202e-03
0.0002          	1.93443318e-01	8.33261394e-02	1.10117179e-01	2.67910395e-01	7.39606413e-02	1.93949754e-01	-5.99945563e-02	-1.33955198e-02	9.67216592e-03	3.33513725e-21	9.67216592e-03	-9.67216592e-03
0.00022         	1.91100387e-01	8.21876266e-02	1.08912760e-01	2.67251337e-01	7.38100293e-02	1.93441308e-01	-5.98156392e-02	-1.33625669e-02	9.55501934e-03	3.31101065e-21	9.55501934e-03	-9.55501934e-03
0.00024         	1.88647446e-01	8.09984683e-02	1.07648977e-01	2.66505090e-01	7.36021408e-02	1.92902950e-01	-5.96504044e-02	-1.33252545e-02	9.43237229e-03	3.28915368e-21	9.43237229e-03	-9.43237229e-03
0.00026         	1.86125674e-01	7.97756323e-02	1.06350042e-01	2.65744098e-01	7.33772488e-02	1.92366849e-01	-5.94948001e-02	-1.32872049e-02	9.30628372e-03	3.26879550e-21	9.30628372e-03	-9.30628372e-03
0.00028         	1.83550356e-01	7.85263145e-02	1.05024041e-01	2.64977268e-01	7.31409792e-02	1.91836288e-01	-5.93476546e-02	-1.32488634e-02	9.17751779e-03	3.24498055e-21	9.17751779e-03	-9.17751779e-03
0.0003          	1.80917325e-01	7.72481364e-02	1.03669189e-01	2.64210526e-01	7.29002968e-02	1.91310229e-01	-5.92049663e-02	-1.32105263e-02	9.04586627e-03	3.21823817e-21	9.04586627e-03	-9.04586627e-03
0.00032         	1.78211317e-01	7.59329342e-02	1.02278383e-01	2.63454487e-01	7.26593567e-02	1.90795130e-01	-5.90678868e-02	-1.31727244e-02	8.91056586e-03	3.19053198e-21	8.91056586e-03	-8.91056586e-03
0.00034         	1.75414779e-01	7.45702878e-02	1.00844491e-01	2.62742033e-01	7.24443808e-02	1.90297652e-01	-5.89266356e-02	-1.31371016e-02	8.77073894e-03	3.16295266e-21	8.77073894e-03	-8.77073894e-03
0.00036         	1.72507941e-01	7.31509773e-02	9.93569639e-02	2.62059866e-01	7.22567808e-02	1.89803085e-01	-5.87731521e-02	-1.31029933e-02	8.62539706e-03	3.13950121e-21	8.62539706e-03	-8.62539706e-03
0.00038         	1.69495520e-01	7.16794015e-02	9.78161189e-02	2.61367175e-01	7.20735337e-02	1.89293641e-01	-5.86100538e-02	-1.30683587e-02	8.47477602e-03	3.11645511e-21	8.47477602e-03	-8.47477602e-03
0.0004          	1.66525741e-01	7.02270733e-02	9.62986680e-02	2.60715947e-01	7.19011914e-02	1.88814755e-01	-5.84567820e-02	-1.30357973e-02	8.32628706e-03	3.09355052e-21	8.32628706e-03	-8.32628706e-03
0.00042         	1.63596210e-01	6.87960466e-02	9.48001630e-02	2.60041163e-01	7.17242312e-02	1.88316932e-01	-5.82963505e-02	-1.30020582e-02	8.17981048e-03	3.07025368e-21	8.17981048e-03	-8.17981048e-03
0.00044         	1.60800615e-01	6.74337238e-02	9.33668909e-02	2.59331671e-01	7.15416561e-02	1.87790015e-01	-5.81241794e-02	-1.29665836e-02	8.04003074e-03	3.04833717e-21	8.04003074e-03	-8.04003074e-03
0.00046         	1.58209730e-01	6.61762453e-02	9.20334848e-02	2.58572395e-01	7.13505932e-02	1.87221802e-01	-5.79356045e-02	-1.29286198e-02	7.91048650e-03	3.02794713e-21	7.91048650e-03	-7.91048650e-03
0.00048         	1.55814732e-01	6.50195575e-02	9.07951741e-02	2.57756166e-01	7.11496649e-02	1.86606501e-01	-5.77284181e-02	-1.28878083e-02	7.79073658e-03	3.00602521e-21	7.79073658e-03	-7.79073658e-03
0.0005          	1.53548734e-01	6.39294942e-02	8.96192399e-02	2.56897457e-01	7.09423242e-02	1.85955133e-01	-5.75064045e-02	-1.28448729e-02	7.67743670e-03	2.98494748e-21	7.67743670e-03	-7.67743670e-03
0.00052         	1.51352307e-01	6.28749535e-02	8.84773538e-02	2.56024002e-01	7.07351433e-02	1.85288859e-01	-5.72768578e-02	-1.28012001e-02	7.56761537e-03	2.96446588e-21	7.56761537e-03	-7.56761537e-03
0.00054         	1.49208136e-01	6.18437359e-02	8.73643997e-02	2.55206637e-01	7.05335712e-02	1.84673066e-01	-5.70697476e-02	-1.27603319e-02	7.46040678e-03	2.94523144e-21	7.46040678e-03	-7.46040678e-03
0.00056         	1.47139337e-01	6.08521345e-02	8.62872022e-02	2.54350677e-01	7.03530872e-02	1.83997590e-01	-5.68222515e-02	-1.27175339e-02	7.35696683e-03	2.92619397e-21	7.35696683e-03	-7.35696683e-03
0.00058         	1.45125622e-01	5.98844162e-02	8.52412054e-02	2.53567893e-01	7.01789263e-02	1.83388966e-01	-5.66050200e-02	-1.26783946e-02	7.25628108e-03	2.90937066e-21	7.25628108e-03	-7.25628108e-03
0.0006          	1.43196913e-01	5.89574512e-02	8.42394617e-02	2.52820105e-01	7.00233621e-02	1.82796743e-01	-5.63866903e-02	-1.26410052e-02	7.15984564e-03	2.89321163e-21	7.15984564e-03	-7.15984564e-03
0.00062         	1.41331456e-01	5.80617891e-02	8.32696674e-02	2.52078783e-01	6.98770525e-02	1.82201730e-01	-5.61623390e-02	-1.26039391e-02	7.06657282e-03	2.87806886e-21	7.06657282e-03	-7.06657282e-03
0.00064         	1.39516204e-01	5.71910445e-02	8.23251599e-02	2.51341154e-01	6.97353267e-02	1.81605827e-01	-5.59352501e-02	-1.25670577e-02	6.97581022e-03	2.86341381e-21	6.97581022e-03	-6.97581022e-03
0.00066         	1.37742938e-01	5.63410424e-02	8.14018952e-02	2.50608527e-01	6.95958037e-02	1.81012724e-01	-5.57084599e-02	-1.25304264e-02	6.88714688e-03	2.84938347e-21	6.88714688e-03	-6.88714688e-03
0.00068         	1.36008334e-01	5.55102222e-02	8.04981119e-02	2.49878897e-01	6.94579098e-02	1.80420987e-01	-5.54815388e-02	-1.24939449e-02	6.80041671e-03	2.83577447e-21	6.80041671e-03	-6.80041671e-03
0.0007          	1.34316286e-01	5.47006239e-02	7.96156621e-02	2.49150382e-01	6.93220324e-02	1.79828349e-01	-5.52531584e-02	-1.24575191e-02	6.71581430e-03	2.82260427e-21	6.71581430e-03	-6.71581430e-03
0.00072         	1.32676195e-01	5.39168682e-02	7.87593271e-02	2.48424588e-01	6.91909926e-02	1.79233596e-01	-5.50213015e-02	-1.24212294e-02	6.63380977e-03	2.81107206e-21	6.63380977e-03	-6.63380977e-03
0.00074         	1.31095629e-01	5.31624126e-02	7.79332166e-02	2.47708040e-01	6.90687870e-02	1.78639253e-01	-5.47852330e-02	-1.23854020e-02	6.55478146e-03	2.79745348e-21	6.55478146e-03	-6.55478146e-03
0.00076         	1.29580636e-01	5.24400157e-02	7.71406203e-02	2.47006046e-01	6.89580724e-02	1.78047973e-01	-5.45449505e-02	-1.23503023e-02	6.47903180e-03	2.78473590e-21	6.47903180e-03	-6.47903180e-03
0.00078         	1.28131654e-01	5.17499590e-02	7.63816948e-02	2.46317358e-01	6.88578461e-02	1.77459512e-01	-5.43008331e-02	-1.23158679e-02	6.40658269e-03	2.77354151e-21	6.40658269e-03	-6.40658269e-03
0.0008          	1.26743843e-01	5.10901119e-02	7.56537312e-02	2.45636193e-01	6.87635420e-02	1.76872651e-01	-5.40545544e-02	-1.22818096e-02	6.33719215e-03	2.76249075e-21	6.33719215e-03	-6.33719215e-03
0.00082         	1.25406562e-01	5.04556550e-02	7.49509066e-02	2.44952516e-01	6.86685831e-02	1.76283933e-01	-5.38076747e-02	-1.22476258e-02	6.27032808e-03	2.75182364e-21	6.27032808e-03	-6.27032808e-03
0.00084         	1.24108970e-01	4.98417265e-02	7.42672439e-02	2.44255175e-01	6.85653970e-02	1.75689778e-01	-5.35621904e-02	-1.22127587e-02	6.20544852e-03	2.74078454e-21	6.20544852e-03	-6.20544852e-03
0.00086         	1.22840574e-01	4.92434574e-02	7.35971168e-02	2.43536595e-01	6.84490000e-02	1.75087595e-01	-5.33192973e-02	-1.21768297e-02	6.14202871e-03	2.73075584e-21	6.14202871e-03	-6.14202871e-03
0.00088         	1.21593571e-01	4.86570461e-02	7.29365252e-02	2.42794791e-01	6.83184329e-02	1.74476358e-01	-5.30789624e-02	-1.21397395e-02	6.07967856e-03	2.72105446e-21	6.07967856e-03	-6.07967856e-03
0.0009          	1.20364798e-01	4.80806942e-02	7.22841040e-02	2.42034098e-01	6.81771978e-02	1.73856900e-01	-5.28398510e-02	-1.21017049e-02	6.01823991e-03	2.71165713e-21	6.01823991e-03	-6.01823991e-03
0.00092         	1.19154856e-01	4.75143003e-02	7.16405562e-02	2.41262559e-01	6.80316140e-02	1.73230945e-01	-5.25996657e-02	-1.20631280e-02	5.95774282e-03	2.70292919e-21	5.95774282e-03	-5.95774282e-03
0.00094         	1.17966427e-01	4.69587081e-02	7.10077190e-02	2.40490109e-01	6.78891824e-02	1.72600927e-01	-5.23558722e-02	-1.20245055e-02	5.89832136e-03	2.69458463e-21	5.89832136e-03	-5.89832136e-03
0.00096         	1.16802261e-01	4.64148317e-02	7.03874296e-02	2.39725979e-01	6.77563534e-02	1.71969626e-01	-5.21066361e-02	-1.19862990e-02	5.84011307e-03	2.68637219e-21	5.84011307e-03	-5.84011307e-03
0.00098         	1.15664044e-01	4.58831370e-02	6.97809074e-02	2.38977704e-01	6.76379475e-02	1.71339756e-01	-5.18509044e-02	-1.19488852e-02	5.78320222e-03	2.67847385e-21	5.78320222e-03	-5.78320222e-03
0.001           	1.14552075e-01	4.53635767e-02	6.91884982e-02	2.38249215e-01	6.75362656e-02	1.70712949e-01	-5.15883419e-02	-1.19124608e-02	5.72760375e-03	2.67078223e-21	5.72760375e-03	-5.72760375e-03
0.00102         	1.13464101e-01	4.48549878e-02	6.86091131e-02	2.37541254e-01	6.74515356e-02	1.70089718e-01	-5.13190913e-02	-1.18770627e-02	5.67320504e-03	2.66329348e-21	5.67320504e-03	-5.67320504e-03
0.00104         	1.12398278e-01	4.43565628e-02	6.80417153e-02	2.36851524e-01	6.73816698e-02	1.69469855e-01	-5.10440924e-02	-1.18425762e-02	5.61991391e-03	2.65570407e-21	5.61991391e-03	-5.61991391e-03
0.00106         	1.11352856e-01	4.38676249e-02	6.74852311e-02	2.36176062e-01	6.73237141e-02	1.68852348e-01	-5.07643170e-02	-1.18088031e-02	5.56764280e-03	2.64947570e-21	5.56764280e-03	-5.56764280e-03
0.00108         	1.10327160e-01	4.33879915e-02	6.69391686e-02	2.35511771e-01	6.72741035e-02	1.68237668e-01	-5.04817820e-02	-1.17755886e-02	5.51635801e-03	2.64018447e-21	5.51635801e-03	-5.51635801e-03
0.0011          	1.09322412e-01	4.29185665e-02	6.64038457e-02	2.34852793e-01	6.72290389e-02	1.67623754e-01	-5.01973575e-02	-1.17426396e-02	5.46612061e-03	2.63322687e-21	5.46612061e-03	-5.46612061e-03
0.00112         	1.08340114e-01	4.24603543e-02	6.58797600e-02	2.34194057e-01	6.71854010e-02	1.67008656e-01	-4.99116273e-02	-1.17097028e-02	5.41700571e-03	2.62628621e-21	5.41700571e-03	-5.41700571e-03
0.00114         	1.07382176e-01	4.20144862e-02	6.53676900e-02	2.33532038e-01	6.71404979e-02	1.66391540e-01	-4.96255212e-02	-1.16766019e-02	5.36910881e-03	2.61972847e-21	5.36910881e-03	-5.36910881e-03
0.00116         	1.06449942e-01	4.15817521e-02	6.48681900e-02	2.32864379e-01	6.70924459e-02	1.65771933e-01	-4.93397435e-02	-1.16432189e-02	5.32249710e-03	2.61330453e-21	5.32249710e-03	-5.32249710e-03
0.00118         	1.05543340e-01	4.11621762e-02	6.43811637e-02	2.32189874e-01	6.70405805e-02	1.65149294e-01	-4.90543567e-02	-1.16094937e-02	5.27716700e-03	2.60651905e-21	5.27716700e-03	-5.27716700e-03
0.0012          	1.04660767e-01	4.07549472e-02	6.39058194e-02	2.31508723e-01	6.69853366e-02	1.64523386e-01	-4.87690247e-02	-1.15754361e-02	5.23303833e-03	2.60071133e-21	5.23303833e-03	-5.23303833e-03
0.00122         	1.03799653e-01	4.03586845e-02	6.34409685e-02	2.30822839e-01	6.69283906e-02	1.63894449e-01	-4.84830291e-02	-1.15411420e-02	5.18998265e-03	2.59576780e-21	5.18998265e-03	-5.18998265e-03
0.00124         	1.02957081e-01	3.99717635e-02	6.29853180e-02	2.30135544e-01	6.68720995e-02	1.63263445e-01	-4.81956726e-02	-1.15067772e-02	5.14785407e-03	2.59062602e-21	5.14785407e-03	-5.14785407e-03
0.00126         	1.02130671e-01	3.95928333e-02	6.25378374e-02	2.29450041e-01	6.68190110e-02	1.62631030e-01	-4.79060095e-02	-1.14725020e-02	5.10653353e-03	2.58542851e-21	5.10653353e-03	-5.10653353e-03
0.00128         	1.01318860e-01	3.92209536e-02	6.20979068e-02	2.28769532e-01	6.67714084e-02	1.61998124e-01	-4.76133577e-02	-1.14384766e-02	5.06594302e-03	2.58027689e-21	5.06594302e-03	-5.06594302e-03
0.0013          	1.00521155e-01	3.88557706e-02	6.16653840e-02	2.28096134e-01	6.67311009e-02	1.61365033e-01	-4.73169659e-02	-1.14048067e-02	5.02605773e-03	2.57515691e-21	5.02605773e-03	-5.02605773e-03
0.00132         	9.97378641e-02	3.84974050e-02	6.12404591e-02	2.27430541e-01	6.66986378e-02	1.60731903e-01	-4.70166325e-02	-1.13715270e-02	4.98689320e-03	2.56984311e-21	4.98689320e-03	-4.98689320e-03
0.00134         	9.89696242e-02	3.81461660e-02	6.08234582e-02	2.26772922e-01	6.66741737e-02	1.60098748e-01	-4.67122871e-02	-1.13386461e-02	4.94848121e-03	2.56477333e-21	4.94848121e-03	-4.94848121e-03
0.00136         	9.82170595e-02	3.78024132e-02	6.04146463e-02	2.26122331e-01	6.66569577e-02	1.59465374e-01	-4.64042080e-02	-1.13061166e-02	4.91085298e-03	2.55912481e-21	4.91085298e-03	-4.91085298e-03
0.00138         	9.74802443e-02	3.74662452e-02	6.00139991e-02	2.25477539e-01	6.66460823e-02	1.58831457e-01	-4.60926872e-02	-1.12738769e-02	4.87401221e-03	2.55269292e-21	4.87401221e-03	-4.87401221e-03
0.0014          	9.67593033e-02	3.71377822e-02	5.96215211e-02	2.24837388e-01	6.66406258e-02	1.58196762e-01	-4.57780683e-02	-1.12418694e-02	4.83796516e-03	2.54528749e-21	4.83796516e-03	-4.83796516e-03
0.00142         	9.60537266e-02	3.68167977e-02	5.92369289e-02	2.24201312e-01	6.66398866e-02	1.57561426e-01	-4.54607695e-02	-1.12100656e-02	4.80268633e-03	2.53721237e-21	4.80268633e-03	-4.80268633e-03
0.00144         	9.53625600e-02	3.65028304e-02	5.88597296e-02	2.23568992e-01	6.66436853e-02	1.56925307e-01	-4.51408108e-02	-1.11784496e-02	4.76812800e-03	2.52907376e-21	4.76812800e-03	-4.76812800e-03
0.00146         	9.46850091e-02	3.61954392e-02	5.84895699e-02	2.22941307e-01	6.66523818e-02	1.56288925e-01	-4.48182718e-02	-1.11470654e-02	4.73425046e-03	2.51778119e-21	4.73425046e-03	-4.73425046e-03
0.00148         	9.40204235e-02	3.58942546e-02	5.81261689e-02	2.22319143e-01	6.66660410e-02	1.55653102e-01	-4.44935305e-02	-1.11159571e-02	4.70102117e-03	2.50802857e-21	4.70102117e-03	-4.70102117e-03
0.0015          	9.33683908e-02	3.55990714e-02	5.77693194e-02	2.21702480e-01	6.66852066e-02	1.55017273e-01	-4.41660334e-02	-1.10851240e-02	4.66841954e-03	2.49634301e-21	4.66841954e-03	-4.66841954e-03
0.00152         	9.27286295e-02	3.53096737e-02	5.74189558e-02	2.21092821e-01	6.67106515e-02	1.54382170e-01	-4.38357591e-02	-1.10546411e-02	4.63643147e-03	2.48422851e-21	4.63643147e-03	-4.63643147e-03
0.00154         	9.21009362e-02	3.50259075e-02	5.70750287e-02	2.20491212e-01	6.67426797e-02	1.53748532e-01	-4.35029262e-02	-1.10245606e-02	4.60504681e-03	2.47052884e-21	4.60504681e-03	-4.60504681e-03
0.00156         	9.14851512e-02	3.47476302e-02	5.67375209e-02	2.19898907e-01	6.67816498e-02	1.53117257e-01	-4.31678038e-02	-1.09949454e-02	4.57425756e-03	2.45567823e-21	4.57425756e-03	-4.57425756e-03
0.00158         	9.08811627e-02	3.44747656e-02	5.64063971e-02	2.19316315e-01	6.68274105e-02	1.52488904e-01	-4.28307469e-02	-1.09658157e-02	4.54405813e-03	2.44010248e-21	4.54405813e-03	-4.54405813e-03
0.0016          	9.02888508e-02	3.42072552e-02	5.60815956e-02	2.18743404e-01	6.68795302e-02	1.51863874e-01	-4.24921718e-02	-1.09371702e-02	4.51444254e-03	2.42327413e-21	4.51444254e-03	-4.51444254e-03
0.00162         	8.97080865e-02	3.39450762e-02	5.57630103e-02	2.18179341e-01	6.69371038e-02	1.51242237e-01	-4.21525666e-02	-1.09089670e-02	4.48540433e-03	2.40557229e-21	4.48540433e-03	-4.48540433e-03
0.00164         	8.91384359e-02	3.36880425e-02	5.54503934e-02	2.17623508e-01	6.69994901e-02	1.50624018e-01	-4.18122642e-02	-1.08811754e-02	4.45692179e-03	2.38716383e-21	4.45692179e-03	-4.45692179e-03
0.00166         	8.85797289e-02	3.34360936e-02	5.51436354e-02	2.17075418e-01	6.70661737e-02	1.50009245e-01	-4.14715354e-02	-1.08537709e-02	4.42898645e-03	2.36811897e-21	4.42898645e-03	-4.42898645e-03
0.00168         	8.80318057e-02	3.31891462e-02	5.48426595e-02	2.16535134e-01	6.71370445e-02	1.49398089e-01	-4.11305222e-02	-1.08267567e-02	4.40159028e-03	2.34802941e-21	4.40159028e-03	-4.40159028e-03
0.0017          	8.74946154e-02	3.29471822e-02	5.45474332e-02	2.16002511e-01	6.72117954e-02	1.48790715e-01	-4.07894599e-02	-1.08001255e-02	4.37473077e-03	2.32734486e-21	4.37473077e-03	-4.37473077e-03
0.00172         	8.69681199e-02	3.27101765e-02	5.42579434e-02	2.15477669e-01	6.72903487e-02	1.48187320e-01	-4.04484857e-02	-1.07738834e-02	4.34840600e-03	2.30652561e-21	4.34840600e-03	-4.34840600e-03
0.00174         	8.64523496e-02	3.24781305e-02	5.39742191e-02	2.14960886e-01	6.73727645e-02	1.47588121e-01	-4.01076784e-02	-1.07480443e-02	4.32261748e-03	2.28441241e-21	4.32261748e-03	-4.32261748e-03
0.00176         	8.59473378e-02	3.22510342e-02	5.36963036e-02	2.14452695e-01	6.74592930e-02	1.46993402e-01	-3.97670544e-02	-1.07226347e-02	4.29736689e-03	2.26190268e-21	4.29736689e-03	-4.29736689e-03
0.00178         	8.54530800e-02	3.20288583e-02	5.34242217e-02	2.13953633e-01	6.75501583e-02	1.46403475e-01	-3.94266584e-02	-1.06976817e-02	4.27265400e-03	2.23856363e-21	4.27265400e-03	-4.27265400e-03
0.0018          	8.49695753e-02	3.18115666e-02	5.31580088e-02	2.13464422e-01	6.76455282e-02	1.45818894e-01	-3.90866828e-02	-1.06732211e-02	4.24847877e-03	2.21514432e-21	4.24847877e-03	-4.24847877e-03
0.00182         	8.44967626e-02	3.15991095e-02	5.28976530e-02	2.12985435e-01	6.77454322e-02	1.45240003e-01	-3.87472852e-02	-1.06492717e-02	4.22483813e-03	2.19139695e-21	4.22483813e-03	-4.22483813e-03
0.00184         	8.40344535e-02	3.13913801e-02	5.26430734e-02	2.12516933e-01	6.78496091e-02	1.44667324e-01	-3.84088575e-02	-1.06258467e-02	4.20172268e-03	2.16726324e-21	4.20172268e-03	-4.20172268e-03
0.00186         	8.35822905e-02	3.11881901e-02	5.23941004e-02	2.12059102e-01	6.79577307e-02	1.44101372e-01	-3.80718206e-02	-1.06029551e-02	4.17911453e-03	2.14313930e-21	4.17911453e-03	-4.17911453e-03
0.00188         	8.31397631e-02	3.09892847e-02	5.21504784e-02	2.11611937e-01	6.80693657e-02	1.43542572e-01	-3.77366030e-02	-1.05805969e-02	4.15698816e-03	2.11933892e-21	4.15698816e-03	-4.15698816e-03
0.0019          	8.27062102e-02	3.07943360e-02	5.19118742e-02	2.11175382e-01	6.81841663e-02	1.42991216e-01	-3.74035248e-02	-1.05587691e-02	4.13531051e-03	2.09526165e-21	4.13531051e-03	-4.13531051e-03
0.00192         	8.22811532e-02	3.06030841e-02	5.16780691e-02	2.10749850e-01	6.83016319e-02	1.42448218e-01	-3.70732933e-02	-1.05374925e-02	4.11405766e-03	2.07082654e-21	4.11405766e-03	-4.11405766e-03
0.00194         	8.18639559e-02	3.04152044e-02	5.14487515e-02	2.10335471e-01	6.84216706e-02	1.41913800e-01	-3.67460647e-02	-1.05167735e-02	4.09319780e-03	2.04578937e-21	4.09319780e-03	-4.09319780e-03
0.00196         	8.14539612e-02	3.02303992e-02	5.12235619e-02	2.09931627e-01	6.85439933e-02	1.41387634e-01	-3.64218203e-02	-1.04965814e-02	4.07269806e-03	2.02224195e-21	4.07269806e-03	-4.07269806e-03
0.00198         	8.10510048e-02	3.00485924e-02	5.10024124e-02	2.09538201e-01	6.86683102e-02	1.40869890e-01	-3.61007901e-02	-1.04769100e-02	4.05255024e-03	1.99913955e-21	4.05255024e-03	-4.05255024e-03
0.002           	8.06549341e-02	2.98697004e-02	5.07852337e-02	2.09155332e-01	6.87944368e-02	1.40360895e-01	-3.57832293e-02	-1.04577666e-02	4.03274671e-03	1.97615637e-21	4.03274671e-03	-4.03274671e-03
0.00202         	8.02656571e-02	2.96936775e-02	5.05719796e-02	2.08783022e-01	6.89224397e-02	1.39860582e-01	-3.54690712e-02	-1.04391511e-02	4.01328286e-03	1.95457769e-21	4.01328286e-03	-4.01328286e-03
0.00204         	7.98831808e-02	2.95205214e-02	5.03626594e-02	2.08421380e-01	6.90524600e-02	1.39368920e-01	-3.51582299e-02	-1.04210690e-02	3.99415904e-03	1.93448113e-21	3.99415904e-03	-3.99415904e-03
0.00206         	7.95076276e-02	2.93503133e-02	5.01573143e-02	2.08070010e-01	6.91845745e-02	1.38885436e-01	-3.48504306e-02	-1.04035005e-02	3.97538138e-03	1.91461966e-21	3.97538138e-03	-3.97538138e-03
0.00208         	7.91391001e-02	2.91831171e-02	4.99559831e-02	2.07728660e-01	6.93188370e-02	1.38409823e-01	-3.45454930e-02	-1.03864330e-02	3.95695501e-03	1.89583093e-21	3.95695501e-03	-3.95695501e-03
0.0021          	7.87776693e-02	2.90190002e-02	4.97586691e-02	2.07396689e-01	6.94553389e-02	1.37941350e-01	-3.42430056e-02	-1.03698345e-02	3.93888347e-03	1.87836395e-21	3.93888347e-03	-3.93888347e-03
0.00212         	7.84234332e-02	2.88580413e-02	4.95653919e-02	2.07073506e-01	6.95940599e-02	1.37479447e-01	-3.39426933e-02	-1.03536753e-02	3.92117166e-03	1.86146980e-21	3.92117166e-03	-3.92117166e-03
0.00214         	7.80763546e-02	2.87002447e-02	4.93761099e-02	2.06758651e-01	6.97351585e-02	1.37023493e-01	-3.36441672e-02	-1.03379326e-02	3.90381773e-03	1.84583698e-21	3.90381773e-03	-3.90381773e-03
0.00216         	7.77363818e-02	2.85456418e-02	4.91907400e-02	2.06450981e-01	6.98785349e-02	1.36572446e-01	-3.33469558e-02	-1.03225491e-02	3.88681909e-03	1.83146727e-21	3.88681909e-03	-3.88681909e-03
0.00218         	7.74034352e-02	2.83942396e-02	4.90091956e-02	2.06149560e-01	7.00240435e-02	1.36125517e-01	-3.30507366e-02	-1.03074780e-02	3.87017176e-03	1.81788635e-21	3.87017176e-03	-3.87017176e-03
0.0022          	7.70774183e-02	2.82460468e-02	4.88313715e-02	2.05853247e-01	7.01713299e-02	1.35681917e-01	-3.27552934e-02	-1.02926623e-02	3.85387091e-03	1.80531031e-21	3.85387091e-03	-3.85387091e-03
0.00222         	7.67581748e-02	2.81010525e-02	4.86571223e-02	2.05560698e-01	7.03199253e-02	1.35240773e-01	-3.24604238e-02	-1.02780349e-02	3.83790874e-03	1.79356228e-21	3.83790874e-03	-3.83790874e-03
0.00224         	7.64455474e-02	2.79592142e-02	4.84863332e-02	2.05271190e-01	7.04695218e-02	1.34801668e-01	-3.21660733e-02	-1.02635595e-02	3.82227737e-03	1.78260798e-21	3.82227737e-03	-3.82227737e-03
0.00226         	7.61392033e-02	2.78204024e-02	4.83188010e-02	2.04983986e-01	7.06198793e-02	1.34364106e-01	-3.18721135e-02	-1.02491993e-02	3.80696017e-03	1.77291952e-21	3.80696017e-03	-3.80696017e-03
0.00228         	7.58388175e-02	2.76844805e-02	4.81543371e-02	2.04698566e-01	7.07707984e-02	1.33927768e-01	-3.15784848e-02	-1.02349283e-02	3.79194088e-03	1.76383254e-21	3.79194088e-03	-3.79194088e-03
0.0023          	7.55419410e-02	2.75503762e-02	4.79915647e-02	2.04411885e-01	7.09238780e-02	1.33488007e-01	-3.12820643e-02	-1.02205942e-02	3.77709705e-03	1.75613118e-21	3.77709705e-03	-3.77709705e-03
0.00232         	7.52548625e-02	2.74209935e-02	4.78338690e-02	2.04128755e-01	7.10740999e-02	1.33054655e-01	-3.09902775e-02	-1.02064377e-02	3.76274312e-03	1.74769462e-21	3.76274312e-03	-3.76274312e-03
0.00234         	7.49716750e-02	2.72934417e-02	4.76782333e-02	2.03847917e-01	7.12248111e-02	1.32623105e-01	-3.06991471e-02	-1.01923958e-02	3.74858375e-03	1.74051595e-21	3.74858375e-03	-3.74858375e-03
0.00236         	7.46910435e-02	2.71672470e-02	4.75237965e-02	2.03565495e-01	7.13772185e-02	1.32188277e-01	-3.04055291e-02	-1.01782748e-02	3.73455217e-03	1.73548626e-21	3.73455217e-03	-3.73455217e-03
0.00238         	7.44198556e-02	2.70455302e-02	4.73743253e-02	2.03287951e-01	7.15278647e-02	1.31760086e-01	-3.01161108e-02	-1.01643976e-02	3.72099278e-03	1.72904582e-21	3.72099278e-03	-3.72099278e-03
0.0024          	7.41523505e-02	2.69254699e-02	4.72268805e-02	2.03014106e-01	7.16798317e-02	1.31334274e-01	-2.98272212e-02	-1.01507053e-02	3.70761752e-03	1.72283016e-21	3.70761752e-03	-3.70761752e-03
0.00242         	7.38873137e-02	2.68066163e-02	4.70806974e-02	2.02740811e-01	7.18342993e-02	1.30906512e-01	-2.95361062e-02	-1.01370405e-02	3.69436569e-03	1.72008655e-21	3.69436569e-03	-3.69436569e-03
0.00244         	7.36319568e-02	2.66922812e-02	4.69396756e-02	2.02473944e-01	7.19875670e-02	1.30486377e-01	-2.92494052e-02	-1.01236972e-02	3.68159784e-03	1.71526032e-21	3.68159784e-03	-3.68159784e-03
0.00246         	7.33804525e-02	2.65796064e-02	4.68008461e-02	2.02212397e-01	7.21425908e-02	1.30069806e-01	-2.89636078e-02	-1.01106199e-02	3.66902263e-03	1.71046867e-21	3.66902263e-03	-3.66902263e-03
0.00248         	7.31314897e-02	2.64680616e-02	4.66634281e-02	2.01953665e-01	7.23007229e-02	1.29652943e-01	-2.86761098e-02	-1.00976833e-02	3.65657448e-03	1.70835265e-21	3.65657448e-03	-3.65657448e-03
0.0025          	7.28919556e-02	2.63608926e-02	4.65310630e-02	2.01701703e-01	7.24578019e-02	1.29243901e-01	-2.83930497e-02	-1.00850852e-02	3.64459778e-03	1.70440650e-21	3.64459778e-03	-3.64459778e-03
0.00252         	7.26559563e-02	2.62551902e-02	4.64007661e-02	2.01455759e-01	7.26167899e-02	1.28838969e-01	-2.81110896e-02	-1.00727880e-02	3.63279781e-03	1.70052245e-21	3.63279781e-03	-3.63279781e-03
0.00254         	7.24220731e-02	2.61502595e-02	4.62718137e-02	2.01215542e-01	7.27791653e-02	1.28436376e-01	-2.78286056e-02	-1.00607771e-02	3.62110366e-03	1.69978758e-21	3.62110366e-03	-3.62110366e-03
0.00256         	7.21971672e-02	2.60495144e-02	4.61476528e-02	2.00981384e-01	7.29406292e-02	1.28040754e-01	-2.75500626e-02	-1.00490692e-02	3.60985836e-03	1.69719121e-21	3.60985836e-03	-3.60985836e-03
0.00258         	7.19755886e-02	2.59501139e-02	4.60254748e-02	2.00753609e-01	7.31040797e-02	1.27649529e-01	-2.72727247e-02	-1.00376804e-02	3.59877943e-03	1.69275732e-21	3.59877943e-03	-3.59877943e-03
0.0026          	7.17561338e-02	2.58514931e-02	4.59046407e-02	2.00531477e-01	7.32707825e-02	1.27260694e-01	-2.69949560e-02	-1.00265738e-02	3.58780669e-03	1.69262922e-21	3.58780669e-03	-3.58780669e-03
0.00262         	7.15456691e-02	2.57571586e-02	4.57885105e-02	2.00313518e-01	7.34362118e-02	1.26877307e-01	-2.67205474e-02	-1.00156759e-02	3.57728346e-03	1.69013993e-21	3.57728346e-03	-3.57728346e-03
0.00264         	7.13365305e-02	2.56632235e-02	4.56733069e-02	2.00100834e-01	7.36045569e-02	1.26496277e-01	-2.64458600e-02	-1.00050417e-02	3.56682652e-03	1.69012557e-21	3.56682652e-03	-3.56682652e-03
0.00266         	7.11355768e-02	2.55732456e-02	4.55623312e-02	1.99890856e-01	7.37712734e-02	1.26119583e-01	-2.61741548e-02	-9.99454282e-03	3.55677884e-03	1.68783567e-21	3.55677884e-03	-3.55677884e-03
0.00268         	7.09344644e-02	2.54834954e-02	4.54509690e-02	1.99674737e-01	7.39408930e-02	1.25733844e-01	-2.58964753e-02	-9.98373683e-03	3.54672322e-03	1.68764717e-21	3.54672322e-03	-3.54672322e-03
0.0027          	7.07428810e-02	2.53978021e-02	4.53450789e-02	1.99472767e-01	7.41083022e-02	1.25364465e-01	-2.56280814e-02	-9.97363836e-03	3.53714405e-03	1.68591955e-21	3.53714405e-03	-3.53714405e-03
0.00272         	7.05525542e-02	2.53124198e-02	4.52401344e-02	1.99277145e-01	7.42777257e-02	1.24999420e-01	-2.53608469e-02	-9.96385726e-03	3.52762771e-03	1.68616814e-21	3.52762771e-03	-3.52762771e-03
0.00274         	7.03696757e-02	2.52307304e-02	4.51389453e-02	1.99082149e-01	7.44454639e-02	1.24636685e-01	-2.50956105e-02	-9.95410745e-03	3.51848378e-03	1.68450276e-21	3.51848378e-03	-3.51848378e-03
0.00276         	7.01859490e-02	2.51489827e-02	4.50369663e-02	1.98879836e-01	7.46156014e-02	1.24264234e-01	-2.48243164e-02	-9.94399178e-03	3.50929745e-03	1.68421471e-21	3.50929745e-03	-3.50929745e-03
0.00278         	7.00106715e-02	2.50708159e-02	4.49398557e-02	1.98690398e-01	7.47837566e-02	1.23906642e-01	-2.45614425e-02	-9.93451991e-03	3.50053358e-03	1.68232573e-21	3.50053358e-03	-3.50053358e-03
0.0028          	6.98358945e-02	2.49926074e-02	4.48432871e-02	1.98506797e-01	7.49535042e-02	1.23553293e-01	-2.42998942e-02	-9.92533984e-03	3.49179472e-03	1.68161195e-21	3.49179472e-03	-3.49179472e-03
0.00282         	6.96672644e-02	2.49177849e-02	4.47494795e-02	1.98316946e-01	7.51221806e-02	1.23194765e-01	-2.40362921e-02	-9.91584728e-03	3.48336322e-03	1.67971680e-21	3.48336322e-03	-3.48336322e-03
0.00284         	6.95002116e-02	2.48431141e-02	4.46570974e-02	1.98139833e-01	7.52916248e-02	1.22848208e-01	-2.37782916e-02	-9.90699164e-03	3.47501058e-03	1.67860385e-21	3.47501058e-03	-3.47501058e-03
0.00286         	6.93404399e-02	2.47719163e-02	4.45685236e-02	1.97966073e-01	7.54595012e-02	1.22506572e-01	-2.35235355e-02	-9.89830367e-03	3.46702199e-03	1.67686099e-21	3.46702199e-03	-3.46702199e-03
0.00288         	6.91797377e-02	2.47004631e-02	4.44792746e-02	1.97788115e-01	7.56291816e-02	1.22158933e-01	-2.32648757e-02	-9.88940573e-03	3.45898688e-03	1.67559282e-21	3.45898688e-03	-3.45898688e-03
0.0029          	6.90275237e-02	2.46325640e-02	4.43949597e-02	1.97623956e-01	7.57970785e-02	1.21826878e-01	-2.30148997e-02	-9.88119782e-03	3.45137619e-03	1.67391732e-21	3.45137619e-03	-3.45137619e-03