/*--------------------------------*- C++ -*----------------------------------*\
| =========                 |                                                 |
| \\      /  F ield         | OpenFOAM: The Open Source CFD Toolbox           |
|  \\    /   O peration     | Version:  2306                                  |
|   \\  /    A nd           | Website:  www.openfoam.com                      |
|    \\/     M anipulation  |                                                 |
\*---------------------------------------------------------------------------*/
FoamFile
{
    version     2.0;
    format      ascii;
    arch        "LSB;label=32;scalar=64";
    class       volScalarField;
    location    "825";
    object      div(phi);
}
// * * * * * * * * * * * * * * * * * * * * * * * * * * * * * * * * * * * * * //

dimensions      [0 0 -1 0 0 0 0];

internalField   nonuniform List<scalar> 
1340
(
6.81578e-06
1.29129e-06
5.81002e-08
8.78717e-09
-5.23737e-07
-3.55972e-07
-6.72808e-07
-3.95528e-07
-5.80199e-07
-3.28358e-07
-6.25766e-07
-2.78634e-07
-7.12672e-07
-7.50961e-08
-4.14141e-07
1.04866e-06
1.67568e-06
1.85514e-06
1.80012e-06
1.25615e-06
1.1835e-06
-1.69279e-06
2.88116e-06
1.07614e-06
1.48465e-06
1.49774e-06
2.52968e-06
2.60445e-06
5.11483e-06
1.17233e-06
3.30808e-07
1.36007e-07
-1.51596e-07
-3.11633e-07
-4.72071e-07
-6.90021e-07
-5.96019e-07
-7.05235e-07
-5.12564e-07
-6.65065e-07
-4.421e-07
-6.32314e-07
-2.35873e-07
-3.17411e-07
6.90354e-07
1.10781e-06
1.56695e-06
1.50216e-06
1.47913e-06
1.06749e-06
-1.20466e-06
2.21036e-06
8.90404e-07
1.41187e-06
1.36842e-06
2.65013e-06
2.58269e-06
1.23166e-06
3.87881e-08
-8.49891e-08
5.41947e-09
-1.48681e-07
-1.46862e-07
-5.12686e-07
-4.52846e-07
-6.21148e-07
-4.32296e-07
-5.03486e-07
-4.26624e-07
-4.30721e-07
-4.58628e-07
-2.71131e-07
-2.04535e-07
6.3963e-07
1.22827e-06
1.64028e-06
1.50261e-06
1.50741e-06
9.89681e-07
-1.14155e-06
2.34774e-06
9.68006e-07
1.46803e-06
1.30389e-06
2.21081e-06
2.12123e-06
1.58309e-06
-2.11097e-07
-3.20818e-07
-1.16728e-07
-1.22327e-07
4.11496e-09
-2.00456e-07
-4.46522e-07
-5.91249e-07
-7.33765e-07
-6.07547e-07
-6.47543e-07
-4.99342e-07
-5.89591e-07
-4.20191e-07
-4.11311e-07
-1.3772e-07
2.58835e-07
8.15865e-07
1.10409e-06
1.41855e-06
1.44544e-06
1.1965e-06
-6.7529e-07
1.75502e-06
9.45055e-07
1.40717e-06
1.40944e-06
2.64227e-06
2.496e-06
3.14101e-07
-2.6708e-07
-4.60284e-07
-3.40948e-07
-4.97558e-08
2.00287e-08
-2.07755e-07
-3.51663e-07
-6.8639e-07
-5.76829e-07
-6.83362e-07
-4.47953e-07
-5.49148e-07
-3.89496e-07
-4.8478e-07
-2.66617e-07
-2.54912e-07
3.65775e-07
6.99368e-07
1.32878e-06
1.36571e-06
1.59663e-06
1.03572e-06
-4.03957e-07
1.46408e-06
9.69434e-07
1.20088e-06
1.22789e-06
1.75525e-06
1.76922e-06
1.68039e-06
9.60078e-08
-5.3222e-07
-4.45744e-07
-2.67206e-07
2.27678e-08
3.15711e-08
-1.01327e-07
-4.31813e-07
-6.38409e-07
-7.4554e-07
-6.83036e-07
-5.69505e-07
-5.80653e-07
-4.94447e-07
-4.71445e-07
-3.4716e-07
-2.00826e-07
7.04754e-08
4.66776e-07
7.59069e-07
1.22096e-06
1.32431e-06
1.34439e-06
-2.76574e-07
1.42848e-06
1.06099e-06
1.32658e-06
1.33825e-06
2.32937e-06
2.17153e-06
-3.35852e-07
1.3633e-07
-1.73176e-07
-4.79233e-07
-1.68251e-07
2.2735e-08
9.6072e-08
-7.94441e-08
-4.41841e-07
-6.08193e-07
-7.76338e-07
-5.97163e-07
-6.11978e-07
-4.55096e-07
-5.44717e-07
-3.43611e-07
-4.43144e-07
-1.11687e-07
-9.17557e-08
5.76812e-07
6.28367e-07
1.4234e-06
1.19872e-06
1.46355e-06
-4.00052e-07
1.3164e-06
7.38438e-07
1.12546e-06
9.18892e-07
1.45203e-06
1.22014e-06
1.14755e-06
8.11225e-08
-2.31586e-07
-3.35241e-07
-7.99489e-08
1.21113e-07
1.56171e-07
-9.74048e-08
-3.68606e-07
-6.93861e-07
-6.97196e-07
-6.58136e-07
-5.51396e-07
-5.629e-07
-4.85081e-07
-4.64017e-07
-3.15282e-07
-2.55308e-07
-3.30962e-08
1.91149e-07
4.87992e-07
8.95577e-07
1.13767e-06
1.23516e-06
2.78579e-08
1.24051e-06
1.3013e-06
1.38135e-06
1.33401e-06
2.0506e-06
1.9251e-06
2.69299e-06
-1.00196e-06
9.88532e-08
-2.52576e-08
-4.65183e-08
-7.22788e-08
1.76186e-07
1.62565e-07
-5.93394e-08
-3.86561e-07
-6.45528e-07
-6.68684e-07
-6.30914e-07
-5.17324e-07
-5.66359e-07
-4.39511e-07
-4.88559e-07
-2.85903e-07
-3.36281e-07
-2.78472e-08
5.83248e-08
5.33487e-07
7.44611e-07
1.21295e-06
1.03794e-06
-5.40757e-09
8.17726e-07
1.05631e-06
8.31428e-07
8.73546e-07
9.86965e-07
9.61898e-07
1.13971e-06
-9.66672e-08
8.59271e-08
-6.73262e-07
1.90201e-07
2.42773e-07
1.74612e-07
-3.59522e-08
-4.16374e-07
-5.7263e-07
-6.50655e-07
-5.23456e-07
-5.64487e-07
-4.83281e-07
-5.42646e-07
-3.71186e-07
-3.81085e-07
-1.99443e-07
-1.86154e-07
8.88156e-08
1.79535e-07
6.38326e-07
7.45521e-07
1.02501e-06
1.25721e-07
1.1719e-06
1.43807e-06
1.57127e-06
1.44442e-06
1.86196e-06
1.80962e-06
5.90385e-07
-7.36983e-07
8.01882e-09
1.6378e-07
3.34026e-07
2.2599e-07
-6.96499e-08
-3.42873e-07
-5.5755e-07
-5.41909e-07
-5.23361e-07
-5.0421e-07
-5.10605e-07
-5.02009e-07
-4.09824e-07
-3.73828e-07
-2.60651e-07
-2.3924e-07
5.71287e-09
7.94338e-08
5.42267e-07
5.754e-07
8.80762e-07
-1.22272e-07
7.72813e-07
8.80781e-07
1.07877e-06
6.17595e-07
8.3317e-07
6.21947e-07
2.24279e-07
-4.76884e-07
3.45979e-07
4.56201e-07
2.39042e-07
-7.31847e-08
-3.21166e-07
-4.87974e-07
-4.51503e-07
-4.86792e-07
-4.40121e-07
-5.53045e-07
-4.25932e-07
-4.48961e-07
-2.74376e-07
-3.11972e-07
-1.40628e-07
-1.25113e-07
9.32439e-08
2.55549e-07
4.91085e-07
5.8484e-07
2.49877e-07
9.46533e-07
1.50815e-06
1.66435e-06
1.67632e-06
1.81858e-06
1.75216e-06
1.98542e-07
2.98835e-07
3.56498e-07
1.62812e-07
-5.17789e-08
-3.21913e-07
-3.68638e-07
-4.35712e-07
-3.88931e-07
-4.87904e-07
-4.71298e-07
-4.92424e-07
-3.8663e-07
-3.63292e-07
-2.96102e-07
-2.66433e-07
-1.66354e-07
-7.44921e-08
1.46714e-07
2.39654e-07
3.84452e-07
-1.04552e-07
4.77118e-07
9.13481e-07
8.79797e-07
8.43843e-07
4.92873e-07
5.16232e-07
3.65741e-07
2.60331e-07
1.42607e-07
-9.17683e-08
-2.5999e-07
-3.16613e-07
-3.55196e-07
-3.54963e-07
-4.78203e-07
-4.44358e-07
-4.72686e-07
-3.36982e-07
-3.5373e-07
-2.32704e-07
-2.56842e-07
-1.205e-07
-1.07682e-07
1.10415e-07
1.49398e-07
3.32719e-07
1.55095e-07
8.20107e-07
1.26534e-06
1.72906e-06
1.75749e-06
1.96443e-06
1.76028e-06
2.92692e-07
9.43072e-08
-1.03287e-07
-1.87418e-07
-2.98054e-07
-2.63767e-07
-3.97446e-07
-3.91672e-07
-4.94433e-07
-3.8442e-07
-4.03713e-07
-3.03791e-07
-3.32008e-07
-2.62157e-07
-2.67244e-07
-1.76978e-07
-1.11673e-07
-8.64814e-09
-2.05231e-09
-1.14605e-07
2.28421e-07
6.44216e-07
8.38183e-07
7.1903e-07
5.24062e-07
2.95693e-07
1.54921e-07
2.49041e-08
-8.05156e-08
-1.50307e-07
-2.11939e-07
-2.53599e-07
-3.61476e-07
-4.02408e-07
-4.41096e-07
-3.62565e-07
-3.64179e-07
-2.67106e-07
-2.95368e-07
-1.95453e-07
-2.29753e-07
-9.38407e-08
-9.50736e-08
6.35066e-08
5.36121e-08
1.93045e-07
5.2516e-07
1.074e-06
1.48708e-06
1.81598e-06
1.99986e-06
1.85818e-06
6.76193e-08
1.57643e-08
-1.50604e-07
-1.39297e-07
-2.84812e-07
-2.92667e-07
-4.29951e-07
-3.43797e-07
-3.90565e-07
-2.84605e-07
-3.23535e-07
-2.55124e-07
-2.96208e-07
-2.46261e-07
-2.6769e-07
-1.71841e-07
-2.05694e-07
-1.1201e-07
-2.26942e-07
1.16822e-07
2.66772e-07
6.81e-07
5.39201e-07
5.02352e-07
4.20424e-08
9.30537e-08
-2.39979e-07
3.83246e-08
-1.11868e-07
-2.33779e-07
-3.17143e-07
-3.60532e-07
-3.33461e-07
-3.31505e-07
-2.63666e-07
-2.80992e-07
-2.08559e-07
-2.42053e-07
-1.55423e-07
-1.5134e-07
-8.16426e-08
-4.19004e-08
1.71208e-08
1.27114e-07
3.82022e-07
8.05144e-07
1.21172e-06
1.68705e-06
1.90939e-06
1.99281e-06
2.55643e-07
-6.94648e-10
-6.42062e-08
-1.57137e-07
-3.25285e-07
-2.65002e-07
-3.34164e-07
-2.33445e-07
-2.82898e-07
-2.04185e-07
-2.56043e-07
-2.04715e-07
-2.53776e-07
-1.75866e-07
-2.43575e-07
-1.4186e-07
-2.46412e-07
-1.07956e-07
-1.34137e-07
2.19057e-07
2.27049e-07
5.4336e-07
1.9283e-07
7.22504e-08
-2.91993e-07
1.95487e-07
1.60084e-08
-1.62234e-07
-2.33094e-07
-2.59951e-07
-2.5281e-07
-2.24295e-07
-2.2732e-07
-1.84375e-07
-2.05699e-07
-1.52898e-07
-1.1473e-07
-8.47459e-08
-6.04167e-08
-1.86287e-08
1.48993e-08
1.37566e-07
2.75301e-07
6.48254e-07
9.16765e-07
1.49413e-06
1.67919e-06
2.04398e-06
3.34458e-07
5.51967e-09
1.54193e-08
-1.74929e-07
-1.57854e-07
-2.41318e-07
-1.60538e-07
-2.17106e-07
-1.36227e-07
-1.89635e-07
-1.32284e-07
-1.62162e-07
-9.52637e-08
-1.4863e-07
-1.07745e-07
-1.56097e-07
-1.1976e-07
-1.46708e-07
-6.35104e-08
2.46043e-08
1.46193e-07
2.5045e-07
1.21613e-07
-7.50007e-08
1.79814e-07
-5.4588e-08
-9.75087e-08
-1.64339e-07
-1.57889e-07
-1.57343e-07
-1.40384e-07
-1.2896e-07
-1.3745e-07
-1.11901e-07
-5.67139e-08
-1.86955e-08
1.58012e-09
1.72259e-09
3.06323e-08
6.32938e-08
1.60142e-07
2.57647e-07
5.41387e-07
7.26004e-07
1.2566e-06
1.40777e-06
1.8676e-06
7.64863e-08
-7.76704e-08
-7.76171e-08
-1.60761e-07
-8.42348e-08
-1.44939e-07
-6.89839e-08
-1.18651e-07
-6.35731e-08
-6.53406e-08
5.10352e-09
-5.02878e-09
-4.01517e-09
-4.5713e-08
-4.32664e-08
-7.34095e-08
-3.55624e-08
-6.27333e-08
6.2344e-08
4.20168e-09
1.90034e-07
-7.6807e-08
-1.89836e-07
2.61973e-08
-8.72877e-08
-4.65956e-08
-1.82854e-07
-4.59343e-08
-7.64117e-08
-6.15647e-08
-5.06411e-08
2.65439e-09
5.01434e-08
9.48575e-08
7.07583e-08
6.95564e-08
7.30071e-08
1.22342e-07
1.83969e-07
2.77527e-07
4.69726e-07
6.12158e-07
1.03572e-06
1.13733e-06
1.63566e-06
-2.76862e-08
-3.42786e-08
-2.40995e-07
-8.55974e-08
-5.69824e-08
-2.2674e-08
-9.41524e-09
2.13943e-09
7.51757e-08
1.14544e-07
1.18292e-07
7.58401e-08
3.47291e-08
1.75134e-08
1.43549e-08
2.32532e-08
1.30212e-08
6.58629e-08
7.79523e-09
1.19028e-07
-1.43972e-07
-1.75892e-07
7.19814e-09
-2.79974e-07
-1.55254e-07
-1.61335e-07
1.58172e-08
-2.3179e-08
4.81367e-08
6.91042e-08
1.04445e-07
1.61371e-07
1.52011e-07
1.21199e-07
9.71024e-08
1.06484e-07
1.5281e-07
1.99313e-07
2.86972e-07
4.08245e-07
5.40906e-07
8.24037e-07
9.54769e-07
1.28797e-06
4.26434e-09
-3.8683e-07
2.7969e-08
-1.75414e-07
1.82574e-07
7.58002e-08
1.5199e-07
1.8508e-07
1.94252e-07
1.72865e-07
1.09692e-07
7.3497e-08
6.0687e-08
6.71889e-08
6.64829e-08
6.7648e-08
7.69207e-08
3.97017e-08
7.26181e-08
-1.14045e-07
-2.37629e-07
-7.82181e-07
2.66133e-08
-3.7099e-07
2.52253e-07
8.2929e-08
2.39994e-07
2.35475e-07
2.24686e-07
2.04432e-07
1.68787e-07
1.17058e-07
9.95311e-08
1.13148e-07
1.52791e-07
1.93061e-07
2.67922e-07
3.46325e-07
4.65039e-07
6.50345e-07
7.62477e-07
1.00725e-06
1.16943e-07
-4.13635e-07
9.87249e-09
1.1727e-07
2.04796e-07
3.64986e-07
2.83986e-07
2.30438e-07
2.171e-07
1.56713e-07
1.06856e-07
7.81083e-08
7.86791e-08
8.62683e-08
9.11684e-08
9.05702e-08
8.68878e-08
6.02489e-08
5.66867e-08
-8.43965e-08
-2.01367e-07
-4.06945e-07
1.63918e-07
-1.03814e-08
4.42451e-07
3.12522e-07
2.28766e-07
2.45287e-07
2.01106e-07
1.30876e-07
9.31086e-08
8.02631e-08
9.61573e-08
1.33347e-07
1.63605e-07
2.27327e-07
2.74367e-07
3.83225e-07
4.86796e-07
6.16472e-07
7.58479e-07
1.88271e-07
-2.05072e-07
2.7874e-07
2.63056e-07
1.89748e-07
2.64406e-07
2.56912e-07
2.02338e-07
1.37023e-07
8.00494e-08
6.74556e-08
7.33573e-08
8.78596e-08
9.04649e-08
9.73153e-08
8.24226e-08
7.5677e-08
4.98446e-08
-4.86344e-08
-1.50625e-07
1.3693e-07
9.99804e-08
1.81856e-07
1.58255e-07
3.06103e-07
1.83941e-07
2.38625e-07
1.3352e-07
7.18321e-08
4.95344e-08
7.94772e-08
9.00625e-08
1.35267e-07
1.59876e-07
2.15691e-07
2.8147e-07
3.61803e-07
4.55065e-07
5.83674e-07
-1.77605e-07
2.35701e-07
-8.05755e-08
3.22543e-07
4.85101e-08
3.18876e-07
2.30225e-07
1.44692e-07
7.38146e-08
5.90231e-08
5.78167e-08
7.728e-08
7.84228e-08
8.70387e-08
7.72543e-08
7.66808e-08
4.69119e-08
-1.56935e-08
-7.69389e-08
4.15969e-07
-2.38341e-07
2.01645e-07
-4.51096e-08
2.40387e-07
2.39593e-07
1.95449e-07
1.69739e-07
7.40462e-08
4.93154e-08
4.60922e-08
6.84618e-08
8.55801e-08
1.14046e-07
1.47232e-07
1.98753e-07
2.45287e-07
3.67786e-07
4.02012e-07
2.52682e-07
-3.8725e-08
1.13166e-07
1.01921e-07
2.06762e-07
2.67545e-07
1.68953e-07
9.06695e-08
4.3617e-08
5.53495e-08
5.29288e-08
6.98424e-08
6.58202e-08
7.45303e-08
6.54427e-08
7.02002e-08
3.02286e-08
-4.76491e-08
-1.78343e-07
1.3241e-07
-9.29116e-08
1.97042e-07
2.5327e-07
2.37062e-07
1.66778e-07
7.5826e-08
4.13596e-08
3.36249e-08
4.26539e-08
5.5703e-08
7.37884e-08
9.94248e-08
1.32057e-07
1.98419e-07
2.31037e-07
3.419e-07
3.84098e-07
-2.2502e-07
1.00367e-07
1.35178e-07
1.9739e-07
2.53917e-07
1.29289e-07
5.46206e-08
3.99174e-08
3.28795e-08
4.75943e-08
5.28908e-08
6.49556e-08
6.52254e-08
8.2777e-08
7.57556e-08
8.27826e-08
-1.18538e-07
1.58576e-07
6.85553e-09
1.04827e-07
2.69733e-07
1.46813e-07
4.1587e-08
2.69157e-08
2.16201e-08
2.15367e-08
3.23388e-08
4.57793e-08
5.75676e-08
7.59563e-08
1.06396e-07
1.36281e-07
1.33451e-07
5.01139e-07
-1.58046e-07
7.08511e-08
1.75162e-07
1.36498e-07
5.5158e-09
1.39305e-08
3.21397e-08
1.87758e-08
3.81326e-08
4.96634e-08
6.45483e-08
6.97519e-08
8.16305e-08
8.11878e-08
9.09167e-08
1.25047e-07
2.9787e-07
-2.52706e-09
8.88582e-08
-2.81969e-08
1.27981e-08
3.35216e-08
1.15786e-08
7.24843e-08
5.53177e-08
5.66342e-08
6.09085e-08
6.80802e-08
7.21514e-08
8.42358e-08
9.95745e-08
1.659e-07
1.62973e-07
-6.87822e-08
2.9411e-08
2.45567e-08
1.42827e-09
1.64576e-07
7.37926e-08
6.28219e-08
7.32149e-08
8.04789e-08
8.46218e-08
8.16679e-08
9.29638e-08
7.86727e-08
7.39088e-08
-2.0462e-07
5.56736e-08
3.48386e-08
1.43594e-08
2.59703e-07
6.4604e-08
4.83051e-08
5.55803e-08
6.89013e-08
7.49744e-08
7.08059e-08
6.98233e-08
7.10543e-08
6.90627e-08
9.59078e-08
2.59305e-07
-1.46612e-08
3.85859e-09
2.78599e-07
2.42362e-08
9.52726e-09
1.13645e-08
4.82916e-08
6.35015e-08
7.27817e-08
7.1634e-08
7.51263e-08
6.71924e-08
7.71276e-08
4.17339e-08
1.08923e-07
2.30774e-07
8.5151e-09
-1.15594e-08
-2.35559e-08
2.56864e-08
3.48661e-08
5.7116e-08
4.70062e-08
5.64584e-08
4.76816e-08
4.77973e-08
4.76625e-08
5.3783e-08
8.56095e-08
1.78336e-08
-6.06228e-09
-3.06747e-08
8.23848e-09
1.24039e-09
3.70041e-08
1.11738e-08
5.8228e-08
3.61182e-08
4.12831e-08
5.3858e-08
4.25819e-08
4.14908e-08
1.63637e-07
-1.20454e-08
-2.16663e-08
9.03797e-09
-7.1254e-09
3.34385e-08
-7.35584e-09
7.38351e-08
7.76576e-09
6.54508e-08
4.25477e-08
3.11095e-08
2.88812e-08
3.69154e-08
8.68299e-08
2.80994e-08
7.69962e-09
4.01551e-08
-5.41068e-09
7.98707e-08
-1.97754e-08
1.43586e-07
4.1569e-08
3.38453e-08
2.38935e-08
3.74522e-08
1.92305e-08
-1.19331e-08
9.69713e-09
4.98669e-08
3.7358e-09
7.16219e-08
-2.16432e-08
2.25601e-07
2.92051e-08
3.054e-08
4.82617e-09
1.69706e-08
1.24177e-08
1.98415e-08
-2.13084e-08
4.94505e-08
-5.22531e-09
4.51296e-08
-2.10519e-08
2.35412e-07
-7.23989e-09
2.09379e-08
-3.15598e-08
3.44868e-10
-5.75335e-10
2.53063e-09
8.13165e-09
4.52054e-08
-3.93285e-08
1.10482e-08
-2.05696e-08
1.79744e-07
-2.6302e-08
2.35258e-08
-5.58531e-08
8.69514e-09
-2.31772e-08
3.67455e-09
-1.0379e-08
-6.07005e-09
4.57776e-09
-1.32421e-08
1.02317e-07
-1.64495e-08
2.78938e-08
-5.61825e-08
2.2794e-08
-4.47056e-08
1.89272e-08
-4.09213e-08
-4.44424e-09
-2.51178e-08
5.61542e-08
3.81062e-08
3.80898e-09
1.65017e-08
-3.14184e-08
3.39016e-08
-3.94293e-08
4.31322e-08
-4.79196e-08
2.56658e-08
-3.85234e-08
3.4149e-08
-4.64956e-08
2.47178e-08
-1.23169e-08
7.5837e-09
4.6455e-08
-1.61265e-08
5.54849e-08
-3.6529e-08
5.78855e-08
-4.23758e-08
6.90171e-08
1.37778e-07
-5.58886e-08
1.27754e-08
4.74282e-08
9.30339e-10
5.25891e-08
-2.20236e-08
7.23672e-08
-3.37509e-08
1.14648e-07
-6.07194e-08
5.09259e-08
2.22607e-08
5.02164e-10
3.16517e-08
-1.11107e-08
6.40279e-08
-2.7736e-08
1.6468e-07
-3.02596e-08
7.06297e-08
-3.82386e-08
-6.91798e-09
4.29448e-09
-3.38599e-10
4.54231e-08
-2.33762e-08
1.67804e-07
-2.97559e-08
8.09549e-08
-7.35714e-08
1.75763e-08
-4.15702e-09
5.09315e-09
2.23763e-08
-1.71269e-08
1.28559e-07
-4.23359e-08
1.17483e-07
-4.2199e-08
6.43274e-08
-5.0205e-08
8.9966e-09
-4.62629e-09
-6.702e-11
8.10756e-08
-3.51745e-08
1.30513e-07
-4.64079e-08
5.25759e-08
-6.09043e-08
7.22305e-08
-3.89372e-08
5.18551e-09
4.23376e-08
-2.07928e-08
1.1861e-07
-5.04099e-08
7.5943e-08
-3.53919e-08
3.58704e-08
2.65767e-08
8.10901e-09
-2.25921e-08
8.53505e-08
-4.93761e-08
8.96125e-08
-4.42642e-08
1.94935e-08
-4.44215e-08
-3.97664e-08
-2.37492e-08
3.86447e-08
-4.57184e-08
8.25235e-08
-5.27215e-08
2.32076e-08
-4.35437e-08
1.53547e-08
-8.16437e-09
3.04088e-09
-3.424e-08
6.27181e-08
-5.34585e-08
4.65799e-08
-4.77437e-08
3.25384e-08
-4.25915e-08
-2.43103e-08
3.05198e-08
-4.57091e-08
6.04171e-08
-4.25576e-08
1.99477e-08
-4.54637e-08
-2.12888e-08
5.68639e-09
-3.15529e-08
4.47133e-08
-5.0409e-08
3.02279e-08
-3.36001e-08
2.03396e-08
-2.45872e-08
-2.56891e-08
1.36995e-08
-4.42396e-08
3.38701e-08
-4.17997e-08
1.35278e-08
-3.80828e-08
-1.90401e-08
-2.19135e-08
1.86937e-08
-4.32167e-08
1.78424e-08
-3.21284e-08
1.08233e-08
1.00258e-08
6.04087e-09
-2.31102e-08
3.08292e-08
-3.88922e-08
9.89237e-09
-3.65164e-08
-1.65609e-08
-8.36733e-09
2.07066e-08
-3.4704e-08
2.68215e-08
-2.91638e-08
1.0347e-08
8.66989e-09
6.31069e-09
-1.54113e-08
3.08835e-08
-2.539e-08
4.78709e-09
-2.46937e-08
-1.22734e-08
-7.22559e-09
1.97364e-08
-1.94412e-08
1.10125e-08
-1.61445e-08
6.45576e-10
6.08947e-09
6.63146e-09
-1.28432e-08
1.92119e-08
-1.40358e-08
6.57456e-09
-1.93824e-08
-9.96739e-09
-7.9828e-09
1.69948e-08
-1.15269e-08
1.68844e-08
-1.92033e-08
-6.86136e-10
7.11486e-09
-1.1109e-08
1.34382e-08
-8.83729e-09
1.35266e-08
-5.47962e-09
-1.01032e-08
6.80746e-09
-1.26748e-08
5.87035e-09
-1.27154e-08
-5.0401e-09
-1.07813e-08
-7.80621e-11
-1.03038e-08
2.02976e-09
4.15345e-09
2.76528e-09
-7.76325e-09
2.88317e-09
-1.08217e-08
-8.70834e-09
-9.38178e-09
-2.0514e-09
-1.14481e-08
-2.9427e-09
-2.86472e-09
5.11871e-10
-7.53798e-09
8.23052e-10
-1.07675e-08
-1.39935e-08
-1.13259e-08
-7.37271e-09
-1.29732e-08
-7.17294e-09
-1.32423e-08
-5.4945e-09
-6.70998e-09
-4.27831e-09
-7.23063e-09
)
;

boundaryField
{
    inlet
    {
        type            extrapolatedCalculated;
        value           nonuniform List<scalar> 5(-1.32423e-08 -5.4945e-09 -6.70998e-09 -4.27831e-09 -7.23063e-09);
    }
    outlet
    {
        type            extrapolatedCalculated;
        value           nonuniform List<scalar> 0();
    }
    walls
    {
        type            extrapolatedCalculated;
        value           nonuniform List<scalar> 
28
(
6.81578e-06
1.29129e-06
5.81002e-08
8.78717e-09
-5.23737e-07
-3.55972e-07
-6.72808e-07
-3.95528e-07
-5.80199e-07
-3.28358e-07
-6.25766e-07
-2.78634e-07
-7.12672e-07
-7.50961e-08
-4.14141e-07
1.04866e-06
1.67568e-06
1.85514e-06
1.80012e-06
1.25615e-06
1.1835e-06
-1.69279e-06
2.88116e-06
1.07614e-06
1.48465e-06
1.49774e-06
2.52968e-06
2.60445e-06
)
;
    }
    frontAndBack
    {
        type            empty;
    }
    procBoundary1to0
    {
        type            processor;
        value           nonuniform List<scalar> 
94
(
-1.96061e-06
-1.96061e-06
-9.73377e-07
-9.73377e-07
-3.98422e-07
-3.98422e-07
-7.72686e-07
-7.72686e-07
-3.94118e-07
-3.94118e-07
2.7845e-07
2.7845e-07
7.66325e-08
1.3112e-07
1.3112e-07
4.05882e-08
-2.29664e-07
-2.29664e-07
1.29205e-07
-2.20409e-07
-1.58109e-07
-1.58109e-07
2.57802e-08
-2.35115e-08
-2.35115e-08
1.39176e-08
-3.23911e-08
-3.02737e-07
-3.02737e-07
1.53431e-07
-4.6186e-07
-4.92906e-07
-4.92906e-07
-4.69282e-07
-4.03994e-07
-4.03994e-07
8.39532e-08
-2.59189e-07
-2.95369e-07
-2.95369e-07
1.43933e-07
-2.4512e-07
-2.98952e-07
-2.98952e-07
7.61902e-08
-2.26392e-07
-2.21208e-07
-2.21208e-07
1.07627e-07
-2.75595e-07
-2.14792e-07
-2.14792e-07
7.14648e-08
-3.11618e-08
-6.66355e-08
-6.66355e-08
6.5659e-08
-1.93834e-08
-1.12038e-07
-6.44868e-08
-6.44868e-08
-3.98111e-08
7.29812e-08
-1.12442e-07
-1.15673e-07
-1.15673e-07
1.33257e-08
-6.59638e-08
3.51227e-08
-7.9896e-08
-8.2876e-08
-8.2876e-08
4.7152e-09
-5.18448e-08
-4.99241e-10
-4.31502e-08
-2.62097e-08
-1.60272e-08
-1.60272e-08
-2.06207e-08
1.48757e-08
-1.70788e-08
1.26162e-08
-1.63916e-08
8.13897e-09
-1.38512e-08
-5.87224e-09
-3.62068e-09
-3.62068e-09
-8.73456e-09
3.12622e-09
-1.27349e-08
-4.28008e-09
-9.37292e-09
)
;
    }
    procBoundary1to2
    {
        type            processor;
        value           nonuniform List<scalar> 
84
(
1.31954e-07
-4.791e-07
7.38083e-07
2.06325e-07
1.50061e-06
1.07996e-06
1.65417e-06
1.78576e-06
1.80224e-06
2.40667e-06
1.57437e-06
2.75798e-06
1.32774e-06
3.0019e-06
9.93241e-07
2.97853e-06
5.69872e-07
2.79285e-06
3.07737e-07
2.37488e-06
-2.36217e-07
1.90814e-06
-3.2736e-07
1.47146e-06
-4.50892e-07
1.1092e-06
-3.63952e-07
8.47786e-07
-1.91984e-07
6.64478e-07
-9.50438e-08
4.84405e-07
1.94964e-08
3.69718e-07
4.63002e-08
2.16703e-07
8.25449e-08
2.38621e-07
1.49992e-07
1.49992e-07
1.34755e-07
1.25298e-07
5.06722e-08
1.0891e-07
3.291e-08
6.5786e-08
2.31439e-08
6.06576e-08
1.27486e-08
1.07008e-08
-4.03248e-09
-5.17912e-09
-1.64669e-08
-8.45944e-08
-8.45944e-08
7.22309e-08
-8.57489e-08
6.95815e-08
-6.5494e-08
2.78221e-08
-4.42785e-08
7.95672e-09
-2.82553e-08
-6.20638e-08
-6.20638e-08
9.06073e-09
-3.24062e-08
4.31611e-09
-3.34785e-08
-1.27912e-09
-3.20169e-08
-2.91531e-09
-1.94127e-08
-1.40162e-09
1.40803e-08
1.40803e-08
-3.55891e-09
6.46756e-09
-1.14214e-08
-8.81679e-10
-1.75338e-08
-3.98462e-09
-2.04356e-08
-1.02368e-08
)
;
    }
    procBoundary1to5
    {
        type            processor;
        value           nonuniform List<scalar> 
13
(
1.96794e-06
1.96794e-06
7.20546e-07
1.65748e-06
1.65748e-06
1.24126e-06
1.08954e-06
1.08954e-06
1.02283e-06
1.53895e-06
-2.02083e-06
-2.02083e-06
-1.43166e-06
)
;
    }
}


// ************************************************************************* //
