/*--------------------------------*- C++ -*----------------------------------*\
| =========                 |                                                 |
| \\      /  F ield         | OpenFOAM: The Open Source CFD Toolbox           |
|  \\    /   O peration     | Version:  2306                                  |
|   \\  /    A nd           | Website:  www.openfoam.com                      |
|    \\/     M anipulation  |                                                 |
\*---------------------------------------------------------------------------*/
FoamFile
{
    version     2.0;
    format      ascii;
    arch        "LSB;label=32;scalar=64";
    class       volScalarField;
    location    "0.008";
    object      nut;
}
// * * * * * * * * * * * * * * * * * * * * * * * * * * * * * * * * * * * * * //

dimensions      [0 2 -1 0 0 0 0];

internalField   nonuniform List<scalar> 
20000
(
0.00038548808
0.00095754983
0.0012630423
0.001352222
0.0011725517
0.00060354409
2.1351562e-05
1.0022027e-08
7.7014111e-09
7.5808232e-09
7.5757555e-09
7.519718e-09
7.5044743e-09
7.4781603e-09
7.4648464e-09
7.4505652e-09
7.4412134e-09
7.4334411e-09
7.4284104e-09
7.4253867e-09
7.4244014e-09
7.4251378e-09
7.4272307e-09
7.4302364e-09
7.433588e-09
7.4366848e-09
7.4388613e-09
7.4396996e-09
7.4389876e-09
7.4368932e-09
7.4337002e-09
7.4295774e-09
7.4248551e-09
7.4199386e-09
7.4148089e-09
7.409173e-09
7.4031325e-09
7.3965338e-09
7.389874e-09
7.3840753e-09
7.3764301e-09
7.3693353e-09
7.3667606e-09
7.368263e-09
7.3681868e-09
7.3653032e-09
7.3583913e-09
7.353265e-09
7.3506607e-09
7.3495681e-09
0.00038296187
0.00094473971
0.001238089
0.001313882
0.0011207009
0.00052981967
9.2379935e-06
9.0352752e-09
7.6945834e-09
7.5758311e-09
7.572795e-09
7.5176743e-09
7.503249e-09
7.4777269e-09
7.4650108e-09
7.4513265e-09
7.4424716e-09
7.435175e-09
7.4305682e-09
7.4279385e-09
7.4272983e-09
7.4283218e-09
7.4306235e-09
7.4337362e-09
7.4370777e-09
7.440035e-09
7.4419638e-09
7.4424579e-09
7.4412954e-09
7.438712e-09
7.4350398e-09
7.4304938e-09
7.4254304e-09
7.4202776e-09
7.4149587e-09
7.409217e-09
7.4031603e-09
7.3965501e-09
7.390045e-09
7.3844211e-09
7.3765625e-09
7.3691325e-09
7.3662041e-09
7.3687809e-09
7.3684175e-09
7.3652079e-09
7.3584135e-09
7.353305e-09
7.3507016e-09
7.3495814e-09
0.00038071649
0.00093280612
0.0012138272
0.0012748222
0.0010668428
0.00045634168
3.5016957e-06
8.4482926e-09
7.688261e-09
7.5712451e-09
7.5690684e-09
7.5156626e-09
7.5020165e-09
7.477354e-09
7.4652508e-09
7.4521937e-09
7.4438612e-09
7.4370758e-09
7.4329315e-09
7.4307388e-09
7.430494e-09
7.4318604e-09
7.4344314e-09
7.4377113e-09
7.4410951e-09
7.4439536e-09
7.4456603e-09
7.4458165e-09
7.4441802e-09
7.4410982e-09
7.4369052e-09
7.4318848e-09
7.4264307e-09
7.4209793e-09
7.4154357e-09
7.409543e-09
7.4034202e-09
7.3967477e-09
7.3903196e-09
7.3848379e-09
7.376872e-09
7.3693357e-09
7.3661951e-09
7.3688289e-09
7.3686915e-09
7.365149e-09
7.3583666e-09
7.3533447e-09
7.3507366e-09
7.3496037e-09
0.00037850944
0.00092115249
0.001190188
0.0012356588
0.0010124015
0.00038763534
1.2863773e-06
8.102395e-09
7.6824699e-09
7.5670215e-09
7.5660959e-09
7.5140379e-09
7.5011455e-09
7.4773382e-09
7.4658256e-09
7.4533881e-09
7.445563e-09
7.4392788e-09
7.435583e-09
7.4338131e-09
7.4339436e-09
7.4356268e-09
7.4384313e-09
7.441834e-09
7.4452052e-09
7.4479038e-09
7.4493346e-09
7.4490872e-09
7.4469471e-09
7.4433432e-09
7.4386195e-09
7.4331322e-09
7.4272941e-09
7.4215433e-09
7.4157809e-09
7.4097514e-09
7.4035666e-09
7.3968475e-09
7.3904625e-09
7.3850812e-09
7.3771028e-09
7.3696183e-09
7.3663144e-09
7.3688182e-09
7.3688773e-09
7.3651607e-09
7.3583327e-09
7.3533831e-09
7.3507693e-09
7.3496253e-09
0.00037637737
0.00090971305
0.0011672757
0.0011988839
0.00095634686
0.00032295427
4.7855903e-07
7.8951756e-09
7.6780804e-09
7.5632364e-09
7.5632758e-09
7.512731e-09
7.5005665e-09
7.4776141e-09
7.4666833e-09
7.4548634e-09
7.4475457e-09
7.4417658e-09
7.4385245e-09
7.4371832e-09
7.4376945e-09
7.4396972e-09
7.442734e-09
7.4462515e-09
7.4495927e-09
7.4521067e-09
7.4532317e-09
7.4525351e-09
7.4498772e-09
7.4457154e-09
7.4404372e-09
7.4344645e-09
7.4282335e-09
7.4221703e-09
7.4161737e-09
7.4100005e-09
7.4037437e-09
7.3969733e-09
7.3905994e-09
7.3852656e-09
7.3773216e-09
7.3700653e-09
7.3666191e-09
7.3687174e-09
7.3690102e-09
7.3652637e-09
7.3583055e-09
7.3534182e-09
7.3507985e-09
7.3496432e-09
0.0003742485
0.00089811011
0.0011438859
0.0011596788
0.00089775325
0.00026257342
1.8949343e-07
7.7711481e-09
7.6740785e-09
7.559876e-09
7.5608883e-09
7.5117737e-09
7.500305e-09
7.4782075e-09
7.4678448e-09
7.4566406e-09
7.4498262e-09
7.4445507e-09
7.4417635e-09
7.4408504e-09
7.4417392e-09
7.4440536e-09
7.4473079e-09
7.4509168e-09
7.4541948e-09
7.4564876e-09
7.4572584e-09
7.4560599e-09
7.4528633e-09
7.4481135e-09
7.4422614e-09
7.4357889e-09
7.4291594e-09
7.4227801e-09
7.4165426e-09
7.4102255e-09
7.4038969e-09
7.3970833e-09
7.3907043e-09
7.3853732e-09
7.377475e-09
7.3705458e-09
7.3670141e-09
7.3686958e-09
7.3691211e-09
7.3654994e-09
7.358311e-09
7.3534472e-09
7.3508234e-09
7.3496579e-09
0.0003721629
0.00088646336
0.0011199443
0.0011209441
0.00083686663
0.00020673497
8.3740368e-08
7.6947826e-09
7.6708414e-09
7.5569381e-09
7.5588066e-09
7.5111553e-09
7.5003565e-09
7.4791142e-09
7.4693103e-09
7.4587203e-09
7.4524079e-09
7.4476378e-09
7.4453072e-09
7.4448235e-09
7.4460887e-09
7.4487085e-09
7.452167e-09
7.4558446e-09
7.4590271e-09
7.4610649e-09
7.4614299e-09
7.4596829e-09
7.4559239e-09
7.4505569e-09
7.4441117e-09
7.4371269e-09
7.4300919e-09
7.4233886e-09
7.4169e-09
7.410434e-09
7.404035e-09
7.3971879e-09
7.3907978e-09
7.3854348e-09
7.3775667e-09
7.3709846e-09
7.3674356e-09
7.3687812e-09
7.3691825e-09
7.3657056e-09
7.3583496e-09
7.3534714e-09
7.350847e-09
7.3496748e-09
0.00037015742
0.00087493047
0.0010961041
0.0010818244
0.00077336117
0.00015664123
4.2475368e-08
7.6470667e-09
7.6674383e-09
7.5544067e-09
7.5570803e-09
7.5108783e-09
7.5007246e-09
7.4803398e-09
7.4710859e-09
7.4611101e-09
7.4552984e-09
7.4510359e-09
7.4491637e-09
7.4491098e-09
7.4507487e-09
7.4536657e-09
7.4573118e-09
7.4610306e-09
7.4640815e-09
7.4658253e-09
7.4657236e-09
7.4633961e-09
7.4590357e-09
7.4530276e-09
7.4459714e-09
7.4384631e-09
7.43102e-09
7.4239896e-09
7.4172382e-09
7.4106111e-09
7.404145e-09
7.397275e-09
7.3908765e-09
7.3854588e-09
7.3775986e-09
7.3713084e-09
7.367817e-09
7.3689133e-09
7.3692017e-09
7.3658313e-09
7.3584364e-09
7.3534998e-09
7.3508707e-09
7.3496906e-09
0.00036822173
0.00086332246
0.0010721636
0.0010427969
0.00070761776
0.00010948463
2.4765239e-08
7.6167758e-09
7.660842e-09
7.5522751e-09
7.555679e-09
7.5109455e-09
7.5014143e-09
7.4818882e-09
7.4731769e-09
7.4638152e-09
7.4585044e-09
7.4547515e-09
7.4533404e-09
7.4537172e-09
7.4557265e-09
7.4589309e-09
7.4627454e-09
7.4664748e-09
7.469356e-09
7.4707614e-09
7.4701293e-09
7.4671936e-09
7.4621887e-09
7.455518e-09
7.4478347e-09
7.4397929e-09
7.4319407e-09
7.4245838e-09
7.4175586e-09
7.4107597e-09
7.4042257e-09
7.3973421e-09
7.3909392e-09
7.3854517e-09
7.3775827e-09
7.3715123e-09
7.3681269e-09
7.3690335e-09
7.3692066e-09
7.3659065e-09
7.3585641e-09
7.3535455e-09
7.3508975e-09
7.3497055e-09
0.00036629896
0.00085145651
0.0010476537
0.0010025619
0.00063993873
6.805255e-05
1.6607876e-08
7.5971067e-09
7.6566874e-09
7.5505817e-09
7.5546203e-09
7.5113627e-09
7.5024306e-09
7.4837639e-09
7.4755883e-09
7.4668417e-09
7.4620328e-09
7.4587928e-09
7.4578455e-09
7.4586531e-09
7.4610285e-09
7.4645086e-09
7.4684692e-09
7.4721753e-09
7.4748491e-09
7.4758605e-09
7.4746353e-09
7.471062e-09
7.4653711e-09
7.4580166e-09
7.4496924e-09
7.4411088e-09
7.4328485e-09
7.4251695e-09
7.4178617e-09
7.4108759e-09
7.4042734e-09
7.3973887e-09
7.390985e-09
7.3854199e-09
7.3775357e-09
7.3716255e-09
7.368366e-09
7.369139e-09
7.3692132e-09
7.36594e-09
7.3586559e-09
7.3536137e-09
7.350932e-09
7.3497221e-09
0.00036438631
0.00083928209
0.0010221794
0.00096064673
0.00057126041
3.5946293e-05
1.25804e-08
7.5841564e-09
7.6532765e-09
7.5493127e-09
7.5539023e-09
7.5121298e-09
7.5037766e-09
7.4859703e-09
7.4783256e-09
7.4701961e-09
7.4658919e-09
7.463168e-09
7.4626877e-09
7.4639258e-09
7.4666619e-09
7.4704033e-09
7.4744836e-09
7.4781286e-09
7.480554e-09
7.481108e-09
7.4792344e-09
7.4749852e-09
7.4685711e-09
7.4605128e-09
7.4515363e-09
7.4424041e-09
7.4337376e-09
7.4257447e-09
7.4181492e-09
7.4109598e-09
7.4042853e-09
7.397412e-09
7.3910122e-09
7.3853614e-09
7.3774742e-09
7.3716891e-09
7.3685433e-09
7.3692405e-09
7.3692294e-09
7.3659413e-09
7.3586884e-09
7.353661e-09
7.3509654e-09
7.3497419e-09
0.00036249356
0.00082695672
0.00099561926
0.00091925628
0.00050262689
1.5981365e-05
1.047465e-08
7.575473e-09
7.6500993e-09
7.5484597e-09
7.5535483e-09
7.513249e-09
7.5054556e-09
7.4885126e-09
7.481396e-09
7.4738869e-09
7.4700906e-09
7.4678868e-09
7.467876e-09
7.4695435e-09
7.4726331e-09
7.4766191e-09
7.4807886e-09
7.4843313e-09
7.4864613e-09
7.4864826e-09
7.4839267e-09
7.4789445e-09
7.4717749e-09
7.4629945e-09
7.4533576e-09
7.4436724e-09
7.4346024e-09
7.4263064e-09
7.4184227e-09
7.4110121e-09
7.4042588e-09
7.3974098e-09
7.3910193e-09
7.3852658e-09
7.3774039e-09
7.3717292e-09
7.3686853e-09
7.3693452e-09
7.3692558e-09
7.3659216e-09
7.3586829e-09
7.3536776e-09
7.350985e-09
7.3497584e-09
0.00036067221
0.00081484484
0.00096989684
0.00087755984
0.00043468218
6.1672009e-06
9.327744e-09
7.5695493e-09
7.6472664e-09
7.5480239e-09
7.5535831e-09
7.5147284e-09
7.5074762e-09
7.4913997e-09
7.4848095e-09
7.4779234e-09
7.4746389e-09
7.4729582e-09
7.4734197e-09
7.4755146e-09
7.4789488e-09
7.4831588e-09
7.4873828e-09
7.4907789e-09
7.4925585e-09
7.4919718e-09
7.488695e-09
7.4829259e-09
7.4749695e-09
7.4654505e-09
7.4551477e-09
7.4449071e-09
7.4354364e-09
7.4268506e-09
7.4186838e-09
7.4110354e-09
7.4041924e-09
7.3973793e-09
7.3910045e-09
7.3851308e-09
7.3773284e-09
7.3717637e-09
7.3688233e-09
7.369447e-09
7.3692932e-09
7.3658996e-09
7.3586602e-09
7.3536762e-09
7.3509906e-09
7.3497681e-09
0.00035883479
0.00080255577
0.00094393739
0.00083482143
0.0003687039
2.1999904e-06
8.6891916e-09
7.5654476e-09
7.6447905e-09
7.5480207e-09
7.5540311e-09
7.5165895e-09
7.5098564e-09
7.4946454e-09
7.4885779e-09
7.4823172e-09
7.479548e-09
7.4783935e-09
7.4793286e-09
7.4818474e-09
7.4856148e-09
7.4900246e-09
7.4942643e-09
7.4974695e-09
7.4988272e-09
7.4975615e-09
7.493523e-09
7.4869139e-09
7.4781401e-09
7.4678685e-09
7.4568977e-09
7.4461026e-09
7.436234e-09
7.4273717e-09
7.4189332e-09
7.4110336e-09
7.4040855e-09
7.3973175e-09
7.390966e-09
7.3849674e-09
7.3772477e-09
7.3718009e-09
7.3689651e-09
7.3695482e-09
7.3693404e-09
7.3658765e-09
7.358626e-09
7.353665e-09
7.350989e-09
7.3497731e-09
0.00035693609
0.00078990946
0.00091717046
0.00079025736
0.00030674108
7.7446932e-07
8.3286281e-09
7.5627131e-09
7.6427179e-09
7.5484835e-09
7.5548391e-09
7.5188412e-09
7.5126059e-09
7.4982579e-09
7.4927113e-09
7.4870784e-09
7.4848279e-09
7.4842029e-09
7.4856126e-09
7.4885504e-09
7.4926369e-09
7.4972172e-09
7.5014297e-09
7.5043928e-09
7.5052488e-09
7.5032431e-09
7.4983885e-09
7.4908933e-09
7.4812732e-09
7.4702372e-09
7.4585993e-09
7.4472532e-09
7.4369898e-09
7.4278639e-09
7.41917e-09
7.4110117e-09
7.4039392e-09
7.3972212e-09
7.3909038e-09
7.384774e-09
7.3771464e-09
7.371835e-09
7.3690973e-09
7.3696497e-09
7.3694013e-09
7.3658443e-09
7.35858e-09
7.3536456e-09
7.3509854e-09
7.3497754e-09
0.00035499472
0.00077703967
0.00088973954
0.0007435215
0.00024854981
2.8414553e-07
8.1237675e-09
7.5610117e-09
7.6410326e-09
7.5493994e-09
7.5559119e-09
7.5214782e-09
7.5157316e-09
7.5022464e-09
7.4972195e-09
7.4922163e-09
7.4904898e-09
7.4903968e-09
7.4922811e-09
7.4956315e-09
7.5000194e-09
7.5047361e-09
7.5088741e-09
7.5115371e-09
7.5117988e-09
7.5090098e-09
7.5032684e-09
7.4948462e-09
7.4843533e-09
7.4725441e-09
7.460244e-09
7.4483543e-09
7.437699e-09
7.4283201e-09
7.4193916e-09
7.410975e-09
7.4037565e-09
7.3970879e-09
7.3908197e-09
7.3845461e-09
7.3770301e-09
7.3718611e-09
7.3692135e-09
7.3697539e-09
7.3694767e-09
7.3658025e-09
7.3585206e-09
7.3536171e-09
7.3509773e-09
7.3497765e-09
0.00035302
0.00076408989
0.00086174219
0.00069582979
0.00019385588
1.1532907e-07
8.0031641e-09
7.5601317e-09
7.639748e-09
7.5507723e-09
7.5572598e-09
7.5245037e-09
7.5192449e-09
7.5066197e-09
7.5021123e-09
7.4977412e-09
7.4965438e-09
7.4969858e-09
7.4993443e-09
7.5030986e-09
7.5077663e-09
7.5125803e-09
7.5165923e-09
7.5188858e-09
7.5184613e-09
7.5148369e-09
7.5081443e-09
7.4987558e-09
7.4873667e-09
7.4747781e-09
7.4618233e-09
7.4494007e-09
7.4383577e-09
7.4287336e-09
7.4195939e-09
7.4109277e-09
7.4035423e-09
7.3969166e-09
7.3907133e-09
7.384285e-09
7.3768998e-09
7.3718786e-09
7.3693149e-09
7.3698616e-09
7.3695666e-09
7.3657547e-09
7.3584484e-09
7.3535789e-09
7.3509642e-09
7.3497765e-09
0.00035108514
0.00075135064
0.00083337393
0.00064585014
0.00014309631
5.38434e-08
7.9309581e-09
7.5600098e-09
7.6388806e-09
7.5526154e-09
7.5591159e-09
7.5279315e-09
7.523151e-09
7.5113847e-09
7.5073974e-09
7.5036623e-09
7.5030006e-09
7.5039805e-09
7.5068117e-09
7.5109589e-09
7.51588e-09
7.520748e-09
7.5245805e-09
7.5264161e-09
7.5252188e-09
7.520702e-09
7.5129964e-09
7.5026042e-09
7.4902989e-09
7.4769276e-09
7.4633291e-09
7.4503883e-09
7.4389626e-09
7.4290985e-09
7.4197707e-09
7.410872e-09
7.4033049e-09
7.3967096e-09
7.3905717e-09
7.3839951e-09
7.3767514e-09
7.3718873e-09
7.3694025e-09
7.3699748e-09
7.3696709e-09
7.3657021e-09
7.3583628e-09
7.3535311e-09
7.3509462e-09
7.3497754e-09
0.00034924806
0.00073905248
0.00080610734
0.00059332537
9.8217395e-05
2.9452697e-08
7.8865217e-09
7.5605572e-09
7.6384335e-09
7.554922e-09
7.5617622e-09
7.5317859e-09
7.5274551e-09
7.5165476e-09
7.5130845e-09
7.5099903e-09
7.5098718e-09
7.5113925e-09
7.5146939e-09
7.5192193e-09
7.5243619e-09
7.5292344e-09
7.5328244e-09
7.5341013e-09
7.5320621e-09
7.5265751e-09
7.517803e-09
7.5063736e-09
7.4931364e-09
7.4789823e-09
7.4647536e-09
7.4513122e-09
7.4395115e-09
7.4294097e-09
7.4199133e-09
7.4108096e-09
7.4030558e-09
7.3964678e-09
7.3903927e-09
7.3836818e-09
7.3765854e-09
7.3718871e-09
7.369479e-09
7.3700935e-09
7.3697895e-09
7.3656355e-09
7.3582636e-09
7.3534737e-09
7.3509232e-09
7.3497722e-09
0.00034749463
0.00072694142
0.00078068242
0.00053816874
5.9051282e-05
1.8689135e-08
7.8583755e-09
7.5617409e-09
7.6383994e-09
7.5576841e-09
7.5650209e-09
7.5360741e-09
7.5321608e-09
7.5221152e-09
7.5191831e-09
7.5167368e-09
7.51717e-09
7.519234e-09
7.5230008e-09
7.5278858e-09
7.5332118e-09
7.5380343e-09
7.5413098e-09
7.5419167e-09
7.5389718e-09
7.5324293e-09
7.5225411e-09
7.5100449e-09
7.4958647e-09
7.4809321e-09
7.4660901e-09
7.4521691e-09
7.4400029e-09
7.4296617e-09
7.420013e-09
7.4107438e-09
7.4028023e-09
7.3961825e-09
7.3901877e-09
7.3833487e-09
7.3764015e-09
7.3718792e-09
7.3695473e-09
7.3702178e-09
7.3699228e-09
7.3655513e-09
7.3581509e-09
7.3534067e-09
7.3508954e-09
7.349767e-09
0.0003457992
0.0007145805
0.00075352565
0.00048050747
3.02257e-05
1.3589014e-08
7.8400366e-09
7.563508e-09
7.6387674e-09
7.5608875e-09
7.5682795e-09
7.5407688e-09
7.5372789e-09
7.5280991e-09
7.5257077e-09
7.5239162e-09
7.5249089e-09
7.5275173e-09
7.5317423e-09
7.5369631e-09
7.5424287e-09
7.5471408e-09
7.5500154e-09
7.5498381e-09
7.5459186e-09
7.5382397e-09
7.5271887e-09
7.5136014e-09
7.4984719e-09
7.4827679e-09
7.4673316e-09
7.4529551e-09
7.4404355e-09
7.4298506e-09
7.4200661e-09
7.4106731e-09
7.4025369e-09
7.3958634e-09
7.3899432e-09
7.3829974e-09
7.3761996e-09
7.371866e-09
7.3696106e-09
7.3703484e-09
7.3700713e-09
7.3654452e-09
7.3580244e-09
7.3533301e-09
7.3508628e-09
7.3497598e-09
0.00034422831
0.00070232285
0.00072671539
0.00042147397
1.3144557e-05
1.1010412e-08
7.8276185e-09
7.5658394e-09
7.6395555e-09
7.5645382e-09
7.5711773e-09
7.5458468e-09
7.5428287e-09
7.5345173e-09
7.5326755e-09
7.5315448e-09
7.5331035e-09
7.5362556e-09
7.5409277e-09
7.5464549e-09
7.5520103e-09
7.5565478e-09
7.558911e-09
7.5578449e-09
7.5528707e-09
7.54398e-09
7.531722e-09
7.5170246e-09
7.5009447e-09
7.4844814e-09
7.4684731e-09
7.4536671e-09
7.4408068e-09
7.4299769e-09
7.420073e-09
7.4105748e-09
7.4022794e-09
7.3955319e-09
7.3896578e-09
7.3826269e-09
7.3759786e-09
7.3718501e-09
7.369675e-09
7.3704882e-09
7.3702343e-09
7.3653126e-09
7.3578839e-09
7.353244e-09
7.3508258e-09
7.3497508e-09
0.00034273273
0.00068978619
0.00069914679
0.0003620929
5.0227276e-06
9.6413148e-09
7.8186544e-09
7.5687615e-09
7.6407916e-09
7.5686677e-09
7.5745451e-09
7.5513407e-09
7.5488309e-09
7.5413883e-09
7.5401043e-09
7.5396383e-09
7.5417684e-09
7.5454612e-09
7.5505654e-09
7.5563629e-09
7.5619513e-09
7.5662359e-09
7.5679608e-09
7.5659266e-09
7.5597898e-09
7.549622e-09
7.5361188e-09
7.5202984e-09
7.5032727e-09
7.4860654e-09
7.4695094e-09
7.4543011e-09
7.4411162e-09
7.4300484e-09
7.4200234e-09
7.4104451e-09
7.402033e-09
7.3951888e-09
7.3893297e-09
7.3822348e-09
7.3757378e-09
7.371833e-09
7.3697491e-09
7.3706391e-09
7.3704107e-09
7.3651501e-09
7.3577286e-09
7.3531488e-09
7.3507845e-09
7.3497399e-09
0.00034113318
0.00067601716
0.00067067367
0.00030534469
1.8079625e-06
8.8927445e-09
7.8119057e-09
7.5723119e-09
7.6425259e-09
7.573309e-09
7.5797597e-09
7.5573603e-09
7.5553032e-09
7.5487292e-09
7.5480106e-09
7.5482131e-09
7.5509187e-09
7.5551467e-09
7.5606627e-09
7.5666873e-09
7.5722444e-09
7.5761856e-09
7.5771383e-09
7.5740469e-09
7.5666437e-09
7.5551359e-09
7.540354e-09
7.5234041e-09
7.5054436e-09
7.4875139e-09
7.4704373e-09
7.4548534e-09
7.441364e-09
7.4300663e-09
7.4198955e-09
7.4102928e-09
7.4017906e-09
7.3948464e-09
7.388961e-09
7.3818174e-09
7.3754789e-09
7.3718136e-09
7.369842e-09
7.3707993e-09
7.3705996e-09
7.3649564e-09
7.3575564e-09
7.3530449e-09
7.3507391e-09
7.3497273e-09
0.00033941429
0.00066109499
0.00064052959
0.00025158721
6.4680437e-07
8.4686447e-09
7.8069747e-09
7.5765188e-09
7.6447549e-09
7.5784766e-09
7.5858996e-09
7.5639351e-09
7.5622563e-09
7.5565523e-09
7.556409e-09
7.557284e-09
7.5605685e-09
7.5653234e-09
7.5712254e-09
7.5774266e-09
7.5828809e-09
7.5863683e-09
7.586412e-09
7.5821705e-09
7.5733996e-09
7.560494e-09
7.5444078e-09
7.5263282e-09
7.5074488e-09
7.4888212e-09
7.4712527e-09
7.4553216e-09
7.4415519e-09
7.4300193e-09
7.4197168e-09
7.4100976e-09
7.4015463e-09
7.3945091e-09
7.3885555e-09
7.3813711e-09
7.3752076e-09
7.371788e-09
7.3699653e-09
7.3709629e-09
7.3707986e-09
7.36473e-09
7.3573659e-09
7.3529327e-09
7.3506901e-09
7.349713e-09
0.00033744783
0.0006445922
0.00060714516
0.00020027435
2.4536084e-07
8.2282017e-09
7.8044958e-09
7.5813337e-09
7.6474835e-09
7.5841629e-09
7.5913706e-09
7.570972e-09
7.5697065e-09
7.5648729e-09
7.5653162e-09
7.5668677e-09
7.5707329e-09
7.5760023e-09
7.5822574e-09
7.5885778e-09
7.5938495e-09
7.5967431e-09
7.5957578e-09
7.5902521e-09
7.5800228e-09
7.5656664e-09
7.5482569e-09
7.5290542e-09
7.5092784e-09
7.4899834e-09
7.4719532e-09
7.4557037e-09
7.4416781e-09
7.4298936e-09
7.4194836e-09
7.4098587e-09
7.4012889e-09
7.3941766e-09
7.388117e-09
7.380893e-09
7.3749351e-09
7.3717491e-09
7.3701333e-09
7.3711228e-09
7.3710019e-09
7.3644684e-09
7.3571575e-09
7.3528129e-09
7.3506377e-09
7.3496972e-09
0.00033519174
0.00062647169
0.0005682405
0.00015169112
1.0391287e-07
8.0912606e-09
7.8017399e-09
7.5867581e-09
7.6507171e-09
7.5903487e-09
7.5961782e-09
7.5784122e-09
7.5776689e-09
7.5737062e-09
7.5747495e-09
7.5769813e-09
7.5814271e-09
7.5871937e-09
7.5937613e-09
7.6001346e-09
7.6051251e-09
7.6072688e-09
7.605153e-09
7.5982455e-09
7.5864776e-09
7.5706262e-09
7.5518833e-09
7.5315709e-09
7.5109262e-09
7.4909964e-09
7.4725366e-09
7.4560001e-09
7.4417379e-09
7.4297202e-09
7.419196e-09
7.4095723e-09
7.4010068e-09
7.3938417e-09
7.3876465e-09
7.3803821e-09
7.3746752e-09
7.3716906e-09
7.3703586e-09
7.371271e-09
7.3712015e-09
7.3641693e-09
7.3569319e-09
7.3526864e-09
7.3505823e-09
7.3496799e-09
0.00033274525
0.00060738437
0.00052486698
0.00010727551
5.0837179e-08
8.0124098e-09
7.7994674e-09
7.5927891e-09
7.6544572e-09
7.597044e-09
7.6022845e-09
7.586336e-09
7.5861584e-09
7.5830695e-09
7.5847264e-09
7.5876425e-09
7.5926661e-09
7.5989064e-09
7.605737e-09
7.6120875e-09
7.6166813e-09
7.6179103e-09
7.6145485e-09
7.6061099e-09
7.5927268e-09
7.5753433e-09
7.5552646e-09
7.533864e-09
7.512385e-09
7.4918572e-09
7.4730038e-09
7.4562141e-09
7.4417104e-09
7.4294911e-09
7.41886e-09
7.4092388e-09
7.4006905e-09
7.3934933e-09
7.3871394e-09
7.3798416e-09
7.3744337e-09
7.371618e-09
7.3706474e-09
7.3714092e-09
7.371383e-09
7.3638322e-09
7.3566903e-09
7.352554e-09
7.3505244e-09
7.3496614e-09
0.0003301168
0.00058764807
0.00047785433
7.0357033e-05
2.9053378e-08
7.9668324e-09
7.7976681e-09
7.5994243e-09
7.6587325e-09
7.6042844e-09
7.6101203e-09
7.5948692e-09
7.5951921e-09
7.5929821e-09
7.5952681e-09
7.5988709e-09
7.6044653e-09
7.6111481e-09
7.6181833e-09
7.6244242e-09
7.6284773e-09
7.6286287e-09
7.6238941e-09
7.6138019e-09
7.5987349e-09
7.5797941e-09
7.5583872e-09
7.5359264e-09
7.5136489e-09
7.4925614e-09
7.4733582e-09
7.456346e-09
7.4416057e-09
7.4292061e-09
7.4184776e-09
7.4088607e-09
7.4003344e-09
7.3931195e-09
7.3865866e-09
7.3792814e-09
7.3742025e-09
7.3715504e-09
7.3709955e-09
7.3715502e-09
7.3715177e-09
7.3634579e-09
7.3564347e-09
7.3524168e-09
7.3504645e-09
7.3496418e-09
0.00032721138
0.00056694123
0.00043210162
4.003187e-05
1.9035372e-08
7.9405479e-09
7.7963988e-09
7.6066839e-09
7.6635531e-09
7.6120834e-09
7.6186053e-09
7.6040192e-09
7.6047891e-09
7.6034664e-09
7.6063965e-09
7.6106868e-09
7.6168389e-09
7.6239238e-09
7.6310957e-09
7.6371251e-09
7.64046e-09
7.6393976e-09
7.6331301e-09
7.6212771e-09
7.6044661e-09
7.5839527e-09
7.5612343e-09
7.5377472e-09
7.5147113e-09
7.4931136e-09
7.4736087e-09
7.4563756e-09
7.4414408e-09
7.4288632e-09
7.4180525e-09
7.4084418e-09
7.3999375e-09
7.3927111e-09
7.3859784e-09
7.3787161e-09
7.3739765e-09
7.3714914e-09
7.3713886e-09
7.371713e-09
7.3715871e-09
7.3630495e-09
7.3561676e-09
7.3522757e-09
7.3504029e-09
7.3496214e-09
0.00032398542
0.00054370584
0.00038477242
1.9519311e-05
1.4152264e-08
7.925925e-09
7.7956906e-09
7.6145625e-09
7.6689293e-09
7.6204389e-09
7.6267889e-09
7.6137214e-09
7.6149788e-09
7.6145488e-09
7.6181369e-09
7.6231099e-09
7.6297995e-09
7.6372361e-09
7.644465e-09
7.6501572e-09
7.6525824e-09
7.6501683e-09
7.6422015e-09
7.6284897e-09
7.6098873e-09
7.5877996e-09
7.5637962e-09
7.5393192e-09
7.5155709e-09
7.4935239e-09
7.4737516e-09
7.4563036e-09
7.4412038e-09
7.4284624e-09
7.4175864e-09
7.4079862e-09
7.3995026e-09
7.3922634e-09
7.3853207e-09
7.3781495e-09
7.373755e-09
7.3714483e-09
7.3717946e-09
7.3719272e-09
7.371574e-09
7.3626119e-09
7.3558917e-09
7.3521317e-09
7.3503403e-09
7.3496002e-09
0.00032119121
0.00052375738
0.00033683701
8.27527e-06
1.1614784e-08
7.9182845e-09
7.7955777e-09
7.6230751e-09
7.6748872e-09
7.629359e-09
7.6347715e-09
7.6239601e-09
7.6257928e-09
7.6262579e-09
7.630513e-09
7.6361591e-09
7.6433573e-09
7.6510847e-09
7.6582774e-09
7.6634817e-09
7.6647942e-09
7.6608799e-09
7.6510534e-09
7.6353927e-09
7.6149638e-09
7.5913111e-09
7.5660564e-09
7.5406332e-09
7.5162366e-09
7.4937973e-09
7.4737543e-09
7.456163e-09
7.4408948e-09
7.4280039e-09
7.4170802e-09
7.407497e-09
7.3990336e-09
7.3917748e-09
7.3846179e-09
7.3775866e-09
7.3735435e-09
7.3714318e-09
7.3721789e-09
7.3722312e-09
7.3715285e-09
7.3621522e-09
7.3556095e-09
7.3519858e-09
7.3502772e-09
7.3495787e-09
0.00031844825
0.0005027793
0.00028828451
3.1774537e-06
1.0225972e-08
7.9149138e-09
7.7961153e-09
7.6322675e-09
7.6814797e-09
7.6388928e-09
7.6438127e-09
7.6348338e-09
7.6372618e-09
7.6386202e-09
7.6435476e-09
7.649852e-09
7.6575204e-09
7.6654673e-09
7.6725146e-09
7.6770401e-09
7.6770493e-09
7.6714631e-09
7.6596312e-09
7.641943e-09
7.6196693e-09
7.5944742e-09
7.5680081e-09
7.5416947e-09
7.5167184e-09
7.4938896e-09
7.4736549e-09
7.455941e-09
7.4405173e-09
7.4274884e-09
7.4165338e-09
7.4069756e-09
7.3985332e-09
7.3912436e-09
7.3838723e-09
7.3770292e-09
7.3733453e-09
7.3714657e-09
7.3725322e-09
7.3726301e-09
7.3713437e-09
7.3616803e-09
7.3553228e-09
7.3518388e-09
7.350214e-09
7.3495569e-09
0.00031597069
0.00048123669
0.00023997455
1.1671988e-06
9.4488473e-09
7.9142923e-09
7.7973525e-09
7.6422134e-09
7.6887516e-09
7.6490963e-09
7.6542552e-09
7.6464304e-09
7.6494106e-09
7.651661e-09
7.6572639e-09
7.6642039e-09
7.6722934e-09
7.6803749e-09
7.6871413e-09
7.6907621e-09
7.6893121e-09
7.6818393e-09
7.6678749e-09
7.6480965e-09
7.6239743e-09
7.5972689e-09
7.5696429e-09
7.5425153e-09
7.5169967e-09
7.4938251e-09
7.4734576e-09
7.455639e-09
7.4400727e-09
7.4269174e-09
7.4159465e-09
7.4064213e-09
7.3980017e-09
7.3906656e-09
7.3830844e-09
7.3764774e-09
7.3731516e-09
7.3715651e-09
7.3729027e-09
7.3730783e-09
7.3710042e-09
7.3612053e-09
7.3550323e-09
7.3516918e-09
7.3501514e-09
7.349535e-09
0.00031395338
0.00045886442
0.00019239322
4.3371261e-07
9.0086116e-09
7.9154304e-09
7.799268e-09
7.6529239e-09
7.6967235e-09
7.6599834e-09
7.6656822e-09
7.6586937e-09
7.6622664e-09
7.6654054e-09
7.6716824e-09
7.6792275e-09
7.6876771e-09
7.6957927e-09
7.7021139e-09
7.7045923e-09
7.7014995e-09
7.6919434e-09
7.6757296e-09
7.6538157e-09
7.6278578e-09
7.5996864e-09
7.5709683e-09
7.5430997e-09
7.5170348e-09
7.4936361e-09
7.4731544e-09
7.4552591e-09
7.4395652e-09
7.4262937e-09
7.4153175e-09
7.4058321e-09
7.3974371e-09
7.3900341e-09
7.3822569e-09
7.3759324e-09
7.3729423e-09
7.3717507e-09
7.3733183e-09
7.3735592e-09
7.3705119e-09
7.3607307e-09
7.3547382e-09
7.351546e-09
7.3500899e-09
7.3495133e-09
0.00031255449
0.00043683744
0.00014684493
1.7462418e-07
8.7503785e-09
7.9178258e-09
7.8018924e-09
7.664405e-09
7.7054202e-09
7.6715685e-09
7.6773235e-09
7.6716694e-09
7.6758548e-09
7.6798797e-09
7.6868236e-09
7.6949329e-09
7.7036682e-09
7.7116972e-09
7.7173706e-09
7.7184656e-09
7.7135306e-09
7.7017029e-09
7.6831363e-09
7.65906e-09
7.6312925e-09
7.6017139e-09
7.571991e-09
7.5434057e-09
7.5169041e-09
7.4933007e-09
7.4727502e-09
7.4548019e-09
7.4389976e-09
7.4256212e-09
7.4146468e-09
7.4052049e-09
7.3968353e-09
7.3893413e-09
7.3813981e-09
7.3754021e-09
7.3726793e-09
7.3720169e-09
7.3737875e-09
7.3740693e-09
7.3698876e-09
7.3602428e-09
7.3544418e-09
7.3514026e-09
7.3500299e-09
7.3494918e-09
0.00031138479
0.00041092519
0.00010405735
7.9585844e-08
8.593424e-09
7.9212785e-09
7.8052709e-09
7.6766628e-09
7.7148763e-09
7.6838599e-09
7.6891296e-09
7.6853949e-09
7.6902069e-09
7.6951096e-09
7.7027059e-09
7.7113275e-09
7.7202603e-09
7.7280571e-09
7.7328237e-09
7.732331e-09
7.7253085e-09
7.7110459e-09
7.690044e-09
7.6637993e-09
7.6342659e-09
7.6033594e-09
7.5727138e-09
7.543425e-09
7.5165897e-09
7.4928312e-09
7.4722458e-09
7.45427e-09
7.4383742e-09
7.4249051e-09
7.4139361e-09
7.404537e-09
7.3961908e-09
7.3885781e-09
7.3805221e-09
7.3748763e-09
7.3723716e-09
7.3723114e-09
7.3743082e-09
7.3746016e-09
7.3691687e-09
7.359732e-09
7.3541461e-09
7.3512627e-09
7.3499718e-09
7.3494709e-09
0.00031043451
0.00038208906
6.6514329e-05
4.2123954e-08
8.4943077e-09
7.9256909e-09
7.8094246e-09
7.6897234e-09
7.7251285e-09
7.6968847e-09
7.7020444e-09
7.6998862e-09
7.7053506e-09
7.7111224e-09
7.7193466e-09
7.7284139e-09
7.7374359e-09
7.7448168e-09
7.7483989e-09
7.7461023e-09
7.7367436e-09
7.719897e-09
7.6963998e-09
7.6679999e-09
7.6367633e-09
7.6046276e-09
7.5730879e-09
7.5432391e-09
7.5160956e-09
7.4922297e-09
7.4716433e-09
7.4536635e-09
7.4376977e-09
7.424151e-09
7.4131892e-09
7.4038281e-09
7.3954969e-09
7.3877319e-09
7.3796538e-09
7.3743527e-09
7.3720368e-09
7.3726226e-09
7.3748548e-09
7.3751189e-09
7.368376e-09
7.3592041e-09
7.3538548e-09
7.3511273e-09
7.3499159e-09
7.3494507e-09
0.00030944238
0.00034936289
3.8115652e-05
2.5964083e-08
8.4287251e-09
7.9310415e-09
7.8143876e-09
7.7036066e-09
7.7362185e-09
7.710685e-09
7.7162085e-09
7.7151652e-09
7.7213202e-09
7.7279433e-09
7.7367594e-09
7.7461906e-09
7.7551688e-09
7.7619081e-09
7.7640137e-09
7.7596748e-09
7.747746e-09
7.7281871e-09
7.7021598e-09
7.6716411e-09
7.6387893e-09
7.605522e-09
7.5731204e-09
7.5428155e-09
7.5154291e-09
7.4915013e-09
7.4709451e-09
7.4529838e-09
7.436971e-09
7.4233641e-09
7.4124125e-09
7.4030817e-09
7.3947471e-09
7.3867931e-09
7.3788221e-09
7.3738493e-09
7.3717119e-09
7.3729161e-09
7.3753654e-09
7.3755733e-09
7.3675252e-09
7.3586696e-09
7.353571e-09
7.3509969e-09
7.3498625e-09
7.3494312e-09
0.00030820691
0.00031323167
1.9241794e-05
1.8246464e-08
8.3830116e-09
7.9373477e-09
7.8201802e-09
7.7183052e-09
7.7481804e-09
7.7252817e-09
7.731099e-09
7.7312824e-09
7.7381483e-09
7.7455997e-09
7.7549557e-09
7.764649e-09
7.77342e-09
7.7792272e-09
7.7795924e-09
7.7729303e-09
7.7582221e-09
7.735844e-09
7.7072775e-09
7.6747016e-09
7.6403457e-09
7.6059869e-09
7.5728913e-09
7.5421709e-09
7.5145985e-09
7.4906529e-09
7.4701535e-09
7.452231e-09
7.4361954e-09
7.4225486e-09
7.4116128e-09
7.4023053e-09
7.3939374e-09
7.3857737e-09
7.3780371e-09
7.373406e-09
7.3714266e-09
7.3731898e-09
7.3757087e-09
7.3758516e-09
7.36664e-09
7.3581401e-09
7.3532965e-09
7.3508721e-09
7.3498118e-09
7.3494127e-09
0.00030624833
0.00027296556
8.6659205e-06
1.4285669e-08
8.349427e-09
7.9446041e-09
7.8268129e-09
7.7337998e-09
7.7610612e-09
7.7407022e-09
7.7466198e-09
7.7482857e-09
7.7558747e-09
7.7641136e-09
7.7739397e-09
7.78377e-09
7.7921243e-09
7.79667e-09
7.7950419e-09
7.7857471e-09
7.7680789e-09
7.7428065e-09
7.7117223e-09
7.6771836e-09
7.6414371e-09
7.6060356e-09
7.5723678e-09
7.541309e-09
7.513611e-09
7.4896895e-09
7.4692713e-09
7.451406e-09
7.4353721e-09
7.4217067e-09
7.410796e-09
7.4015089e-09
7.3930689e-09
7.3846831e-09
7.3773098e-09
7.3730624e-09
7.3712156e-09
7.3734835e-09
7.375825e-09
7.3760078e-09
7.3657482e-09
7.3576247e-09
7.3530322e-09
7.3507531e-09
7.3497639e-09
7.3493951e-09
0.00030343634
0.00022435739
3.6857441e-06
1.2143456e-08
8.3232146e-09
7.9529139e-09
7.8343511e-09
7.7501464e-09
7.7749349e-09
7.7570698e-09
7.7633246e-09
7.7662185e-09
7.7745287e-09
7.7835042e-09
7.793708e-09
7.8035187e-09
7.8111954e-09
7.8141339e-09
7.8102243e-09
7.7980127e-09
7.7772233e-09
7.7490118e-09
7.7154666e-09
7.6790877e-09
7.6420031e-09
7.6057538e-09
7.5715673e-09
7.5402424e-09
7.512477e-09
7.4886175e-09
7.4683007e-09
7.4505094e-09
7.4345018e-09
7.4208387e-09
7.4099649e-09
7.4007004e-09
7.3921444e-09
7.383538e-09
7.3766358e-09
7.372854e-09
7.3711453e-09
7.3738731e-09
7.3758215e-09
7.3760126e-09
7.3648779e-09
7.3571272e-09