/*--------------------------------*- C++ -*----------------------------------*\
| =========                 |                                                 |
| \\      /  F ield         | OpenFOAM: The Open Source CFD Toolbox           |
|  \\    /   O peration     | Version:  2306                                  |
|   \\  /    A nd           | Website:  www.openfoam.com                      |
|    \\/     M anipulation  |                                                 |
\*---------------------------------------------------------------------------*/
FoamFile
{
    version     2.0;
    format      ascii;
    arch        "LSB;label=32;scalar=64";
    class       volScalarField;
    location    "0.008";
    object      p;
}
// * * * * * * * * * * * * * * * * * * * * * * * * * * * * * * * * * * * * * //

dimensions      [1 -1 -2 0 0 0 0];

internalField   nonuniform List<scalar> 
20000
(
99558.133
99560.041
99562.013
99564.966
99568.981
99574.347
99581.134
99589.161
99598.812
99610.342
99623.878
99640.164
99659.018
99681.618
99707.571
99738.223
99773.198
99813.653
99859.154
99910.277
99966.202
100026.42
100089.13
100152.31
100212.92
100267.77
100313.58
100348.04
100369.53
100377.61
100373.63
100359.53
100338.98
100315.54
100289
100259.15
100230.4
100202.63
100175.74
100158.01
100128.54
100091.14
100076.93
100097.35
100113.33
100098.75
100057.35
100026.29
100009.94
100003.16
99568.871
99571.007
99573.028
99576.104
99580.327
99585.978
99593.142
99601.544
99611.576
99623.535
99637.515
99654.337
99673.751
99697.026
99723.726
99755.268
99791.212
99832.757
99879.418
99931.747
99988.855
100050.12
100113.64
100177.19
100237.61
100291.56
100335.78
100368.11
100386.82
100392.06
100385.33
100368.75
100346.21
100321.23
100293.5
100262.73
100233.19
100204.7
100177.71
100159.5
100128.93
100092.54
100079.09
100098.9
100112.79
100098.95
100057.53
100026.6
100010.21
100003.28
99581.726
99583.868
99586.001
99589.19
99593.587
99599.435
99606.82
99615.48
99625.806
99638.134
99652.525
99669.878
99689.87
99713.86
99741.345
99773.811
99810.766
99853.435
99901.289
99954.847
100013.14
100075.45
100139.72
100203.57
100263.67
100316.55
100359.02
100388.97
100404.69
100407
100397.36
100378.21
100353.58
100327.02
100298.05
100266.33
100235.98
100206.77
100179.67
100160.94
100129.33
100094.14
100081.23
100100.22
100112.52
100099.16
100057.7
100026.9
100010.48
100003.4
99595.726
99597.889
99600.125
99603.429
99608.001
99614.036
99621.645
99630.603
99641.284
99654.046
99668.903
99686.843
99707.461
99732.214
99760.526
99793.958
99831.964
99875.798
99924.883
99979.701
100039.2
100102.54
100167.52
100231.58
100291.2
100342.82
100383.35
100410.64
100423.16
100422.38
100409.68
100387.84
100361.06
100332.85
100302.61
100269.91
100238.71
100208.82
100181.57
100162.33
100129.72
100095.69
100083.36
100101.33
100112.42
100099.36
100057.87
100027.19
100010.74
100003.52
99611.016
99613.242
99615.599
99619.042
99623.825
99630.082
99637.963
99647.231
99658.277
99671.488
99686.821
99705.36
99726.618
99752.155
99781.32
99815.75
99854.846
99899.883
99950.237
100006.34
100067.06
100131.41
100197.05
100261.19
100320.18
100370.34
100408.7
100433.01
100442.2
100438.1
100422.2
100397.58
100368.58
100338.69
100307.16
100273.47
100241.42
100210.83
100183.42
100163.65
100130.11
100097.28
100085.42
100102.32
100112.42
100099.56
100058.05
100027.47
100010.97
100003.63
99627.928
99630.224
99632.709
99636.298
99641.305
99647.8
99655.967
99665.523
99676.901
99690.545
99706.342
99725.481
99747.387
99773.725
99803.77
99839.23
99879.455
99925.736
99977.396
100034.81
100096.76
100162.1
100228.32
100292.44
100350.61
100399.1
100435.04
100456.04
100461.76
100454.11
100434.88
100407.36
100376.08
100344.49
100311.67
100276.97
100244.06
100212.81
100185.22
100164.91
100130.52
100098.85
100087.38
100103.25
100112.52
100099.76
100058.23
100027.72
100011.18
100003.73
99646.386
99648.756
99651.366
99655.102
99660.336
99667.066
99675.501
99685.363
99697.081
99711.169
99727.44
99747.198
99769.773
99796.942
99827.902
99864.432
99905.829
99953.396
100006.4
100065.16
100128.34
100194.64
100261.37
100325.32
100382.47
100429.08
100462.28
100479.69
100481.78
100470.37
100447.66
100417.16
100383.53
100350.23
100316.09
100280.38
100246.62
100214.74
100186.97
100166.11
100130.93
100100.34
100089.22
100104.14
100112.74
100099.95
100058.4
100027.94
100011.36
100003.84
99666.306
99668.753
99671.479
99675.37
99680.842
99687.81
99696.513
99706.693
99718.766
99733.325
99750.098
99770.509
99793.789
99821.83
99853.747
99891.393
99934.01
99982.908
100037.3
100097.43
100161.83
100229.06
100296.21
100359.83
100415.74
100460.24
100490.35
100503.93
100502.16
100486.8
100460.5
100426.93
100390.92
100355.87
100320.4
100283.66
100249.06
100216.58
100188.64
100167.22
100131.37
100101.72
100090.92
100104.99
100113.05
100100.12
100058.57
100028.14
100011.52
100003.95
99687.47
99690.042
99692.889
99696.959
99702.705
99709.942
99718.948
99729.491
99741.954
99757.026
99774.337
99795.442
99819.466
99848.421
99881.341
99920.149
99964.038
100014.32
100070.14
100131.65
100197.29
100265.39
100332.84
100395.96
100450.39
100492.52
100519.16
100528.73
100522.82
100503.36
100473.34
100436.63
100398.21
100361.4
100324.6
100286.82
100251.37
100218.3
100190.21
100168.22
100131.81
100103.03
100092.5
100105.82
100113.45
100100.3
100058.76
100028.35
100011.68
100004.04
99710.133
99712.841
99715.821
99720.084
99726.115
99733.626
99742.943
99753.865
99766.732
99782.337
99800.206
99822.036
99846.837
99876.747
99910.718
99950.739
99995.955
100047.66
100104.96
100167.89
100234.74
100303.66
100371.29
100433.7
100486.42
100525.85
100548.63
100554.02
100543.69
100519.97
100486.13
100446.23
100405.36
100366.79
100328.65
100289.82
100253.54
100219.91
100191.66
100169.07
100132.22
100104.24
100093.97
100106.65
100113.93
100100.51
100058.99
100028.58
100011.85
100004.14
99734.454
99737.289
99740.386
99744.827
99751.13
99758.903
99768.517
99779.822
99793.103
99809.262
99827.713
99850.302
99875.92
99906.833
99941.909
99983.203
100029.81
100083
100141.81
100206.17
100274.22
100343.88
100411.55
100473.02
100523.79
100560.14
100578.7
100579.69
100564.71
100536.57
100498.81
100455.69
100412.36
100372.03
100332.55
100292.67
100255.57
100221.41
100192.99
100169.76
100132.6
100105.36
100095.36
100107.51
100114.5
100100.73
100059.14
100028.72
100011.98
100004.23
99759.965
99762.965
99766.219
99770.895
99777.53
99785.619
99795.575
99807.305
99821.031
99837.782
99856.852
99880.248
99906.736
99938.712
99974.961
100017.59
100065.64
100120.38
100180.74
100246.55
100315.77
100386.09
100453.61
100513.9
100562.43
100595.26
100609.36
100605.63
100585.78
100553.08
100511.34
100464.95
100419.17
100377.08
100336.27
100295.35
100257.45
100222.79
100194.19
100170.24
100132.93
100106.39
100096.66
100108.41
100115.15
100100.96
100059.2
100028.8
100012.06
100004.31
99787.158
99790.305
99793.692
99798.577
99805.504
99813.875
99824.162
99836.326
99850.517
99867.904
99887.646
99911.914
99939.337
99972.444
100009.93
100053.96
100103.53
100159.85
100221.81
100289.07
100359.42
100430.28
100497.47
100556.31
100602.28
100631.12
100640.53
100631.75
100606.82
100569.44
100523.66
100474
100425.78
100381.94
100339.8
100297.85
100259.17
100224.04
100195.25
100170.47
100133.23
100107.37
100097.93
100109.35
100115.88
100101.18
100059.21
100028.82
100012.1
100004.37
99815.627
99818.941
99822.469
99827.583
99834.806
99843.485
99854.182
99866.878
99881.621
99899.727
99920.203
99945.403
99973.817
100008.11
100046.89
100092.38
100143.52
100201.49
100265.07
100333.78
100405.21
100476.48
100543.11
100600.24
100643.24
100667.63
100672.1
100657.94
100627.75
100585.57
100535.71
100482.78
100432.14
100386.58
100343.12
100300.16
100260.72
100225.16
100196.17
100170.54
100133.48
100108.28
100099.15
100110.34
100116.7
100101.37
100059.14
100028.81
100012.12
100004.4
99845.707
99849.225
99852.936
99858.336
99865.913
99874.988
99886.108
99899.334
99914.62
99933.447
99954.662
99980.815
100010.25
100045.77
100085.9
100132.91
100185.68
100245.34
100310.58
100380.73
100453.17
100524.69
100590.5
100645.62
100685.18
100704.73
100703.93
100684.1
100648.47
100601.41
100547.43
100491.27
100438.23
100390.98
100346.22
100302.26
100262.11
100226.16
100196.95
100170.44
100133.61
100109.11
100100.31
100111.38
100117.59
100101.5
100058.99
100028.74
100012.12
100004.42
99877.839
99881.548
99885.43
99891.109
99899.04
99908.487
99919.97
99933.696
99949.51
99969.07
99991.045
100018.19
100048.69
100085.49
100127.03
100175.61
100230.07
100291.46
100358.38
100429.95
100503.31
100574.9
100639.62
100692.38
100727.96
100742.36
100735.89
100710.13
100668.89
100616.88
100558.79
100499.42
100444.04
100395.11
100349.07
100304.14
100263.31
100227.01
100197.59
100170.15
100133.64
100109.88
100101.41
100112.47
100118.56
100101.57
100058.75
100028.6
100012.09
100004.43
99911.459
99915.395
99919.473
99925.475
99933.797
99943.641
99955.572
99969.87
99986.264
100006.61
100029.39
100057.57
100089.19
100127.32
100170.33
100220.54
100276.76
100339.93
100408.54
100481.5
100555.66
100627.1
100690.43
100740.43
100771.46
100780.4
100767.85
100735.92
100688.92
100631.9
100569.72
100507.2
100449.53
100398.96
100351.67
100305.81
100264.34
100227.73
100198.11
100169.67
100133.59
100110.58
100102.47
100113.63
100119.62
100101.6
100058.43
100028.41
100012.02
100004.44
99947.121
99951.277
99955.538
99961.853
99970.55
99980.775
99993.135
100008.01
100024.99
100046.15
100069.75
100099.01
100131.8
100171.3
100215.85
100267.76
100325.79
100390.79
100461.11
100535.41
100610.24
100681.27
100742.9
100789.64
100815.58
100818.71
100799.68
100761.34
100708.48
100646.42
100580.19
100514.59
100454.68
100402.51
100353.99
100307.23
100265.19
100228.33
100198.45
100168.99
100133.43
100111.21
100103.49
100114.85
100120.76
100101.59
100058.02
100028.15
100011.92
100004.44
99984.536
99988.933
99993.388
100000.04
100009.15
100019.77
100032.59
100048.08
100065.66
100087.67
100112.15
100142.52
100176.53
100217.49
100263.65
100317.33
100377.24
100444.11
100516.14
100591.71
100667.04
100737.39
100796.95
100839.84
100860.24
100857.11
100831.25
100786.29
100727.46
100660.37
100590.14
100521.55
100459.48
100405.74
100356.02
100308.42
100265.87
100228.8
100198.59
100168.15
100133.17
100111.81
100104.48
100116.12
100121.98
100101.5
100057.52
100027.83
100011.79
100004.42
100023.68
100028.34
100033.03
100040.08
100049.62
100060.66
100073.94
100090.06
100108.27
100131.18
100156.56
100188.12
100223.43
100265.92
100313.78
100369.31
100431.18
100499.96
100573.69
100650.45
100726.07
100795.42
100852.48
100890.87
100905.33
100895.42
100862.42
100810.66
100745.79
100673.68
100599.54
100528.06
100463.91
100408.64
100357.75
100309.38
100266.39
100229.1
100198.6
100167.13
100132.8
100112.37
100105.46
100117.46
100123.27
100101.28
100056.93
100027.44
100011.62
100004.39
100064.61
100069.53
100074.45
100081.89
100091.82
100103.27
100117.04
100133.87
100152.75
100176.62
100203
100235.84
100272.55
100316.66
100366.32
100423.8
100487.69
100558.41
100633.82
100711.64
100787.3
100855.31
100909.39
100942.58
100950.69
100933.5
100893.05
100834.31
100763.37
100686.29
100608.35
100534.09
100467.94
100411.17
100359.17
100310.13
100266.67
100229.21
100198.47
100165.95
100132.31
100112.91
100106.42
100118.86
100124.64
100100.93
100056.24
100027
100011.43
100004.35
100106.92
100112.15
100117.35
100125.21
100135.61
100147.57
100161.89
100179.5
100199.14
100224.08
100251.56
100285.76
100323.98
100369.81
100421.38
100480.87
100546.85
100619.53
100696.57
100775.31
100850.73
100917.02
100967.48
100994.83
100996.12
100971.16
100922.99
100857.15
100780.13
100698.16
100616.53
100539.64
100471.56
100413.33
100360.31
100310.6
100266.75
100229.2
100198.17
100164.61
100131.73
100113.46
100107.43
100120.32
100126.09
100100.41
100055.46
100026.48
100011.2
100004.3
100151.23
100156.73
100162.2
100170.41
100181.23
100193.74
100208.66
100227.16
100247.63
100273.72
100302.39
100338.05
100377.86
100425.5
100479.04
100540.63
100608.74
100683.39
100762
100841.45
100916.32
100980.44
101026.55
101047.55
101041.39
101008.25
100952.1
100879.06
100795.98
100709.23
100624.06
100544.67
100474.75
100415.13
100361.14
100310.77
100266.66
100229.04
100197.72
100163.1
100131.03
100114.02
100108.51
100121.84
100127.61
100099.69
100054.58
100025.91
100010.95
100004.23
100197.16
100203.02
100208.85
100217.49
100228.93
100242.13
100257.7
100277.14
100298.49
100325.78
100355.68
100392.85
100434.31
100483.83
100539.43
100603.17
100673.46
100750.07
100830.14
100910.07
100984.02
101045.45
101086.41
101100.53
101086.29
101044.59
100980.23
100899.95
100810.86
100719.45
100630.92
100549.17
100477.5
100416.6
100361.57
100310.73
100266.38
100228.73
100197.1
100161.44
100130.23
100114.58
100109.72
100123.42
100129.21
100098.76
100053.58
100025.28
100010.67
100004.15
100245.71
100251.93
100258.16
100267.26
100279.29
100293.12
100309.27
100329.63
100351.83
100380.34
100411.49
100450.22
100493.42
100544.87
100602.61
100668.57
100741.07
100819.62
100901.02
100981.16
101053.78
101111.89
101146.88
101153.57
101130.62
101079.98
101007.25
100919.7
100824.7
100728.79
100637.08
100553.13
100479.83
100417.65
100361.67
100310.45
100265.91
100228.27
100196.3
100159.63
100129.35
100115.12
100111.13
100125.02
100130.88
100097.62
100052.46
100024.59
100010.36
100004.06
100296.55
100303.13
100309.78
100319.34
100331.91
100346.42
100363.18
100384.52
100407.62
100437.4
100469.88
100510.24
100555.24
100608.73
100668.69
100736.94
100811.68
100892.12
100974.67
101054.69
101125.51
101179.52
101207.78
101206.39
101174.17
101114.25
101033.03
100938.23
100837.45
100737.23
100642.52
100556.54
100481.75
100418.19
100361.47
100309.92
100265.24
100227.64
100195.33
100157.69
100128.43
100115.58
100112.83
100126.61
100132.6
100096.25
100051.22
100023.86
100010.03
100003.97
100349.44
100356.43
100363.58
100373.68
100386.81
100402.08
100419.48
100441.85
100465.91
100497.02
100530.91
100572.97
100619.89
100675.5
100737.77
100808.37
100885.36
100967.61
101051.09
101130.62
101199.1
101248.08
101268.99
101258.72
101216.71
101147.23
101057.43
100955.46
100849.05
100744.73
100647.24
100559.42
100483.22
100418.34
100360.94
100309.14
100264.37
100226.85
100194.14
100155.62
100127.56
100115.94
100114.88
100128.13
100134.33
100094.63
100049.87
100023.07
100009.68
100003.86
100404.81
100412.2
100419.86
100430.43
100444.06
100460.12
100478.17
100501.64
100526.72
100559.25
100594.64
100638.5
100687.44
100745.27
100809.94
100882.95
100962.2
101046.14
101130.28
101208.89
101274.35
101317.34
101330.22
101310.29
101258.02
101178.74
101080.34
100971.3
100859.47
100751.26
100651.22
100561.77
100484.15
100418.11
100360.09
100308.13
100263.3
100225.87
100192.69
100153.46
100126.75
100116.23
100117.33
100129.62
100135.97
100092.75
100048.4
100022.25
100009.32
100003.74
100462.24
100470.07
100478.27
100489.37
100503.55
100520.52
100539.3
100563.96
100590.15
100624.18
100661.17
100706.94
100758.01
100818.17
100885.34
100960.8
101042.28
101127.76
101212.22
101289.41
101351.06
101387.08
101391.19
101360.84
101297.86
101208.62
101101.64
100985.71
100868.66
100756.82
100654.5
100563.61
100484.54
100417.49
100358.93
100306.87
100262.02
100224.69
100190.92
100151.25
100125.98
100116.56
100120.19
100131.13
100137.36
100090.61
100046.84
100021.39
100008.94
100003.62
100522.01
100530.33
100539.13
100550.82
100565.56
100583.49
100603.04
100628.95
100656.3
100691.92
100730.62
100778.4
100831.72
100894.32
100964.08
101042.04
101125.68
101212.48
101296.89
101372.08
101428.91
101457.09
101451.53
101410.09
101336.03
101236.71
101121.24
100998.62
100876.6
100761.4
100657.09
100564.84
100484.55
100416.46
100357.46
100305.38
100260.54
100223.28
100188.73
100149.08
100125.25
100116.99
100123.36
100132.74
100138.35
100088.24
100045.2
100020.51
100008.55
100003.49
100584.22
100593.06
100602.48
100614.81
100630.1
100649.04
100669.4
100696.64
100725.24
100762.56
100803.09
100853.02
100908.73
100973.88
101046.3
101126.76
101212.47
101300.32
101384.23
101456.7
101507.58
101527.12
101510.91
101457.75
101372.3
101262.87
101139.07
101009.97
100883.27
100765.07
100659.01
100565.42
100484.1
100415.05
100355.7
100303.66
100258.84
100221.59
100186.11
100146.92
100124.64
100117.58
100126.64
100134.66
100138.83
100085.67
100043.5
100019.6
100008.15
100003.35
100648.88
100658.26
100668.31
100681.29
100697.15
100717.19
100738.44
100767.13
100797.12
100836.27
100878.79
100930.98
100989.2
101056.99
101132.13
101215.08
101302.71
101391.28
101474.13
101543.04
101586.79
101596.81
101568.99
101503.55
101406.48
101286.97
101155.03
101019.73
100888.7
100767.86
100660.08
100565.52
100483.2
100413.26
100353.65
100301.7
100256.92
100219.61
100183.08
100144.77
100124.22
100118.37
100129.83
100137.15
100139.1
100082.93
100041.75
100018.68
100007.75
100003.21
100715.96
100725.92
100736.57
100750.31
100766.85
100788.15
100810.41
100840.7
100872.22
100913.31
100957.93
101012.49
101073.33
101143.84
101221.73
101307.1
101396.43
101485.32
101566.5
101630.78
101666.22
101665.76
101625.43
101547.21
101438.36
101308.9
101169.07
101027.9
100892.97
100769.58
100660.44
100565.11
100481.87
100411.1
100351.33
100299.51
100254.78
100217.31
100179.6
100142.6
100124.03
100119.45
100132.86
100140.24
100138.49
100080.08
100039.97
100017.75
100007.34
100003.07
100785.85
100796.47
100807.77
100822.55
100839.86
100862.49
100885.78
100917.72
100950.81
100993.9
101040.71
101097.72
101161.27
101234.55
101315.21
101402.91
101493.67
101582.39
101661.12
101719.49
101745.66
101733.49
101679.86
101588.47
101467.8
101328.55
101181.13
101034.54
100895.99
100770.28
100660.17
100564.19
100480.1
100408.59
100348.74
100297.1
100252.41
100214.65
100175.71
100140.38
100123.96
100120.86
100136.01
100143.65
100136.88
100077.19
100038.15
100016.82
100006.94
100002.93
100859.07
100870.43
100882.5
100898.38
100916.35
100940.36
100964.68
100998.3
101033.03
101078.18
101127.28
101186.83
101253.17
101329.28
101412.69
101502.57
101594.4
101682.38
101757.75
101808.8
101824.66
101799.59
101731.94
101627.06
101494.61
101345.84
101191.23
101039.68
100897.57
100770.14
100659.24
100562.75
100477.92
100405.75
100345.9
100294.46
100249.81
100211.63
100171.45
100138.07
100123.84
100122.79
100139.44
100147.29
100134.27
100074.28
100036.31
100015.89
100006.55
100002.79
100935.74
100947.87
100960.69
100977.65
100996.26
101021.71
101047.12
101082.5
101118.95
101166.26
101217.77
101279.96
101349.19
101428.18
101514.29
101606.14
101698.62
101785.16
101856.03
101898.34
101902.73
101863.63
101781.33
101662.75
101518.67
101360.72
101199.43
101043.15
100897.99
100769.14
100657.67
100560.81
100475.34
100402.61
100342.82
100291.61
100246.98
100208.23
100166.92
100135.73
100123.31
100125.26
100143.16
100151.12
100130.79
100071.28
100034.44
100014.98
100006.17
100002.65
101015.71
101028.68
101042.22
101060.34
101079.62
101106.59
101133.19
101170.42
101208.72
101258.31
101312.35
101377.29
101449.5
101531.39
101620.11
101713.64
101806.25
101890.53
101955.44
101987.76
101979.3
101925.15
101827.67
101695.34
101539.85
101373.18
101205.72
101044.84
100897.29
100767.28
100655.47
100558.38
100472.38
100399.17
100339.51
100288.55
100243.92
100204.4
100162.21
100133.3
100122.39
100128.14
100147.12
100155.11
100126.7
100068.11
100032.57
100014.09
100005.8
100002.52
101098.97
101112.9
101127.15
101146.54
101166.56
101195.16
101223.05
101262.26
101302.54
101354.52
101411.22
101478.99
101554.26
101639.05
101730.24
101825.09
101917.21
101998.19
102055.53
102076.6
102053.82
101983.72
101870.66
101724.63
101558.1
101383.27
101209.91
101045.12
100895.47
100764.61
100652.67
100555.49
100469.06
100395.46
100335.99
100285.29
100240.61
100200.07
100157.46
100130.78
100121.25
100131.21
100151.21
100159
100122.11
100064.82
100030.73
100013.23
100005.44
100002.39
101185.74
101200.75
101215.73
101236.5
101257.34
101287.69
101316.95
101358.22
101400.59
101455.04
101514.54
101585.27
101663.66
101751.32
101844.75
101940.46
102031.3
102107.72
102155.79
102164.25
102125.75
102038.9
101910.01
101750.45
101573.38
101390.99
101211.94
101043.96
100892.56
100761.16
100649.28
100552.14
100465.4
100391.51
100332.26
100281.84
100237.05
100195.18
100152.83
100128.28
100120.22
100134.15
100155.1
100162.58
100117.09
100061.47
100028.93
100012.39
100005.09
100002.27
101276.37
101292.59
101308.3
101330.49
101352.17
101384.31
101414.97
101458.39
101502.99
101560.06
101622.52
101696.32
101777.9
101868.33
101963.69
102059.68
102148.31
102218.54
102255.75
102250.01
102194.52
102090.26
101945.45
101772.71
101585.74
101396.13
101212.21
101041.37
100888.61
100756.95
100645.33
100548.34
100461.43
100387.33
100328.33
100278.2
100233.2
100189.8
100148.4
100126.02
100119.48
100136.81
100158.29
100165.1
100111.78
100058.15
100027.18
100011.59
100004.77
100002.15
101370.67
101388.33
101404.71
101428.37
101450.91
101484.96
101517.16
101562.92
101609.96
101669.85
101735.46
101812.43
101897.19
101990.21
102087.08
102182.63
102267.86
102330.03
102354.88
102333.18
102259.57
102137.4
101976.75
101791.36
101595.17
101398.64
101210.68
101037.42
100883.68
100752.04
100640.82
100544.11
100457.15
100382.95
100324.23
100274.39
100229.05
100184.01
100144.28
100124.25
100119.14
100139.41
100160.35
100166.85
100106.37
100054.9
100025.5
100010.83
100004.46
100002.04
101468.8
101487.96
101504.77
101530.01
101553.6
101589.88
101623.89
101672.22
101721.97
101784.82
101853.7
101933.87
102021.72
102117.04
102214.87
102309.08
102389.45
102441.56
102452.42
102413.04
102320.35
102179.97
102003.76
101806.41
101601.44
101398.96
101207.37
101032.15
100877.8
100746.45
100635.8
100539.47
100452.59
100378.37
100319.95
100270.4
100224.55
100177.91
100140.56
100123.29
100119.53
100142.51
100161.4
100167.66
100101.03
100051.75
100023.88
100010.11
100004.17
100001.93
101570.74
101591.51
101608.98
101636.34
101661.12
101699.93
101735.92
101786.93
101839.49
101905.35
101977.52
102060.85
102151.61
102248.85
102346.96
102438.72
102512.37
102552.49
102547.51
102488.9
102376.31
102217.64
102026.38
101817.85
101604.49
101397.04
101202.37
101025.65
100871.05
100740.22
100630.25
100534.41
100447.76
100373.62
100315.5
100266.21
100219.62
100171.64
100137.21
100122.89
100122.05
100146.69
100161.7
100167.24
100095.9
100048.7
100022.32
100009.43
100003.9
100001.83
101678.27
101700.7
101719.13
101748.77
101774.57
101815.78
101853.71
101907.36
101962.78
102031.65
102107.14
102193.55
102286.98
102385.62
102483.14
102571.07
102635.81
102662.16
102639.21
102560.03
102426.96
102250.17
102044.6
101825.4
101604.84
101392.95
101195.74
101017.97
100863.47
100733.38
100624.21
100528.94
100442.67
100368.7
100310.89
100261.78
100214.08
100165.47
100134.39
100122.67
100126.92
100151.88
100163.51
100163.23
100090.96
100045.7
100020.84
100008.79
100003.65
100001.74
101791.18
101815.61
101834.93
101866.73
101893.6
101937.32
101977.28
102033.62
102092.02
102163.95
102242.76
102332.12
102427.86
102527.25
102623.12
102705.48
102758.96
102769.58
102726.64
102625.73
102471.87
102277.42
102058.38
101829.06
101602.43
101386.77
101187.57
101009.19
100855.12
100725.96
100617.68
100523.08
100437.32
100363.62
100306.12
100257.04
100207.72
100159.63
100131.94
100122.61
100133.2
100157.64
100167.62
100156.81
100085.94
100042.79
100019.44
100008.19
100003.41
100001.65
101909.89
101936.35
101956.33
101990.48
102018.37
102064.67
102106.81
102165.9
102227.44
102302.49
102384.6
102476.68
102574.24
102673.56
102766.44
102841.03
102881.02
102873.65
102808.9
102685.34
102510.69
102299.3
102067.4
101829.36
101597.35
101378.59
101177.95
100999.39
100846.05
100718.01
100610.67
100516.8
100431.71
100358.36
100301.18
100251.92
100200.62
100154.02
100129.67
100122.64
100140.16
100163.88
100172.78
100149.07
100080.87
100040.01
100018.13
100007.63
100003.2
100001.57
102034.08
102062.64
102083.17
102119.93
102148.97
102198.06
102242.64
102304.57
102369.36
102447.57
102532.85
102627.31
102726.06
102824.26
102912.45
102976.69
103001.04
102973.21
102885.06
102738.24
102543.16
102315.74
102071.69
101826.26
101589.7
101368.52
101166.96
100988.63
100836.32
100709.53
100603.19
100510.11
100425.82
100352.93
100296.06
100246.32
100192.87
100148.54
100127.53
100122.7
100147.22
100169.98
100177.93
100141.01
100075.9
100037.39
100016.9
100007.12
100003
100001.5
102163.61
102194.56
102215.74
102255.48
102285.77
102337.91
102385.3
102450.13
102518.14
102599.4
102687.65
102784.02
102883.12
102978.88
103060.24
103111.41
103117.75
103067.09
102954.25
102783.95
102569.13
102326.34
102071.82
101819.87
101579.62
101356.68
101154.71
100976.99
100825.96
100700.56
100595.24
100503
100419.63
100347.29
100290.7
100240.15
100184.64
100143.1
100125.31
100122.89
100153.52
100175.03
100181.56
100132.96
100071.15
100034.93
100015.75
100006.64
100002.81
100001.43
102299.26
102332.94
102354.6
102397.64
102429.27
102484.48
102535
102602.88
102674.06
102758.16
102849.05
102946.71
103045.12
103136.74
103208.58
103244.14
103229.68
103154.14
103015.65
102822.08
102588.44
102331.23
102067.73
101810.34
101567.24
101343.18
101141.28
100964.53
100815.04
100691.12
100586.83
100495.46
100413.1
100341.41
100285.06
100233.22
100176.17
100137.71
100122.68
100123.65
100157.9
100178.14
100184.3
100125.14
100066.69
100032.62
100014.69
100006.2
100002.64
100001.37
102441.99
102478.78
102500.65
102547.35
102580.5
102638.43
102691.65
102762.69
102837.25
102924
103017.08
103115.21
103211.56
103296.88
103356.13
103373.48
103335.35
103233.21
103068.58
102852.35
102600.61
102330.94
102059.61
101797.83
101552.71
101328.14
101126.76
100951.33
100803.57
100681.22
100577.95
100487.45
100406.18
100335.25
100279.02
100225.33
100167.74
100132.4
100119.36
100125.11
100160.21
100179.3
100185.33
100117.78
100062.51
100030.45
100013.7
100005.79
100002.49
100001.31
102592.57
102633.02
102654.88
102705.23
102739.66
102800.46
102856.29
102929.95
103007.94
103097.11
103191.7
103289.19
103381.68
103457.97
103501.52
103497.69
103433.3
103303.23
103112.5
102874.51
102605.89
102325.46
102047.61
101782.52
101536.16
101311.66
101111.23
100937.43
100791.61
100670.88
100568.62
100478.97
100398.83
100328.75
100272.45
100216.36
100159.54
100127.17
100115.7
100127.37
100161.17
100179.16
100186.25
100110.94
100058.53
100028.41
100012.78
100005.42
100002.34
100001.26
102751.09
102795.66
102816.96
102871.22
102907.15
102970.47
103029.27
103105.47
103186.5
103277.55
103372.7
103468.06
103554.4
103618.26
103643.23
103614.86
103522.05
103363.27
103146.95
102887.95
102604.74
102314.99
102031.98
101764.6
101517.75
101293.85
101094.79
100922.9
100779.18
100660.13
100558.84
100469.99
100390.97
100321.85
100265.23
100206.41
100151.51
100122.26
100112.55
100131.38
100162.52
100177.36
100182.56
100104.5
100054.71
100026.51
100011.94
100005.07
100002.21
100001.21
102917.54
102966.23
102986.84
103044.86
103082.53
103148.34
103210.6
103289.54
103373.1
103465.17
103559.57
103650.85
103728.14
103776.01
103779.14
103723.14
103600.21
103412.57
103171.46
102893.08
102597.18
102299.77
102012.93
101744.26
101497.62
101274.83
101077.49
100907.78
100766.3
100648.96
100548.62
100460.49
100382.55
100314.47
100257.21
100195.64
100143.71
100118.03
100110.67
100136.85
100165.44
100176.66
100174.56
100098.11
100051.09
100024.76
100011.17
100004.76
100002.09
100001.16
103093
103145.08
103164.78
103226.47
103266.74
103335.29
103401.06
103482.02
103567.56
103659.56
103751.5
103836.19
103900.76
103929.34
103906.88
103820.65
103666.55
103450.41
103185.35
102890.24
102583.49
102280.09
101990.72
101721.67
101475.91
101254.68
101059.42
100892.12
100753.01
100637.41
100537.98
100450.48
100373.49
100306.55
100248.24
100184.31
100136.34
100114.65
100109.95
100143.59
100170.2
100180.17
100164.72
100091.82
100047.74
100023.16
100010.45
100004.47
100001.97
100001.12
103277.44
103333.09
103352.7
103416.89
103460.77
103532.27
103600.94
103683.17
103769.49
103859.92
103947.17
104022.13
104070.03
104075.69
104024.09
103905.59
103719.94
103475.98
103189.27
102879.54
102563.96
102256.24
101965.57
101697.03
101452.74
101233.52
101040.63
100875.95
100739.3
100625.47
100526.94
100439.95
100363.75
100297.97
100238.13
100172.91
100129.54
100112.05
100110.65
100151.06
100175.97
100184.85
100154.54
100085.91
100044.67
100021.68
100009.8
100004.2
100001.87
100001.08
103471.66
103531.47
103552.5
103619.07
103665.65
103738.41
103809.62
103892.34
103978.05
104064.98
104144.74
104206.01
104233.48
104212.11
104128.39
103976.34
103759.4
103488.87
103183.33
102861.29
102538.97
102228.55
101937.74
101670.5
101428.23
101211.4
101021.17
100859.29
100725.2
100613.18
100515.52
100428.92
100353.28
100288.64
100226.66
100162.15
100123.61
100109.46
100113.65
100157.92
100181.34
100188.49
100144.97
100080.46
100041.84
100020.31
100009.2
100003.95
100001.78
100001.04
103675.92
103739.38
103761.89
103831.4
103880.75
103953.91
104026.63
104108.67
104191.97
104272.91
104341.66
104384.91
104387.91
104335.61
104217.49
104031.37
103783.78
103489.67
103167.76
102835.9
102508.91
102197.31
101907.44
101642.25
101402.5
101188.42
101001.11
100842.17
100710.71
100600.53
100503.78
100417.42
100342.05
100278.44
100214.05
100152.26
100118.39
100106.87
100117.15
100161.87
100184.37
100190.68
100136.09
100075.46
100039.22
100019.05
100008.65
100003.73
100001.69
100001.01
103891.34
103957.8
103981.66
104052.25
104104.66
104177.87
104250.94
104330.78
104409.38
104481.14
104534.5
104555.58
104529.62
104443.18
104289.22
104069.21
103793.13
103478.32
103142.95
102803.84
102474.16
102162.84
101874.91
101612.41
101375.64
101164.64
100980.46
100824.6
100695.83
100587.57
100491.76
100405.5
100330.08
100267.31
100200.74
100143.12
100113.72
100104.41
100120
100163.57
100186.42
100192.09
100127.87
100070.83
100036.77
100017.9
100008.15
100003.52
100001.61
100000.98
104116.96
104186.08
104211.75
104282.67
104336.96
104409.34
104481.23
104556.74
104627.63
104686.15
104719.44
104713.86
104654.86
104531.89
104341.57
104088.77
103787.56
103455.2
103109.43
102765.6
102435.15
102125.44
101840.34
101581.14
101347.76
101140.11
100959.26
100806.59
100680.57
100574.29
100479.51
100393.2
100317.38
100255.11
100187.11
100134.67
100109.63
100102.35
100122.8
100161.62