/*--------------------------------*- C++ -*----------------------------------*\
| =========                 |                                                 |
| \\      /  F ield         | OpenFOAM: The Open Source CFD Toolbox           |
|  \\    /   O peration     | Version:  2306                                  |
|   \\  /    A nd           | Website:  www.openfoam.com                      |
|    \\/     M anipulation  |                                                 |
\*---------------------------------------------------------------------------*/
FoamFile
{
    version     2.0;
    format      ascii;
    arch        "LSB;label=32;scalar=64";
    class       surfaceScalarField;
    location    "0.008";
    object      phi;
}
// * * * * * * * * * * * * * * * * * * * * * * * * * * * * * * * * * * * * * //

dimensions      [1 0 -1 0 0 0 0];

oriented        oriented;

internalField   nonuniform List<scalar> 
39600
(
-1.6998355e-05
-0.0032204363
0.0032374397
-3.8078474e-05
-0.0045986006
0.0046196826
-6.3011192e-05
-0.0060804158
0.0061053611
-9.2701568e-05
-0.007865432
0.0078951256
-0.00013062925
-0.010046991
0.010084942
-0.00019353702
-0.012666154
0.012729075
-0.00031376644
-0.015427697
0.015547976
-0.00046533128
-0.018479959
0.018631561
-0.00064660962
-0.022101519
0.022282852
-0.00086358481
-0.026452503
0.026669528
-0.0011235007
-0.031636981
0.031896959
-0.0014355102
-0.037846241
0.038158316
-0.0018101539
-0.045252703
0.04562742
-0.0022605171
-0.054105496
0.054555955
-0.0028025082
-0.064664739
0.065206834
-0.0034557465
-0.077266474
0.077919859
-0.0042433845
-0.09228737
0.093075189
-0.0051942936
-0.11018951
0.11114063
-0.0063428289
-0.1315091
0.1326579
-0.0077319708
-0.15688977
0.15827923
-0.0094119088
-0.18709459
0.18877491
-0.011443223
-0.22303874
0.22507051
-0.013896693
-0.26582571
0.2682797
-0.01685346
-0.316796
0.31975333
-0.020405427
-0.37759169
0.38114421
-0.02465356
-0.45023057
0.45447904
-0.029710677
-0.53719181
0.54224883
-0.035706803
-0.64149536
0.64749017
-0.042780011
-0.76681519
0.77388519
-0.051098938
-0.91756714
0.92587922
-0.060875009
-1.0989855
1.1087502
-0.072342814
-1.3173163
1.3287705
-0.085779978
-1.5799764
1.5934034
-0.10151147
-1.8957461
1.9114724
-0.11991199
-2.2751172
2.2935053
-0.1413761
-2.7306294
2.7520713
-0.16627314
-3.2771452
3.3020225
-0.19497918
-3.9327064
3.9613817
-0.22778937
-4.7186119
4.7514078
-0.26484602
-5.6603615
5.6973733
-0.30595597
-6.7900706
6.8309641
-0.35068015
-8.1440225
8.1885998
-0.39700042
-9.761906
9.808321
-0.44272504
-11.703025
11.749249
-0.48383235
-14.03863
14.08024
-0.51494784
-16.848061
16.878826
-0.52385116
-20.215661
20.223753
-0.49354215
-24.259383
24.228359
-0.39856018
-29.119221
29.02376
-34.966773
34.768913
-1.5788011e-05
-0.0032046163
-3.6203522e-05
-0.0045781559
-6.0954757e-05
-0.0060556397
-9.0901694e-05
-0.0078354604
-0.00012934443
-0.010008521
-0.00019495836
-0.012600523
-0.00031304534
-0.015309564
-0.00045918432
-0.018333783
-0.0006348456
-0.0219258
-0.00084580753
-0.026241489
-0.0010992727
-0.031383447
-0.0014041029
-0.037541341
-0.001770516
-0.044886202
-0.0022117002
-0.053664213
-0.0027428303
-0.064133487
-0.0033835066
-0.076625647
-0.0041564231
-0.091514269
-0.0050905513
-0.10925515
-0.0062200256
-0.13037934
-0.0075869945
-0.15552246
-0.0092416428
-0.18543953
-0.011244363
-0.22103554
-0.013665019
-0.26340451
-0.016584271
-0.31387617
-0.020092137
-0.37408326
-0.024287909
-0.44603442
-0.029281817
-0.53219801
-0.03519857
-0.63557981
-0.042171959
-0.75984507
-0.050372587
-0.90937303
-0.06000123
-1.0893679
-0.071290188
-1.3060405
-0.084512097
-1.5667636
-0.099986455
-1.8802761
-0.11808597
-2.2570289
-0.13920322
-2.7095333
-0.16370578
-3.2526623
-0.19197111
-3.9044709
-0.22429665
-4.6863003
-0.26084769
-5.6238545
-0.30148448
-6.7496413
-0.3457808
-8.099858
-0.39184913
-9.7157405
-0.43746175
-11.65695
-0.47893715
-13.996662
-0.5110995
-16.816227
-0.52228511
-20.205273
-0.49596747
-24.286405
-0.40766204
-29.207992
-35.153956
-1.532543e-05
-0.0031892856
-3.4695884e-05
-0.0045587813
-5.8098143e-05
-0.0060322276
-8.6345545e-05
-0.0078072091
-0.00012240394
-0.0099724458
-0.00018817215
-0.012534742
-0.00030656409
-0.01519113
-0.00045009938
-0.018190209
-0.0006223971
-0.021753452
-0.00082921566
-0.026034622
-0.0010775097
-0.03113509
-0.0013761289
-0.037242655
-0.001735112
-0.044527136
-0.0021676528
-0.053231577
-0.0026886871
-0.063612335
-0.0033176093
-0.07599658
-0.0040770695
-0.090754632
-0.0049956499
-0.10833635
-0.0061073909
-0.12926734
-0.0074543837
-0.15417514
-0.0090866131
-0.18380691
-0.011063613
-0.21905808
-0.013455598
-0.261012
-0.01634155
-0.31098966
-0.019810288
-0.37061398
-0.02395893
-0.44188543
-0.028895664
-0.52726142
-0.034739815
-0.62973694
-0.041620369
-0.75296789
-0.049709706
-0.90129017
-0.059199563
-1.0798887
-0.070320218
-1.2949324
-0.083339574
-1.5537521
-0.098573753
-1.865045
-0.11639237
-2.2392204
-0.13718342
-2.6887625
-0.16131843
-3.228547
-0.18917641
-3.8766421
-0.22105945
-4.6544309
-0.25715044
-5.5878086
-0.29736971
-6.709622
-0.3412758
-8.0560673
-0.38713765
-9.6697725
-0.43274473
-11.610926
-0.47469336
-13.954232
-0.5080008
-16.783225
-0.52152734
-20.19253
-0.49933632
-24.309285
-0.41780318
-29.289998
-35.330373
-1.463983e-05
-0.0031746398
-3.3118358e-05
-0.0045402967
-5.5428712e-05
-0.0060099115
-8.2404329e-05
-0.0077802284
-0.00011664995
-0.0099381877
-0.00018312228
-0.012468259
-0.00030129582
-0.015072921
-0.00044155194
-0.018049922
-0.00060997196
-0.021584986
-0.0008122975
-0.025832251
-0.0010553175
-0.030892012
-0.0013478504
-0.03695006
-0.0016997352
-0.044175175
-0.0021240215
-0.052807201
-0.0026354963
-0.063100748
-0.0032534045
-0.075378534
-0.0040002114
-0.090007658
-0.0049041724
-0.10743218
-0.0059996279
-0.12817162
-0.0073279183
-0.15284654
-0.0089393371
-0.18219512
-0.010893387
-0.21710359
-0.013258992
-0.25864589
-0.016115036
-0.30813307
-0.01954843
-0.36718007
-0.023654135
-0.43777941
-0.028538351
-0.5223774
-0.034313874
-0.62396279
-0.041109612
-0.74617561
-0.049094142
-0.89331234
-0.058454346
-1.0705393
-0.06941697
-1.283982
-0.08224675
-1.5409295
-0.097255846
-1.8500379
-0.1148134
-2.221672
-0.13530319
-2.6682921
-0.15909969
-3.2047701
-0.18658226
-3.8491878
-0.21806234
-4.6229643
-0.2537401
-5.5521769
-0.29358498
-6.6699683
-0.33716426
-8.0125836
-0.38288779
-9.623942
-0.42859289
-11.564837
-0.47109772
-13.911256
-0.50565235
-16.74896
-0.52164101
-20.177306
-0.50366606
-24.327931
-0.42899237
-29.365151
-35.495946
-1.3957009e-05
-0.0031606871
-3.1505168e-05
-0.0045227589
-5.259778e-05
-0.0059888193
-7.8175075e-05
-0.0077546614
-0.00011055947
-0.0099057966
-0.00017767026
-0.01240114
-0.00029326115
-0.014957298
-0.00043063142
-0.017912521
-0.00059564491
-0.021419933
-0.00079399748
-0.025633858
-0.0010322995
-0.030653659
-0.001319321
-0.036662982
-0.0016646697
-0.043829757
-0.0020813638
-0.052390424
-0.0025839401
-0.062598068
-0.003191576
-0.074770769
-0.0039265584
-0.089272517
-0.0048172895
-0.10654126
-0.0058974494
-0.12709122
-0.0072090929
-0.1515346
-0.0088019008
-0.18060196
-0.010735232
-0.21516984
-0.013077788
-0.25630285
-0.015907322
-0.30530302
-0.019309456
-0.36377744
-0.023376845
-0.43371173
-0.028213363
-0.51754112
-0.033925307
-0.61825231
-0.040644421
-0.73946008
-0.048530628
-0.88543305
-0.057769839
-1.0613112
-0.068585719
-1.2731783
-0.081239143
-1.5282825
-0.096040653
-1.8352373
-0.11335468
-2.204366
-0.13356701
-2.6480985
-0.15705165
-3.181305
-0.18419404
-3.8220728
-0.21531169
-4.5918601
-0.25062609
-5.51691
-0.29014904
-6.6306284
-0.33345764
-7.9693558
-0.37911116
-9.5781843
-0.42500549
-11.518583
-0.46817086
-13.867629
-0.50407601
-16.713332
-0.52260763
-20.159516
-0.50895826
-24.342242
-0.44128755
-29.433296
-35.65054
-1.3462823e-05
-0.0031472197
-3.0258428e-05
-0.0045059592
-5.0362894e-05
-0.0059687154
-7.4816272e-05
-0.0077302027
-0.00010587046
-0.0098747393
-0.00017413586
-0.012332861
-0.00028641308
-0.014844997
-0.0004213247
-0.017777581
-0.00058329402
-0.02125793
-0.0007780258
-0.025439087
-0.0010119735
-0.030419666
-0.0012938254
-0.036381077
-0.0016330818
-0.043490438
-0.002042637
-0.051980792
-0.0025369198
-0.062103687
-0.0031350137
-0.074172553
-0.0038590789
-0.088548302
-0.004737589
-0.10566256
-0.0058041451
-0.12602444
-0.0071007156
-0.15023775
-0.0086768667
-0.17902547
-0.010592183
-0.21325412
-0.012914767
-0.25397981
-0.015721748
-0.30249554
-0.019096556
-0.36040217
-0.023130847
-0.42967718
-0.027923968
-0.51274828
-0.033578093
-0.61259974
-0.040226853
-0.73281502
-0.048022231
-0.8776448
-0.057149645
-1.052195
-0.067829476
-1.2625107
-0.08031998
-1.5157979
-0.094929508
-1.8206277
-0.11202091
-2.1872818
-0.13198196
-2.6281555
-0.15518478
-3.1581216
-0.18201976
-3.7952642
-0.21281619
-4.561077
-0.24781358
-5.4819619
-0.28706988
-6.591547
-0.33017075
-7.9263245
-0.37581945
-9.5324382
-0.42200212
-11.472058
-0.46592787
-13.823248
-0.5032959
-16.676233
-0.52449863
-20.139031
-0.51530491
-24.352088
-0.45473646
-29.494334
-35.794076
-1.2960906e-05
-0.0031342755
-2.9001137e-05
-0.0044899332
-4.8014197e-05
-0.0059497134
-7.1316509e-05
-0.007706909
-0.0001012667
-0.0098447904
-0.00017064672
-0.012263469
-0.00028096338
-0.014734657
-0.00041333329
-0.01764518
-0.00057226424
-0.021098968
-0.00076346307
-0.025247852
-0.00099317667
-0.030189912
-0.0012701338
-0.036104072
-0.0016035962
-0.043156918
-0.0020064476
-0.05157787
-0.0024930013
-0.061617043
-0.0030822608
-0.07358318
-0.003796313
-0.08783411
-0.0046636293
-0.10479507
-0.0057180848
-0.12496977
-0.0070013294
-0.14895424
-0.0085634473
-0.17746302
-0.010463299
-0.21135388
-0.012769187
-0.25167347
-0.015557047
-0.2997072
-0.01890912
-0.35704964
-0.022915207
-0.42567085
-0.027669857
-0.50799398
-0.033271919
-0.60699932
-0.039856352
-0.72623444
-0.047568993
-0.86993955
-0.056593577
-1.0431819
-0.067148466
-1.251968
-0.079490048
-1.5034614
-0.0939248
-1.8061916
-0.11081561
-2.1703976
-0.13054671
-2.6084427
-0.15349525
-3.1351927
-0.18006021
-3.7687246
-0.21057744
-4.5305731
-0.24531084
-5.4472803
-0.28435268
-6.5526712
-0.32731083
-7.883423
-0.37302749
-9.4866326
-0.4195933
-11.425167
-0.46438317
-13.778011
-0.50333073
-16.63755
-0.52732582
-20.11573
-0.52269318
-24.357362
-0.46937381
-29.548122
-35.926401
-1.2501949e-05
-0.003121788
-2.775807e-05
-0.00447469
-4.5649726e-05
-0.0059318325
-6.7705452e-05
-0.007684855
-9.6919046e-05
-0.00981558
-0.00016753085
-0.012192843
-0.00027588203
-0.014626287
-0.00040583016
-0.017515207
-0.00056181283
-0.02094296
-0.0007496067
-0.025060026
-0.00097527778
-0.029964205
-0.0012475505
-0.035831756
-0.0015755583
-0.042828859
-0.0019721636
-0.0511812
-0.0024515666
-0.061137556
-0.0030327499
-0.073001891
-0.0037379845
-0.087128744
-0.0045952864
-0.1039376
-0.0056389365
-0.12392591
-0.0069107773
-0.14768215
-0.0084608294
-0.17591266
-0.010348429
-0.20946591
-0.012641081
-0.24938039
-0.015413645
-0.29693417
-0.018747252
-0.3537156
-0.022729637
-0.42168824
-0.027449916
-0.50327411
-0.033007761
-0.60144319
-0.039533834
-0.71971239
-0.047171113
-0.86230991
-0.056102461
-1.0342623
-0.066544066
-1.2415386
-0.078750348
-1.4912596
-0.093026294
-1.7919131
-0.10973599
-2.1536938
-0.12926434
-2.5889328
-0.15199216
-3.1124852
-0.17831962
-3.7424225
-0.20859946
-4.5003071
-0.2431205
-5.4128146
-0.2820041
-6.5139444
-0.32489086
-7.8405829
-0.37075006
-9.4406933
-0.41779674
-11.377812
-0.46355527
-13.731812
-0.50420652
-16.59716
-0.53110181
-20.089511
-0.53119508
-24.357901
-0.48525788
-29.594527
-36.047393
-1.1935411e-05
-0.0031098698
-2.6329529e-05
-0.0044603107
-4.2970482e-05
-0.0059152062
-6.3586758e-05
-0.0076642505
-9.2324672e-05
-0.0097868507
-0.00016464463
-0.012120513
-0.00027090942
-0.014520009
-0.00039844282
-0.01738765
-0.0005516025
-0.020789779
-0.00073614651
-0.024875453
-0.00095800134
-0.02974232
-0.0012259058
-0.035563814
-0.0015488607
-0.042505859
-0.0019397302
-0.050790272
-0.0024126018
-0.060664607
-0.0029865246
-0.07242787
-0.0036835719
-0.086431575
-0.0045324321
-0.10308859
-0.0055668534
-0.1228913
-0.0068293819
-0.14641938
-0.0083700002
-0.17437175
-0.010248039
-0.20758751
-0.012530743
-0.24709727
-0.015292243
-0.29417221
-0.018611633
-0.35039578
-0.022575045
-0.41772463
-0.027265893
-0.49858373
-0.032786596
-0.59592427
-0.039260073
-0.71324312
-0.046830145
-0.85474777
-0.055677471
-1.0254271
-0.066017397
-1.2312108
-0.078102832
-1.4791778
-0.09223931
-1.7777729
-0.10878882
-2.1371495
-0.12814031
-2.5696
-0.15067481
-3.0899715
-0.17680216
-3.7163202
-0.20689058
-4.4702333
-0.24124788
-5.3785201
-0.28003179
-6.4753112
-0.32292025
-7.7977377
-0.36900137
-9.3945396
-0.41661847
-11.329899
-0.46345786
-13.684538
-0.50594501
-16.554934
-0.53587388
-20.060245
-0.54082229
-24.353577
-0.50243375
-29.633383
-36.156898
-1.1395524e-05
-0.0030984907
-2.4994547e-05
-0.0044467261
-4.0440327e-05
-0.0058997738
-5.9568693e-05
-0.0076451283
-8.8358603e-05
-0.0097580697
-0.00016280521
-0.012046055
-0.00026721855
-0.014415586
-0.00039263663
-0.017262212
-0.00054322166
-0.020639177
-0.00072482724
-0.024693822
-0.00094319928
-0.029523922
-0.0012071236
-0.035299855
-0.0015254613
-0.042187481
-0.0019110861
-0.050404594
-0.0023781121
-0.06019751
-0.0029455422
-0.071860349
-0.0036356982
-0.085741305
-0.0044770866
-0.10224706
-0.0055041312
-0.12186407
-0.0067592461
-0.14516404
-0.0082929992
-0.17283771
-0.010164584
-0.20571558
-0.012441023
-0.24482043
-0.015195299
-0.2914175
-0.018505826
-0.34708484
-0.022454573
-0.41377571
-0.027121156
-0.49391768
-0.032610391
-0.5904369
-0.039038094
-0.70681979
-0.046548908
-0.84724517
-0.055322061
-1.0166662
-0.065572108
-1.2209728
-0.077551317
-1.4672015
-0.091564585
-1.7637546
-0.10797717
-2.1207415
-0.1271753
-2.5504209
-0.14954976
-3.0676183
-0.17551531
-3.6903794
-0.20545455
-4.4403098
-0.23970416
-5.3443421
-0.27844203
-6.4367185
-0.32140638
-7.754814
-0.3677914
-9.3480865
-0.41608003
-11.281323
-0.46411508
-13.636074
-0.50857052
-16.510737
-0.54168718
-20.027775
-0.55163333
-24.344247
-0.52093461
-29.664551
-36.254723
-1.1122419e-05
-0.0030873879
-2.4160776e-05
-0.0044337029
-3.8606026e-05
-0.0058853465
-5.6376467e-05
-0.0076273703
-8.6014084e-05
-0.0097284457
-0.0001625623
-0.011969496
-0.00026526613
-0.014312875
-0.00038873026
-0.01713873
-0.00053693169
-0.020490961
-0.00071579522
-0.024514936
-0.00093094154
-0.029308753
-0.0011911959
-0.035039571
-0.0015053481
-0.041873294
-0.0018862882
-0.050023606
-0.0023481155
-0.059735618
-0.0029099379
-0.071298442
-0.0035941651
-0.085056973
-0.0044295697
-0.10141152
-0.005450906
-0.12084257
-0.0067008204
-0.14391391
-0.0082302278
-0.17130803
-0.010098535
-0.20384694
-0.012372436
-0.24254614
-0.01512396
-0.28866554
-0.018430083
-0.34377832
-0.022368905
-0.40983675
-0.027016604
-0.48927056
-0.032479959
-0.58497551
-0.038869055
-0.70043529
-0.046328601
-0.83979415
-0.055037531
-1.0079699
-0.065209787
-1.2108126
-0.077097774
-1.4553155
-0.091006765
-1.7498393
-0.10730417
-2.1044482
-0.12637819
-2.5313662
-0.14862349
-3.0453946
-0.17446555
-3.6645615
-0.20429911
-4.4104932
-0.23849443
-5.3102283
-0.27725129
-6.3981004
-0.3203633
-7.7117392
-0.36714037
-9.3012403
-0.41620068
-11.231971
-0.4655442
-13.586297
-0.51211077
-16.464425
-0.54855113
-19.991968
-0.56366351
-24.329742
-0.54085702
-29.687825
-36.34073
-1.0409467e-05
-0.0030769994
-2.2508075e-05
-0.004421621
-3.5661225e-05
-0.005872212
-5.1635165e-05
-0.0076114072
-8.2340358e-05
-0.0096977545
-0.00016071033
-0.011891116
-0.00026164331
-0.014211936
-0.00038316442
-0.017017192
-0.000529121
-0.020344992
-0.0007054651
-0.024338572
-0.00091765882
-0.02909654
-0.0011746063
-0.034782598
-0.0014849865
-0.041562882
-0.0018617884
-0.049646761
-0.0023191543
-0.059278193
-0.0028762699
-0.070741249
-0.0035558032
-0.084377341
-0.0043866662
-0.10058053
-0.0054041608
-0.11982491
-0.0066511575
-0.1426667
-0.0081791958
-0.16977973
-0.010047486
-0.20197833
-0.01232265
-0.2402706
-0.01507547
-0.2859123
-0.018381971
-0.34047142
-0.022314037
-0.40590459
-0.026951421
-0.48463379
-0.032393421
-0.57953558
-0.038750973
-0.69408251
-0.046167669
-0.83238628
-0.054822222
-0.99932828
-0.064929381
-1.2007173
-0.076741365
-1.4435047
-0.090564741
-1.7360084
-0.10676833
-2.0882482
-0.12574626
-2.512408
-0.14789558
-3.0232674
-0.17365124
-3.6388293
-0.20342946
-4.3807334
-0.23762422
-5.276129
-0.27646289
-6.3593939
-0.3198019
-7.6684329
-0.36706007
-9.2539111
-0.416996
-11.181737
-0.46776788
-13.53508
-0.51658825
-16.415866
-0.55652197
-19.952674
-0.57695799
-24.309909
-0.56221125
-29.703039
-36.414696
-1.0110017e-05
-0.0030669063
-2.1688836e-05
-0.0044100599
-3.4000201e-05
-0.005859919
-4.8459973e-05
-0.0075969649
-8.1170887e-05
-0.0096650589
-0.00016190138
-0.011810377
-0.00026144146
-0.014112393
-0.00038138095
-0.016897239
-0.00052532423
-0.020201039
-0.0006993922
-0.024164488
-0.00090891373
-0.028887003
-0.0011628949
-0.034528595
-0.0014700164
-0.041255734
-0.0018433052
-0.049273434
-0.0022969849
-0.05882446
-0.0028504081
-0.070187754
-0.003526438
-0.083701221
-0.0043544159
-0.099752434
-0.005369728
-0.11880945
-0.0066162608
-0.14141997
-0.0081455947
-0.16825015
-0.010017522
-0.20010609
-0.012297666
-0.23799008
-0.015056568
-0.28315298
-0.018367677
-0.33715993
-0.022298293
-0.40197391
-0.026930617
-0.48000212
-0.032357166
-0.57411123
-0.038689961
-0.68775473
-0.046072279
-0.82501312
-0.054683125
-0.99073062
-0.064737827
-1.1906745
-0.076489642
-1.4317531
-0.090246777
-1.7222425
-0.10638077
-2.0721174
-0.12528944
-2.4935195
-0.14737706
-3.001202
-0.17308931
-3.6131399
-0.2028567
-4.3509861
-0.23710992
-5.2419824
-0.27609466
-6.3205361
-0.31974023
-7.6248162
-0.36757054
-9.206011
-0.4184891
-11.130516
-0.47081046
-13.482299
-0.52203203
-16.364916
-0.56560129
-19.909761
-0.59156459
-24.284569
-0.58507432
-29.710006
-36.476406
-9.6237086e-06
-0.0030573014
-2.055206e-05
-0.0043991499
-3.1974746e-05
-0.0058485171
-4.4640127e-05
-0.0075843148
-7.9167947e-05
-0.0096305465
-0.00016126481
-0.011728272
-0.00025919789
-0.014014459
-0.00037737053
-0.016779055
-0.00051939351
-0.02005901
-0.00069138082
-0.023992487
-0.00089862057
-0.028679752
-0.0011501651
-0.034277032
-0.0014546473
-0.040951229
-0.001825151
-0.048902898
-0.0022760549
-0.058373507
-0.0028268202
-0.069636922
-0.0035006578
-0.0830273
-0.0043272817
-0.098925701
-0.0053427467
-0.11779384
-0.006591129
-0.1401714
-0.0081248808
-0.16671616
-0.010003843
-0.19822682
-0.012293504
-0.23570006
-0.01506307
-0.28038299
-0.018383083
-0.33383955
-0.022317351
-0.39803961
-0.026949629
-0.47537054
-0.032367147
-0.56869601
-0.038682343
-0.68144476
-0.0460388
-0.81766613
-0.054616547
-0.98216633
-0.064632098
-1.1806706
-0.076339888
-1.4200447
-0.090050255
-1.7085221
-0.10613872
-2.056032
-0.12500718
-2.4746717
-0.1470685
-2.9791632
-0.17277552
-3.587455
-0.20258484
-4.3211984
-0.23695128
-5.2077301
-0.2761529
-6.2814579
-0.32018635
-7.5808079
-0.36868548
-9.1574435
-0.42069483
-11.078196
-0.47469503
-13.427827
-0.52846782
-16.311427
-0.57585879
-19.863041
-0.60751763
-24.253551
-0.60950969
-29.708508
-36.525662
-9.1170324e-06
-0.0030482075
-1.9473236e-05
-0.0043888144
-3.018018e-05
-0.005837836
-4.1326852e-05
-0.0075731893
-7.7967604e-05
-0.0095939252
-0.00015821421
-0.011648019
-0.00025512465
-0.013917552
-0.00037228998
-0.016661881
-0.00051297938
-0.019918317
-0.00068357915
-0.023821877
-0.00088913424
-0.028474188
-0.0011388268
-0.034027325
-0.0014413102
-0.040648727
-0.0018097795
-0.048534399
-0.0022587476
-0.057924495
-0.0028079271
-0.069087682
-0.0034809253
-0.082354225
-0.0043078
-0.098098724
-0.0053253265
-0.11677618
-0.006578529
-0.13891802
-0.0081198789
-0.16517457
-0.010009552
-0.19633685
-0.012312609
-0.23339664
-0.015097816
-0.27759737
-0.018430901
-0.33050613
-0.02237429
-0.3940962
-0.027011704
-0.47073389
-0.032426075
-0.56328409
-0.038731179
-0.67514514
-0.046070694
-0.81033643
-0.054626273
-0.97362444
-0.064615991
-1.1706924
-0.076296491
-1.4083627
-0.089980504
-1.694827
-0.1060475
-2.0399678
-0.12490706
-2.4558333
-0.14697509
-2.9571178
-0.1727221
-3.5617294
-0.20262127
-4.2913225
-0.23716219
-5.1733135
-0.27665141
-6.2420885
-0.32115893
-7.5363207
-0.37042348
-9.1081064
-0.42363659
-11.024662
-0.47944758
-13.37153
-0.53593154
-16.255254
-0.58730393
-19.812355
-0.62487641
-24.216636
-0.63555151
-29.698345
-36.562202
-9.0034671e-06
-0.0030392303
-1.9173195e-05
-0.0043786682
-2.9647291e-05
-0.0058273905
-3.987327e-05
-0.0075629846
-7.9406908e-05
-0.0095544109
-0.00015814291
-0.011569278
-0.00025439443
-0.013821304
-0.00037075567
-0.016545512
-0.00051039925
-0.019778672
-0.00067981039
-0.023652458
-0.00088399365
-0.028269999
-0.0011322516
-0.033779056
-0.0014332536
-0.04034771
-0.0018003548
-0.048167273
-0.0022482769
-0.057476534
-0.0027970001
-0.068538905
-0.0034705354
-0.081680619
-0.004299528
-0.097269637
-0.005321433
-0.11575415
-0.0065817648
-0.13765752
-0.0081339647
-0.16362215
-0.010038298
-0.19443223
-0.012359092
-0.23107549
-0.015163974
-0.27479207
-0.018513814
-0.32715598
-0.0224741
-0.39013593
-0.027120362
-0.46608846
-0.032538258
-0.55786878
-0.038840236
-0.66884888
-0.046172146
-0.80301465
-0.054716594
-0.96509393
-0.064694486
-1.1607259
-0.076364915
-1.3966898
-0.090043708
-1.6811361
-0.10611582
-2.0238985
-0.12499308
-2.4369777
-0.1471066
-2.9350269
-0.17293762
-3.535919
-0.20297908
-4.2613059
-0.2377542
-5.1386717
-0.2776053
-6.2023571
-0.32267045
-7.491271
-0.37280416
-9.0578953
-0.42734
-10.969794
-0.48510053
-13.313267
-0.54445318
-16.196235
-0.59998939
-19.757521
-0.64368414
-24.173619
-0.66330511
-29.679255
-36.585776
-8.4196002e-06
-0.0030308348
-1.7958617e-05
-0.0043691551
-2.7882253e-05
-0.005817496
-3.6900685e-05
-0.0075539928
-7.898298e-05
-0.0095123477
-0.0001577964
-0.011490461
-0.00025310937
-0.013725998
-0.00036854823
-0.016430068
-0.00050716517
-0.019640056
-0.00067557462
-0.023484043
-0.00087870569
-0.028066865
-0.0011259369
-0.033531816
-0.0014260606
-0.040047574
-0.0017924961
-0.047800817
-0.0022402845
-0.057028712
-0.0027896595
-0.067989483
-0.0034652001
-0.081005015
-0.0042980889
-0.096436661
-0.0053267541
-0.11472536
-0.0065971272
-0.13638698
-0.0081636395
-0.16205541
-0.010086455
-0.19250913
-0.012429535
-0.22873205
-0.015258774
-0.27196242
-0.018630303
-0.32378415
-0.022611676
-0.3861546
-0.027272907
-0.46142814
-0.03270013
-0.55244432
-0.039006914
-0.66254811
-0.04634015
-0.79569189
-0.054885397
-0.95656281
-0.064865815
-1.1507565
-0.076543742
-1.3850086
-0.090238686
-1.6674282
-0.10634085
-2.0077993
-0.12526934
-2.4180713
-0.14746584
-2.9128529
-0.17342369
-3.5099809
-0.20366216
-4.2310939
-0.23873304
-5.1037414
-0.27902117
-6.162188
-0.32473721
-7.4455653
-0.37584342
-9.0067058
-0.43182369
-10.91347
-0.49167709
-13.252895
-0.55406946
-16.134189
-0.61397373
-19.698333
-0.66399549
-24.124294
-0.69277914
-29.65102
-36.59609
-8.181821e-06
-0.0030226805
-1.7369848e-05
-0.0043599947
-2.7098083e-05
-0.0058078002
-3.5615735e-05
-0.0075455009
-8.0663107e-05
-0.0094673196
-0.0001593388
-0.011411783
-0.00025413154
-0.013631214
-0.00036909569
-0.0163151
-0.00050707932
-0.019502076
-0.00067486276
-0.023316256
-0.00087733937
-0.027864389
-0.0011240349
-0.033285115
-0.0014238265
-0.039747773
-0.0017903511
-0.047434275
-0.0022388956
-0.056580139
-0.0027901177
-0.067438219
-0.0034691721
-0.080325904
-0.0043079699
-0.095597783
-0.0053455246
-0.11368769
-0.0066292328
-0.13510312
-0.0082135782
-0.16047086
-0.010159014
-0.19056342
-0.012529181
-0.22636153
-0.015386901
-0.2691043
-0.018784955
-0.32038582
-0.022792177
-0.38214744
-0.02747351
-0.45674779
-0.032916547
-0.54700418
-0.039235628
-0.65623529
-0.046580019
-0.78835829
-0.055137889
-0.94801927
-0.065135668
-1.1407696
-0.076839276
-1.3733009
-0.090572808
-1.6536809
-0.10673124
-1.9916441
-0.12574442
-2.3990806
-0.14806023
-2.8905593
-0.17419444
-3.4838659
-0.20468264
-4.2006339
-0.24011167
-5.0684575
-0.28091786
-6.1215024
-0.32737776
-7.3991096
-0.37956407
-8.9544291
-0.43711486
-10.855563
-0.49920901
-13.190265
-0.56481536
-16.06896
-0.62927985
-19.6346
-0.68587811
-24.068412
-0.72411153
-29.613353
-36.592872
-7.9249295e-06
-0.0030147864
-1.6705444e-05
-0.004351243
-2.6041519e-05
-0.0057984994
-3.4343093e-05
-0.0075372272
-8.2247872e-05
-0.009419435
-0.00016072034
-0.011333309
-0.0002550132
-0.013536931
-0.00036957585
-0.016200535
-0.00050704994
-0.019364607
-0.00067444919
-0.023148856
-0.00087661454
-0.027662226
-0.0011232167
-0.03303851
-0.0014232545
-0.039447729
-0.0017905472
-0.047066968
-0.0022408341
-0.056129829
-0.0027951435
-0.066883874
-0.0034792971
-0.0796417
-0.0043260013
-0.094751006
-0.0053752381
-0.11263835
-0.0066751289
-0.13380308
-0.008281158
-0.15886462
-0.010253298
-0.188591
-0.012655352
-0.22395912
-0.015545035
-0.26621423
-0.018975812
-0.31695477
-0.023013014
-0.37811036
-0.027720121
-0.45204177
-0.033185198
-0.54154223
-0.039524562
-0.64990251
-0.046890012
-0.78100396
-0.055472784
-0.93945093
-0.065503229
-1.1307498
-0.077251405
-1.361548
-0.091046299
-1.6398718
-0.10728985
-1.975404
-0.12641887
-2.3799744
-0.14889713
-2.8681031
-0.17525029
-3.4575313
-0.20604899
-4.1698648
-0.24190187
-5.0327527
-0.28330693
-6.0802206
-0.33060368
-7.3518099
-0.38398412
-8.9009498
-0.4432367
-10.795945
-0.50772617
-13.125223
-0.57672601
-16.000374
-0.64596141
-19.566112
-0.70936426
-24.005746
-0.75732059
-29.565982
-36.575816
-7.68165e-06
-0.0030071374
-1.6010619e-05
-0.0043429439
-2.4730324e-05
-0.0057898156
-3.3258091e-05
-0.0075287263
-8.4462018e-05
-0.0093682493
-0.00016287046
-0.0112549
-0.00025684035
-0.013442971
-0.00037121132
-0.016086162
-0.00050844241
-0.019227382
-0.00067573791
-0.022981561
-0.00087794442
-0.027460023
-0.0011248375
-0.032791617
-0.0014256959
-0.039146866
-0.0017945585
-0.046698095
-0.0022475975
-0.055676772
-0.0028063018
-0.066325139
-0.0034972908
-0.078950666
-0.0043540451
-0.093894185
-0.0054177341
-0.11157457
-0.0067373055
-0.13248336
-0.008368589
-0.15723314
-0.010372107
-0.18658722
-0.01281006
-0.22152081
-0.015735752
-0.26328815
-0.019205177
-0.3134851
-0.023276447
-0.37403925
-0.028014721
-0.44730469
-0.033508533
-0.53605172
-0.03987633
-0.64354158
-0.047273073
-0.77361864
-0.0558935
-0.93084507
-0.065972413
-1.1206812
-0.077784523
-1.3497305
-0.0916644
-1.6259774
-0.10802072
-1.9590516
-0.1273
-2.3607183
-0.14997904
-2.8454457
-0.17660588
-3.4309224
-0.20777036
-4.1387312
-0.2441142
-4.9965586
-0.2862021
-6.0382591
-0.33443588
-7.3035646
-0.38912337
-8.8461519
-0.45021713
-10.734473
-0.51725979
-13.057611
-0.58984039
-15.928251
-0.66406471
-19.492651
-0.73453211
-23.936037
-0.79249606
-29.508621
-36.544578
-7.752024e-06
-0.002999415
-1.5804901e-05
-0.0043349218
-2.3846633e-05
-0.0057818082
-3.3455897e-05
-0.0075191456
-8.9498462e-05
-0.0093122241
-0.00016780723
-0.011176591
-0.00026153034
-0.013349259
-0.00037578821
-0.015971904
-0.00051290609
-0.019090272
-0.00068031939
-0.022814151
-0.00088285458
-0.027257494
-0.0011305556
-0.032543918
-0.0014328726
-0.038844548
-0.0018041532
-0.046326808
-0.0022610124
-0.055219899
-0.0028255747
-0.065760554
-0.0035251904
-0.078251013
-0.0043942918
-0.093025024
-0.0054751788
-0.11049359
-0.0068176878
-0.13114072
-0.0084784368
-0.15557219
-0.010517487
-0.1845479
-0.01299598
-0.21904196
-0.015962697
-0.26032107
-0.019474964
-0.3099726
-0.02358502
-0.36992942
-0.028359991
-0.44253106
-0.033889018
-0.53052626
-0.040293471
-0.63714435
-0.047732084
-0.76619174
-0.056403524
-0.92218822
-0.066547094
-1.1105477
-0.078443334
-1.3378285
-0.092432528
-1.6119736
-0.10893238
-1.9425563
-0.12839499
-2.3412792
-0.15131817
-2.8225437
-0.17826813
-3.4039902
-0.20985971
-4.1071718
-0.24676479
-4.9598042
-0.2896188
-5.9955348
-0.33889531
-7.2542669
-0.39500618
-8.7899131
-0.45807969
-10.671012
-0.52784535
-12.98726
-0.60419822
-15.852406
-0.68363852
-19.413992
-0.76143629
-23.859019
-0.82970362
-29.440975
-36.498818
-7.4733967e-06
-0.0029919728
-1.4956926e-05
-0.0043274693
-2.1766983e-05
-0.0057750333
-3.2860817e-05
-0.0075080781
-9.3400782e-05
-0.0092517009
-0.00017166322
-0.01109833
-0.00026523879
-0.013255696
-0.00037956669
-0.015857578
-0.00051685328
-0.018952995
-0.00068470502
-0.022646304
-0.00088807276
-0.027054136
-0.0011371435
-0.032294853
-0.0014416958
-0.038539998
-0.0018163506
-0.045952151
-0.0022783481
-0.054757894
-0.0028502764
-0.065188608
-0.0035604967
-0.077540763
-0.004444461
-0.092141008
-0.0055455711
-0.10939239
-0.0069147089
-0.12977145
-0.0086089563
-0.15387776
-0.010688824
-0.18246776
-0.013211841
-0.21651859
-0.016223778
-0.25730878
-0.019782884
-0.30641329
-0.023937083
-0.3657755
-0.028753773
-0.43771582
-0.034324837
-0.52495898
-0.040774907
-0.6307018
-0.048266078
-0.75871256
-0.057002026
-0.9134669
-0.067227252
-1.1003322
-0.079228301
-1.3258214
-0.093352263
-1.5978351
-0.11002275
-1.9258911
-0.12970915
-2.3216159
-0.15291953
-2.7993543
-0.18024168
-3.3766854
-0.21232298
-4.0751241
-0.24986154
-4.9224162
-0.29357257
-5.951957
-0.34399713
-7.2038121
-0.40165172
-8.7321034
-0.46685476
-10.605412
-0.5395139
-12.913998
-0.61983614
-15.772647
-0.7047332
-19.329895
-0.79013089
-23.774423
-0.86903175
-29.362712
-36.43816
-7.9703108e-06
-0.0029840348
-1.5549403e-05
-0.0043199211
-2.1500913e-05
-0.0057691172
-3.497132e-05
-0.0074946346
-9.9234698e-05
-0.009187453
-0.00017770894
-0.011019859
-0.00027137571
-0.013162043
-0.0003860862
-0.015742872
-0.0005238772
-0.018815216
-0.00069267998
-0.02247751
-0.00089748305
-0.026849344
-0.0011486627
-0.032043682
-0.001456362
-0.038232305
-0.001835482
-0.045573034
-0.002303852
-0.054289522
-0.0028848118
-0.064607638
-0.0036076613
-0.07681789
-0.0045090145
-0.09123961
-0.0056334046
-0.10826793
-0.0070330464
-0.12837169
-0.0087651725
-0.15214545
-0.010889989
-0.18034268
-0.01346043
-0.21394781
-0.016524758
-0.25424411
-0.020133937
-0.30280395
-0.024336607
-0.36157321
-0.029200901
-0.43285319
-0.034820979
-0.51934301
-0.04132518
-0.6242055
-0.048880543
-0.75116943
-0.057695343
-0.90466664
-0.068019734
-1.0900173
-0.080146878
-1.3136883
-0.094431285
-1.5835367
-0.111306
-1.9090222
-0.13125107
-2.301694
-0.1547923
-2.7758337
-0.18254297
-3.3489521
-0.21517751
-4.0425248
-0.25342191
-4.8843212
-0.29807829
-5.9074366
-0.34976332
-7.1520904
-0.40908469
-8.6725884
-0.47657
-10.537525
-0.55230171