/*--------------------------------*- C++ -*----------------------------------*\
| =========                 |                                                 |
| \\      /  F ield         | OpenFOAM: The Open Source CFD Toolbox           |
|  \\    /   O peration     | Version:  2306                                  |
|   \\  /    A nd           | Website:  www.openfoam.com                      |
|    \\/     M anipulation  |                                                 |
\*---------------------------------------------------------------------------*/
FoamFile
{
    version     2.0;
    format      ascii;
    arch        "LSB;label=32;scalar=64";
    class       volVectorField;
    location    "600";
    object      momentError;
}
// * * * * * * * * * * * * * * * * * * * * * * * * * * * * * * * * * * * * * //

dimensions      [0 1 -2 0 0 0 0];

internalField   nonuniform List<vector> 
1340
(
(1.54809e-05 -8.24494e-05 -2.94633e-15)
(2.14006e-05 -7.77251e-05 -2.40514e-14)
(2.8126e-05 -7.42637e-05 1.5062e-14)
(3.34633e-05 -6.73113e-05 4.42746e-14)
(3.67594e-05 -5.65875e-05 1.44969e-14)
(1.49388e-05 -7.78553e-05 -6.00336e-15)
(1.89005e-05 -7.2736e-05 9.69785e-15)
(2.38296e-05 -6.94791e-05 2.3808e-14)
(2.82848e-05 -6.19193e-05 -3.8165e-14)
(3.44835e-05 -5.21011e-05 -2.82787e-14)
(3.57865e-05 -4.33617e-05 -1.81813e-14)
(1.28907e-05 -7.37939e-05 2.60356e-15)
(1.66271e-05 -6.90357e-05 5.17368e-15)
(2.0869e-05 -6.46521e-05 -1.37213e-14)
(2.56145e-05 -5.68711e-05 1.79636e-14)
(3.01666e-05 -4.84633e-05 3.21909e-14)
(3.33029e-05 -4.10635e-05 1.62801e-15)
(3.49252e-05 -3.68718e-05 1.13893e-14)
(1.03039e-05 -6.98076e-05 -1.68984e-15)
(1.44159e-05 -6.47543e-05 -7.01588e-15)
(1.87084e-05 -5.98433e-05 3.88151e-15)
(2.30598e-05 -5.25521e-05 1.96278e-16)
(2.71093e-05 -4.50881e-05 -2.05691e-14)
(3.00972e-05 -3.90809e-05 1.6472e-14)
(3.31155e-05 -3.57016e-05 -4.4762e-14)
(3.57433e-05 -3.36236e-05 6.26817e-15)
(8.41825e-06 -6.54431e-05 -1.88598e-15)
(1.27012e-05 -6.0564e-05 4.62988e-15)
(1.68786e-05 -5.546e-05 4.25689e-15)
(2.08501e-05 -4.85325e-05 -1.87499e-14)
(2.4586e-05 -4.19753e-05 -5.85233e-14)
(2.77254e-05 -3.70839e-05 3.6602e-14)
(3.08389e-05 -3.4253e-05 -7.66482e-14)
(3.43602e-05 -3.23978e-05 2.58947e-14)
(3.6478e-05 -3.04264e-05 1.37784e-13)
(6.69005e-06 -6.10817e-05 8.91987e-16)
(1.12152e-05 -5.63877e-05 3.925e-16)
(1.52411e-05 -5.13327e-05 -1.03354e-14)
(1.88991e-05 -4.49788e-05 -7.6202e-15)
(2.23679e-05 -3.90675e-05 3.0147e-15)
(2.56191e-05 -3.51193e-05 1.70371e-14)
(2.89057e-05 -3.29362e-05 9.70807e-16)
(3.21229e-05 -3.13959e-05 -7.22267e-14)
(3.50225e-05 -2.97033e-05 6.9689e-14)
(3.73935e-05 -2.85238e-05 2.73527e-14)
(5.37503e-06 -5.6775e-05 1.09052e-15)
(9.88176e-06 -5.23834e-05 -4.00262e-15)
(1.37574e-05 -4.76195e-05 1.48912e-15)
(1.71812e-05 -4.16909e-05 1.98392e-14)
(2.05125e-05 -3.65789e-05 4.59637e-14)
(2.37284e-05 -3.33588e-05 -7.60329e-14)
(2.7103e-05 -3.1642e-05 6.16776e-14)
(3.03926e-05 -3.03723e-05 -3.67909e-14)
(3.32279e-05 -2.89744e-05 -6.93629e-14)
(3.61065e-05 -2.76098e-05 8.47618e-15)
(4.28779e-06 -5.2717e-05 -1.83211e-15)
(8.69611e-06 -4.86414e-05 -1.54217e-16)
(1.23975e-05 -4.41425e-05 1.43562e-16)
(1.57066e-05 -3.88027e-05 1.59692e-14)
(1.88468e-05 -3.41729e-05 1.12726e-15)
(2.19764e-05 -3.15731e-05 3.17712e-14)
(2.54224e-05 -3.03521e-05 -1.61859e-14)
(2.88095e-05 -2.92397e-05 -4.8239e-14)
(3.18309e-05 -2.78545e-05 -3.13535e-14)
(3.46873e-05 -2.63225e-05 -6.74603e-14)
(3.77246e-05 -2.44196e-05 -1.83897e-14)
(3.38659e-06 -4.88629e-05 -2.13502e-17)
(7.62306e-06 -4.51155e-05 -6.79616e-15)
(1.11816e-05 -4.09535e-05 2.95975e-15)
(1.43425e-05 -3.60521e-05 9.02562e-15)
(1.73418e-05 -3.19803e-05 -1.16838e-14)
(2.03867e-05 -2.98399e-05 -1.19101e-14)
(2.38802e-05 -2.90145e-05 -1.99068e-14)
(2.73611e-05 -2.79669e-05 -1.52709e-14)
(3.04871e-05 -2.65748e-05 3.16776e-14)
(3.33955e-05 -2.49216e-05 8.43417e-14)
(3.64396e-05 -2.31003e-05 -4.37669e-14)
(2.60552e-06 -4.52746e-05 -8.35024e-16)
(6.66268e-06 -4.17887e-05 6.4067e-16)
(1.00275e-05 -3.79257e-05 -4.73707e-16)
(1.30592e-05 -3.35612e-05 -1.32262e-14)
(1.59704e-05 -2.99439e-05 9.08456e-15)
(1.90069e-05 -2.82524e-05 -6.57052e-15)
(2.24566e-05 -2.76076e-05 -1.3573e-15)
(2.60243e-05 -2.66158e-05 7.3051e-14)
(2.9194e-05 -2.52244e-05 7.48732e-15)
(3.20968e-05 -2.34373e-05 5.97146e-14)
(3.49586e-05 -2.16009e-05 6.86914e-14)
(3.7539e-05 -1.93232e-05 -3.41276e-14)
(1.93352e-06 -4.18474e-05 1.35946e-16)
(5.76613e-06 -3.86412e-05 -5.88247e-15)
(8.93969e-06 -3.51174e-05 -8.24495e-15)
(1.18247e-05 -3.11309e-05 -9.69127e-15)
(1.47158e-05 -2.80869e-05 1.21007e-14)
(1.77202e-05 -2.67061e-05 5.11904e-14)
(2.11464e-05 -2.61626e-05 -4.15827e-15)
(2.46966e-05 -2.52175e-05 2.46247e-14)
(2.79053e-05 -2.37932e-05 -1.82139e-15)
(3.07766e-05 -2.20443e-05 -7.13094e-14)
(3.34975e-05 -2.00476e-05 -3.71784e-14)
(3.58529e-05 -1.77914e-05 5.53494e-14)
(1.32959e-06 -3.86285e-05 -2.92881e-18)
(4.93617e-06 -3.56643e-05 2.65651e-15)
(7.92711e-06 -3.24299e-05 8.6142e-15)
(1.06911e-05 -2.89018e-05 3.30168e-15)
(1.35083e-05 -2.62516e-05 1.10844e-15)
(1.65125e-05 -2.51933e-05 -6.98711e-15)
(1.98835e-05 -2.47027e-05 7.87781e-14)
(2.34025e-05 -2.38118e-05 -2.69605e-16)
(2.66146e-05 -2.24348e-05 -9.57918e-14)
(2.93448e-05 -2.06581e-05 -2.17966e-14)
(3.20126e-05 -1.86669e-05 1.28178e-14)
(3.45312e-05 -1.64936e-05 1.59154e-14)
(7.76227e-07 -3.55384e-05 6.75386e-16)
(4.20145e-06 -3.28316e-05 5.40483e-15)
(7.03317e-06 -2.98983e-05 -3.12701e-15)
(9.64706e-06 -2.67281e-05 2.60642e-14)
(1.24212e-05 -2.45473e-05 2.40105e-14)
(1.53577e-05 -2.36786e-05 -3.57927e-16)
(1.86885e-05 -2.32516e-05 2.13581e-14)
(2.21239e-05 -2.24053e-05 -3.76687e-14)
(2.52913e-05 -2.10938e-05 -2.424e-14)
(2.798e-05 -1.93929e-05 -7.96646e-14)
(3.03668e-05 -1.73871e-05 5.24293e-14)
(3.30386e-05 -1.54604e-05 8.19225e-14)
(3.48384e-05 -1.3664e-05 -1.46923e-14)
(3.5544e-07 -3.26287e-05 7.43476e-16)
(3.55624e-06 -3.01203e-05 1.95198e-16)
(6.23101e-06 -2.75143e-05 -8.64714e-15)
(8.7184e-06 -2.47317e-05 4.01747e-15)
(1.13863e-05 -2.28478e-05 -4.69714e-15)
(1.42975e-05 -2.22092e-05 -4.99209e-15)
(1.75149e-05 -2.18221e-05 -6.91306e-14)
(2.09027e-05 -2.10368e-05 4.70088e-14)
(2.3997e-05 -1.98106e-05 1.99787e-14)
(2.65811e-05 -1.81261e-05 1.40361e-14)
(2.89094e-05 -1.62432e-05 -5.60437e-14)
(3.13175e-05 -1.45657e-05 1.66222e-15)
(3.36962e-05 -1.27835e-05 -3.75741e-14)
(-1.63911e-08 -2.98469e-05 6.51533e-16)
(3.01563e-06 -2.76364e-05 -2.03543e-15)
(5.51242e-06 -2.52783e-05 4.32485e-15)
(7.87268e-06 -2.28065e-05 -1.13355e-14)
(1.0465e-05 -2.13033e-05 -3.33733e-14)
(1.32718e-05 -2.07966e-05 1.78999e-16)
(1.64027e-05 -2.04547e-05 -1.03306e-15)
(1.96789e-05 -1.97053e-05 -8.29337e-15)
(2.27206e-05 -1.85464e-05 4.82687e-14)
(2.52625e-05 -1.69585e-05 -1.92334e-14)
(2.74761e-05 -1.5133e-05 -5.63805e-15)
(2.9802e-05 -1.35489e-05 -6.53731e-15)
(3.21643e-05 -1.21116e-05 1.03534e-14)
(3.36901e-05 -1.06344e-05 -2.14129e-14)
(-2.63118e-07 -2.73146e-05 -1.48565e-15)
(2.56213e-06 -2.52715e-05 -9.95935e-16)
(4.91591e-06 -2.32283e-05 9.86353e-15)
(7.15003e-06 -2.1087e-05 -1.18474e-14)
(9.5992e-06 -1.98143e-05 5.62813e-15)
(1.2317e-05 -1.94701e-05 -1.9536e-14)
(1.53215e-05 -1.91366e-05 -8.867e-16)
(1.85097e-05 -1.84448e-05 -2.0636e-14)
(2.14837e-05 -1.73391e-05 2.14846e-14)
(2.39395e-05 -1.57764e-05 -2.17531e-14)
(2.6119e-05 -1.40561e-05 3.30864e-15)
(2.84182e-05 -1.25931e-05 2.67129e-15)
(3.07217e-05 -1.13196e-05 3.21687e-14)
(3.23361e-05 -9.89034e-06 1.18401e-14)
(-5.28423e-07 -2.49382e-05 3.20193e-18)
(2.29501e-06 -2.3177e-05 8.88267e-16)
(4.50183e-06 -2.13252e-05 1.49099e-15)
(6.56783e-06 -1.94975e-05 2.17035e-15)
(8.85579e-06 -1.85023e-05 3.04072e-14)
(1.14104e-05 -1.82018e-05 4.25919e-15)
(1.43171e-05 -1.78919e-05 -7.87778e-15)
(1.73677e-05 -1.72191e-05 5.93904e-15)
(2.02794e-05 -1.61497e-05 5.06648e-15)
(2.27027e-05 -1.46649e-05 5.36575e-14)
(2.47971e-05 -1.30007e-05 2.03839e-14)
(2.70545e-05 -1.16405e-05 5.3512e-15)
(2.93622e-05 -1.04695e-05 -5.20654e-14)
(3.13959e-05 -9.32043e-06 1.94324e-14)
(-4.58092e-07 -2.27592e-05 -4.67903e-16)
(2.17981e-06 -2.10453e-05 -2.6764e-15)
(4.22232e-06 -1.96518e-05 -6.08243e-15)
(6.07439e-06 -1.80748e-05 -2.6357e-15)
(8.14917e-06 -1.71979e-05 -1.28188e-14)
(1.05829e-05 -1.70219e-05 -1.37146e-15)
(1.33389e-05 -1.67009e-05 5.60484e-14)
(1.63017e-05 -1.60555e-05 1.36717e-14)
(1.91063e-05 -1.50287e-05 -4.42823e-14)
(2.14582e-05 -1.35716e-05 -9.69052e-15)
(2.35346e-05 -1.20115e-05 2.51641e-15)
(2.57664e-05 -1.07217e-05 2.42052e-14)
(2.81193e-05 -9.63145e-06 -1.49937e-14)
(3.01013e-05 -8.60245e-06 -2.8023e-14)
(3.12181e-05 -7.38896e-06 5.06815e-14)
(-3.47807e-07 -2.05094e-05 -1.12892e-15)
(1.99247e-06 -1.93591e-05 -9.00991e-16)
(3.918e-06 -1.814e-05 -9.09079e-16)
(5.58849e-06 -1.6819e-05 -9.40771e-16)
(7.51455e-06 -1.60882e-05 2.17957e-14)
(9.78518e-06 -1.5899e-05 5.71167e-16)
(1.24219e-05 -1.55892e-05 -4.3318e-15)
(1.52442e-05 -1.4951e-05 9.40468e-15)
(1.79638e-05 -1.39655e-05 3.3829e-14)
(2.02627e-05 -1.25879e-05 -6.37703e-14)
(2.22699e-05 -1.10687e-05 -3.18603e-14)
(2.44613e-05 -9.81809e-06 -4.83826e-15)
(2.68341e-05 -8.80652e-06 3.59982e-14)
(2.89993e-05 -7.71668e-06 -1.80581e-14)
(2.99376e-05 -6.60725e-06 -3.06466e-14)
(-4.52726e-07 -1.86586e-05 8.4754e-17)
(1.74527e-06 -1.76188e-05 -7.48365e-16)
(3.41792e-06 -1.67884e-05 1.30914e-15)
(5.04702e-06 -1.57214e-05 1.80216e-15)
(6.88282e-06 -1.5017e-05 1.88227e-14)
(9.04492e-06 -1.48477e-05 -1.96806e-14)
(1.15355e-05 -1.45161e-05 -4.71374e-16)
(1.42459e-05 -1.39204e-05 -2.16026e-14)
(1.68503e-05 -1.29748e-05 -1.67599e-14)
(1.90629e-05 -1.16377e-05 4.87658e-14)
(2.10309e-05 -1.02074e-05 -2.77047e-14)
(2.32053e-05 -9.00015e-06 -1.96939e-14)
(2.54725e-05 -7.95091e-06 -1.74454e-14)
(2.77452e-05 -6.94798e-06 3.33003e-14)
(2.9065e-05 -5.63409e-06 2.0832e-14)
(-3.9835e-07 -1.70057e-05 5.88364e-17)
(1.33057e-06 -1.62667e-05 1.97647e-15)
(2.84186e-06 -1.55683e-05 -6.521e-15)
(4.46789e-06 -1.45844e-05 6.43427e-16)
(6.28711e-06 -1.40071e-05 -2.99634e-14)
(8.33568e-06 -1.3811e-05 2.1245e-15)
(1.07185e-05 -1.34994e-05 4.3626e-15)
(1.32783e-05 -1.29212e-05 -4.52173e-14)
(1.5789e-05 -1.20209e-05 1.12631e-14)
(1.79264e-05 -1.07806e-05 -3.2637e-15)
(1.98096e-05 -9.37989e-06 2.7207e-14)
(2.18747e-05 -8.21236e-06 1.78668e-15)
(2.41932e-05 -7.21641e-06 -2.22547e-14)
(2.62282e-05 -6.2926e-06 -2.44088e-14)
(2.79514e-05 -4.72719e-06 4.36174e-15)
(2.73448e-05 -3.09066e-06 1.88335e-14)
(-6.64607e-07 -1.56519e-05 8.39049e-16)
(9.61188e-07 -1.49922e-05 2.46942e-15)
(2.37982e-06 -1.43381e-05 -2.30108e-16)
(3.9524e-06 -1.34944e-05 5.88941e-16)
(5.70851e-06 -1.29745e-05 2.66556e-15)
(7.68607e-06 -1.28151e-05 -1.57627e-14)
(9.92419e-06 -1.25059e-05 1.26622e-14)
(1.23807e-05 -1.19713e-05 1.80457e-14)
(1.47609e-05 -1.11336e-05 -1.17166e-14)
(1.68068e-05 -9.93698e-06 -8.22143e-15)
(1.86342e-05 -8.63315e-06 3.96664e-15)
(2.06416e-05 -7.52368e-06 3.39793e-14)
(2.28552e-05 -6.58988e-06 4.41728e-14)
(2.47196e-05 -5.47768e-06 1.62148e-15)
(2.61882e-05 -4.16368e-06 -1.31126e-14)
(2.6417e-05 -1.97851e-06 -2.77166e-14)
(6.73806e-07 -1.37333e-05 2.84935e-16)
(2.01277e-06 -1.31993e-05 -5.08301e-16)
(3.4999e-06 -1.24134e-05 1.16298e-14)
(5.19013e-06 -1.20001e-05 8.99026e-15)
(7.05783e-06 -1.18368e-05 8.00102e-15)
(9.18714e-06 -1.15631e-05 -6.02783e-15)
(1.15e-05 -1.10571e-05 4.16233e-14)
(1.37757e-05 -1.02836e-05 -2.36067e-14)
(1.57441e-05 -9.17998e-06 -1.21361e-14)
(1.74808e-05 -7.92719e-06 -4.08795e-14)
(1.93858e-05 -6.86518e-06 -2.24313e-14)
(2.14845e-05 -5.98194e-06 -3.22564e-14)
(2.33955e-05 -4.89886e-06 6.94248e-15)
(2.43672e-05 -3.51181e-06 9.86537e-15)
(2.49596e-05 -1.61354e-06 9.82801e-15)
(2.44128e-05 -4.1898e-07 -5.91455e-15)
(4.40888e-07 -1.27093e-05 3.1751e-15)
(1.70693e-06 -1.2088e-05 2.14073e-16)
(3.11752e-06 -1.14153e-05 -9.77585e-15)
(4.71033e-06 -1.10362e-05 -8.04316e-15)
(6.48442e-06 -1.09138e-05 4.80379e-15)
(8.48188e-06 -1.06453e-05 1.22906e-14)
(1.06802e-05 -1.01959e-05 -1.01235e-14)
(1.2833e-05 -9.47742e-06 1.79636e-14)
(1.47016e-05 -8.43191e-06 1.86491e-15)
(1.63842e-05 -7.26963e-06 -8.6236e-15)
(1.82384e-05 -6.28856e-06 2.38592e-15)
(2.01738e-05 -5.43775e-06 5.40962e-15)
(2.18238e-05 -4.42735e-06 -1.98463e-14)
(2.28536e-05 -2.97569e-06 9.84133e-16)
(2.33154e-05 -1.50246e-06 1.49876e-15)
(2.34063e-05 -2.42008e-07 2.36626e-15)
(2.6495e-07 -1.16424e-05 -2.40766e-16)
(1.46167e-06 -1.10827e-05 -5.61593e-15)
(2.78309e-06 -1.04609e-05 -3.24198e-15)
(4.29835e-06 -1.01603e-05 2.10675e-14)
(5.95238e-06 -1.00237e-05 -1.72004e-14)
(7.84546e-06 -9.78395e-06 1.30524e-14)
(9.89669e-06 -9.35961e-06 -1.11136e-14)
(1.19508e-05 -8.69274e-06 -1.56634e-14)
(1.37357e-05 -7.73418e-06 1.36463e-14)
(1.53357e-05 -6.61868e-06 2.78263e-14)
(1.70846e-05 -5.71213e-06 -1.96637e-14)
(1.89794e-05 -4.97327e-06 2.2359e-14)
(2.04597e-05 -4.02946e-06 1.5503e-14)
(2.13012e-05 -2.59769e-06 -1.92662e-14)
(2.19341e-05 -1.32023e-06 -8.25496e-15)
(2.26294e-05 -3.89416e-07 3.62588e-15)
(1.15362e-07 -1.06609e-05 -2.06842e-15)
(1.25314e-06 -1.01316e-05 2.91381e-15)
(2.50166e-06 -9.60345e-06 5.04486e-15)
(3.91709e-06 -9.3158e-06 -1.84942e-14)
(5.48277e-06 -9.20243e-06 2.46588e-14)
(7.23711e-06 -8.96446e-06 -3.94694e-15)
(9.1867e-06 -8.57568e-06 3.52614e-16)
(1.11085e-05 -7.95485e-06 -4.61269e-15)
(1.27997e-05 -7.03012e-06 -3.57386e-14)
(1.43513e-05 -6.00888e-06 1.8177e-14)
(1.609e-05 -5.18059e-06 8.89043e-15)
(1.78246e-05 -4.50477e-06 -5.08819e-14)
(1.91323e-05 -3.45216e-06 8.95087e-15)
(1.9955e-05 -2.23168e-06 1.50697e-14)
(2.06322e-05 -1.12133e-06 -1.12034e-14)
(2.17604e-05 -2.80736e-07 -2.61059e-14)
(2.24058e-05 7.03105e-08 -9.97149e-15)
(1.64557e-08 -9.73781e-06 2.18062e-15)
(1.08488e-06 -9.28075e-06 1.36839e-15)
(2.25405e-06 -8.79678e-06 -4.751e-15)
(3.58704e-06 -8.56871e-06 8.68119e-15)
(5.03953e-06 -8.43865e-06 -9.89149e-15)
(6.68687e-06 -8.22023e-06 1.04274e-14)
(8.49821e-06 -7.83883e-06 -2.72045e-14)
(1.03159e-05 -7.25693e-06 -1.61225e-15)
(1.19243e-05 -6.39692e-06 2.6119e-14)
(1.33945e-05 -5.40897e-06 -6.70329e-15)
(1.50765e-05 -4.63014e-06 2.66107e-14)
(1.67513e-05 -3.90775e-06 1.71922e-14)
(1.80103e-05 -2.93787e-06 -7.02435e-15)
(1.87523e-05 -1.70735e-06 3.08882e-14)
(1.94187e-05 -6.67191e-07 1.68982e-14)
(2.0743e-05 -7.90221e-09 4.21442e-15)
(2.16734e-05 3.72222e-07 -4.17912e-15)
(-4.61988e-08 -8.92107e-06 2.48925e-16)
(9.52238e-07 -8.49298e-06 -6.65909e-15)
(2.04719e-06 -8.08442e-06 2.95592e-15)
(3.28215e-06 -7.86495e-06 6.40412e-15)
(4.64335e-06 -7.7558e-06 -7.25082e-15)
(6.16889e-06 -7.52659e-06 -1.05125e-14)
(7.87168e-06 -7.17397e-06 6.24892e-15)
(9.5646e-06 -6.6117e-06 -2.65331e-14)
(1.10663e-05 -5.77651e-06 1.82761e-15)
(1.24839e-05 -4.85509e-06 4.47338e-14)
(1.41029e-05 -4.09591e-06 7.83919e-16)
(1.57171e-05 -3.33766e-06 -2.59607e-15)
(1.67669e-05 -2.33874e-06 -1.45208e-14)
(1.75534e-05 -1.16049e-06 -7.64376e-15)
(1.83741e-05 -2.19875e-07 1.39483e-14)
(1.98313e-05 2.1304e-07 -3.42762e-15)
(2.12076e-05 7.04296e-07 9.52904e-16)
(-7.54875e-08 -8.16483e-06 -3.34939e-17)
(8.54782e-07 -7.78897e-06 3.26142e-15)
(1.8643e-06 -7.414e-06 2.03078e-15)
(3.0234e-06 -7.24639e-06 -1.20888e-14)
(4.27747e-06 -7.11928e-06 1.69634e-14)
(5.70989e-06 -6.90285e-06 4.97749e-15)
(7.27736e-06 -6.55189e-06 2.36666e-14)
(8.87195e-06 -6.00975e-06 3.7539e-14)
(1.02764e-05 -5.22681e-06 -4.6121e-14)
(1.15908e-05 -4.32222e-06 -4.30418e-14)
(1.31068e-05 -3.57155e-06 2.19213e-15)
(1.46406e-05 -2.82964e-06 4.4914e-15)
(1.57041e-05 -1.84619e-06 -1.17057e-14)
(1.63516e-05 -7.66742e-07 -2.33026e-14)
(1.73106e-05 5.31728e-08 8.73209e-15)
(1.87555e-05 4.79236e-07 1.01128e-15)
(2.05231e-05 9.32212e-07 -2.23981e-14)
(2.10999e-05 1.12406e-06 7.57584e-15)
(-8.14767e-08 -7.49014e-06 -6.31192e-16)
(7.75718e-07 -7.13132e-06 4.91375e-15)
(1.7111e-06 -6.81746e-06 -2.37473e-15)
(2.77971e-06 -6.6539e-06 4.42294e-15)
(3.95693e-06 -6.5455e-06 -1.43374e-14)
(5.27212e-06 -6.32477e-06 -1.52003e-14)
(6.74762e-06 -5.98938e-06 1.58022e-14)
(8.21327e-06 -5.46814e-06 1.44525e-14)
(9.51429e-06 -4.70078e-06 1.54798e-14)
(1.07455e-05 -3.85836e-06 -8.84007e-15)
(1.21777e-05 -3.13059e-06 -1.10877e-14)
(1.35811e-05 -2.3898e-06 1.52337e-15)
(1.45296e-05 -1.42885e-06 5.54262e-15)
(1.52584e-05 -4.61265e-07 -1.08242e-14)
(1.62204e-05 2.84445e-07 -2.25281e-15)
(1.77455e-05 7.5141e-07 1.46255e-14)
(1.95901e-05 1.05262e-06 -4.18882e-15)
(2.03351e-05 1.50673e-06 -8.16837e-15)
(-7.44011e-08 -6.85349e-06 1.13265e-16)
(7.08095e-07 -6.53719e-06 -2.09692e-15)
(1.57061e-06 -6.24578e-06 4.84226e-15)
(2.56656e-06 -6.12428e-06 8.48592e-15)
(3.6491e-06 -6.00632e-06 2.01259e-15)
(4.87641e-06 -5.80414e-06 -2.19815e-14)
(6.23362e-06 -5.47189e-06 -2.80506e-14)
(7.60259e-06 -4.97668e-06 6.2214e-15)
(8.80943e-06 -4.25809e-06 3.65192e-15)
(9.92888e-06 -3.4379e-06 2.92852e-14)
(1.12313e-05 -2.73522e-06 1.38444e-14)
(1.25576e-05 -2.0354e-06 5.02881e-15)
(1.34925e-05 -1.16751e-06 2.00249e-14)
(1.41132e-05 -2.31259e-07 1.63944e-15)
(1.50877e-05 4.4765e-07 -1.39061e-14)
(1.66737e-05 9.11408e-07 -5.24067e-15)
(1.85651e-05 1.19936e-06 -2.65846e-15)
(1.97703e-05 1.58852e-06 1.87005e-14)
(-6.68833e-08 -6.27787e-06 2.69391e-15)
(6.48177e-07 -5.97454e-06 -3.70217e-15)
(1.44834e-06 -5.72899e-06 -2.52783e-15)
(2.36312e-06 -5.60935e-06 -2.37243e-15)
(3.37167e-06 -5.51507e-06 7.06153e-16)
(4.49974e-06 -5.31139e-06 2.09429e-14)
(5.76611e-06 -5.00716e-06 1.89336e-14)
(7.02482e-06 -4.53305e-06 -2.60885e-15)
(8.13155e-06 -3.8427e-06 4.81812e-15)
(9.17077e-06 -3.08606e-06 -1.45575e-14)
(1.03789e-05 -2.42946e-06 -2.06315e-14)
(1.15689e-05 -1.77246e-06 -9.09072e-15)
(1.23903e-05 -9.53456e-07 1.15812e-15)
(1.30731e-05 -1.41323e-07 4.9116e-15)
(1.39443e-05 4.91684e-07 -8.40184e-15)
(1.5533e-05 9.05601e-07 1.08764e-14)
(1.7531e-05 1.13151e-06 -6.27109e-15)
(1.89825e-05 1.56779e-06 -1.23482e-14)
(1.92375e-05 1.91216e-06 1.63816e-14)
(-5.91007e-08 -5.73002e-06 -2.49823e-16)
(5.99059e-07 -5.45901e-06 3.05362e-15)
(1.33319e-06 -5.22931e-06 -3.69436e-15)
(2.1879e-06 -5.14297e-06 1.95809e-15)
(3.10991e-06 -5.03978e-06 -1.02802e-14)
(4.1642e-06 -4.85625e-06 -8.75284e-15)
(5.32083e-06 -4.56425e-06 2.61865e-15)
(6.49699e-06 -4.11947e-06 1.06939e-14)
(7.51799e-06 -3.48727e-06 3.53044e-15)
(8.45736e-06 -2.76483e-06 2.31355e-15)
(9.5468e-06 -2.15865e-06 -1.85844e-14)
(1.06644e-05 -1.57652e-06 -7.37756e-15)
(1.14643e-05 -8.74333e-07 6.20354e-15)
(1.20227e-05 -1.11468e-07 -2.57357e-15)
(1.28917e-05 4.56924e-07 1.55404e-14)
(1.44427e-05 8.22948e-07 1.21793e-14)
(1.63226e-05 1.16074e-06 8.45893e-15)
(1.79678e-05 1.53738e-06 -9.92151e-15)
(1.83991e-05 2.08856e-06 -1.41095e-14)
(-4.98832e-08 -5.23163e-06 -5.17471e-16)
(5.53811e-07 -4.97124e-06 6.2817e-16)
(1.23311e-06 -4.78002e-06 6.25377e-15)
(2.01792e-06 -4.68801e-06 5.75105e-15)
(2.87924e-06 -4.60147e-06 -4.51408e-15)
(3.83913e-06 -4.42232e-06 -3.19472e-15)
(4.92233e-06 -4.15436e-06 -1.12814e-14)
(5.99551e-06 -3.74172e-06 3.88064e-15)
(6.93669e-06 -3.14212e-06 -7.89363e-15)
(7.80993e-06 -2.49441e-06 1.47564e-14)
(8.82861e-06 -1.94779e-06 1.39168e-14)
(9.83431e-06 -1.42461e-06 5.7401e-15)
(1.05351e-05 -7.7464e-07 5.35425e-15)
(1.11261e-05 -1.17056e-07 1.23528e-14)
(1.18547e-05 4.33265e-07 -4.9485e-15)
(1.32496e-05 8.11803e-07 -2.2458e-14)
(1.51898e-05 1.17828e-06 -5.41304e-15)
(1.67758e-05 1.6028e-06 1.99144e-14)
(1.75017e-05 2.23519e-06 2.14038e-15)
(-4.06633e-08 -4.75964e-06 1.08898e-16)
(5.11531e-07 -4.53314e-06 -1.195e-15)
(1.1382e-06 -4.35262e-06 2.26531e-15)
(1.86744e-06 -4.28174e-06 -2.99456e-15)
(2.6539e-06 -4.18513e-06 4.38371e-15)
(3.54411e-06 -4.02422e-06 1.24083e-14)
(4.5329e-06 -3.76783e-06 -5.04603e-15)
(5.53263e-06 -3.38989e-06 -1.32481e-14)
(6.40506e-06 -2.84772e-06 -1.75169e-14)
(7.2025e-06 -2.23938e-06 4.15483e-16)
(8.1336e-06 -1.74265e-06 -4.20711e-15)
(9.0961e-06 -1.28052e-06 -4.66794e-16)
(9.78371e-06 -7.14332e-07 1.02195e-14)
(1.02467e-05 -6.98714e-08 -1.46553e-14)
(1.09479e-05 4.41608e-07 -4.35867e-15)
(1.2151e-05 8.12678e-07 7.96632e-15)
(1.38439e-05 1.19082e-06 -1.03959e-14)
(1.55036e-05 1.55923e-06 4.45256e-15)
(1.63852e-05 2.28549e-06 5.77903e-15)
(1.61527e-05 2.94164e-06 -1.27445e-14)
(-3.49688e-08 -4.34217e-06 -6.24283e-17)
(4.74444e-07 -4.12917e-06 1.4265e-15)
(1.05503e-06 -3.97808e-06 -5.21797e-15)
(1.72262e-06 -3.89717e-06 -4.89447e-15)
(2.45171e-06 -3.81271e-06 -1.42221e-15)
(3.26318e-06 -3.64864e-06 1.32248e-14)
(4.1807e-06 -3.41699e-06 -6.07084e-15)
(5.09521e-06 -3.06447e-06 -1.03096e-14)
(5.89805e-06 -2.55669e-06 1.44267e-14)
(6.65003e-06 -2.01351e-06 -6.30216e-15)
(7.53147e-06 -1.56484e-06 1.15717e-14)
(8.40922e-06 -1.13689e-06 -9.46973e-15)
(9.01571e-06 -5.89062e-07 -1.07948e-15)
(9.50359e-06 -1.53664e-08 1.35082e-14)
(1.00638e-05 4.86357e-07 -2.04682e-14)
(1.11395e-05 8.49776e-07 -4.3556e-15)
(1.27979e-05 1.1504e-06 2.17823e-14)
(1.41222e-05 1.61627e-06 -9.28229e-16)
(1.50571e-05 2.19918e-06 -2.84567e-15)
(1.5056e-05 2.93864e-06 2.41837e-15)
(-2.72436e-08 -3.95776e-06 5.0378e-16)
(4.47071e-07 -3.77515e-06 -1.88017e-15)
(9.76887e-07 -3.63049e-06 -2.59337e-15)
(1.59851e-06 -3.56438e-06 8.59421e-15)
(2.26107e-06 -3.46508e-06 -8.55344e-15)
(3.01545e-06 -3.31065e-06 -1.10325e-14)
(3.84644e-06 -3.08533e-06 1.56851e-14)
(4.69926e-06 -2.75653e-06 -5.71059e-15)
(5.44195e-06 -2.29875e-06 -6.03309e-15)
(6.13077e-06 -1.78477e-06 -8.2202e-16)
(6.94206e-06 -1.37106e-06 -3.4524e-15)
(7.78617e-06 -9.82979e-07 1.98984e-14)
(8.38533e-06 -4.92779e-07 9.57893e-16)
(8.76128e-06 7.96558e-08 -5.43241e-15)
(9.30647e-06 5.36594e-07 3.2326e-15)
(1.02162e-05 8.72158e-07 -5.81759e-15)
(1.1542e-05 1.18679e-06 1.82514e-15)
(1.30098e-05 1.55146e-06 1.22533e-14)
(1.38259e-05 2.09266e-06 -4.06363e-15)
(1.41738e-05 2.62861e-06 -2.0701e-15)
(-1.44351e-08 -3.62138e-06 -2.30844e-16)
(4.23264e-07 -3.45005e-06 1.51781e-16)
(9.09122e-07 -3.3296e-06 1.23759e-15)
(1.47673e-06 -3.25306e-06 -6.44824e-15)
(2.09495e-06 -3.15947e-06 1.79118e-15)
(2.7776e-06 -3.00041e-06 -1.63101e-14)
(3.55254e-06 -2.78639e-06 8.49039e-15)
(4.32584e-06 -2.47701e-06 2.45725e-14)
(5.01152e-06 -2.04003e-06 -2.09941e-14)
(5.6587e-06 -1.57803e-06 -1.93368e-14)
(6.4275e-06 -1.19593e-06 -9.66525e-15)
(7.19608e-06 -8.2585e-07 -1.38551e-15)
(7.72397e-06 -3.42549e-07 5.62548e-15)
(8.13378e-06 1.62766e-07 4.09353e-15)
(8.57165e-06 5.97647e-07 2.22675e-15)
(9.4147e-06 8.98374e-07 -1.57196e-14)
(1.06814e-05 1.11263e-06 -1.67395e-14)
(1.17551e-05 1.43497e-06 7.46543e-15)
(1.27924e-05 1.76037e-06 4.94247e-15)
(1.33158e-05 2.17604e-06 -6.91624e-15)
(1.3013e-05 2.79233e-06 4.77822e-15)
(1.28114e-09 -3.30781e-06 1.18109e-16)
(4.01172e-07 -3.16208e-06 3.31686e-16)
(8.44619e-07 -3.04648e-06 1.75232e-15)
(1.36935e-06 -2.98448e-06 1.24684e-15)
(1.93247e-06 -2.88018e-06 1.04665e-14)
(2.56474e-06 -2.7287e-06 1.92841e-14)
(3.26765e-06 -2.51472e-06 -2.16401e-14)
(3.98554e-06 -2.22274e-06 1.1913e-14)
(4.61913e-06 -1.8197e-06 1.0436e-14)
(5.21126e-06 -1.37387e-06 7.57901e-15)
(5.91546e-06 -1.00944e-06 -2.145e-15)
(6.65327e-06 -6.62249e-07 8.3642e-15)
(7.17945e-06 -2.25923e-07 8.31846e-16)
(7.50177e-06 2.74871e-07 -3.51235e-15)
(7.95669e-06 6.57253e-07 5.70758e-15)
(8.70717e-06 9.09528e-07 -1.32498e-15)
(9.79235e-06 1.10995e-06 9.43213e-16)
(1.10921e-05 1.25492e-06 -5.17363e-15)
(1.18875e-05 1.52006e-06 -5.33638e-15)
(1.21811e-05 2.00142e-06 8.53061e-15)
(1.18701e-05 2.65902e-06 -3.64027e-15)
(1.41939e-08 -3.02815e-06 4.3209e-16)
(3.79999e-07 -2.89182e-06 -1.86165e-15)
(7.87078e-07 -2.79618e-06 -1.27222e-15)
(1.26407e-06 -2.72808e-06 2.29789e-15)
(1.78594e-06 -2.63478e-06 -6.83129e-15)
(2.3613e-06 -2.47924e-06 4.91203e-15)
(3.01304e-06 -2.27782e-06 -8.18556e-15)
(3.66558e-06 -1.99472e-06 -1.68179e-14)
(4.24609e-06 -1.60469e-06 -2.27155e-15)
(4.80105e-06 -1.19235e-06 9.25951e-15)
(5.46413e-06 -8.43531e-07 9.62985e-15)
(6.13212e-06 -5.00639e-07 3.50264e-15)
(6.59867e-06 -6.36072e-08 2.88567e-15)
(6.96962e-06 3.78889e-07 -1.50707e-15)
(7.3602e-06 7.39885e-07 5.87932e-15)
(8.09939e-06 9.61745e-07 -2.4414e-15)
(9.20609e-06 1.06976e-06 3.82035e-15)
(1.02074e-05 1.21877e-06 7.06632e-15)
(1.10761e-05 1.4747e-06 -1.71502e-15)
(1.12669e-05 2.00291e-06 7.80582e-15)
(1.08081e-05 2.68546e-06 -1.23689e-15)
(2.54336e-08 -2.75912e-06 2.39255e-16)
(3.61744e-07 -2.64177e-06 -3.929e-16)
(7.30841e-07 -2.55029e-06 5.28061e-16)
(1.17232e-06 -2.49789e-06 -1.92373e-15)
(1.64518e-06 -2.40033e-06 -5.09913e-15)
(2.18137e-06 -2.25518e-06 -1.64758e-14)
(2.76975e-06 -2.05656e-06 1.80048e-14)
(3.37776e-06 -1.78425e-06 -1.04012e-14)
(3.91027e-06 -1.42024e-06 -2.87725e-16)
(4.41236e-06 -1.01284e-06 8.24729e-15)
(5.0123e-06 -6.70329e-07 -1.71305e-14)
(5.64786e-06 -3.37679e-07 -1.18997e-14)
(6.11438e-06 6.73913e-08 -3.19278e-15)
(6.41905e-06 5.17978e-07 3.15393e-15)
(6.8494e-06 8.46883e-07 4.88527e-15)
(7.55675e-06 1.03625e-06 -3.19475e-15)
(8.56692e-06 1.16186e-06 -1.88551e-15)
(9.68969e-06 1.2602e-06 7.03326e-15)
(1.01893e-05 1.68381e-06 -4.96869e-16)
(1.02034e-05 2.35907e-06 5.6548e-15)
(9.96566e-06 2.99896e-06 -1.14185e-15)
(3.53563e-08 -2.50802e-06 2.77736e-16)
(3.41962e-07 -2.39513e-06 -5.29211e-16)
(6.79945e-07 -2.3203e-06 5.32653e-16)
(1.07989e-06 -2.26544e-06 -4.14484e-16)
(1.51989e-06 -2.18179e-06 6.04872e-15)
(2.0042e-06 -2.04124e-06 7.7414e-15)
(2.55433e-06 -1.85464e-06 -2.55386e-15)
(3.10269e-06 -1.59461e-06 1.79295e-15)
(3.59114e-06 -1.23812e-06 -2.56679e-15)
(4.05493e-06 -8.57852e-07 -8.24215e-15)
(4.6117e-06 -5.21797e-07 9.11421e-15)
(5.1766e-06 -1.83264e-07 -4.38097e-20)
(5.58365e-06 2.36045e-07 -5.3517e-16)
(5.93218e-06 6.47928e-07 -5.15568e-16)
(6.32165e-06 9.7911e-07 -7.97668e-15)
(7.03111e-06 1.17938e-06 3.26202e-15)
(8.05101e-06 1.30704e-06 -4.21921e-15)
(8.76987e-06 1.65988e-06 1.08782e-16)
(9.19892e-06 2.30062e-06 6.65451e-15)
(9.23036e-06 2.87237e-06 -6.05896e-15)
(9.0713e-06 3.45204e-06 -1.96568e-15)
(8.63495e-06 3.86683e-06 -2.90721e-15)
(4.10764e-08 -2.26056e-06 -3.02466e-16)
(3.18711e-07 -2.16534e-06 -5.03079e-17)
(6.28083e-07 -2.09091e-06 -1.52121e-15)
(9.95958e-07 -2.04895e-06 -3.53879e-15)
(1.39352e-06 -1.9667e-06 -5.14825e-16)
(1.84191e-06 -1.84178e-06 -4.96174e-15)
(2.33943e-06 -1.66281e-06 -7.51245e-15)
(2.84851e-06 -1.41884e-06 3.51564e-15)
(3.29551e-06 -1.08605e-06 2.38412e-15)
(3.71068e-06 -7.10446e-07 3.8473e-15)
(4.20363e-06 -3.75776e-07 -6.43232e-15)
(4.729e-06 -4.01755e-08 8.48395e-15)
(5.12788e-06 3.55608e-07 -7.26375e-15)
(5.40451e-06 7.87084e-07 -4.30059e-15)
(5.81159e-06 1.10948e-06 1.28462e-14)
(6.4567e-06 1.32142e-06 -3.40436e-15)
(7.19204e-06 1.66072e-06 2.13668e-15)
(7.77371e-06 2.18916e-06 -1.8292e-15)
(8.13068e-06 2.69785e-06 -6.10032e-16)
(8.35897e-06 3.18426e-06 3.38145e-15)
(8.38224e-06 3.52979e-06 3.66588e-15)
(8.08705e-06 3.77683e-06 -2.88564e-15)
(4.11168e-08 -2.03136e-06 -6.47684e-16)
(2.94816e-07 -1.93945e-06 5.87053e-16)
(5.79752e-07 -1.87587e-06 5.47181e-17)
(9.11661e-07 -1.83106e-06 2.45973e-15)
(1.27713e-06 -1.76345e-06 -1.66375e-15)
(1.68187e-06 -1.645e-06 -2.95182e-17)
(2.14239e-06 -1.4848e-06 8.95955e-15)
(2.60244e-06 -1.25432e-06 9.45045e-15)
(3.00879e-06 -9.34754e-07 2.79045e-16)
(3.38924e-06 -5.84843e-07 1.31109e-14)
(3.83748e-06 -2.59348e-07 6.21914e-15)
(4.28994e-06 7.79625e-08 -1.20331e-14)
(4.61894e-06 4.824e-07 4.28635e-16)
(4.92102e-06 8.83954e-07 -5.06198e-15)
(5.2662e-06 1.20253e-06 -1.50995e-15)
(5.74093e-06 1.53009e-06 8.2486e-15)
(6.27939e-06 1.94748e-06 -1.45841e-14)
(6.77212e-06 2.35209e-06 -1.91053e-15)
(7.27281e-06 2.74534e-06 8.16174e-15)
(7.62172e-06 3.04521e-06 1.22803e-15)
(7.90098e-06 3.20237e-06 -1.42142e-15)
(7.58125e-06 3.44035e-06 -4.08548e-15)
(3.82762e-08 -1.81364e-06 9.82377e-18)
(2.7162e-07 -1.73521e-06 2.68972e-16)
(5.31868e-07 -1.67013e-06 1.71389e-15)
(8.37627e-07 -1.63268e-06 4.88952e-15)
(1.1643e-06 -1.56372e-06 2.16883e-15)
(1.53783e-06 -1.45873e-06 4.12858e-15)
(1.94924e-06 -1.30839e-06 3.75796e-16)
(2.37589e-06 -1.09413e-06 -1.38871e-14)
(2.74426e-06 -8.01639e-07 1.55892e-14)
(3.07995e-06 -4.62039e-07 1.25383e-15)
(3.46656e-06 -1.47936e-07 4.26213e-16)
(3.87474e-06 1.72397e-07 6.35585e-15)
(4.18074e-06 5.43425e-07 3.44631e-15)
(4.40882e-06 9.40828e-07 7.24526e-15)
(4.67824e-06 1.27622e-06 6.20648e-15)
(5.03185e-06 1.60129e-06 -6.02642e-15)
(5.49977e-06 1.92017e-06 2.55087e-15)
(5.94219e-06 2.21168e-06 8.21537e-15)
(6.44285e-06 2.45285e-06 -4.16942e-15)
(7.10834e-06 2.58547e-06 -4.45698e-15)
(7.37853e-06 2.80322e-06 1.32551e-15)
(7.10688e-06 3.0894e-06 -3.61182e-15)
(3.36141e-08 -1.62007e-06 2.36415e-16)
(2.46658e-07 -1.54581e-06 -4.42359e-16)
(4.87026e-07 -1.4891e-06 -1.6633e-15)
(7.63437e-07 -1.44398e-06 -7.21172e-16)
(1.0643e-06 -1.38165e-06 3.67845e-15)
(1.39607e-06 -1.28055e-06 4.37747e-15)
(1.77641e-06 -1.14266e-06 -8.54673e-15)
(2.15553e-06 -9.43718e-07 -3.17595e-15)
(2.48959e-06 -6.6532e-07 -2.0255e-14)
(2.79292e-06 -3.57472e-07 9.5606e-16)
(3.14043e-06 -6.44284e-08 2.24926e-15)
(3.47872e-06 2.36919e-07 -2.62764e-15)
(3.71664e-06 5.90452e-07 -4.92817e-15)
(3.93642e-06 9.34486e-07 5.79018e-15)
(4.15546e-06 1.23432e-06 9.31725e-15)
(4.45557e-06 1.49968e-06 -3.54369e-15)
(4.83109e-06 1.74951e-06 -8.04417e-15)
(5.30208e-06 1.93114e-06 4.4117e-15)
(5.9192e-06 2.05202e-06 1.77984e-15)
(6.36869e-06 2.21131e-06 -2.29364e-15)
(6.71839e-06 2.39831e-06 1.50394e-15)
(6.6132e-06 2.72466e-06 3.57009e-15)
(5.97407e-06 3.05978e-06 3.93273e-15)
(3.09184e-08 -1.44824e-06 4.12944e-16)
(2.27037e-07 -1.38825e-06 -1.22726e-15)
(4.47781e-07 -1.32925e-06 -1.36385e-15)
(7.00488e-07 -1.28542e-06 -8.91931e-16)
(9.67715e-07 -1.21699e-06 1.35939e-15)
(1.26956e-06 -1.1222e-06 -6.33319e-15)
(1.60584e-06 -9.88543e-07 1.83084e-15)
(1.95229e-06 -8.03766e-07 5.59931e-15)
(2.25234e-06 -5.49633e-07 6.97688e-15)
(2.51847e-06 -2.57199e-07 -1.04815e-14)
(2.81646e-06 1.43192e-08 -8.94628e-16)
(3.12326e-06 2.83045e-07 4.1982e-15)
(3.34543e-06 5.80863e-07 -8.98153e-15)
(3.50457e-06 8.9144e-07 3.99906e-16)
(3.68813e-06 1.14463e-06 5.87792e-15)
(3.93122e-06 1.35755e-06 -2.50144e-15)
(4.32702e-06 1.53384e-06 -3.78421e-15)
(4.77488e-06 1.66306e-06 -3.53451e-15)
(5.29512e-06 1.79217e-06 6.24687e-15)
(5.95194e-06 1.90356e-06 -1.08746e-15)
(6.11402e-06 2.13788e-06 -5.58956e-15)
(5.90484e-06 2.43503e-06 6.15159e-15)