/*--------------------------------*- C++ -*----------------------------------*\
| =========                 |                                                 |
| \\      /  F ield         | OpenFOAM: The Open Source CFD Toolbox           |
|  \\    /   O peration     | Version:  2306                                  |
|   \\  /    A nd           | Website:  www.openfoam.com                      |
|    \\/     M anipulation  |                                                 |
\*---------------------------------------------------------------------------*/
FoamFile
{
    version     2.0;
    format      ascii;
    arch        "LSB;label=32;scalar=64";
    class       volScalarField;
    location    "600";
    object      p;
}
// * * * * * * * * * * * * * * * * * * * * * * * * * * * * * * * * * * * * * //

dimensions      [0 2 -2 0 0 0 0];

internalField   nonuniform List<scalar> 
1340
(
81.3072
101.368
120.304
139.88
159.228
77.374
95.9807
113.528
131.747
149.817
166.003
73.2591
90.5949
106.929
123.959
140.902
156.125
169.714
69.0919
85.3007
100.57
116.542
132.481
146.845
159.753
170.585
64.9586
80.161
94.4802
109.508
124.542
138.134
150.414
160.795
168.62
60.915
75.2128
88.6772
102.852
117.067
129.954
141.654
151.61
159.193
164.368
56.9982
70.477
83.168
96.5657
110.033
122.275
133.434
142.987
150.33
155.424
53.233
65.9642
77.9518
90.638
103.418
115.064
125.718
134.887
141.991
146.987
150.108
49.6334
61.6782
73.0211
85.0521
97.1971
108.29
118.471
127.274
134.141
139.029
142.163
46.2066
57.6186
68.3672
79.7919
91.3487
101.925
111.659
120.113
126.749
131.52
134.644
136.309
42.9559
53.7812
63.98
74.8417
85.8505
95.9417
105.254
113.376
119.783
124.431
127.532
129.261
39.8808
50.1614
59.8483
70.1847
80.6808
90.3167
99.2307
107.034
113.22
117.741
120.803
122.575
36.9792
46.7511
55.9605
65.8049
75.8196
85.0266
93.5634
101.062
107.031
111.423
114.438
116.236
117.017
34.2473
43.5421
52.3056
61.688
71.249
80.0514
88.2301
95.4371
101.195
105.456
108.417
110.228
111.079
31.6796
40.5266
48.8711
57.8191
66.9524
75.3719
83.2092
90.1363
95.6891
99.8214
102.722
104.534
105.44
105.629
29.27
37.6959
45.6463
54.1842
62.9126
70.9688
78.4811
85.1403
90.4951
94.499
97.3346
99.1403
100.089
100.364
27.0125
35.0414
42.6201
50.77
59.1141
66.8257
74.0286
80.4301
85.5935
89.471
92.2397
94.0315
95.0114
95.3588
24.9009
32.5542
39.7816
47.5641
55.5441
62.9273
69.8353
75.9894
80.9674
84.7208
87.4211
89.1937
90.1963
90.6032
90.5335
22.9282
30.2258
37.1207
44.5551
52.1883
59.259
65.8856
71.8021
76.6008
80.2328
82.8638
84.6134
85.6318
86.0884
86.0987
21.0878
28.0482
34.6277
41.7314
49.0344
55.807
62.1647
67.8534
72.4787
75.9923
78.5539
80.2773
81.3056
81.8034
81.883
19.3733
26.0135
32.2931
39.0824
46.071
52.559
58.6593
64.1294
68.5873
71.9857
74.4781
76.1729
77.2068
77.7381
77.8773
77.7053
17.778
24.1137
30.1085
36.5982
43.2869
49.5029
55.357
60.6167
64.9138
68.2001
70.624
72.2884
73.3237
73.8831
74.0734
73.9734
22.3415
28.0654
34.2694
40.6713
46.6276
52.2458
57.3036
61.4455
64.623
66.9795
68.6125
69.6463
70.2285
70.4626
70.4255
70.167
20.6898
26.1555
32.087
38.215
43.9227
49.3149
54.1789
58.1708
61.2431
63.5334
65.1341
66.1635
66.7642
67.0364
67.0541
66.8672
19.1518
24.3713
30.0425
35.9087
41.3783
46.5539
51.2314
55.079
58.0494
60.2746
61.8425
62.8656
63.481
63.7858
63.8516
63.7275
17.7208
22.7053
28.1279
33.7434
38.9851
43.9529
48.4512
52.1598
55.0314
57.1929
58.728
59.7426
60.3698
60.7028
60.8106
60.7415
60.5235
16.3906
21.1508
26.3356
31.7112
36.7346
41.5028
45.8286
49.4031
52.1793
54.2787
55.7808
56.7858
57.4217
57.7786
57.9231
57.9024
57.7449
15.1554
19.7012
24.6584
29.8042
34.6182
39.1948
43.3549
46.8002
49.4838
51.5225
52.9915
53.9857
54.6282
55.0055
55.1818
55.2036
55.099
14.0092
18.3502
23.0893
28.015
32.6282
37.0209
41.0212
44.342
46.9361
48.9156
50.3516
51.3339
51.9806
52.3752
52.5792
52.6382
52.58
52.4195
12.9467
17.0916
21.6222
26.3366
30.7573
34.9732
38.8199
42.0202
44.5278
46.4496
47.8527
48.8222
49.4712
49.8802
50.1081
50.1995
50.1819
50.0706
11.9627
15.9202
20.2508
24.7628
28.9985
33.0445
36.7431
39.8273
42.2511
44.1163
45.4868
46.4427
47.0923
47.5131
47.7615
47.881
47.8989
47.8305
11.0524
14.8303
18.9694
23.287
27.3452
31.2277
34.7837
37.7558
40.0983
41.9085
43.2465
44.1879
44.8365
45.2668
45.5327
45.6764
45.725
45.694
45.5911
10.2109
13.817
17.7723
21.9036
25.7912
29.5163
32.935
35.7988
38.0623
39.8187
41.1244
42.0506
42.6969
43.1343
43.4149
43.5795
43.6546
43.6561
43.592
9.43376
12.8753
16.6545
20.6069
24.3306
27.9044
31.1905
33.9494
36.1365
37.8401
39.1137
40.0241
40.6666
41.1093
41.402
41.5843
41.6823
41.7117
41.6811
8.71688
12.0008
15.6111
19.3915
22.9576
26.3857
29.5439
32.2016
34.3143
35.9663
37.208
38.1019
38.7394
39.1856
39.488
39.6852
39.8027
39.8559
39.8541
39.8
8.05619
11.189
14.6373
18.2527
21.6673
24.9551
27.9898
30.5494
32.5897
34.1913
35.4011
36.278
36.9091
37.3571
37.6671
37.8768
38.0106
38.0841
38.1069
38.0824
7.44785
10.4359
13.7287
17.1856
20.4545
23.607
26.5226
28.9871
30.9572
32.5092
33.6872
34.5465
35.1702
35.6184
35.9341
36.1537
36.3012
36.3918
36.4354
36.4363
6.88834
9.73767
12.8813
16.1859
19.3145
22.3368
25.137
27.5096
29.4112
30.9146
32.0609
32.902
33.5174
33.9642
34.2838
34.5112
34.6699
34.7747
34.8358
34.8579
34.8415
6.37421
9.09056
12.0909
15.2492
18.243
21.1395
23.8284
26.1117
27.9466
29.4022
30.517
31.3394
31.9453
32.3895
32.7114
32.9447
33.1122
33.2287
33.3044
33.3444
33.3499
5.90223
8.49113
11.3539
14.3717
17.2355
20.0109
22.5922
24.7888
26.5586
27.9673
29.0506
29.8538
30.4494
30.8898
31.2123
31.4498
31.6242
31.7501
31.8377
31.8925
31.9163
5.46939
7.93613
10.6669
13.5495
16.2883
18.9467
21.4239
23.5365
25.2429
26.6053
27.6571
28.4408
29.0252
29.4605
29.7824
30.0224
30.202
30.3352
30.4323
30.4992
30.5383
5.07287
7.42245
10.0265
12.7791
15.3975
17.9432
20.3195
22.3505
23.995
25.3119
26.3324
27.096
27.6684
28.0976
28.4177
28.6588
28.8419
28.9806
29.0852
29.1619
29.2133
29.2391
4.70992
6.94722
9.42958
12.0572
14.5597
16.9964
19.2752
21.2269
22.8109
24.083
25.0722
25.8154
26.3753
26.7975
27.1144
27.3555
27.5406
27.6832
27.7936
27.8779
27.9393
27.978
4.37806
6.50767
8.87321
11.3806
13.7714
16.103
18.2873
20.1619
21.6869
22.9149
23.873
24.5954
25.1421
25.5563
25.8692
26.109
26.2949
26.4401
26.5545
26.6447
26.714
26.7631
4.07491
6.10123
8.35463
10.7465
13.0296
15.2597
17.3524
19.1522
20.6194
21.8039
22.731
23.4325
23.9653
24.371
24.6789
24.9164
25.102
25.2484
25.3656
25.4601
25.5354
25.5928
3.79821
5.72552
7.87124
10.1519
12.3313
14.4634
16.4673
18.1943
19.605
20.7468
21.643
22.3233
22.8419
23.2382
23.5405
23.7747
23.9591
24.1057
24.2245
24.3219
24.4017
24.4655
24.5127
3.54589
5.37823
7.42058
9.59431
11.6737
13.711
15.629
17.2852
18.6405
19.7402
20.6059
21.2649
21.7687
22.1552
22.4511
22.6814
22.8636
23.0096
23.1289
23.228
23.3109
23.3796
23.4338
3.31598
5.05727
7.00038
9.07123
11.0542
13.0001
14.8346
16.4219
17.7231
18.7813
19.6166
20.2543
20.7432
21.1193
21.4082
21.6339
21.8133
21.9578
22.0768
22.1767
22.2616
22.3336
22.3932
3.10666
4.76063
6.60851
8.5804
10.4704
12.3278
14.0814
15.6016
16.8497
17.8672
18.6726
19.2889
19.7625
20.1279
20.4094
20.63
20.8059
20.9482
21.0662
21.166
21.252
21.3263
21.3899
2.91621
4.4865
6.24296
8.11965
9.91994
11.6919
13.3669
14.8218
16.0176
16.9952
17.7712
18.3662
18.8244
19.1788
19.4524
19.6674
19.8394
19.979
20.0953
20.1944
20.2806
20.3563
20.4227
2.74301
4.2331
5.90191
7.68699
9.40081
11.0901
12.6887
14.08
15.2243
16.1628
16.91
17.4839
17.9265
18.2696
18.535
18.7441
18.9117
19.0483
19.1624
19.2603
19.3461
19.4224
19.4906
19.5482
2.58562
3.99883
5.58355
7.28044
8.91088
10.5202
12.0446
13.3739
14.4674
15.3677
16.0868
16.6397
17.0667
17.3982
17.6554
17.8582
18.0212
18.1544
18.266
18.3621
18.447
18.5232
18.5925
18.6526
2.44268
3.7822
5.28624
6.89817
8.44813
9.98009
11.4321
12.7012
13.7445
14.608
15.2998
15.8317
16.2428
16.5628
16.8114
17.0079
17.1661
17.2955
17.4044
17.4985
17.582
17.6577
17.7273
17.789
2.31282
3.58187
5.00874
6.53878
8.01109
9.46795
10.8492
12.0593
13.0525
13.8815
14.5472
15.058
15.4531
15.7615
16.0016
16.1916
16.3447
16.4703
16.5761
16.668
16.7498
16.8245
16.894
16.9567
2.19476
3.39664
4.74987
6.20142
7.59924
8.9835
10.2956
11.4475
12.388
13.1845
13.8262
14.316
14.6951
14.9921
15.2239
15.4075
15.5555
15.6772
15.7799
15.8692
15.9492
16.0227
16.0916
16.1548
2.08747
3.22522
4.50833
5.8845
7.21098
8.52523
9.77098
10.8659
11.7494
12.5152
13.1344
13.6033
13.9665
14.2525
14.4762
14.6534
14.7965
14.9142
15.0138
15.1007
15.1787
15.2508
15.319
15.3823
1.99045
3.06658
4.28134
5.584
6.84095
8.08634
9.26829
10.3084
11.1405
11.8797
12.4752
12.9212
13.268
13.5429
13.7582
13.9288
14.0667
14.1804
14.2768
14.3611
14.437
14.5076
14.575
14.6382
14.6916
1.90319
2.9197
4.06758
5.29736
6.48508
7.66041
8.77865
9.7615
10.5538
11.2815
11.8518
12.2696
12.5991
12.8636
13.0705
13.2342
13.3668
13.4764
13.5696
13.6512
13.7251
13.794
13.8603
13.9231
13.977
1.83651
2.80501
3.90043
5.06484
6.18513
7.28068
8.30718
9.17931
9.87925
10.6778
11.2644
11.6728
12.0017
12.2705
12.48
12.6446
12.778
12.8885
12.9825
13.0649
13.1396
13.2096
13.2772
13.3418
13.398
1.78254
2.71095
3.75928
4.86237
5.91409
6.92064
7.83733
8.57759
9.1615
10.0707
10.704
11.1179
11.4566
11.7389
11.9584
12.1296
12.268
12.3829
12.4805
12.5661
12.6438
12.7167
12.7874
12.8554
12.9152
1.72965
2.61777
3.61836
4.65991
5.6441
6.56147
7.37245
7.98897
8.45888
9.45593
10.1375
10.5576
10.9025
11.1961
11.4251
11.6027
11.7459
11.8646
11.9658
12.0544
12.1349
12.2106
12.2845
12.3559
12.4191
1.67801
2.52608
3.4787
4.45916
5.37723
6.20531
6.91592
7.41322
7.77593
8.83418
9.56325
9.9929
10.3416
10.6438
10.8815
11.0652
11.213
11.3356
11.44
11.5316
11.6148
11.6933
11.7701
11.8448
11.9116
1.62813
2.43663
3.34148
4.26185
5.11553
5.85416
6.47001
6.84827
7.11164
8.20642
8.97898
9.42226
9.77491
10.0842
10.3292
10.5181
10.6697
10.7959
10.9038
10.9985
11.0846
11.166
11.2459
11.3242
11.3947
1.58062
2.35063
3.20824
4.07035
4.86105
5.51005
6.03656
6.2921
6.46184
7.57329
8.38329
8.84239
9.2003
9.5176
9.77118
9.96566
10.12
10.2481
10.3581
10.4553
10.5441
10.6283
10.7115
10.7935
10.8681
1.53661
2.27014
3.08193
3.88818
4.61567
5.17294
5.6133
5.73812
5.81675
6.93398
7.77831
8.25315
8.61346
8.9362
9.20019
9.4052
9.56728
9.69975
9.8119
9.91038
10.0005
10.0865
10.1722
10.2573
10.3355
1.49687
2.19674
2.96536
3.71911
4.3814
4.84385
5.19913
5.17896
5.16006
6.27912
7.1648
7.66531
8.02963
8.34821
8.60909
8.81626
8.98617
9.12952
9.25227
9.35923
9.45554
9.54638
9.63645
9.72677
9.81142
9.88336
1.46042
2.12905
2.85786
3.56432
4.16182
4.53572
4.81146
4.61753
4.47719
5.58651
6.51555
7.06335
7.46515
7.80515
8.06542
8.25444
8.4007
8.52605
8.64041
8.74698
8.84767
8.94501
9.04212
9.13905
9.22986
9.30915
1.42715
2.06687
2.75973
3.4248
3.96289
4.27068
4.47313
4.05357
3.76716
4.85372
5.78888
6.35285
6.79656
7.2085
7.55175
7.80682
7.98593
8.11122
8.2051
8.28452
8.36043
8.43994
8.52771
8.62195
8.71074
8.78327
1.40586
2.02616
2.69161
3.3185
3.79558
4.04104
4.11999
3.40734
3.01612
4.14772
5.09259
5.60995
5.96468
6.28582
6.59259
6.88929
7.17314
7.43026
7.64906
7.82744
7.97112
8.08952
8.19635
8.31109
8.44725
8.59326
1.41155
2.03628
2.69369
3.28488
3.68064
3.79968
3.58526
2.52696
2.12669
3.44341
4.6184
5.37622
5.85029
6.09769
6.14556
6.07022
5.95377
5.86251
5.82428
5.84155
5.90598
6.0089
6.13431
6.24233
6.28939
6.29341
1.43228
2.07912
2.74617
3.31264
3.62627
3.57546
2.96715
1.60132
0.970277
2.1491
3.45655
4.7496
6.0073
7.19993
8.21247
8.98724
9.54257
9.89657
10.0969
10.1967
10.2422
10.2712
10.3384
10.5315
10.8843
11.268
)
;

boundaryField
{
    inlet
    {
        type            freestreamPressure;
        freestreamValue uniform 0;
        value           nonuniform List<scalar> 
26
(
1.4253
2.069
2.7328
3.29651
3.60862
3.55806
2.9527
1.59352
0.552193
1.22221
1.9643
2.69716
3.40918
4.08383
4.6561
5.0935
5.40653
5.60554
5.71751
5.77256
5.7969
5.81176
5.84813
5.95562
6.15325
6.36839
)
;
    }
    outlet
    {
        type            freestreamPressure;
        freestreamValue nonuniform List<scalar> 0();
        value           nonuniform List<scalar> 0();
    }
    walls
    {
        type            zeroGradient;
    }
    frontAndBack
    {
        type            empty;
    }
    procBoundary0to1
    {
        type            processor;
        value           nonuniform List<scalar> 
94
(
169.117
176.509
176.509
180.341
180.341
181.02
181.02
178.646
178.646
173.852
173.852
167.375
158.504
158.504
151.56
143.737
143.737
136.744
129.837
123.265
123.265
116.978
111.165
111.165
105.23
100.092
95.1957
95.1957
90.0757
85.7499
81.6284
81.6284
77.2723
73.6333
73.6333
69.7134
66.5025
63.4408
63.4408
60.1695
57.4639
54.8823
54.8823
52.1612
49.8713
47.6827
47.6827
45.4154
43.4628
41.5923
41.5923
39.6908
38.0093
36.3938
36.3938
34.7824
33.3179
31.9072
30.5482
30.5482
29.2354
27.9911
26.7901
25.6311
25.6311
24.5384
23.4693
22.4366
21.4394
20.4769
20.4769
19.5888
18.6971
17.8366
17.0066
16.2062
15.4349
15.4349
14.7308
14.0177
13.4412
12.9617
12.469
11.9648
11.4517
10.9293
10.4002
10.4002
9.94059
9.37645
8.83729
8.73267
6.2884
11.5834
)
;
    }
    procBoundary0to4
    {
        type            processor;
        value           nonuniform List<scalar> 
72
(
59.0956
56.8082
54.136
51.2418
48.2426
45.2191
42.2272
39.3037
36.4745
33.7573
31.1632
28.6977
26.3643
24.1627
22.0921
20.1501
18.3333
16.6371
15.0576
13.5895
12.2279
10.9679
16.2958
16.2958
14.9203
13.6455
12.4659
11.3756
10.3694
9.4422
8.58915
7.80548
7.08672
6.42856
5.82702
5.27818
4.77837
4.32411
3.91212
3.5393
3.2027
2.89953
2.62719
2.38321
2.16527
1.97123
1.79902
1.64676
1.51267
1.39508
1.29243
1.20328
1.12629
1.06026
1.0039
0.955959
0.915533
0.882729
0.857128
0.838165
0.823767
0.81108
0.799877
0.790249
0.782117
0.775353
0.769583
0.764484
0.760458
0.758075
0.754952
0.746319
)
;
    }
    procBoundary0to5
    {
        type            processor;
        value           nonuniform List<scalar> 4(84.855 106.6 127.152 148.297);
    }
}


// ************************************************************************* //
