/*--------------------------------*- C++ -*----------------------------------*\
| =========                 |                                                 |
| \\      /  F ield         | OpenFOAM: The Open Source CFD Toolbox           |
|  \\    /   O peration     | Version:  2306                                  |
|   \\  /    A nd           | Website:  www.openfoam.com                      |
|    \\/     M anipulation  |                                                 |
\*---------------------------------------------------------------------------*/
FoamFile
{
    version     2.0;
    format      ascii;
    arch        "LSB;label=32;scalar=64";
    class       volSymmTensorField;
    location    "475";
    object      turbulenceProperties:devReff;
}
// * * * * * * * * * * * * * * * * * * * * * * * * * * * * * * * * * * * * * //

dimensions      [0 2 -2 0 0 0 0];

internalField   nonuniform List<symmTensor> 
1340
(
(7.13499e-05 -9.16825e-05 3.42254e-21 -7.13981e-05 7.8091e-22 4.8227e-08)
(5.50562e-05 -0.000103325 5.46839e-20 -5.5019e-05 4.39723e-20 -3.71879e-08)
(3.63548e-05 -0.000111997 -2.21774e-20 -3.63582e-05 -1.6912e-20 3.42212e-09)
(5.99159e-05 -7.84662e-05 1.57864e-20 -5.99626e-05 1.16944e-20 4.66956e-08)
(4.6217e-05 -8.82605e-05 -1.18485e-20 -4.62056e-05 -9.26542e-21 -1.13522e-08)
(3.05104e-05 -9.56213e-05 -3.49252e-20 -3.05365e-05 -2.38011e-20 2.61474e-08)
(1.37921e-05 -9.99053e-05 2.34287e-19 -1.38218e-05 1.7076e-19 2.97146e-08)
(-4.05479e-06 -0.000100972 -5.43302e-20 4.04366e-06 -4.22345e-20 1.11341e-08)
(5.06026e-05 -6.76329e-05 6.68109e-21 -5.0631e-05 5.20132e-21 2.84177e-08)
(3.89807e-05 -7.59226e-05 -2.66077e-20 -3.89653e-05 -1.74506e-20 -1.54506e-08)
(2.56663e-05 -8.21952e-05 -1.17726e-19 -2.56812e-05 -7.83441e-20 1.48986e-08)
(1.15139e-05 -8.59215e-05 -1.09242e-20 -1.1524e-05 -1.14101e-20 1.00622e-08)
(-3.60957e-06 -8.69917e-05 -1.69807e-20 3.61501e-06 -5.95937e-21 -5.43706e-09)
(-1.8717e-05 -8.51813e-05 1.52964e-19 1.87107e-05 9.75393e-20 6.27806e-09)
(-3.30352e-05 -8.05504e-05 2.20256e-20 3.30213e-05 2.39055e-20 1.38153e-08)
(4.29187e-05 -5.86328e-05 -1.49596e-20 -4.29395e-05 -8.01177e-21 2.08591e-08)
(3.29719e-05 -6.56818e-05 -8.91136e-20 -3.2961e-05 -5.6259e-20 -1.09048e-08)
(2.15956e-05 -7.10364e-05 3.55614e-20 -2.16096e-05 2.45512e-20 1.401e-08)
(9.52595e-06 -7.42567e-05 2.63694e-20 -9.53455e-06 1.61775e-20 8.60121e-09)
(-3.38552e-06 -7.52613e-05 1.07484e-19 3.38654e-06 6.66994e-20 -1.0207e-09)
(-1.63123e-05 -7.38626e-05 -1.55641e-19 1.63019e-05 -1.05687e-19 1.03365e-08)
(-2.86166e-05 -7.01011e-05 2.00207e-19 2.8601e-05 1.0151e-19 1.5583e-08)
(-3.99806e-05 -6.40877e-05 -5.18975e-19 3.99723e-05 -2.8804e-19 8.26563e-09)
(3.65441e-05 -5.10848e-05 2.55298e-20 -3.65599e-05 1.5252e-20 1.58582e-08)
(2.79689e-05 -5.71066e-05 2.30678e-20 -2.79587e-05 1.44555e-20 -1.0154e-08)
(1.81819e-05 -6.16882e-05 7.58643e-21 -1.81939e-05 6.03052e-21 1.19764e-08)
(7.81888e-06 -6.44656e-05 -1.28179e-20 -7.82282e-06 -8.18499e-21 3.9368e-09)
(-3.27047e-06 -6.53804e-05 9.67726e-20 3.2749e-06 5.14027e-20 -4.42256e-09)
(-1.43872e-05 -6.42705e-05 -8.30123e-20 1.4381e-05 -4.64439e-20 6.23813e-09)
(-2.50057e-05 -6.11682e-05 -2.5925e-19 2.49967e-05 -1.50085e-19 9.00981e-09)
(-3.48721e-05 -5.61604e-05 2.77051e-19 3.48701e-05 1.90848e-19 1.94596e-09)
(-4.3533e-05 -4.95048e-05 9.18516e-20 4.3522e-05 5.8048e-20 1.10409e-08)
(3.12165e-05 -4.47013e-05 -4.33694e-21 -3.12292e-05 -1.16874e-21 1.2736e-08)
(2.37803e-05 -4.98639e-05 -1.23819e-20 -2.37716e-05 -6.06618e-21 -8.7115e-09)
(1.53087e-05 -5.37897e-05 -4.98411e-20 -1.53204e-05 -2.69216e-20 1.16884e-08)
(6.35604e-06 -5.61804e-05 2.37035e-20 -6.35791e-06 1.04715e-20 1.87122e-09)
(-3.21722e-06 -5.69923e-05 -7.50816e-20 3.22093e-06 -4.4958e-20 -3.70498e-09)
(-1.28242e-05 -5.60833e-05 1.75307e-19 1.28174e-05 1.00628e-19 6.74195e-09)
(-2.20193e-05 -5.3487e-05 -9.97784e-21 2.20117e-05 1.73531e-20 7.56534e-09)
(-3.05968e-05 -4.92753e-05 9.67671e-20 3.05952e-05 1.91616e-20 1.65457e-09)
(-3.8187e-05 -4.36509e-05 7.59293e-20 3.81784e-05 1.93381e-20 8.6006e-09)
(2.6742e-05 -3.92631e-05 -5.32092e-20 -2.67503e-05 -2.9189e-20 8.30208e-09)
(2.02599e-05 -4.37007e-05 8.14322e-20 -2.02526e-05 4.31468e-20 -7.34754e-09)
(1.28857e-05 -4.70718e-05 -6.08402e-20 -1.28962e-05 -3.06311e-20 1.0568e-08)
(5.11563e-06 -4.91277e-05 3.4547e-20 -5.11472e-06 1.27438e-20 -9.1702e-10)
(-3.18788e-06 -4.98329e-05 -2.02124e-19 3.1909e-06 -9.95971e-20 -3.02317e-09)
(-1.15249e-05 -4.90694e-05 1.10937e-19 1.15211e-05 5.0064e-20 3.82524e-09)
(-1.95156e-05 -4.68685e-05 2.7429e-19 1.9511e-05 1.28504e-19 4.64702e-09)
(-2.69944e-05 -4.32899e-05 -3.89511e-19 2.69935e-05 -1.99842e-19 8.90467e-10)
(-3.36517e-05 -3.85001e-05 -1.9116e-19 3.36468e-05 -8.45518e-20 4.946e-09)
(-3.92973e-05 -3.26538e-05 1.60871e-19 3.92931e-05 6.56881e-20 4.19986e-09)
(2.29635e-05 -3.46001e-05 2.71282e-20 -2.29686e-05 1.3072e-20 5.12321e-09)
(1.72863e-05 -3.84229e-05 1.41075e-20 -1.72816e-05 8.01375e-21 -4.68413e-09)
(1.08384e-05 -4.13238e-05 4.01734e-20 -1.08469e-05 2.01794e-20 8.46326e-09)
(4.06486e-06 -4.30879e-05 -1.16341e-19 -4.06432e-06 -5.74316e-20 -5.41529e-10)
(-3.16933e-06 -4.369e-05 2.19144e-19 3.17231e-06 1.09935e-19 -2.98702e-09)
(-1.04323e-05 -4.30314e-05 -4.1431e-19 1.04285e-05 -1.98046e-19 3.73716e-09)
(-1.73949e-05 -4.11437e-05 -1.719e-19 1.73917e-05 -8.10945e-20 3.13159e-09)
(-2.39299e-05 -3.80735e-05 2.20006e-19 2.39294e-05 1.28508e-19 5.41476e-10)
(-2.97747e-05 -3.39628e-05 1.12784e-19 2.97699e-05 5.57807e-20 4.87215e-09)
(-3.47662e-05 -2.89434e-05 -1.04812e-19 3.4762e-05 -6.40741e-20 4.1339e-09)
(-3.87886e-05 -2.3148e-05 -2.93673e-20 3.87854e-05 -1.17986e-20 3.22062e-09)
(1.97622e-05 -3.05752e-05 -2.85202e-20 -1.97659e-05 -1.25287e-20 3.68063e-09)
(1.47671e-05 -3.3878e-05 -2.16819e-20 -1.4763e-05 -1.1296e-20 -4.08037e-09)
(9.1093e-06 -3.63775e-05 6.99472e-20 -9.11699e-06 3.30585e-20 7.68963e-09)
(3.17896e-06 -3.78883e-05 1.71689e-20 -3.17765e-06 8.78329e-21 -1.3055e-09)
(-3.14648e-06 -3.83958e-05 1.00917e-19 3.149e-06 4.63577e-20 -2.51902e-09)
(-9.49381e-06 -3.7814e-05 5.86396e-19 9.49074e-06 2.85062e-19 3.07151e-09)
(-1.55806e-05 -3.61756e-05 1.01156e-19 1.55774e-05 4.62053e-20 3.21578e-09)
(-2.13012e-05 -3.35211e-05 9.82371e-20 2.13014e-05 2.90594e-20 -2.35017e-10)
(-2.64347e-05 -2.99731e-05 -7.98659e-20 2.64317e-05 -3.72766e-20 3.01853e-09)
(-3.085e-05 -2.56362e-05 -6.98655e-20 3.08469e-05 -2.53963e-20 3.06796e-09)
(-3.44479e-05 -2.0622e-05 -6.05397e-20 3.4446e-05 -2.37106e-20 1.90526e-09)
(1.70363e-05 -2.7085e-05 2.32691e-20 -1.70393e-05 9.41382e-21 2.963e-09)
(1.2627e-05 -2.9946e-05 7.51255e-20 -1.26228e-05 3.37031e-20 -4.23551e-09)
(7.64444e-06 -3.20996e-05 7.86601e-20 -7.65216e-06 3.52309e-20 7.72534e-09)
(2.43461e-06 -3.33936e-05 -1.17182e-19 -2.43235e-06 -5.49563e-20 -2.25273e-09)
(-3.11364e-06 -3.38137e-05 -1.96099e-19 3.1158e-06 -9.25823e-20 -2.15562e-09)
(-8.67719e-06 -3.3291e-05 -1.29711e-19 8.67488e-06 -7.3747e-20 2.30642e-09)
(-1.40117e-05 -3.1854e-05 -1.34967e-19 1.40097e-05 -5.7273e-20 1.97066e-09)
(-1.90313e-05 -2.95412e-05 -7.79328e-20 1.90318e-05 -4.15032e-20 -4.31069e-10)
(-2.35467e-05 -2.64576e-05 1.28967e-19 2.3544e-05 6.01364e-20 2.72753e-09)
(-2.74486e-05 -2.26922e-05 -5.89788e-21 2.74466e-05 -2.99687e-21 2.02539e-09)
(-3.06565e-05 -1.83353e-05 2.45722e-20 3.06543e-05 1.25114e-20 2.20683e-09)
(-3.30761e-05 -1.35148e-05 -6.71775e-20 3.30731e-05 -3.07097e-20 2.96481e-09)
(1.47076e-05 -2.40461e-05 -8.81838e-21 -1.47092e-05 -2.8803e-21 1.55116e-09)
(1.0804e-05 -2.65271e-05 -7.16642e-20 -1.08012e-05 -3.12686e-20 -2.80339e-09)
(6.40237e-06 -2.83856e-05 -8.16793e-20 -6.40898e-06 -3.65975e-20 6.60989e-09)
(1.81173e-06 -2.9491e-05 -1.60247e-20 -1.80962e-06 -4.09382e-21 -2.11333e-09)
(-3.0695e-06 -2.98339e-05 6.25934e-20 3.07157e-06 2.75289e-20 -2.06588e-09)
(-7.95939e-06 -2.9355e-05 -4.89655e-20 7.95692e-06 -1.955e-20 2.46896e-09)
(-1.26462e-05 -2.80841e-05 2.28627e-19 1.2645e-05 1.01215e-19 1.18721e-09)
(-1.70567e-05 -2.60557e-05 -1.76092e-19 1.70571e-05 -7.23027e-20 -4.49298e-10)
(-2.10311e-05 -2.33612e-05 -2.33688e-20 2.10291e-05 -1.62094e-20 2.02147e-09)
(-2.44788e-05 -2.00767e-05 -6.43672e-20 2.44778e-05 -1.13804e-20 1.07784e-09)
(-2.7334e-05 -1.6277e-05 6.71917e-20 2.73335e-05 4.65177e-21 5.62457e-10)
(-2.95169e-05 -1.20687e-05 -1.21633e-19 2.95158e-05 -2.69797e-20 1.04411e-09)
(1.27137e-05 -2.13889e-05 -4.42608e-20 -1.27144e-05 -1.8197e-20 6.84964e-10)
(9.24815e-06 -2.35434e-05 3.88169e-20 -9.24552e-06 1.54236e-20 -2.62401e-09)
(5.34887e-06 -2.51479e-05 -1.33182e-20 -5.35523e-06 -5.11719e-21 6.36545e-09)
(1.29257e-06 -2.60909e-05 -2.95302e-20 -1.29012e-06 -1.05859e-20 -2.44773e-09)
(-3.01252e-06 -2.63651e-05 -9.81432e-20 3.01391e-06 -4.1862e-20 -1.39297e-09)
(-7.32093e-06 -2.59206e-05 -7.79297e-20 7.31879e-06 -2.87355e-20 2.13543e-09)
(-1.14465e-05 -2.4788e-05 1.00878e-19 1.14455e-05 3.98594e-20 9.77651e-10)
(-1.53295e-05 -2.29977e-05 5.06106e-20 1.53296e-05 2.60421e-20 -6.82635e-11)
(-1.88326e-05 -2.06301e-05 -8.17717e-20 1.88303e-05 -3.09433e-20 2.2421e-09)
(-2.18797e-05 -1.77518e-05 2.83405e-19 2.18783e-05 1.08832e-19 1.31855e-09)
(-2.44173e-05 -1.4425e-05 -3.58045e-19 2.44165e-05 -1.35277e-19 8.1544e-10)
(-2.6379e-05 -1.07376e-05 3.65671e-19 2.63773e-05 1.34152e-19 1.69039e-09)
(-2.77123e-05 -6.77021e-06 -3.16146e-19 2.77109e-05 -7.72913e-20 1.45813e-09)
(1.10007e-05 -1.90569e-05 -2.93134e-21 -1.10007e-05 -1.1843e-21 5.68442e-11)
(7.91695e-06 -2.09309e-05 -5.43628e-20 -7.91484e-06 -2.116e-20 -2.10498e-09)
(4.45505e-06 -2.23158e-05 1.01715e-20 -4.46081e-06 4.79357e-21 5.76343e-09)
(8.6304e-07 -2.3119e-05 4.28521e-20 -8.60224e-07 1.79169e-20 -2.81503e-09)
(-2.94321e-06 -2.33328e-05 3.75211e-20 2.94444e-06 1.65913e-20 -1.22373e-09)
(-6.74752e-06 -2.29166e-05 1.26824e-19 6.74576e-06 5.42723e-20 1.76459e-09)
(-1.03851e-05 -2.19009e-05 1.98065e-19 1.03845e-05 6.87975e-20 5.74524e-10)
(-1.38082e-05 -2.03121e-05 8.7916e-20 1.38089e-05 2.68178e-20 -7.01163e-10)
(-1.68985e-05 -1.82225e-05 -1.12075e-19 1.68971e-05 -3.17253e-20 1.39416e-09)
(-1.9592e-05 -1.56896e-05 -4.67912e-21 1.95911e-05 -1.61798e-20 9.14678e-10)
(-2.18452e-05 -1.27662e-05 1.61476e-20 2.18445e-05 3.72833e-20 7.58981e-10)
(-2.36011e-05 -9.52853e-06 -8.92352e-20 2.36001e-05 -5.68121e-20 1.0117e-09)
(-2.4818e-05 -6.03804e-06 3.1664e-19 2.48166e-05 1.28424e-19 1.43484e-09)
(9.52662e-06 -1.70041e-05 1.19227e-20 -9.5261e-06 5.16598e-21 -5.25005e-10)
(6.77673e-06 -1.86352e-05 -9.21166e-20 -6.77513e-06 -3.39135e-20 -1.6011e-09)
(3.69514e-06 -1.98315e-05 9.27233e-20 -3.70042e-06 3.49415e-20 5.28574e-09)
(5.08376e-07 -2.05137e-05 -5.28577e-20 -5.05839e-07 -2.07085e-20 -2.53715e-09)
(-2.86371e-06 -2.06749e-05 -4.98119e-20 2.86466e-06 -1.95139e-20 -9.50961e-10)
(-6.22866e-06 -2.02828e-05 1.38083e-19 6.22719e-06 4.90668e-20 1.47126e-09)
(-9.44257e-06 -1.93655e-05 -1.82365e-19 9.44188e-06 -8.0841e-20 6.9146e-10)
(-1.24646e-05 -1.79488e-05 -5.38393e-20 1.24651e-05 -1.92209e-20 -4.62263e-10)
(-1.51925e-05 -1.60967e-05 2.86166e-19 1.51913e-05 9.74209e-20 1.16115e-09)
(-1.75734e-05 -1.386e-05 -1.09058e-19 1.75731e-05 -4.11316e-20 3.31687e-10)
(-1.95718e-05 -1.12834e-05 3.77246e-19 1.95718e-05 1.12809e-19 -2.27046e-11)
(-2.11407e-05 -8.43131e-06 -2.03476e-19 2.11399e-05 -6.10437e-20 7.64074e-10)
(-2.22433e-05 -5.35542e-06 3.10779e-20 2.22428e-05 -3.29562e-20 4.22142e-10)
(-2.28466e-05 -2.1179e-06 4.68021e-20 2.28462e-05 1.31761e-20 3.79772e-10)
(8.25504e-06 -1.5192e-05 3.81025e-20 -8.25451e-06 1.40697e-20 -5.22871e-10)
(5.79847e-06 -1.66127e-05 -5.20107e-20 -5.79721e-06 -1.78939e-20 -1.2541e-09)
(3.05112e-06 -1.76463e-05 -1.23289e-20 -3.0555e-06 -5.3222e-21 4.37991e-09)
(2.18281e-07 -1.82236e-05 -8.66018e-20 -2.16317e-07 -3.24411e-20 -1.96451e-09)
(-2.77484e-06 -1.83398e-05 -1.33419e-19 2.77584e-06 -4.47967e-20 -1.00215e-09)
(-5.75631e-06 -1.79682e-05 1.27145e-19 5.75466e-06 3.76268e-20 1.65159e-09)
(-8.59938e-06 -1.71364e-05 -2.2412e-19 8.59903e-06 -7.46893e-20 3.47892e-10)
(-1.12706e-05 -1.58673e-05 -1.05107e-19 1.12708e-05 -3.70561e-20 -1.99481e-10)
(-1.36816e-05 -1.42188e-05 -2.91366e-19 1.36804e-05 -1.04462e-19 1.21255e-09)
(-1.57868e-05 -1.2236e-05 -7.95604e-20 1.57861e-05 -3.15849e-20 7.52246e-10)
(-1.75579e-05 -9.95818e-06 -3.80091e-19 1.75575e-05 -1.46187e-19 4.38886e-10)
(-1.89546e-05 -7.44043e-06 9.83217e-20 1.89539e-05 5.03022e-20 7.41394e-10)
(-1.99483e-05 -4.72533e-06 -5.26569e-19 1.99481e-05 -1.46557e-19 2.24825e-10)
(-2.051e-05 -1.86358e-06 9.24509e-20 2.05101e-05 4.93313e-20 -1.22719e-10)
(7.15633e-06 -1.35884e-05 -2.75922e-20 -7.15562e-06 -9.33768e-21 -7.15839e-10)
(4.95804e-06 -1.48266e-05 5.64726e-20 -4.95697e-06 2.04907e-20 -1.07676e-09)
(2.5054e-06 -1.57193e-05 9.99507e-21 -2.50933e-06 2.89179e-21 3.93243e-09)
(-1.74014e-08 -1.62062e-05 -1.83128e-19 1.94846e-08 -6.1214e-20 -2.08323e-09)
(-2.67779e-06 -1.62842e-05 2.06296e-19 2.67874e-06 7.20245e-20 -9.47481e-10)
(-5.32331e-06 -1.59308e-05 -2.86756e-19 5.32207e-06 -1.0372e-19 1.24036e-09)
(-7.84231e-06 -1.5173e-05 2.48315e-19 7.84201e-06 9.06414e-20 3.01503e-10)
(-1.0206e-05 -1.4032e-05 -4.19512e-20 1.02065e-05 -1.03814e-20 -5.21311e-10)
(-1.23374e-05 -1.25603e-05 2.2132e-19 1.23364e-05 8.22219e-20 1.00164e-09)
(-1.41989e-05 -1.0798e-05 -1.68197e-19 1.41987e-05 -5.68508e-20 1.42168e-10)
(-1.57676e-05 -8.77864e-06 -1.41911e-19 1.57675e-05 -1.50774e-20 1.10214e-10)
(-1.70103e-05 -6.54876e-06 2.45507e-19 1.70096e-05 8.20705e-20 7.16249e-10)
(-1.79018e-05 -4.1471e-06 4.25597e-19 1.79014e-05 1.5224e-19 4.47969e-10)
(-1.84178e-05 -1.61366e-06 2.91011e-19 1.84179e-05 7.2225e-20 -2.40772e-11)
(6.20555e-06 -1.21663e-05 2.74798e-20 -6.20454e-06 9.09102e-21 -1.01224e-09)
(4.23543e-06 -1.32459e-05 -2.77349e-20 -4.23462e-06 -8.41554e-21 -8.05916e-10)
(2.04285e-06 -1.40161e-05 1.7847e-20 -2.04655e-06 6.03836e-21 3.70122e-09)
(-2.07493e-07 -1.44254e-05 1.26174e-20 2.09447e-07 7.06215e-21 -1.95376e-09)
(-2.57547e-06 -1.44705e-05 -1.39422e-19 2.57614e-06 -4.94504e-20 -6.68874e-10)
(-4.92584e-06 -1.4134e-05 -1.59729e-19 4.92457e-06 -4.74242e-20 1.27175e-09)
(-7.16014e-06 -1.34409e-05 -1.16073e-19 7.15994e-06 -3.95775e-20 2.04479e-10)
(-9.25344e-06 -1.24121e-05 -3.51588e-20 9.25372e-06 -4.56501e-21 -2.77336e-10)
(-1.11396e-05 -1.10934e-05 1.07288e-20 1.11386e-05 3.97556e-21 9.96268e-10)
(-1.27861e-05 -9.52228e-06 -2.70856e-21 1.27857e-05 5.68826e-21 4.14958e-10)
(-1.41741e-05 -7.7278e-06 2.72871e-19 1.41739e-05 8.67218e-20 2.27517e-10)
(-1.52766e-05 -5.75051e-06 5.07482e-20 1.52765e-05 -4.97515e-21 3.04931e-11)
(-1.60732e-05 -3.62193e-06 -1.01328e-19 1.60728e-05 -4.44353e-20 4.19774e-10)
(-1.65428e-05 -1.37634e-06 -7.56312e-20 1.65431e-05 -3.7823e-20 -3.18337e-10)
(-1.66653e-05 9.38583e-07 -4.11083e-19 1.6665e-05 -1.02546e-19 3.0184e-10)
(5.38188e-06 -1.09023e-05 3.70244e-20 -5.38087e-06 1.18443e-20 -1.01836e-09)
(3.61421e-06 -1.18442e-05 8.65453e-20 -3.6134e-06 2.83543e-20 -8.16723e-10)
(1.65153e-06 -1.25081e-05 -1.32157e-19 -1.65502e-06 -4.12235e-20 3.48566e-09)
(-3.57901e-07 -1.28504e-05 1.91652e-19 3.59835e-07 6.33982e-20 -1.93417e-09)
(-2.46843e-06 -1.28681e-05 3.22418e-20 2.46903e-06 1.27941e-20 -6.06609e-10)
(-4.55897e-06 -1.2547e-05 2.46488e-19 4.55769e-06 8.36296e-20 1.28805e-09)
(-6.54268e-06 -1.19116e-05 1.8939e-19 6.54277e-06 5.78698e-20 -9.42359e-11)
(-8.3979e-06 -1.09812e-05 1.47976e-19 8.39812e-06 5.07624e-20 -2.18229e-10)
(-1.00677e-05 -9.79689e-06 2.25969e-19 1.00672e-05 6.16727e-20 5.61582e-10)
(-1.15239e-05 -8.39286e-06 -9.89244e-20 1.15237e-05 -3.3012e-20 2.43533e-10)
(-1.27521e-05 -6.79387e-06 -1.19909e-19 1.27521e-05 -5.10704e-20 1.03515e-11)
(-1.37294e-05 -5.03582e-06 -1.58625e-19 1.37291e-05 -4.62672e-20 3.54533e-10)
(-1.44382e-05 -3.14627e-06 1.9361e-19 1.44381e-05 5.08793e-20 5.22677e-11)
(-1.48623e-05 -1.15364e-06 7.18807e-20 1.48624e-05 1.54606e-20 -1.73337e-10)
(-1.49832e-05 9.02992e-07 1.49679e-19 1.49828e-05 6.97209e-20 3.91378e-10)
(4.66742e-06 -9.77692e-06 -7.04591e-20 -4.66644e-06 -2.15307e-20 -9.80225e-10)
(3.07987e-06 -1.05989e-05 -7.22276e-21 -3.07909e-06 -2.33967e-21 -7.79533e-10)
(1.32076e-06 -1.11704e-05 2.18355e-19 -1.32396e-06 6.87343e-20 3.20476e-09)
(-4.75509e-07 -1.14552e-05 -4.45757e-21 4.7734e-07 -2.96429e-21 -1.83176e-09)
(-2.35822e-06 -1.14501e-05 -9.68933e-20 2.35886e-06 -2.92992e-20 -6.48067e-10)
(-4.22009e-06 -1.11435e-05 -3.01543e-20 4.21893e-06 -1.61114e-20 1.15782e-09)
(-5.98283e-06 -1.05598e-05 -2.41767e-19 5.98288e-06 -7.80006e-20 -5.34497e-11)
(-7.62833e-06 -9.71578e-06 6.43537e-20 7.62845e-06 2.16736e-20 -1.29759e-10)
(-9.10732e-06 -8.64964e-06 -2.86767e-19 9.10679e-06 -8.7229e-20 5.26627e-10)
(-1.03956e-05 -7.39156e-06 6.38127e-20 1.03953e-05 1.61174e-20 2.93829e-10)
(-1.14813e-05 -5.96454e-06 -1.20891e-19 1.14811e-05 -2.86094e-20 1.83997e-10)
(-1.23454e-05 -4.39898e-06 -2.38864e-20 1.23453e-05 -3.66764e-22 9.76295e-11)
(-1.29746e-05 -2.71876e-06 -2.50551e-19 1.29744e-05 -8.6902e-20 1.67771e-10)
(-1.33542e-05 -9.48423e-07 -1.30728e-19 1.33542e-05 -2.64805e-20 -7.62373e-11)
(-1.34688e-05 8.79092e-07 1.55138e-19 1.34688e-05 2.49762e-20 -2.2055e-11)
(4.04719e-06 -8.7737e-06 1.3802e-20 -4.04603e-06 4.28028e-21 -1.16058e-09)
(2.62001e-06 -9.49058e-06 -8.84567e-20 -2.61951e-06 -2.66972e-20 -5.08115e-10)
(1.04186e-06 -9.98221e-06 -1.4e-19 -1.04469e-06 -4.36582e-20 2.8226e-09)
(-5.65594e-07 -1.02174e-05 -2.92457e-20 5.67234e-07 -7.28038e-21 -1.63954e-09)
(-2.24684e-06 -1.01932e-05 1.34327e-19 2.24716e-06 4.045e-20 -3.18984e-10)
(-3.906e-06 -9.90088e-06 -1.55503e-19 3.90505e-06 -4.56642e-20 9.48665e-10)
(-5.4734e-06 -9.3635e-06 -1.5187e-20 5.47331e-06 5.09746e-21 9.36177e-11)
(-6.9341e-06 -8.59615e-06 2.79871e-19 6.93418e-06 7.57266e-20 -8.14183e-11)
(-8.24397e-06 -7.63468e-06 2.03111e-19 8.2433e-06 6.23337e-20 6.70691e-10)
(-9.38359e-06 -6.50524e-06 -2.5126e-19 9.38344e-06 -7.45681e-20 1.43247e-10)
(-1.03429e-05 -5.22889e-06 9.78188e-20 1.03426e-05 4.15856e-20 3.52679e-10)
(-1.11064e-05 -3.83219e-06 6.04249e-20 1.11063e-05 1.7941e-20 1.33425e-10)
(-1.16629e-05 -2.33661e-06 -1.90407e-19 1.16627e-05 -2.9549e-20 1.93832e-10)
(-1.20005e-05 -7.61255e-07 1.96469e-19 1.20007e-05 5.38101e-20 -1.71111e-10)
(-1.21064e-05 8.64736e-07 -1.69195e-19 1.21062e-05 -5.57898e-20 2.52365e-10)
(-1.19678e-05 2.51398e-06 1.5128e-19 1.19682e-05 4.60388e-20 -3.65988e-10)
(3.50846e-06 -7.87783e-06 6.66568e-21 -3.50735e-06 1.97954e-21 -1.10416e-09)
(2.22434e-06 -8.50295e-06 1.84914e-21 -2.22387e-06 8.90801e-22 -4.67099e-10)
(8.07391e-07 -8.92518e-06 -4.52378e-20 -8.0997e-07 -1.27228e-20 2.57939e-09)
(-6.31963e-07 -9.1179e-06 3.88988e-20 6.3356e-07 1.21089e-20 -1.597e-09)
(-2.13453e-06 -9.0781e-06 -9.66515e-20 2.13488e-06 -2.68682e-20 -3.50329e-10)
(-3.61426e-06 -8.79971e-06 2.07439e-19 3.61342e-06 6.24809e-20 8.47131e-10)
(-5.00892e-06 -8.30411e-06 1.33798e-19 5.00898e-06 3.00801e-20 -5.43938e-11)
(-6.30608e-06 -7.60551e-06 -4.67463e-19 6.30626e-06 -1.41127e-19 -1.79948e-10)
(-7.46678e-06 -6.73657e-06 4.84464e-20 7.46621e-06 1.90785e-20 5.61746e-10)
(-8.47486e-06 -5.72098e-06 1.81803e-20 8.4748e-06 1.05932e-20 5.84571e-11)
(-9.32212e-06 -4.57731e-06 2.40593e-19 9.32205e-06 5.91002e-20 7.18631e-11)
(-9.99564e-06 -3.3299e-06 1.57538e-19 9.99553e-06 2.717e-20 1.15013e-10)
(-1.04865e-05 -1.99574e-06 2.88929e-19 1.04864e-05 8.68187e-20 6.91694e-11)
(-1.07849e-05 -5.93247e-07 -8.78248e-20 1.07851e-05 -2.63942e-20 -1.90768e-10)
(-1.08798e-05 8.54098e-07 -9.94723e-20 1.08798e-05 -1.67542e-20 -1.48084e-11)
(-1.07609e-05 2.32274e-06 2.21932e-19 1.07613e-05 4.38991e-20 -3.61696e-10)
(3.04025e-06 -7.07677e-06 1.98103e-20 -3.03917e-06 5.49864e-21 -1.08079e-09)
(1.88396e-06 -7.62185e-06 1.2042e-19 -1.88352e-06 3.41603e-20 -4.32871e-10)
(6.10852e-07 -7.9837e-06 8.06135e-21 -6.13198e-07 3.05829e-21 2.34599e-09)
(-6.79144e-07 -8.14003e-06 1.12352e-19 6.80586e-07 3.29412e-20 -1.442e-09)
(-2.023e-06 -8.08783e-06 2.26253e-20 2.02335e-06 5.68584e-21 -3.47218e-10)
(-3.34338e-06 -7.82277e-06 -1.05289e-19 3.34256e-06 -3.43558e-20 8.24253e-10)
(-4.5851e-06 -7.36515e-06 -2.29009e-19 4.58519e-06 -6.64329e-20 -8.97845e-11)
(-5.73733e-06 -6.72827e-06 -2.26494e-20 5.73757e-06 8.11249e-21 -2.44137e-10)
(-6.7662e-06 -5.94154e-06 1.88739e-19 6.76573e-06 5.34768e-20 4.619e-10)
(-7.65758e-06 -5.02697e-06 -1.04942e-19 7.65755e-06 -2.97886e-20 3.35654e-11)
(-8.40542e-06 -4.00071e-06 -1.72397e-19 8.40534e-06 -5.49813e-20 7.78532e-11)
(-8.99875e-06 -2.88455e-06 -3.81071e-19 8.99862e-06 -9.99253e-20 1.29662e-10)
(-9.43037e-06 -1.69382e-06 2.1069e-19 9.43029e-06 4.72385e-20 7.97192e-11)
(-9.6925e-06 -4.43488e-07 2.24815e-19 9.6926e-06 4.54151e-20 -1.02297e-10)
(-9.77594e-06 8.46022e-07 -5.90154e-20 9.77597e-06 -1.35023e-20 -2.63101e-11)
(-9.67177e-06 2.15435e-06 -3.93677e-20 9.67192e-06 -7.43452e-21 -1.51989e-10)
(3.48941e-06 -5.79247e-06 -3.19795e-21 -3.48992e-06 -1.12044e-21 5.09987e-10)
(2.63314e-06 -6.35983e-06 6.98226e-21 -2.63207e-06 1.98819e-21 -1.07388e-09)
(1.59128e-06 -6.83476e-06 -7.09953e-20 -1.59094e-06 -1.9764e-20 -3.37328e-10)
(4.46651e-07 -7.14427e-06 -5.27297e-20 -4.48778e-07 -1.39241e-20 2.12652e-09)
(-7.10103e-07 -7.26946e-06 1.35189e-19 7.11421e-07 3.59325e-20 -1.31868e-09)
(-1.91268e-06 -7.20744e-06 -2.08048e-19 1.91294e-06 -5.66887e-20 -2.52358e-10)
(-3.0917e-06 -6.95533e-06 6.31273e-21 3.09089e-06 4.43157e-21 8.06807e-10)
(-4.19781e-06 -6.53235e-06 -5.42172e-20 4.19779e-06 -7.03963e-21 1.97968e-11)
(-5.22165e-06 -5.9509e-06 1.41648e-19 5.22171e-06 3.73788e-20 -6.57648e-11)
(-6.13355e-06 -5.23769e-06 1.11978e-19 6.13299e-06 2.66118e-20 5.62027e-10)
(-6.92157e-06 -4.41298e-06 1.30018e-19 6.92146e-06 3.71399e-20 1.14151e-10)
(-7.5811e-06 -3.49097e-06 7.4334e-21 7.581e-06 6.67338e-22 9.90604e-11)
(-8.10289e-06 -2.4915e-06 1.1547e-20 8.10279e-06 1.5335e-20 1.00932e-10)
(-8.48154e-06 -1.42732e-06 -3.71671e-20 8.48158e-06 -1.84723e-20 -4.18473e-11)
(-8.71054e-06 -3.11603e-07 -2.58036e-19 8.71068e-06 -6.43006e-20 -1.41298e-10)
(-8.78217e-06 8.37747e-07 -1.04514e-20 8.78223e-06 9.40246e-21 -5.35239e-11)
(-8.68889e-06 2.00356e-06 2.50154e-19 8.68914e-06 4.85937e-20 -2.47419e-10)
(-8.42517e-06 3.1627e-06 2.61952e-20 8.42518e-06 -4.96472e-21 -7.94986e-12)
(3.05275e-06 -5.21864e-06 9.00403e-21 -3.05324e-06 2.39193e-21 4.89514e-10)
(2.27906e-06 -5.71742e-06 -4.69899e-20 -2.27808e-06 -1.23854e-20 -9.84993e-10)
(1.3398e-06 -6.13097e-06 -5.76955e-20 -1.3395e-06 -1.51648e-20 -3.02409e-10)
(3.10209e-07 -6.39508e-06 4.54932e-20 -3.12124e-07 1.25748e-20 1.91475e-09)
(-7.27641e-07 -6.49374e-06 -9.01141e-20 7.28838e-07 -2.3958e-20 -1.19785e-09)
(-1.80425e-06 -6.42417e-06 1.39543e-19 1.80451e-06 3.98307e-20 -2.53395e-10)
(-2.85731e-06 -6.18484e-06 8.31166e-20 2.85663e-06 2.34719e-20 6.79403e-10)
(-3.84287e-06 -5.79373e-06 2.43229e-19 3.843e-06 6.38932e-20 -1.23892e-10)
(-4.75284e-06 -5.26235e-06 -2.07199e-19 4.75287e-06 -5.77593e-20 -2.83805e-11)
(-5.56123e-06 -4.61507e-06 -1.37249e-20 5.56085e-06 -4.45941e-21 3.8005e-10)
(-6.25787e-06 -3.87045e-06 1.00058e-19 6.25772e-06 1.60512e-20 1.47658e-10)
(-6.8392e-06 -3.04092e-06 -2.11829e-19 6.83913e-06 -4.9106e-20 7.02477e-11)
(-7.29768e-06 -2.14447e-06 2.88213e-20 7.29742e-06 9.0955e-21 2.53727e-10)
(-7.62883e-06 -1.19257e-06 9.6594e-21 7.62868e-06 6.34614e-21 1.53622e-10)
(-7.82745e-06 -1.96524e-07 1.59229e-19 7.82762e-06 4.26834e-20 -1.74961e-10)
(-7.88763e-06 8.28259e-07 1.36782e-19 7.88762e-06 1.7312e-20 7.43198e-12)
(-7.80253e-06 1.86781e-06 -2.41261e-19 7.8028e-06 -5.83876e-20 -2.65563e-10)
(-7.56786e-06 2.90124e-06 -1.34227e-19 7.56795e-06 -1.42822e-20 -9.16227e-11)
(2.67046e-06 -4.70286e-06 -2.28968e-21 -2.67098e-06 -1.12997e-21 5.18171e-10)
(1.97111e-06 -5.14126e-06 4.38078e-21 -1.97017e-06 1.12633e-21 -9.4343e-10)
(1.1239e-06 -5.50114e-06 2.04088e-20 -1.12361e-06 5.80205e-21 -2.9178e-10)
(1.97454e-07 -5.72587e-06 1.52844e-19 -1.99198e-07 3.99975e-20 1.7439e-09)
(-7.34233e-07 -5.80197e-06 4.17573e-20 7.35349e-07 1.05652e-20 -1.11579e-09)
(-1.69848e-06 -5.72683e-06 5.94628e-20 1.6987e-06 1.27963e-20 -2.17948e-10)
(-2.6395e-06 -5.49983e-06 -3.43537e-20 2.63887e-06 -1.02586e-20 6.25737e-10)
(-3.51786e-06 -5.13808e-06 4.02406e-20 3.51797e-06 1.36383e-20 -1.03054e-10)
(-4.3266e-06 -4.65208e-06 9.925e-21 4.32671e-06 5.16134e-21 -1.08742e-10)
(-5.04328e-06 -4.06415e-06 -6.46868e-20 5.04294e-06 -1.99302e-20 3.33371e-10)
(-5.65882e-06 -3.39106e-06 -1.90308e-19 5.65873e-06 -4.74763e-20 8.8947e-11)
(-6.17066e-06 -2.6444e-06 1.8459e-19 6.17066e-06 5.38803e-20 -8.29639e-13)
(-6.57275e-06 -1.83994e-06 -2.38867e-20 6.57276e-06 -3.97233e-21 -7.33524e-12)
(-6.86174e-06 -9.87613e-07 9.80734e-20 6.86172e-06 1.54083e-20 1.49782e-11)
(-7.0333e-06 -9.71186e-08 -1.31181e-19 7.0334e-06 -3.59606e-20 -1.00315e-10)
(-7.08241e-06 8.17277e-07 -2.73666e-19 7.08237e-06 -7.00959e-20 3.32056e-11)
(-7.00355e-06 1.74417e-06 1.64778e-19 7.00379e-06 4.68499e-20 -2.41841e-10)
(-6.79318e-06 2.66557e-06 3.21621e-19 6.79312e-06 6.54367e-20 5.6929e-11)
(2.33563e-06 -4.23891e-06 -4.57873e-21 -2.33613e-06 -8.46034e-22 5.03371e-10)
(1.70321e-06 -4.62417e-06 4.40535e-20 -1.70235e-06 1.11032e-20 -8.63966e-10)
(9.38762e-07 -4.93705e-06 3.60492e-20 -9.38487e-07 9.14305e-21 -2.75164e-10)
(1.04775e-07 -5.1276e-06 -7.22171e-20 -1.06398e-07 -1.85985e-20 1.62309e-09)
(-7.319e-07 -5.18466e-06 -8.96723e-20 7.32941e-07 -2.39767e-20 -1.04099e-09)
(-1.59579e-06 -5.10555e-06 -1.9758e-19 1.59593e-06 -4.88306e-20 -1.38344e-10)
(-2.43693e-06 -4.89058e-06 -6.0348e-20 2.4363e-06 -1.04401e-20 6.25005e-10)
(-3.21988e-06 -4.55585e-06 4.86692e-19 3.21991e-06 1.19838e-19 -2.76207e-11)
(-3.93887e-06 -4.11107e-06 4.79509e-20 3.9389e-06 4.03358e-21 -3.08144e-11)
(-4.57397e-06 -3.57661e-06 -6.66986e-20 4.57361e-06 -1.72199e-20 3.58605e-10)
(-5.11765e-06 -2.96772e-06 -3.82824e-20 5.11759e-06 -1.57592e-21 6.62464e-11)
(-5.56818e-06 -2.29474e-06 1.10977e-19 5.56808e-06 1.80354e-20 1.00072e-10)
(-5.92039e-06 -1.57202e-06 9.56e-20 5.92021e-06 1.99824e-20 1.8056e-10)
(-6.17158e-06 -8.08537e-07 -1.81465e-19 6.17155e-06 -4.81037e-20 3.35427e-11)
(-6.3186e-06 -1.26943e-08 6.72248e-20 6.31881e-06 1.78998e-20 -2.09573e-10)
(-6.3575e-06 8.03727e-07 -1.89339e-19 6.35752e-06 -3.07316e-20 -2.12286e-11)
(-6.28354e-06 1.63037e-06 -5.23522e-20 6.28382e-06 -5.65786e-21 -2.7744e-10)
(-6.09373e-06 2.45173e-06 -1.71626e-19 6.09376e-06 -3.26137e-20 -3.91732e-11)
(-5.7852e-06 3.25294e-06 1.60351e-19 5.78544e-06 4.40576e-21 -2.44165e-10)
(2.04231e-06 -3.82133e-06 -1.20169e-20 -2.04277e-06 -2.94435e-21 4.62881e-10)
(1.47023e-06 -4.15973e-06 -2.64831e-20 -1.46943e-06 -6.45634e-21 -7.96811e-10)
(7.80269e-07 -4.43148e-06 4.97936e-20 -7.79994e-07 1.22415e-20 -2.7443e-10)
(2.9331e-08 -4.59246e-06 5.18091e-20 -3.07871e-08 1.32381e-20 1.45609e-09)
(-7.22238e-07 -4.63345e-06 9.20358e-20 7.2321e-07 2.28919e-20 -9.71536e-10)
(-1.4964e-06 -4.55183e-06 1.97093e-19 1.49655e-06 5.07803e-20 -1.50746e-10)
(-2.24823e-06 -4.3487e-06 3.82257e-20 2.24772e-06 3.00908e-21 5.13302e-10)
(-2.94638e-06 -4.03897e-06 -1.36562e-19 2.94655e-06 -4.00619e-20 -1.64863e-10)
(-3.58553e-06 -3.63177e-06 -1.9679e-19 3.58556e-06 -4.87233e-20 -2.59822e-11)
(-4.14839e-06 -3.14535e-06 -7.66189e-20 4.1481e-06 -8.88501e-21 2.81174e-10)
(-4.62843e-06 -2.5942e-06 7.91796e-20 4.62834e-06 1.57597e-20 9.72534e-11)
(-5.02438e-06 -1.98761e-06 -2.46799e-19 5.02435e-06 -5.88199e-20 3.03812e-11)
(-5.33237e-06 -1.33783e-06 -3.0961e-22 5.33228e-06 -1.6619e-21 9.23005e-11)
(-5.55031e-06 -6.53151e-07 -1.55717e-19 5.55023e-06 -2.69915e-20 8.0198e-11)
(-5.6756e-06 5.89836e-08 -4.11974e-20 5.67567e-06 -1.53517e-20 -6.78053e-11)
(-5.7051e-06 7.87909e-07 3.52195e-20 5.70504e-06 1.24112e-20 6.08216e-11)
(-5.63486e-06 1.52525e-06 2.85568e-19 5.63508e-06 6.60021e-20 -2.18282e-10)
(-5.46259e-06 2.25748e-06 3.32948e-19 5.46262e-06 6.36703e-20 -3.2324e-11)
(-5.18597e-06 2.97142e-06 -2.17313e-19 5.18615e-06 -4.03962e-20 -1.81965e-10)
(1.78528e-06 -3.4452e-06 2.31369e-21 -1.78577e-06 3.27153e-22 4.83442e-10)
(1.26759e-06 -3.74237e-06 1.88744e-20 -1.26685e-06 4.54324e-21 -7.33508e-10)
(6.44719e-07 -3.97811e-06 -9.68046e-20 -6.4447e-07 -2.28158e-20 -2.49e-10)
(-3.16293e-08 -4.11349e-06 6.4567e-20 3.02665e-08 1.43856e-20 1.36277e-09)
(-7.06918e-07 -4.14099e-06 -1.58632e-19 7.07805e-07 -3.74418e-20 -8.86754e-10)
(-1.40085e-06 -4.05807e-06 1.44419e-19 1.40095e-06 3.04844e-20 -1.0818e-10)
(-2.0731e-06 -3.8663e-06 -5.26437e-19 2.07262e-06 -1.25999e-19 4.86766e-10)
(-2.69562e-06 -3.57975e-06 3.13691e-20 2.69572e-06 1.18009e-20 -1.06859e-10)
(-3.2637e-06 -3.20667e-06 -5.97483e-20 3.26363e-06 -8.56543e-21 7.44017e-11)
(-3.7622e-06 -2.76415e-06 3.92611e-19 3.76193e-06 8.70717e-20 2.61337e-10)
(-4.18583e-06 -2.26495e-06 -1.17933e-19 4.1858e-06 -3.11595e-20 2.87631e-11)
(-4.53375e-06 -1.71752e-06 2.66009e-20 4.53362e-06 1.23521e-20 1.26826e-10)
(-4.80253e-06 -1.13311e-06 -2.09078e-21 4.80249e-06 2.94269e-21 3.37352e-11)
(-4.9909e-06 -5.19123e-07 1.09824e-19 4.99086e-06 3.01905e-20 4.00749e-11)
(-5.09687e-06 1.18249e-07 -2.21313e-19 5.09702e-06 -4.8968e-20 -1.48653e-10)
(-5.11796e-06 7.69465e-07 -9.94661e-20 5.1179e-06 -1.40704e-20 6.14754e-11)
(-5.05078e-06 1.42728e-06 1.26194e-19 5.05098e-06 1.62815e-20 -1.98608e-10)
(-4.8937e-06 2.07976e-06 -1.46888e-19 4.89374e-06 -4.29839e-20 -4.27681e-11)
(-4.64467e-06 2.71603e-06 2.21103e-19 4.64484e-06 4.25595e-20 -1.68917e-10)
(1.56003e-06 -3.10621e-06 -5.79718e-21 -1.56051e-06 -1.28767e-21 4.76048e-10)
(1.09153e-06 -3.36707e-06 -5.07398e-20 -1.09081e-06 -1.17021e-20 -7.15918e-10)
(5.29113e-07 -3.57132e-06 5.73899e-20 -5.28877e-07 1.34841e-20 -2.36402e-10)
(-8.02114e-08 -3.68457e-06 -1.09253e-19 7.89603e-08 -2.51081e-20 1.25107e-09)
(-6.87001e-07 -3.70087e-06 2.01779e-19 6.87847e-07 4.71943e-20 -8.45438e-10)
(-1.30917e-06 -3.61762e-06 -2.4346e-20 1.30925e-06 -7.81858e-21 -8.40348e-11)
(-1.91027e-06 -3.43689e-06 4.18638e-20 1.90981e-06 1.49559e-20 4.65048e-10)
(-2.46517e-06 -3.17188e-06 3.39965e-20 2.46526e-06 8.86042e-21 -9.27862e-11)
(-2.97005e-06 -2.83012e-06 -6.59608e-20 2.9701e-06 -1.66275e-20 -4.59137e-11)
(-3.41166e-06 -2.42723e-06 -2.44471e-19 3.41142e-06 -5.5253e-20 2.38612e-10)