/*--------------------------------*- C++ -*----------------------------------*\
| =========                 |                                                 |
| \\      /  F ield         | OpenFOAM: The Open Source CFD Toolbox           |
|  \\    /   O peration     | Version:  2306                                  |
|   \\  /    A nd           | Website:  www.openfoam.com                      |
|    \\/     M anipulation  |                                                 |
\*---------------------------------------------------------------------------*/
FoamFile
{
    version     2.0;
    format      ascii;
    arch        "LSB;label=32;scalar=64";
    class       volScalarField;
    location    "0.019";
    object      p;
}
// * * * * * * * * * * * * * * * * * * * * * * * * * * * * * * * * * * * * * //

dimensions      [1 -1 -2 0 0 0 0];

internalField   nonuniform List<scalar> 
20000
(
99858.53
99860.344
99862.201
99865.008
99868.827
99873.9
99880.275
99887.811
99896.829
99907.607
99920.258
99935.439
99953.026
99973.993
99998.105
100026.41
100058.65
100095.67
100137.1
100183.18
100233.06
100285.92
100339.88
100392.67
100441.22
100482.38
100513.39
100531.95
100537.18
100529.95
100511.82
100485.11
100452.31
100415.71
100377.41
100339.18
100302.03
100267.08
100235.09
100205.26
100178.63
100156.49
100136.95
100118.42
100102.66
100091.61
100080.77
100070.37
100060.22
100075.02
99874.321
99876.359
99878.263
99881.189
99885.216
99890.557
99897.266
99905.162
99914.556
99925.751
99938.839
99954.54
99972.678
99994.302
100019.12
100048.25
100081.39
100119.39
100161.84
100208.95
100259.79
100313.43
100367.85
100420.63
100468.54
100508.37
100537.38
100553.12
100555.38
100545.03
100523.94
100494.62
100459.63
100421.3
100381.67
100342.43
100304.58
100269.15
100236.76
100206.61
100179.77
100157.41
100137.72
100119.08
100103.24
100092.06
100081.01
100070.24
100060.89
100075.04
99892.289
99894.338
99896.348
99899.379
99903.565
99909.075
99915.983
99924.143
99933.852
99945.428
99958.927
99975.139
99993.833
100016.13
100041.68
100071.66
100105.72
100144.73
100188.23
100236.38
100288.18
100342.58
100397.41
100450.08
100497.19
100535.52
100562.27
100575
100574.11
100560.47
100536.29
100504.24
100467
100426.9
100385.91
100345.67
100307.11
100271.2
100238.41
100207.95
100180.89
100158.32
100138.48
100119.73
100103.81
100092.51
100081.24
100070.17
100061.59
100075.09
99911.692
99913.765
99915.881
99919.029
99923.392
99929.093
99936.235
99944.648
99954.664
99966.627
99980.548
99997.291
100016.56
100039.55
100065.87
100096.73
100131.74
100171.79
100216.37
100265.58
100318.35
100373.47
100428.65
100481.08
100527.24
100563.9
100588.07
100597.62
100593.32
100576.21
100548.79
100513.92
100474.34
100432.41
100390.04
100348.78
100309.52
100273.14
100239.97
100209.21
100181.94
100159.17
100139.19
100120.35
100104.37
100092.94
100081.47
100070.16
100062.23
100075.17
99932.453
99934.591
99936.829
99940.118
99944.696
99950.627
99958.035
99966.723
99977.05
99989.411
100003.76
100021.05
100040.91
100064.62
100091.72
100123.49
100159.49
100200.61
100246.29
100296.59
100350.31
100406.13
100461.58
100513.64
100558.66
100593.45
100614.72
100620.92
100612.97
100592.2
100561.41
100523.61
100481.63
100437.83
100394.07
100351.78
100311.82
100274.98
100241.44
100210.41
100182.94
100159.98
100139.86
100120.93
100104.9
100093.37
100081.63
100070.18
100062.88
100075.26
99954.798
99957.008
99959.369
99962.797
99967.59
99973.745
99981.401
99990.378
100001.03
100013.8
100028.59
100046.43
100066.9
100091.35
100119.27
100151.97
100189
100231.22
100278.04
100329.44
100384.11
100440.59
100496.21
100547.76
100591.48
100624.1
100642.18
100644.84
100632.98
100608.39
100574.09
100533.28
100488.85
100443.14
100397.96
100354.64
100313.99
100276.71
100242.81
100211.52
100183.87
100160.74
100140.49
100121.48
100105.4
100093.78
100081.71
100070.26
100063.5
100075.37
99978.729
99981.014
99983.498
99987.072
99992.087
99998.464
100006.36
100015.63
100026.59
100039.78
100055.02
100073.45
100094.54
100119.76
100148.53
100182.22
100220.31
100263.67
100311.66
100364.16
100419.78
100476.86
100532.56
100583.44
100625.67
100655.8
100670.41
100669.29
100653.29
100624.71
100586.79
100542.88
100495.95
100448.32
100401.71
100357.36
100316.03
100278.3
100244.07
100212.52
100184.72
100161.43
100141.08
100121.99
100105.89
100094.19
100081.73
100070.4
100064.12
100075.49
100004.11
100006.48
100009.08
100012.81
100018.05
100024.65
100032.8
100042.38
100053.69
100067.33
100083.05
100102.09
100123.86
100149.89
100179.55
100214.25
100253.45
100298
100347.18
100400.81
100457.34
100514.98
100570.63
100620.65
100661.17
100688.47
100699.39
100694.18
100673.84
100641.09
100599.44
100552.38
100502.91
100453.35
100405.31
100359.93
100317.93
100279.77
100245.21
100213.43
100185.47
100162.05
100141.62
100122.46
100106.36
100094.58
100081.74
100070.59
100064.73
100075.63
100030.82
100033.31
100036.03
100039.93
100045.44
100052.29
100060.73
100070.66
100082.35
100096.47
100112.71
100132.39
100154.86
100181.74
100212.34
100248.11
100288.46
100334.23
100384.64
100439.4
100496.85
100554.95
100610.41
100659.39
100697.96
100722.03
100729.06
100719.44
100694.54
100657.48
100612
100561.73
100509.7
100458.19
100408.72
100362.34
100319.67
100281.11
100246.22
100214.23
100186.13
100162.59
100142.08
100122.88
100106.78
100094.97
100081.74
100070.8
100065.33
100075.79
100059.07
100061.7
100064.54
100068.64
100074.42
100081.53
100090.26
100100.54
100112.6
100127.22
100143.99
100164.36
100187.58
100215.36
100246.94
100283.83
100325.39
100372.43
100424.09
100479.99
100538.31
100596.8
100651.92
100699.65
100735.95
100756.42
100759.31
100744.98
100715.32
100673.79
100624.4
100570.88
100516.29
100462.83
100411.95
100364.56
100321.26
100282.3
100247.11
100214.91
100186.69
100163.05
100142.48
100123.24
100107.17
100095.33
100081.69
100071.04
100065.93
100075.96
100088.87
100091.63
100094.59
100098.86
100104.89
100112.26
100121.27
100131.93
100144.4
100159.57
100176.92
100198.03
100222.04
100250.78
100283.41
100321.47
100364.28
100412.63
100465.58
100522.62
100581.76
100640.54
100695.13
100741.41
100775.05
100791.61
100790.05
100770.72
100736.09
100689.97
100636.6
100579.8
100522.63
100467.24
100414.96
100366.61
100322.69
100283.35
100247.86
100215.48
100187.16
100163.44
100142.8
100123.55
100107.52
100095.62
100081.61
100071.3
100066.54
100076.13
100119.84
100122.77
100125.88
100130.38
100136.72
100144.38
100153.76
100164.88
100177.83
100193.6
100211.58
100233.48
100258.34
100288.07
100321.8
100361.08
100405.2
100454.89
100509.14
100567.31
100627.23
100686.16
100740.05
100784.61
100815.17
100827.55
100821.15
100796.55
100756.76
100705.94
100648.53
100588.45
100528.71
100471.41
100417.76
100368.46
100323.95
100284.24
100248.5
100215.95
100187.55
100163.76
100143.08
100123.81
100107.81
100095.76
100081.5
100071.57
100067.15
100076.31
100152.84
100155.92
100159.16
100163.87
100170.46
100178.41
100188.13
100199.68
100213.1
100229.48
100248.09
100270.8
100296.53
100327.3
100362.16
100402.71
100448.18
100499.25
100554.83
100614.11
100674.73
100733.68
100786.63
100829.2
100856.22
100864.13
100852.51
100822.39
100777.25
100721.62
100660.14
100596.76
100534.49
100475.3
100420.32
100370.11
100325.02
100284.99
100249.01
100216.33
100187.86
100164.02
100143.3
100124
100108.06
100095.81
100081.38
100071.86
100067.78
100076.49
100187.5
100190.75
100194.13
100199.09
100205.97
100214.26
100224.31
100236.3
100250.18
100267.19
100286.47
100310.01
100336.65
100368.5
100404.55
100446.42
100493.28
100545.77
100602.68
100663.05
100724.29
100783.08
100834.89
100875.08
100898.12
100901.25
100884.02
100848.11
100797.46
100736.95
100671.37
100604.72
100539.93
100478.91
100422.63
100371.53
100325.92
100285.6
100249.4
100216.56
100188.03
100164.16
100143.43
100124.16
100108.27
100095.79
100081.27
100072.15
100068.42
100076.67
100223.67
100227.12
100230.69
100235.93
100243.16
100251.8
100262.23
100274.7
100289.09
100306.77
100326.74
100351.17
100378.77
100411.75
100449.03
100492.26
100540.56
100594.49
100652.75
100714.17
100775.93
100834.37
100884.78
100922.15
100940.82
100938.76
100915.57
100873.62
100817.31
100751.84
100682.16
100612.27
100545.02
100482.21
100424.68
100372.74
100326.65
100286.06
100249.6
100216.64
100188.09
100164.2
100143.47
100124.26
100108.44
100095.64
100081.18
100072.46
100069.05
100076.85
100261.8
100265.44
100269.17
100274.68
100282.24
100291.22
100302.03
100315
100329.92
100348.29
100368.99
100394.34
100422.94
100457.08
100495.65
100540.28
100590.07
100645.47
100705.08
100767.5
100829.63
100887.52
100936.23
100970.28
100984.23
100976.52
100947.02
100898.79
100836.7
100766.24
100692.47
100619.38
100549.73
100485.18
100426.44
100373.73
100327.21
100286.3
100249.65
100216.63
100188.07
100164.18
100143.47
100124.31
100108.53
100095.37
100081.07
100072.77
100069.69
100077.03
100301.63
100305.5
100309.41
100315.25
100323.18
100332.53
100343.76
100357.26
100372.71
100391.81
100413.26
100439.55
100469.18
100504.53
100544.43
100590.53
100641.85
100698.76
100759.7
100823.06
100885.42
100942.51
100989.19
101019.38
101028.24
101014.38
100978.25
100923.51
100855.53
100780.05
100702.24
100626.01
100554.03
100487.8
100427.92
100374.53
100327.52
100286.37
100249.58
100216.5
100187.95
100164.09
100143.4
100124.31
100108.55
100095.01
100080.95
100073.06
100070.3
100077.2
100343.57
100347.66
100351.75
100357.91
100366.19
100375.87
100387.47
100401.49
100417.47
100437.3
100459.52
100486.79
100517.5
100554.12
100595.44
100643.05
100695.97
100754.41
100816.67
100880.88
100943.29
100999.33
101043.54
101069.32
101072.69
101052.2
101009.11
100947.67
100873.71
100793.23
100711.42
100632.13
100557.89
100490.05
100429.13
100375.06
100327.62
100286.29
100249.36
100216.25
100187.74
100163.91
100143.26
100124.26
100108.54
100094.55
100080.81
100073.35
100070.89
100077.37
100387.09
100391.43
100395.71
100402.2
100410.82
100420.86
100432.88
100447.49
100464.03
100484.67
100507.73
100536.06
100567.94
100605.91
100648.71
100697.92
100752.47
100812.47
100876.03
100940.98
101003.22
101057.92
101099.14
101120.03
101117.39
101089.83
101039.46
100971.15
100891.16
100805.7
100719.97
100637.72
100561.3
100491.94
100430.08
100375.29
100327.54
100286.03
100248.99
100215.88
100187.43
100163.64
100143.06
100124.17
100108.47
100094.02
100080.64
100073.63
100071.47
100077.53
100432.09
100436.68
100441.19
100448.05
100457.05
100467.51
100480.01
100495.26
100512.45
100533.98
100557.95
100587.44
100620.57
100659.97
100704.34
100755.21
100811.45
100873
100937.81
101003.36
101065.21
101118.22
101155.84
101171.41
101162.16
101127.1
101069.16
100993.83
100907.79
100817.4
100727.84
100642.73
100564.22
100493.48
100430.66
100375.3
100327.26
100285.6
100248.48
100215.39
100187.02
100163.3
100142.79
100124.04
100108.35
100093.4
100080.44
100073.9
100072.01
100077.69
100478.82
100483.68
100488.42
100495.63
100505.03
100515.95
100528.97
100544.95
100562.85
100585.34
100610.32
100641.03
100675.49
100716.4
100762.4
100814.98
100872.95
100936.06
101002.06
101068.03
101129.23
101180.13
101213.51
101223.28
101206.82
101163.84
101098.05
101015.6
100923.51
100828.28
100735
100647.13
100566.67
100494.67
100430.89
100375.08
100326.77
100284.99
100247.81
100214.78
100186.5
100162.87
100142.46
100123.88
100108.18
100092.71
100080.22
100074.14
100072.51
100077.82
100527.29
100532.45
100537.49
100545.08
100554.95
100566.44
100580.02
100596.81
100615.46
100638.97
100664.99
100696.96
100732.82
100775.29
100822.98
100877.33
100937.05
101001.71
101068.8
101135
101195.23
101243.54
101272.01
101275.45
101251.18
101199.87
101126.01
101036.35
100938.25
100838.28
100741.42
100650.92
100568.66
100495.38
100430.83
100374.6
100326.07
100284.19
100246.99
100214.05
100185.9
100162.35
100142.06
100123.67
100107.94
100091.95
100079.95
100074.35
100072.95
100077.91
100578.33
100583.77
100589.1
100597.02
100607.36
100619.38
100633.47
100651.02
100670.42
100694.95
100722.05
100755.33
100792.63
100836.72
100886.17
100942.33
101003.82
101070
101138.05
101204.26
101263.18
101308.24
101331.22
101327.68
101295.04
101235.01
101152.87
101055.97
100951.94
100847.36
100747.05
100654.08
100570.19
100495.64
100430.47
100373.87
100325.16
100283.21
100246.02
100213.2
100185.19
100161.75
100141.6
100123.43
100107.62
100091.13
100079.64
100074.47
100073.34
100077.95
100631.13
100636.93
100642.63
100651.01
100661.89
100674.5
100689.14
100707.54
100727.73
100753.33
100781.55
100816.2
100855
100900.77
100952.03
101010.04
101073.32
101140.97
101209.83
101275.77
101332.98
101374.08
101391.01
101379.73
101338.18
101269.07
101178.5
101074.36
100964.51
100855.47
100751.88
100656.64
100571.11
100495.55
100429.78
100372.88
100324.03
100282.05
100244.9
100212.23
100184.38
100161.07
100141.09
100123.15
100107.19
100090.29
100079.28
100074.53
100073.69
100077.96
100686.34
100692.49
100698.6
100707.42
100718.78
100732.01
100747.2
100766.45
100787.44
100814.15
100843.55
100879.61
100919.99
100967.5
101020.65
101080.55
101145.62
101214.66
101284.14
101349.52
101404.5
101440.86
101451.14
101431.38
101380.39
101301.88
101202.76
101091.44
100975.9
100862.57
100755.89
100658.6
100571.46
100495.05
100428.78
100371.64
100322.7
100280.7
100243.64
100211.15
100183.47
100160.3
100140.51
100122.83
100106.59
100089.46
100078.9
100074.55
100073.93
100077.94
100743.87
100750.36
100756.89
100766.14
100777.94
100791.81
100807.56
100827.71
100849.56
100877.44
100908.08
100945.64
100987.67
101037
101092.09
101153.94
101220.79
101291.11
101361
101425.44
101477.6
101508.41
101511.35
101482.37
101421.44
101333.24
101225.53
101107.11
100986.06
100868.64
100759.13
100659.78
100571.35
100494.15
100427.45
100370.15
100321.15
100279.16
100242.23
100209.96
100182.46
100159.45
100139.88
100122.46
100105.85
100088.65
100078.5
100074.53
100074.04
100077.86
100803.32
100810.22
100817.24
100826.95
100839.23
100853.85
100870.22
100891.36
100914.14
100943.26
100975.23
101014.34
101058.12
101109.35
101166.46
101230.27
101298.88
101370.36
101440.38
101503.48
101552.03
101576.59
101571.35
101532.44
101461.09
101363
101246.68
101121.3
100994.94
100873.67
100761.59
100660.24
100570.72
100492.84
100425.81
100368.41
100319.39
100277.45
100240.67
100208.65
100181.35
100158.52
100139.2
100122.06
100105.02
100087.82
100078.04
100074.43
100074.07
100077.73
100865.22
100872.52
100880.01
100890.18
100902.93
100918.33
100935.35
100957.5
100981.25
101011.67
101045.04
101085.81
101131.42
101184.64
101243.84
101309.65
101379.96
101452.41
101522.25
101583.5
101627.57
101645.18
101630.82
101581.33
101499.12
101390.97
101266.1
101133.95
101002.5
100877.71
100763.07
100660.11
100569.59
100491.13
100423.86
100366.42
100317.43
100275.55
100238.97
100207.23
100180.14
100157.51
100138.46
100121.62
100104.21
100086.97
100077.52
100074.24
100074.06
100077.52
100929.3
100937.04
100945.04
100955.73
100968.95
100985.18
101002.87
101026.11
101050.91
101082.73
101117.61
101160.14
101207.71
101263
101324.34
101392.16
101464.08
101537.29
101606.58
101665.36
101704
101713.87
101689.48
101628.74
101535.3
101417.01
101283.7
101144.98
101008.75
100880.73
100763.63
100659.33
100567.94
100489.03
100421.61
100364.19
100315.25
100273.46
100237.13
100205.7
100178.82
100156.41
100137.66
100121.15
100103.51
100086.14
100076.95
100073.96
100073.92
100077.21
100995.54
101003.75
101012.29
101023.54
101037.26
101054.4
101072.84
101097.28
101123.24
101156.58
101193.1
101237.49
101287.12
101344.56
101408.09
101477.89
101551.29
101624.98
101693.29
101748.83
101781.07
101782.33
101746.99
101674.38
101569.42
101440.96
101299.39
101154.37
101013.74
100882.52
100763.44
100657.9
100565.79
100486.55
100419.05
100361.7
100312.86
100271.21
100235.16
100204.05
100177.41
100155.24
100136.8
100120.66
100103.03
100085.55
100076.4
100073.57
100073.66
100076.77
101064.01
101072.75
101081.83
101093.71
101108.01
101126.19
101145.51
101171.27
101198.5
101233.45
101271.7
101318.05
101369.8
101429.44
101495.19
101566.92
101641.62
101715.47
101782.28
101833.61
101858.61
101850.16
101803.01
101717.98
101601.27
101462.7
101313.07
101162.11
101017.43
100883.19
100762.42
100655.82
100563.16
100483.69
100416.19
100358.98
100310.27
100268.78
100233.06
100202.3
100175.89
100153.99
100135.87
100120.13
100102.78
100085.19
100075.98
100073.09
100073.25
100076.16
101135.24
101144.54
101154.16
101166.83
101181.79
101201.08
101221.29
101248.42
101276.96
101313.55
101353.6
101401.94
101455.89
101517.78
101585.73
101659.3
101735.08
101808.72
101873.37
101919.42
101936.28
101916.98
101857.2
101759.24
101630.65
101482.1
101324.72
101168.26
101019.58
100882.88
100760.59
100653.13
100560.05
100480.46
100413.05
100356.01
100307.47
100266.18
100230.83
100200.43
100174.28
100152.66
100134.87
100119.55
100102.68
100085.09
100075.77
100072.64
100072.7
100075.32
101209.68
101219.56
101229.78
101243.36
101258.88
101279.26
101300.32
101328.81
101358.69
101396.96
101438.88
101489.3
101545.5
101609.67
101679.82
101755.1
101831.68
101904.63
101966.34
102005.97
102013.68
101982.38
101909.2
101797.91
101657.38
101499.06
101334.31
101172.78
101020.34
100881.54
100757.96
100649.82
100556.47
100476.88
100409.62
100352.81
100304.47
100263.42
100228.48
100198.45
100172.56
100151.26
100133.79
100118.88
100102.6
100085.12
100075.64
100072.25
100072.03
100074.21
101287.05
101297.58
101308.43
101322.92
101338.97
101360.52
101382.49
101412.42
101443.74
101483.79
101527.67
101580.24
101638.77
101705.25
101777.54
101854.35
101931.4
102003.11
102060.88
102092.94
102090.34
102045.96
101958.63
101833.71
101681.3
101513.5
101341.9
101175.36
101019.87
100879.18
100754.55
100645.93
100552.45
100472.95
100405.91
100349.37
100301.28
100260.5
100226.01
100196.36
100170.75
100149.79
100132.61
100118.07
100102.29
100085.4
100075.92
100072.11
100071.31
100072.8
101367.26
101378.52
101390.02
101405.49
101422.14
101444.98
101467.96
101499.42
101532.27
101574.19
101620.11
101674.9
101735.81
101804.6
101878.96
101957.08
102034.19
102103.98
102156.6
102180.06
102165.76
102107.26
102005.16
101866.4
101702.27
101525.41
101347.46
101176.25
101018.11
100875.83
100750.39
100641.46
100548
100468.69
100401.94
100345.7
100297.89
100257.44
100223.42
100194.15
100168.86
100148.24
100131.35
100117.08
100101.6
100085.56
100076.61
100072.07
100070.63
100071.05
101450.77
101462.81
101474.94
101491.46
101508.73
101532.9
101556.94
101590
101624.45
101668.29
101716.35
101773.41
101836.75
101907.84
101984.14
102063.29
102139.97
102207
102253.12
102266.83
102239.43
102165.84
102048.43
101895.76
101720.18
101534.84
101350.63
101175.58
101015.08
100871.52
100745.5
100636.44
100543.13
100464.11
100397.7
100341.81
100294.3
100254.24
100220.72
100191.83
100166.87
100146.62
100130
100115.9
100100.53
100085.66
100077.08
100072.42
100070.22
100069.02
101537.68
101550.58
101563.32
101580.94
101598.87
101624.41
101649.56
101684.27
101720.38
101766.2
101816.47
101875.87
101941.69
102015.06
102093.14
102172.96
102248.61
102311.84
102350.06
102352.7
102310.85
102221.25
102088.12
101921.6
101735
101541.73
101351.7
101173.3
101010.83
100866.27
100739.91
100630.9
100537.87
100459.23
100393.21
100337.68
100290.54
100250.9
100217.9
100189.4
100164.81
100144.94
100128.56
100114.54
100099.06
100085.34
100077.3
100072.78
100069.96
100066.79
101627.99
101641.86
101655.22
101673.98
101692.59
101719.55
101745.82
101782.22
101820.09
101867.99
101920.59
101982.45
102050.79
102126.37
102205.99
102286.06
102359.93
102417.99
102447.06
102437.04
102379.45
102273.04
102123.92
101943.76
101746.73
101545.7
101350.82
101169.47
101005.39
100860.14
100733.64
100624.86
100532.23
100454.05
100388.47
100333.34
100286.6
100247.43
100214.97
100186.86
100162.68
100143.2
100127.05
100113.01
100097.35
100084.76
100077.37
100073.14
100069.6
100064.37
101721.58
101736.6
101750.52
101770.41
101789.7
101818.16
101845.64
101883.88
101923.69
101973.83
102028.94
102093.33
102164.22
102241.88
102322.73
102402.48
102473.63
102525
102543.56
102519.2
102444.67
102320.77
102155.56
101962.16
101755.35
101547.06
101347.96
101164.12
100998.82
100853.15
100726.74
100618.34
100526.23
100448.58
100383.48
100328.78
100282.48
100243.85
100211.92
100184.21
100160.48
100141.39
100125.46
100111.34
100095.56
100084.07
100077.39
100073.54
100069.08
100061.78
101818.25
101834.56
101848.8
101869.92
101890.06
101920.31
101949.25
101989.56
102031.53
102084.06
102141.78
102208.76
102282.12
102361.65
102443.31
102522.06
102589.33
102632.36
102638.89
102598.54
102505.94
102364.02
102182.82
101976.79
101760.41
101546
101343.16
101157.31
100991.15
100845.34
100719.23
100611.36
100519.89
100442.85
100378.26
100324.01
100278.2
100240.15
100208.77
100181.46
100158.22
100139.53
100123.8
100109.52
100093.81
100083.35
100077.33
100073.8
100068.36
100059.08
101918.31
101935.91
101950.59
101973.45
101994.54
102026.78
102057.33
102099.81
102144.06
102199.03
102259.4
102328.92
102404.63
102485.72
102567.67
102644.57
102706.45
102739.56
102732.27
102674.35
102562.68
102402.43
102205.58
101987.59
101762.23
101542.49
101336.49
101149.1
100982.44
100836.76
100711.14
100603.96
100513.22
100436.86
100372.81
100319.03
100273.76
100236.33
100205.5
100178.62
100155.91
100137.61
100122.07
100107.52
100092.22
100082.7
100077.2
100074
100067.42
100056.33
102022.94
102041.9
102057.3
102081.98
102103.95
102138.18
102170.35
102214.99
102261.55
102318.96
102381.97
102453.95
102531.8
102614.07
102695.66
102769.64
102824.37
102845.99
102822.86
102745.92
102614.35
102435.69
102223.74
101994.08
101761.05
101536.57
101328.03
101139.57
100972.75
100827.45
100702.51
100596.15
100506.25
100430.61
100367.14
100313.86
100269.17
100232.4
100202.12
100175.68
100153.55
100135.65
100120.26
100105.36
100090.82
100082.04
100077.11
100074.2
100066.25
100053.54
102132.25
102152.82
102168.99
102195.52
102218.39
102254.62
102288.45
102335.24
102384.14
102444
102509.61
102583.95
102663.66
102746.62
102827.06
102896.77
102942.43
102950.78
102909.84
102812.51
102660.43
102463.57
102237.22
101996.56
101756.82
101528.36
101317.87
101128.78
100962.14
100817.45
100693.37
100587.96
100498.99
100424.14
100361.26
100308.51
100264.45
100228.37
100198.62
100172.65
100151.15
100133.63
100118.34
100103.14
100089.65
100081.66
100077.09
100074.27
100064.88
100050.75
102246.91
102269.1
102285.88
102314.21
102337.92
102376.17
102411.71
102460.63
102511.94
102574.26
102642.45
102718.96
102800.2
102883.24
102961.53
103025.26
103059.98
103052.94
102992.31
102873.4
102700.51
102485.91
102245.52
101995.33
101749.63
101517.94
101306.09
101116.81
100950.65
100806.81
100683.74
100579.41
100491.45
100417.43
100355.18
100302.98
100259.59
100224.22
100194.99
100169.55
100148.71
100131.55
100116.3
100100.91
100088.67
100081.41
100077.06
100074.3
100063.29
100047.99
102366.2
102390.19
102407.45
102437.81
102462.37
102502.77
102540.23
102591.34
102645.11
102709.91
102780.61
102859.06
102941.35
103023.73
103098.59
103154.28
103176.19
103151.42
103069.36
102927.93
102734.24
102502.57
102248.87
101990.33
101739.6
101505.43
101292.78
101103.72
100938.34
100795.55
100673.66
100570.53
100483.65
100410.5
100348.9
100297.28
100254.61
100219.96
100191.25
100166.38
100146.22
100129.4
100114.11
100098.71
100087.75
100081.34
100077.41
100074.34
100061.48
100045.32
102490.34
102516.04
102533.63
102566.22
102591.77
102634.49
102674.19
102727.66
102783.88
102851.08
102924.17
103004.23
103086.99
103167.74
103237.58
103283
103289.97
103245.14
103140.06
102975.5
102761.33
102512.99
102247.62
101981.67
101726.86
101490.94
101278.04
101089.59
100925.26
100783.73
100663.16
100561.32
100475.6
100403.36
100342.44
100291.44
100249.53
100215.59
100187.38
100163.14
100143.69
100127.17
100111.73
100096.62
100086.96
100081.45
100078.11
100074.37
100059.45
100042.81
102619
102646.75
102664.81
102699.97
102726.72
102771.72
102813.66
102869.69
102928.47
102997.94
103073.19
103154.43
103236.9
103314.79
103377.55
103410.54
103400.03
103332.95
103203.53
103015.6
102781.55
102517.35
102241.73
101969.51
101711.55
101474.6
101261.96
101074.49
100911.47
100771.38
100652.27
100551.81
100467.31
100396.03
100335.81
100285.46
100244.34
100211.1
100183.39
100159.85
100141.11
100124.82
100109.09
100094.83
100086.3
100081.55
100078.84
100074.18
100057.22
100040.47
102753.65
102783.79
102802.22
102840.04
102867.86
102915.16
102959.09
103017.49
103078.97
103150.61
103227.69
103309.52
103390.74
103464.19
103517.43
103535.75
103505
103413.69
103258.97
103047.8
102794.27
102516.06
102231.33
101953.99
101693.82
101456.53
101244.64
101058.48
100897.02
100758.53
100641
100542.02
100458.8
100388.49
100329.02
100279.36
100239.07
100206.51
100179.28
100156.51
100138.46
100122.33
100106.35
100093.31
100085.76
100081.59
100079.22
100073.58
100054.86
100038.35
102894.82
102927.63
102946.16
102986.79
103015.59
103065.09
103110.99
103171.45
103235.58
103309.19
103387.63
103469.27
103547.97
103614.99
103656.1
103657.14
103603.5
103486.22
103305.66
103071.72
102799.63
102509.03
102216.59
101935.32
101673.83
101436.85
101226.17
101041.64
100881.94
100745.22
100629.38
100531.96
100450.06
100380.78
100322.07
100273.16
100233.72
100201.82
100175.06
100153.12
100135.71
100119.65
100103.61
100091.95
100085.3
100081.58
100079.38
100072.52
100052.43
100036.45
103042.29
103078.16
103096.35
103139.98
103169.79
103221.34
103269.5
103332
103398.49
103473.69
103552.84
103633.26
103707.83
103765.81
103792.36
103773.01
103694.06
103549.46
103342.97
103086.63
102798.03
102496.44
102197.72
101913.68
101651.74
101415.68
101206.64
101024.03
100866.3
100731.48
100617.43
100521.63
100441.11
100372.88
100314.99
100266.85
100228.3
100197.04
100170.75
100149.68
100132.84
100116.69
100100.94
100090.67
100084.86
100081.51
100079.44
100070.93
100049.99
100034.81
103195.85
103235.09
103252.61
103299.3
103330.23
103383.78
103434.57
103499.22
103567.77
103643.99
103722.97
103800.86
103869.2
103915.3
103924.46
103881.62
103775.21
103602.45
103370.33
103092.67
102789.38
102478.5
102174.97
101889.28
101627.71
101393.14
101186.12
101005.69
100850.12
100717.33
100605.16
100511.06
100431.94
100364.8
100307.78
100260.46
100222.8
100192.18
100166.39
100146.21
100129.79
100113.35
100098.41
100089.39
100084.36
100081.47
100079.46
100068.73
100047.61
100033.44
103356.25
103398.52
103415.26
103464.83
103497.44
103553.11
103606.58
103672.93
103743.24
103819.8
103897.47
103971.09
104030.56
104061.88
104050.36
103981.16
103845.57
103644.3
103386.82
103090.13
102773.88
102455.47
102148.57
101862.33
101601.9
101369.35
101164.7
100986.7
100833.44
100702.8
100592.6
100500.24
100422.57
100356.55
100300.44
100253.98
100217.24
100187.25
100161.99
100142.7
100126.48
100109.66
100095.97
100088.09
100083.83
100081.42
100079.25
100065.88
100045.32
100032.34
103523.94
103568.8
103584.81
103636.55
103671.86
103730.06
103785.87
103853.38
103924.72
104000.63
104075.51
104142.63
104190.08
104203.58
104167.87
104069.78
103903.85
103674.13
103392.69
103078.96
102751.79
102427.65
102118.8
101833.03
101574.45
101344.4
101142.45
100967.09
100816.29
100687.91
100579.75
100489.18
100412.99
100348.13
100292.98
100247.41
100211.6
100182.23
100157.58
100139.11
100122.83
100105.79
100093.57
100086.8
100083.25
100081.31
100078.72
100062.42
100043.2
100031.42
103698.73
103746.5
103763.17
103817.23
103854.74
103914.01
103971.99
104040.3
104111.7
104185.66
104255.78
104313.6
104345.75
104337.91
104274.7
104145.66
103948.77
103690.86
103388
103059.37
102723.43
102395.37
102085.92
101801.59
101545.51
101318.4
101119.43
100946.9
100798.71
100672.68
100566.62
100477.88
100403.2
100339.54
100285.4
100240.76
100205.85
100177.13
100153.17
100135.38
100118.72
100101.89
100091.21
100085.49
100082.61
100081.09
100077.74
100058.72
100041.21
100030.58
103880.91
103931.75
103949.91
104005.99
104045.62
104105.51
104164.87
104233.06
104303.29
104373.6
104436.54
104481.64
104495.17
104462.11
104368.54
104207.06
103979
103694.88
103372.76
103031.69
102689.2
102358.96
102050.19
101768.19
101515.21
101291.42
101095.7
100926.18
100780.71
100657.12
100553.21
100466.34
100393.19
100330.76
100277.7
100234
100199.98
100171.92
100148.74
100131.41
100114.06
100098.2
100088.91
100084.15
100081.85
100080.66
100076.08
100055.12
100039.36
100029.84
104071.85
104125.17
104144.1
104201.38
104243.24
104303.43
104363.47
104430.58
104498.16
104562.7
104615.37
104644.19
104635.22
104573.33
104447.05
104252.29
103993.7
103685.94
103347.21
102996.32
102649.49
102318.76
102011.88
101733.01
101483.66
101263.56
101071.31
100904.96
100762.32
100641.23
100539.53
100454.56
100382.97
100321.8
100269.85
100227.12
100193.93
100166.58
100144.24
100127.07
100109.05
100094.67
100086.7
100082.78
100080.92
100079.96
100073.46
100051.8
100037.69
100029.18
104270.12
104325.57
104345.66
104403.65
104447.2
104507.14
104566.9
104631.58
104694.55
104750.56
104789.22
104798.06
104762.45
104668.59
104507.88
104279.54
103992.95
103664.12
103311.74
102953.75
102604.75
102275.12
101971.22
101696.22
101450.99
101234.87
101046.31
100883.26
100743.54
100625.03
100525.57
100442.52
100372.51
100312.65
100261.83
100220.08
100187.67
100161.07
100139.55
100122.19
100103.93
100091.29
100084.56
100081.33
100079.76
100078.83
100069.6
100048.91
100036.19
100028.58
104476.14
104533.3
104554.65
104612.23
104656.6
104715.41
104773.66
104834.11
104889.88
104933.84
104954.66
104939.28
104873.21
104744.83
104548.69
104288.34
103976.34
103629.7
103266.88
102904.5
102555.41
102228.35
101928.44
101657.96
101417.27
101205.42
101020.72
100861.1
100724.39
100608.51
100511.33
100430.22
100361.82
100303.27
100253.63
100212.85
100181.16
100155.38
100134.54
100116.59
100098.88
100088.04
100082.49
100079.86
100078.56
100077.18
100065.07
100046.2
100034.79
100028.04
104688.46
104746.85
104769.16
104825.75
104870.51
104926.71
104981.57
105035.35
105080.6
105108.47
105107.37
105063.47
104963.66
104799.01
104567.82
104278.12
103944.01
103583.19
103213.25
102849.12
102501.9
102178.77
101883.74
101618.37
101382.59
101175.25
100994.57
100838.49
100704.87
100591.67
100496.8
100417.66
100350.87
100293.66
100245.19
100205.39
100174.36
100149.47
100129.05
100110.22
100094.02
100084.89
100080.44
100078.39
100077.39
100075.11