/*--------------------------------*- C++ -*----------------------------------*\
| =========                 |                                                 |
| \\      /  F ield         | OpenFOAM: The Open Source CFD Toolbox           |
|  \\    /   O peration     | Version:  2306                                  |
|   \\  /    A nd           | Website:  www.openfoam.com                      |
|    \\/     M anipulation  |                                                 |
\*---------------------------------------------------------------------------*/
FoamFile
{
    version     2.0;
    format      ascii;
    arch        "LSB;label=32;scalar=64";
    class       volScalarField;
    location    "0.019";
    object      T;
}
// * * * * * * * * * * * * * * * * * * * * * * * * * * * * * * * * * * * * * //

dimensions      [0 0 0 1 0 0 0];

internalField   nonuniform List<scalar> 
20000
(
298.50935
298.60966
298.63519
298.58385
298.39449
297.91135
297.60972
297.61491
297.65018
297.67349
297.70838
297.73744
297.77321
297.80784
297.84701
297.88723
297.93106
297.97689
298.02583
298.07684
298.12992
298.18394
298.23778
298.28953
298.33704
298.37769
298.40929
298.43
298.43864
298.43593
298.42316
298.40235
298.37582
298.34567
298.31389
298.28212
298.25131
298.22223
298.19577
298.17131
298.14928
298.13098
298.11491
298.09982
298.08647
298.07798
298.06923
298.06089
298.05395
298.05815
298.5116
298.61204
298.63608
298.58017
298.38183
297.87975
297.61927
297.62911
297.6644
297.68757
297.72275
297.75201
297.78819
297.82327
297.86302
297.90392
297.94851
297.99521
298.04506
298.09704
298.15106
298.20592
298.26039
298.31244
298.35976
298.39965
298.42998
298.44868
298.45505
298.44995
298.4348
298.41183
298.38344
298.3518
298.31883
298.28605
298.25445
298.22486
298.19792
298.17308
298.15081
298.13227
298.116
298.10076
298.08725
298.07859
298.06957
298.0608
298.05528
298.0576
298.51313
298.61351
298.63573
298.57407
298.36364
297.8457
297.62964
297.64385
297.67964
297.70304
297.73866
297.76832
297.80497
297.8406
297.88094
297.92254
297.9679
298.01545
298.06619
298.11908
298.17393
298.22949
298.28438
298.33644
298.38321
298.42197
298.45054
298.4668
298.47059
298.46276
298.44503
298.41977
298.38946
298.3563
298.32217
298.28854
298.25635
298.22635
298.19911
298.174
298.15156
298.13284
298.11645
298.10114
298.08758
298.07885
298.06967
298.06076
298.05537
298.05747
298.51531
298.61618
298.6369
298.56944
298.34522
297.81878
297.64405
297.66025
297.69633
297.71979
297.75578
297.78577
297.82288
297.85904
297.9
297.94232
297.98848
298.03692
298.08858
298.14241
298.19814
298.25442
298.30973
298.36179
298.40797
298.44553
298.47223
298.48594
298.48704
298.47638
298.45598
298.42836
298.39607
298.36134
298.32601
298.29148
298.25864
298.2282
298.20059
298.17519
298.15255
298.13363
298.11711
298.1017
298.08807
298.07924
298.06985
298.06077
298.05608
298.05724
298.51798
298.61945
298.63879
298.56487
298.32387
297.79644
297.66152
297.67779
297.71427
297.73788
297.77426
297.80463
297.84222
297.87895
297.92056
297.96362
298.0106
298.05995
298.11255
298.16733
298.22393
298.28089
298.33655
298.38848
298.43389
298.47007
298.49457
298.50557
298.50374
298.49007
298.46685
298.43676
298.40243
298.36609
298.32955
298.29412
298.26066
298.22981
298.20186
298.1762
298.15337
298.13429
298.11764
298.10215
298.08847
298.07958
298.06997
298.06077
298.05644
298.05707
298.52032
298.62297
298.64142
298.56106
298.30035
297.77868
297.68263
297.69677
297.73361
297.75733
297.79411
297.82487
297.86294
297.90026
297.94251
297.98635
298.03418
298.08447
298.13803
298.19378
298.25124
298.30885
298.36481
298.41649
298.461
298.49562
298.51766
298.5258
298.52082
298.504
298.47786
298.44523
298.40881
298.37084
298.33305
298.29672
298.26264
298.23137
298.2031
298.17718
298.15419
298.13495
298.11818
298.10261
298.08888
298.07991
298.07004
298.06083
298.05697
298.05692
298.52424
298.62789
298.64538
298.55846
298.27448
297.76593
297.70266
297.71707
297.7543
297.77817
297.81535
297.84651
297.88508
297.923
297.96594
298.01058
298.05928
298.11054
298.16509
298.22182
298.28013
298.33837
298.39454
298.44585
298.4893
298.52211
298.54142
298.54654
298.53819
298.51806
298.48888
298.45363
298.41508
298.37544
298.33641
298.29917
298.26448
298.23281
298.20423
298.17808
298.15493
298.13555
298.11867
298.10303
298.08926
298.08024
298.07005
298.06093
298.05737
298.05679
298.52789
298.63294
298.64992
298.5567
298.24638
297.75882
297.72459
297.73877
297.77634
297.80037
297.83795
297.86955
297.90863
297.9472
297.99083
298.03632
298.08592
298.13819
298.19375
298.25147
298.31062
298.36944
298.42573
298.47653
298.51876
298.54948
298.56584
298.56771
298.5558
298.53221
298.49989
298.46196
298.42124
298.37992
298.33965
298.30151
298.26621
298.23415
298.20527
298.17889
298.15561
298.13609
298.11913
298.10341
298.08963
298.08058
298.07003
298.06108
298.05794
298.05668
298.53246
298.63871
298.65521
298.55601
298.21641
297.75716
297.74772
297.7617
297.79968
297.82391
297.86192
297.89398
297.93361
297.97285
298.01723
298.06359
298.11414
298.16744
298.22404
298.28276
298.34275
298.40209
298.45839
298.50852
298.54935
298.57766
298.5909
298.58924
298.57359
298.54639
298.51084
298.47018
298.42726
298.38425
298.34273
298.3037
298.26781
298.23538
298.2062
298.17961
298.1562
298.13657
298.11953
298.10376
298.08996
298.08091
298.07
298.06124
298.05842
298.05661
298.537
298.64461
298.66055
298.55579
298.18538
297.76112
297.77216
297.78598
297.82436
297.84882
297.88728
297.91984
297.96004
298
298.04515
298.09243
298.14397
298.19834
298.256
298.31572
298.37652
298.43632
298.49252
298.54182
298.58102
298.6066
298.61652
298.61106
298.59147
298.56054
298.52168
298.47825
298.43311
298.38842
298.34566
298.30575
298.26928
298.23649
298.20703
298.18023
298.15671
298.13699
298.11988
298.10406
298.09027
298.08122
298.06995
298.06141
298.05889
298.05658
298.54247
298.65115
298.66627
298.55632
298.1546
297.77131
297.7979
297.8116
297.8504
297.8751
297.91403
297.94713
297.98793
298.02866
298.07464
298.12288
298.17544
298.23091
298.28966
298.3504
298.41197
298.47215
298.52812
298.57641
298.61371
298.63623
298.64262
298.6331
298.6094
298.57462
298.53237
298.48613
298.43876
298.39239
298.34841
298.30764
298.27061
298.23747
298.20775
298.18076
298.15713
298.13733
298.12017
298.10431
298.09053
298.0815
298.06988
298.0616
298.05936
298.05659
298.54825
298.65796
298.67184
298.55652
298.12503
297.78687
297.82484
297.83852
297.87776
297.90276
297.94219
297.9759
298.01735
298.05888
298.10572
298.15497
298.20859
298.26521
298.32506
298.3868
298.44911
298.50959
298.56516
298.61227
298.64733
298.66654
298.6691
298.65528
298.62728
298.58853
298.54285
298.49378
298.4442
298.39616
298.35097
298.30936
298.2718
298.23833
298.20835
298.1812
298.15749
298.13762
298.1204
298.10452
298.09076
298.08167
298.06977
298.0618
298.05984
298.05662
298.55443
298.66502
298.67728
298.55582
298.09781
297.80739
297.85307
297.86683
297.90657
297.93192
297.97188
298.00622
298.04834
298.09072
298.13846
298.18875
298.24347
298.30126
298.36223
298.42497
298.48798
298.54864
298.60365
298.64935
298.68181
298.69747
298.69587
298.67751
298.64506
298.60225
298.55308
298.50118
298.44939
298.3997
298.35333
298.31092
298.27283
298.23905
298.20885
298.18156
298.15777
298.13785
298.12059
298.10468
298.09095
298.08173
298.06965
298.06201
298.06034
298.05665
298.56153
298.67309
298.68312
298.55383
298.07498
297.83152
297.88294
297.89677
297.93697
297.96267
298.00315
298.03815
298.08096
298.12422
298.17289
298.22426
298.28012
298.33911
298.40122
298.46493
298.52857
298.58929
298.64356
298.6876
298.71706
298.72893
298.72284
298.69971
298.66265
298.61568
298.563
298.50827
298.4543
298.403
298.35549
298.31229
298.27371
298.23965
298.20925
298.18183
298.15798
298.13802
298.12073
298.10479
298.0911
298.08175
298.06954
298.06224
298.06083
298.05668
298.56991
298.68254
298.68953
298.54978
298.05734
297.86244
297.91428
297.92822
297.9689
297.99498
298.03601
298.0717
298.11523
298.15941
298.20906
298.26154
298.31859
298.3788
298.44205
298.50672
298.57092
298.63154
298.68488
298.72694
298.75302
298.76082
298.74991
298.72179
298.67997
298.62879
298.57258
298.51504
298.45891
298.40604
298.35742
298.31347
298.27444
298.24013
298.20953
298.18196
298.15806
298.13808
298.1208
298.10485
298.09122
298.08166
298.06944
298.06246
298.06133
298.05672
298.57865
298.69298
298.69641
298.54256
298.04581
297.89454
297.94714
297.96124
298.00239
298.02891
298.0705
298.10693
298.15121
298.19635
298.247
298.30066
298.35891
298.42037
298.48476
298.55035
298.61501
298.67538
298.72757
298.76727
298.78965
298.79301
298.77697
298.74365
298.69694
298.64149
298.58176
298.52143
298.46321
298.40881
298.35912
298.31446
298.27502
298.24047
298.20963
298.18198
298.15806
298.13807
298.12079
298.1049
298.09131
298.08147
298.06934
298.06269
298.06182
298.05676
298.58822
298.70481
298.70474
298.53266
298.04049
297.92662
297.9816
297.99587
298.03753
298.06451
298.10667
298.14387
298.18893
298.23506
298.28676
298.34163
298.40112
298.46385
298.52938
298.59586
298.66086
298.7208
298.77159
298.80848
298.82687
298.82538
298.80392
298.76519
298.71349
298.65374
298.5905
298.52744
298.46716
298.41128
298.36056
298.31527
298.27544
298.24061
298.20964
298.18192
298.158
298.13801
298.12074
298.10489
298.09132
298.0812
298.06922
298.06291
298.06231
298.0568
298.598
298.71778
298.71451
298.51927
298.04157
297.96169
298.0177
298.03218
298.07433
298.10179
298.14454
298.18253
298.2284
298.27557
298.32837
298.38449
298.44526
298.50928
298.57596
298.64325
298.70847
298.76777
298.81686
298.85048
298.86456
298.85781
298.83065
298.78631
298.72952
298.66546
298.59875
298.53301
298.47075
298.41345
298.36177
298.31589
298.27565
298.24063
298.20953
298.18176
298.15785
298.13788
298.12064
298.10482
298.09129
298.08085
298.06909
298.06312
298.06278
298.05685
298.60915
298.73244
298.72662
298.50317
298.04991
297.99846
298.05542
298.07009
298.11275
298.14072
298.18407
298.22291
298.26964
298.3179
298.37187
298.42928
298.49138
298.55672
298.62452
298.69255
298.75783
298.81627
298.8633
298.89319
298.90259
298.89017
298.85702
298.80691
298.74498
298.67661
298.60648
298.53814
298.47395
298.41529
298.36275
298.31627
298.27568
298.24051
298.20929
298.1815
298.15762
298.13768
298.12048
298.10473
298.09125
298.08042
298.06893
298.06332
298.06324
298.0569
298.62043
298.7478
298.74033
298.48411
298.06497
298.03674
298.09452
298.10948
298.15268
298.18123
298.22526
298.26502
298.31268
298.3621
298.41729
298.47607
298.53953
298.60619
298.67509
298.74376
298.80893
298.86626
298.91077
298.93653
298.94081
298.92233
298.88293
298.82689
298.75977
298.68712
298.61364
298.54278
298.47676
298.41683
298.36348
298.31641
298.27557
298.24024
298.20893
298.18113
298.15731
298.13741
298.12027
298.1046
298.09116
298.07992
298.06875
298.06352
298.06368
298.05695
298.63206
298.76375
298.75567
298.4636
298.08735
298.07648
298.13511
298.15041
298.19421
298.22342
298.26818
298.30894
298.3576
298.40825
298.46472
298.52491
298.58977
298.65776
298.72771
298.79691
298.86176
298.91767
298.95914
298.98041
298.97905
298.95414
298.90823
298.84616
298.77384
298.69696
298.62022
298.54692
298.47914
298.41806
298.36389
298.31637
298.27527
298.23981
298.20843
298.18067
298.15691
298.13707
298.12
298.10444
298.09103
298.07936
298.06855
298.06371
298.06408
298.05699
298.64425
298.78037
298.77219
298.44279
298.11813
298.11779
298.17731
298.19304
298.23747
298.26742
298.31295
298.35477
298.40447
298.45641
298.51421
298.57586
298.64214
298.71146
298.7824
298.85197
298.91627
298.97043
299.00832
299.02467
299.01716
298.98547
298.93282
298.86462
298.78709
298.70607
298.62616
298.55053
298.48112
298.41897
298.364
298.31611
298.27479
298.23923
298.20781
298.1801
298.15643
298.13665
298.11968
298.10424
298.09086
298.07872
298.06831
298.06386
298.06445
298.05701
298.65772
298.79798
298.7896
298.42357
298.15374
298.16094
298.22138
298.23758
298.28266
298.31338
298.3597
298.40261
298.4534
298.50666
298.56585
298.62899
298.69671
298.76734
298.83918
298.90896
298.97245
299.02442
299.05816
299.06914
299.05497
299.01614
298.95656
298.88217
298.79949
298.71441
298.63145
298.55361
298.4827
298.41945
298.36388
298.31563
298.27413
298.23849
298.20706
298.17943
298.15586
298.13617
298.1193
298.10401
298.09064
298.07803
298.06803
298.06396
298.06477
298.057
298.67286
298.81699
298.8075
298.40793
298.19757
298.20616
298.26747
298.28414
298.32983
298.36133
298.40846
298.45252
298.50443
298.55906
298.61968
298.68435
298.75352
298.82543
298.89807
298.96785
299.03024
299.07948
299.10859
299.11363
299.09232
299.04602
298.97934
298.89872
298.81095
298.72194
298.63605
298.55615
298.48387
298.41957
298.36349
298.31494
298.27329
298.23759
298.20618
298.17866
298.15521
298.13561
298.11887
298.10375
298.09033
298.0773
298.06772
298.06399
298.06506
298.05698
298.68917
298.83712
298.82456
298.39677
298.24391
298.25316
298.31537
298.33262
298.37896
298.41132
298.45928
298.50453
298.55761
298.61367
298.67577
298.74199
298.81264
298.88576
298.95907
299.02863
299.08956
299.13545
299.15945
299.15793
299.12901
299.07494
299.00102
298.91419
298.82144
298.72863
298.63996
298.55817
298.48449
298.4194
298.36282
298.31403
298.27228
298.23654
298.20517
298.17779
298.15448
298.13498
298.1184
298.10346
298.0899
298.07658
298.06738
298.06399
298.06527
298.05694
298.70712
298.85921
298.84045
298.39209
298.29063
298.30221
298.36529
298.38315
298.4301
298.46337
298.51219
298.55869
298.613
298.67054
298.73416
298.80198
298.87409
298.94837
299.02218
299.09125
299.15031
299.19219
299.21058
299.20184
299.16488
299.10275
299.0215
298.92851
298.8309
298.73443
298.64318
298.55965
298.48465
298.41887
298.36188
298.31291
298.27107
298.23533
298.20404
298.17683
298.15366
298.13428
298.11787
298.10313
298.08935
298.07586
298.06701
298.06396
298.06536
298.05687
298.72675
298.88349
298.85449
298.3942
298.34129
298.35312
298.41708
298.43563
298.48325
298.5175
298.56723
298.61505
298.67066
298.72973
298.79494
298.86439
298.93795
299.01329
299.08741
299.15568
299.21234
299.24955
299.26172
299.24515
299.1997
299.12929
299.04068
298.94161
298.83929
298.73935
298.64573
298.56045
298.48443
298.41799
298.36066
298.31156
298.26969
298.23396
298.20279
298.17576
298.15275
298.13351
298.11729
298.10278
298.08872
298.07513
298.06661
298.06385
298.06538
298.05677
298.74699
298.90997
298.86526
298.40263
298.39382
298.40592
298.4708
298.49016
298.53847
298.57377
298.62447
298.67368
298.73064
298.79132
298.85816
298.92927
299.00424
299.08053
299.15472
299.22184
299.27545
299.3074
299.31264
299.28765
299.2333
299.15443
299.05844
298.95342
298.84657
298.74339
298.64758
298.56065
298.48375
298.41677
298.35918
298.31001
298.26813
298.23243
298.20141
298.17461
298.15175
298.13267
298.11667
298.10241
298.0881
298.07438
298.06615
298.06367
298.06538
298.05663
298.76875
298.93945
298.87363
298.42215
298.4488
298.4608
298.52658
298.54678
298.59581
298.63222
298.68394
298.73462
298.79303
298.85539
298.92392
298.99669
299.07303
299.1501
299.2241
299.28964
299.33945
299.36554
299.36307
299.32908
299.26548
299.17801
299.0747
298.96389
298.85272
298.74657
298.64857
298.56037
298.48264
298.41521
298.35744
298.30824
298.26639
298.23075
298.19992
298.17335
298.15067
298.13176
298.11599
298.10201
298.08756
298.07363
298.06564
298.06342
298.06527
298.05642
298.79042
298.97054
298.87931
298.45081
298.50557
298.5176
298.58434
298.6055
298.65529
298.69292
298.74576
298.798
298.85793
298.92204
298.9923
299.06674
299.14435
299.22201
299.29549
299.35894
299.40414
299.42374
299.41277
299.36923
299.29605
299.19991
299.08938
298.97297
298.85774
298.74885
298.64882
298.55951
298.4811
298.41332
298.35543
298.30626
298.26446
298.22892
298.19831
298.17201
298.1495
298.13079
298.11526
298.10161
298.08721
298.07308
298.06513
298.06309
298.06506
298.05611
298.81195
299.00483
298.88413
298.48933
298.56431
298.57643
298.64419
298.66642
298.71708
298.75602
298.81005
298.86394
298.92547
298.99136
299.0634
299.13945
299.21823
299.29624
299.36884
299.42953
299.46934
299.48167
299.46144
299.40783
299.32482
299.21999
299.1024
298.98063
298.86169
298.75005
298.64843
298.5581
298.47913
298.4111
298.35317
298.30407
298.26237
298.22694
298.19659
298.17057
298.14825
298.12974
298.11447
298.10117
298.08705
298.07271
298.06471
298.06267
298.06473
298.05569
298.83286
299.04172
298.88881
298.5369
298.62516
298.63752
298.7064
298.72981
298.78138
298.82172
298.87699
298.93258
298.99576
299.0635
299.13728
299.2149
299.29468
299.37276
299.44403
299.50115
299.53489
299.53904
299.50883
299.44466
299.35164
299.23817
299.11371
298.98689
298.8645
298.75034
298.64732
298.55615
298.47675
298.40857
298.35066
298.30168
298.26009
298.22481
298.19476
298.16903
298.14691
298.12863
298.11361
298.1007
298.08702
298.07258
298.06447
298.06227
298.06428
298.0551
298.85399
299.08177
298.89594
298.59026
298.68868
298.70132
298.77129
298.7959
298.84839
298.89014
298.94668
299.00402
299.06891
299.1385
299.21402
299.29312
299.37371
299.45152
299.52093
299.57359
299.60048
299.59549
299.55461
299.47946
299.37631
299.25432
299.12325
298.99179
298.86595
298.74981
298.64553
298.55367
298.47396
298.40573
298.34791
298.29908
298.25765
298.22255
298.19282
298.1674
298.14548
298.12745
298.11268
298.10015
298.08701
298.07255
298.06432
298.06192
298.06373
298.05431
298.87451
299.12365
298.9072
298.64853
298.75487
298.76779
298.83884
298.86469
298.91811
298.96133
299.0192
299.07835
299.145
299.21647
299.2937
299.37415
299.45531
299.53247
299.59935
299.64657
299.6658
299.65072
299.59851
299.51204
299.39871
299.26838
299.13106
298.99525
298.86628
298.74838
298.64306
298.55068
298.4708
298.40259
298.34492
298.29629
298.25503
298.22015
298.19078
298.16567
298.14397
298.12621
298.11167
298.09948
298.08682
298.07274
298.06447
298.06177
298.06313
298.05327
298.89472
299.16627
298.92426
298.71042
298.82346
298.83678
298.90897
298.93619
298.99061
299.03539
299.09466
299.15567
299.22414
299.29747
299.37637
299.45802
299.53945
299.61547
299.67899
299.71985
299.73043
299.70434
299.64018
299.54213
299.41868
299.28028
299.13715
298.99702
298.86557
298.7461
298.63993
298.54719
298.46725
298.39916
298.3417
298.29329
298.25225
298.21762
298.18865
298.16385
298.14239
298.1249
298.11059
298.09868
298.08632
298.07285
298.06501
298.06168
298.06255
298.05196
298.91517
299.20836
298.94819
298.77727
298.89463
298.90852
298.98187
299.01059
299.06605
299.11246
299.17317
299.23609
299.30639
299.38161
299.46208
299.54473
299.62608
299.7004
299.75955
299.79321
299.79398
299.75603
299.67938
299.56958
299.43614
299.29003
299.14146
298.99742
298.86374
298.74297
298.63617
298.54322
298.46334
298.39546
298.33825
298.2901
298.2493
298.21498
298.18641
298.16193
298.14073
298.12353
298.10943
298.09772
298.08547
298.0729
298.06542
298.06195
298.06216
298.05042
298.93694
299.24966
298.98104
298.84835
298.96864
298.98322
299.05768
299.08801
299.14452
299.19263
299.25482
299.3197
299.39188
299.46895
299.55087
299.63427
299.71513
299.78704
299.84069
299.86619
299.856
299.80535
299.71577
299.59415
299.45097
299.29765
299.14369
298.9965
298.86085
298.73904
298.6318
298.53879
298.45909
298.39148
298.33458
298.28671
298.2462
298.21221
298.18408
298.15992
298.139
298.12211
298.10819
298.0966
298.08428
298.07263
298.0656
298.06225
298.06192
298.04871
298.96061
299.28962
299.02235
298.92313
299.04544
299.06093
299.13643
299.16851
299.22608
299.27595
299.33969
299.40659
299.48068
299.55957
299.6428
299.72663
299.80646
299.87511
299.92213
299.93838
299.91611
299.852
299.74913
299.61574
299.46318
299.30308
299.14421
298.9942
298.85692
298.73432
298.62684
298.53393
298.45451
298.38725
298.3307
298.28314
298.24294
298.20934
298.18166
298.15781
298.1372
298.12063
298.10689
298.09536
298.08285
298.07212
298.06564
298.06257
298.06162
298.04685
298.98687
299.32871
299.06961
299.00132
299.12504
299.14165
299.2181
299.25209
299.31076
299.36253
299.42789
299.49689
299.57292
299.65355
299.73787
299.82174
299.89992
299.96417
300.00351
300.0092
299.97378
299.89553
299.77914
299.63417
299.47275
299.30596
299.14308
298.99058
298.85199
298.72885
298.62131
298.52864
298.44961
298.38278
298.32661
298.27938
298.23954
298.20637
298.17914
298.15561
298.13535
298.11909
298.10554
298.09402
298.08133
298.0715
298.06562
298.06293
298.06118
298.04484
299.01617
299.36648
299.12901
299.08244
299.20725
299.22527
299.30268
299.33881
299.39873
299.45254
299.51963
299.59078
299.66873
299.75097
299.83608
299.91952
299.99527
300.05386
300.08443
300.07818
300.02862
299.93565
299.80565
299.64942
299.47964
299.30671
299.14025
298.98568
298.84611
298.72267
298.61526
298.52297
298.44441
298.37807
298.32231
298.27545
298.23599
298.20329
298.17653
298.15333
298.13345
298.11751
298.10413
298.09256
298.07981
298.07087
298.06555
298.06317
298.06057
298.04273
299.0486
299.40406
299.20443
299.16639
299.29219
299.31204
299.39051
299.42905
299.49032
299.54627
299.61514
299.68842
299.76823
299.85186
299.9374
300.01979
300.09215
300.14371
300.16427
300.14472
300.08005
299.97194
299.82841
299.66145
299.48343
299.30541
299.13578
298.97955
298.8393
298.71581
298.6087
298.51691
298.43894
298.37313
298.31782
298.27133
298.23231
298.20013
298.17382
298.15096
298.1315
298.11587
298.10268
298.09096
298.07841
298.07028
298.06541
298.06339
298.05978
298.04055
299.08299
299.44419
299.27924
299.25408
299.38076
299.40264
299.48216
299.52321
299.58587
299.64398
299.7146
299.78996
299.87147
299.95622
300.04173
300.12236
300.1901
300.23337
300.24245
300.20831
300.12771
300.00417
299.84737
299.67022
299.48457
299.302
299.12973
298.97225
298.83163
298.70831
298.60167
298.5105
298.43319
298.36798
298.31314
298.26705
298.2285
298.19686
298.17102
298.14851
298.12951
298.1142
298.10117
298.08921
298.07718
298.06968
298.06529
298.0636
298.0588
298.03835
299.12188
299.48904
299.3576
299.34588
299.47343
299.49736
299.57787
299.62148
299.68553
299.74579
299.81812
299.89545
299.97849
300.06403
300.14894
300.22691
300.28857
300.32226
300.31821
300.26827
300.17104
300.032
299.8624
299.67524
299.48315
299.29656
299.12216
298.96382
298.82314
298.70019
298.59418
298.50375
298.42719
298.36263
298.30828
298.26261
298.22456
298.19351
298.16812
298.14599
298.12749
298.11248
298.0996
298.08738
298.07613
298.06929
298.06524
298.06372
298.05763
298.03612
299.16449
299.53871
299.44966
299.44157
299.57011
299.59617
299.6777
299.72392
299.7894
299.85181
299.9258
300.00497
300.08928
300.17517
300.25881
300.33303
300.38704
300.40974
300.39096
300.3241
300.20972
300.05533
299.87348
299.67695
299.47915
299.28918
299.11317
298.95436
298.81387
298.69151
298.58627
298.49669
298.42095
298.35707
298.30324
298.25802
298.22052
298.19006
298.16512
298.14339
298.12543
298.11072
298.09795
298.08551
298.07526
298.06903
298.06518
298.06381
298.05628
298.03391
299.21242
299.59468
299.54628
299.54122
299.6709
299.6991
299.78171
299.83061
299.89754
299.96212
300.03772
300.11852
300.20383
300.28951
300.37104
300.4401
300.48493
300.49492
300.45986
300.37509
300.24329
300.07392
299.88008
299.67551
299.47262
299.27993
299.10281
298.94389
298.80387
298.68228
298.57795
298.48933
298.41448
298.35133
298.29804
298.25328
298.21637
298.18653
298.16202
298.14074
298.12334
298.10892
298.0962
298.08363
298.07444
298.06893
298.06542
298.06392
298.05475
298.03176
299.26502
299.65779
299.64889
299.6446
299.77557
299.80616
299.88997
299.94173
300.01012
300.07686
300.15396
300.23619
300.32203
300.40686
300.48523
300.54745
300.58165
300.57702
300.52428
300.42081
300.27156
300.08776
299.88255
299.67088
299.46371
299.26893
299.09118
298.9325
298.79321
298.67256
298.56928
298.4817
298.4078
298.34541
298.29268
298.24842
298.21212
298.18289
298.1588
298.13802
298.1212
298.10706
298.0943
298.08181
298.07373
298.06898
298.06596
298.06404
298.053
298.02972
299.3234
299.73235
299.75616
299.75205
299.88425
299.91786
300.00264
300.05747
300.12732
300.19614
300.27462
300.35792
300.44377
300.5269
300.6008
300.65435
300.67619
300.65506
300.58333
300.46063
300.29417
300.09621
299.88115
299.66312
299.45248
299.25626
299.07834
298.92024
298.78189
298.66236
298.56024
298.4738
298.40091
298.33932
298.28718
298.24343
298.20778
298.17917
298.15548
298.13526
298.11902
298.10512
298.09219
298.0802
298.07314
298.06906
298.0666
298.06404
298.05107
298.02782
299.38591
299.81049
299.86807
299.86475
299.99727
300.03432
300.12016
300.17792
300.24931
300.32006
300.39972
300.48364
300.56882
300.6492
300.71699
300.76016
300.76761
300.72823
300.63642
300.49426
300.31106
300.09961
299.87582
299.65242
299.43911
299.24205
299.0644
298.90718
298.77
298.65173
298.55089
298.46565
298.39382
298.33306
298.28153
298.23834
298.20336
298.17535
298.15205
298.13244
298.11678
298.10309
298.08992
298.07883
298.07265
298.06907
298.06698
298.06371
298.04901
298.02607
299.45514
299.89984
299.985
299.98317
300.11508
300.15588
300.24238
300.30312
300.37615
300.44874
300.5292
300.61322
300.69688
300.7732
300.83286
300.86384
300.85469
300.79543
300.68274
300.52117
300.32153
300.09822
299.86662
299.63886
299.42368
299.22637
299.04941
298.89336
298.75754
298.64068
298.54121
298.45727
298.38655
298.32665
298.27577
298.23315
298.19888
298.17145
298.14853
298.12958
298.11447
298.10092
298.08758
298.07761
298.07222
298.06902
298.06717
298.06303
298.04688
298.02449
299.53162
299.99973
300.1066
300.10764
300.23756
300.28253
300.36944
300.43337
300.50799
300.58217
300.66305
300.74637
300.82744
300.89808
300.94753
300.96431
300.93644
300.8559
300.72184
300.54124
300.32583
300.09201
299.85379
299.62267
299.40638
299.20936
299.03348
298.87887
298.7446
298.62927
298.53126
298.44866
298.37909
298.32009
298.26989
298.22788
298.19433
298.16747
298.14492
298.12669
298.11208
298.09854
298.08524
298.07647
298.07182
298.06891
298.06727
298.06191
298.04472
298.0231
299.61504
300.11115
300.23199
300.2379
300.36453
300.41376
300.50143
300.56884
300.64491
300.72034
300.80101
300.8828
300.95984
301.0227
301.05997
301.06002
301.01148
300.90855
300.75298
300.5536
300.32427
300.08102
299.83743
299.60394
299.38729
299.1911
299.01666
298.86372
298.73117
298.61749
298.52103
298.43983
298.37146
298.31339
298.2639
298.22255
298.18973
298.16342
298.14125
298.12376
298.10956
298.09585
298.08296
298.07533
298.07138
298.06884
298.06736
298.0603
298.04258
298.02192
299.70482
300.23409
300.36057
300.3731
300.49626
300.54979
300.63928
300.70956
300.78695
300.86311
300.94288
301.02179
301.09313
301.14593
301.16884
301.14974
301.07884
300.9528
300.77595
300.55855
300.31679
300.06556
299.81782
299.58291
299.3666
299.17172
298.99904
298.848
298.71731
298.60539
298.51054
298.43079
298.36365
298.30654
298.25781
298.21714
298.18508
298.1593
298.13755
298.12081
298.10688
298.09279
298.08077
298.0742
298.07091
298.06878
298.06734
298.05811
298.04052
298.02097
299.80189
300.36682
300.4945
300.51279
300.63294
300.69215
300.78246
300.85539
300.93391
301.01025
301.08798
301.16262
301.22608
301.26642
301.27236
301.23182
301.13714
300.98758
300.78965
300.55628
300.30341
300.04572
299.79508
299.55971
299.34439
299.15127
298.98065
298.83172
298.70304
298.59297
298.4998
298.42155
298.35566
298.29955
298.25163
298.21168
298.18038
298.15513
298.13383
298.11781
298.10397
298.08947
298.07863
298.07309
298.07042
298.06868
298.06711
298.05533
298.03857
298.02018
299.90878
300.50942
300.63607
300.65823
300.77796
300.8402
300.93101
301.00641
301.0855
301.16115
301.2357
301.30401
301.35707
301.38266
301.3689
301.30497
301.18556
301.01258
300.79451
300.54678
300.28456
300.02189
299.76955
299.53457
299.32084
299.12988
298.96161
298.81496
298.6884
298.58026
298.48883
298.4121
298.3475
298.29243
298.24535
298.20614
298.1756
298.15088
298.13011
298.11474
298.10072
298.08604
298.07651
298.07198
298.06987
298.06852
298.06658
298.05225
298.03674
298.01946
300.02771
300.66608
300.7828
300.81037
300.92775
300.99363
301.08452
301.162
301.24106
301.31503
301.3847
301.44463
301.4845
301.49252
301.45644
301.36742
301.22264
301.02637
300.79049
300.53003
300.26029
299.99421
299.74134
299.50759
299.29602
299.1076
298.94191
298.79771
298.6734
298.56727
298.47762
298.40246
298.33917
298.28516
298.23897
298.20053
298.17073
298.14654
298.12639
298.11153
298.09698
298.0827
298.07443
298.07086
298.06922
298.0682
298.06554
298.04915
298.03502
298.01883
300.1566
300.82629
300.93612
300.97111
301.08378
301.15232
301.2428
301.32146
301.39961
301.47066
301.53372
301.58227
301.60644
301.5939
301.53332
301.41802
301.24786
301.02973
300.77764
300.50655
300.23112
299.96312
299.71078
299.479
299.2701
299.08454
298.92165
298.78005
298.65807
298.55402
298.46619
298.39261
298.33065
298.27774
298.23247
298.19483
298.16572
298.14208
298.12263
298.10809
298.09282
298.07949
298.07243
298.06972
298.06843
298.06769
298.06372
298.04622
298.03345
298.01827
300.29916
300.99492
301.09427
301.13646
301.24454
301.3153
301.4046
301.4836
301.55982
301.62643
301.68054
301.71515
301.72038
301.68432
301.59731
301.45494
301.25969
301.0221
300.75589
300.4764
300.1972
299.92873
299.67798
299.44889
299.24311
299.06072
298.90083
298.76196
298.64241
298.5405
298.45454
298.38256
298.32195
298.27017
298.22585
298.18901
298.16054
298.13747
298.11875
298.1043
298.08842
298.07641
298.07052
298.06855
298.06745
298.06686
298.06085
298.0436
298.03203
298.01776
300.45612
301.17011
301.25876
301.3079
301.40987
301.48187
301.56908
301.64697
301.71975
301.77996
301.82266
301.84041
301.82363
301.76165
301.6468
301.47729
301.25901
301.00373
300.72595
300.44028
300.1591
299.8915
299.64327
299.41748
299.21522
299.03626
298.87953
298.74349
298.62646
298.52673
298.44265
298.37229
298.31305
298.26241
298.21907
298.18304
298.15516
298.13268
298.11467
298.09996
298.08395
298.07345
298.06868
298.06736
298.06641
298.06566
298.05731
298.04116
298.03069
298.01732
300.62699
301.3514
301.42828
301.48209
301.5788
301.65077
301.73435
301.80932
301.87656
301.92792
301.95672
301.9549
301.91319
301.82308
301.67957
301.48385
301.24468
300.97445
300.68779
300.3983
300.11698
299.85154
299.6067
299.38478
299.18642
299.01112
298.85772
298.72464
298.61018
298.51269
298.43054
298.36181
298.30394
298.25446
298.2121
298.17688
298.14952
298.12768
298.1103
298.09488
298.07962