/*--------------------------------*- C++ -*----------------------------------*\
| =========                 |                                                 |
| \\      /  F ield         | OpenFOAM: The Open Source CFD Toolbox           |
|  \\    /   O peration     | Version:  2306                                  |
|   \\  /    A nd           | Website:  www.openfoam.com                      |
|    \\/     M anipulation  |                                                 |
\*---------------------------------------------------------------------------*/
FoamFile
{
    version     2.0;
    format      ascii;
    arch        "LSB;label=32;scalar=64";
    class       volVectorField;
    location    "0.019";
    object      U;
}
// * * * * * * * * * * * * * * * * * * * * * * * * * * * * * * * * * * * * * //

dimensions      [0 1 -1 0 0 0 0];

internalField   nonuniform List<vector> 
20000
(
(64.080445 1.6047604e-17 -0.19173192)
(76.473154 -7.2073657e-18 -0.11612272)
(84.431861 2.6593788e-17 -0.18843989)
(91.146351 -1.6357024e-17 -0.22262709)
(97.071255 -1.5168842e-17 -0.27396663)
(101.78306 2.0891431e-17 -0.33332559)
(103.16139 -1.6842216e-17 -0.33780518)
(103.11569 -2.1971688e-17 -0.28626055)
(102.97924 1.2609709e-17 -0.29583028)
(102.89018 3.5555907e-17 -0.220942)
(102.74302 -4.6669457e-17 -0.22310903)
(102.60497 -1.3345028e-17 -0.13562511)
(102.4251 6.4152373e-17 -0.11024055)
(102.2319 -7.3539178e-17 -0.0099201905)
(102.00063 4.135803e-17 0.058144821)
(101.74128 -2.5765685e-17 0.18490314)
(101.44236 3.7415446e-17 0.31070797)
(101.1062 -4.3330247e-17 0.48866804)
(100.72911 8.4753048e-17 0.69427134)
(100.31326 1.3852428e-17 0.95786397)
(99.862363 -6.1449587e-17 1.2753927)
(99.384787 -5.9035389e-18 1.6651354)
(98.894413 -4.2431923e-17 2.1300943)
(98.410425 3.9273931e-17 2.677648)
(97.957838 3.1665472e-18 3.3039549)
(97.563851 2.7333645e-17 3.9980281)
(97.252992 -2.6291908e-17 4.7374135)
(97.046036 9.5086581e-17 5.4943551)
(96.953813 1.4269567e-16 6.2339562)
(96.971661 -5.0012268e-17 6.923291)
(97.088703 2.4460164e-17 7.5398859)
(97.286621 -8.5450585e-17 8.070635)
(97.544591 1.9574515e-16 8.5134782)
(97.841485 4.1784857e-17 8.8749152)
(98.158215 -1.4050561e-16 9.1666615)
(98.477907 1.6534681e-16 9.4025178)
(98.788361 -1.0798236e-17 9.5963466)
(99.078474 -6.9491328e-17 9.7596234)
(99.342001 2.3212524e-16 9.9011817)
(99.577486 9.5350544e-17 10.029928)
(99.780259 -1.6115878e-16 10.148143)
(99.948705 -1.2538054e-16 10.255308)
(100.08584 -2.8429892e-16 10.354718)
(100.19493 -1.6567697e-16 10.448729)
(100.27794 4.4681996e-17 10.532634)
(100.33689 2.6861864e-17 10.612174)
(100.38877 -7.2864381e-17 10.691479)
(100.425 2.8361988e-17 10.760375)
(100.47165 -1.065567e-16 10.823565)
(100.44124 4.3795751e-18 10.740403)
(64.164471 4.4154607e-17 -0.45864816)
(76.615663 -8.4771241e-18 -0.41140016)
(84.618316 1.6560302e-17 -0.5217925)
(91.368364 -3.9343022e-17 -0.58068204)
(97.302023 2.2747594e-17 -0.65535064)
(101.86343 -2.5924153e-17 -0.72543406)
(103.01416 7.6583265e-17 -0.73224818)
(102.9611 -3.4319109e-17 -0.67664938)
(102.82096 1.405274e-17 -0.69038874)
(102.73063 -2.7635893e-17 -0.61009898)
(102.57964 -3.4147214e-17 -0.61431334)
(102.43851 8.622544e-17 -0.52071492)
(102.25395 -6.4125799e-17 -0.49381176)
(102.05586 9.6024926e-18 -0.38680365)
(101.8187 -2.7842317e-17 -0.3134504)
(101.55274 8.1537396e-17 -0.17823519)
(101.24643 -2.5569135e-17 -0.043077361)
(100.90215 5.5812968e-18 0.14684206)
(100.5165 -5.6173267e-17 0.3668474)
(100.09197 2.9904288e-17 0.64792094)
(99.632905 -4.5415482e-17 0.9864837)
(99.148562 -2.0477603e-17 1.4010473)
(98.653927 6.2701436e-17 1.894801)
(98.169562 -1.26711e-16 2.4747287)
(97.721764 -4.6391843e-17 3.1361585)
(97.338309 -8.581491e-17 3.8662412)
(97.043434 7.0511262e-17 4.6409005)
(96.859237 -5.8650903e-17 5.4305903)
(96.79146 -2.9186625e-16 6.1983125)
(96.834813 -5.0251266e-18 6.9102441)
(96.976193 -2.200492e-17 7.5439674)
(97.195746 1.8874057e-17 8.0867177)
(97.471797 7.2648764e-17 8.5372161)
(97.783074 -1.7520948e-16 8.9028065)
(98.110927 -1.6746313e-16 9.1960226)
(98.439445 -2.3017542e-16 9.431403)
(98.75664 -4.1387379e-16 9.623352)
(99.051762 1.7468756e-16 9.7838949)
(99.319292 -7.2176471e-16 9.9223815)
(99.558005 1.1652616e-16 10.047894)
(99.763455 -2.9348807e-16 10.162966)
(99.934409 6.2801727e-16 10.267228)
(100.07386 -2.2416597e-16 10.363939)
(100.18508 3.9661982e-16 10.45571)
(100.26986 1.063065e-16 10.537702)
(100.33041 -2.5480227e-16 10.615782)
(100.3839 6.0627958e-16 10.694191)
(100.42332 -4.2793441e-16 10.763205)
(100.46455 -9.3225836e-17 10.825701)
(100.44013 -1.9172348e-17 10.74357)
(64.261849 -1.6873108e-16 -0.71151972)
(76.776454 -9.7646503e-17 -0.72376435)
(84.824862 6.5316456e-17 -0.86220784)
(91.610173 9.0223594e-17 -0.94967735)
(97.553271 -1.1873975e-16 -1.0518036)
(101.93074 -6.7005511e-18 -1.1326962)
(102.8388 6.4455622e-17 -1.1410334)
(102.79476 8.3852094e-17 -1.0791714)
(102.65031 -6.1007842e-17 -1.094463)
(102.55787 -6.3517387e-17 -1.0068714)
(102.40259 5.4225166e-17 -1.0113957)
(102.25779 1.6974174e-17 -0.91100725)
(102.06826 -6.618612e-17 -0.88132182)
(101.86489 3.8462802e-17 -0.76731738)
(101.62152 -8.2339904e-17 -0.68773546)
(101.3486 -5.5913531e-17 -0.54363847)
(101.03455 1.0440443e-16 -0.3981763)
(100.68181 -2.1025124e-17 -0.19547787)
(100.28728 -3.2827207e-17 0.04016074)
(99.853782 -4.6902037e-17 0.34006493)
(99.386405 -2.7692179e-17 0.70136315)
(98.895324 4.4336027e-17 1.1426601)
(98.396759 1.4324669e-16 1.6673465)
(97.912743 -5.9917896e-17 2.2818532)
(97.47093 -8.4722417e-17 2.9803984)
(97.099406 8.5033599e-17 3.7480112)
(96.82293 -7.2276147e-17 4.5590614)
(96.66373 -2.1430564e-17 5.3816078)
(96.622406 4.0220598e-16 6.1766038)
(96.693581 -1.3643602e-16 6.909871)
(96.861258 2.6287602e-16 7.5590351)
(97.104105 6.0330793e-17 8.1119992)
(97.399636 -4.3761462e-16 8.5684377)
(97.726486 -3.1053676e-16 8.9366577)
(98.066246 4.2685311e-16 9.2301388)
(98.403689 -3.9548002e-16 9.4641122)
(98.727495 1.4486035e-16 9.6534993)
(99.027519 -5.1053091e-16 9.8108144)
(99.298835 2.0953469e-16 9.9459049)
(99.540509 -8.9309891e-16 10.067931)
(99.748468 2.553105e-16 10.179611)
(99.921702 5.784677e-16 10.280801)
(100.06312 5.2832373e-16 10.374687)
(100.17612 -7.270291e-16 10.464015)
(100.26233 1.0507771e-15 10.543948)
(100.32432 6.4791106e-18 10.620506)
(100.3793 -1.761189e-15 10.697843)
(100.42174 1.1042808e-16 10.766509)
(100.46192 3.2292179e-17 10.827819)
(100.43821 3.9194631e-16 10.746958)
(64.34744 1.3055877e-16 -0.9695185)
(76.923772 -1.4335582e-16 -1.0397192)
(85.017016 6.9429004e-17 -1.2079328)
(91.835215 -7.1019748e-17 -1.3234751)
(97.787479 7.1647899e-17 -1.4531485)
(101.96142 1.0217085e-16 -1.5413322)
(102.64341 -4.6915543e-17 -1.5520561)
(102.61254 -1.2937645e-16 -1.4847511)
(102.46416 1.0331029e-16 -1.5026896)
(102.36995 -7.7136545e-17 -1.4074807)
(102.21049 2.4574212e-17 -1.4125726)
(102.06209 -3.469967e-17 -1.3051728)
(101.86751 1.2849183e-17 -1.2726302)
(101.65874 2.7499795e-17 -1.1513257)
(101.40896 7.3988054e-17 -1.0651799)
(101.12886 -4.3646788e-17 -0.91178211)
(100.80684 3.4430333e-17 -0.75549714)
(100.44541 -2.4728039e-17 -0.53941522)
(100.0418 1.0924894e-17 -0.28739345)
(99.599259 3.0936857e-17 0.032228777)
(99.123632 9.8718968e-17 0.41731024)
(98.626115 8.6410164e-18 0.88652438)
(98.124263 5.2678915e-17 1.4434215)
(97.641673 2.7234815e-16 2.0937855)
(97.207333 4.7073141e-17 2.8304591)
(96.849368 -1.4669354e-16 3.636357)
(96.593902 -1.6178344e-16 4.4842632)
(96.461293 1.3215422e-16 5.3394274)
(96.448481 -7.5916496e-17 6.1609681)
(96.549039 1.8438082e-16 6.9147408)
(96.744237 2.3696483e-16 7.5783486)
(97.011248 9.482151e-17 8.1405738)
(97.326827 -2.9162833e-16 8.6021307)
(97.669556 2.0858847e-16 8.9723457)
(98.021491 3.6049929e-16 9.2655601)
(98.368087 2.1965604e-16 9.4977268)
(98.698565 -4.8123535e-16 9.6842967)
(99.003488 1.2940385e-16 9.8382069)
(99.278575 -4.6070898e-16 9.9697897)
(99.52317 -6.6019632e-17 10.088254)
(99.733588 6.0051786e-16 10.196466)
(99.909074 -6.409727e-16 10.29454)
(100.05246 2.5198352e-15 10.385594)
(100.16723 -1.837433e-16 10.472452)
(100.25485 -1.0924389e-15 10.550308)
(100.31824 -1.7786138e-16 10.625345)
(100.37464 2.3214986e-15 10.701606)
(100.41977 3.6664418e-16 10.769706)
(100.4572 5.7384836e-16 10.829894)
(100.43629 -4.495341e-16 10.750691)
(64.428449 9.1565312e-17 -1.2336754)
(77.066863 1.4965462e-16 -1.3600393)
(85.204999 -9.6981848e-17 -1.5601373)
(92.053619 6.1230551e-17 -1.7043749)
(98.011975 -1.6548938e-19 -1.8628838)
(101.95945 -1.3524452e-16 -1.955655)
(102.45278 -1.1615636e-17 -1.9683009)
(102.41546 1.1396846e-16 -1.8942825)
(102.263 -7.0522589e-17 -1.9154061)
(102.1669 2.048477e-17 -1.8122368)
(102.0031 -3.7367714e-17 -1.817781)
(101.85093 1.2664492e-16 -1.7031037)
(101.65114 -1.4139887e-16 -1.6673618)
(101.43675 -1.9933332e-17 -1.5384723)
(101.18035 6.7613649e-17 -1.4452737)
(100.8928 -2.42973e-17 -1.2821427)
(100.56253 3.8484583e-17 -1.1143777)
(100.19212 1.1630349e-16 -0.88420513)
(99.779214 -8.3137142e-17 -0.6148708)
(99.327474 -9.7660991e-17 -0.27444442)
(98.843629 -1.5958908e-17 0.13572162)
(98.339969 -2.8249363e-16 0.63431607)
(97.835504 -7.9765005e-17 1.2250133)
(97.355506 -2.2487446e-16 1.9128034)
(96.930195 -2.0415451e-16 2.6888292)
(96.5877 2.5332529e-16 3.5340035)
(96.356111 3.3709251e-16 4.419214)
(96.251724 1.4833879e-16 5.3066563)
(96.269798 6.505393e-17 6.1538986)
(96.401472 -4.9493103e-16 6.9270545)
(96.625583 -8.1417574e-16 7.6038187)
(96.91778 3.3525634e-16 8.1740492)
(97.254133 1.3618324e-15 8.6396129)
(97.613244 1.0643512e-16 9.0109076)
(97.977621 -1.4628865e-15 9.3031642)
(98.333461 5.665532e-16 9.5330214)
(98.670685 -3.5555556e-16 9.7163614)
(98.980512 8.9749801e-16 9.8665751)
(99.259259 4.8163464e-16 9.9944754)
(99.506642 -4.881775e-16 10.109261)
(99.719384 -2.5182622e-15 10.213894)
(99.896998 5.9990773e-16 10.308776)
(100.04223 -3.6589725e-15 10.396965)
(100.15865 -3.1836808e-16 10.481291)
(100.24759 2.0014852e-16 10.557012)
(100.31231 3.7705356e-16 10.630508)
(100.37022 -1.360576e-15 10.70565)
(100.41768 4.1009374e-16 10.772949)
(100.45421 -1.09861e-16 10.831933)
(100.43429 8.6707087e-17 10.754743)
(64.504714 -4.2932337e-17 -1.5038873)
(77.204624 1.0680664e-16 -1.687119)
(85.387126 -5.1859229e-17 -1.9203747)
(92.262391 1.0151782e-16 -2.0936327)
(98.221626 -1.5853912e-17 -2.2819557)
(101.92202 9.7549518e-17 -2.3754057)
(102.24006 -4.2211517e-17 -2.3894416)
(102.20295 -3.6274071e-17 -2.3073415)
(102.04626 3.1931908e-18 -2.3319375)
(101.94823 -5.0521296e-17 -2.2204785)
(101.77999 -7.4868393e-17 -2.2264458)
(101.62395 5.6471384e-18 -2.1042838)
(101.4188 6.3165685e-17 -2.0650835)
(101.19859 9.8319465e-17 -1.9283711)
(100.93534 -2.9941079e-17 -1.8276811)
(100.64007 -3.4659301e-17 -1.6543945)
(100.30126 -8.902052e-18 -1.4744992)
(99.921605 -1.0726505e-18 -1.2295031)
(99.499157 -3.5925801e-17 -0.94189476)
(99.038109 1.4333684e-17 -0.5795312)
(98.546127 -4.1044929e-17 -0.14293477)
(98.036707 1.7422486e-16 0.38655105)
(97.530436 2.4935722e-16 1.012674)
(97.054342 3.7259884e-16 1.7394385)
(96.639667 5.0458035e-16 2.5559944)
(96.314988 -7.2624518e-17 3.4414149)
(96.110077 6.5409772e-17 4.3641755)
(96.035695 4.8669384e-16 5.2833748)
(96.08693 -9.3895977e-17 6.1554176)
(96.251387 -1.6548788e-16 6.9467103)
(96.505672 3.9887411e-17 7.6352848)
(96.823935 -1.0253521e-15 8.2122363)
(97.18164 -1.7150386e-15 8.6806914)
(97.557489 -1.0773777e-15 9.0521649)
(97.934521 1.5989187e-15 9.3427732)
(98.299706 1.0507862e-15 9.5698131)
(98.643659 4.6544456e-16 9.7495758)
(98.958337 -1.8740091e-16 9.8958483)
(99.24072 -7.9749668e-16 10.019857)
(99.490825 1.5514544e-15 10.130835)
(99.705759 2.5528762e-15 10.231795)
(99.885363 -6.0685604e-16 10.32341)
(100.03234 1.7615729e-15 10.408707)
(100.15034 -1.6294802e-16 10.490459)
(100.24049 -2.5700386e-16 10.563986)
(100.30648 -1.1299799e-15 10.635934)
(100.3662 -8.7993376e-16 10.709913)
(100.41528 -5.865988e-16 10.776205)
(100.45025 -1.7560915e-16 10.833937)
(100.43224 1.5523898e-16 10.759108)
(64.573782 -2.9534511e-16 -1.7790267)
(77.335806 -6.8641212e-17 -2.0193364)
(85.563476 8.8660896e-17 -2.2875426)
(92.462479 -5.692668e-17 -2.4898687)
(98.413078 3.4403171e-17 -2.7087442)
(101.84968 3.7523271e-17 -2.7985672)
(102.01208 -1.1741691e-16 -2.8144527)
(101.97496 4.7385735e-17 -2.7236369)
(101.81392 -5.816441e-18 -2.7519645)
(101.71389 1.3868003e-16 -2.6318509)
(101.54105 -5.1235314e-17 -2.6381882)
(101.38095 -3.3105148e-17 -2.5083665)
(101.17024 5.9629777e-18 -2.4654517)
(100.94395 2.6656451e-17 -2.3207027)
(100.67356 -5.6010782e-17 -2.2120658)
(100.37024 7.1431998e-17 -2.0281834)
(100.02258 -2.1240084e-17 -1.8354619)
(99.633364 1.3327005e-16 -1.5748513)
(99.201139 -6.2930454e-17 -1.2679322)
(98.73068 -1.7009506e-17 -0.88240355)
(98.230682 2.2407916e-17 -0.41792554)
(97.715956 -2.4535315e-16 0.14407602)
(97.208816 -2.227412e-16 0.80735008)
(96.738082 -3.7864116e-17 1.5746541)
(96.335768 -7.7904457e-17 2.4329844)
(96.031692 -1.2980998e-16 3.3596147)
(95.855971 -3.9233849e-16 4.3199859)
(95.813792 -1.4553723e-16 5.2702423)
(95.900379 -1.0975483e-16 6.1660894)
(96.099279 1.3251052e-15 6.9741134)
(96.384944 -2.0391198e-16 7.6730366)
(96.730088 -5.2409393e-17 8.2553359)
(97.109664 1.3067673e-15 8.725502)
(97.502559 1.0267832e-15 9.0962048)
(97.892404 8.5115641e-17 9.3844431)
(98.266982 -1.3885327e-15 9.6081378)
(98.617653 -6.5506978e-16 9.7839471)
(98.937118 4.9501798e-16 9.926022)
(99.223013 -3.6216664e-16 10.045966)
(99.475734 1.7705291e-15 10.153008)
(99.692795 -3.8578885e-16 10.250189)
(99.874271 -5.663478e-16 10.338444)
(100.02286 -2.0276275e-15 10.420815)
(100.14232 1.9940092e-17 10.499958)
(100.23358 2.9081541e-16 10.571228)
(100.30074 -1.2717363e-15 10.64163)
(100.36247 2.9439089e-15 10.714391)
(100.41267 8.6135227e-16 10.779487)
(100.44713 5.5092268e-16 10.835908)
(100.43013 5.0332408e-17 10.763774)
(64.635904 2.1096582e-16 -2.0595565)
(77.461299 -2.4324829e-16 -2.3556588)
(85.73539 4.0317297e-17 -2.6617982)
(92.65569 -3.3798147e-17 -2.8931465)
(98.582923 1.1769743e-16 -3.142778)
(101.73769 -5.8015545e-17 -3.2245421)
(101.76817 6.9772403e-17 -3.242724)
(101.73169 -1.0030675e-16 -3.1424687)
(101.56608 -9.0515259e-17 -3.174968)
(101.46387 1.29195e-16 -3.0460146)
(101.28619 -5.9374448e-17 -3.0527509)
(101.12177 1.8400638e-17 -2.915147)
(100.9052 -5.5148436e-17 -2.8682461)
(100.67251 -3.1330391e-17 -2.7152297)
(100.39465 -9.2478669e-17 -2.5981454)
(100.08292 7.0979097e-17 -2.4031832)
(99.726043 -7.8444663e-17 -2.1968847)
(99.326941 7.9528172e-19 -1.9197999)
(98.884695 -1.848269e-17 -1.5924489)
(98.404743 -4.6994648e-17 -1.1824314)
(97.896899 1.5526535e-16 -0.68851943)
(97.377424 1.4846459e-17 -0.092269261)
(96.870507 -1.9459629e-16 0.60996378)
(96.406747 -4.7730891e-16 1.4193695)
(96.018736 -9.6849833e-17 2.3207736)
(95.73841 -2.7872257e-16 3.2894579)
(95.594008 -5.3391761e-17 4.2873458)
(95.586737 -7.2233005e-16 5.267796)
(95.710733 -5.2018442e-16 6.1862959)
(95.945683 -9.6922528e-16 7.0095107)
(96.263841 1.5803418e-15 7.7172186)
(96.636584 4.830624e-16 8.3034246)
(97.038455 1.8295137e-16 8.7740774)
(97.448624 -5.8534098e-16 9.1430331)
(97.851383 -8.0268532e-16 9.4281618)
(98.235365 -5.2479761e-16 9.6479723)
(98.592702 2.5071218e-15 9.8194497)
(98.916872 -3.5192195e-15 9.9570682)
(99.206186 4.2208922e-15 10.072764)
(99.461407 -4.116765e-15 10.175749)
(99.680441 -1.2069586e-16 10.26908)
(99.863679 1.7474637e-16 10.353886)
(100.01383 -1.4998401e-15 10.433262)
(100.13466 8.6875698e-16 10.509761)
(100.22688 -1.8421904e-15 10.578714)
(100.2951 1.8927038e-15 10.647578)
(100.35887 -1.6297937e-15 10.719076)
(100.40983 -6.1900711e-16 10.782799)
(100.44359 -2.2250394e-15 10.837845)
(100.42797 -1.4590112e-16 10.768734)
(64.692401 -3.8960001e-17 -2.3475458)
(77.582049 -4.9553961e-17 -2.6954714)
(85.903933 -7.2270243e-17 -3.0430539)
(92.844278 3.1379949e-17 -3.3037199)
(98.728481 -3.2366208e-18 -3.5836738)
(101.57941 -9.3857605e-17 -3.6531582)
(101.50913 8.2694954e-17 -3.6747438)
(101.47308 1.3160489e-16 -3.5644256)
(101.30259 -3.082384e-16 -3.6013546)
(101.19796 2.5877439e-16 -3.4632356)
(101.01516 6.7490484e-17 -3.4702342)
(100.8461 -9.3297875e-20 -3.3246133)
(100.62337 2.5796832e-17 -3.2733395)
(100.38389 -4.2449827e-17 -3.1117647)
(100.0982 6.8349588e-17 -2.9856633)
(99.777647 -1.9124341e-16 -2.7790787)
(99.411165 9.7842976e-17 -2.5583798)
(99.001831 4.4587532e-17 -2.2638737)
(98.549324 -2.6749317e-19 -1.9148746)
(98.059827 4.8984027e-17 -1.4789345)
(97.544372 -2.6532038e-16 -0.95392088)
(97.020817 4.1679674e-16 -0.32156802)
(96.515373 3.2541186e-16 0.42151129)
(96.060334 2.0903836e-16 1.2745804)
(95.68887 1.2864577e-16 2.2204211)
(95.435686 3.9759332e-16 3.2318118)
(95.324665 7.0089334e-16 4.2669474)
(95.355203 -1.5576339e-16 5.2766201)
(95.518621 1.3228956e-16 6.216403)
(95.791158 -1.8752711e-16 7.0531403)
(96.142831 -1.1699896e-15 7.7679674)
(96.543792 -9.5483375e-17 8.3565723)
(96.968294 -3.3211748e-16 8.8264466)
(97.395892 -6.4562662e-17 9.1926544)
(97.811606 -1.2158159e-15 9.473919)
(98.204956 6.3395282e-16 9.6892974)
(98.568878 1.0910824e-15 9.8560594)
(98.897655 6.3121644e-16 9.9889609)
(99.190281 -1.2013128e-15 10.100226)
(99.447894 2.6326789e-15 10.19903)
(99.668784 1.2361595e-15 10.288429)
(99.853633 1.0596478e-15 10.369719)
(100.00519 4.7853594e-15 10.446047)
(100.12732 5.3189561e-16 10.519835)
(100.22044 3.5948877e-15 10.58642)
(100.28959 3.3129146e-16 10.653759)
(100.35539 -9.5852997e-16 10.723954)
(100.40689 1.5470512e-15 10.786154)
(100.44037 1.5604455e-15 10.839767)
(100.42574 -2.4460258e-16 10.773974)
(64.743586 7.7364821e-17 -2.6409838)
(77.697701 4.3088352e-17 -3.0422217)
(86.069245 1.181765e-16 -3.4323281)
(93.028658 -1.0280105e-16 -3.7230726)
(98.844083 -2.8164939e-16 -4.0320865)
(101.37913 1.1128424e-16 -4.0850612)
(101.23438 1.8432782e-17 -4.1110814)
(101.1986 1.0482879e-16 -3.9898398)
(101.02301 -1.1468503e-16 -4.031231)
(100.9158 4.2999305e-18 -3.8834921)
(100.72761 1.415089e-16 -3.8905278)
(100.55361 -1.4919833e-16 -3.7366425)
(100.32437 1.662157e-16 -3.680574)
(100.07769 -1.1941228e-16 -3.5101317)
(99.78373 8.9318462e-17 -3.3743838)
(99.453919 8.6452705e-17 -3.1555603)
(99.077419 -2.2841864e-16 -2.9195492)
(98.657505 2.6953553e-16 -2.606573)
(98.194513 -1.4431657e-16 -2.2345993)
(97.695459 -8.0351318e-17 -1.7711869)
(97.172706 4.3232925e-16 -1.2132812)
(96.645875 5.0788563e-17 -0.54284968)
(96.143315 -5.913899e-16 0.24302291)
(95.698837 2.6757263e-16 1.1413435)
(95.346661 -4.0527313e-16 2.1330041)
(95.123995 1.4585652e-16 3.1875566)
(95.048672 9.3048379e-17 4.2594369)
(95.119856 3.6806789e-16 5.297253)
(95.324715 6.315458e-16 6.2567336)
(95.636287 3.5394423e-16 7.1051917)
(96.022391 -5.2848245e-16 7.8253768)
(96.452082 8.3127513e-16 8.414814)
(96.899456 -1.6727114e-16 8.8826113)
(97.344557 2.1895974e-16 9.2450523)
(97.773209 3.8497021e-16 9.521689)
(98.175846 -1.8483783e-15 9.7320829)
(98.546236 -4.4520201e-15 9.8937457)
(98.879513 3.3499542e-15 10.02167)
(99.175343 -1.2561962e-15 10.128323)
(99.435225 -1.6730374e-15 10.222823)
(99.657834 -3.4986737e-15 10.308213)
(99.844165 -1.6684808e-15 10.38592)
(99.99702 -3.2142964e-15 10.459142)
(100.1203 7.8671454e-16 10.530162)
(100.21419 -8.0316637e-16 10.594329)
(100.28421 -2.659194e-15 10.660152)
(100.35212 -7.0316335e-16 10.728999)
(100.40387 -3.2797198e-15 10.789558)
(100.43701 2.3816432e-15 10.841686)
(100.42346 7.4358281e-18 10.779485)
(64.788805 4.5357439e-16 -2.9396898)
(77.807542 1.5575091e-16 -3.3952841)
(86.22988 -1.0150708e-16 -3.8292176)
(93.209601 2.1459955e-16 -4.1508536)
(98.924026 -1.8788867e-16 -4.4865054)
(101.136 1.9086162e-16 -4.5192846)
(100.94398 -2.0255534e-16 -4.5507997)
(100.9082 1.9404237e-17 -4.4180244)
(100.72721 2.2118236e-18 -4.464172)
(100.61714 1.8116111e-17 -4.3065802)
(100.4232 -3.527971e-17 -4.3135543)
(100.24385 6.4723062e-17 -4.1512203)
(100.00767 -1.7884727e-17 -4.0898909)
(99.753339 3.8223761e-17 -3.9102063)
(99.450666 -1.35914e-16 -3.7640796)
(99.111151 -1.4084512e-17 -3.5322989)
(98.724226 9.5298399e-17 -3.2799618)
(98.293396 -1.7167665e-16 -2.9473573)
(97.819722 2.9589538e-16 -2.5509708)
(97.311155 2.015109e-16 -2.0584121)
(96.781512 4.4197551e-17 -1.4656911)
(96.252371 -1.2142179e-16 -0.75508658)
(95.754279 3.3739402e-17 0.075552865)
(95.322368 -4.6177253e-16 1.0207898)
(94.99278 4.4347711e-16 2.0596102)
(94.803693 -1.0656509e-16 3.1575775)
(94.766874 -8.5645102e-16 4.2654371)
(94.881435 -4.3298898e-16 5.3301828)
(95.129721 7.6477761e-17 6.3075667)
(95.481678 -6.3121303e-16 7.1658092)
(95.903013 8.6002115e-16 7.8895017)
(96.361832 1.6154177e-15 8.4781537)
(96.83222 -8.4745783e-16 8.9425499)
(97.294819 -3.9305641e-16 9.3001946)
(97.736329 2.0714424e-15 9.5714351)
(98.148123 9.10686e-16 9.7762918)
(98.524846 -1.0218598e-16 9.9324729)
(98.862498 -1.7092959e-15 10.055164)
(99.161386 -1.7948559e-15 10.157027)
(99.423382 5.4164384e-16 10.247104)
(99.647571 5.0619495e-15 10.32841)
(99.835241 1.9794742e-15 10.402474)
(99.989315 3.8166868e-15 10.472534)
(100.11363 3.0979296e-16 10.540727)
(100.2082 -1.5556576e-15 10.602432)
(100.27918 6.4639464e-16 10.666736)
(100.34905 5.5011738e-16 10.734164)
(100.40081 3.5938968e-15 10.79302)
(100.43365 -3.0424598e-15 10.843626)
(100.42119 -4.4364623e-16 10.785253)
(64.829459 7.7989573e-16 -3.2424492)
(77.912304 -6.4442759e-16 -3.7527918)
(86.385315 8.8844424e-17 -4.2320549)
(93.388866 1.2996008e-16 -4.5858764)
(98.964511 -1.0587276e-16 -4.9449419)
(100.84925 3.9079113e-16 -4.9558951)
(100.63763 -2.1471707e-16 -4.9944763)
(100.6014 2.4749807e-17 -4.8496459)
(100.41452 -1.0557549e-16 -4.900807)
(100.3012 5.8451726e-17 -4.7330125)
(100.10113 -1.4283123e-16 -4.7396289)
(99.916005 5.2603645e-17 -4.5684759)
(99.672534 2.6232049e-17 -4.5012171)
(99.41013 7.8159481e-17 -4.311785)
(99.098346 -1.5708745e-16 -4.1544372)
(98.748707 5.012746e-17 -3.9088906)
(98.350968 2.0389699e-16 -3.639125)
(97.908907 -2.671144e-16 -3.2856284)
(97.424395 -2.025376e-16 -2.8632743)
(96.906421 -1.7046716e-16 -2.3397653)
(96.370417 -4.2717259e-18 -1.7101654)
(95.840113 -6.6981041e-17 -0.95718053)
(95.348265 3.0998161e-16 -0.079782246)
(94.931204 3.9380049e-16 0.91412919)
(94.627968 1.9829357e-16 2.0012866)
(94.475138 -9.5786879e-16 3.1427523)
(94.480214 -9.9713637e-17 4.285586)
(94.64074 -9.3960208e-16 5.37583)
(94.934379 -5.7336753e-16 6.3691336)
(95.327954 1.5711601e-15 7.2350902)
(95.785193 -5.2591259e-16 7.9603575)
(96.27342 -3.7092119e-15 8.5465641)
(96.766861 -1.8577948e-16 9.0062173)
(97.246876 6.2749209e-16 9.3580312)
(97.701097 -3.1850675e-16 9.6231086)
(98.121875 1.451247e-15 9.8218791)
(98.504783 8.8626287e-16 9.9721984)
(98.846651 1.5207816e-15 10.089403)
(99.148389 4.9593951e-16 10.186309)
(99.412292 2.0453232e-15 10.271853)
(99.637922 -3.7493208e-15 10.349007)
(99.826785 -1.1429929e-15 10.419376)
(99.981988 -9.3037322e-16 10.48622)
(100.10734 -2.5734054e-16 10.551516)
(100.2025 1.8168169e-15 10.610728)
(100.27463 9.0142032e-16 10.673489)
(100.34619 1.7313095e-15 10.739444)
(100.39773 -2.2578379e-15 10.796536)
(100.43021 4.9591015e-16 10.84565)
(100.41894 1.2474684e-15 10.791131)
(64.86224 -2.9898345e-16 -3.5517631)
(78.00819 2.1815327e-16 -4.1181654)
(86.532516 1.0058155e-16 -4.6439159)
(93.565489 -6.8736522e-17 -5.0305891)
(98.963369 -2.6325446e-16 -5.4082155)
(100.52063 4.1348845e-16 -5.3970281)
(100.31313 -2.9768943e-16 -5.4439415)
(100.2764 3.1745366e-16 -5.2859208)
(100.08346 -1.1802333e-16 -5.3416637)
(99.966766 -1.4864271e-16 -5.1628557)
(99.760382 9.4194843e-17 -5.1685201)
(99.569242 -5.8597673e-17 -4.9880928)
(99.318207 1.3918959e-16 -4.9141662)
(99.047375 -8.4956129e-17 -4.714472)
(98.726105 6.5576321e-17 -4.5450262)
(98.365938 -1.4118344e-17 -4.2848533)
(97.957008 -1.2952394e-16 -3.9964806)
(97.503427 1.8782859e-16 -3.6207249)
(97.007961 6.5678462e-17 -3.1707319)
(96.480765 -1.7071814e-16 -2.6143291)
(95.939065 -1.6643862e-16 -1.945636)
(95.408938 -4.9409084e-16 -1.1479585)
(94.925292 4.4337668e-16 -0.22178822)
(94.525737 6.7377662e-16 0.82264443)
(94.252918 -1.7671092e-16 1.9590746)
(94.139023 1.0598945e-15 3.1438973)
(94.189603 1.3731664e-15 4.3205358)
(94.398632 1.8478563e-15 5.4345514)
(94.739456 -5.8534356e-16 6.4416131)
(95.175752 -2.0115379e-15 7.3130842)
(95.669431 1.263599e-15 8.0379203)
(96.187221 1.2119799e-15 8.6199871)
(96.703653 -5.8960296e-17 9.0735459)
(97.200915 -1.5115707e-15 9.4184963)
(97.667636 -1.2497558e-16 9.6766509)
(98.097207 2.0270149e-15 9.8687917)
(98.486118 -7.0089891e-16 10.012876)
(98.83197 -2.8700825e-15 10.124352)
(99.136331 -2.7701488e-16 10.216135)
(99.401971 3.5666106e-16 10.297039)
(99.628905 1.4143449e-15 10.369974)
(99.818823 2.453167e-15 10.436602)
(99.974987 -1.2193003e-15 10.500199)
(100.10143 6.9509942e-16 10.562527)
(100.19708 3.8892936e-16 10.61922)
(100.27049 -3.4789736e-15 10.680406)
(100.34344 -1.2211532e-15 10.744827)
(100.39463 -4.372926e-16 10.800097)
(100.42672 3.8142942e-15 10.847739)
(100.41671 -8.3283728e-17 10.797017)
(64.884855 -1.1828125e-15 -3.8644068)
(78.092826 8.8348225e-16 -4.4869726)
(86.667311 -4.0768135e-16 -5.060684)
(93.734994 -2.2824666e-16 -5.4809565)
(98.918229 3.9532056e-16 -5.8735289)
(100.18772 -7.4928612e-17 -5.8399807)
(99.969569 -1.4714864e-16 -5.8961603)
(99.93252 6.3402906e-17 -5.7245023)
(99.733413 -1.7134393e-16 -5.7851069)
(99.613262 4.202715e-17 -5.5949606)
(99.400398 1.3398454e-16 -5.5994044)
(99.202967 4.4420772e-17 -5.4094903)
(98.944071 -2.005119e-16 -5.3282555)
(98.664429 -1.4473135e-18 -5.1178233)
(98.333285 1.8405045e-16 -4.9353854)
(97.96218 -1.7775551e-17 -4.6596687)
(97.54169 1.9306892e-16 -4.3514317)
(97.076326 -1.4843296e-16 -3.9519408)
(96.56984 2.640238e-16 -3.4725121)
(96.0337 6.0576357e-16 -2.8811243)
(95.487128 -4.682871e-16 -2.170972)
(94.958715 5.3388939e-16 -1.3262028)
(94.485389 -4.2161723e-16 -0.34919886)
(94.106564 -6.1072543e-16 0.74762853)
(93.868268 -6.1832121e-16 1.9340379)
(93.796316 -5.2782688e-17 3.1617561)
(93.895955 -7.5418728e-16 4.3708769)
(94.15602 -9.8352416e-16 5.5066422)
(94.545743 1.3403706e-15 6.5251187)
(95.025716 1.5749585e-15 7.3997847)
(95.556223 -1.1595853e-15 8.1221212)
(96.103603 -9.7414544e-17 8.6983312)
(96.642861 6.8129711e-16 9.144443)
(97.157117 2.3791315e-15 9.4815071)
(97.636078 -1.1019742e-15 9.7319908)
(98.074224 -1.5349891e-15 9.9169669)
(98.468851 2.5940943e-15 10.054459)
(98.81841 4.3471078e-15 10.159974)
(99.125288 -2.8638988e-16 10.24646)
(99.392688 -2.624759e-15 10.322589)
(99.620781 -2.8408866e-17 10.391245)
(99.811615 -2.5197172e-15 10.454086)
(99.96856 -7.8523924e-16 10.51442)
(100.09578 -4.5251971e-15 10.573766)
(100.1918 9.2232844e-17 10.627917)
(100.26668 9.387286e-15 10.687483)
(100.34074 1.6476618e-16 10.750309)
(100.3915 7.3454552e-16 10.8037)
(100.42317 -5.9378135e-15 10.849898)
(100.41451 -1.2453262e-15 10.802927)
(64.902005 3.9768889e-16 -4.1825517)
(78.16967 4.162164e-17 -4.8622241)
(86.791288 -3.9812143e-16 -5.4853557)
(93.898015 2.4912848e-16 -5.940367)
(98.826521 2.2184225e-16 -6.3438453)
(99.845275 -4.8176162e-16 -6.2859002)
(99.607366 2.5211297e-16 -6.3510506)
(99.569817 -1.102675e-16 -6.1652057)
(99.364221 1.6343874e-16 -6.230958)
(99.240321 -7.4703327e-19 -6.0291578)
(99.020678 -4.4905959e-17 -6.0320012)
(98.816588 1.1396711e-16 -5.8323663)
(98.549488 -6.1100595e-17 -5.7430971)
(98.260631 2.1272029e-17 -5.5213994)
(97.919215 -7.5139471e-17 -5.3250114)
(97.536763 1.5323935e-16 -5.0327586)
(97.104356 -2.4470333e-16 -4.7033094)
(96.62697 -1.221083e-16 -4.2784911)
(96.109451 -4.830398e-18 -3.7676994)
(95.564748 -4.8987855e-17 -3.1390733)
(95.014315 4.6130316e-16 -2.3849455)
(94.489359 -2.5903753e-16 -1.4906295)
(94.028704 -1.4077703e-16 -0.4606244)
(93.674535 -5.1259668e-16 0.69039579)
(93.474539 8.7521318e-17 1.927279)
(93.448131 1.5981247e-16 3.1970536)
(93.600272 1.2998758e-16 4.4371396)
(93.913854 1.4626242e-15 5.5923431)
(94.354049 -2.2219658e-17 6.6197065)
(94.878492 4.2382349e-16 7.495137)
(95.446061 -1.2300179e-15 8.2128536)
(96.022927 -1.4477834e-15 8.7814762)
(96.584739 -1.4338552e-15 9.2187959)
(97.115653 -2.690299e-15 9.5469677)
(97.606566 -3.5029786e-15 9.789045)
(98.052979 3.7171652e-16 9.9663389)
(98.452919 1.2067435e-15 10.096908)
(98.80603 -1.2177995e-15 10.196227)
(99.115517 1.176469e-15 10.277229)
(99.384539 3.165497e-15 10.34847)
(99.613597 -2.7406348e-16 10.412781)
(99.80519 -8.539735e-16 10.471799)
(99.962841 5.0962243e-16 10.528818)
(100.0904 2.2675639e-15 10.585197)
(100.18672 -3.3905232e-15 10.636819)
(100.26331 -3.4069525e-15 10.6947)
(100.33809 -2.3848784e-15 10.755877)
(100.38837 -5.5821255e-15 10.807345)
(100.41958 2.7774394e-16 10.852127)
(100.41235 -2.3368477e-15 10.808861)
(64.913276 6.9030485e-16 -4.5075838)
(78.237522 -5.6259334e-16 -5.2455949)
(86.901954 2.1861541e-16 -5.9193016)
(94.051053 1.5809255e-16 -6.409955)
(98.686124 -1.702661e-16 -6.8186101)
(99.476292 3.6195597e-17 -6.7350381)
(99.225652 -1.8671498e-16 -6.8092783)
(99.187481 1.0834528e-16 -6.6082499)
(98.975107 -1.5690696e-16 -6.6791998)
(98.847198 -1.1595297e-16 -6.4652966)
(98.620516 -3.7781148e-17 -6.4660012)
(98.40943 1.0477708e-17 -6.2563556)
(98.13381 4.540596e-17 -6.1582502)
(97.835346 4.3754327e-17 -5.924712)
(97.483258 1.0094032e-16 -5.7133677)
(97.089041 -9.3847962e-17 -5.4035134)
(96.644353 1.8929451e-16 -5.0514145)
(96.154718 -1.3909206e-17 -4.5995535)
(95.626209 -1.2910052e-17 -4.0553205)
(95.073454 -5.2358023e-16 -3.3870254)
(94.520382 -4.5906295e-16 -2.5862617)
(94.000858 3.5092978e-16 -1.6398976)
(93.555581 -6.6431242e-17 -0.55458518)
(93.230577 1.1228584e-15 0.65220675)
(93.072293 9.982783e-17 1.9398657)
(93.095701 -1.0364831e-15 3.2505129)
(93.303629 -5.160015e-16 4.519749)
(93.673118 -6.3209174e-16 5.6918192)
(94.165195 2.2980572e-16 6.7253628)
(94.734725 -4.3308633e-16 7.5990292)
(95.339427 -5.9095629e-17 8.3099671)
(95.945542 3.9586795e-16 8.8692701)
(96.529523 -1.6069529e-16 9.2964702)
(97.0767 2.3544279e-15 9.614766)
(97.579229 7.1907886e-15 9.8477177)
(98.033425 -3.520951e-15 10.016847)
(98.438384 -1.3495573e-15 10.140161)
(98.795141 -2.2516766e-15 10.233035)
(99.106966 1.3788692e-15 10.30842)
(99.377237 -6.9347176e-16 10.374688)
(99.607084 -1.2930172e-15 10.434598)