/*--------------------------------*- C++ -*----------------------------------*\
| =========                 |                                                 |
| \\      /  F ield         | OpenFOAM: The Open Source CFD Toolbox           |
|  \\    /   O peration     | Version:  2306                                  |
|   \\  /    A nd           | Website:  www.openfoam.com                      |
|    \\/     M anipulation  |                                                 |
\*---------------------------------------------------------------------------*/
FoamFile
{
    version     2.0;
    format      ascii;
    arch        "LSB;label=32;scalar=64";
    class       volScalarField;
    location    "0.019";
    object      yPlus;
}
// * * * * * * * * * * * * * * * * * * * * * * * * * * * * * * * * * * * * * //

dimensions      [0 0 0 0 0 0 0];

internalField   uniform 0;

boundaryField
{
    upper
    {
        type            calculated;
        value           nonuniform List<scalar> 
150
(
53.033739
52.997879
52.992639
52.989617
52.998706
53.016903
53.043566
53.079746
53.125687
53.180586
53.243175
53.314716
53.396746
53.486733
53.586976
53.696383
53.813786
53.94079
54.075445
54.220295
54.375728
54.540016
54.713529
54.894219
55.084268
55.275585
55.46787
55.66252
55.857734
56.056406
56.259033
56.46822
56.685844
56.912087
57.149745
57.396979
57.650832
57.914398
58.192752
58.483882
58.785074
59.100801
59.432069
59.785566
60.157926
60.560998
60.983105
61.424354
61.879282
62.329513
62.770167
63.192428
63.588205
63.962667
64.335936
64.729904
65.131162
65.557302
66.026217
66.628194
67.431459
68.561738
70.157088
72.478835
75.319858
78.358499
81.415141
84.286104
86.752632
88.626777
89.701165
89.771595
88.359659
85.014948
79.777344
16.519136
21.582587
23.004609
24.712402
26.051797
27.270124
28.344699
29.320509
30.214519
31.044676
31.78668
32.471989
33.106894
33.698368
34.251419
34.770032
35.258667
35.720412
36.158186
36.576295
36.976916
37.361586
37.729857
38.083892
38.42533
38.756423
39.077497
39.390775
39.691121
39.984261
40.269329
40.54912
40.826081
41.09949
41.369736
41.637166
41.902107
42.165104
42.426279
42.685743
42.944004
43.200907
43.456396
43.711381
43.966924
44.22375
44.482984
44.743574
45.004471
45.266882
45.531849
45.798254
46.065389
46.334721
46.605606
46.878842
47.155812
47.435682
47.71775
48.004206
48.295095
48.588206
48.884343
49.183603
49.486611
49.794858
50.11062
50.434533
50.76448
51.100915
51.441056
51.782126
52.125666
52.479645
52.848502
)
;
    }
    lower
    {
        type            calculated;
        value           nonuniform List<scalar> 
150
(
57.475467
57.208429
56.964537
56.724475
56.493363
56.271177
56.056065
55.847835
55.647116
55.454305
55.268772
55.090741
54.918681
54.749986
54.587887
54.432559
54.281949
54.135477
53.990541
53.848869
53.708092
53.563647
53.412579
53.251763
53.086068
52.914611
52.741229
52.568805
52.396366
52.229128
52.068423
51.906523
51.737495
51.556015
51.359204
51.137572
50.890616
50.615805
50.320358
50.014137
49.711966
49.422482
49.114875
48.788388
48.428669
48.035923
47.595485
47.108604
46.561966
45.949643
45.285134
44.608434
43.948026
43.263087
42.512996
41.638318
40.594026
39.362813
37.899291
36.176832
34.137886
31.711276
28.623289
24.702377
19.318852
13.223612
5.5489072
10.728311
20.287668
30.471674
42.096072
53.785265
65.182766
75.928887
84.843542
38.295492
41.557728
42.595296
43.681682
44.471796
45.15184
45.723895
46.223425
46.663818
47.056968
47.413163
47.737786
48.035233
48.310927
48.56867
48.809871
49.037859
49.253702
49.458555
49.654271
49.841925
50.022563
50.196335
50.360789
50.519425
50.673937
50.824427
50.97284
51.118425
51.261684
51.401271
51.538257
51.675933
51.809447
51.941385
52.072036
52.202277
52.332325
52.462261
52.591558
52.721968
52.853268
52.983646
53.115143
53.2485
53.382683
53.518208
53.653039
53.784944
53.912919
54.039066
54.166668
54.29788
54.43346
54.571797
54.711464
54.85296
54.995867
55.140251
55.286287
55.43402
55.582051
55.731804
55.881446
56.030654
56.179228
56.327386
56.47526
56.62387
56.775299
56.92723
57.076982
57.225585
57.375611
57.527649
)
;
    }
    inlet
    {
        type            calculated;
        value           uniform 0;
    }
    outlet
    {
        type            calculated;
        value           uniform 0;
    }
    back
    {
        type            empty;
    }
    front
    {
        type            empty;
    }
}


// ************************************************************************* //
