/*--------------------------------*- C++ -*----------------------------------*\
| =========                 |                                                 |
| \\      /  F ield         | OpenFOAM: The Open Source CFD Toolbox           |
|  \\    /   O peration     | Version:  2306                                  |
|   \\  /    A nd           | Website:  www.openfoam.com                      |
|    \\/     M anipulation  |                                                 |
\*---------------------------------------------------------------------------*/
FoamFile
{
    version     2.0;
    format      ascii;
    arch        "LSB;label=32;scalar=64";
    class       volScalarField;
    location    "650";
    object      turbulenceProperties:epsilon;
}
// * * * * * * * * * * * * * * * * * * * * * * * * * * * * * * * * * * * * * //

dimensions      [0 2 -3 0 0 0 0];

internalField   nonuniform List<scalar> 
1340
(
978.923
912.872
836.941
619.384
1.34803
1.59538
2.20743
4.0971
0.110639
0.17702
0.222101
0.549899
0.000863414
0.0049442
0.0189516
0.139801
7.94559e-05
9.21032e-05
0.000241032
0.0150748
7.30437e-06
1.1501e-05
4.85094e-05
0.0011193
4.9076e-09
8.11963e-10
7.05138e-13
2.4387e-05
3.15753e-07
1.80129e-07
1.14242e-09
1.54123e-07
4.53975e-07
5.26893e-07
5.91967e-07
3.89493e-10
3.24173e-07
3.1555e-07
8.75731e-07
1.33737e-07
3.3175e-07
3.29111e-07
6.5913e-07
1.0302e-06
2.85482e-07
2.9189e-07
4.82015e-07
1.22979e-06
2.6416e-07
2.71701e-07
4.08748e-07
1.03847e-06
2.35568e-07
2.39772e-07
3.50333e-07
8.4062e-07
2.11249e-07
2.12742e-07
2.99841e-07
6.83964e-07
1.8664e-07
1.85897e-07
2.53532e-07
5.55854e-07
1.63644e-07
1.61121e-07
2.12867e-07
4.48985e-07
1.41811e-07
1.37898e-07
1.77253e-07
3.60072e-07
1.21487e-07
1.16547e-07
1.46248e-07
2.86604e-07
1.02734e-07
9.70942e-08
1.195e-07
2.26641e-07
8.56553e-08
7.9612e-08
9.65315e-08
1.77933e-07
7.03001e-08
6.41374e-08
7.70057e-08
1.38714e-07
5.66989e-08
5.06339e-08
6.05687e-08
1.07422e-07
4.48485e-08
3.90647e-08
4.68655e-08
8.25925e-08
3.47018e-08
2.93311e-08
3.56164e-08
6.30958e-08
2.61894e-08
2.13193e-08
2.65169e-08
4.78933e-08
1.92116e-08
1.48893e-08
1.92965e-08
3.61613e-08
1.36447e-08
9.87911e-09
1.36912e-08
2.71927e-08
9.34591e-09
6.11889e-09
9.46104e-09
2.04171e-08
6.16164e-09
3.4327e-09
6.37906e-09
1.53691e-08
3.92993e-09
1.64203e-09
4.23787e-09
1.16662e-08
2.48935e-09
5.79839e-10
2.84757e-09
9.00297e-09
1.68318e-09
8.7079e-11
2.04061e-09
7.13223e-09
1.36409e-09
1.98193e-11
1.67085e-09
5.85633e-09
1.39861e-09
2.51274e-10
1.61239e-09
5.01708e-09
1.6698e-09
6.73286e-10
1.76071e-09
4.49041e-09
2.07918e-09
1.19653e-09
2.03122e-09
4.17892e-09
2.54678e-09
1.75071e-09
2.35757e-09
4.00752e-09
4.81729e-09
3.01125e-09
2.28257e-09
2.69001e-09
3.91956e-09
4.96358e-09
3.42836e-09
2.75474e-09
2.993e-09
3.8731e-09
5.0747e-09
3.76914e-09
3.14386e-09
3.24353e-09
3.83871e-09
5.12778e-09
4.01781e-09
3.43753e-09
3.42818e-09
3.79626e-09
5.11158e-09
4.16908e-09
3.63294e-09
3.54211e-09
3.73381e-09
5.02431e-09
4.2256e-09
3.73371e-09
3.58594e-09
3.64508e-09
4.87094e-09
4.19595e-09
3.74862e-09
3.56456e-09
3.52791e-09
4.66058e-09
4.0922e-09
3.68961e-09
3.48644e-09
3.38412e-09
4.4048e-09
3.92815e-09
3.56954e-09
3.36065e-09
3.21691e-09
4.11613e-09
3.71823e-09
3.40215e-09
3.19735e-09
3.03077e-09
3.80625e-09
3.47573e-09
3.20017e-09
3.00649e-09
2.83122e-09
3.48579e-09
3.21258e-09
2.97473e-09
2.79667e-09
2.62285e-09
3.16338e-09
2.93887e-09
2.73566e-09
2.57569e-09
2.41032e-09
2.84574e-09
2.66229e-09
2.49051e-09
2.3497e-09
2.19734e-09
2.6939e-09
2.53795e-09
2.38906e-09
2.24538e-09
2.12368e-09
1.98692e-09
2.36713e-09
2.24379e-09
2.12385e-09
2.00497e-09
1.90167e-09
1.78166e-09
2.06354e-09
1.96657e-09
1.87072e-09
1.77348e-09
1.68727e-09
1.58392e-09
1.78507e-09
1.70934e-09
1.63342e-09
1.55471e-09
1.48392e-09
1.39639e-09
1.53372e-09
1.47495e-09
1.41528e-09
1.35221e-09
1.29494e-09
1.22175e-09
1.31079e-09
1.26543e-09
1.21883e-09
1.16868e-09
1.12288e-09
1.0623e-09
1.11602e-09
1.08111e-09
1.04489e-09
1.00525e-09
9.68978e-10
9.19281e-10
9.47068e-10
9.20259e-10
8.92212e-10
8.61066e-10
8.32589e-10
7.92224e-10
8.00095e-10
7.79559e-10
7.57955e-10
7.33676e-10
7.11566e-10
6.79233e-10
6.85756e-10
6.70948e-10
6.55286e-10
6.38784e-10
6.201e-10
6.03245e-10
5.77806e-10
5.68015e-10
5.56783e-10
5.44948e-10
5.32525e-10
5.1841e-10
5.05905e-10
4.863e-10
4.64787e-10
4.56316e-10
4.47479e-10
4.38283e-10
4.27833e-10
4.18884e-10
4.04082e-10
3.75978e-10
3.6964e-10
3.63126e-10
3.56436e-10
3.48854e-10
3.42733e-10
3.31733e-10
3.01276e-10
2.96553e-10
2.91788e-10
2.86996e-10
2.8158e-10
2.77558e-10
2.69411e-10
2.40759e-10
2.37208e-10
2.33715e-10
2.30337e-10
2.26581e-10
2.24135e-10
2.18336e-10
1.95654e-10
1.92788e-10
1.90047e-10
1.87499e-10
1.84731e-10
1.83222e-10
1.79143e-10
1.62758e-10
1.60272e-10
1.57945e-10
1.5582e-10
1.5355e-10
1.52467e-10
1.49322e-10
1.35754e-10
1.33532e-10
1.31469e-10
1.29613e-10
1.2768e-10
1.26828e-10
1.24356e-10
1.12028e-10
1.10066e-10
1.08247e-10
1.06644e-10
1.05006e-10
1.04322e-10
1.02377e-10
9.27129e-11
9.06388e-11
8.87791e-11
8.71147e-11
8.5716e-11
8.44059e-11
8.40697e-11
8.32875e-11
7.32853e-11
7.10819e-11
6.90457e-11
6.71934e-11
6.55767e-11
6.4074e-11
6.30872e-11
6.15002e-11
5.20564e-11
5.0094e-11
4.84302e-11
4.70704e-11
4.60891e-11
4.54948e-11
4.62907e-11
4.81766e-11
2.8573e-11
2.58005e-11
2.33923e-11
2.13677e-11
1.97053e-11
1.83628e-11
1.73138e-11
1.58078e-11
1.82911e-11
1.7635e-11
1.74514e-11
1.77777e-11
1.88602e-11
2.08869e-11
2.61318e-11
3.49206e-11
2.27704e-11
2.25346e-11
2.22441e-11
2.1838e-11
2.15231e-11
2.28151e-11
3.16247e-11
4.2745e-11
1.6535e-10
1.77898e-10
1.89193e-10
1.99932e-10
2.12713e-10
2.32316e-10
2.84318e-10
3.31563e-10
5.83322e-10
5.86959e-10
5.89577e-10
5.91351e-10
5.92577e-10
5.9658e-10
6.20918e-10
5.63849e-10
2.12893e-09
2.13037e-09
2.12805e-09
2.12359e-09
2.11406e-09
2.1092e-09
2.07497e-09
1.78596e-09
38.725
4.31146
0.464044
0.0822468
0.00852013
0.00039709
2.55653e-05
2.21461e-07
7.30137e-10
4.13389e-07
1.36791e-06
1.37417e-06
1.13303e-06
9.25588e-07
7.61502e-07
6.25636e-07
5.1092e-07
4.1468e-07
3.3472e-07
2.68627e-07
2.14448e-07
1.70339e-07
1.34678e-07
1.06056e-07
8.32188e-08
6.51336e-08
5.09052e-08
3.97832e-08
3.11479e-08
2.44881e-08
1.93866e-08
1.55049e-08
1.25689e-08
1.03621e-08
8.71151e-09
7.48004e-09
6.56084e-09
5.87036e-09
5.34391e-09
4.93248e-09
4.59899e-09
4.31593e-09
4.06412e-09
3.82986e-09
3.60434e-09
3.38261e-09
3.16218e-09
2.94223e-09
2.72367e-09
2.50729e-09
2.29467e-09
2.08699e-09
1.88535e-09
1.6909e-09
1.50491e-09
1.32917e-09
1.16572e-09
1.01643e-09
8.82251e-10
7.6268e-10
6.55973e-10
5.59829e-10
4.728e-10
3.94355e-10
3.25111e-10
2.65136e-10
2.15918e-10
1.77911e-10
1.48846e-10
1.24354e-10
1.02589e-10
8.40333e-11
6.16397e-11
5.03725e-11
1.52234e-11
4.153e-11
3.53865e-11
3.19768e-10
4.40103e-10
1.40814e-09
11.8467
2.14655
0.155071
0.00937917
0.000460855
7.37169e-05
7.22387e-13
3.04448e-12
2.161e-09
3.04773e-07
4.68699e-07
4.43039e-07
3.91438e-07
3.4799e-07
3.10305e-07
2.75289e-07
2.4241e-07
2.11684e-07
1.83514e-07
1.57869e-07
1.34824e-07
1.14313e-07
9.62528e-08
8.05861e-08
6.71067e-08
5.56278e-08
4.59628e-08
3.79043e-08
3.12376e-08
2.57711e-08
2.13212e-08
1.77228e-08
1.48286e-08
1.25108e-08
1.06616e-08
9.18595e-09
8.00841e-09
7.06459e-09
6.30189e-09
5.67871e-09
5.16139e-09
4.72293e-09
4.34362e-09
4.00734e-09
3.70277e-09
3.42178e-09
3.15863e-09
2.90968e-09
2.67272e-09
2.4462e-09
2.22954e-09
2.02218e-09
1.82382e-09
1.63453e-09
1.45487e-09
1.28595e-09
1.12931e-09
9.86475e-10
8.58035e-10
7.43354e-10
6.40701e-10
5.47924e-10
4.63716e-10
3.87692e-10
3.20506e-10
2.62156e-10
2.14089e-10
1.76696e-10
1.48118e-10
1.24061e-10
1.02511e-10
8.41513e-11
6.17104e-11
5.09557e-11
1.49414e-11
4.56947e-11
2.71223e-11
3.22148e-10
4.32131e-10
1.47344e-09
4.67909
0.917084
0.0458439
0.00078869
1.47791e-05
2.57561e-06
5.42804e-16
3.98888e-13
3.07667e-08
1.73883e-07
1.69671e-07
1.5283e-07
1.36564e-07
1.23793e-07
1.12623e-07
1.02288e-07
9.2755e-08
8.39146e-08
7.56986e-08
6.81837e-08
6.12442e-08
5.48631e-08
4.89721e-08
4.35936e-08
3.86795e-08
3.41888e-08
3.0119e-08
2.64566e-08
2.31726e-08
2.02547e-08
1.76807e-08
1.54274e-08
1.34705e-08
1.17826e-08
1.03363e-08
9.10188e-09
8.05283e-09
7.16194e-09
6.40462e-09
5.75839e-09
5.204e-09
4.72377e-09
4.30382e-09
3.93187e-09
3.59841e-09
3.29609e-09
3.01882e-09
2.76251e-09
2.52379e-09
2.3002e-09
2.09001e-09
1.89171e-09
1.7042e-09
1.52679e-09
1.35949e-09
1.20293e-09
1.05816e-09
9.26337e-10
8.07751e-10
7.01653e-10
6.06345e-10
5.19879e-10
4.41122e-10
3.69828e-10
3.06703e-10
2.51718e-10
2.06207e-10
1.70606e-10
1.43465e-10
1.20689e-10
1.00057e-10
8.24346e-11
6.06706e-11
5.03448e-11
1.53306e-11
4.74922e-11
2.36393e-11
3.16901e-10
4.1497e-10
1.48075e-09
1.90026
0.289725
0.00651935
1.13703e-05
2.29492e-06
0
2.76364e-12
1.697e-09
5.59739e-08
8.4883e-08
7.36269e-08
6.83066e-08
6.31945e-08
5.90079e-08
5.49328e-08
5.09412e-08
4.71506e-08
4.35367e-08
4.01121e-08
3.69334e-08
3.39442e-08
3.11769e-08
2.86001e-08
2.62021e-08
2.39813e-08
2.19174e-08
1.99965e-08
1.82143e-08
1.65596e-08
1.50273e-08
1.36117e-08
1.23077e-08
1.11141e-08
1.00252e-08
9.03758e-09
8.14726e-09
7.34784e-09
6.63316e-09
5.99637e-09
5.42929e-09
4.92485e-09
4.47539e-09
4.07318e-09
3.71205e-09
3.38603e-09
3.09005e-09
2.81959e-09
2.57137e-09
2.34226e-09
2.12977e-09
1.93197e-09
1.74692e-09
1.57325e-09
1.40994e-09
1.25661e-09
1.1136e-09
9.81632e-10
8.61516e-10
7.53376e-10
6.56391e-10
5.68935e-10
4.89259e-10
4.16415e-10
3.50253e-10
2.9153e-10
2.40209e-10
1.97555e-10
1.64071e-10
1.38569e-10
1.17163e-10
9.75516e-11
8.07687e-11
5.97998e-11
4.99191e-11
1.62562e-11
4.88142e-11
2.21533e-11
3.10569e-10
3.94093e-10
1.45913e-09
0.601901
0.0484833
0.000126918
5.61528e-06
0
9.69537e-14
7.20619e-11
1.55978e-08
4.72691e-08
4.5079e-08
4.04302e-08
3.91005e-08
3.76356e-08
3.63715e-08
3.4962e-08
3.34835e-08
3.19456e-08
3.03337e-08
2.86942e-08
2.70331e-08
2.53559e-08
2.36931e-08
2.20703e-08
2.04801e-08
1.89488e-08
1.74954e-08
1.61102e-08
1.48077e-08
1.35894e-08
1.24534e-08
1.13987e-08
1.04214e-08
9.52086e-09
8.69027e-09
7.92658e-09
7.22765e-09
6.58716e-09
6.00277e-09
5.47007e-09
4.98488e-09
4.54433e-09
4.14384e-09
3.77927e-09
3.4478e-09
3.14556e-09
2.86942e-09
2.61639e-09
2.38408e-09
2.17006e-09
1.9722e-09
1.78871e-09
1.61768e-09
1.45776e-09
1.30787e-09
1.16743e-09
1.03666e-09
9.16107e-10
8.06319e-10
7.07302e-10
6.18221e-10
5.37558e-10
4.63758e-10
3.96041e-10
3.34332e-10
2.7943e-10
2.31275e-10
1.91063e-10
1.59373e-10
1.35235e-10
1.14917e-10
9.61088e-11
7.99865e-11
5.96378e-11
5.01776e-11
1.7567e-11
5.09574e-11
2.11064e-11
3.10845e-10
3.83368e-10
1.4564e-09
0.109483
0.00240347
1.19744e-06
2.85744e-07
0
1.07352e-11
5.77831e-09
2.8008e-08
3.21325e-08
2.77612e-08
2.64257e-08
2.59613e-08
2.53247e-08
2.4696e-08
2.39651e-08
2.31998e-08
2.23704e-08
2.14913e-08
2.05908e-08
1.96584e-08
1.87067e-08
1.77411e-08
1.67779e-08
1.58103e-08
1.48528e-08
1.39158e-08
1.2993e-08
1.21002e-08
1.12392e-08
1.04136e-08
9.62813e-09
8.88369e-09
8.18479e-09
7.52953e-09
6.91838e-09
6.35199e-09
5.8266e-09
5.34215e-09
4.89526e-09
4.48373e-09
4.106e-09
3.7585e-09
3.43899e-09
3.14582e-09
2.87607e-09
2.62804e-09
2.39959e-09
2.18903e-09
1.99464e-09
1.81471e-09
1.6478e-09
1.49221e-09
1.34682e-09
1.2106e-09
1.083e-09
9.64174e-10
8.54579e-10
7.54624e-10
6.64225e-10
5.82577e-10
5.08303e-10
4.40043e-10
3.77163e-10
3.19685e-10
2.68414e-10
2.23256e-10
1.85331e-10
1.55312e-10
1.32455e-10
1.13136e-10
9.50749e-11
7.9559e-11
5.97877e-11
5.07772e-11
1.91205e-11
5.36212e-11
1.99023e-11
3.13624e-10
0.00572233
1.41347e-06
2.65615e-07
7.28384e-10
2.35377e-12
1.3631e-09
1.50294e-08
1.95503e-08
1.73967e-08
1.60282e-08
1.60076e-08
1.59396e-08
1.57844e-08
1.55961e-08
1.5342e-08
1.50564e-08
1.47152e-08
1.43277e-08
1.39103e-08
1.3457e-08
1.29776e-08
1.24738e-08
1.1949e-08
1.14129e-08
1.08714e-08
1.03231e-08
9.7733e-09
9.23138e-09
8.69493e-09
8.16905e-09
7.65678e-09
7.1589e-09
6.67938e-09
6.21894e-09
5.77883e-09
5.36071e-09
4.96444e-09
4.59144e-09
4.24041e-09
3.91168e-09
3.60494e-09
3.31835e-09
3.05182e-09
2.80404e-09
2.57357e-09
2.35986e-09
2.1614e-09
1.97727e-09
1.80634e-09
1.64742e-09
1.49947e-09
1.3612e-09
1.23168e-09
1.11006e-09
9.9598e-10
8.89561e-10
7.91207e-10
7.01283e-10
6.19641e-10
5.45554e-10
4.77803e-10
4.15231e-10
3.57336e-10
3.04239e-10
2.56742e-10
2.147e-10
1.79164e-10
1.50922e-10
1.29437e-10
1.1118e-10
9.39407e-11
7.90888e-11
5.99681e-11
5.14867e-11
2.08761e-11
5.63907e-11
5.34675e-06
3.39198e-06
7.56985e-16
5.24625e-13
3.73312e-10
8.50056e-09
1.20183e-08
1.08355e-08
9.89469e-09
9.82648e-09
9.98052e-09
1.00156e-08
1.00192e-08
9.99127e-09
9.92524e-09
9.8312e-09
9.70161e-09
9.54123e-09
9.35564e-09
9.14318e-09
8.90859e-09
8.65417e-09
8.37957e-09
8.09184e-09
7.79455e-09
7.48508e-09
7.16919e-09
6.85086e-09
6.52904e-09
6.20766e-09
5.88837e-09
5.57165e-09
5.26057e-09
4.95578e-09
4.65811e-09
4.36925e-09
4.08964e-09
3.82058e-09
3.56213e-09
3.31504e-09
3.07982e-09
2.85617e-09
2.64459e-09
2.44471e-09
2.25624e-09
2.07933e-09
1.91315e-09
1.75753e-09
1.61184e-09
1.47541e-09
1.34762e-09
1.22757e-09
1.11458e-09
1.00805e-09
9.07775e-10
8.13937e-10
7.26904e-10
6.47024e-10
5.74151e-10
5.07649e-10
4.46465e-10
3.89649e-10
3.3684e-10
2.88212e-10
2.44581e-10
2.05738e-10
1.72679e-10
1.46313e-10
1.26266e-10
1.09116e-10
9.27592e-11
7.86171e-11
6.02241e-11
5.23345e-11
3.8467e-06
0
3.30584e-15
2.20967e-12
5.37121e-09
7.8243e-09
7.07846e-09
6.44001e-09
6.39712e-09
6.57043e-09
6.69191e-09
6.76342e-09
6.81768e-09
6.84545e-09
6.84849e-09
6.82694e-09
6.78029e-09
6.71245e-09
6.62353e-09
6.51422e-09
6.38668e-09
6.24393e-09
6.08784e-09
5.91788e-09
5.73911e-09
5.55214e-09
5.35767e-09
5.15824e-09
4.95484e-09
4.74929e-09
4.54181e-09
4.33368e-09
4.12721e-09
3.92137e-09
3.7179e-09
3.518e-09
3.32145e-09
3.12948e-09
2.94247e-09
2.76075e-09
2.58495e-09
2.41546e-09
2.2524e-09
2.09614e-09
1.94682e-09
1.80473e-09
1.66962e-09
1.54171e-09
1.42077e-09
1.30652e-09
1.19865e-09
1.09655e-09
9.99865e-10
9.0819e-10
8.21439e-10
7.39868e-10
6.63855e-10
5.9371e-10
5.29343e-10
4.70218e-10
4.15452e-10
3.64287e-10
3.16496e-10
2.72296e-10
2.32497e-10
1.96832e-10
1.66254e-10
1.41792e-10
1.23185e-10
1.07136e-10
9.1683e-11
0
0
5.5205e-12
2.67229e-09
5.58117e-09
4.5582e-09
4.23572e-09
4.21792e-09
4.37218e-09
4.51131e-09
4.60693e-09
4.68732e-09
4.75345e-09
4.80026e-09
4.83e-09
4.84365e-09
4.83871e-09
4.817e-09
4.7799e-09
4.72754e-09
4.66129e-09
4.58245e-09
4.49291e-09
4.39256e-09
4.28422e-09
4.16891e-09
4.04653e-09
3.9194e-09
3.78822e-09
3.6541e-09
3.51673e-09
3.37783e-09
3.23866e-09
3.09796e-09
2.95774e-09
2.81831e-09
2.67966e-09
2.54278e-09
2.40775e-09
2.27505e-09
2.14514e-09
2.01822e-09
1.89471e-09
1.77485e-09
1.65887e-09
1.5472e-09
1.4398e-09
1.33701e-09
1.23882e-09
1.14519e-09
1.05598e-09
9.70867e-10
8.89657e-10
8.12089e-10
7.3824e-10
6.68354e-10
6.02832e-10
5.41976e-10
4.8573e-10
4.33678e-10
3.85105e-10
3.3943e-10
2.9653e-10
2.56669e-10
2.20628e-10
1.88088e-10
0
1.57197e-12
1.18474e-09
3.69949e-09
3.05565e-09
2.74653e-09
2.81247e-09
2.92731e-09
3.05151e-09
3.14401e-09
3.22288e-09
3.29363e-09
3.35245e-09
3.39954e-09
3.43389e-09
3.45723e-09
3.46814e-09
3.46634e-09
3.45415e-09
3.43124e-09
3.39862e-09
3.3567e-09
3.30669e-09
3.24919e-09
3.18553e-09
3.1161e-09
3.04114e-09
2.96231e-09
2.8797e-09
2.79404e-09
2.70542e-09
2.61468e-09
2.52251e-09
2.42851e-09
2.33372e-09
2.23827e-09
2.14232e-09
2.04653e-09
1.95081e-09
1.85564e-09
1.76139e-09
1.66815e-09
1.57633e-09
1.48611e-09
1.39779e-09
1.31178e-09
1.2281e-09
1.14718e-09
1.06907e-09
9.93862e-10
9.21559e-10
8.51964e-10
7.85004e-10
7.20537e-10
6.58698e-10
5.99742e-10
5.44061e-10
4.91946e-10
4.43385e-10
3.98064e-10
3.55431e-10
1.29625e-12
6.20213e-10
2.5491e-09
2.06006e-09
1.82827e-09
1.89535e-09
2.00138e-09
2.09427e-09
2.17491e-09
2.24268e-09
2.30549e-09
2.36163e-09
2.40933e-09
2.44935e-09
2.47986e-09
2.50267e-09
2.51699e-09
2.52222e-09
2.52036e-09
2.51081e-09
2.4945e-09
2.47153e-09
2.44313e-09
2.40937e-09
2.37112e-09
2.32886e-09
2.28264e-09
2.23356e-09
2.1816e-09
2.12719e-09
2.07043e-09
2.0119e-09
1.95177e-09
1.88989e-09
1.82695e-09
1.76287e-09
1.69779e-09
1.63214e-09
1.56572e-09
1.49893e-09
1.43204e-09
1.36502e-09
1.29815e-09
1.23171e-09
1.16587e-09
1.10093e-09
1.03708e-09
9.74633e-10
9.13746e-10
8.54522e-10
7.97068e-10
7.41246e-10
6.87056e-10
6.34444e-10
6.67068e-10
1.34174e-09
1.48057e-09
1.23078e-09
1.31071e-09
1.39345e-09
1.46503e-09
1.52667e-09
1.58257e-09
1.63342e-09
1.68164e-09
1.724e-09
1.76047e-09
1.79176e-09
1.81662e-09
1.83594e-09
1.84914e-09
1.85638e-09
1.85844e-09
1.85523e-09
1.84725e-09
1.83488e-09
1.81829e-09
1.79822e-09
1.77507e-09
1.74874e-09
1.71994e-09
1.68895e-09
1.65591e-09
1.62105e-09
1.58445e-09
1.54658e-09
1.50723e-09
1.46659e-09
1.42503e-09
1.38223e-09
1.33856e-09
1.29399e-09
1.2485e-09
1.20237e-09
1.15557e-09
1.10818e-09
)
;

boundaryField
{
    inlet
    {
        type            calculated;
        value           nonuniform List<scalar> 
13
(
2.22039e-08
2.28021e-08
2.33346e-08
2.38195e-08
2.42942e-08
2.47898e-08
2.54402e-08
2.56316e-08
2.51526e-08
2.48699e-08
2.45024e-08
2.41872e-08
2.39314e-08
)
;
    }
    outlet
    {
        type            calculated;
        value           nonuniform List<scalar> 0();
    }
    walls
    {
        type            calculated;
        value           uniform 0;
    }
    frontAndBack
    {
        type            empty;
    }
    procBoundary2to1
    {
        type            processor;
        value           nonuniform List<scalar> 
84
(
1025.39
1.13459
0.0598468
6.81582e-05
0.000109913
9.96772e-11
4.38929e-07
3.82809e-07
4.46634e-07
3.40775e-07
3.40296e-07
3.03218e-07
2.82407e-07
2.55791e-07
2.32024e-07
2.08123e-07
1.85361e-07
1.63495e-07
1.42799e-07
1.23402e-07
1.05419e-07
8.89491e-08
7.40712e-08
6.08322e-08
4.92357e-08
3.92553e-08
3.08332e-08
2.38809e-08
1.82807e-08
1.38992e-08
1.0586e-08
8.18247e-09
6.53162e-09
5.48077e-09
4.88859e-09
4.62689e-09
4.58564e-09
4.6733e-09
4.6733e-09
7.5758e-09
7.25746e-09
6.97679e-09
6.7004e-09
6.40798e-09
6.08975e-09
5.74368e-09
5.37305e-09
4.98461e-09
4.58629e-09
4.18618e-09
3.79172e-09
3.40879e-09
3.04184e-09
3.04184e-09
2.85414e-09
2.49211e-09
2.16052e-09
1.85993e-09
1.59119e-09
1.35471e-09
1.14949e-09
9.72569e-10
8.19528e-10
8.19528e-10
6.99949e-10
5.78849e-10
4.73052e-10
3.82268e-10
3.06072e-10
2.44444e-10
1.98677e-10
1.65423e-10
1.38155e-10
1.14163e-10
1.14163e-10
9.49718e-11
7.56261e-11
5.43152e-11
3.16704e-11
1.94156e-11
2.30949e-11
1.51631e-10
5.78019e-10
2.12196e-09
)
;
    }
    procBoundary2to3
    {
        type            processor;
        value           nonuniform List<scalar> 
88
(
3.77902e-10
1.46189e-09
1.88298e-11
3.77902e-10
3.1628e-10
2.28792e-11
1.88298e-11
5.91617e-11
7.82579e-11
6.06483e-11
2.28792e-11
5.33825e-11
1.59971e-10
1.37409e-10
1.20225e-10
1.05262e-10
7.82579e-11
9.07253e-11
3.15058e-10
2.76913e-10
2.41284e-10
2.08918e-10
1.59971e-10
1.79443e-10
5.83537e-10
5.34589e-10
4.87972e-10
4.43952e-10
4.02557e-10
3.63569e-10
3.15058e-10
3.26573e-10
1.06037e-09
1.01231e-09
9.64096e-10
9.15964e-10
8.68184e-10
8.20905e-10
7.74332e-10
7.28608e-10
6.83818e-10
6.39914e-10
5.9688e-10
5.83537e-10
5.54704e-10
1.09343e-09
8.58157e-10
9.09615e-10
9.10953e-10
9.94681e-10
1.04129e-09
1.08854e-09
1.13059e-09
1.17104e-09
1.20882e-09
1.24363e-09
1.2744e-09
1.30113e-09
1.32462e-09
1.34348e-09
1.35825e-09
1.36901e-09
1.37588e-09
1.37909e-09
1.3787e-09
1.37495e-09
1.36827e-09
1.35888e-09
1.34697e-09
1.33278e-09
1.31664e-09
1.29881e-09
1.27927e-09
1.2584e-09
1.23617e-09
1.21277e-09
1.18831e-09
1.1628e-09
1.13637e-09
1.10904e-09
1.08077e-09
1.05176e-09
1.02181e-09
9.91049e-10
9.59581e-10
9.27288e-10
1.06037e-09
8.94278e-10
)
;
    }
    procBoundary2to6
    {
        type            processor;
        value           nonuniform List<scalar> 
13
(
59.5754
25.2754
10.5426
4.87398
2.10803
0.695788
0.125832
0.0058337
4.03121e-06
1.86142e-06
0
0
1.98633e-12
)
;
    }
}


// ************************************************************************* //
