/*--------------------------------*- C++ -*----------------------------------*\
| =========                 |                                                 |
| \\      /  F ield         | OpenFOAM: The Open Source CFD Toolbox           |
|  \\    /   O peration     | Version:  2306                                  |
|   \\  /    A nd           | Website:  www.openfoam.com                      |
|    \\/     M anipulation  |                                                 |
\*---------------------------------------------------------------------------*/
FoamFile
{
    version     2.0;
    format      ascii;
    arch        "LSB;label=32;scalar=64";
    class       volScalarField;
    location    "0";
    object      yPlus;
}
// * * * * * * * * * * * * * * * * * * * * * * * * * * * * * * * * * * * * * //

dimensions      [0 0 0 0 0 0 0];

internalField   uniform 0;

boundaryField
{
    upperSurface
    {
        type            calculated;
        value           nonuniform List<scalar> 
150
(
203.68499
202.97901
202.2977
201.64053
201.00714
200.39717
199.81026
199.24574
198.70317
198.18229
197.68262
197.20307
196.74412
196.30414
195.88291
195.48062
195.09557
194.72821
194.37683
194.04121
193.72133
193.41543
193.12451
192.845
192.57965
192.32603
192.0826
191.85099
191.62825
191.41482
191.21022
191.01391
190.84442
190.69175
190.54742
190.41145
190.28208
190.15917
190.04368
189.93533
189.83441
189.73991
189.65692
189.5797
189.51521
189.46094
189.42049
189.39792
189.39275
189.40811
189.45255
189.52792
189.63844
189.79415
190.00198
190.26407
190.61269
191.02812
191.55432
192.18142
192.94128
193.85018
194.90953
196.13127
197.52772
199.07938
200.74303
202.45489
204.08837
205.49299
206.47779
206.85912
207.0112
207.51016
207.54538
202.64799
202.67208
202.6957
202.71851
202.74067
202.76226
202.78317
202.80339
202.82337
202.84251
202.86127
202.87977
202.89775
202.91506
202.93228
202.94897
202.96532
202.9815
202.99725
203.01282
203.02797
203.04309
203.05774
203.07244
203.08676
203.1011
203.11503
203.1291
203.14285
203.15663
203.17041
203.18374
203.19728
203.21075
203.2242
203.23752
203.25084
203.26411
203.27752
203.29079
203.30411
203.31744
203.33084
203.34413
203.35757
203.37094
203.38434
203.3978
203.41128
203.42467
203.4381
203.4516
203.46496
203.47828
203.49167
203.50486
203.51801
203.53103
203.54388
203.55652
203.56903
203.58119
203.59303
203.60456
203.61564
203.6263
203.63633
203.64577
203.65444
203.66231
203.66926
203.67514
203.67979
203.68314
203.68494
)
;
    }
    lowerSurface
    {
        type            calculated;
        value           nonuniform List<scalar> 
150
(
203.68499
202.97901
202.2977
201.64053
201.00714
200.39717
199.81026
199.24574
198.70317
198.18229
197.68262
197.20307
196.74412
196.30414
195.88291
195.48062
195.09557
194.72821
194.37683
194.04121
193.72133
193.41543
193.12451
192.845
192.57965
192.32603
192.0826
191.85099
191.62825
191.41482
191.21022
191.01391
190.84442
190.69175
190.54742
190.41145
190.28208
190.15917
190.04368
189.93533
189.83441
189.73991
189.65692
189.5797
189.51521
189.46094
189.42049
189.39792
189.39275
189.40811
189.45255
189.52792
189.63844
189.79415
190.00198
190.26407
190.61269
191.02812
191.55432
192.18142
192.94128
193.85018
194.90953
196.13127
197.52772
199.07938
200.74303
202.45489
204.08837
205.49299
206.47779
206.85912
207.0112
207.51016
207.54538
202.64799
202.67208
202.6957
202.71851
202.74067
202.76226
202.78317
202.80339
202.82337
202.84251
202.86127
202.87977
202.89775
202.91506
202.93228
202.94897
202.96532
202.9815
202.99725
203.01282
203.02797
203.04309
203.05774
203.07244
203.08676
203.1011
203.11503
203.1291
203.14285
203.15663
203.17041
203.18374
203.19728
203.21075
203.2242
203.23752
203.25084
203.26411
203.27752
203.29079
203.30411
203.31744
203.33084
203.34413
203.35757
203.37094
203.38434
203.3978
203.41128
203.42467
203.4381
203.4516
203.46496
203.47828
203.49167
203.50486
203.51801
203.53103
203.54388
203.55652
203.56903
203.58119
203.59303
203.60456
203.61564
203.6263
203.63633
203.64577
203.65444
203.66231
203.66926
203.67514
203.67979
203.68314
203.68494
)
;
    }
    inlet
    {
        type            calculated;
        value           uniform 0;
    }
    outlet
    {
        type            calculated;
        value           uniform 0;
    }
    back
    {
        type            empty;
    }
    front
    {
        type            empty;
    }
}


// ************************************************************************* //
