/*--------------------------------*- C++ -*----------------------------------*\
| =========                 |                                                 |
| \\      /  F ield         | OpenFOAM: The Open Source CFD Toolbox           |
|  \\    /   O peration     | Version:  2306                                  |
|   \\  /    A nd           | Website:  www.openfoam.com                      |
|    \\/     M anipulation  |                                                 |
\*---------------------------------------------------------------------------*/
FoamFile
{
    version     2.0;
    format      ascii;
    arch        "LSB;label=32;scalar=64";
    class       volScalarField;
    location    "575";
    object      magR;
}
// * * * * * * * * * * * * * * * * * * * * * * * * * * * * * * * * * * * * * //

dimensions      [0 2 -2 0 0 0 0];

internalField   nonuniform List<scalar> 
1340
(
0.023538
0.0274623
0.0324771
0.0392891
0.0473599
0.0576334
0.0707697
0.0870427
0.107706
0.134069
0.16813
0.213099
0.273425
0.356423
0.474563
0.647438
0.913676
1.32394
2.04423
3.16547
5.69255
9.51444
22.2744
43.4768
48.178
46.0953
45.3019
46.1341
47.1584
47.4149
46.7854
45.3881
43.1308
40.0427
36.0556
0.0200321
0.0171884
0.0140008
0.0112669
0.00868561
0.00635916
0.00448042
0.00360469
0.0035844
0.00354304
0.00344051
0.00328197
0.00309976
0.00288482
0.00264314
0.00240399
0.0021695
0.00194594
0.00179066
0.0017693
0.00194391
0.0025245
0.00397257
0.00759027
0.0159145
0.0384354
0.0942136
0.279361
0.771385
2.37063
7.59357
14.8476
22.3411
29.4084
34.4237
35.426
32.5043
27.7011
22.8387
18.895
15.8726
13.5508
0.0035722
0.00352403
0.00342528
0.00327883
0.00307843
0.00281404
0.00241978
0.00240068
0.00234655
0.00226375
0.00217717
0.00208202
0.00198581
0.00189929
0.00182488
0.00176716
0.00172253
0.00169697
0.00169013
0.00170492
0.00171043
0.00165727
0.00140703
0.00119032
2.15977e-05
0.00168918
0.000378968
0.00146542
5.2238e-05
0.0206917
0.226021
0.802459
2.03166
4.58468
9.03423
14.9074
20.2192
22.8303
22.3172
20.0376
17.3843
0.00243863
0.00243561
0.00242913
0.00238587
0.00230911
0.00218026
0.00204215
0.00204636
0.00203608
0.00201912
0.00198413
0.00193205
0.00186712
0.00178607
0.00169343
0.00159096
0.00148086
0.00136465
0.00124345
0.00111951
0.00099389
0.00086191
0.000729318
0.000616015
0.000471256
0.000338802
7.92583e-05
0.000144675
1.84643e-05
0.00518494
0.0266878
0.0552363
0.0310334
0.0147541
0.0472296
0.451269
1.96199
5.3362
9.99741
13.8726
15.5416
0.00202024
0.00198706
0.00193497
0.00187224
0.00179357
0.0015321
0.00152939
0.00151745
0.00149615
0.0014632
0.00141852
0.00136452
0.00130202
0.00123305
0.00116185
0.00109069
0.00102244
0.000960141
0.00090569
0.000860413
0.000822352
0.000782336
0.000731587
0.000674115
0.000588902
0.000491956
0.000226099
2.75633e-05
5.53732e-06
0
0
0.0112174
0.0139495
0.0301193
0.0958379
0.0197799
0.0657483
0.409273
2.39612
6.15316
0.00152813
0.00151732
0.0014958
0.00146134
0.00141275
0.0012558
0.00126116
0.00126065
0.00125615
0.00124381
0.00122381
0.00119703
0.0011624
0.00112064
0.00107288
0.00101954
0.000961857
0.00090121
0.000838671
0.000775351
0.000709716
0.000638204
0.00056482
0.000495633
0.000435699
0.000396369
0.000336945
0.000273919
7.12673e-05
1.23346e-05
5.76994e-06
2.00619e-06
0
0
0
0.00464804
0.045691
0.0077869
0.110892
0.242931
0.00124442
0.0012287
0.00120582
0.00117563
0.00101587
0.00102033
0.00102104
0.00101846
0.00101034
0.000996297
0.000976651
0.000950829
0.000919056
0.000882212
0.000840925
0.000796229
0.000749502
0.000702073
0.00065505
0.000610003
0.000569162
0.00053113
0.000492268
0.000451249
0.00041273
0.000381304
0.000358457
0.000297115
0.000194194
0.000102175
3.01141e-05
6.80115e-06
3.79367e-06
4.79122e-07
0
0
0.000959127
0.03497
0.025911
0.00100753
0.000996227
0.000979796
0.000957167
0.000841977
0.000847724
0.000851138
0.000852513
0.000850179
0.000843802
0.000833638
0.000818938
0.0007997
0.000776334
0.000748805
0.000717648
0.000683475
0.000646846
0.000608412
0.00056896
0.000527994
0.000484456
0.000440385
0.000398572
0.000361404
0.00033235
0.000312217
0.000297973
0.000269306
0.000225416
0.000172698
0.000115421
6.92354e-05
7.56126e-06
3.5733e-06
1.54092e-07
0
0
0.00393469
0.00083334
0.000822932
0.000808981
0.000790465
0.000702354
0.000707889
0.000711922
0.00071444
0.000714349
0.000711283
0.000705316
0.000695788
0.000682615
0.000665919
0.000645646
0.000622083
0.000595645
0.000566758
0.00053605
0.000504012
0.000471377
0.000439413
0.000408234
0.000377814
0.000348592
0.000321883
0.000298823
0.000279155
0.000258092
0.000231879
0.000203951
0.000176099
0.000148621
0.000107623
6.97779e-05
3.09578e-06
1.92846e-06
0
0
0.000694768
0.000685985
0.000674636
0.000607185
0.000606764
0.000604233
0.000599033
0.000591079
0.000580364
0.000566713
0.00055026
0.000531199
0.000509743
0.000486232
0.000461004
0.000434584
0.000406926
0.000378222
0.000349708
0.000322875
0.000298812
0.000277764
0.000258112
0.000237006
0.000212951
0.000188339
0.000166816
0.000150127
0.000136532
0.000122953
8.9675e-05
3.84443e-05
3.35307e-06
0
0.00051907
0.000516459
0.000511669
0.000504668
0.000495243
0.000483427
0.000469289
0.000452921
0.000434563
0.000414489
0.000393001
0.000370586
0.000347752
0.000324952
0.000302918
0.00028222
0.000263082
0.000244516
0.000224445
0.000201757
0.000178008
0.000156562
0.000139392
0.000126938
0.000117694
0.000112298
9.87982e-05
5.78431e-05
3.75463e-06
0.000445229
0.000441028
0.000434876
0.000426753
0.000416651
0.000404594
0.000390696
0.00037512
0.0003581
0.000339985
0.000320904
0.000301279
0.000281977
0.000263654
0.000246463
0.000229656
0.000211657
0.000191503
0.000170201
0.000150226
0.000133327
0.000119768
0.000108727
0.000101561
9.82212e-05
9.48117e-05
6.12066e-05
0.000386121
0.000382244
0.000376747
0.000369577
0.000360693
0.000350163
0.000338081
0.000324584
0.00030997
0.000294465
0.000278362
0.000262191
0.000246435
0.0002312
0.000216004
0.00019978
0.000181829
0.000162881
0.000144831
0.000129165
0.000116017
0.000104784
9.54275e-05
8.89103e-05
8.64642e-05
9.09463e-05
0.000336765
0.00033322
0.000328294
0.000321925
0.000314118
0.000304911
0.000294379
0.000282752
0.000270179
0.000256832
0.000243107
0.000229488
0.000216071
0.000202517
0.000188059
0.000172169
0.000155378
0.000139181
0.000124873
0.000112658
0.000102104
9.28884e-05
8.51474e-05
7.94135e-05
7.82255e-05
0.000297185
0.000295075
0.000291816
0.00028734
0.000281615
0.00027466
0.000266518
0.000257313
0.000247213
0.000236331
0.000224877
0.000213271
0.000201596
0.000189616
0.00017681
0.000162788
0.000147933
0.000133414
0.000120352
0.000109045
9.92138e-05
9.06607e-05
8.31577e-05
7.75346e-05
6.97835e-05
0.00026165
0.00025963
0.000256592
0.000252512
0.000247361
0.000241156
0.000233956
0.000225921
0.00021709
0.000207578
0.00019773
0.000187642
0.000177159
0.000165904
0.000153597
0.000140519
0.000127573
0.0001157
0.000105256
9.60859e-05
8.81059e-05
8.10748e-05
7.58787e-05
6.90595e-05
0.000231176
0.000229237
0.000226415
0.000222676
0.000218013
0.000212449
0.000206108
0.000199012
0.000191205
0.000182931
0.000174299
0.000165212
0.000155399
0.000144654
0.00013319
0.000121703
0.000110972
0.00010137
9.28437e-05
8.53515e-05
7.88043e-05
7.35137e-05
6.94039e-05
0.00020602
0.000204895
0.000203034
0.000200396
0.000196965
0.000192731
0.000187783
0.000182134
0.000175789
0.00016889
0.000161569
0.000153767
0.000145279
0.000135956
0.000125956
0.000115817
0.000106178
9.74043e-05
8.95221e-05
8.25038e-05
7.64066e-05
7.10768e-05
6.80512e-05
0.000183208
0.000182081
0.000180299
0.000177838
0.000174682
0.00017087
0.000166423
0.000161318
0.00015562
0.000149471
0.000142836
0.000135555
0.000127514
0.000118836
0.000109934
0.000101331
9.33641e-05
8.61187e-05
7.95902e-05
7.38838e-05
6.88005e-05
6.55459e-05
0.000163906
0.000163327
0.000162204
0.000160503
0.000158203
0.000155306
0.000151849
0.000147791
0.000143139
0.000138021
0.000132428
0.000126233
0.000119345
0.000111857
0.000104085
9.64517e-05
8.9264e-05
8.26392e-05
7.66082e-05
7.12565e-05
6.65542e-05
6.28594e-05
0.000146522
0.000145899
0.000144787
0.000143163
0.000141013
0.000138376
0.000135193
0.000131438
0.000127222
0.000122553
0.000117327
0.000111467
0.000105042
9.82963e-05
9.15651e-05
8.51219e-05
7.90987e-05
7.35588e-05
6.85569e-05
6.42104e-05
6.03623e-05
0.000131471
0.000131221
0.000130565
0.000129477
0.000127929
0.000125951
0.000123487
0.000120498
0.000117065
0.000113203
0.000108835
0.000103888
9.84116e-05
9.25911e-05
8.66938e-05
8.09547e-05
7.55122e-05
7.04484e-05
6.58068e-05
6.1753e-05
5.8016e-05
0.000118018
0.000117707
0.000117032
0.000115962
0.000114513
0.000112643
0.000110302
0.000107539
0.00010438
0.000100763
9.66204e-05
9.19824e-05
8.69925e-05
8.18592e-05
7.67818e-05
7.18941e-05
6.72877e-05
6.30091e-05
5.92116e-05
5.56955e-05
0.000106136
0.000106086
0.000105728
0.000105036
0.000104014
0.000102627
0.00010083
9.8636e-05
9.60814e-05
9.31144e-05
8.96725e-05
8.57727e-05
8.15231e-05
7.70837e-05
7.26221e-05
6.82604e-05
6.40933e-05
6.01706e-05
5.66198e-05
5.33298e-05
9.54489e-05
9.55901e-05
9.54746e-05
9.50781e-05
9.4392e-05
9.33985e-05
9.20458e-05
9.03292e-05
8.8288e-05
8.58828e-05
8.30509e-05
7.97978e-05
7.62035e-05
7.23907e-05
6.84948e-05
6.46277e-05
6.08788e-05
5.73002e-05
5.39979e-05
5.09115e-05
8.61142e-05
8.61801e-05
8.60098e-05
8.55888e-05
8.49088e-05
8.39225e-05
8.26052e-05
8.09998e-05
7.90716e-05
7.67622e-05
7.40686e-05
7.10495e-05
6.77981e-05
6.44199e-05
6.10124e-05
5.76584e-05
5.4411e-05
5.13525e-05
4.84572e-05
7.75626e-05
7.7761e-05
7.77616e-05
7.75484e-05
7.71165e-05
7.64242e-05
7.54394e-05
7.4197e-05
7.26713e-05
7.08076e-05
6.85967e-05
6.60796e-05
6.33253e-05
6.04162e-05
5.74326e-05
5.44483e-05
5.15152e-05
4.86998e-05
4.59851e-05
6.9847e-05
7.0138e-05
7.02664e-05
7.02132e-05
6.99767e-05
6.95177e-05
6.88047e-05
6.78617e-05
6.66724e-05
6.51869e-05
6.33889e-05
6.1307e-05
5.89901e-05
5.65008e-05
5.39053e-05
5.12659e-05
4.86264e-05
4.60488e-05
4.35133e-05
6.3243e-05
6.3463e-05
6.35302e-05
6.3443e-05
6.31685e-05
6.26739e-05
6.19789e-05
6.10676e-05
5.98967e-05
5.84486e-05
5.67407e-05
5.48063e-05
5.26907e-05
5.04459e-05
4.81244e-05
4.57633e-05
4.34099e-05
4.10552e-05
5.70081e-05
5.72917e-05
5.7447e-05
5.74728e-05
5.73412e-05
5.70215e-05
5.65262e-05
5.58431e-05
5.49342e-05
5.37807e-05
5.23908e-05
5.0787e-05
4.90008e-05
4.70712e-05
4.50392e-05
4.29367e-05
4.08e-05
3.86204e-05
5.13724e-05
5.16964e-05
5.19146e-05
5.20239e-05
5.20016e-05
5.182e-05
5.14846e-05
5.09859e-05
5.02921e-05
4.93842e-05
4.8263e-05
4.69428e-05
4.54443e-05
4.37949e-05
4.20263e-05
4.01618e-05
3.82301e-05
3.62219e-05
4.66277e-05
4.68888e-05
4.70578e-05
4.71172e-05
4.70411e-05
4.68316e-05
4.64807e-05
4.5962e-05
4.52562e-05
4.43608e-05
4.3282e-05
4.20324e-05
4.06301e-05
3.90976e-05
3.74525e-05
3.57131e-05
3.38718e-05
4.20401e-05
4.23269e-05
4.25359e-05
4.26543e-05
4.26587e-05
4.25464e-05
4.23123e-05
4.19338e-05
4.13933e-05
4.06851e-05
3.981e-05
3.87742e-05
3.75882e-05
3.62665e-05
3.48203e-05
3.32615e-05
3.15804e-05
3.78876e-05
3.81876e-05
3.84223e-05
3.85819e-05
3.86453e-05
3.86067e-05
3.84638e-05
3.81975e-05
3.77906e-05
3.72358e-05
3.65311e-05
3.56772e-05
3.46785e-05
3.35433e-05
3.22771e-05
3.08856e-05
3.44363e-05
3.46847e-05
3.48709e-05
3.49759e-05
3.49925e-05
3.49192e-05
3.47402e-05
3.44398e-05
3.40101e-05
3.34464e-05
3.27461e-05
3.19087e-05
3.09371e-05
2.98326e-05
2.85954e-05
3.1038e-05
3.12914e-05
3.14929e-05
3.1626e-05
3.16821e-05
3.16608e-05
3.15488e-05
3.13328e-05
3.10041e-05
3.05563e-05
2.99843e-05
2.92845e-05
2.84556e-05
2.74952e-05
2.63996e-05
2.79618e-05
2.82134e-05
2.84215e-05
2.85715e-05
2.86551e-05
2.86718e-05
2.86106e-05
2.846e-05
2.82117e-05
2.78582e-05
2.73927e-05
2.68095e-05
2.61044e-05
2.52717e-05
2.43049e-05
2.51792e-05
2.54246e-05
2.56324e-05
2.57907e-05
2.58918e-05
2.59347e-05
2.59112e-05
2.58109e-05
2.56259e-05
2.53484e-05
2.49707e-05
2.44858e-05
2.3887e-05
2.3167e-05
2.23169e-05
2.26637e-05
2.28987e-05
2.31015e-05
2.32619e-05
2.3373e-05
2.34336e-05
2.34371e-05
2.33746e-05
2.32388e-05
2.3022e-05
2.27162e-05
2.23135e-05
2.18058e-05
2.11844e-05
2.04394e-05
2.06132e-05
2.08078e-05
2.09658e-05
2.10811e-05
2.11522e-05
2.1174e-05
2.11394e-05
2.10416e-05
2.08728e-05
2.06254e-05
2.0291e-05
1.9861e-05
1.93258e-05
1.86748e-05
1.85473e-05
1.87311e-05
1.88832e-05
1.89979e-05
1.90743e-05
1.91083e-05
1.90938e-05
1.90246e-05
1.88937e-05
1.86934e-05
1.84156e-05
1.80514e-05
1.75911e-05
1.70238e-05
1.66807e-05
1.68523e-05
1.69964e-05
1.71077e-05
1.71856e-05
1.72268e-05
1.7226e-05
1.7178e-05
1.70766e-05
1.69142e-05
1.6683e-05
1.63745e-05
1.5979e-05
1.5486e-05
1.49961e-05
1.51548e-05
1.52892e-05
1.53949e-05
1.54712e-05
1.55157e-05
1.55242e-05
1.54918e-05
1.5413e-05
1.5281e-05
1.50882e-05
1.48266e-05
1.44872e-05
1.40595e-05
1.34765e-05
1.3622e-05
1.3746e-05
1.38448e-05
1.39176e-05
1.39629e-05
1.39771e-05
1.39558e-05
1.38943e-05
1.37864e-05
1.36251e-05
1.34031e-05
1.31118e-05
1.27417e-05
1.22394e-05
1.23528e-05
1.24438e-05
1.25119e-05
1.25559e-05
1.2573e-05
1.25596e-05
1.25112e-05
1.24225e-05
1.22871e-05
1.20984e-05
1.18485e-05
1.15286e-05
1.09934e-05
1.10961e-05
1.1179e-05
1.12416e-05
1.12832e-05
1.13014e-05
1.12933e-05
1.12549e-05
1.11813e-05
1.10672e-05
1.09064e-05
1.0692e-05
9.87155e-06
9.96391e-06
1.00386e-05
1.00954e-05
1.01337e-05
1.01518e-05
1.01471e-05
1.0116e-05
1.00545e-05
9.95787e-06
9.82059e-06
9.63652e-06
8.86211e-06
8.94469e-06
9.01145e-06
9.06231e-06
9.09702e-06
9.11414e-06
9.11144e-06
9.08592e-06
9.03404e-06
8.95173e-06
8.83423e-06
8.67612e-06
7.95465e-06
8.0281e-06
8.08734e-06
8.13239e-06
8.16331e-06
8.17888e-06
8.17724e-06
8.15586e-06
8.11169e-06
8.04124e-06
7.94041e-06
7.80448e-06
7.20444e-06
7.25667e-06
7.29627e-06
7.32338e-06
7.33711e-06
7.3359e-06
7.31763e-06
7.27967e-06
7.21902e-06
7.13224e-06
7.0153e-06
6.46489e-06
6.51067e-06
6.54518e-06
6.56866e-06
6.58049e-06
6.57933e-06
6.56337e-06
6.53042e-06
6.47794e-06
6.40301e-06
6.30225e-06
5.80137e-06
5.84126e-06
5.87111e-06
5.89124e-06
5.90117e-06
5.89978e-06
5.88555e-06
5.85671e-06
5.81107e-06
5.74622e-06
5.65925e-06
5.20645e-06
5.24106e-06
5.26667e-06
5.28371e-06
5.29181e-06
5.29006e-06
5.2772e-06
5.25172e-06
5.21186e-06
5.15555e-06
5.08037e-06
4.67332e-06
4.70317e-06
4.72502e-06
4.73929e-06
4.74572e-06
4.74357e-06
4.73178e-06
4.70911e-06
4.67411e-06
4.62505e-06
4.55994e-06
4.19583e-06
4.22149e-06
4.24002e-06
4.25182e-06
4.2567e-06
4.25413e-06
4.24321e-06
4.22291e-06
4.19203e-06
4.14916e-06
3.76838e-06
3.79037e-06
3.80596e-06
3.81559e-06
3.81914e-06
3.81616e-06
3.80595e-06
3.78765e-06
3.76028e-06
3.72269e-06
3.40476e-06
3.41777e-06
3.42551e-06
3.42791e-06
3.42456e-06
3.41492e-06
3.39832e-06
3.37393e-06
3.34085e-06
3.06005e-06
3.07084e-06
3.07691e-06
3.07829e-06
3.07463e-06
3.0655e-06
3.05035e-06
3.02852e-06
2.99928e-06
2.75178e-06
2.76065e-06
2.76534e-06
2.76587e-06
2.76199e-06
2.75332e-06
2.73945e-06
2.71983e-06
2.69388e-06
2.47556e-06
2.48283e-06
2.48637e-06
2.48621e-06
2.4822e-06
2.47403e-06
2.46133e-06
2.44371e-06
2.42067e-06
2.22715e-06
2.23304e-06
2.23564e-06
2.23501e-06
2.231e-06
2.22337e-06
2.21183e-06
2.19606e-06
2.17567e-06
2.00312e-06
2.00783e-06
2.00965e-06
2.00865e-06
2.0047e-06
1.99762e-06
1.98718e-06
1.97312e-06
1.80156e-06
1.80525e-06
1.80637e-06
1.80499e-06
1.80105e-06
1.7944e-06
1.78487e-06
1.77228e-06
1.62126e-06
1.62401e-06
1.62446e-06
1.62268e-06
1.61865e-06
1.61225e-06
1.60339e-06
1.59191e-06
1.46299e-06
1.4628e-06
1.46061e-06
1.45641e-06
1.45012e-06
1.44167e-06
1.431e-06
1.31967e-06
1.31889e-06
1.31628e-06
1.31188e-06
1.30559e-06
1.29738e-06
1.28728e-06
1.19349e-06
1.19259e-06
1.19004e-06
1.18605e-06
1.18018e-06
1.17248e-06
1.16347e-06
1.0939e-06
1.09272e-06
1.08991e-06
1.08615e-06
1.08036e-06
1.07268e-06
1.06457e-06
1.01323e-06
1.01159e-06
1.00816e-06
1.0039e-06
9.97513e-07
9.89019e-07
9.37151e-07
9.35797e-07
9.32643e-07
9.28618e-07
9.22563e-07
9.14278e-07
8.62427e-07
8.60466e-07
8.56641e-07
8.51916e-07
8.45473e-07
8.36489e-07
7.93097e-07
7.92058e-07
7.89262e-07
7.85369e-07
7.80046e-07
7.7274e-07
7.18065e-07
7.14481e-07
7.09092e-07
7.02993e-07
6.95939e-07
6.85181e-07
6.69848e-07
6.70128e-07
6.68621e-07
6.64903e-07
6.60581e-07
6.56593e-07
5.69239e-07
5.61596e-07
5.55217e-07
5.47631e-07
5.31174e-07
6.02866e-07
6.06186e-07
6.02573e-07
6.01516e-07
6.12665e-07
4.74222e-07
4.75185e-07
4.82263e-07
4.79282e-07
4.60341e-07
7.19251e-07
7.39299e-07
7.3737e-07
7.45987e-07
7.84612e-07
8.04583e-07
8.28228e-07
8.61946e-07
1.14904e-06
1.2161e-06
1.17247e-06
1.113e-06
)
;

boundaryField
{
    inlet
    {
        type            calculated;
        value           nonuniform List<scalar> 4(5.07409e-06 5.39921e-06 5.46839e-06 5.53222e-06);
    }
    outlet
    {
        type            calculated;
        value           nonuniform List<scalar> 0();
    }
    walls
    {
        type            calculated;
        value           nonuniform List<scalar> 
42
(
1.33437
1.54944
1.79052
2.0177
2.23552
2.44246
2.61893
2.76266
2.87478
2.95048
2.99498
3.00654
2.97847
2.91164
2.80296
2.65287
2.4567
2.21319
1.91707
1.57126
1.18498
0.79429
0.465049
0.278397
0.217327
0.244819
0.308843
0.383113
0.449742
0.496942
0.523395
0.533064
0.522765
0.494742
0.44922
1.1282
0.922569
0.715088
0.505364
0.321069
0.171864
0.0724894
)
;
    }
    frontAndBack
    {
        type            empty;
    }
    procBoundary5to0
    {
        type            processor;
        value           nonuniform List<scalar> 4(0.000592105 0.000585158 0.000577506 0.000567969);
    }
    procBoundary5to1
    {
        type            processor;
        value           nonuniform List<scalar> 
13
(
0.00335175
0.00250372
0.00250372
0.00200263
0.00169056
0.00169056
0.0013439
0.00113689
0.00113689
0.000927814
0.000767263
0.000659565
0.000659565
)
;
    }
    procBoundary5to4
    {
        type            processor;
        value           nonuniform List<scalar> 
95
(
0.00059753
0.000602056
0.000605557
0.000605557
0.000518656
0.000519673
0.000519673
0.000448488
0.000447694
0.000447694
0.000388422
0.000388422
0.000338979
0.000338979
0.000298223
0.00026273
0.00026273
0.000232274
0.000232274
0.000206453
0.000183732
0.000183732
0.000163981
0.000146694
0.000146694
0.000131343
0.000117989
0.000117989
0.000105906
9.50753e-05
8.58355e-05
8.58355e-05
7.71895e-05
6.94104e-05
6.28889e-05
6.28889e-05
5.66136e-05
5.09568e-05
4.62793e-05
4.62793e-05
4.16805e-05
3.75277e-05
3.41324e-05
3.41324e-05
3.07377e-05
2.76705e-05
2.49007e-05
2.24005e-05
2.03911e-05
2.03911e-05
1.83394e-05
1.64881e-05
1.48189e-05
1.33148e-05
1.21071e-05
1.21071e-05
1.08737e-05
9.76399e-06
8.76593e-06
7.86897e-06
7.13952e-06
7.13952e-06
6.40776e-06
5.75125e-06
5.16263e-06
4.63514e-06
4.16264e-06
3.73959e-06
3.386e-06
3.386e-06
3.04409e-06
2.73827e-06
2.46416e-06
2.21756e-06
1.99513e-06
1.79494e-06
1.61587e-06
1.4611e-06
1.4611e-06
1.31853e-06
1.19264e-06
1.09333e-06
1.01301e-06
9.36686e-07
8.62498e-07
7.92407e-07
7.20055e-07
6.67482e-07
5.75404e-07
5.75404e-07
5.98026e-07
4.71276e-07
7.01481e-07
7.5484e-07
1.14672e-06
)
;
    }
    procBoundary5to6
    {
        type            processor;
        value           nonuniform List<scalar> 
86
(
31.2637
11.7092
14.8933
15.3165
9.97234
2.27815
0.155033
0.0103317
0.00110517
0
0
2.93299e-06
4.48283e-05
9.554e-05
8.73978e-05
6.99967e-05
6.11986e-05
5.95172e-05
5.99513e-05
5.95671e-05
5.79141e-05
5.55699e-05
5.3056e-05
5.05824e-05
4.81726e-05
4.57897e-05
4.3417e-05
4.10559e-05
3.87112e-05
3.63992e-05
3.41319e-05
3.19149e-05
2.97603e-05
2.93583e-05
2.93583e-05
2.72146e-05
2.51562e-05
2.31905e-05
2.13229e-05
1.95564e-05
1.78935e-05
1.63354e-05
1.48818e-05
1.35311e-05
1.2281e-05
1.11282e-05
1.0416e-05
1.0416e-05
9.3987e-06
8.47133e-06
7.62822e-06
6.86361e-06
6.17176e-06
5.54688e-06
4.98356e-06
4.47647e-06
4.09264e-06
4.09264e-06
3.67352e-06
3.29794e-06
2.96169e-06
2.66085e-06
2.39161e-06
2.15015e-06
1.95513e-06
1.95513e-06
1.75635e-06
1.57764e-06
1.41799e-06
1.27519e-06
1.15263e-06
1.05489e-06
9.80538e-07
9.80538e-07
9.05791e-07
8.27461e-07
7.64265e-07
6.75687e-07
6.47368e-07
5.2361e-07
6.0088e-07
4.67541e-07
8.07737e-07
8.07737e-07
8.65738e-07
1.46531e-06
)
;
    }
}


// ************************************************************************* //
