/*--------------------------------*- C++ -*----------------------------------*\
| =========                 |                                                 |
| \\      /  F ield         | OpenFOAM: The Open Source CFD Toolbox           |
|  \\    /   O peration     | Version:  2306                                  |
|   \\  /    A nd           | Website:  www.openfoam.com                      |
|    \\/     M anipulation  |                                                 |
\*---------------------------------------------------------------------------*/
FoamFile
{
    version     2.0;
    format      ascii;
    arch        "LSB;label=32;scalar=64";
    class       volVectorField;
    location    "575";
    object      momentError;
}
// * * * * * * * * * * * * * * * * * * * * * * * * * * * * * * * * * * * * * //

dimensions      [0 1 -2 0 0 0 0];

internalField   nonuniform List<vector> 
1340
(
(-5.88081e-05 0.000157989 -6.95743e-15)
(-4.63171e-05 0.000192638 2.41135e-14)
(-3.86912e-05 0.000245627 -4.72326e-14)
(-2.04165e-06 0.000229209 1.778e-14)
(1.84749e-05 0.000238304 1.10239e-13)
(3.5778e-05 0.000238354 -1.75099e-13)
(5.91422e-05 0.000269089 8.99984e-14)
(8.95176e-05 0.000288319 -1.11069e-13)
(0.000125698 0.000298321 -2.5463e-13)
(0.000154157 0.000276062 3.44117e-13)
(0.000168537 0.000243133 1.24149e-13)
(0.000175742 0.000218821 -2.28811e-13)
(0.0001746 0.000191637 -3.34526e-13)
(0.000178126 0.000170889 -5.72036e-14)
(0.000191505 0.000159567 -1.39768e-13)
(0.000218101 0.000156525 -3.10394e-13)
(0.000274616 0.000163161 -1.46757e-13)
(0.000372631 0.000167542 8.32706e-13)
(0.00017686 9.01134e-05 4.23307e-13)
(0.000898068 0.000441428 -5.95089e-13)
(0.000931846 0.000324892 1.05315e-13)
(0.00080243 -9.6479e-05 1.53273e-13)
(-0.00853149 -0.00124202 -6.74716e-14)
(-0.0126949 -0.00263954 -1.51574e-13)
(0.00801678 -0.000183095 3.57102e-14)
(0.0215551 0.00380586 -2.34317e-15)
(0.0141663 0.00481353 4.15487e-14)
(-0.00128545 0.00275393 -1.64643e-14)
(-0.00875534 0.000757918 4.39563e-14)
(-0.0051097 -7.18302e-06 1.54492e-13)
(-0.00145519 -0.000165439 3.0309e-14)
(-0.000238792 -9.83439e-05 -1.28625e-13)
(0.000666209 -9.20572e-05 -7.92221e-15)
(0.000787707 -9.45221e-05 -2.15704e-13)
(0.000758901 -0.000210419 -2.8231e-13)
(-7.6298e-05 0.000151802 -1.0766e-14)
(-8.8633e-05 0.000102393 2.65582e-14)
(-9.86796e-05 6.76481e-05 1.73226e-15)
(-8.55524e-05 2.48363e-05 3.61654e-14)
(-8.08361e-05 8.07364e-06 -3.2885e-14)
(-2.04555e-05 -6.34469e-05 -9.4022e-14)
(3.03777e-06 -8.1214e-05 -1.07345e-13)
(-9.77047e-05 0.000167682 -1.31424e-14)
(-8.7114e-05 0.000190727 5.8845e-15)
(-6.91481e-05 0.000225864 7.81391e-15)
(-3.74309e-05 0.000218965 -3.36621e-14)
(-6.25753e-06 0.000216843 2.10326e-14)
(1.83305e-06 0.000231275 8.03965e-14)
(3.52748e-05 0.000259574 1.03894e-13)
(6.08324e-05 0.000280218 1.00638e-13)
(9.50203e-05 0.000287239 -3.98773e-15)
(0.000120137 0.000268542 1.9068e-13)
(0.00013335 0.000235306 -2.08859e-13)
(0.00013455 0.000198804 -1.19528e-13)
(0.000137783 0.00017647 4.48617e-13)
(0.000137453 0.000159426 1.28258e-13)
(0.000158484 0.000136453 -1.19187e-13)
(0.000171575 0.000116041 -1.78004e-14)
(0.000170787 0.00011143 3.42057e-13)
(0.000158702 0.00015703 -1.53339e-13)
(-0.000589938 0.00040432 -4.91941e-13)
(-0.00352994 0.000459265 1.88443e-13)
(0.00219888 0.00045299 2.35433e-13)
(-0.00741572 0.00109158 4.6775e-14)
(0.00960455 -0.00182306 -1.30874e-13)
(0.0670229 0.00650984 1.92543e-13)
(0.0651514 0.0131014 -4.19925e-14)
(-0.0108496 0.0080101 -7.04807e-14)
(-0.0441022 0.00271772 -3.01917e-14)
(-0.0487283 -0.00251061 5.59894e-15)
(-0.0241895 -0.00340453 -1.49948e-14)
(-0.00211957 -0.00152393 -1.58756e-14)
(0.00115024 -0.000235555 -2.03969e-14)
(-0.000614983 -5.8515e-05 3.52723e-14)
(-0.000320839 -0.000108654 -1.88212e-13)
(0.000396188 -0.000135358 -2.24044e-13)
(0.000773803 -0.000171766 1.62301e-13)
(-0.000107791 0.000147435 -4.63885e-15)
(-0.000128854 0.000114251 1.24099e-13)
(-0.000134659 7.70591e-05 -7.98388e-15)
(-0.000134001 3.82355e-05 -1.29075e-13)
(-0.000114824 9.454e-08 -2.56851e-14)
(-7.69794e-05 -4.00834e-05 1.27346e-13)
(-6.81373e-05 0.000156609 -5.07371e-15)
(-5.83985e-05 0.000168981 -8.20212e-16)
(-3.7144e-05 0.000187294 -5.83697e-15)
(-5.07894e-06 0.000187457 1.55514e-14)
(1.34954e-05 0.000186544 3.91317e-15)
(2.65325e-05 0.00020813 -3.37372e-14)
(4.67132e-05 0.000230455 -1.07609e-13)
(7.16093e-05 0.000251621 -9.54174e-14)
(0.000100349 0.000249228 -1.11322e-13)
(0.000123899 0.000231225 1.10097e-14)
(0.000137717 0.000203319 2.64052e-13)
(0.000144032 0.000175918 7.06209e-14)
(0.000149007 0.000151065 -9.9311e-14)
(0.000155407 0.000130229 -2.41053e-13)
(0.000151422 0.000120628 1.10245e-13)
(0.000142454 0.000113237 1.45922e-13)
(0.000172863 6.9959e-05 -9.42421e-14)
(0.00027998 -0.000152965 -1.89373e-13)
(0.000899769 -0.00118096 3.17157e-13)
(0.00430387 -0.00172609 -9.489e-14)
(-7.44996e-06 0.000486448 -1.19561e-13)
(0.00212313 -0.00445136 1.78553e-13)
(0.00126327 -0.00396944 7.3897e-14)
(-0.015307 -0.00934467 -3.35087e-15)
(-0.0461861 -0.00979915 -3.30801e-14)
(-0.0570492 -0.00119139 3.55714e-15)
(-0.0513366 -0.000318847 -3.05916e-14)
(-0.0198177 -0.00213733 2.1061e-14)
(0.0457384 -0.000524093 -3.31706e-14)
(0.02356 0.000916015 -7.20983e-14)
(0.00341257 0.000119209 6.96062e-14)
(-0.000811213 -0.000540789 3.08564e-14)
(0.001083 -0.000397396 -1.21845e-13)
(0.000528585 -0.000216595 7.82229e-14)
(0.000610683 -0.000168157 1.65103e-14)
(-9.37906e-05 0.000133006 2.92179e-14)
(-0.000107713 0.00011007 -2.76868e-14)
(-0.000119056 7.89433e-05 -9.8343e-14)
(-0.000117157 4.92829e-05 4.48517e-14)
(-0.000102871 1.65608e-05 2.05983e-14)
(-8.03024e-05 -1.14385e-05 -6.45708e-14)
(-5.59076e-05 0.00013045 7.92673e-15)
(-4.05224e-05 0.000155283 -2.34386e-15)
(-2.33683e-05 0.000164271 6.65893e-17)
(4.81214e-06 0.00016784 -7.13003e-15)
(1.5131e-05 0.000173395 1.99584e-15)
(3.10853e-05 0.000194803 3.58143e-14)
(4.9417e-05 0.000220084 5.84656e-14)
(7.34987e-05 0.000229447 5.46314e-14)
(9.89386e-05 0.000225607 -1.33388e-13)
(0.000119592 0.000209191 -1.11642e-13)
(0.000131592 0.000183892 1.41517e-13)
(0.00013918 0.000159593 2.56581e-13)
(0.000143071 0.000138388 1.35702e-13)
(0.000146382 0.000121703 -4.72147e-13)
(0.000151043 0.000108208 -1.62161e-13)
(0.000188522 7.70057e-05 3.8591e-13)
(0.000213694 5.82818e-05 8.39267e-14)
(0.000257744 5.31009e-05 -1.2427e-13)
(0.000400004 0.000296064 -2.28418e-13)
(7.74677e-05 0.00132106 1.97915e-13)
(0.000966903 5.1744e-05 4.3595e-14)
(0.00374204 0.00219492 -2.22444e-13)
(0.000906844 -0.0010821 1.65577e-13)
(-0.0015979 -0.000327167 -1.1416e-13)
(-0.00222686 0.0067808 -3.71967e-14)
(0.00513931 0.00556226 3.56399e-14)
(0.00386647 0.00644166 -4.55793e-14)
(0.104638 -0.0106192 1.00805e-14)
(-0.0138901 -0.00511559 1.36425e-14)
(0.0330666 -0.00718023 2.09591e-14)
(0.0083955 0.00174434 -9.02256e-15)
(0.0172752 -0.000991135 2.55408e-14)
(0.00525411 6.92561e-05 2.07247e-13)
(0.00108858 -0.000190015 5.34747e-14)
(0.000541841 -7.69952e-05 -7.58575e-14)
(-7.82279e-05 0.000118066 1.88164e-14)
(-9.15236e-05 0.000104595 -3.68743e-14)
(-0.000101679 8.24819e-05 -4.04092e-15)
(-9.90431e-05 5.81e-05 -3.37242e-14)
(-9.09495e-05 3.06385e-05 -2.08221e-14)
(-4.51675e-05 0.000115006 -4.04106e-15)
(-2.6474e-05 0.000131724 4.77979e-15)
(-6.53864e-06 0.000145802 5.65048e-17)
(1.31402e-05 0.000151046 -4.17632e-15)
(2.34753e-05 0.000161227 -2.88316e-14)
(3.65847e-05 0.000182206 3.46357e-14)
(5.70564e-05 0.000199261 1.2634e-14)
(7.99353e-05 0.000203391 -7.01524e-14)
(0.000102546 0.000197162 -5.82309e-14)
(0.000121343 0.000180745 -1.21381e-13)
(0.000133026 0.000157741 1.74614e-14)
(0.00014078 0.000135914 -1.32354e-13)
(0.000145331 0.00011612 8.04617e-15)
(0.000149934 9.89223e-05 3.54352e-13)
(0.000156153 8.26549e-05 -2.34206e-13)
(0.000160963 7.22399e-05 -1.67665e-13)
(0.000168954 5.96666e-05 1.01579e-13)
(0.000192962 3.58341e-05 -1.31966e-13)
(0.000292118 3.93255e-05 8.48917e-14)
(0.000309258 -4.5979e-05 -1.4397e-13)
(0.000552233 5.18975e-05 -1.61817e-13)
(0.000413636 -0.000220924 1.83267e-13)
(-3.60306e-05 -0.000903471 -4.05353e-14)
(0.00249747 -0.0012996 8.96875e-14)
(0.00703956 0.000235007 5.67709e-14)
(0.00165006 0.0044822 6.31311e-15)
(0.0178981 0.00174406 1.0882e-13)
(-0.0594051 0.0084345 -2.11382e-14)
(0.0034519 0.00117859 2.25299e-14)
(-0.00500582 -0.00292466 -5.53665e-14)
(-0.0125522 -0.00418095 -1.55695e-13)
(0.0082507 0.00242775 1.3591e-15)
(0.00218818 0.000312055 1.40181e-13)
(0.00114773 0.000160085 -3.31425e-14)
(-0.00103237 0.000169534 -1.04861e-13)
(-5.61553e-05 0.00010627 2.02826e-14)
(-7.11464e-05 9.84634e-05 1.43635e-14)
(-7.76506e-05 8.34983e-05 -3.19922e-14)
(-8.06716e-05 6.1993e-05 7.88747e-14)
(-7.58434e-05 3.96413e-05 1.86884e-13)
(-3.01353e-05 0.000103578 1.93828e-15)
(-1.66586e-05 0.00011355 5.06791e-16)
(4.74155e-07 0.000128693 3.16249e-15)
(1.64172e-05 0.000141728 -2.45878e-15)
(2.5819e-05 0.000152022 -1.08435e-15)
(3.99637e-05 0.000169511 1.63381e-14)
(6.05896e-05 0.000181949 7.60514e-15)
(8.2003e-05 0.000181803 4.04773e-14)
(0.00010293 0.00017497 6.79653e-14)
(0.000119851 0.000159058 -3.20432e-14)
(0.000130936 0.000138684 -7.79472e-15)
(0.000138608 0.000119332 7.50086e-14)
(0.000143835 0.000101395 -1.45507e-13)
(0.000147494 8.50698e-05 -2.89384e-13)
(0.000152241 6.92401e-05 1.75229e-13)
(0.000158871 5.38587e-05 2.68354e-13)
(0.000181487 2.18342e-05 -3.55848e-13)
(0.000206886 -3.71007e-06 6.06679e-14)
(0.00027043 5.09446e-06 1.11899e-13)
(0.000396685 -8.428e-05 -1.12965e-13)
(0.000464909 -0.000406517 8.56212e-14)
(0.000480017 -0.000858413 -8.73351e-14)
(-3.61291e-05 -0.00195229 -1.69251e-13)
(-0.00122534 -0.00220906 -5.03166e-14)
(-0.0023123 8.76578e-05 -1.16204e-13)
(-0.00221788 0.00322403 5.63226e-14)
(-0.00692884 0.00434913 -1.62121e-14)
(-0.000939223 0.00125704 -1.09033e-14)
(0.000609853 -0.00115913 2.13823e-14)
(-0.0313973 0.00226519 4.23929e-14)
(0.0140015 -0.00273403 3.28979e-14)
(-0.0051288 0.000992535 -4.52636e-14)
(0.00253788 0.000420963 -1.1645e-13)
(0.000734112 0.000380237 -1.48659e-13)
(-0.00117947 0.00038378 3.37767e-14)
(-4.12135e-05 9.743e-05 8.5949e-15)
(-5.1452e-05 9.36469e-05 -2.06929e-14)
(-5.85336e-05 8.14622e-05 1.04909e-14)
(-6.22136e-05 6.32307e-05 -5.83379e-15)
(-1.4902e-05 9.20548e-05 3.09102e-15)
(-6.38099e-06 0.000103944 5.82452e-16)
(4.99345e-06 0.000118123 -1.1264e-15)
(1.87112e-05 0.000132802 4.16962e-15)
(2.8356e-05 0.000143895 -8.69019e-15)
(4.26685e-05 0.000156867 -1.09433e-15)
(6.32049e-05 0.000163043 2.35995e-14)
(8.29262e-05 0.000161457 -1.11468e-14)
(0.000102432 0.000153507 -3.96142e-14)
(0.000118402 0.000138599 2.65385e-14)
(0.000129064 0.000120014 -6.07785e-14)
(0.000137422 0.00010221 -1.50861e-13)
(0.000142859 8.55821e-05 1.06603e-13)
(0.00014638 6.92842e-05 3.77166e-13)
(0.000150792 5.26799e-05 -1.38923e-14)
(0.000156723 3.46697e-05 -4.01368e-13)
(0.000164019 1.69038e-05 3.32533e-13)
(0.000183332 -2.33966e-06 2.33369e-13)
(0.000230744 -2.02399e-05 1.24569e-13)
(0.000297198 -9.49541e-05 5.87362e-14)
(0.000347078 -0.000264973 -2.88418e-14)
(0.000356403 -0.000633397 1.61935e-13)
(-0.000232774 -0.00139472 1.11967e-13)
(-0.00153903 -0.00153771 -1.01885e-14)
(-0.00194292 3.50798e-05 2.14258e-13)
(-0.000112822 0.0019905 -6.57046e-14)
(0.00305374 0.00171348 -7.65291e-15)
(0.00292895 9.50377e-05 5.67712e-15)
(0.00143167 -0.000931089 -2.01406e-14)
(0.00087844 -0.00136072 -2.08063e-14)
(-0.00155461 -0.000774858 -1.52576e-14)
(-0.0018002 0.00029395 4.77751e-14)
(0.000472257 0.000402402 -2.27677e-14)
(0.00106942 0.000329746 -1.27984e-13)
(-0.0011051 0.000556157 -2.08084e-14)
(-2.67845e-05 8.94429e-05 -9.66502e-15)
(-3.5504e-05 8.74147e-05 1.2194e-14)
(-4.39887e-05 7.77902e-05 -2.61343e-14)
(-4.98685e-05 6.07261e-05 -3.94507e-15)
(-9.12359e-06 8.45586e-05 1.40113e-15)
(-3.13383e-06 9.83945e-05 1.51054e-15)
(7.2553e-06 0.000112898 -9.49552e-16)
(2.04852e-05 0.000125635 -1.91882e-15)
(2.94002e-05 0.000134571 -3.80277e-15)
(4.50809e-05 0.00014594 1.65054e-14)
(6.40069e-05 0.000149235 1.38751e-14)
(8.25507e-05 0.000144744 -5.19114e-14)
(0.000100277 0.000135751 2.17311e-14)
(0.00011491 0.000121758 1.11285e-13)
(0.00012573 0.000104337 4.63176e-14)
(0.000134244 8.853e-05 2.13133e-14)
(0.000140059 7.29764e-05 -1.87882e-13)
(0.000143488 5.71406e-05 -4.29855e-13)
(0.000146649 4.06902e-05 -3.04036e-13)
(0.000150564 2.292e-05 1.20067e-13)
(0.000156371 3.06242e-06 -7.38522e-14)
(0.000177003 -2.66678e-05 -3.77114e-13)
(0.000215809 -6.26815e-05 -1.94584e-13)
(0.000265049 -0.000153126 1.60888e-13)
(0.000294924 -0.000307917 1.60969e-13)
(0.000251371 -0.000589265 -9.33447e-14)
(-0.000190745 -0.00108161 -3.83132e-14)
(-0.00113126 -0.00105864 2.39751e-15)
(-0.00149402 0.000279301 -6.0965e-14)
(-0.00026648 0.00186562 6.32922e-14)
(0.00149598 0.00161669 7.2196e-15)
(0.00184938 -6.79688e-05 4.32048e-15)
(0.00101803 -0.00102925 -4.41647e-15)
(-0.000420256 -0.000810378 5.21804e-14)
(-0.000770276 -0.000263427 3.4964e-14)
(-0.00104506 0.000258957 -3.44712e-15)
(-0.000118704 0.000407998 1.13113e-13)
(0.000761408 0.0001269 7.80705e-14)
(0.00126192 -0.0019965 -4.04145e-14)
(-1.80635e-05 8.06084e-05 7.39127e-15)
(-2.76668e-05 8.02036e-05 -1.20441e-14)
(-3.68014e-05 6.91815e-05 3.26933e-15)
(-4.45483e-05 5.42713e-05 6.10928e-14)
(-9.06968e-06 7.71834e-05 2.41731e-15)
(-2.75319e-06 8.90157e-05 4.02435e-15)
(5.94425e-06 0.000108084 -1.76075e-16)
(1.96389e-05 0.000117564 2.16627e-19)
(3.02186e-05 0.000119773 -2.54026e-15)
(4.48729e-05 0.000132388 -6.73418e-15)
(6.25261e-05 0.00013345 -4.93856e-15)
(8.05666e-05 0.0001308 -5.2368e-14)
(9.71218e-05 0.000122455 -1.00713e-15)
(0.000110424 0.000108007 1.92803e-14)
(0.000120743 9.14544e-05 -2.32914e-14)
(0.000130656 7.6307e-05 1.41246e-13)
(0.000136428 6.19323e-05 1.49071e-13)
(0.000139723 4.65482e-05 2.69491e-14)
(0.000141998 3.0024e-05 2.76871e-13)
(0.000144737 1.18629e-05 -5.76105e-14)
(0.000148513 -8.78838e-06 -7.29755e-16)
(0.000158658 -3.21101e-05 2.14469e-13)
(0.000186228 -7.00791e-05 9.99258e-14)
(0.000213339 -0.000148566 -2.94233e-14)
(0.00021684 -0.000277631 -1.21911e-13)
(0.000147142 -0.000485858 -1.15865e-14)
(-0.00019602 -0.000795426 -9.36595e-14)
(-0.000875122 -0.000709947 -8.10375e-14)
(-0.0011289 0.000335178 4.88748e-14)
(-0.000152204 0.00156956 -3.10927e-14)
(0.0012866 0.00138549 -5.64885e-14)
(0.0016777 -2.22373e-05 6.45152e-15)
(0.000895697 -0.000924973 -3.11508e-15)
(-3.30653e-05 -0.000808049 -3.83238e-15)
(-0.000580501 -0.000216598 8.20606e-14)
(-0.000682782 0.00027132 -2.93314e-14)
(-0.000282808 0.00043817 -3.90402e-14)
(0.000333256 0.000294946 2.27056e-13)
(0.00140832 -0.000202663 3.706e-14)
(-1.69652e-05 7.35856e-05 -1.31444e-14)
(-2.48689e-05 7.08611e-05 -3.10176e-14)
(-3.42873e-05 6.24277e-05 5.06888e-14)
(2.93312e-05 0.000112722 9.00192e-15)
(4.348e-05 0.000110865 -2.93906e-15)
(5.94622e-05 0.000117224 2.92742e-14)
(7.66534e-05 0.00011622 2.04786e-14)
(9.08729e-05 0.000109136 5.16008e-15)
(0.000104976 9.74729e-05 -1.7069e-15)
(0.000115314 8.07073e-05 7.12004e-15)
(0.000124824 6.68901e-05 -3.14154e-14)
(0.000132062 5.36642e-05 -1.37085e-13)
(0.000134657 3.85675e-05 3.64126e-14)
(0.000136352 2.21486e-05 1.8814e-14)
(0.000137358 4.29871e-06 5.25268e-14)
(0.000138845 -1.5797e-05 -4.53507e-16)
(0.000144573 -4.13816e-05 -9.40639e-14)
(0.000164431 -8.3576e-05 -1.38998e-13)
(0.000178158 -0.000155602 -1.19687e-13)
(0.000166053 -0.00026287 -6.96968e-14)
(8.58134e-05 -0.000415799 -5.64245e-14)
(-0.000189142 -0.000601513 1.91328e-14)
(-0.000679336 -0.00047025 6.72239e-14)
(-0.000845413 0.000355894 -3.6185e-14)
(-9.69097e-05 0.00130691 -1.37656e-14)
(0.00104147 0.00117927 4.44584e-14)
(0.00135787 5.89967e-05 2.10502e-15)
(0.000662472 -0.000745136 2.45306e-14)
(-0.000171088 -0.000695911 -3.05754e-14)
(-0.000543937 -0.000194348 -1.01144e-13)
(-0.000503603 0.000246282 -5.51572e-14)
(-0.000207972 0.000412002 3.49522e-14)
(0.000153281 0.000325552 -1.502e-14)
(0.000331645 0.000132609 2.03715e-14)
(5.83456e-05 0.000104268 -3.58101e-15)
(6.92676e-05 9.51482e-05 -2.51515e-14)
(8.49212e-05 9.69348e-05 -5.04028e-14)
(9.67362e-05 8.46806e-05 2.86055e-14)
(0.000107569 7.3324e-05 2.54463e-14)
(0.000118467 6.06495e-05 1.48726e-14)
(0.000125695 4.738e-05 6.21604e-14)
(0.000128945 3.28176e-05 4.23968e-15)
(0.00012982 1.65137e-05 3.3348e-14)
(0.000129508 -1.14919e-06 -5.10102e-14)
(0.000129308 -2.10655e-05 -5.4952e-14)
(0.000130785 -4.51533e-05 6.4311e-14)
(0.000140279 -8.32033e-05 1.26944e-13)
(0.000144343 -0.000145184 6.41835e-14)
(0.0001228 -0.000230182 4.55233e-14)
(4.28339e-05 -0.000338392 3.34391e-14)
(-0.00017419 -0.000442787 6.31469e-14)
(-0.00052042 -0.000302863 -3.60478e-14)
(-0.000613816 0.00033047 -5.67998e-14)
(-3.65987e-05 0.00104471 3.56744e-15)
(0.000840803 0.000960994 -1.98223e-14)
(0.00111185 9.48599e-05 -6.76129e-15)
(0.000567058 -0.000584831 -4.18714e-14)
(-0.000137675 -0.000591296 2.24084e-14)
(-0.00045758 -0.00018539 5.69531e-14)
(-0.000367076 0.000199432 1.25277e-13)
(-8.83576e-05 0.000355592 1.23576e-14)
(0.000186156 0.000300656 -1.15974e-13)
(0.000383235 0.000153971 2.27002e-15)
(7.93473e-05 8.30818e-05 -6.97183e-14)
(8.29308e-05 6.48965e-05 -7.26876e-14)
(0.000100919 7.00816e-05 -1.3191e-14)
(0.000109415 5.50281e-05 -3.21642e-14)
(0.000118315 4.39688e-05 7.23979e-14)
(0.000121807 2.88123e-05 -2.92286e-14)
(0.00012248 1.28872e-05 -1.44818e-13)
(0.000121196 -4.60062e-06 1.01109e-13)
(0.0001192 -2.38785e-05 9.97248e-14)
(0.000117736 -4.67331e-05 -5.34645e-15)
(0.000119656 -8.07994e-05 -1.5751e-13)
(0.000118096 -0.000134328 -1.28566e-13)
(9.17777e-05 -0.000199813 6.84403e-14)
(1.81322e-05 -0.000272101 1.07518e-13)
(-0.000150928 -0.000320841 -3.91569e-14)
(-0.000393344 -0.000181759 -1.51389e-14)
(-0.000437538 0.000302152 -1.08544e-14)
(7.80166e-06 0.000831418 7.15262e-16)
(0.000681535 0.000770721 -1.02557e-14)
(0.000912291 0.000104098 4.37226e-15)
(0.000497497 -0.00045823 6.88275e-15)
(-8.95191e-05 -0.00049524 -2.79153e-14)
(-0.000380619 -0.000171879 -1.53715e-14)
(-0.000297953 0.000160178 -2.90577e-14)
(-3.61699e-05 0.00030274 -1.75883e-13)
(0.00018887 0.000264618 -1.0562e-14)
(0.000324143 0.00016686 6.21872e-14)
(8.196e-05 6.3453e-05 -1.29143e-13)
(8.3148e-05 4.92457e-05 3.31761e-14)
(0.000104035 5.75479e-05 1.13825e-13)
(0.000109092 3.97844e-05 -7.85721e-14)
(0.000114074 2.62973e-05 -6.54237e-14)
(0.000114566 1.06683e-05 8.22986e-14)
(0.000112564 -6.48127e-06 -1.48634e-13)
(0.000109295 -2.50471e-05 1.24895e-14)
(0.000105428 -4.60185e-05 2.11844e-13)
(0.00010214 -7.41577e-05 8.33493e-14)
(9.67438e-05 -0.000119076 1.47033e-13)
(6.88891e-05 -0.000168365 -3.25669e-14)
(4.56918e-06 -0.000213842 -9.97093e-14)
(-0.000124284 -0.000227324 2.22644e-14)
(-0.000291107 -9.80012e-05 5.13017e-14)
(-0.000303232 0.000268675 4.03145e-14)
(3.90346e-05 0.000657211 2.7446e-15)
(0.000552488 0.000612588 2.26922e-14)
(0.00074331 0.000103441 -4.35775e-15)
(0.000431661 -0.000356385 1.46639e-14)
(-4.70044e-05 -0.000410452 1.44834e-14)
(-0.000309602 -0.00015718 6.59716e-16)
(-0.000251355 0.000127198 -7.27213e-14)
(-1.59543e-05 0.000256424 6.71705e-15)
(0.000182196 0.000227524 1.43266e-13)
(0.000287732 0.000149362 9.93921e-14)
(8.10153e-05 4.83027e-05 6.09829e-15)
(8.70943e-05 4.15457e-05 -1.82432e-15)
(0.000103918 4.18406e-05 4.82409e-14)
(0.000105568 2.36366e-05 -2.60452e-14)
(0.000106912 9.41268e-06 5.76901e-14)
(0.000103928 -7.39877e-06 2.32846e-13)
(9.96662e-05 -2.51339e-05 -6.85719e-14)
(9.42439e-05 -4.39645e-05 -5.85598e-14)
(8.80728e-05 -6.71857e-05 2.70919e-14)
(7.98418e-05 -0.000103395 -3.62114e-14)
(5.3022e-05 -0.000139722 1.62665e-14)
(-8.73163e-07 -0.000165683 1.46943e-14)
(-9.71833e-05 -0.000157354 -2.73916e-14)
(-0.000209155 -4.20544e-05 -1.43006e-14)
(-0.000201634 0.000234842 -2.81001e-14)
(6.02759e-05 0.000517387 3.2703e-15)
(0.000448635 0.000484495 3.22247e-15)
(0.000603834 9.78307e-05 1.71418e-15)
(0.000372111 -0.000273385 -1.78308e-15)
(-1.21988e-05 -0.000336576 -1.75388e-14)
(-0.000242633 -0.000141214 5.06848e-15)
(-0.000207402 9.91076e-05 7.22818e-14)
(-3.6328e-06 0.000216243 8.316e-14)
(0.000176354 0.000194001 -1.66967e-13)
(0.000260869 0.000127255 -2.47376e-13)
(7.80892e-05 4.5408e-05 4.15141e-14)
(7.85311e-05 3.44758e-05 2.33553e-14)
(9.60004e-05 3.81222e-05 -1.69822e-14)
(9.74495e-05 2.26076e-05 1.91843e-14)
(9.88649e-05 8.58206e-06 9.76338e-15)
(9.57081e-05 -7.42292e-06 -3.74977e-14)
(9.07817e-05 -2.41996e-05 5.73932e-14)
(8.46099e-05 -4.09692e-05 -1.57664e-13)
(7.69815e-05 -5.98708e-05 -2.20164e-13)
(6.69395e-05 -8.72613e-05 -9.04123e-14)
(4.29264e-05 -0.00011374 1.69243e-14)
(-9.55555e-07 -0.000126244 9.73627e-15)
(-7.14664e-05 -0.000105988 2.63438e-14)
(-0.00014415 -6.55475e-06 4.52241e-14)
(-0.000125516 0.000201075 -2.27311e-14)
(7.44541e-05 0.000404564 -1.98892e-14)
(0.000366037 0.00037995 6.96166e-16)
(0.000490484 8.8319e-05 -6.97705e-15)
(0.000319739 -0.000207756 4.96271e-15)
(1.5171e-05 -0.000273666 5.4026e-14)
(-0.000182615 -0.000124833 4.56728e-14)
(-0.000164959 7.48937e-05 -1.85579e-14)
(6.83764e-06 0.000180556 -1.73673e-14)
(0.00017031 0.000163737 1.06667e-13)
(0.000244227 0.000104295 2.06971e-13)
(7.83095e-05 3.46934e-05 1.06423e-14)
(7.84518e-05 2.4607e-05 -1.3202e-14)
(9.32519e-05 2.52053e-05 3.43365e-14)
(9.05066e-05 7.83169e-06 -3.71148e-15)
(8.82866e-05 -7.09034e-06 -1.58009e-13)
(8.28122e-05 -2.26954e-05 -5.08946e-14)
(7.62487e-05 -3.74575e-05 1.92063e-13)
(6.81166e-05 -5.25585e-05 3.43128e-15)
(5.74547e-05 -7.23306e-05 5.68647e-14)
(3.72278e-05 -9.13981e-05 1.20088e-14)
(2.20856e-06 -9.4794e-05 8.10407e-14)
(-4.79701e-05 -6.93009e-05 1.60165e-14)
(-9.31771e-05 1.45054e-05 -1.13302e-14)
(-6.88394e-05 0.000168883 5.91867e-16)
(8.33008e-05 0.000314345 2.34001e-14)
(0.000300851 0.000294925 -7.9969e-15)
(0.000399179 7.68208e-05 6.33272e-15)
(0.000274364 -0.000157141 -1.84088e-15)
(3.51649e-05 -0.000220654 -1.53534e-14)
(-0.000131725 -0.000109402 -4.35966e-14)
(-0.000125983 5.52588e-05 -4.22274e-14)
(1.63341e-05 0.000149659 -6.37778e-15)
(0.000162464 0.000138119 1.84774e-14)
(0.000232658 8.51111e-05 -7.55982e-14)
(7.59225e-05 2.33398e-05 9.87957e-16)
(7.7255e-05 1.61747e-05 2.03496e-14)
(8.68353e-05 1.10859e-05 -2.73925e-14)
(8.07725e-05 -7.42433e-06 1.39085e-15)
(7.62414e-05 -2.08428e-05 -3.54642e-14)
(6.92872e-05 -3.37597e-05 -1.11733e-13)
(6.12372e-05 -4.53174e-05 8.70886e-14)
(5.08884e-05 -5.88124e-05 -3.19975e-14)
(3.45144e-05 -7.21789e-05 -5.95439e-14)
(7.16846e-06 -7.01429e-05 -9.3877e-14)
(-2.73725e-05 -4.35102e-05 -3.16425e-14)
(-5.36623e-05 2.53485e-05 -3.53826e-14)
(-2.73574e-05 0.000139308 4.00273e-14)
(8.822e-05 0.000242017 1.0422e-14)
(0.000249633 0.00022621 -1.98949e-14)
(0.000326263 6.38695e-05 6.08953e-15)
(0.000235758 -0.000119163 2.27504e-14)
(4.97696e-05 -0.000177565 -3.12276e-14)
(-8.90946e-05 -9.56841e-05 -3.98127e-14)
(-9.0758e-05 3.8587e-05 2.37453e-14)
(2.60797e-05 0.000122101 2.21703e-14)
(0.000154535 0.000114779 -1.16799e-14)
(0.000221541 6.85049e-05 -4.78602e-14)
(7.15971e-05 2.19416e-05 -2.24607e-14)
(6.88447e-05 1.16165e-05 -3.15874e-14)
(8.02211e-05 9.36397e-06 5.29245e-14)
(7.4368e-05 -6.72182e-06 3.58947e-14)
(7.01101e-05 -1.90825e-05 2.06218e-14)
(6.3619e-05 -2.98504e-05 9.64533e-14)
(5.60025e-05 -3.84811e-05 -5.56955e-14)
(4.6643e-05 -4.72516e-05 8.7326e-14)
(3.36994e-05 -5.62253e-05 6.90814e-15)
(1.28876e-05 -5.15101e-05 1.26989e-14)
(-9.93407e-06 -2.61506e-05 1.08839e-13)
(-2.32731e-05 2.91497e-05 2.35734e-14)
(2.5826e-06 0.000112762 -4.37132e-14)
(9.02901e-05 0.000184246 -2.99285e-14)
(0.000209329 0.000171124 3.62107e-15)
(0.000268345 5.06449e-05 -3.73353e-15)
(0.000203108 -9.10851e-05 -6.55402e-15)
(5.96832e-05 -0.00014312 1.44151e-14)
(-5.44501e-05 -8.41382e-05 3.97884e-14)
(-6.0196e-05 2.44058e-05 1.82963e-14)
(3.51304e-05 9.69808e-05 3.30508e-14)
(0.000146805 9.32079e-05 3.91822e-15)
(0.000210878 5.3022e-05 5.74045e-15)
(6.68202e-05 9.95862e-06 -3.78052e-14)
(6.5591e-05 2.42668e-06 -3.02668e-14)
(7.19738e-05 -3.1421e-06 4.47408e-15)
(6.44401e-05 -1.74571e-05 -6.34299e-14)
(5.95783e-05 -2.58221e-05 -9.33958e-14)
(5.23406e-05 -3.22921e-05 1.97773e-14)
(4.41606e-05 -3.76941e-05 -2.00571e-14)
(3.40772e-05 -4.2942e-05 5.90282e-14)
(1.88363e-05 -3.73216e-05 -5.67834e-14)
(4.56874e-06 -1.49143e-05 -9.09063e-14)
(-2.99883e-07 2.87569e-05 -1.67955e-14)
(2.38498e-05 8.93163e-05 2.59418e-14)
(9.03119e-05 0.000138423 1.71596e-14)
(0.000177837 0.000127045 1.33761e-14)
(0.000222616 3.79518e-05 -2.45087e-16)
(0.000176046 -7.11018e-05 -1.28258e-15)
(6.64107e-05 -0.000116078 -2.18205e-15)
(-2.5924e-05 -7.46729e-05 -1.27379e-14)
(-3.35726e-05 1.24295e-05 -1.51931e-14)
(4.4089e-05 7.38627e-05 -1.78597e-15)
(0.000140328 7.25825e-05 5.82898e-15)
(0.000199453 3.6908e-05 3.47599e-14)
(6.29902e-05 8.76278e-06 -9.84656e-14)
(5.81655e-05 -1.0724e-06 -5.03379e-14)
(6.65667e-05 -3.54042e-06 1.60347e-14)
(6.01419e-05 -1.50947e-05 -1.9404e-14)
(5.60616e-05 -2.19319e-05 5.1274e-14)
(4.98619e-05 -2.66644e-05 8.31392e-14)
(4.27309e-05 -2.99303e-05 -1.50067e-14)
(3.50334e-05 -3.24761e-05 -4.82204e-14)
(2.45268e-05 -2.69519e-05 5.031e-14)
(1.62661e-05 -8.16268e-06 -3.95462e-14)
(1.68243e-05 2.56085e-05 4.39508e-14)
(3.85806e-05 6.893e-05 -2.08076e-15)
(8.88621e-05 0.000102014 2.46836e-15)
(0.000152975 9.20353e-05 -4.14468e-15)
(0.000186541 2.60861e-05 -1.08159e-15)
(0.000153495 -5.70439e-05 2.73111e-15)
(7.03133e-05 -9.5391e-05 2.23673e-15)
(-3.30639e-06 -6.68544e-05 4.9988e-15)
(-1.13911e-05 1.7732e-06 1.43267e-14)
(5.15825e-05 5.29024e-05 -3.66661e-14)
(0.00013393 5.24683e-05 -3.91435e-14)
(0.000188468 2.03344e-05 3.0324e-14)
(5.67794e-05 -2.24114e-06 -7.33935e-14)
(5.37624e-05 -7.71579e-06 5.64392e-14)
(5.98478e-05 -1.03482e-05 4.81803e-14)
(5.30455e-05 -1.87218e-05 -1.86071e-14)
(4.85215e-05 -2.16021e-05 -5.08359e-15)
(4.21561e-05 -2.35448e-05 -9.66929e-15)
(3.62801e-05 -2.43509e-05 -7.43758e-14)
(2.96653e-05 -1.95311e-05 1.19145e-14)
(2.54587e-05 -4.31828e-06 1.00258e-13)
(2.94394e-05 2.10669e-05 -3.38512e-14)
(4.84381e-05 5.16377e-05 -1.16595e-14)
(8.66042e-05 7.3225e-05 -3.11339e-14)
(0.000133411 6.44748e-05 6.32426e-15)
(0.000158377 1.54436e-05 -2.80391e-15)
(0.000135043 -4.74479e-05 -1.22077e-14)
(7.26654e-05 -7.96804e-05 -1.80775e-14)
(1.49529e-05 -6.03289e-05 -6.48012e-15)
(7.50795e-06 -7.26209e-06 1.39242e-14)
(5.85449e-05 3.44646e-05 5.1266e-14)
(0.00012857 3.37489e-05 3.31384e-14)
(0.000177097 4.1281e-06 -3.85778e-14)
(5.40277e-05 -2.34221e-06 9.87421e-14)
(4.84468e-05 -9.10029e-06 4.01051e-14)
(5.63954e-05 -1.03428e-05 -5.10087e-14)
(5.11484e-05 -1.5524e-05 -3.5994e-15)
(4.77315e-05 -1.72636e-05 3.82997e-14)
(4.20674e-05 -1.82972e-05 -2.75288e-14)
(3.74808e-05 -1.82099e-05 7.68171e-14)
(3.38894e-05 -1.43652e-05 7.52069e-14)
(3.24094e-05 -2.60261e-06 -2.51736e-14)
(3.84e-05 1.60053e-05 1.14157e-14)
(5.47196e-05 3.69954e-05 1.76013e-14)
(8.36853e-05 5.05951e-05 2.72176e-14)
(0.000117775 4.26927e-05 3.80731e-16)
(0.00013618 6.22224e-06 -5.90289e-15)
(0.000119775 -4.12964e-05 7.78012e-15)
(7.34436e-05 -6.78365e-05 1.64836e-14)
(2.89098e-05 -5.53828e-05 -1.2908e-14)
(2.2653e-05 -1.50838e-05 -2.41567e-14)
(6.37338e-05 1.78668e-05 -5.47135e-14)
(0.000122742 1.62171e-05 -5.97039e-14)
(0.000165955 -1.20402e-05 1.09884e-14)
(4.75263e-05 -9.84437e-06 2.83247e-14)
(4.63579e-05 -1.14812e-05 5.65427e-14)
(5.37435e-05 -1.03631e-05 1.33093e-14)
(4.66083e-05 -1.35088e-05 7.98824e-15)
(4.25002e-05 -1.39399e-05 -3.00914e-14)
(3.85718e-05 -1.36499e-05 -5.32615e-14)
(3.72586e-05 -1.07534e-05 -3.09719e-14)
(3.75338e-05 -2.10938e-06 -2.81731e-14)
(4.45448e-05 1.10901e-05 -3.34642e-14)
(5.84575e-05 2.49677e-05 -2.48987e-14)
(8.05095e-05 3.3042e-05 -1.80405e-14)
(0.00010541 2.58255e-05 -4.90597e-16)
(0.00011888 -1.43554e-06 1.03082e-14)
(0.0001075 -3.73249e-05 -2.96143e-15)
(7.35355e-05 -5.88607e-05 -3.38128e-15)
(3.99264e-05 -5.14297e-05 1.59781e-14)
(3.51426e-05 -2.14235e-05 -8.73643e-15)
(6.82412e-05 3.49409e-06 -6.48076e-14)
(0.000117618 8.51912e-07 -4.29676e-14)
(0.000154544 -2.68208e-05 -3.0318e-15)
(4.56617e-05 -8.77883e-06 9.71763e-15)
(4.40763e-05 -9.66536e-06 -1.79268e-14)
(5.14424e-05 -7.13315e-06 4.20104e-15)
(4.61377e-05 -9.59612e-06 -1.47874e-14)
(4.25642e-05 -1.05693e-05 4.85849e-14)
(3.93165e-05 -1.04327e-05 2.85377e-14)
(3.97119e-05 -8.49334e-06 -3.61143e-14)
(4.10201e-05 -2.42647e-06 6.02941e-15)
(4.85348e-05 6.4511e-06 2.41335e-14)
(6.0301e-05 1.5223e-05 -2.10341e-15)
(7.71413e-05 1.93833e-05 9.89857e-15)
(9.53251e-05 1.2831e-05 2.924e-15)
(0.000105155 -7.83594e-06 -4.64866e-15)
(9.73364e-05 -3.48593e-05 -1.67994e-15)
(7.27505e-05 -5.23951e-05 -3.16821e-15)
(4.78953e-05 -4.84585e-05 -1.24167e-14)
(4.44974e-05 -2.70869e-05 -5.38338e-15)
(7.10289e-05 -9.05193e-06 4.24555e-14)
(0.000111676 -1.32534e-05 6.71132e-14)
(0.000143149 -4.09492e-05 6.92066e-15)
(4.29045e-05 -6.48033e-06 1.0908e-14)
(4.12231e-05 -7.49038e-06 -1.47512e-14)
(5.01753e-05 -3.62244e-06 -1.27381e-14)
(4.52145e-05 -6.09348e-06 -3.01018e-14)
(4.23733e-05 -8.01382e-06 9.11806e-15)
(3.98716e-05 -8.14926e-06 -2.88865e-14)
(4.13057e-05 -6.96222e-06 3.32953e-14)
(4.34272e-05 -3.02245e-06 2.40717e-14)
(5.08564e-05 2.50509e-06 -1.0652e-14)
(6.08244e-05 7.59725e-06 3.90971e-15)
(7.3822e-05 9.08437e-06 -3.80548e-15)
(8.7193e-05 3.09709e-06 -3.9096e-15)
(9.44354e-05 -1.27591e-05 7.33571e-16)
(8.91782e-05 -3.31973e-05 4.21229e-15)
(7.17437e-05 -4.74947e-05 8.48103e-15)
(5.386e-05 -4.60337e-05 1.76873e-14)
(5.1799e-05 -3.16505e-05 3.32181e-15)
(7.31466e-05 -1.94302e-05 2.46074e-14)
(0.000106081 -2.53286e-05 1.34753e-15)
(0.00013178 -5.28594e-05 -3.68263e-14)
(4.05332e-05 -3.18531e-06 -1.01934e-13)
(4.17926e-05 -2.8782e-06 -3.24844e-14)
(4.77049e-05 -2.59385e-06 -1.59992e-14)
(4.11369e-05 -6.25851e-06 2.37442e-15)
(4.02554e-05 -6.6595e-06 3.18238e-14)
(4.19546e-05 -6.08307e-06 -1.48827e-14)
(4.49896e-05 -3.83378e-06 -3.65508e-14)
(5.18902e-05 -7.86339e-07 -3.37566e-15)
(6.04065e-05 1.58087e-06 1.70074e-14)
(7.04438e-05 1.31689e-06 6.77448e-15)
(8.03475e-05 -4.27301e-06 9.43489e-17)
(8.57212e-05 -1.65511e-05 -3.71932e-15)
(8.22928e-05 -3.22903e-05 -2.72112e-16)
(7.01628e-05 -4.39216e-05 -8.63205e-15)
(5.76083e-05 -4.44405e-05 -6.8035e-15)
(5.66438e-05 -3.55665e-05 4.43248e-14)