/*--------------------------------*- C++ -*----------------------------------*\
| =========                 |                                                 |
| \\      /  F ield         | OpenFOAM: The Open Source CFD Toolbox           |
|  \\    /   O peration     | Version:  2306                                  |
|   \\  /    A nd           | Website:  www.openfoam.com                      |
|    \\/     M anipulation  |                                                 |
\*---------------------------------------------------------------------------*/
FoamFile
{
    version     2.0;
    format      ascii;
    arch        "LSB;label=32;scalar=64";
    class       surfaceScalarField;
    location    "575";
    object      phi;
}
// * * * * * * * * * * * * * * * * * * * * * * * * * * * * * * * * * * * * * //

dimensions      [0 3 -1 0 0 0 0];

oriented        oriented;

internalField   nonuniform List<scalar> 
2558
(
-0.233801
0.253398
-0.0195977
0.275396
-0.0219979
0.294333
-0.0189371
0.311247
-0.0169133
0.327222
-0.015975
0.33995
-0.012728
0.349933
-0.00998359
0.357923
-0.00798973
0.362951
-0.00502832
0.366014
-0.00306312
0.367163
-0.0011482
0.365845
0.00131778
0.362193
0.0036518
0.356027
0.00616606
0.346947
0.00907997
0.334842
0.0121053
0.318931
0.0159104
0.298529
0.0204019
0.272471
0.0260581
0.240006
0.032465
0.200644
0.0393624
0.157726
0.0429184
0.119269
0.0384564
0.095102
0.0241671
0.090125
0.00497695
0.0996583
-0.0095334
0.113636
-0.0139776
0.126111
-0.0124756
0.135152
-0.0090403
0.140762
-0.00561053
0.14351
-0.00274808
0.143543
-3.28041e-05
0.140724
0.00281911
0.13516
0.00556337
0.00858078
-0.210717
-0.0230842
-0.186778
-0.0239385
-0.157389
-0.0293888
-0.125183
-0.0322062
-0.0912717
-0.0339114
-0.0563295
-0.0349422
-0.213179
0.234687
-0.0411051
0.256711
-0.0440221
0.279735
-0.0419613
0.301247
-0.0384253
0.322289
-0.0370167
0.341872
-0.0323117
0.359598
-0.0277094
0.37575
-0.0241419
0.389959
-0.0192375
0.402305
-0.0154085
0.413023
-0.0118664
0.422562
-0.00822133
0.431262
-0.00504835
0.439174
-0.00174563
0.446088
0.00216544
0.451567
0.00662637
0.455276
0.0122014
0.456854
0.0188244
0.454948
0.027964
0.44838
0.0390326
0.434681
0.0530614
0.412244
0.0653553
0.380908
0.0697923
0.345678
0.059398
0.313041
0.0376137
0.284881
0.0186267
0.260961
0.0099417
0.241411
0.00707479
0.226478
0.00589222
0.215534
0.00533401
0.206716
0.00606984
0.198434
0.0082493
0.189743
0.0115095
0.179891
0.0154155
0.0203416
-0.191219
-0.045044
-0.167719
-0.0474382
-0.140206
-0.0569023
-0.111101
-0.0613115
-0.0801855
-0.0648267
-0.0672709
-0.206942
0.228639
-0.0628026
0.250487
-0.0658697
0.274075
-0.0655497
0.295637
-0.0599875
0.316131
-0.0575105
0.335727
-0.0519077
0.353127
-0.0451089
0.368721
-0.0397363
0.382062
-0.0325781
0.393413
-0.0267596
0.402736
-0.0211897
0.410163
-0.0156483
0.415546
-0.0104308
0.419364
-0.0055636
0.421618
-8.91092e-05
0.423339
0.00490594
0.424623
0.0109167
0.426406
0.0170419
0.42912
0.0252503
0.433448
0.0347043
0.439368
0.0471413
0.444872
0.0598517
0.446116
0.0685483
0.440187
0.065327
0.428124
0.0496764
0.412438
0.0343125
0.394177
0.0282028
0.372818
0.0284339
0.348205
0.0305049
0.321624
0.031915
0.295511
0.0321827
0.27193
0.0318307
0.251253
0.0321863
0.232254
0.0344143
0.0393721
-0.185103
-0.0668823
-0.161173
-0.0713681
-0.132551
-0.085525
-0.102787
-0.0910757
-0.0716833
-0.09593
-0.199339
0.222022
-0.0854856
0.244788
-0.088635
0.269821
-0.0905835
0.292676
-0.0828424
0.314837
-0.0796716
0.33609
-0.0731606
0.355614
-0.064633
0.373234
-0.0573561
0.389162
-0.048506
0.403178
-0.0407755
0.415394
-0.0334053
0.425823
-0.0260773
0.43453
-0.0191381
0.44159
-0.0126233
0.447303
-0.00580205
0.451123
0.00108552
0.453157
0.008883
0.453178
0.0170205
0.451738
0.0266905
0.449322
0.0371199
0.447189
0.0492742
0.446607
0.0604339
0.447055
0.0681008
0.446267
0.0661143
0.442341
0.0536032
0.435846
0.0408067
0.428157
0.0358923
0.419566
0.0370251
0.409006
0.0410643
0.394779
0.0461421
0.375417
0.0515447
0.350758
0.0564894
0.322731
0.0602136
0.294037
0.0631085
0.0674381
-0.176944
-0.0892775
-0.152939
-0.0953731
-0.123818
-0.114646
-0.093923
-0.120971
-0.127097
-0.195501
0.219006
-0.10899
0.242641
-0.11227
0.269067
-0.117009
0.292661
-0.106437
0.315799
-0.10281
0.33809
-0.0954518
0.358428
-0.0849702
0.376915
-0.0758436
0.393842
-0.0654332
0.408554
-0.0554877
0.421431
-0.0462822
0.432404
-0.0370504
0.441751
-0.0284843
0.44915
-0.0200225
0.454747
-0.011399
0.458607
-0.00277475
0.461005
0.00648464
0.462067
0.0159588
0.46166
0.0270977
0.460211
0.0385684
0.45783
0.0516556
0.454934
0.0633298
0.451599
0.0714357
0.447144
0.0705695
0.440914
0.0598329
0.433359
0.0483621
0.42565
0.043601
0.418525
0.0441502
0.412028
0.0475607
0.405817
0.0523536
0.398794
0.0585679
0.388874
0.0664087
0.373374
0.0757139
0.350588
0.085894
0.0967272
-0.172055
-0.112723
-0.147322
-0.120106
-0.116937
-0.145031
-0.0861897
-0.151718
-0.192327
0.216847
-0.13351
0.241806
-0.137229
0.26961
-0.144814
0.294412
-0.131238
0.318573
-0.126972
0.342236
-0.119114
0.363551
-0.106285
0.383333
-0.0956258
0.401275
-0.0833746
0.41726
-0.0714726
0.431517
-0.0605392
0.443861
-0.0493952
0.454524
-0.0391473
0.4635
-0.0289986
0.470661
-0.0185592
0.476367
-0.00848087
0.480221
0.00263012
0.482345
0.0138347
0.482932
0.0265111
0.48196
0.0395405
0.479666
0.0539497
0.476303
0.0666927
0.471602
0.0761367
0.465102
0.0770694
0.456621
0.068314
0.446783
0.0581996
0.436619
0.0537653
0.426764
0.054005
0.417405
0.0569198
0.408709
0.0610495
0.400928
0.0663491
0.393992
0.0733446
0.387014
0.0826913
0.377329
0.0955789
0.113409
-0.167917
-0.137134
-0.142371
-0.145652
-0.11068
-0.176722
-0.183606
-0.190476
0.216325
-0.159358
0.242324
-0.163228
0.271694
-0.174184
0.297765
-0.15731
0.323175
-0.152382
0.347907
-0.143846
0.37038
-0.128758
0.390998
-0.116245
0.409968
-0.102344
0.426866
-0.0883706
0.441922
-0.0755958
0.455276
-0.0627487
0.466798
-0.0506696
0.476562
-0.038762
0.484639
-0.0266372
0.490862
-0.0147032
0.495419
-0.00192679
0.498303
0.0109506
0.499654
0.0251602
0.499565
0.0396291
0.498244
0.0552704
0.495749
0.0691874
0.491953
0.0799334
0.48611
0.0829123
0.478011
0.0764128
0.468143
0.0680679
0.457449
0.0644587
0.446517
0.0649367
0.435482
0.0679557
0.424343
0.0721885
0.413299
0.0773923
0.402704
0.0839401
0.393058
0.0923365
0.384583
0.104055
0.122073
-0.164855
-0.162755
-0.138199
-0.172308
-0.10505
-0.209871
-0.21681
-0.189314
0.216498
-0.186542
0.243929
-0.190658
0.274981
-0.205236
0.302254
-0.184583
0.328952
-0.179081
0.354933
-0.169827
0.378424
-0.152248
0.400251
-0.138072
0.420037
-0.12213
0.437872
-0.106206
0.453985
-0.0917084
0.468216
-0.0769794
0.480645
-0.0630988
0.491401
-0.0495178
0.500429
-0.0356657
0.507709
-0.0219829
0.513302
-0.00751986
0.517201
0.0070521
0.519379
0.0229819
0.519964
0.0390439
0.519179
0.0560555
0.51705
0.0713162
0.513501
0.0834824
0.508138
0.0882752
0.500595
0.0839562
0.491217
0.0774458
0.480826
0.0748492
0.469949
0.0758135
0.45866
0.0792452
0.446938
0.0839099
0.434698
0.0896327
0.422018
0.0966197
0.40906
0.105295
0.396424
0.116691
0.133466
-0.162461
-0.189609
-0.134645
-0.200125
-0.0997807
-0.244734
-0.188985
0.217539
0.246418
0.27917
0.307833
0.336
-0.207247
0.363338
-0.197165
0.388047
-0.176958
0.410761
-0.160786
0.431659
-0.143028
0.450328
-0.124875
0.467151
-0.108531
0.482199
-0.0920278
0.495493
-0.0763924
0.50705
-0.0610756
0.516887
-0.0455022
0.525048
-0.0301436
0.531421
-0.0138937
0.536026
0.00244771
0.538925
0.0200824
0.540185
0.0377846
0.539987
0.056253
0.538376
0.072927
0.53525
0.0866089
0.530313
0.0932125
0.523286
0.0909832
0.514389
0.0863423
0.504311
0.0849274
0.493636
0.0864881
0.482496
0.0903851
0.470806
0.0955999
0.458503
0.101936
0.445486
0.109636
0.431605
0.119176
0.416795
0.131501
0.148819
-0.160642
-0.131469
0.343908
0.37272
0.398603
-0.202841
0.422458
-0.184641
0.444344
-0.164914
0.463896
-0.144426
0.481578
-0.126213
0.49751
-0.107959
0.51152
-0.0904026
0.523809
-0.0733646
0.534525
-0.0562182
0.54341
-0.0390287
0.550592
-0.0210752
0.555969
-0.00292947
0.559683
0.0163684
0.561703
0.0357647
0.562019
0.0559368
0.560881
0.0740646
0.558121
0.0893691
0.553546
0.0977871
0.546893
0.0976366
0.538292
0.094943
0.528436
0.0947837
0.517859
0.0970655
0.50667
0.101573
0.494941
0.10733
0.482588
0.114288
0.469521
0.122703
0.455579
0.133118
0.440473
0.146607
0.16543
0.410323
0.43541
0.458335
-0.187839
0.478832
-0.164924
0.497312
-0.144693
0.513886
-0.124533
0.528702
-0.105219
0.541843
-0.0865055
0.553158
-0.0675332
0.562827
-0.0486977
0.570734
-0.0289826
0.576897
-0.00909192
0.581249
0.0120157
0.583889
0.0331251
0.584832
0.0549937
0.584125
0.074772
0.581778
0.0917161
0.57761
0.101955
0.571384
0.103862
0.563206
0.103121
0.553567
0.104423
0.542998
0.107635
0.531767
0.112804
0.519822
0.119275
0.507224
0.126886
0.493932
0.135995
0.479811
0.147238
0.464626
0.161793
0.182075
0.473495
0.494902
-0.186331
0.514285
-0.164076
0.53173
-0.141977
0.547172
-0.120661
0.560944
-0.100278
0.573042
-0.0796303
0.583407
-0.0590626
0.591979
-0.0375553
0.598779
-0.0158912
0.6038
0.00699463
0.607088
0.029837
0.608621
0.0534605
0.60844
0.0749531
0.606516
0.0936398
0.602739
0.105732
0.596914
0.109686
0.589117
0.110919
0.579732
0.113808
0.569282
0.118084
0.557963
0.124123
0.545851
0.131387
0.532954
0.139783
0.519271
0.149678
0.504762
0.161747
0.489202
0.177353
0.198907
0.512232
0.532458
-0.184302
0.550648
-0.160168
0.566917
-0.13693
0.581404
-0.114765
0.594126
-0.092352
0.605093
-0.07003
0.61434
-0.0468024
0.621826
-0.0233769
0.627481
0.00133963
0.631292
0.0260254
0.63337
0.0513828
0.633645
0.0746778
0.632145
0.0951403
0.62882
0.109057
0.623495
0.115011
0.616091
0.118323
0.607015
0.122883
0.59668
0.12842
0.58534
0.135462
0.573089
0.143638
0.559941
0.152931
0.545886
0.163733
0.530881
0.176753
0.514774
0.19346
0.216292
0.551955
-0.205502
0.570939
-0.179152
0.587928
-0.153919
0.603097
-0.129934
0.616371
-0.105625
0.628025
-0.0816846
0.637895
-0.0566718
0.645968
-0.0314506
0.652248
-0.00494044
0.65668
0.0215935
0.659261
0.0488019
0.660035
0.0739045
0.658981
0.0961943
0.656068
0.11197
0.651157
0.119922
0.644161
0.12532
0.635418
0.131625
0.62527
0.138569
0.613951
0.146781
0.601587
0.156003
0.588198
0.166319
0.573813
0.178118
0.55834
0.192226
0.541703
0.210097
0.234349
0.57277
0.592611
-0.198993
0.610241
-0.171549
0.626096
-0.145789
0.640129
-0.119658
0.652354
-0.0939104
0.662825
-0.0671427
0.67146
-0.0400855
0.678206
-0.0116867
0.683161
0.016639
0.68628
0.0456822
0.687471
0.0727141
0.686857
0.0968079
0.684382
0.114445
0.679929
0.124375
0.673405
0.131844
0.664964
0.140066
0.655018
0.148515
0.643792
0.158006
0.631351
0.168443
0.617776
0.179895
0.603066
0.192828
0.587214
0.208078
0.570052
0.227259
0.25306
0.615563
0.634073
-0.190059
0.650565
-0.162282
0.665192
-0.134285
0.678003
-0.106722
0.689022
-0.0781611
0.698201
-0.049265
0.705573
-0.0190583
0.711001
0.0112104
0.714545
0.0421389
0.716227
0.0710319
0.716007
0.0970279
0.713949
0.116503
0.709917
0.128407
0.703817
0.137943
0.695765
0.148118
0.686051
0.158229
0.674902
0.169155
0.662422
0.180923
0.648694
0.193623
0.633722
0.207799
0.617458
0.224342
0.599807
0.24491
0.272334
0.659265
-0.209341
0.676493
-0.17951
0.691723
-0.149514
0.705135
-0.120134
0.716688
-0.0897142
0.726418
-0.058995
0.734231
-0.0268713
0.740174
0.00526693
0.744156
0.0381575
0.746221
0.0689673
0.746438
0.0968102
0.744782
0.11816
0.741209
0.13198
0.73552
0.143632
0.72783
0.155808
0.718375
0.167684
0.707337
0.180193
0.69487
0.19339
0.681008
0.207485
0.665791
0.223017
0.649175
0.240958
0.631059
0.263026
0.292137
0.685908
0.703858
-0.19746
0.719823
-0.165479
0.733773
-0.134085
0.745898
-0.101839
0.756116
-0.0692132
0.764457
-0.0352117
0.770807
-0.00108372
0.775201
0.0337639
0.77771
0.0664584
0.778259
0.0962609
0.776997
0.119421
0.773813
0.135165
0.768538
0.148907
0.761235
0.16311
0.752061
0.176857
0.741218
0.191037
0.728766
0.205841
0.714807
0.221444
0.699362
0.238461
0.682411
0.25791
0.663873
0.281564
0.312504
0.732918
-0.216168
0.749514
-0.182075
0.764082
-0.148653
0.776717
-0.114473
0.787402
-0.0798988
0.79615
-0.043959
0.802942
-0.00787586
0.807773
0.0289323
0.810583
0.0636487
0.811504
0.0953396
0.810633
0.120293
0.807839
0.137959
0.803007
0.153739
0.796076
0.170041
0.787181
0.185752
0.776493
0.201725
0.764127
0.218207
0.750109
0.235462
0.734476
0.254095
0.717223
0.275163
0.698267
0.300519
0.333351
0.763629
0.780868
-0.199313
0.796073
-0.163858
0.809208
-0.127608
0.820364
-0.0910547
0.82959
-0.0531852
0.836756
-0.0150419
0.84192
0.0237688
0.845093
0.0604756
0.846346
0.0940866
0.845816
0.120823
0.84341
0.140365
0.838944
0.158206
0.832378
0.176607
0.823826
0.194304
0.813352
0.212199
0.801054
0.230505
0.786998
0.249518
0.77123
0.269862
0.753716
0.292677
0.734378
0.319857
0.354667
0.813971
-0.217265
0.829776
-0.179663
0.843487
-0.141319
0.85516
-0.102727
0.864746
-0.0627711
0.872312
-0.0226085
0.877787
0.0182939
0.88128
0.056983
0.882891
0.0924756
0.882575
0.12114
0.88054
0.142399
0.876463
0.162282
0.870185
0.182885
0.862016
0.202473
0.85176
0.222456
0.839611
0.242655
0.825555
0.263574
0.809678
0.285739
0.791927
0.310427
0.772251
0.339534
0.376427
0.848964
0.865383
-0.196082
0.879645
-0.155582
0.891768
-0.11485
0.901763
-0.0727667
0.909669
-0.0305146
0.915499
0.0124637
0.919222
0.0532602
0.921095
0.0906026
0.921127
0.121108
0.919337
0.144189
0.91565
0.165969
0.909814
0.188722
0.901925
0.210361
0.891936
0.232445
0.879815
0.254776
0.865843
0.277545
0.849945
0.301637
0.832017
0.328355
0.81197
0.359581
0.398581
0.902943
-0.213195
0.917757
-0.170396
0.930359
-0.127451
0.940749
-0.083157
0.949046
-0.0388114
0.955176
0.0063335
0.959188
0.0492482
0.961179
0.0886115
0.961477
0.120811
0.960067
0.145599
0.956669
0.169367
0.951154
0.194236
0.943427
0.218089
0.933733
0.242139
0.921846
0.266663
0.908023
0.291368
0.891878
0.317782
0.873807
0.346426
0.853592
0.379796
0.421078
0.942485
-0.230917
0.957989
-0.185899
0.97106
-0.140522
0.981934
-0.0940314
0.990378
-0.0472551
0.99687
-0.000158555
1.00112
0.0450009
1.00337
0.0863597
1.00393
0.120253
1.00267
0.14685
0.999509
0.172533
0.99429
0.199455
0.98688
0.225499
0.977322
0.251697
0.965848
0.278137
0.951886
0.305329
0.935992
0.333677
0.917758
0.36466
0.897258
0.400296
0.443804
0.984331
1.00032
-0.20189
1.01379
-0.153992
1.0251
-0.105342
1.034
-0.056152
1.04059
-0.00674962
1.04512
0.0404748
1.04753
0.0839517
1.04823
0.119545
1.04728
0.147808
1.04446
0.175346
1.03951
0.204407
1.0324
0.232605
1.02315
0.260956
1.01161
0.289668
0.998021
0.318923
0.981943
0.349754
0.9636
0.383003
0.943201
0.420695
0.466953
1.04489
-0.218353
1.05914
-0.168236
1.07065
-0.116854
1.07999
-0.0654883
1.08676
-0.013522
1.09141
0.0358205
1.09414
0.0812289
1.09484
0.118842
1.09412
0.148523
1.09134
0.17813
1.08679
0.208959
1.07996
0.239432
1.071
0.269921
1.05958
0.301081
1.04591
0.3326
1.03015
0.365508
1.0119
0.401259
0.991051
0.441539
0.490017
1.09215
-0.235667
1.10671
-0.182797
1.11869
-0.12884
1.12827
-0.0750649
1.13537
-0.0206173
1.1401
0.0310853
1.14282
0.0785106
1.14396
0.117696
1.14311
0.149374
1.14076
0.180485
1.13609
0.213631
1.12968
0.24584
1.12084
0.278763
1.10986
0.312054
1.09644
0.346025
1.08042
0.381525
1.0623
0.419381
1.04151
0.462323
0.513523
1.14167
1.15678
-0.197905
1.16927
-0.141328
1.17901
-0.084809
1.18654
-0.0281423
1.19141
0.0262115
1.19429
0.075629
1.1953
0.116685
1.19477
0.149904
1.19237
0.182892
1.18818
0.217816
1.18168
0.25234
1.17311
0.287336
1.16226
0.322905
1.14895
0.359338
1.13331
0.397156
1.11492
0.437779
1.09425
0.482987
0.536965
1.20966
-0.213679
1.2227
-0.154368
1.23282
-0.0949373
1.24021
-0.0355329
1.24545
0.0209774
1.24818
0.0728931
1.24922
0.115648
1.24882
0.150305
1.24646
0.185255
1.2424
0.221876
1.23626
0.258481
1.22778
0.295815
1.21705
0.333636
1.20401
0.372371
1.18849
0.412683
1.17046
0.455807
1.14952
0.503926
0.56028
1.26548
-0.229942
1.27874
-0.167624
1.28927
-0.105469
1.29704
-0.0433054
1.30205
0.0159709
1.30517
0.0697766
1.30634
0.114478
1.30568
0.150961
1.30364
0.187299
1.29951
0.226003
1.29338
0.264613
1.28528
0.303914
1.27481
0.344102
1.2619
0.385277
1.24635
0.428235
1.22828
0.473877
1.20772
0.524493
0.583697
1.32419
1.33799
-0.181431
1.34874
-0.11622
1.35668
-0.0512369
1.36206
0.0105896
1.36484
0.0669903
1.36592
0.113396
1.36565
0.151234
1.3634
0.189555
1.35932
0.230077
1.35347
0.270462
1.34526
0.312123
1.3349
0.354469
1.32213
0.398049
1.30702
0.443337
1.2891
0.491804
1.26851
0.545082
0.607006
1.40018
-0.195664
1.41148
-0.127518
1.41949
-0.0592418
1.4249
0.00517569
1.42798
0.0639097
1.42898
0.112401
1.42849
0.151718
1.42634
0.191704
1.42243
0.233991
1.41637
0.276521
1.40849
0.320007
1.3982
0.364756
1.38571
0.410542
1.37046
0.458581
1.35286
0.50941
1.33244
0.565499
0.630151
1.46611
-0.210624
1.47742
-0.138829
1.48585
-0.0676692
1.49138
-0.000360621
1.49419
0.0610997
1.49522
0.111376
1.49457
0.152368
1.49244
0.193829
1.4885
0.237932
1.48265
0.28237
1.4746
0.328057
1.46453
0.374829
1.45201
0.423064
1.43723
0.473358
1.41967
0.526967
1.39947
0.585703
1.53513
1.54717
-0.150867
1.55564
-0.0761364
1.56114
-0.00586426
1.56417
0.0580744
1.56501
0.110537
1.56439
0.152985
1.56213
0.196091
1.55797
0.242091
1.55214
0.288198
1.5442
0.335998
1.53416
0.384864
1.5219
0.435324
1.50715
0.488114
1.48981
0.544307
0.605659
1.62041
-0.163014
1.6293
-0.0850333
1.63475
-0.0113086
1.63759
0.0552344
1.63853
0.109594
1.63767
0.153846
1.63522
0.198538
1.63111
0.246204
1.62511
0.294196
1.6174
0.343717
1.60737
0.394886
1.59506
0.447637
1.58047
0.5027
1.56337
0.561414
0.62548
1.69783
-0.175661
1.70671
-0.093917
1.71246
-0.0170583
1.7153
0.052393
1.71585
0.109051
1.71498
0.154708
1.71245
0.201068
1.7082
0.250458
1.70215
0.300244
1.69418
0.351692
1.68414
0.404922
1.67205
0.459724
1.65763
0.517124
1.64061
0.578428
0.644856
1.77913
-0.188662
1.78854
-0.103321
1.79415
-0.0226686
1.79689
0.0496466
1.79745
0.108492
1.79628
0.155882
1.79364
0.203702
1.78921
0.25489
1.78308
0.30638
1.77496
0.359808
1.76503
0.414853
1.753
0.471756
1.73858
0.531541
1.72195
0.595056
0.664202
1.86515
-0.202064
1.87457
-0.11274
1.88031
-0.0284083
1.88296
0.0469987
1.88352
0.107927
1.88214
0.157269
1.87921
0.206632
1.87457
0.259528
1.86831
0.312637
1.86017
0.367953
1.85016
0.424857
1.83787
0.484046
1.82374
0.545673
1.8072
0.611592
0.683219
1.95571
1.96531
-0.122343
1.97126
-0.0343503
1.97392
0.0443298
1.97399
0.107862
1.97249
0.15877
1.96942
0.209705
1.96454
0.264409
1.95798
0.319197
1.94963
0.376301
1.93952
0.434964
1.92753
0.496037
1.91323
0.559977
1.89678
0.62804
0.701906
2.06109
-0.132207
2.06693
-0.0401859
2.06941
0.0418493
2.06943
0.107841
2.06782
0.160377
2.06439
0.21314
2.05938
0.269417
2.05249
0.326086
2.04405
0.384744
2.03366
0.445347
2.02151
0.508193
2.00745
0.574038
1.99121
0.644273
0.720409
2.16204
-0.142575
2.16789
-0.0460393
2.17047
0.0392714
2.17025
0.108055
2.16819
0.162439
2.16453
0.216803
2.15922
0.274725
2.15211
0.333194
2.1434
0.393454
2.133
0.455751
2.12079
0.520399
2.10652
0.588311
2.09048
0.66031
0.738739
2.26846
-0.15314
2.27454
-0.0521118
2.27674
0.0370649
2.27638
0.108419
2.27415
0.164671
2.27011
0.220846
2.26447
0.280363
2.25725
0.340407
2.24824
0.402463
2.2375
0.466492
2.22508
0.532823
2.21099
0.602397
2.19485
0.676454
0.756909
2.38054
-0.163824
2.38671
-0.0582841
2.38894
0.0348412
2.38828
0.109076
2.38585
0.167096
2.38165
0.225045
2.37552
0.286498
2.36789
0.348039
2.35855
0.4118
2.34773
0.477315
2.33505
0.545499
2.32084
0.616606
2.3047
0.692593
0.7748
2.4989
2.50511
-0.0644968
2.50715
0.0327992
2.50645
0.10978
2.50364
0.169911
2.49901
0.22967
2.49263
0.292875
2.48456
0.356117
2.475
0.421353
2.46364
0.488676
2.45097
0.558174
2.43646
0.631111
2.42058
0.708471
0.79272
2.63006
-0.0708351
2.63209
0.0307747
2.63102
0.110849
2.62782
0.173114
2.62285
0.234634
2.61607
0.299661
2.60766
0.364527
2.59772
0.431291
2.58621
0.50018
2.57309
0.571301
2.55867
0.645524
2.54232
0.724821
2.76161
-0.0772626
2.76367
0.0287219
2.76224
0.112278
2.75889
0.17646
2.75357
0.239956
2.74635
0.30688
2.73758
0.373294
2.72709
0.441784
2.71513
0.51214
2.70194
0.584493
2.68703
0.660434
0.74098
2.90068
-0.0839045
2.90235
0.0270539
2.90091
0.11372
2.89712
0.180243
2.89128
0.245805
2.88374
0.314419
2.87444
0.382589
2.86365
0.452579
2.85134
0.524445
2.8375
0.598335
2.82261
0.675321
0.757401
3.04697
-0.0904113
3.04888
0.025147
3.047
0.115604
3.04288
0.184357
3.03677
0.251918
3.02875
0.322441
3.0189
0.392433
3.0075
0.463982
2.99482
0.537125
2.98084
0.612311
2.96526
0.690909
0.773844
3.2017
3.20314
0.0237054
3.2012
0.117549
3.19669
0.188867
3.19016
0.258444
3.18163
0.330977
3.17134
0.402716
3.15958
0.475743
3.14622
0.550488
3.13167
0.626862
3.11603
0.706547
0.790897
3.36616
0.0222075
3.3637
0.120014
3.35897
0.193596
3.35197
0.265443
3.3429
0.340047
3.33215
0.413467
3.31958
0.488306
3.30592
0.564147
3.2909
0.641887
3.27477
0.72268
0.808052
3.53806
0.0206038
3.53549
0.122582
3.5302
0.198884
3.52271
0.272941
3.51307
0.349684
3.50169
0.424848
3.48871
0.501284
3.47431
0.578549
3.45864
0.657552
3.44211
0.739211
0.825621
3.71924
0.0193155
3.71635
0.125473
3.71061
0.204622
3.70275
0.280804
3.69266
0.359777
3.68062
0.436887
3.66705
0.514848
3.65202
0.593585
3.63595
0.67362
3.61871
0.756447
0.843779
3.91045
0.0179986
3.90723
0.128697
3.90128
0.210567
3.89288
0.289209
3.88203
0.370626
3.86943
0.449482
3.85512
0.52916
3.83942
0.609288
3.82264
0.690396
3.8048
0.774287
0.862296
4.11211
0.0168005
4.10864
0.132166
4.10217
0.217036
4.09319
0.29819
4.08196
0.381858
4.06851
0.462931
4.05355
0.544117
4.03715
0.625688
4.01963
0.707915
4.00129
0.792634
4.32483
0.0156679
4.32106
0.135941
4.31419
0.223906
4.3046
0.307781
4.29268
0.393776
4.27875
0.47686
4.26284
0.560023
4.24585
0.642684
4.22742
0.726345
0.811661
4.54927
4.54518
0.140034
4.53784
0.231238
4.52774
0.317887
4.51496
0.406558
4.50024
0.491573
4.48376
0.576504
4.46573
0.660716
4.44676
0.745318
0.83154
4.78154
0.144524
4.77387
0.238909
4.76307
0.328686
4.74969
0.419939
4.73402
0.507241
4.71666
0.593865
4.69783
0.679548
4.67801
0.76514
0.852307
5.03088
0.149287
5.02252
0.247266
5.0113
0.339913
4.9971
0.434134
4.98071
0.523628
4.96244
0.612142
4.94263
0.699351
4.92179
0.78598
0.873869
5.29391
0.154385
5.28509
0.256084
5.27309
0.351913
5.25821
0.449013
5.24093
0.54091
5.2217
0.631375
5.20089
0.72016
5.17899
0.807875
0.896398
5.57135
0.159664
5.56192
0.265508
5.54926
0.36458
5.5335
0.464769
5.51529
0.559125
5.49506
0.651597
5.47334
0.741884
5.45048
0.830733
0.919933
5.86391
0.165518
5.85395
0.275467
5.84056
0.377975
5.82387
0.481454
5.80481
0.578184
5.78342
0.672989
5.76061
0.764693
5.73662
0.854727
6.17247
0.171759
6.16201
0.285921
6.14786
0.392127
6.13035
0.498963
6.11013
0.598402
6.0878
0.695326
6.06359
0.788902
0.879768
6.49819
0.178332
6.48712
0.297
6.47198
0.407262
6.45359
0.517355
6.43217
0.619824
6.4087
0.718794
6.38345
0.814156
0.9063
6.84162
6.82981
0.308812
6.81409
0.422977
6.79461
0.536835
6.7722
0.642237
6.74729
0.743701
6.72068
0.84077
0.934103
7.19169
0.320741
7.17476
0.439908
7.15404
0.557557
7.13097
0.665298
7.10445
0.770227
7.07696
0.86826
0.96362
7.57308
0.334818
7.55556
0.45742
7.53391
0.579213
7.50831
0.690899
7.4813
0.797238
7.45156
0.897991
0.993446
7.97578
0.347681
7.95693
0.476273
7.93406
0.602086
7.90862
0.716334
7.87924
0.82662
7.84854
0.928691
1.02678
5.77661
0.380957
5.7489
0.503982
5.73272
0.618262
5.7123
0.736758
5.69151
0.847403
5.71073
0.909474
6.34696
0.417477
6.31613
0.534811
6.29691
0.637482
6.27749
0.75618
6.25518
0.869712
0.890487
6.97374
0.457458
6.93965
0.568907
6.91983
0.657299
6.89732
0.778689
6.87074
0.896297
0.866642
7.66205
0.50111
7.62446
0.6065
7.60387
0.677889
7.57679
0.80577
7.54968
0.923408
0.842044
8.4183
0.549929
8.37704
0.64776
8.35287
0.702054
8.32629
0.832355
8.29589
0.953805
0.815537
9.24872
0.602922
9.20349
0.692994
9.1768
0.728745
9.14652
0.862632
9.11388
0.986446
0.784778
10.1616
10.1136
0.74094
10.0843
0.75807
10.0516
0.895352
10.014
1.02396
0.752403
11.1101
0.796196
11.0789
0.789307
11.0419
0.932393
11.0015
1.06434
0.716415
12.2122
0.854249
12.177
0.824542
12.1374
0.971964
12.0935
1.10829
0.674871
13.4093
0.92101
13.3708
0.863022
13.327
1.01572
13.2777
1.15767
14.7544
0.990916
14.7142
0.903244
14.6661
1.06378
1.2067
16.1762
1.07023
16.1281
0.951357
16.074
1.11785
1.26834
17.8629
17.8185
17.7699
)
;

boundaryField
{
    inlet
    {
        type            calculated;
        value           nonuniform List<scalar> 4(1.14882 0.995779 1.16639 1.31804);
    }
    outlet
    {
        type            calculated;
        value           nonuniform List<scalar> 0();
    }
    walls
    {
        type            calculated;
        value           uniform 0;
    }
    frontAndBack
    {
        type            empty;
        value           nonuniform List<scalar> 0();
    }
    procBoundary5to0
    {
        type            processor;
        value           nonuniform List<scalar> 4(-0.215096 -0.217952 -0.229298 -0.281378);
    }
    procBoundary5to1
    {
        type            processor;
        value           nonuniform List<scalar> 
13
(
-0.02195
-0.0343796
-0.0478568
-0.0393924
-0.0995618
-0.0627563
-0.0542904
-0.158996
-0.0787918
-0.071846
-0.0650528
-0.251538
-0.0948256
)
;
    }
    procBoundary5to4
    {
        type            processor;
        value           nonuniform List<scalar> 
95
(
-0.219537
-0.237988
-0.213246
-0.31445
-0.236706
-0.225977
-0.38329
-0.229874
-0.209727
-0.449491
-0.211843
-0.489832
-0.20873
-0.530755
-0.550674
-0.227597
-0.594837
-0.219719
-0.639983
-0.665855
-0.229394
-0.71421
-0.744124
-0.235673
-0.79602
-0.830171
-0.236058
-0.88583
-0.924763
-0.965769
-0.249479
-1.02843
-1.07483
-1.12369
-0.253647
-1.19388
-1.24922
-1.30714
-0.246992
-1.38595
-1.45115
-1.51992
-0.225842
-1.60826
-1.68518
-1.76613
-1.85175
-1.94174
-0.216039
-2.05123
-2.15167
-2.2579
-2.36986
-2.48767
-0.17505
-2.62373
-2.75519
-2.89404
-3.04047
-3.19465
-0.0974595
-3.36466
-3.53646
-3.71795
-3.90913
-4.11091
-4.3237
-4.54811
0.0145125
-4.78603
-5.03564
-5.29901
-5.57663
-5.86976
-6.17871
-6.50477
-6.8486
0.185315
-7.20362
-7.58715
-7.98865
-5.80988
-6.38348
-7.01372
-7.70571
-8.46712
-9.30172
-10.2201
0.661514
-11.1654
-12.2703
-13.476
-14.8243
-16.2555
-17.9415
)
;
    }
    procBoundary5to6
    {
        type            processor;
        value           nonuniform List<scalar> 
86
(
0.12658
0.16813
0.213224
0.265971
0.321299
0.360648
0.375919
0.385031
0.401441
0.423863
0.447981
0.47237
0.49739
0.523646
0.551341
0.580533
0.611256
0.643506
0.677421
0.713062
0.750491
0.789816
0.831095
0.874532
0.920053
0.967987
1.01801
1.07081
1.1262
1.1843
1.2452
1.30929
1.3764
0.65322
1.46985
1.54355
1.62124
1.70261
1.78819
1.87809
1.97271
2.07215
2.17668
2.28681
2.40266
2.52449
0.810558
2.67087
2.80619
2.94881
3.09898
3.25761
3.42454
3.60056
3.78629
3.98223
0.881348
4.20839
4.42688
4.65724
4.90023
5.15646
5.42695
5.7119
0.944648
6.03855
6.35691
6.69287
7.04744
7.42174
7.81521
5.71374
1.02377
6.27417
6.89458
7.57428
8.3224
9.14464
10.0464
11.0375
12.135
13.3202
0.632362
14.6171
16.0124
17.7202
)
;
    }
}


// ************************************************************************* //
