/*--------------------------------*- C++ -*----------------------------------*\
| =========                 |                                                 |
| \\      /  F ield         | OpenFOAM: The Open Source CFD Toolbox           |
|  \\    /   O peration     | Version:  2306                                  |
|   \\  /    A nd           | Website:  www.openfoam.com                      |
|    \\/     M anipulation  |                                                 |
\*---------------------------------------------------------------------------*/
FoamFile
{
    version     2.0;
    format      ascii;
    arch        "LSB;label=32;scalar=64";
    class       volScalarField;
    location    "125";
    object      magR;
}
// * * * * * * * * * * * * * * * * * * * * * * * * * * * * * * * * * * * * * //

dimensions      [0 2 -2 0 0 0 0];

internalField   nonuniform List<scalar> 
1340
(
0.000553551
0.000547091
0.000540152
0.000531743
0.000519633
0.000469364
0.000463558
0.000457491
0.000450372
0.000440384
0.000429057
0.000400637
0.000395436
0.00039009
0.000384011
0.000375709
0.000366542
0.000356659
0.000343901
0.000339269
0.000334552
0.000329328
0.00032237
0.000314875
0.000306825
0.000298004
0.000296667
0.000292531
0.000288373
0.000283853
0.000277992
0.000271796
0.000265163
0.000257949
0.000250318
0.00025703
0.000253327
0.000249648
0.000245737
0.000240768
0.000235583
0.000230066
0.000224129
0.000217948
0.000211638
0.000223521
0.000220223
0.000216939
0.000213552
0.000209319
0.000204936
0.000200315
0.000195393
0.000190349
0.00018521
0.000195022
0.000192091
0.000189158
0.000186201
0.000182586
0.000178852
0.000174953
0.000170849
0.000166696
0.000162522
0.00015834
0.000170654
0.000168052
0.000165432
0.000162835
0.000159734
0.00015654
0.00015322
0.000149779
0.000146333
0.000142915
0.000139481
0.000149721
0.000147407
0.000145069
0.000142777
0.000140107
0.000137358
0.000134515
0.000131608
0.000128733
0.000125906
0.000123102
0.000120347
0.000131655
0.000129603
0.000127516
0.000125485
0.000123176
0.000120796
0.000118351
0.000115879
0.00011346
0.000111106
0.000108799
0.000106529
0.000116006
0.000114186
0.000112324
0.000110521
0.000108514
0.000106443
0.000104329
0.000102215
0.000100169
9.81957e-05
9.62851e-05
9.4394e-05
0.000102403
0.000100793
9.9129e-05
9.75247e-05
9.57713e-05
9.39638e-05
9.21284e-05
9.03112e-05
8.85683e-05
8.69026e-05
8.53026e-05
8.3748e-05
8.22245e-05
9.05466e-05
8.91181e-05
8.76332e-05
8.62042e-05
8.46642e-05
8.30785e-05
8.14806e-05
7.99087e-05
7.84162e-05
7.70011e-05
7.5652e-05
7.43598e-05
7.30761e-05
8.01814e-05
7.89097e-05
7.75913e-05
7.63161e-05
7.49566e-05
7.35606e-05
7.21642e-05
7.07985e-05
6.95108e-05
6.82995e-05
6.71548e-05
6.60684e-05
6.50027e-05
6.39603e-05
7.10977e-05
6.99619e-05
6.8793e-05
6.76546e-05
6.64486e-05
6.52179e-05
6.39927e-05
6.28017e-05
6.16855e-05
6.06415e-05
5.9663e-05
5.87406e-05
5.78466e-05
5.69624e-05
6.31176e-05
6.21027e-05
6.10663e-05
6.00489e-05
5.89767e-05
5.78903e-05
5.68114e-05
5.57682e-05
5.47946e-05
5.38897e-05
5.30469e-05
5.22589e-05
5.15026e-05
5.07436e-05
5.60968e-05
5.51858e-05
5.42675e-05
5.33587e-05
5.24035e-05
5.14411e-05
5.04879e-05
4.95705e-05
4.87183e-05
4.79294e-05
4.7198e-05
4.65195e-05
4.58722e-05
4.52335e-05
4.46032e-05
4.9911e-05
4.90882e-05
4.82741e-05
4.74623e-05
4.66101e-05
4.57554e-05
4.49119e-05
4.41014e-05
4.33519e-05
4.26602e-05
4.20215e-05
4.1433e-05
4.08741e-05
4.03288e-05
3.97867e-05
4.44474e-05
4.37042e-05
4.29812e-05
4.22564e-05
4.14947e-05
4.07343e-05
3.99864e-05
3.92682e-05
3.86064e-05
3.79967e-05
3.74362e-05
3.69225e-05
3.6436e-05
3.59673e-05
3.54925e-05
3.96122e-05
3.89434e-05
3.82996e-05
3.76527e-05
3.69709e-05
3.62942e-05
3.56293e-05
3.49917e-05
3.44049e-05
3.38655e-05
3.33705e-05
3.29186e-05
3.24943e-05
3.20865e-05
3.16813e-05
3.12698e-05
3.53269e-05
3.47268e-05
3.41521e-05
3.35752e-05
3.29655e-05
3.23622e-05
3.17703e-05
3.12031e-05
3.06814e-05
3.02023e-05
2.97631e-05
2.93641e-05
2.89905e-05
2.86322e-05
2.82856e-05
2.79204e-05
3.09863e-05
3.04737e-05
2.99591e-05
2.94141e-05
2.88761e-05
2.83486e-05
2.78432e-05
2.73784e-05
2.69515e-05
2.65603e-05
2.62057e-05
2.58752e-05
2.55603e-05
2.52556e-05
2.49411e-05
2.46139e-05
2.76643e-05
2.7208e-05
2.67489e-05
2.62617e-05
2.5782e-05
2.53115e-05
2.48605e-05
2.44459e-05
2.40646e-05
2.37152e-05
2.33988e-05
2.31047e-05
2.28261e-05
2.25571e-05
2.22842e-05
2.19951e-05
2.47118e-05
2.43054e-05
2.38961e-05
2.34606e-05
2.3033e-05
2.26133e-05
2.22109e-05
2.18402e-05
2.14989e-05
2.11861e-05
2.09027e-05
2.06401e-05
2.0393e-05
2.01542e-05
1.99145e-05
1.96576e-05
2.20849e-05
2.17229e-05
2.13583e-05
2.09696e-05
2.05883e-05
2.0214e-05
1.98548e-05
1.95232e-05
1.92176e-05
1.89369e-05
1.86826e-05
1.84477e-05
1.82264e-05
1.80148e-05
1.7803e-05
1.75811e-05
1.73481e-05
1.97457e-05
1.94234e-05
1.90987e-05
1.87521e-05
1.84125e-05
1.8079e-05
1.77581e-05
1.74618e-05
1.71879e-05
1.69359e-05
1.67074e-05
1.64964e-05
1.62985e-05
1.61104e-05
1.59221e-05
1.57285e-05
1.55229e-05
1.76613e-05
1.7374e-05
1.70853e-05
1.67766e-05
1.64745e-05
1.61774e-05
1.58913e-05
1.56264e-05
1.53812e-05
1.51548e-05
1.49495e-05
1.47599e-05
1.45823e-05
1.44145e-05
1.42474e-05
1.40774e-05
1.38942e-05
1.58024e-05
1.55464e-05
1.52897e-05
1.50154e-05
1.47469e-05
1.44827e-05
1.42279e-05
1.39916e-05
1.37721e-05
1.35688e-05
1.33842e-05
1.32139e-05
1.30546e-05
1.29046e-05
1.27565e-05
1.26062e-05
1.24481e-05
1.22782e-05
1.41432e-05
1.39153e-05
1.36874e-05
1.34441e-05
1.32059e-05
1.29713e-05
1.27447e-05
1.25343e-05
1.23381e-05
1.2156e-05
1.19903e-05
1.18372e-05
1.16943e-05
1.15602e-05
1.14291e-05
1.12962e-05
1.11588e-05
1.1009e-05
1.26614e-05
1.24588e-05
1.22565e-05
1.20411e-05
1.18303e-05
1.16225e-05
1.14216e-05
1.12345e-05
1.10597e-05
1.08969e-05
1.07483e-05
1.06109e-05
1.04829e-05
1.03632e-05
1.02469e-05
1.01295e-05
1.00093e-05
9.87673e-06
1.13372e-05
1.11571e-05
1.0978e-05
1.07878e-05
1.06017e-05
1.04181e-05
1.02404e-05
1.00747e-05
9.91923e-06
9.77402e-06
9.64112e-06
9.51818e-06
9.40369e-06
9.29711e-06
9.19399e-06
9.09082e-06
8.98537e-06
8.87132e-06
8.74605e-06
1.01533e-05
9.99332e-06
9.83503e-06
9.66755e-06
9.50374e-06
9.3419e-06
9.18532e-06
9.03897e-06
8.90139e-06
8.77223e-06
8.65372e-06
8.544e-06
8.44188e-06
8.34721e-06
8.25597e-06
8.16545e-06
8.0732e-06
7.975e-06
7.86575e-06
9.09413e-06
8.95223e-06
8.81259e-06
8.66564e-06
8.52192e-06
8.37981e-06
8.24238e-06
8.11367e-06
7.99223e-06
7.8779e-06
7.77262e-06
7.67508e-06
7.58425e-06
7.50039e-06
7.41996e-06
7.34072e-06
7.2602e-06
7.17524e-06
7.07964e-06
8.14605e-06
8.02059e-06
7.8976e-06
7.76907e-06
7.64345e-06
7.5192e-06
7.3991e-06
7.28647e-06
7.17988e-06
7.07901e-06
6.98578e-06
6.89934e-06
6.81902e-06
6.74503e-06
6.6745e-06
6.60519e-06
6.53538e-06
6.46193e-06
6.38066e-06
6.28991e-06
7.29705e-06
7.18633e-06
7.07842e-06
6.96636e-06
6.85707e-06
6.74899e-06
6.64469e-06
6.54668e-06
6.45345e-06
6.36482e-06
6.28275e-06
6.20647e-06
6.13568e-06
6.07069e-06
6.00903e-06
5.94878e-06
5.88876e-06
5.8255e-06
5.75638e-06
5.67777e-06
6.5365e-06
6.43894e-06
6.34455e-06
6.24743e-06
6.15286e-06
6.0594e-06
5.96938e-06
5.88461e-06
5.80355e-06
5.72608e-06
5.65405e-06
5.58709e-06
5.525e-06
5.46819e-06
5.41463e-06
5.36258e-06
5.31101e-06
5.25683e-06
5.19772e-06
5.13005e-06
5.8548e-06
5.76907e-06
5.68688e-06
5.60329e-06
5.52186e-06
5.44163e-06
5.36459e-06
5.2918e-06
5.22176e-06
5.15437e-06
5.0915e-06
5.03302e-06
4.97884e-06
4.92947e-06
4.88311e-06
4.83838e-06
4.7944e-06
4.74836e-06
4.69818e-06
4.64192e-06
4.57808e-06
5.2436e-06
5.16855e-06
5.09734e-06
5.02584e-06
4.95625e-06
4.88797e-06
4.82267e-06
4.76069e-06
4.70057e-06
4.64233e-06
4.58774e-06
4.53694e-06
4.48998e-06
4.44731e-06
4.40749e-06
4.36938e-06
4.33204e-06
4.29325e-06
4.25114e-06
4.20431e-06
4.15009e-06
4.69541e-06
4.6299e-06
4.56862e-06
4.50798e-06
4.44901e-06
4.3915e-06
4.33685e-06
4.28459e-06
4.23338e-06
4.1834e-06
4.13633e-06
4.09251e-06
4.05207e-06
4.0155e-06
3.98154e-06
3.94921e-06
3.91782e-06
3.88532e-06
3.85033e-06
3.81103e-06
3.76552e-06
4.20358e-06
4.14663e-06
4.0943e-06
4.04337e-06
3.99386e-06
3.94614e-06
3.90107e-06
3.85752e-06
3.81431e-06
3.77176e-06
3.73154e-06
3.69406e-06
3.65956e-06
3.62846e-06
3.59973e-06
3.5726e-06
3.54628e-06
3.51955e-06
3.49052e-06
3.45792e-06
3.41972e-06
3.7622e-06
3.71289e-06
3.66866e-06
3.62633e-06
3.58531e-06
3.54645e-06
3.50996e-06
3.47419e-06
3.43814e-06
3.40232e-06
3.36832e-06
3.33663e-06
3.30746e-06
3.2813e-06
3.25727e-06
3.23462e-06
3.2131e-06
3.19118e-06
3.16704e-06
3.13999e-06
3.10865e-06
3.07201e-06
3.366e-06
3.32356e-06
3.28656e-06
3.25188e-06
3.21846e-06
3.18758e-06
3.15879e-06
3.12989e-06
3.10026e-06
3.07051e-06
3.04216e-06
3.01571e-06
2.9914e-06
2.96964e-06
2.94965e-06
2.9311e-06
2.91352e-06
2.89528e-06
2.87549e-06
2.85313e-06
2.82768e-06
2.79757e-06
3.01028e-06
2.97394e-06
2.94347e-06
2.91558e-06
2.88895e-06
2.86528e-06
2.84332e-06
2.82048e-06
2.79657e-06
2.77232e-06
2.7491e-06
2.72738e-06
2.70737e-06
2.68939e-06
2.67302e-06
2.65783e-06
2.64323e-06
2.62829e-06
2.61198e-06
2.59369e-06
2.57291e-06
2.5483e-06
2.69085e-06
2.65994e-06
2.63534e-06
2.61345e-06
2.5929e-06
2.57574e-06
2.55979e-06
2.54226e-06
2.52349e-06
2.50423e-06
2.48561e-06
2.46805e-06
2.45176e-06
2.43705e-06
2.42358e-06
2.41095e-06
2.39893e-06
2.38656e-06
2.37321e-06
2.35831e-06
2.34147e-06
2.32116e-06
2.40393e-06
2.37784e-06
2.35855e-06
2.34192e-06
2.32683e-06
2.31556e-06
2.30487e-06
2.29197e-06
2.27787e-06
2.2631e-06
2.24852e-06
2.23453e-06
2.2213e-06
2.20919e-06
2.19795e-06
2.1874e-06
2.17729e-06
2.16697e-06
2.15596e-06
2.14369e-06
2.1299e-06
2.11334e-06
2.09394e-06
2.14616e-06
2.12439e-06
2.10983e-06
2.09781e-06
2.08767e-06
2.08171e-06
2.07553e-06
2.06671e-06
2.05688e-06
2.04612e-06
2.03497e-06
2.02382e-06
2.01295e-06
2.00276e-06
1.99317e-06
1.98408e-06
1.9754e-06
1.96662e-06
1.95729e-06
1.94714e-06
1.93565e-06
1.92227e-06
1.90625e-06
1.91454e-06
1.89662e-06
1.8863e-06
1.8783e-06
1.87264e-06
1.87145e-06
1.86911e-06
1.8639e-06
1.85803e-06
1.85077e-06
1.84232e-06
1.83324e-06
1.824e-06
1.81506e-06
1.80654e-06
1.79846e-06
1.79076e-06
1.78307e-06
1.77508e-06
1.76645e-06
1.7569e-06
1.74588e-06
1.73278e-06
1.70642e-06
1.6919e-06
1.68537e-06
1.68083e-06
1.67929e-06
1.68235e-06
1.68316e-06
1.68123e-06
1.6791e-06
1.67472e-06
1.66813e-06
1.66032e-06
1.65203e-06
1.64383e-06
1.636e-06
1.62858e-06
1.6216e-06
1.61477e-06
1.60779e-06
1.60049e-06
1.59261e-06
1.58357e-06
1.57304e-06
1.51936e-06
1.50788e-06
1.50473e-06
1.50319e-06
1.50544e-06
1.5122e-06
1.51554e-06
1.5167e-06
1.51807e-06
1.51581e-06
1.51018e-06
1.50296e-06
1.49514e-06
1.48738e-06
1.48004e-06
1.47323e-06
1.46692e-06
1.46086e-06
1.45486e-06
1.44876e-06
1.44226e-06
1.43511e-06
1.42682e-06
1.35123e-06
1.3425e-06
1.34231e-06
1.34337e-06
1.34917e-06
1.35906e-06
1.36437e-06
1.36853e-06
1.37312e-06
1.37203e-06
1.36652e-06
1.35945e-06
1.35198e-06
1.34468e-06
1.33794e-06
1.33182e-06
1.32626e-06
1.32104e-06
1.31598e-06
1.31099e-06
1.30585e-06
1.30045e-06
1.29428e-06
1.28746e-06
1.20014e-06
1.19385e-06
1.19627e-06
1.19956e-06
1.2087e-06
1.22113e-06
1.22798e-06
1.23523e-06
1.2426e-06
1.24158e-06
1.23555e-06
1.22864e-06
1.22177e-06
1.21525e-06
1.20935e-06
1.20409e-06
1.19936e-06
1.19496e-06
1.19079e-06
1.18674e-06
1.1828e-06
1.17874e-06
1.17437e-06
1.16923e-06
1.06446e-06
1.06034e-06
1.06498e-06
1.07016e-06
1.08243e-06
1.09675e-06
1.10486e-06
1.11541e-06
1.1251e-06
1.12301e-06
1.11619e-06
1.10986e-06
1.10411e-06
1.09866e-06
1.09374e-06
1.08934e-06
1.08532e-06
1.08155e-06
1.07798e-06
1.07462e-06
1.07143e-06
1.06833e-06
1.06507e-06
1.06111e-06
9.42537e-07
9.40334e-07
9.46836e-07
9.5365e-07
9.68847e-07
9.84329e-07
9.93525e-07
1.00758e-06
1.0192e-06
1.0153e-06
1.00794e-06
1.00286e-06
9.98566e-07
9.94166e-07
9.89965e-07
9.86071e-07
9.82374e-07
9.78818e-07
9.7545e-07
9.72289e-07
9.69406e-07
9.66779e-07
9.64075e-07
9.60674e-07
8.33001e-07
8.326e-07
8.40649e-07
8.48925e-07
8.6683e-07
8.82761e-07
8.92878e-07
9.10025e-07
9.23202e-07
9.17541e-07
9.105e-07
9.07205e-07
9.04191e-07
9.0029e-07
8.96191e-07
8.92196e-07
8.88275e-07
8.84447e-07
8.80801e-07
8.77474e-07
8.74502e-07
8.71938e-07
8.6942e-07
8.66229e-07
7.34755e-07
7.36006e-07
7.45354e-07
7.55072e-07
7.75509e-07
7.91392e-07
8.02453e-07
8.22031e-07
8.36117e-07
8.28712e-07
8.22832e-07
8.21413e-07
8.18875e-07
8.1456e-07
8.09909e-07
8.05381e-07
8.00901e-07
7.96528e-07
7.92448e-07
7.88726e-07
7.85574e-07
7.82978e-07
7.80473e-07
7.77273e-07
6.4678e-07
6.4939e-07
6.59691e-07
6.70857e-07
6.93511e-07
7.09097e-07
7.21417e-07
7.44442e-07
7.59938e-07
7.48444e-07
7.42918e-07
7.43191e-07
7.4035e-07
7.34846e-07
7.2925e-07
7.24047e-07
7.18982e-07
7.14151e-07
7.09675e-07
7.05789e-07
7.02558e-07
6.99823e-07
6.97329e-07
6.94242e-07
6.90463e-07
5.69251e-07
5.72855e-07
5.83366e-07
5.95554e-07
6.19352e-07
6.33757e-07
6.46604e-07
6.74443e-07
6.96587e-07
6.77745e-07
6.69785e-07
6.71891e-07
6.68941e-07
6.62201e-07
6.55729e-07
6.50037e-07
6.44648e-07
6.39478e-07
6.34818e-07
6.30799e-07
6.27322e-07
6.24561e-07
6.22139e-07
6.19222e-07
6.15535e-07
5.04229e-07
5.08388e-07
5.18286e-07
5.30634e-07
5.53708e-07
5.64965e-07
5.75366e-07
6.08832e-07
6.38765e-07
6.1332e-07
6.03115e-07
6.07256e-07
6.05183e-07
5.98154e-07
5.91303e-07
5.85441e-07
5.79864e-07
5.7453e-07
5.69664e-07
5.65361e-07
5.61801e-07
5.5898e-07
5.56553e-07
5.53657e-07
5.49893e-07
4.53894e-07
4.58062e-07
4.66664e-07
4.77958e-07
4.9806e-07
5.04173e-07
5.11291e-07
5.42127e-07
5.7632e-07
5.51579e-07
5.43079e-07
5.49201e-07
5.49317e-07
5.43723e-07
5.37548e-07
5.32107e-07
5.26901e-07
5.21858e-07
5.1722e-07
5.1322e-07
5.09939e-07
5.07444e-07
5.0539e-07
5.02706e-07
4.99045e-07
4.10391e-07
4.14342e-07
4.21412e-07
4.31517e-07
4.48111e-07
4.49547e-07
4.55228e-07
4.78848e-07
5.12692e-07
4.93904e-07
4.88862e-07
4.96e-07
4.98284e-07
4.94773e-07
4.89862e-07
4.8521e-07
4.80659e-07
4.76199e-07
4.7213e-07
4.68659e-07
4.65914e-07
4.64059e-07
4.62603e-07
4.6043e-07
4.57246e-07
3.66874e-07
3.70569e-07
3.76247e-07
3.85697e-07
3.9879e-07
3.97519e-07
4.03244e-07
4.20187e-07
4.54285e-07
4.42145e-07
4.3987e-07
4.46627e-07
4.49847e-07
4.47803e-07
4.43932e-07
4.39982e-07
4.36015e-07
4.32058e-07
4.2838e-07
4.25284e-07
4.22972e-07
4.21524e-07
4.2058e-07
4.18883e-07
4.16009e-07
3.25331e-07
3.28645e-07
3.33044e-07
3.42033e-07
3.51477e-07
3.49402e-07
3.55191e-07
3.66259e-07
4.01159e-07
3.95328e-07
3.95628e-07
4.01832e-07
4.05481e-07
4.04423e-07
4.01266e-07
3.97865e-07
3.94496e-07
3.91143e-07
3.88011e-07
3.85378e-07
3.83425e-07
3.82387e-07
3.81798e-07
3.80337e-07
3.77586e-07
2.85841e-07
2.88559e-07
2.91753e-07
3.00235e-07
3.06022e-07
3.053e-07
3.10324e-07
3.17371e-07
3.54109e-07
3.53836e-07
3.56176e-07
3.61888e-07
3.66012e-07
3.65897e-07
3.63154e-07
3.59607e-07
3.55997e-07
3.5263e-07
3.4971e-07
3.4735e-07
3.45691e-07
3.44852e-07
3.44283e-07
3.42769e-07
3.39743e-07
2.48973e-07
2.50778e-07
2.527e-07
2.60154e-07
2.62366e-07
2.64989e-07
2.67633e-07
2.73818e-07
3.1366e-07
3.18221e-07
3.22075e-07
3.26699e-07
3.30314e-07
3.30913e-07
3.2934e-07
3.26288e-07
3.22146e-07
3.17558e-07
3.13257e-07
3.0978e-07
3.07322e-07
3.05877e-07
3.04726e-07
3.02202e-07
2.97634e-07
2.15223e-07
2.15862e-07
2.16342e-07
2.21735e-07
2.20378e-07
2.27056e-07
2.24672e-07
2.35111e-07
2.79881e-07
2.88219e-07
2.94497e-07
2.9796e-07
2.9809e-07
2.95193e-07
2.92096e-07
2.89686e-07
2.87159e-07
2.83585e-07
2.7896e-07
2.73931e-07
2.69203e-07
2.65266e-07
2.61664e-07
2.56917e-07
2.50375e-07
2.42787e-07
1.84403e-07
1.83702e-07
1.82624e-07
1.8496e-07
1.80521e-07
1.90177e-07
1.79662e-07
2.02281e-07
2.52892e-07
2.6083e-07
2.70309e-07
2.74529e-07
2.71883e-07
2.62986e-07
2.51746e-07
2.41803e-07
2.34821e-07
2.30437e-07
2.27151e-07
2.23765e-07
2.19633e-07
2.14882e-07
2.0922e-07
2.0168e-07
1.92248e-07
1.8234e-07
1.56628e-07
1.54073e-07
1.50703e-07
1.49306e-07
1.43543e-07
1.55097e-07
1.37579e-07
1.84127e-07
2.35098e-07
2.365e-07
2.45722e-07
2.46857e-07
2.44587e-07
2.40323e-07
2.30219e-07
2.13463e-07
1.94602e-07
1.79209e-07
1.70327e-07
1.67879e-07
1.70063e-07
1.74587e-07
1.78057e-07
1.76098e-07
1.67894e-07
1.57018e-07
1.34122e-07
1.28362e-07
1.20308e-07
1.13274e-07
1.0757e-07
1.21448e-07
1.09924e-07
1.89016e-07
2.28725e-07
2.36628e-07
2.66001e-07
2.70222e-07
2.54628e-07
2.31899e-07
2.15992e-07
2.16064e-07
2.27671e-07
2.40393e-07
2.48912e-07
2.53811e-07
2.57097e-07
2.61018e-07
2.68293e-07
2.82638e-07
3.05105e-07
3.32258e-07
1.2035e-07
1.10644e-07
9.53375e-08
7.8267e-08
6.85255e-08
8.33144e-08
9.53057e-08
1.93107e-07
2.06335e-07
2.31749e-07
2.90483e-07
3.40925e-07
3.92857e-07
4.47151e-07
4.97065e-07
5.3765e-07
5.67198e-07
5.89596e-07
6.10727e-07
6.34483e-07
6.62379e-07
6.94254e-07
7.28295e-07
7.58939e-07
7.80494e-07
7.95567e-07
1.14539e-07
1.02789e-07
8.23878e-08
5.43422e-08
2.99734e-08
4.71569e-08
8.88683e-08
1.48273e-07
2.12626e-07
4.60457e-07
6.94878e-07
9.02723e-07
1.06526e-06
1.18041e-06
1.25513e-06
1.3034e-06
1.339e-06
1.37176e-06
1.40495e-06
1.43803e-06
1.46926e-06
1.49842e-06
1.5272e-06
1.56068e-06
1.59498e-06
1.62335e-06
)
;

boundaryField
{
    inlet
    {
        type            calculated;
        value           nonuniform List<scalar> 
26
(
1.15978e-07
1.04321e-07
8.35783e-08
5.3668e-08
2.44393e-08
4.91975e-08
1.05066e-07
1.08568e-07
4.83015e-07
9.73218e-07
1.51866e-06
2.05485e-06
2.53625e-06
2.94455e-06
3.27294e-06
3.53144e-06
3.73482e-06
3.89852e-06
4.03677e-06
4.16097e-06
4.2797e-06
4.4021e-06
4.53864e-06
4.69645e-06
4.86292e-06
5.01967e-06
)
;
    }
    outlet
    {
        type            calculated;
        value           nonuniform List<scalar> 0();
    }
    walls
    {
        type            calculated;
        value           nonuniform List<scalar> 0();
    }
    frontAndBack
    {
        type            empty;
    }
    procBoundary0to1
    {
        type            processor;
        value           nonuniform List<scalar> 
94
(
0.000617891
0.000505541
0.000505541
0.000416837
0.000416837
0.000345807
0.000345807
0.00028855
0.00028855
0.000242489
0.000242489
0.000205182
0.000180082
0.000180082
0.000154126
0.00013612
0.00013612
0.00011758
0.000104294
9.25804e-05
9.25804e-05
8.07188e-05
7.18501e-05
7.18501e-05
6.29149e-05
5.60982e-05
5.00232e-05
5.00232e-05
4.39685e-05
3.92511e-05
3.50368e-05
3.50368e-05
3.08517e-05
2.75611e-05
2.75611e-05
2.42774e-05
2.17036e-05
1.9404e-05
1.9404e-05
1.71052e-05
1.53113e-05
1.3709e-05
1.3709e-05
1.20972e-05
1.08512e-05
9.73896e-06
9.73896e-06
8.61043e-06
7.7487e-06
6.97812e-06
6.97812e-06
6.18895e-06
5.59129e-06
5.05698e-06
5.05698e-06
4.50449e-06
4.08831e-06
3.71381e-06
3.37655e-06
3.37655e-06
3.02953e-06
2.76273e-06
2.51984e-06
2.29792e-06
2.29792e-06
2.07222e-06
1.8885e-06
1.71832e-06
1.56146e-06
1.41794e-06
1.41794e-06
1.27972e-06
1.1633e-06
1.05625e-06
9.56373e-07
8.62124e-07
7.73269e-07
7.73269e-07
6.86243e-07
6.11499e-07
5.45835e-07
4.95101e-07
4.537e-07
4.12596e-07
3.74125e-07
3.35909e-07
2.91913e-07
2.91913e-07
2.34548e-07
1.73089e-07
1.46464e-07
3.602e-07
8.08142e-07
1.64481e-06
)
;
    }
    procBoundary0to4
    {
        type            processor;
        value           nonuniform List<scalar> 
72
(
0.000558416
0.000474026
0.000405018
0.000347949
0.000300362
0.00026037
0.000226536
0.000197739
0.000173098
0.000151909
0.000133617
0.000117768
0.000103988
9.19729e-05
8.14668e-05
7.22578e-05
6.41682e-05
5.70428e-05
5.07587e-05
4.5208e-05
4.02936e-05
3.59435e-05
3.15212e-05
3.15212e-05
2.81434e-05
2.51406e-05
2.24691e-05
2.00898e-05
1.79693e-05
1.60775e-05
1.43889e-05
1.28805e-05
1.15324e-05
1.03268e-05
9.24811e-06
8.28238e-06
7.41756e-06
6.64262e-06
5.94807e-06
5.32528e-06
4.76684e-06
4.26583e-06
3.81629e-06
3.4128e-06
3.05065e-06
2.72549e-06
2.43351e-06
2.17124e-06
1.9357e-06
1.7241e-06
1.534e-06
1.36319e-06
1.20979e-06
1.07206e-06
9.48366e-07
8.37291e-07
7.37712e-07
6.48629e-07
5.70287e-07
5.04822e-07
4.54208e-07
4.10455e-07
3.66731e-07
3.25069e-07
2.85584e-07
2.48905e-07
2.15492e-07
1.85242e-07
1.58399e-07
1.37304e-07
1.25047e-07
1.19943e-07
)
;
    }
    procBoundary0to5
    {
        type            processor;
        value           nonuniform List<scalar> 4(0.000657646 0.000650622 0.000642681 0.00063269);
    }
}


// ************************************************************************* //
