/*--------------------------------*- C++ -*----------------------------------*\
| =========                 |                                                 |
| \\      /  F ield         | OpenFOAM: The Open Source CFD Toolbox           |
|  \\    /   O peration     | Version:  2306                                  |
|   \\  /    A nd           | Website:  www.openfoam.com                      |
|    \\/     M anipulation  |                                                 |
\*---------------------------------------------------------------------------*/
FoamFile
{
    version     2.0;
    format      ascii;
    arch        "LSB;label=32;scalar=64";
    class       volScalarField;
    location    "125";
    object      p;
}
// * * * * * * * * * * * * * * * * * * * * * * * * * * * * * * * * * * * * * //

dimensions      [0 2 -2 0 0 0 0];

internalField   nonuniform List<scalar> 
1340
(
100.97
118.86
135.515
152.455
168.773
94.994
111.616
127.086
142.897
158.192
171.481
89.1285
104.644
119.077
133.898
148.288
160.869
171.731
83.4513
97.9829
111.506
125.443
139.026
150.967
161.372
169.696
78.0042
91.6578
104.367
117.513
130.365
141.725
151.701
159.773
165.434
72.8119
85.6738
97.6497
110.075
122.267
133.092
142.663
150.487
156.07
159.434
67.8833
80.0286
91.3384
103.107
114.693
125.025
134.211
141.79
147.277
150.695
63.2239
74.7125
85.4152
96.5793
107.609
117.481
126.301
133.638
139.018
142.455
144.173
58.8295
69.7149
79.859
90.4663
100.978
110.421
118.893
125.991
131.252
134.689
136.516
54.6943
65.0212
74.6496
84.7411
94.7715
103.807
111.949
118.812
123.948
127.365
129.27
129.855
50.8087
60.6177
69.7678
79.3791
88.9572
97.6098
105.435
112.069
117.075
120.457
122.417
123.137
47.1636
56.4901
65.1941
74.3562
83.5096
91.7988
99.3225
105.732
110.605
113.941
115.935
116.764
43.7481
52.6241
60.9104
69.6502
78.4025
86.3483
93.5826
99.7747
104.512
107.792
109.806
110.721
110.743
40.5521
49.0039
56.8996
65.2415
73.6151
81.2338
88.1914
94.1704
98.7716
101.989
104.01
104.992
105.134
37.5632
45.6169
53.1436
61.1109
69.1263
76.4343
83.1244
88.897
93.3615
96.513
98.5303
99.5643
99.8055
99.4243
34.7711
42.4487
49.6277
57.2406
64.9166
71.9268
78.3612
83.9326
88.263
91.3438
93.3489
94.4227
94.7474
94.4893
32.165
39.4879
46.3374
53.6147
60.9668
67.6937
73.8815
79.2581
83.4558
86.4638
88.4505
89.5539
89.9485
89.797
29.7355
36.7212
43.2591
50.2178
57.2623
63.7167
69.6688
74.8557
78.9228
81.8563
83.8196
84.9443
85.3974
85.337
84.8669
27.4705
34.1377
40.3799
47.0361
53.7861
59.981
65.7055
70.7091
74.6474
77.5058
79.4419
80.5811
81.0832
81.1021
80.7385
25.362
31.7265
37.6879
44.0556
50.5248
56.4703
61.9765
66.8023
70.6148
73.3977
75.3035
76.4515
76.9946
77.0821
76.8134
23.4
29.4773
35.1715
41.2643
47.4648
53.1717
58.467
63.1213
66.8104
69.5183
71.3913
72.5436
73.121
73.268
73.0817
72.6353
21.5775
27.3807
32.8206
38.6506
44.5942
50.0716
55.1645
59.652
63.2217
65.855
67.6936
68.8459
69.4517
69.6507
69.5367
69.1822
25.4277
30.6251
36.2038
41.9006
47.1585
52.0558
56.3826
59.8355
62.3951
64.1981
65.3476
65.977
66.2211
66.1711
65.897
65.4381
23.6092
28.5753
33.9136
39.3742
44.4204
49.1302
53.3011
56.6404
59.1275
60.8941
62.0381
62.6865
62.9698
62.9765
62.7739
62.4019
21.9175
26.6624
31.7706
37.0043
41.8477
46.3762
50.3967
53.6254
56.0413
57.7708
58.907
59.5709
59.8882
59.9449
59.8061
59.5119
20.344
24.8777
29.7655
34.7816
39.4296
43.7839
47.6587
50.7803
53.1263
54.8181
55.9449
56.6209
56.9681
57.0688
56.9869
56.7605
56.4097
18.8819
23.2134
27.89
32.6971
37.1576
41.3435
45.0776
48.0949
50.3726
52.0269
53.1426
53.8281
54.2007
54.3405
54.3085
54.1431
53.8637
17.524
21.6621
26.1362
30.7425
35.0223
39.0462
42.6442
45.5603
47.771
49.3877
50.491
51.1836
51.5783
51.7524
51.7648
51.6531
51.4377
16.2638
20.2167
24.4962
28.9096
33.0159
36.8833
40.3497
43.1677
45.3128
46.8921
47.9816
48.6791
49.0928
49.2969
49.3486
49.2848
49.125
48.8794
15.0946
18.8702
22.9634
27.1913
31.1302
34.8469
38.186
40.9086
42.9897
44.5318
45.6067
46.307
46.7366
46.9672
47.0534
47.0315
46.9214
46.7329
14.0111
17.6167
21.5309
25.5803
29.3584
32.9296
36.1454
38.7753
40.7939
42.2988
43.3582
44.0596
44.5026
44.7561
44.8726
44.8878
44.8211
44.6836
13.0073
16.45
20.1926
24.0704
27.6933
31.1241
34.2206
36.7606
38.7179
40.1858
41.2289
41.9298
42.3837
42.6571
42.8002
42.8476
42.8194
42.7258
42.5698
12.0783
15.3648
18.9424
22.6551
26.1286
29.4237
32.4049
34.8574
36.7547
38.1858
39.2117
39.9105
40.3732
40.6636
40.8297
40.9055
40.9105
40.8559
40.7443
11.2187
14.3556
17.7749
21.3288
24.6582
27.8225
30.6918
33.059
34.8975
36.2921
37.3003
37.9952
38.4647
38.7694
38.9555
39.0558
39.0901
39.0689
38.9968
10.4242
13.4175
16.6848
20.0858
23.2764
26.3142
29.0751
31.3595
33.1404
34.4985
35.488
36.1779
36.6521
36.9686
37.1718
37.2934
37.3527
37.361
37.3223
37.2356
9.69015
12.5458
15.6672
18.9211
21.9778
24.8935
27.5494
29.7531
31.4773
32.799
33.7693
34.4528
34.9297
35.2558
35.4733
35.6131
35.6942
35.7273
35.7179
35.6649
9.01251
11.7361
14.7173
17.8296
20.7573
23.5549
26.109
28.2341
29.9028
31.1884
32.1384
32.8144
33.2923
33.6258
33.855
34.0102
34.1094
34.1644
34.1797
34.1564
8.38712
10.9842
13.8307
16.8068
19.61
22.2935
24.7488
26.7974
28.4116
29.661
30.5905
31.2575
31.7347
32.0736
32.3123
32.4801
32.5951
32.6678
32.7048
32.7061
32.6692
7.81058
10.2862
13.0031
15.848
18.5313
21.1044
23.464
25.438
26.9986
28.2121
29.1204
29.7772
30.2524
30.5947
30.8407
31.0188
31.1463
31.2346
31.2891
31.3117
31.2995
7.27915
9.6383
12.2308
14.9495
17.5168
19.9833
22.2499
24.1512
25.6592
26.8369
27.7234
28.3692
28.8407
29.1847
29.4362
29.6222
29.7603
29.8606
29.9303
29.9703
29.9795
6.78985
9.03713
11.5099
14.1069
16.5625
18.9258
21.1022
22.9326
24.3889
25.5309
26.3951
27.0289
27.4955
27.8397
28.0947
28.287
28.433
28.5437
28.6252
28.6798
28.707
6.33931
8.47932
10.8371
13.317
15.6647
17.9282
20.0169
21.778
23.1836
24.29
25.1315
25.7524
26.2129
26.5558
26.8129
27.0094
27.1617
27.2801
27.3712
27.438
27.4796
27.4931
5.92487
7.96193
10.2092
12.5762
14.8199
16.9867
18.9902
20.6837
22.0392
23.1102
23.9285
24.5357
24.9891
25.3294
25.5869
25.7863
25.943
26.0673
26.1661
26.2424
26.296
26.3244
5.54369
7.48202
9.62304
11.8814
14.0246
16.0978
18.0186
19.646
20.9523
21.9879
22.7828
23.3754
23.8206
24.1572
24.414
24.6146
24.7741
24.9028
25.0074
25.0911
25.1545
25.1948
5.19343
7.03689
9.07581
11.2295
13.2757
15.2584
17.0988
18.6617
19.9194
20.9198
21.6907
22.2682
22.7044
23.0361
23.2909
23.4915
23.6526
23.7841
23.8927
23.9824
24.0529
24.1034
4.87142
6.62402
8.56487
10.6178
12.5704
14.4654
16.2276
17.7274
18.9373
19.9026
20.6494
21.2111
21.6372
21.9632
22.215
22.4145
22.576
22.709
22.8206
22.9138
22.9904
23.0481
23.0838
4.57574
6.24106
8.08763
10.0435
11.9058
13.7159
15.402
16.8404
18.0031
18.9335
19.6558
20.2012
20.6167
20.936
21.1838
21.3811
21.5419
21.6755
21.7883
21.8846
21.9647
22.0286
22.0722
4.30414
5.88584
7.6419
9.50433
11.2792
13.0073
14.6195
15.9976
17.1138
18.0095
18.7073
19.236
19.6401
19.9519
20.195
20.3893
20.5485
20.6813
20.7948
20.8921
20.9754
21.0433
21.0937
4.05491
5.55631
7.22542
8.99786
10.6885
12.3371
13.8772
15.1965
16.2668
17.1282
17.8014
18.3129
18.7052
19.0089
19.2464
19.437
19.5936
19.7252
19.8379
19.9361
20.0205
20.0917
20.1468
3.82602
5.25058
6.83627
8.52209
10.1314
11.7029
13.1729
14.4346
15.4596
16.2868
16.9356
17.4299
17.8098
18.1047
18.336
18.5222
18.6758
18.8051
18.9168
19.014
19.0995
19.1723
19.2314
3.61599
4.96683
6.47244
8.07483
9.60565
11.1026
12.5042
13.7096
14.6895
15.4832
16.1078
16.5845
16.9517
17.2374
17.462
17.6433
17.7931
17.9198
18.0292
18.1258
18.2106
18.2848
18.3459
18.3898
3.42316
4.70341
6.13225
7.65426
9.10924
10.5339
11.8689
13.0193
13.9545
14.7151
15.3158
15.7749
16.129
16.4051
16.6227
16.7985
16.9442
17.0675
17.1749
17.2693
17.3537
17.4276
17.4904
17.5372
3.24629
4.45883
5.814
7.2585
8.64029
9.99475
11.2646
12.3612
13.252
13.9807
14.5581
14.9992
15.3398
15.606
15.8162
15.9863
16.1275
16.2473
16.3515
16.4443
16.5268
16.6006
16.6638
16.713
3.08377
4.23172
5.51651
6.88628
8.19733
9.4836
10.6895
11.7333
12.5793
13.2776
13.8326
14.2557
14.5823
14.8385
15.0411
15.2053
15.3417
15.4575
15.5589
15.6486
15.7299
15.8023
15.8657
15.916
2.93451
4.02079
5.23829
6.53631
7.77955
8.99974
10.1433
11.1348
11.9333
12.6029
13.1369
13.5418
13.8545
14.1006
14.2957
14.4539
14.5853
14.6972
14.7949
14.8824
14.961
15.0324
15.0951
15.1463
2.79718
3.82459
4.97795
6.20691
7.38508
8.54141
9.62491
10.5653
11.313
11.9551
12.4692
12.8556
13.1541
13.3904
13.578
13.7301
13.8566
13.9642
14.0588
14.143
14.2199
14.2893
14.3515
14.403
2.67144
3.64227
4.73316
5.89478
7.00958
8.1028
9.12826
10.0192
10.7203
11.3394
11.8326
12.1984
12.4821
12.7082
12.888
13.0335
13.1545
13.258
13.3486
13.4304
13.5044
13.5723
13.6335
13.6851
13.7235
2.55671
3.47321
4.50338
5.59847
6.65034
7.67915
8.64665
9.4853
10.1474
10.7572
11.2291
11.5698
11.8379
12.0546
12.2266
12.3655
12.4811
12.58
12.6672
12.7455
12.8172
12.8831
12.9435
12.9948
13.0341
2.46847
3.34096
4.32295
5.35745
6.34708
7.30065
8.18376
8.91795
9.49477
10.17
10.6601
10.9938
11.2617
11.4826
11.657
11.7965
11.9122
12.0113
12.0984
12.1771
12.2491
12.3161
12.3773
12.431
12.4723
2.39721
3.23262
4.17065
5.1474
6.0725
6.9411
7.72206
8.33026
8.80375
9.58035
10.1172
10.4586
10.7362
10.9698
11.1537
11.2991
11.4191
11.5215
11.6114
11.6924
11.7669
11.8361
11.9008
11.9575
12.0027
2.32656
3.1246
4.01798
4.93684
5.79833
6.58198
7.26507
7.75437
8.12801
8.98464
9.56887
9.91867
10.2027
10.4469
10.6398
10.791
10.9148
11.0202
11.1126
11.1957
11.272
11.3439
11.4108
11.4713
11.5199
2.25684
3.01775
3.86619
4.72766
5.52671
6.22581
6.81569
7.19129
7.47094
8.38392
9.01385
9.37492
9.66329
9.91553
10.1164
10.273
10.4006
10.5086
10.6032
10.688
10.7665
10.8397
10.9097
10.9729
11.0253
2.18888
2.91309
3.71675
4.52185
5.26008
5.87473
6.3767
6.63869
6.83153
7.77915
8.45085
8.82613
9.11892
9.37774
9.58533
9.74671
9.87724
9.98774
10.0843
10.1712
10.251
10.3267
10.3984
10.4651
10.5209
2.1235
2.81207
3.57141
4.32203
5.00046
5.53076
5.94886
6.09558
6.20545
7.17066
7.8784
8.27005
8.56803
8.83379
9.04894
9.21546
9.34852
9.46029
9.5579
9.64554
9.72691
9.80356
9.87799
9.94732
10.007
2.06206
2.71659
3.43291
4.13105
4.74932
5.19322
5.53106
5.55493
5.58424
6.5574
7.29899
7.70659
8.00793
8.278
8.50149
8.67652
8.81614
8.93168
9.03092
9.11929
9.20036
9.27794
9.3531
9.42492
9.48741
2.00519
2.62811
3.30356
3.95229
4.50813
4.86385
5.12222
5.01205
4.95288
5.93129
6.71207
7.14509
7.45166
7.71939
7.9396
8.11527
8.25973
8.38339
8.49081
8.58568
8.6716
8.75183
8.83
8.90496
8.97259
9.02847
1.95239
2.54585
3.18369
3.78748
4.28178
4.55593
4.74058
4.46724
4.29861
5.27335
6.09617
6.57114
6.91179
7.19998
7.42211
7.58338
7.70745
7.81375
7.91179
8.00415
8.09178
8.1763
8.25864
8.33798
8.40925
8.47003
1.90454
2.47144
3.07528
3.64029
4.07785
4.2909
4.40319
3.91908
3.6171
4.58042
5.41296
5.90389
6.27992
6.62886
6.92261
7.14302
7.29914
7.40892
7.49158
7.56135
7.62758
7.69569
7.76879
7.84447
7.91369
7.96965
1.8717
2.41993
2.99836
3.5259
3.9045
4.0561
4.04531
3.28817
2.89515
3.90971
4.75874
5.21215
5.51168
5.77892
6.03402
6.2825
6.52241
6.74211
6.93111
7.08619
7.2112
7.31268
7.40114
7.4906
7.59486
7.70633
1.86595
2.41677
2.98418
3.47379
3.77103
3.79865
3.50815
2.43889
2.04611
3.24475
4.30848
4.98277
5.39645
5.60596
5.64012
5.56477
5.45441
5.3666
5.32804
5.34036
5.39621
5.48698
5.59557
5.6884
5.7267
5.7281
1.87563
2.44275
3.01353
3.4732
3.68721
3.55187
2.8963
1.55467
0.946345
2.04066
3.23715
4.4021
5.5219
6.57572
7.46406
8.13903
8.61727
8.91674
9.07841
9.1505
9.17345
9.17937
9.2168
9.36055
9.64331
9.95441
)
;

boundaryField
{
    inlet
    {
        type            freestreamPressure;
        freestreamValue uniform 0;
        value           nonuniform List<scalar> 
26
(
1.8665
2.43086
2.99886
3.45629
3.66926
3.53457
2.8822
1.5471
0.538594
1.16064
1.8399
2.5004
3.13467
3.73117
4.23363
4.61505
4.88496
5.05358
5.14413
5.18395
5.19592
5.1982
5.21824
5.29837
5.45715
5.63197
)
;
    }
    outlet
    {
        type            freestreamPressure;
        freestreamValue nonuniform List<scalar> 0();
        value           nonuniform List<scalar> 0();
    }
    walls
    {
        type            zeroGradient;
    }
    frontAndBack
    {
        type            empty;
    }
    procBoundary0to1
    {
        type            processor;
        value           nonuniform List<scalar> 
94
(
180.054
182.858
182.858
182.835
182.835
180.305
180.305
175.409
175.409
168.708
168.708
160.817
152.266
152.266
144.388
136.934
136.934
129.365
122.849
116.644
116.644
110.055
104.61
104.61
98.5351
93.7583
89.2044
89.2044
84.0693
80.0725
76.2621
76.2621
71.9683
68.6234
68.6234
64.8116
61.878
59.0784
59.0784
55.9408
53.4781
51.1253
51.1253
48.5459
46.4661
44.4749
44.4749
42.3453
40.5721
38.8694
38.8694
37.0936
35.5633
34.0891
34.0891
32.5857
31.2467
29.9525
28.7014
28.7014
27.4698
26.3201
25.2067
24.1276
24.1276
23.0887
22.089
21.1195
20.1803
19.2701
19.2701
18.4114
17.564
16.7434
15.9495
15.1817
14.44
14.44
13.7482
13.0601
12.5012
12.0348
11.5556
11.0641
10.5638
10.0535
9.53766
9.53766
9.07208
8.52059
8.01094
7.81378
5.72139
10.2072
)
;
    }
    procBoundary0to4
    {
        type            processor;
        value           nonuniform List<scalar> 
72
(
80.9683
76.4451
71.8545
67.3026
62.8589
58.5699
54.4616
50.5498
46.8402
43.3369
40.0373
36.9374
34.0306
31.3102
28.7683
26.3974
24.1889
22.1345
20.226
18.4555
16.8154
15.2989
19.8861
19.8861
18.3181
16.8648
15.5202
14.2762
13.1274
12.0668
11.0894
10.1891
9.36114
8.6001
7.90207
7.26202
6.67633
6.14055
5.65158
5.20544
4.79935
4.42975
4.09434
3.78993
3.51442
3.26505
3.04006
2.83699
2.65434
2.48992
2.34252
2.21021
2.09192
1.98599
1.8915
1.80689
1.73147
1.66484
1.6068
1.56228
1.52767
1.49417
1.46198
1.43126
1.40229
1.37525
1.35007
1.32665
1.30588
1.28945
1.2775
1.26253
)
;
    }
    procBoundary0to5
    {
        type            processor;
        value           nonuniform List<scalar> 4(106.931 126.288 144.318 162.559);
    }
}


// ************************************************************************* //
