/*--------------------------------*- C++ -*----------------------------------*\
| =========                 |                                                 |
| \\      /  F ield         | OpenFOAM: The Open Source CFD Toolbox           |
|  \\    /   O peration     | Version:  2306                                  |
|   \\  /    A nd           | Website:  www.openfoam.com                      |
|    \\/     M anipulation  |                                                 |
\*---------------------------------------------------------------------------*/
FoamFile
{
    version     2.0;
    format      ascii;
    arch        "LSB;label=32;scalar=64";
    class       volScalarField;
    location    "125";
    object      turbulenceProperties:L;
}
// * * * * * * * * * * * * * * * * * * * * * * * * * * * * * * * * * * * * * //

dimensions      [0 1 0 0 0 0 0];

internalField   nonuniform List<scalar> 
1340
(
0.00989121
0.00994939
0.0100131
0.010092
0.010209
0.0107417
0.0108087
0.0108801
0.0109658
0.0110895
0.0112349
0.0116265
0.0117027
0.0117826
0.0118755
0.0120061
0.0121552
0.0123225
0.0125489
0.0126343
0.012723
0.0128236
0.0129613
0.0131146
0.0132855
0.0134807
0.013511
0.0136061
0.0137038
0.0138126
0.0139575
0.0141156
0.0142911
0.0144895
0.0147088
0.0145154
0.014621
0.0147284
0.0148451
0.0149976
0.0151617
0.0153424
0.0155443
0.0157632
0.0159966
0.0155654
0.0156814
0.0157996
0.0159245
0.0160848
0.0162558
0.0164422
0.0166481
0.0168673
0.0170997
0.0166639
0.0167904
0.0169201
0.0170539
0.017222
0.0174008
0.0175937
0.0178037
0.0180242
0.0182542
0.0184938
0.0178139
0.0179512
0.0180927
0.0182364
0.0184126
0.0185995
0.0188
0.0190148
0.0192374
0.0194661
0.0197044
0.0190184
0.019167
0.0193208
0.0194753
0.01966
0.0198558
0.0200645
0.0202849
0.0205102
0.0207392
0.0209742
0.021213
0.0202813
0.0204411
0.0206076
0.0207737
0.0209676
0.0211732
0.0213908
0.0216178
0.021847
0.0220773
0.0223102
0.0225468
0.0216059
0.0217773
0.021957
0.0221353
0.0223392
0.0225554
0.0227828
0.0230172
0.0232512
0.0234837
0.0237157
0.0239521
0.0229961
0.0231789
0.0233726
0.0235641
0.0237789
0.0240065
0.0242444
0.0244872
0.024727
0.0249629
0.025196
0.0254289
0.0256634
0.0244553
0.0246505
0.0248584
0.0250636
0.0252905
0.0255307
0.0257799
0.0260322
0.0262789
0.0265193
0.0267548
0.0269863
0.0272224
0.0259879
0.0261964
0.026418
0.0266377
0.0268783
0.0271321
0.0273934
0.0276563
0.0279114
0.0281579
0.0283969
0.0286295
0.0288633
0.0290976
0.0275981
0.0278211
0.0280564
0.0282915
0.0285471
0.0288152
0.0290897
0.0293643
0.0296288
0.0298829
0.030127
0.0303627
0.0305965
0.0308331
0.0292907
0.029529
0.0297785
0.0300297
0.0303015
0.0305845
0.0308735
0.031161
0.0314366
0.0316996
0.0319504
0.0321905
0.0324261
0.0326678
0.0310696
0.0313249
0.0315888
0.0318566
0.0321457
0.032445
0.0327498
0.0330515
0.0333394
0.0336127
0.0338722
0.0341184
0.0343584
0.0346002
0.0348439
0.0329386
0.0332134
0.0334923
0.0337775
0.0340849
0.0344017
0.0347233
0.0350409
0.0353426
0.0356281
0.0358978
0.0361519
0.0363983
0.0366437
0.0368925
0.0349043
0.0351998
0.0354945
0.0357976
0.0361247
0.0364603
0.0367997
0.0371347
0.0374517
0.037751
0.0380327
0.0382964
0.0385513
0.0388017
0.0390605
0.0369732
0.0372892
0.0376013
0.0379229
0.038271
0.0386261
0.0389848
0.0393385
0.0396725
0.0399873
0.0402828
0.0405585
0.0408225
0.0410811
0.0413431
0.0416143
0.0391514
0.0394882
0.039819
0.0401596
0.0405293
0.0409053
0.0412846
0.0416581
0.0420109
0.0423428
0.0426541
0.042943
0.0432189
0.0434886
0.0437543
0.0440396
0.0418036
0.0421537
0.0425141
0.0429062
0.043304
0.0437051
0.0441
0.0444728
0.0448237
0.0451526
0.0454572
0.0457466
0.0460276
0.0463045
0.0465956
0.0469043
0.0442423
0.0446118
0.0449929
0.0454084
0.0458288
0.0462528
0.0466705
0.0470646
0.047436
0.0477843
0.0481062
0.0484115
0.0487061
0.0489959
0.0492949
0.049618
0.0468107
0.0472004
0.0476029
0.0480426
0.0484865
0.0489344
0.0493757
0.049793
0.0501867
0.0505559
0.0508975
0.0512203
0.0515298
0.0518342
0.0521453
0.052485
0.0495164
0.0499273
0.0503516
0.050816
0.0512844
0.051757
0.0522231
0.0526648
0.0530818
0.0534738
0.0538366
0.0541784
0.0545064
0.0548255
0.0551508
0.0554979
0.0558694
0.0523672
0.0528
0.0532468
0.0537367
0.0542298
0.0547278
0.0552199
0.0556865
0.0561285
0.0565445
0.05693
0.0572929
0.0576397
0.0579755
0.0583172
0.0586752
0.0590625
0.0553713
0.0558271
0.0562968
0.0568123
0.0573308
0.0578549
0.0583733
0.058866
0.0593333
0.0597748
0.060184
0.0605694
0.0609372
0.0612908
0.0616494
0.0620205
0.062428
0.0585375
0.0590174
0.0595106
0.0600517
0.0605958
0.061146
0.0616911
0.06221
0.0627037
0.0631717
0.0636058
0.0640144
0.064404
0.0647772
0.0651521
0.0655395
0.0659546
0.0664093
0.0618759
0.0623804
0.0628977
0.0634642
0.0640337
0.0646103
0.0651819
0.0657268
0.0662473
0.0667417
0.0672013
0.0676346
0.0680465
0.06844
0.0688315
0.0692354
0.0696603
0.0701329
0.0653965
0.065926
0.0664678
0.0670595
0.0676541
0.0682564
0.0688538
0.0694247
0.0699714
0.070492
0.0709778
0.0714358
0.0718707
0.0722844
0.0726938
0.0731139
0.0735514
0.0740435
0.0691101
0.0696655
0.0702314
0.0708478
0.0714667
0.0720938
0.0727164
0.0733121
0.0738842
0.0744311
0.0749423
0.0754247
0.0758825
0.0763163
0.0767431
0.0771774
0.077629
0.0781265
0.0786841
0.0730282
0.0736104
0.0742003
0.0748402
0.0754822
0.0761332
0.0767792
0.0773982
0.077994
0.0785661
0.0791022
0.0796085
0.0800885
0.0805415
0.0809853
0.081433
0.081897
0.0823998
0.0829701
0.0771639
0.077773
0.0783866
0.0790483
0.0797119
0.0803848
0.0810521
0.0816924
0.0823106
0.0829056
0.0834652
0.0839939
0.0844953
0.0849664
0.0854257
0.0858856
0.0863606
0.0868704
0.087455
0.0815307
0.0821658
0.082803
0.0834849
0.084168
0.0848604
0.0855462
0.0862047
0.0868421
0.0874586
0.0880402
0.08859
0.0891101
0.0895976
0.0900698
0.0905411
0.0910234
0.0915393
0.0921205
0.0927827
0.0861432
0.0868042
0.0874632
0.0881637
0.0888633
0.0895718
0.0902719
0.0909449
0.0915994
0.0922348
0.0928352
0.0934039
0.0939412
0.0944427
0.094926
0.0954055
0.0958905
0.0964098
0.0969869
0.0976561
0.0910169
0.0917038
0.0923833
0.0930983
0.0938108
0.0945313
0.0952412
0.0959246
0.096592
0.0972431
0.0978604
0.098445
0.0989966
0.0995094
0.1
0.100485
0.100971
0.10149
0.102066
0.102737
0.0961698
0.0968817
0.0975791
0.0983039
0.0990259
0.099753
0.100466
0.101155
0.101831
0.102494
0.103125
0.103722
0.104285
0.104806
0.105302
0.105788
0.106272
0.106786
0.107355
0.108003
0.108754
0.10162
0.102355
0.103068
0.103798
0.104524
0.105251
0.105961
0.106648
0.107328
0.107999
0.108639
0.109245
0.109815
0.110341
0.110838
0.11132
0.111799
0.112303
0.112858
0.113485
0.114223
0.107389
0.108146
0.108868
0.109598
0.110321
0.111041
0.111738
0.112417
0.113095
0.113768
0.114413
0.115024
0.115597
0.116122
0.116616
0.117092
0.11756
0.118051
0.118586
0.119196
0.119914
0.113497
0.114274
0.115002
0.115723
0.116438
0.11714
0.117814
0.118477
0.119146
0.119815
0.120459
0.121068
0.121638
0.122158
0.122644
0.123109
0.123565
0.124033
0.124548
0.125134
0.125831
0.119971
0.120764
0.12149
0.122197
0.122893
0.123564
0.124205
0.124842
0.125494
0.126153
0.126787
0.127388
0.127948
0.128457
0.12893
0.129381
0.129813
0.130258
0.130754
0.131316
0.131976
0.132761
0.126835
0.127642
0.128358
0.12904
0.129708
0.130334
0.130927
0.131529
0.132156
0.132794
0.133411
0.133994
0.134537
0.135029
0.135486
0.135914
0.136324
0.136752
0.137222
0.137759
0.138377
0.13912
0.13412
0.134936
0.135633
0.136279
0.136906
0.137469
0.137999
0.138556
0.139146
0.139753
0.140341
0.140899
0.141418
0.14189
0.142324
0.14273
0.143123
0.14353
0.143977
0.144484
0.145066
0.145765
0.141857
0.142679
0.143343
0.143941
0.14451
0.14499
0.14544
0.14594
0.146481
0.147043
0.147592
0.148116
0.148607
0.149055
0.149468
0.149859
0.150234
0.150623
0.151046
0.151522
0.152066
0.15273
0.150084
0.150905
0.15152
0.152057
0.152549
0.152919
0.153272
0.153702
0.154176
0.154678
0.155178
0.155663
0.156126
0.156553
0.156952
0.15733
0.157695
0.15807
0.158473
0.158926
0.15944
0.160063
0.160803
0.158842
0.159653
0.160203
0.16066
0.16105
0.161279
0.161518
0.161861
0.162247
0.162672
0.163117
0.163565
0.164006
0.164423
0.164817
0.165195
0.165557
0.165926
0.166321
0.166754
0.167248
0.167829
0.168533
0.168176
0.168968
0.169429
0.169789
0.170045
0.170098
0.170203
0.17044
0.170708
0.171042
0.171433
0.171857
0.172291
0.172715
0.173122
0.17351
0.173883
0.174257
0.174649
0.175075
0.17555
0.176104
0.176768
0.178136
0.178899
0.179244
0.179485
0.179567
0.179402
0.179358
0.17946
0.179573
0.179807
0.180162
0.180584
0.181036
0.181487
0.181921
0.182335
0.182727
0.183113
0.18351
0.183928
0.184383
0.184909
0.185527
0.188784
0.189501
0.189698
0.189794
0.189652
0.189226
0.189016
0.188943
0.188857
0.188997
0.189348
0.189802
0.190298
0.190793
0.191266
0.191707
0.19212
0.192518
0.192914
0.19332
0.193756
0.194238
0.194802
0.200184
0.200834
0.200847
0.200767
0.200334
0.199603
0.199213
0.198908
0.198575
0.198652
0.199052
0.199569
0.200119
0.200662
0.201167
0.201629
0.202051
0.20245
0.202839
0.203225
0.203624
0.204047
0.204533
0.205074
0.212411
0.21297
0.212753
0.212461
0.211655
0.210573
0.209983
0.209366
0.208743
0.208828
0.209336
0.209924
0.210513
0.211078
0.211592
0.212053
0.212472
0.212863
0.213236
0.213599
0.213955
0.214323
0.214722
0.215194
0.225542
0.22598
0.225486
0.224939
0.223659
0.222193
0.221374
0.220323
0.219372
0.219575
0.220244
0.220872
0.221447
0.221995
0.222494
0.222944
0.223357
0.223746
0.224116
0.224466
0.224801
0.225127
0.225471
0.225892
0.239686
0.239966
0.23914
0.238283
0.236406
0.234537
0.233448
0.231812
0.230486
0.230928
0.23177
0.232356
0.232856
0.233371
0.233866
0.234328
0.234768
0.235195
0.235601
0.235984
0.236334
0.236656
0.236988
0.237407
0.254958
0.255019
0.253794
0.252553
0.24993
0.247662
0.246253
0.243921
0.242173
0.242918
0.243856
0.244299
0.244707
0.245237
0.245798
0.246348
0.246891
0.247425
0.247937
0.248407
0.248829
0.249195
0.249556
0.250016
0.271469
0.271237
0.26953
0.267788
0.264235
0.261568
0.259757
0.256643
0.254472
0.255606
0.256519
0.256741
0.257139
0.25782
0.25856
0.259287
0.260011
0.260725
0.261395
0.262012
0.262537
0.262973
0.263395
0.263937
0.289342
0.288759
0.286495
0.284099
0.279419
0.276329
0.273957
0.269686
0.266922
0.268964
0.269963
0.269915
0.270433
0.271445
0.272486
0.273464
0.274426
0.275353
0.276221
0.276981
0.277617
0.27816
0.278657
0.279277
0.280041
0.308416
0.307443
0.30466
0.301524
0.295673
0.292291
0.289371
0.283335
0.278795
0.282645
0.284321
0.283876
0.284503
0.285949
0.287357
0.288614
0.289818
0.290988
0.292055
0.292985
0.293796
0.294445
0.295019
0.295713
0.296598
0.327697
0.326353
0.323221
0.319436
0.312708
0.309574
0.306761
0.29821
0.29114
0.297119
0.299625
0.298603
0.299116
0.30087
0.302609
0.304122
0.305581
0.306998
0.308307
0.309478
0.310458
0.311241
0.31192
0.312735
0.313804
0.345389
0.343813
0.340628
0.336578
0.329713
0.327706
0.325414
0.316024
0.306507
0.313308
0.315753
0.313991
0.313959
0.315572
0.317381
0.319001
0.320574
0.32212
0.323562
0.324821
0.325864
0.326665
0.327329
0.328202
0.329405
0.363233
0.361496
0.358449
0.354226
0.347603
0.347044
0.344869
0.336257
0.324969
0.331096
0.332803
0.330403
0.329647
0.330816
0.332472
0.334063
0.335642
0.337211
0.338661
0.339914
0.340914
0.341596
0.342133
0.34294
0.344133
0.38417
0.382249
0.379352
0.374674
0.36847
0.369055
0.366423
0.358962
0.345227
0.34994
0.350849
0.348188
0.346942
0.347735
0.349249
0.350815
0.352408
0.354018
0.355536
0.356828
0.357802
0.358417
0.35882
0.359546
0.360787
0.407959
0.405896
0.403205
0.39787
0.392485
0.393645
0.390422
0.384481
0.367375
0.370082
0.369948
0.367085
0.365432
0.365911
0.367349
0.368917
0.370489
0.372075
0.373574
0.374848
0.375802
0.376312
0.376603
0.377326
0.378699
0.435224
0.433169
0.43079
0.42466
0.420622
0.421115
0.417691
0.413033
0.391019
0.39118
0.3899
0.386814
0.384631
0.384693
0.386144
0.388045
0.390009
0.391867
0.3935
0.394834
0.395781
0.396263
0.396591
0.397467
0.399233
0.466332
0.46465
0.462878
0.456197
0.454266
0.452009
0.44977
0.444668
0.415464
0.412489
0.410021
0.407114
0.404882
0.404517
0.405483
0.407376
0.409987
0.412939
0.415764
0.418092
0.419761
0.420752
0.421547
0.423305
0.426541
0.501558
0.500814
0.500256
0.494134
0.495648
0.488304
0.490887
0.479875
0.439818
0.433425
0.428788
0.426294
0.426203
0.428292
0.430558
0.432346
0.434246
0.436974
0.440583
0.444609
0.448497
0.451813
0.454914
0.459098
0.465058
0.472271
0.541843
0.542875
0.544473
0.541021
0.547628
0.533543
0.548933
0.517348
0.462686
0.455609
0.447557
0.444113
0.446272
0.45376
0.463779
0.473218
0.480201
0.484749
0.488245
0.491928
0.496535
0.501995
0.508743
0.518166
0.530725
0.544953
0.587912
0.592765
0.599353
0.602146
0.614106
0.590792
0.627264
0.542248
0.479864
0.47847
0.469412
0.46834
0.470505
0.474648
0.484949
0.503633
0.527487
0.549681
0.563825
0.567912
0.564245
0.556881
0.551423
0.55447
0.567829
0.587121
0.635306
0.649396
0.670772
0.69127
0.709348
0.66761
0.701641
0.535186
0.486499
0.478348
0.451165
0.447608
0.461116
0.483211
0.500688
0.500549
0.487546
0.47441
0.466186
0.461643
0.458665
0.455182
0.448934
0.437363
0.420943
0.403384
0.670652
0.699434
0.753452
0.831488
0.888547
0.805935
0.753398
0.529486
0.512245
0.483309
0.43174
0.398493
0.371154
0.347822
0.329839
0.31711
0.30873
0.302819
0.297553
0.291948
0.285746
0.279111
0.272498
0.26692
0.263189
0.260674
0.68744
0.72564
0.810435
0.997525
1.34129
1.07066
0.780369
0.604184
0.504111
0.342525
0.278862
0.244676
0.225243
0.213982
0.207529
0.203667
0.200962
0.198568
0.196225
0.193965
0.191896
0.190017
0.188206
0.186161
0.184138
0.182521
)
;

boundaryField
{
    inlet
    {
        type            calculated;
        value           nonuniform List<scalar> 
26
(
0.744875
0.785344
0.877287
1.09432
1.6176
1.14238
0.782326
0.768109
0.364018
0.256469
0.205352
0.176557
0.15893
0.147509
0.139924
0.134717
0.131008
0.128238
0.126029
0.124136
0.122401
0.120681
0.11884
0.116815
0.114791
0.112984
)
;
    }
    outlet
    {
        type            calculated;
        value           nonuniform List<scalar> 0();
    }
    walls
    {
        type            calculated;
        value           nonuniform List<scalar> 0();
    }
    frontAndBack
    {
        type            empty;
    }
    procBoundary0to1
    {
        type            processor;
        value           nonuniform List<scalar> 
94
(
0.00936215
0.0103502
0.0103502
0.0113983
0.0113983
0.0125143
0.0125143
0.0136998
0.0136998
0.0149444
0.0149444
0.0162463
0.0173416
0.0173416
0.018745
0.0199462
0.0199462
0.0214612
0.0227871
0.0241856
0.0241856
0.0259018
0.0274537
0.0274537
0.0293385
0.0310698
0.0329022
0.0329022
0.0350945
0.0371435
0.0393138
0.0393138
0.0418955
0.0443258
0.0443258
0.0472284
0.0499502
0.052827
0.052827
0.0562648
0.0594693
0.0628484
0.0628484
0.0669044
0.070641
0.0745655
0.0745655
0.0793014
0.0835945
0.0880889
0.0880889
0.0935365
0.0984084
0.103476
0.103476
0.109638
0.115083
0.120746
0.126632
0.126632
0.133688
0.139994
0.146586
0.1535
0.1535
0.161644
0.169323
0.177511
0.186213
0.195411
0.195411
0.205693
0.215741
0.226411
0.237941
0.250611
0.26462
0.26462
0.280901
0.297576
0.314969
0.330715
0.345476
0.362276
0.380447
0.401505
0.430701
0.430701
0.480494
0.559323
0.607837
0.387434
0.258634
0.181329
)
;
    }
    procBoundary0to4
    {
        type            processor;
        value           nonuniform List<scalar> 
72
(
0.00984805
0.0106888
0.0115635
0.0124758
0.0134277
0.0144221
0.0154616
0.0165491
0.0176878
0.018881
0.0201319
0.0214437
0.0228203
0.024265
0.0257821
0.0273757
0.02905
0.0308109
0.0326625
0.0346095
0.0366593
0.0388142
0.0414474
0.0414474
0.0438642
0.0464098
0.0490913
0.0519169
0.0548948
0.0580345
0.0613453
0.0648379
0.0685227
0.0724122
0.0765189
0.080857
0.0854407
0.0902871
0.095413
0.100838
0.106581
0.112666
0.119117
0.125962
0.133229
0.140953
0.149169
0.157922
0.167254
0.177221
0.187881
0.199305
0.211563
0.224743
0.238949
0.254305
0.270925
0.28893
0.308136
0.327505
0.34527
0.363205
0.384246
0.408124
0.435421
0.466396
0.501246
0.540617
0.584618
0.627906
0.657944
0.671785
)
;
    }
    procBoundary0to5
    {
        type            processor;
        value           nonuniform List<scalar> 4(0.00907473 0.00912355 0.00917978 0.00925199);
    }
}


// ************************************************************************* //
