/*--------------------------------*- C++ -*----------------------------------*\
| =========                 |                                                 |
| \\      /  F ield         | OpenFOAM: The Open Source CFD Toolbox           |
|  \\    /   O peration     | Version:  2306                                  |
|   \\  /    A nd           | Website:  www.openfoam.com                      |
|    \\/     M anipulation  |                                                 |
\*---------------------------------------------------------------------------*/
FoamFile
{
    version     2.0;
    format      ascii;
    arch        "LSB;label=32;scalar=64";
    class       volVectorField;
    location    "125";
    object      U;
}
// * * * * * * * * * * * * * * * * * * * * * * * * * * * * * * * * * * * * * //

dimensions      [0 1 -1 0 0 0 0];

internalField   nonuniform List<vector> 
1340
(
(17.8419 12.4839 -6.02545e-18)
(17.3336 11.7837 7.11122e-17)
(16.8771 11.0563 2.11055e-16)
(16.4468 10.1927 -4.42347e-16)
(16.0507 9.21856 -8.84846e-16)
(18.5487 11.9309 2.07752e-17)
(18.0711 11.2899 8.28157e-17)
(17.641 10.625 -2.38588e-16)
(17.2309 9.83453 -7.35452e-18)
(16.8487 8.94173 4.98011e-16)
(16.5542 8.0009 -9.24744e-16)
(19.1778 11.4276 -1.3093e-17)
(18.7272 10.8386 -5.80116e-17)
(18.3206 10.2287 -3.00594e-17)
(17.9288 9.50217 1.98935e-16)
(17.56 8.68057 -4.90521e-17)
(17.2698 7.81449 5.67461e-16)
(17.0604 6.88895 9.02102e-16)
(19.7406 10.9667 1.30145e-17)
(19.3142 10.424 2.09997e-17)
(18.9284 9.86255 8.50505e-17)
(18.5537 9.19263 -3.06633e-16)
(18.1978 8.43382 -2.44446e-16)
(17.9131 7.6338 -5.16023e-16)
(17.701 6.77679 -6.85429e-16)
(17.5756 5.88281 6.1192e-16)
(20.2466 10.5426 1.25361e-17)
(19.8421 10.041 8.39391e-18)
(19.4753 9.5228 -4.71278e-17)
(19.1161 8.90339 2.60563e-16)
(18.7729 8.2005 5.50282e-16)
(18.4943 7.4592 3.56605e-17)
(18.2815 6.66346 1.272e-15)
(18.1477 5.83234 -4.84026e-16)
(18.1007 5.01648 -7.33344e-16)
(20.7034 10.1502 1.54926e-17)
(20.3187 9.68589 -3.03623e-17)
(19.9694 9.20624 -2.30132e-17)
(19.6249 8.63239 -3.52844e-17)
(19.2937 7.97955 4.52687e-16)
(19.0217 7.29094 -5.79361e-16)
(18.8096 6.5505 1.80469e-16)
(18.6699 5.77601 9.21647e-18)
(18.6107 5.01528 -1.75863e-15)
(18.6283 4.29784 5.39685e-16)
(21.1172 9.78589 -1.47209e-17)
(20.7507 9.35534 2.38877e-17)
(20.4175 8.91059 1.75393e-16)
(20.0869 8.37778 4.6499e-17)
(19.7672 7.77024 -2.74781e-16)
(19.5022 7.1291 2.47178e-16)
(19.2918 6.43875 -8.7884e-18)
(19.1482 5.71572 9.05732e-16)
(19.0795 5.00502 1.29772e-16)
(19.0824 4.33469 -1.54537e-16)
(21.4933 9.44653 -2.86721e-18)
(21.1436 9.04667 -6.74883e-18)
(20.8252 8.63358 -1.45871e-16)
(20.5078 8.13811 -3.06134e-16)
(20.1993 7.57173 -4.35465e-16)
(19.9413 6.97368 7.40284e-16)
(19.7336 6.32893 -7.65653e-16)
(19.5875 5.65276 1.94707e-16)
(19.5116 4.98776 4.83435e-16)
(19.5027 4.36053 2.36034e-16)
(19.5534 3.77318 3.24349e-16)
(21.836 9.12952 2.28722e-17)
(21.502 8.75768 4.87808e-17)
(21.1975 8.37342 1.53183e-16)
(20.8924 7.912 -4.04416e-17)
(20.5946 7.38325 1.64966e-16)
(20.3439 6.82452 -7.43705e-16)
(20.1395 6.22148 6.48381e-16)
(19.9922 5.58821 9.0893e-16)
(19.9108 4.96513 1.68279e-17)
(19.8924 4.37748 5.45093e-16)
(19.9296 3.82714 2.66618e-16)
(22.1489 8.83251 -2.5842e-17)
(21.8296 8.48643 4.16148e-17)
(21.5381 8.12855 -1.37796e-16)
(21.2449 7.69833 -1.42978e-16)
(20.9575 7.20411 -1.55345e-17)
(20.714 6.68143 6.72933e-16)
(20.5134 6.11668 -9.30274e-17)
(20.3659 5.5229 -6.04161e-16)
(20.2804 4.93836 -5.96823e-16)
(20.2542 4.38718 -1.84939e-15)
(20.2803 3.8711 4.27686e-16)
(20.3497 3.39679 1.1739e-15)
(22.4353 8.55368 1.45652e-17)
(22.1299 8.23132 1.01931e-17)
(21.8506 7.89765 1.48646e-16)
(21.5685 7.49611 3.09782e-16)
(21.2913 7.0337 -1.46264e-16)
(21.0551 6.5442 -5.14201e-16)
(20.8585 6.01474 7.57751e-17)
(20.7117 5.45737 -7.50171e-16)
(20.6232 4.90846 3.79738e-16)
(20.5908 4.39099 6.96372e-16)
(20.6075 3.90664 -5.96608e-16)
(20.6649 3.46169 -6.48871e-16)
(22.6979 8.29141 -1.57424e-17)
(22.4055 7.99093 7.26175e-17)
(22.1378 7.67959 -4.58848e-17)
(21.8664 7.30447 -4.12347e-17)
(21.599 6.87143 -1.37881e-16)
(21.37 6.41262 -4.06585e-16)
(21.1778 5.91577 -2.14683e-16)
(21.0321 5.39211 -6.06891e-17)
(20.9417 4.87619 2.88994e-16)
(20.9043 4.38994 4.14645e-16)
(20.9131 3.93501 7.78345e-16)
(20.9603 3.51732 -2.06922e-16)
(22.9389 8.04428 -1.33964e-17)
(22.6589 7.76406 -1.00111e-16)
(22.4022 7.47334 -7.81099e-17)
(22.1411 7.12263 -6.95823e-17)
(21.8833 6.71681 -5.19485e-17)
(21.6613 6.28643 2.39182e-16)
(21.4737 5.81981 -1.20304e-15)
(21.3297 5.32743 1.04505e-16)
(21.238 4.84215 1.76053e-15)
(21.1966 4.38491 3.9199e-16)
(21.1989 3.95734 -1.36989e-15)
(21.2372 3.56509 -9.40564e-16)
(21.3035 3.21358 2.06617e-16)
(23.1605 7.81104 1.54973e-17)
(22.8923 7.54961 -2.67408e-17)
(22.6461 7.27805 1.32417e-16)
(22.3948 6.94993 -4.44467e-16)
(22.1462 6.56937 -3.79967e-16)
(21.9313 6.16541 -1.91602e-16)
(21.7483 5.72689 4.55386e-16)
(21.6064 5.26363 7.63711e-16)
(21.514 4.80688 -7.73441e-16)
(21.4695 4.37665 7.064e-16)
(21.4662 3.9745 -4.96296e-18)
(21.497 3.60596 -2.53087e-16)
(21.554 3.27614 8.59336e-16)
(23.3645 7.59064 -1.27193e-17)
(23.1075 7.34666 -3.77207e-17)
(22.8713 7.0929 9.59841e-17)
(22.6295 6.78575 1.97749e-16)
(22.3898 6.42869 3.73934e-16)
(22.1817 6.04934 2.6692e-16)
(22.0036 5.63699 8.74465e-16)
(21.864 5.20088 -1.45178e-15)
(21.7715 4.77076 1.27736e-16)
(21.7245 4.3657 -2.94013e-16)
(21.7166 3.9873 6.64114e-16)
(21.7408 3.64085 1.99082e-16)
(21.7897 3.33132 4.82469e-16)
(21.8581 3.05366 1.73325e-16)
(23.5524 7.3821 1.36962e-17)
(23.3062 7.15441 5.97099e-17)
(23.0795 6.91719 -1.70851e-16)
(22.8468 6.62954 8.39263e-17)
(22.6158 6.29439 3.499e-16)
(22.4144 5.93801 -1.02392e-16)
(22.2411 5.55009 -4.51601e-16)
(22.1042 5.13936 1.08272e-15)
(22.012 4.73408 -9.63683e-16)
(21.963 4.35254 8.06582e-16)
(21.9512 3.99631 -3.07358e-16)
(21.9698 3.6705 -4.05446e-16)
(22.0116 3.3799 -7.04775e-16)
(22.0716 3.11966 9.39379e-17)
(23.7256 7.1846 -8.95598e-19)
(23.4897 6.9721 1.6298e-17)
(23.2722 6.75031 -1.04471e-16)
(23.0482 6.48084 2.23875e-16)
(22.8256 6.16615 -3.34902e-16)
(22.6308 5.8312 4.50067e-16)
(22.4625 5.46612 4.54303e-16)
(22.3283 5.07913 -4.65745e-16)
(22.2367 4.69712 -7.51857e-17)
(22.1863 4.33758 9.63468e-17)
(22.1712 4.0021 -3.65665e-16)
(22.1849 3.69556 5.00904e-16)
(22.2205 3.42263 3.02744e-16)
(22.273 3.17863 4.15088e-17)
(23.8855 6.99739 -2.13708e-18)
(23.6594 6.79907 1.48739e-17)
(23.4508 6.59166 -5.42384e-18)
(23.2352 6.33919 -1.26155e-16)
(23.0207 6.04362 -3.68909e-16)
(22.8324 5.72872 -2.86918e-16)
(22.6689 5.38503 -4.64488e-16)
(22.5377 5.02028 2.1708e-16)
(22.447 4.66008 7.32748e-17)
(22.3955 4.32115 -1.22793e-15)
(22.3776 4.00507 -2.1071e-16)
(22.387 3.71658 -4.59477e-16)
(22.4171 3.46014 8.50431e-16)
(22.4631 3.23134 -9.00246e-16)
(22.5215 3.02565 -2.94662e-16)
(24.0331 6.81978 1.41543e-17)
(23.8165 6.63473 5.7071e-17)
(23.6163 6.44075 1.31836e-16)
(23.4089 6.20416 1.62948e-16)
(23.2022 5.92651 2.92694e-16)
(23.0203 5.63038 2.80912e-16)
(22.8616 5.30673 -8.79248e-16)
(22.7334 4.96286 -4.23297e-16)
(22.6438 4.62312 7.28638e-16)
(22.5916 4.30351 1.3219e-15)
(22.5713 4.00562 6.6587e-16)
(22.577 3.73401 -1.57028e-16)
(22.6023 3.49299 -2.14483e-16)
(22.6424 3.27838 9.99765e-16)
(22.694 3.0858 -2.09124e-16)
(24.1695 6.65117 1.11043e-17)
(23.9619 6.47851 -1.76997e-17)
(23.7698 6.2971 -5.46835e-17)
(23.5703 6.07538 -8.18371e-17)
(23.3712 5.81453 -7.63018e-16)
(23.1955 5.536 -1.5162e-16)
(23.0416 5.23116 4.5224e-16)
(22.9166 4.90688 4.00632e-16)
(22.8282 4.58638 -1.1012e-15)
(22.7756 4.28491 2.13023e-16)
(22.7533 4.00407 -1.07042e-16)
(22.7557 3.74827 9.35448e-18)
(22.7767 3.52164 -3.51846e-16)
(22.8116 3.32026 -5.43647e-16)
(22.8572 3.13988 1.96645e-17)
(24.2956 6.491 -4.95097e-18)
(24.0965 6.32994 3.11156e-17)
(23.9123 6.16029 4.58992e-17)
(23.7204 5.95249 1.83352e-17)
(23.5287 5.70741 1.08303e-16)
(23.3591 5.4454 6.72871e-16)
(23.2099 5.15822 -4.22547e-16)
(23.0881 4.85238 3.19792e-16)
(23.0011 4.54995 1.13256e-15)
(22.9483 4.26552 -9.12177e-16)
(22.9244 4.00069 7.85148e-16)
(22.9238 3.7597 5.44074e-16)
(22.941 3.54655 8.51043e-16)
(22.9712 3.35749 -1.37568e-16)
(23.0114 3.18852 -3.44601e-16)
(23.0592 3.03711 -3.67736e-16)
(24.4121 6.33879 6.04561e-19)
(24.2214 6.18854 -9.88615e-17)
(24.0447 6.02992 1.46168e-16)
(23.8601 5.83518 -5.80706e-17)
(23.6756 5.60491 5.63974e-16)
(23.5119 5.35841 -3.96651e-16)
(23.3674 5.08784 7.63084e-17)
(23.2487 4.79935 1.14139e-15)
(23.1633 4.51392 -1.37913e-15)
(23.1105 4.2455 5.76094e-16)
(23.0851 3.99571 -9.35085e-16)
(23.0821 3.7686 -1.12279e-15)
(23.0959 3.56806 -5.23904e-16)
(23.1219 3.39051 2.21559e-16)
(23.1572 3.23216 5.35699e-16)
(23.1995 3.09052 2.13046e-16)
(24.337 6.05393 -3.55402e-17)
(24.1676 5.90565 -4.94524e-17)
(23.9902 5.72315 -3.13915e-17)
(23.8126 5.50681 -3.80085e-16)
(23.6547 5.27489 6.70508e-16)
(23.5148 5.01994 -3.51358e-16)
(23.3994 4.74777 -1.42946e-15)
(23.3156 4.47834 1.34798e-15)
(23.2629 4.22499 1.88712e-16)
(23.2364 3.98932 4.20055e-16)
(23.2311 3.77524 5.00418e-16)
(23.2418 3.58649 -7.99293e-17)
(23.2641 3.41969 8.9614e-17)
(23.2951 3.27122 -5.35625e-16)
(23.3324 3.13873 2.85135e-16)
(23.3753 3.01851 -5.32655e-16)
(24.4443 5.92574 -2.25972e-17)
(24.2819 5.78715 7.14757e-17)
(24.1114 5.61614 -2.73331e-16)
(23.9405 5.41289 8.08833e-17)
(23.7882 5.19468 -6.43055e-16)
(23.6529 4.95443 1.55275e-16)
(23.5407 4.69764 3.87955e-17)
(23.4586 4.44328 -4.73167e-17)
(23.4062 4.20411 -2.16657e-16)
(23.3787 3.9817 1.12359e-15)
(23.3715 3.77984 -1.19383e-16)
(23.3795 3.60213 9.67483e-16)
(23.3984 3.44536 -3.18687e-16)
(23.4254 3.3061 3.08516e-16)
(23.4583 3.18211 -2.30623e-16)
(23.4963 3.0698 3.99905e-16)
(24.5437 5.80363 -1.05871e-16)
(24.3881 5.67412 -1.37552e-17)
(24.2244 5.5139 4.3751e-16)
(24.06 5.32296 1.53958e-17)
(23.9132 5.11764 3.85302e-16)
(23.7823 4.89123 -5.13864e-16)
(23.6733 4.64894 8.54544e-17)
(23.593 4.40877 -2.54927e-16)
(23.541 4.18295 2.00612e-16)
(23.5127 3.97301 -6.09091e-16)
(23.5038 3.78263 -3.38999e-16)
(23.5093 3.61525 -1.05735e-15)
(23.5252 3.46785 3.23734e-16)
(23.5487 3.33716 1.22943e-16)
(23.5776 3.22106 -1.08148e-16)
(23.6111 3.11609 -1.13181e-16)
(24.636 5.68727 7.77851e-17)
(24.4868 5.56628 1.64932e-16)
(24.3296 5.41619 -1.8598e-16)
(24.1716 5.23683 -5.50095e-16)
(24.0301 5.04365 7.88717e-17)
(23.9037 4.83028 -1.39948e-16)
(23.7978 4.60164 4.67599e-16)
(23.7193 4.37486 6.70293e-16)
(23.6678 4.16159 -4.70096e-16)
(23.639 3.96339 -6.99638e-16)
(23.6285 3.78378 1.36147e-15)
(23.6318 3.62607 6.15302e-16)
(23.645 3.48741 -1.94794e-16)
(23.6653 3.36471 9.53384e-17)
(23.6906 3.25593 5.04396e-16)
(23.7201 3.15778 4.06442e-16)
(23.7534 3.06763 5.85711e-17)
(24.7215 5.57638 -1.71963e-17)
(24.5787 5.46337 -1.8288e-16)
(24.4278 5.32279 2.35066e-17)
(24.2759 5.15433 8.3248e-16)
(24.1396 4.97258 -6.88016e-16)
(24.0175 4.77149 8.0791e-17)
(23.9148 4.55572 -4.38969e-17)
(23.8381 4.34156 -4.44992e-16)
(23.7872 4.14012 1.30213e-15)
(23.7579 3.95295 2.57212e-17)
(23.7461 3.78345 -1.2921e-15)
(23.7475 3.63479 3.40638e-16)
(23.7582 3.5043 -5.88782e-16)
(23.7756 3.38902 -4.91532e-16)
(23.7977 3.28704 -1.97235e-16)
(23.8236 3.19522 8.44694e-17)
(23.8529 3.11099 5.53238e-17)
(24.8009 5.47068 -4.69108e-17)
(24.6641 5.36515 1.16539e-16)
(24.5194 5.2335 1.05593e-16)
(24.3734 5.07531 -8.66194e-16)
(24.2422 4.9043 6.97693e-16)
(24.1243 4.71479 -2.69458e-16)
(24.0247 4.51116 9.70193e-16)
(23.9499 4.30889 6.58947e-16)
(23.8997 4.11859 -1.8849e-15)
(23.8701 3.9418 -8.5513e-16)
(23.8571 3.78178 3.59345e-16)
(23.8567 3.64161 -1.27663e-16)
(23.8652 3.51873 3.96071e-16)
(23.88 3.41038 -3.18725e-16)
(23.8992 3.31471 -8.2481e-17)
(23.9219 3.22874 -6.45289e-17)
(23.9476 3.15 -6.73548e-17)
(24.8745 5.36991 2.37032e-18)
(24.7436 5.27139 1.27163e-16)
(24.6048 5.14814 -1.79765e-16)
(24.4646 4.99959 4.48931e-16)
(24.3384 4.83872 -2.64815e-16)
(24.2246 4.66011 4.73111e-16)
(24.1281 4.46793 -9.15557e-16)
(24.0552 4.27687 -1.05653e-16)
(24.0058 4.09707 1.55347e-15)
(23.9759 3.93004 -1.11263e-16)
(23.9619 3.77893 -2.31304e-16)
(23.96 3.64669 -5.82864e-17)
(23.9664 3.53093 5.41921e-16)
(23.9789 3.42902 2.87814e-16)
(23.9955 3.33921 -2.94536e-16)
(24.0152 3.25866 4.44454e-16)
(24.0377 3.185 4.91674e-17)
(24.063 3.11655 -3.59387e-16)
(24.9428 5.27383 -1.26626e-17)
(24.8175 5.18189 -2.01429e-16)
(24.6845 5.06652 4.71698e-17)
(24.5499 4.92706 3.76746e-17)
(24.4285 4.77572 -3.10803e-16)
(24.3188 4.6074 -3.50048e-16)
(24.2253 4.42601 -4.51361e-16)
(24.1543 4.24551 -1.10276e-15)
(24.1057 4.0756 5.89658e-16)
(24.0757 3.91775 1.16469e-15)
(24.0609 3.775 4.0413e-16)
(24.0575 3.6502 4.30615e-17)
(24.0622 3.54109 1.82986e-16)
(24.0726 3.44517 2.7793e-16)
(24.0868 3.3608 -3.5408e-16)
(24.1039 3.28527 -8.74103e-17)
(24.1236 3.21632 3.42353e-16)
(24.1457 3.15229 -1.17337e-17)
(25.0061 5.18223 4.90544e-17)
(24.8863 5.09645 -6.41175e-17)
(24.7589 4.98848 1.07149e-17)
(24.6298 4.85756 -1.92994e-16)
(24.5131 4.7152 6.73751e-16)
(24.4072 4.55657 1.05389e-15)
(24.3168 4.38536 -4.14781e-16)
(24.2478 4.21483 1.7004e-16)
(24.2 4.05423 -4.31873e-16)
(24.17 3.90502 -1.04742e-15)
(24.1545 3.77012 -4.73698e-16)
(24.1499 3.65228 -2.91462e-16)
(24.1529 3.54937 -5.2404e-16)
(24.1613 3.45904 1.62899e-16)
(24.1734 3.37972 2.49928e-16)
(24.1882 3.30883 4.22664e-17)
(24.2053 3.24424 -1.78523e-16)
(24.2246 3.18432 -3.78889e-16)
(25.0649 5.09488 -5.61239e-17)
(24.9503 5.01487 1.18959e-16)
(24.8283 4.91386 -1.84268e-16)
(24.7045 4.79098 -2.2191e-16)
(24.5924 4.65708 -4.29624e-16)
(24.4904 4.50758 2.727e-17)
(24.403 4.34597 1.07651e-15)
(24.3358 4.18483 -4.92334e-16)
(24.289 4.033 1.55336e-17)
(24.2591 3.89192 -2.52845e-16)
(24.2429 3.7644 5.57889e-16)
(24.2372 3.65308 1.01703e-16)
(24.2388 3.55596 -4.32399e-16)
(24.2455 3.47083 4.89759e-16)
(24.2557 3.3962 9.92713e-17)
(24.2684 3.32961 -2.81892e-16)
(24.2832 3.26903 5.41249e-16)
(24.3 3.21292 -4.68944e-16)
(24.3189 3.15973 7.61636e-17)
(25.1193 5.0116 -1.06583e-16)
(25.0099 4.937 7.80604e-17)
(24.8932 4.84251 2.27119e-16)
(24.7745 4.7272 1.56875e-16)
(24.6668 4.60125 4.30497e-16)
(24.5686 4.46036 -6.2245e-16)
(24.4842 4.3078 -1.6419e-15)
(24.4189 4.15552 1.35298e-16)
(24.3731 4.01196 -1.18604e-16)
(24.3433 3.87852 8.32927e-16)
(24.3266 3.75792 9.68972e-16)
(24.32 3.65271 -2.33381e-16)
(24.3203 3.56101 4.26698e-16)
(24.3254 3.48071 -3.86614e-16)
(24.3339 3.41044 -6.06677e-16)
(24.3447 3.34784 -1.77783e-16)
(24.3575 3.29097 -2.31032e-17)
(24.3721 3.23838 5.2515e-16)
(24.3885 3.18854 -7.02059e-18)
(25.1698 4.93219 6.4088e-17)
(25.0653 4.86266 -1.78844e-16)
(24.9537 4.7743 -2.2215e-17)
(24.84 4.66609 -2.57768e-16)
(24.7367 4.54764 1.87392e-16)
(24.6422 4.41486 6.40874e-16)
(24.5606 4.27083 1.29016e-15)
(24.4974 4.12691 -3.69421e-16)
(24.4525 3.99113 -5.91493e-17)
(24.423 3.86489 -8.05085e-16)
(24.4059 3.75079 -2.4509e-16)
(24.3984 3.6513 3.68792e-17)
(24.3975 3.56465 -7.19769e-16)
(24.4013 3.48887 -4.99591e-17)
(24.4082 3.42264 4.37116e-16)
(24.4174 3.36374 4.09203e-16)
(24.4284 3.31031 -2.88981e-16)
(24.4409 3.26096 -2.89263e-16)
(24.4552 3.21423 1.5623e-16)
(25.2167 4.85649 -1.41475e-17)
(25.1169 4.79169 8.34673e-17)
(25.0102 4.70908 -2.81426e-16)
(24.9014 4.60757 -8.09339e-17)
(24.8023 4.49616 2.14037e-16)
(24.7114 4.37103 -4.31881e-16)
(24.6328 4.23505 -5.30463e-16)
(24.5714 4.099 -1.17658e-16)
(24.5276 3.97056 8.056e-16)
(24.4983 3.85108 -2.71127e-16)
(24.481 3.74309 6.41854e-17)
(24.4727 3.64896 -5.61254e-16)
(24.4709 3.56704 3.32323e-16)
(24.4734 3.49546 2.66366e-16)
(24.479 3.43298 -2.52887e-16)
(24.4866 3.37751 2.51063e-16)
(24.496 3.32726 1.12207e-16)
(24.5068 3.28091 -3.40656e-16)
(24.5191 3.23706 3.08684e-16)
(24.5333 3.19448 5.19136e-17)
(25.2601 4.78432 5.31786e-18)
(25.1649 4.72396 -1.4677e-17)
(25.063 4.64673 7.05019e-17)
(24.9589 4.55152 2.08387e-16)
(24.8639 4.44675 -2.97727e-16)
(24.7766 4.32881 -4.66049e-16)
(24.7008 4.20042 9.73568e-16)
(24.6414 4.07179 1.03985e-15)
(24.5987 3.95026 2.76771e-16)
(24.5697 3.83714 -2.84636e-16)
(24.5521 3.73489 3.00065e-16)
(24.5433 3.64579 5.97075e-16)
(24.5405 3.56828 -6.61314e-16)
(24.542 3.50063 2.02783e-16)
(24.5463 3.44165 7.49321e-16)
(24.5526 3.38935 -5.67578e-16)
(24.5606 3.34205 -1.82737e-16)
(24.5698 3.29848 1.62613e-16)
(24.5804 3.25729 -1.20579e-16)
(24.5927 3.21729 2.92692e-16)
(25.3003 4.71553 -4.00906e-18)
(25.2095 4.65932 -4.27348e-17)
(25.1123 4.58714 2.39554e-16)
(25.0128 4.49785 5.34348e-17)
(24.9218 4.39932 3.24902e-16)
(24.838 4.28817 -3.31333e-16)
(24.765 4.16692 -3.4438e-16)
(24.7075 4.04529 -3.27481e-16)
(24.6659 3.93026 -1.22431e-15)
(24.6374 3.82314 7.37823e-16)
(24.6196 3.72628 -8.39521e-16)
(24.6102 3.64188 -5.31019e-16)
(24.6067 3.56852 3.81629e-16)
(24.6072 3.50451 -9.93563e-17)
(24.6104 3.44879 -2.16571e-17)
(24.6156 3.39944 -4.88054e-17)
(24.6222 3.35488 -1.41926e-16)
(24.6301 3.31388 -2.58558e-16)
(24.6393 3.27516 3.3863e-16)
(24.6498 3.23756 -3.72036e-16)
(25.3375 4.64997 -2.41579e-17)
(25.2511 4.59764 1.31823e-16)
(25.1584 4.53021 3.2385e-17)
(25.0633 4.44647 -4.27402e-16)
(24.9762 4.35382 2.28066e-16)
(24.8959 4.24905 8.30048e-16)
(24.8256 4.13454 -6.08018e-16)
(24.77 4.0195 4.86782e-16)
(24.7295 3.9106 1.7333e-15)
(24.7015 3.80911 2.75869e-17)
(24.6837 3.71731 4.53568e-16)
(24.6738 3.63734 -1.54311e-16)
(24.6696 3.56784 -2.55428e-16)
(24.6693 3.50725 -4.12123e-17)
(24.6716 3.45456 1.10053e-16)
(24.6757 3.40796 7.64861e-16)
(24.6812 3.36593 -2.20376e-17)
(24.6879 3.32732 -3.19444e-16)
(24.6957 3.29089 2.57047e-16)
(24.7048 3.25552 -1.17234e-16)
(24.7155 3.22027 6.14751e-17)
(25.3721 4.5875 1.78973e-17)
(25.2898 4.53881 -8.13826e-17)
(25.2015 4.47581 -7.78974e-17)
(25.1107 4.39729 6.12685e-16)
(25.0274 4.31017 -2.20743e-16)
(24.9504 4.21141 1.94674e-16)
(24.8828 4.10326 -1.20603e-16)
(24.8292 3.99443 -1.80218e-15)
(24.7898 3.89129 -1.51563e-16)
(24.7623 3.79511 6.48498e-16)
(24.7445 3.70807 3.98397e-16)
(24.7343 3.63224 -4.40767e-16)
(24.7295 3.56636 1.82345e-16)
(24.7284 3.50897 -3.04855e-17)
(24.7299 3.45911 -1.75385e-16)
(24.7331 3.41506 2.59649e-16)
(24.7376 3.37539 -1.77843e-16)
(24.7433 3.33899 4.8332e-16)
(24.7499 3.30468 -3.35446e-16)
(24.7577 3.27139 1.22095e-16)
(24.767 3.23818 -7.45913e-17)
(25.404 4.52799 -2.66694e-17)
(25.3258 4.4827 6.92953e-17)
(25.2417 4.42385 -4.73098e-17)
(25.1552 4.35024 -5.00416e-16)
(25.0756 4.26831 -4.75504e-16)
(25.0018 4.17522 -1.20189e-15)
(24.937 4.07304 1.40078e-15)
(24.8852 3.97006 5.9878e-16)
(24.847 3.87237 3.7501e-16)
(24.82 3.78117 -1.35948e-15)
(24.8022 3.69861 -5.83763e-16)
(24.7918 3.62667 -5.63437e-16)
(24.7865 3.56419 2.92175e-16)
(24.7848 3.50978 -1.26598e-16)
(24.7855 3.46256 -1.65157e-16)
(24.7879 3.42089 1.8029e-16)
(24.7916 3.38342 -4.02631e-16)
(24.7963 3.34908 1.07101e-16)
(24.802 3.31674 -1.45189e-16)
(24.8087 3.28538 -1.41782e-16)
(24.8167 3.25408 2.95176e-16)
(25.4336 4.4713 -2.62525e-17)
(25.3593 4.42919 9.56009e-17)
(25.2793 4.37424 7.79349e-17)
(25.1969 4.30523 2.27911e-16)
(25.1209 4.22819 7.42631e-16)
(25.0504 4.14042 6.73592e-16)
(24.9881 4.04388 -2.53532e-16)
(24.9383 3.94642 2.87532e-16)
(24.9012 3.85384 -4.05237e-16)
(24.8748 3.76735 1.04824e-16)
(24.8572 3.68899 8.62534e-16)
(24.8465 3.6207 5.61223e-16)
(24.8408 3.5614 -1.25118e-16)
(24.8386 3.50979 -3.28091e-16)
(24.8387 3.46503 -4.27313e-17)
(24.8404 3.42559 1.70648e-16)
(24.8433 3.39016 -2.46704e-16)
(24.8472 3.35774 2.68838e-17)
(24.852 3.32724 -1.96251e-16)
(24.8578 3.29767 -6.59061e-17)
(24.8646 3.26815 8.36259e-17)
(25.461 4.41732 -1.97422e-17)
(25.3905 4.37818 2.84593e-18)
(25.3145 4.32688 -8.67978e-17)
(25.236 4.26219 -3.46314e-17)
(25.1636 4.18974 -1.98526e-16)
(25.0962 4.107 4.03598e-16)
(25.0366 4.01576 -1.02828e-15)
(24.9886 3.92349 8.50852e-16)
(24.9527 3.83574 2.07088e-16)
(24.9268 3.75366 -5.75679e-16)
(24.9094 3.67926 6.78253e-16)
(24.8986 3.61441 -3.37948e-16)
(24.8926 3.5581 1.21487e-16)
(24.8899 3.50911 3.39601e-16)
(24.8895 3.46666 1.20477e-16)
(24.8906 3.42929 -7.97456e-17)
(24.8929 3.39576 3.13347e-16)
(24.8961 3.36513 -4.39397e-16)
(24.9001 3.33634 2.67191e-16)
(24.905 3.30845 -1.4525e-17)
(24.911 3.2806 2.03366e-16)
(24.9182 3.25193 -2.11968e-16)
(25.4864 4.36593 -1.44097e-17)
(25.4195 4.32957 5.69176e-17)
(25.3475 4.28167 3.61969e-17)
(25.2728 4.22105 1.34312e-16)
(25.2038 4.15292 -1.95921e-16)
(25.1395 4.0749 -6.42531e-16)
(25.0824 3.98865 8.38987e-16)
(25.0363 3.90128 -4.37873e-16)
(25.0015 3.81807 -4.59733e-16)
(24.9763 3.74016 1.2242e-15)
(24.9591 3.66948 -1.04425e-15)
(24.9483 3.60786 -2.00663e-16)
(24.942 3.55435 6.51388e-16)
(24.9389 3.50782 -7.27551e-16)
(24.9381 3.46753 1.57658e-16)
(24.9387 3.43211 -2.46504e-16)
(24.9405 3.40036 5.37779e-17)
(24.9431 3.37139 7.27666e-17)
(24.9465 3.3442 -4.16725e-17)
(24.9506 3.31788 -1.45284e-16)
(24.9557 3.29161 -8.32948e-18)
(24.962 3.26451 2.58679e-16)
(25.5099 4.31701 4.12397e-17)
(25.4465 4.28325 -3.475e-17)
(25.3783 4.23855 8.93213e-17)
(25.3073 4.18173 1.47374e-16)
(25.2417 4.11766 9.21411e-17)
(25.1805 4.04408 8.96845e-16)
(25.1259 3.96254 -1.19865e-16)
(25.0815 3.87978 -2.99797e-16)
(25.0479 3.80085 4.54872e-16)
(25.0234 3.72686 -1.65314e-15)
(25.0064 3.6597 8.75108e-16)
(24.9956 3.60112 5.38053e-16)
(24.9892 3.55025 -1.03281e-16)
(24.9858 3.50603 7.01714e-16)
(24.9846 3.46777 -6.42986e-16)
(24.9848 3.43416 3.82952e-16)
(24.9861 3.40408 4.71962e-16)
(24.9882 3.37667 -3.89505e-16)
(24.991 3.35098 -3.40133e-17)
(24.9946 3.32613 -8.80839e-17)
(24.999 3.30132 1.59847e-16)
(25.0044 3.27572 -7.15402e-17)
(25.5316 4.27046 4.32143e-17)
(25.4717 4.23913 -2.89068e-17)
(25.4071 4.19741 -6.30624e-17)
(25.3398 4.14418 -3.43794e-16)
(25.2775 4.08393 3.30773e-17)
(25.2192 4.01453 -7.16649e-16)
(25.167 3.93741 -7.37962e-16)
(25.1245 3.859 -3.6767e-16)
(25.092 3.7841 -7.1754e-16)
(25.0682 3.71381 -1.06684e-17)
(25.0516 3.64995 -3.79593e-16)
(25.0408 3.59423 -3.23968e-16)
(25.0343 3.54585 -9.66454e-17)
(25.0307 3.5038 -4.67513e-16)
(25.0292 3.46745 4.00048e-17)
(25.029 3.43555 1.32641e-16)
(25.0299 3.40703 -3.06463e-16)
(25.0316 3.38109 -9.86378e-17)
(25.0339 3.3568 3.29142e-16)
(25.0369 3.33333 -1.01093e-16)
(25.0407 3.30989 1.86061e-16)
(25.0454 3.28568 7.06479e-17)
(25.5517 4.22619 -2.14653e-17)
(25.4951 4.19713 -4.033e-18)
(25.4341 4.1582 -8.4288e-17)
(25.3703 4.10832 -2.16271e-16)
(25.3112 4.05166 -2.45675e-16)
(25.2559 3.98619 9.2581e-17)
(25.2061 3.91324 6.79863e-16)
(25.1652 3.83893 1.68094e-15)
(25.1339 3.76783 -6.96389e-16)
(25.1108 3.70102 -4.07281e-17)
(25.0946 3.64028 2.36165e-16)
(25.084 3.58726 -4.07028e-17)
(25.0774 3.54122 -6.61687e-17)
(25.0736 3.50122 -4.08291e-16)
(25.0719 3.46666 -2.63644e-16)
(25.0714 3.43636 4.70221e-16)
(25.072 3.40931 -1.35463e-16)
(25.0732 3.38474 -4.41549e-17)
(25.0752 3.36176 1.21274e-18)
(25.0777 3.33958 -2.55345e-18)
(25.0809 3.31743 -7.58569e-17)
(25.085 3.29454 -2.85566e-16)
(25.0903 3.26997 8.20368e-17)
(25.5702 4.18408 -1.83535e-17)
(25.5169 4.15714 6.86351e-17)
(25.4594 4.12082 2.06889e-16)
(25.3991 4.0741 1.17516e-16)
(25.3431 4.02081 -2.01419e-16)
(25.2906 3.95904 -4.21827e-16)
(25.2431 3.89001 3.69321e-16)
(25.2039 3.81956 -1.18277e-15)
(25.1738 3.75204 1.89499e-15)
(25.1515 3.68852 4.89798e-16)
(25.1357 3.63072 -5.81564e-16)
(25.1253 3.58025 1.32502e-16)
(25.1187 3.53642 9.03862e-16)
(25.1148 3.49834 -6.40933e-16)
(25.1128 3.46547 1.99081e-17)
(25.1121 3.43667 1.5372e-16)
(25.1123 3.411 2.07186e-16)
(25.1132 3.38771 -2.22797e-17)
(25.1148 3.36597 -3.15511e-16)
(25.1169 3.34499 4.84181e-16)
(25.1196 3.32405 -3.78552e-16)
(25.1232 3.3024 3.0276e-16)
(25.1278 3.27912 3.90826e-18)
(25.5874 4.14406 -5.04675e-17)
(25.5372 4.1191 1.0934e-16)
(25.483 4.08522 -7.6314e-18)
(25.4261 4.04146 -8.79167e-17)
(25.3733 3.99134 -4.99285e-17)
(25.3235 3.93305 8.56563e-16)
(25.2782 3.86771 -2.2882e-16)
(25.2407 3.8009 5.67027e-16)
(25.2118 3.73676 -1.94081e-15)
(25.1902 3.67633 -3.8178e-16)
(25.1749 3.6213 8.65631e-16)
(25.1647 3.57324 5.2221e-17)
(25.1581 3.53149 -1.72515e-16)
(25.1541 3.49522 -7.0745e-16)
(25.1519 3.46393 7.86529e-16)
(25.151 3.43655 -2.51309e-17)
(25.1509 3.41217 -2.80488e-16)
(25.1516 3.39009 -2.81933e-17)
(25.1528 3.3695 6.7734e-17)
(25.1545 3.34965 -9.0466e-17)
(25.1568 3.32985 3.08805e-16)
(25.1599 3.30937 -3.85918e-16)
(25.1639 3.28731 2.10701e-16)
(25.6033 4.10603 -6.66066e-18)
(25.5562 4.08292 9.30831e-18)
(25.5053 4.05131 -1.18291e-16)
(25.4516 4.01035 -2.52911e-16)
(25.4017 3.96321 2.40293e-16)
(25.3547 3.90818 -1.08156e-15)
(25.3115 3.84632 5.27457e-16)
(25.2757 3.78295 -4.4831e-17)
(25.248 3.72198 4.70932e-16)
(25.2273 3.66447 -1.46384e-16)
(25.2124 3.61206 5.70641e-16)
(25.2024 3.56626 -2.66574e-16)
(25.1958 3.52646 3.94478e-16)
(25.1917 3.4919 7.59331e-17)
(25.1893 3.4621 3.3183e-16)
(25.1881 3.43605 -2.21666e-16)
(25.1878 3.41288 -2.42116e-16)
(25.1882 3.39192 1.87824e-16)
(25.189 3.37242 -1.67892e-16)
(25.1904 3.35363 1.06991e-16)
(25.1924 3.33491 -1.4402e-16)
(25.195 3.31553 3.1287e-16)
(25.1984 3.29463 -1.64332e-16)
(25.6179 4.0699 -6.35879e-18)
(25.5738 4.04853 1.42694e-17)
(25.5261 4.01905 -1.36798e-16)
(25.4756 3.98071 5.58065e-16)
(25.4287 3.93636 -1.97654e-16)
(25.3842 3.8844 1.14219e-15)
(25.3432 3.82582 7.18705e-16)
(25.309 3.76571 1.21514e-16)
(25.2826 3.70772 9.61111e-16)
(25.2626 3.65295 3.07894e-17)
(25.2482 3.603 -7.97026e-16)
(25.2384 3.55934 -6.21985e-16)
(25.2317 3.52137 -3.90137e-16)
(25.2275 3.48841 4.57574e-16)
(25.2249 3.46001 -1.78264e-17)
(25.2235 3.43521 4.66283e-16)
(25.2229 3.41318 -4.46252e-16)
(25.223 3.39328 5.85497e-18)
(25.2236 3.37479 -8.45368e-17)
(25.2247 3.35701 -1.33724e-16)
(25.2263 3.3393 5.75411e-18)
(25.2285 3.32097 -8.83446e-17)
(25.2315 3.30117 1.07744e-16)
(25.6314 4.0356 5.4686e-17)
(25.5902 4.01585 -8.20927e-17)
(25.5456 3.98836 3.09009e-16)
(25.4982 3.9525 -5.66226e-16)
(25.4543 3.91077 1.99508e-16)
(25.4123 3.8617 -1.34318e-15)
(25.3732 3.8062 -6.50229e-16)
(25.3407 3.74916 4.89027e-16)
(25.3155 3.69397 -1.05767e-15)
(25.2964 3.64177 4.33598e-16)
(25.2824 3.59415 7.71683e-17)
(25.2726 3.55248 4.78656e-17)
(25.2659 3.51624 -2.24746e-16)
(25.2615 3.48479 -2.52619e-16)
(25.2587 3.4577 7.93017e-17)
(25.257 3.43407 3.31471e-16)
(25.2563 3.41311 -2.84309e-16)
(25.2561 3.39422 3.78613e-16)
(25.2565 3.37669 -1.53962e-16)
(25.2573 3.35986 9.34308e-17)
(25.2586 3.34311 -2.28935e-16)
(25.2605 3.32577 2.81968e-16)
(25.2631 3.30701 -4.7616e-17)
(25.2666 3.28637 -1.41988e-16)
(25.6439 4.00305 -3.19073e-17)
(25.6056 3.98482 4.7169e-17)
(25.564 3.95918 -4.64365e-17)
(25.5196 3.92566 -1.91255e-16)
(25.4785 3.88639 -4.10744e-17)
(25.4389 3.84003 8.44972e-16)
(25.4017 3.78745 3.4874e-16)
(25.371 3.73333 -1.25504e-15)
(25.3471 3.68074 -5.72151e-16)
(25.3286 3.63095 3.55638e-16)
(25.3148 3.5855 -5.05173e-16)
(25.3051 3.54571 7.95853e-16)
(25.2983 3.51109 1.15202e-16)
(25.2937 3.48105 9.79187e-17)
(25.2907 3.4552 -1.2827e-17)
(25.2889 3.43268 6.9798e-17)
(25.2879 3.41274 -6.77028e-16)
(25.2876 3.3948 1.9474e-16)
(25.2878 3.37818 7.58437e-17)
(25.2884 3.36225 8.40633e-17)
(25.2895 3.3464 -1.65715e-16)
(25.291 3.33 1.75697e-16)
(25.2933 3.31224 6.24149e-17)
(25.2964 3.29266 -5.42625e-17)
(25.6554 3.97218 -1.32214e-17)
(25.6198 3.95535 -3.24295e-17)
(25.5812 3.93146 1.17003e-16)
(25.5398 3.90015 1.75765e-16)
(25.5014 3.86318 3.03105e-16)
(25.4642 3.8194 7.59809e-17)
(25.4289 3.76957 5.03348e-17)
(25.3999 3.71821 2.7907e-16)
(25.3772 3.66801 1.59883e-15)
(25.3592 3.62045 7.90991e-17)
(25.3456 3.57705 6.44469e-16)
(25.3358 3.53903 -6.74941e-16)
(25.3289 3.50593 -1.27557e-16)
(25.3241 3.47722 1.09757e-16)
(25.3211 3.45255 -3.46211e-17)
(25.3191 3.43109 1.3608e-16)
(25.318 3.41212 -6.25389e-17)
(25.3176 3.39507 4.35213e-16)
(25.3176 3.37932 -4.63387e-16)
(25.318 3.36424 2.92051e-16)
(25.3189 3.34925 -4.70815e-16)
(25.3202 3.33374 3.11254e-16)
(25.3222 3.31693 -2.39508e-16)
(25.3249 3.29836 -8.94463e-17)
(25.6661 3.94289 2.6727e-17)
(25.6332 3.92739 -1.06707e-17)
(25.5974 3.90514 -2.88287e-16)
(25.5589 3.87592 1.43033e-16)
(25.5232 3.84109 -5.82852e-16)
(25.4881 3.79976 1.65235e-16)
(25.4547 3.75253 -1.68911e-17)
(25.4275 3.7038 1.21222e-15)
(25.4059 3.65577 -1.9239e-15)
(25.3882 3.61029 3.51836e-16)
(25.3746 3.56882 -6.71771e-16)
(25.3648 3.53245 5.12099e-16)
(25.3578 3.5008 -2.48245e-16)
(25.3531 3.47336 -2.45165e-16)
(25.3499 3.44981 1.43827e-16)
(25.3479 3.42935 -2.25036e-17)
(25.3467 3.41129 -1.04291e-18)
(25.3461 3.39511 1.39527e-17)
(25.346 3.38017 2.94889e-16)
(25.3463 3.36588 -1.46121e-19)
(25.347 3.35171 -2.72455e-17)
(25.3481 3.33704 -1.7051e-16)
(25.3498 3.32112 2.23515e-17)
(25.3522 3.30352 3.23261e-17)
(25.6759 3.91514 -6.16088e-17)
(25.6456 3.90088 -4.03154e-17)
(25.6126 3.88016 3.10194e-17)
(25.5769 3.85293 -4.97919e-16)
(25.5439 3.8201 3.55677e-16)
(25.5109 3.7811 -5.53736e-16)
(25.4793 3.73632 -7.21798e-16)
(25.454 3.6901 -7.67065e-16)
(25.4332 3.64401 1.07814e-15)
(25.4156 3.60047 -8.99255e-16)
(25.402 3.56083 5.20274e-16)
(25.3922 3.52604 3.34291e-16)
(25.3853 3.49574 -3.77796e-17)
(25.3806 3.46951 1.5479e-16)
(25.3774 3.44702 -4.04502e-19)
(25.3753 3.4275 2.01671e-16)
(25.374 3.41031 -1.12035e-17)
(25.3733 3.39492 -3.05579e-16)
(25.3731 3.38075 -4.48419e-17)
(25.3732 3.36722 8.08502e-17)
(25.3737 3.3538 -6.06781e-17)
(25.3746 3.33992 -5.10346e-18)
(25.376 3.32485 5.32871e-17)
(25.378 3.30816 4.32047e-17)
(25.6849 3.88884 3.0627e-17)
(25.6572 3.87574 -3.08109e-17)
(25.6269 3.85646 6.92164e-17)
(25.5939 3.83113 5.75478e-16)
(25.5635 3.80017 8.32799e-16)
(25.5324 3.7634 1.90185e-16)
(25.5027 3.72091 4.00446e-16)
(25.4792 3.67712 -1.97347e-16)
(25.459 3.63268 9.10718e-16)
(25.4414 3.59097 -8.27082e-16)
(25.4279 3.5531 1.74901e-16)
(25.4182 3.51981 -9.64951e-17)
(25.4115 3.4908 -1.77721e-16)
(25.4067 3.4657 -1.50123e-16)
(25.4034 3.4442 -1.90944e-16)
(25.4012 3.42557 1.35746e-16)
(25.3998 3.40918 -1.02273e-16)
(25.399 3.39454 -3.03003e-17)
(25.3986 3.38108 -8.31934e-17)
(25.3985 3.36825 2.42391e-16)
(25.3988 3.35555 2.03894e-16)
(25.3995 3.3424 -1.95452e-17)
(25.4006 3.32813 -5.40811e-17)
(25.4023 3.3123 -1.1201e-16)
(25.6932 3.86392 -2.50839e-18)
(25.668 3.85191 -8.56397e-17)
(25.6404 3.834 1.43027e-16)
(25.6101 3.81049 -4.12559e-16)
(25.5822 3.78127 -9.97705e-16)