/*--------------------------------*- C++ -*----------------------------------*\
| =========                 |                                                 |
| \\      /  F ield         | OpenFOAM: The Open Source CFD Toolbox           |
|  \\    /   O peration     | Version:  2306                                  |
|   \\  /    A nd           | Website:  www.openfoam.com                      |
|    \\/     M anipulation  |                                                 |
\*---------------------------------------------------------------------------*/
FoamFile
{
    version     2.0;
    format      ascii;
    arch        "LSB;label=32;scalar=64";
    class       volSymmTensorField;
    location    "475";
    object      turbulenceProperties:R;
}
// * * * * * * * * * * * * * * * * * * * * * * * * * * * * * * * * * * * * * //

dimensions      [0 2 -2 0 0 0 0];

internalField   nonuniform List<symmTensor> 
1340
(
(0.0144987 0.00306873 -6.84741e-22 0.0120404 -1.6136e-20 0.0134172)
(0.0172865 0.00364566 -9.29007e-23 0.0136447 1.04863e-19 0.0155754)
(0.0210786 0.00423414 -2.14382e-20 0.0153257 -3.37287e-19 0.0184315)
(0.0262503 0.00499592 9.57184e-20 0.0176186 7.06454e-19 0.0222311)
(0.0326215 0.00571448 -1.87824e-19 0.0200522 -6.93567e-19 0.0266719)
(0.0409537 0.00622484 -1.47709e-19 0.0227818 -3.86291e-19 0.0323711)
(0.0517329 0.00649514 2.87122e-19 0.026117 1.10314e-18 0.0395674)
(0.0651913 0.006181 -7.49143e-19 0.0300846 -2.03779e-18 0.0484254)
(0.0821901 0.00491639 -1.89717e-19 0.0351309 5.55267e-19 0.0596893)
(0.10357 0.00243289 5.72954e-19 0.0419321 1.17571e-18 0.0740118)
(0.130614 -0.00179553 1.4945e-18 0.0513612 5.4652e-19 0.0925366)
(0.165468 -0.00835548 -3.39844e-18 0.0647916 -3.15629e-18 0.117021)
(0.211089 -0.0181758 6.49695e-19 0.0840948 8.38585e-19 0.1499)
(0.272353 -0.032849 2.6147e-18 0.112291 1.23916e-18 0.195176)
(0.357552 -0.0550344 -3.99509e-18 0.154535 -6.24078e-18 0.259668)
(0.479503 -0.0890628 -4.30058e-18 0.21919 -2.54665e-18 0.354038)
(0.663284 -0.143542 1.90116e-17 0.322812 1.76039e-17 0.49944)
(0.940193 -0.230774 1.7732e-17 0.48898 3.35504e-17 0.723345)
(1.41739 -0.387139 -3.52287e-17 0.789746 -5.46079e-17 1.11643)
(2.14081 -0.639985 -1.37413e-18 1.27813 1.45139e-17 1.72768)
(3.75091 -1.21247 -2.71842e-17 2.39982 5.19717e-17 3.10442)
(6.10081 -2.11286 -1.2433e-17 4.18504 4.18527e-17 5.18207)
(13.8356 -5.12732 -1.43102e-16 10.2533 -6.41733e-16 12.1227)
(25.99 -10.3104 3.31415e-16 21.0502 5.58828e-16 23.6453)
(27.6403 -11.6476 4.23679e-17 24.5422 -7.12198e-16 26.1531)
(25.5087 -11.2298 3.65794e-16 24.4664 5.81102e-16 24.9706)
(24.4031 -11.0456 -8.1823e-17 24.724 -7.84334e-17 24.5189)
(24.3318 -11.228 2.74499e-16 25.6863 2.30546e-16 24.9719)
(24.4161 -11.4414 7.28976e-16 26.7051 1.20839e-15 25.5359)
(24.122 -11.4543 4.00528e-16 27.2738 1.99741e-15 25.6854)
(23.3962 -11.2403 -1.41141e-15 27.3103 -1.93127e-15 25.3558)
(22.3241 -10.8341 -4.74901e-16 26.8608 -7.2608e-16 24.6082)
(20.8811 -10.2205 -3.222e-17 25.8533 -4.36776e-15 23.3896)
(19.0959 -9.41363 -2.58303e-15 24.2906 -7.29921e-15 21.7163)
(16.9507 -8.40526 1.00622e-15 22.1148 9.2314e-16 19.5541)
(0.01203 0.00257344 1.65926e-21 0.0106522 3.85336e-20 0.0113951)
(0.0101308 0.00212441 -2.37321e-21 0.00934045 1.70363e-23 0.00982534)
(0.00808311 0.00164665 -1.23391e-20 0.00782727 -8.64901e-20 0.00799972)
(0.00638587 0.00123967 2.95496e-21 0.00644521 5.55271e-20 0.00644591)
(0.0048637 0.000879181 2.15762e-21 0.00505101 -1.00496e-20 0.00497246)
(0.00355261 0.000586708 -1.7019e-20 0.00372634 5.57117e-20 0.00363918)
(0.00253012 0.000377465 -9.14018e-20 0.00261694 7.35649e-20 0.00255719)
(0.00226707 -0.000155249 4.14169e-23 0.00189643 1.34947e-21 0.00205172)
(0.00222406 -0.000181973 9.65227e-21 0.00191883 2.33896e-20 0.00203798)
(0.00215863 -0.000204454 -8.83521e-21 0.00194119 -1.55767e-20 0.00201037)
(0.00205931 -0.00021172 -5.88764e-21 0.0019265 -1.67695e-20 0.00194814)
(0.00192972 -0.000206755 3.91872e-20 0.00187661 7.60562e-20 0.00185481)
(0.00178982 -0.00019331 1.50776e-20 0.00180978 2.33914e-20 0.00174787)
(0.00164015 -0.000173016 7.08532e-20 0.00171467 6.50922e-20 0.00162238)
(0.00148395 -0.000149084 -3.63228e-20 0.00159447 -6.98999e-21 0.00148233)
(0.00133653 -0.000125537 5.11405e-20 0.001468 3.54371e-20 0.00134398)
(0.00119891 -0.000104531 -1.82195e-21 0.00133681 7.78023e-23 0.00120848)
(0.00107268 -8.69447e-05 -6.96685e-20 0.00120611 -5.95212e-20 0.00107993)
(0.000987017 -7.80232e-05 9.33781e-20 0.00111434 1.16246e-19 0.00098911)
(0.000976207 -8.37157e-05 6.53831e-20 0.0011064 3.28555e-20 0.000969181)
(0.00107581 -0.000114016 -1.70903e-20 0.00122303 9.26948e-21 0.00104863)
(0.00141246 -0.000214135 -1.4097e-19 0.00159267 2.32054e-20 0.00132274)
(0.00229542 -0.000517904 3.75386e-19 0.00244939 4.29568e-19 0.00199402)
(0.00462247 -0.00138352 7.64218e-19 0.00434265 -8.35666e-19 0.00368188)
(0.0101336 -0.00334584 -4.16576e-18 0.00824685 -5.39939e-18 0.007772)
(0.0249992 -0.00841291 4.90648e-19 0.0184613 7.23853e-18 0.0193043)
(0.0614734 -0.0208005 7.2487e-18 0.0433966 -2.03583e-18 0.0486242)
(0.18018 -0.0619692 1.53477e-17 0.126115 6.08151e-18 0.146592)
(0.491195 -0.173842 -2.34511e-17 0.349963 -2.24568e-17 0.411298)
(1.47323 -0.542981 7.39097e-17 1.09239 1.86553e-16 1.27117)
(4.60642 -1.77734 1.58886e-19 3.60383 -1.54133e-16 4.101)
(8.79384 -3.54005 -2.72825e-16 7.27487 1.69333e-16 8.0698)
(12.912 -5.39287 -9.71852e-17 11.2782 -6.59953e-16 12.1764)
(16.5568 -7.14956 1.17845e-18 15.2777 7.57039e-17 16.0249)
(18.8683 -8.39457 -2.9455e-16 18.3843 -4.44851e-16 18.7395)
(18.9059 -8.63619 -4.93591e-16 19.4314 -2.83273e-15 19.2677)
(16.9089 -7.89721 -1.66919e-16 18.2821 -3.5462e-15 17.6574)
(14.0809 -6.69153 5.22848e-16 15.9349 4.89597e-15 15.0206)
(11.3784 -5.47757 -9.55115e-16 13.3929 -3.7561e-17 12.3585)
(9.25529 -4.49795 -7.1891e-15 11.2536 1.34196e-15 10.2098)
(7.67107 -3.75328 8.77194e-15 9.56217 1.59509e-14 8.57218)
(6.47986 -3.18627 -1.48861e-15 8.23141 -8.63748e-16 7.31963)
(0.00227291 -0.000117567 3.19295e-21 0.00184999 7.89802e-21 0.00203577)
(0.00226157 -7.7637e-05 -4.39124e-21 0.00180466 -3.31924e-20 0.00200878)
(0.00221 -2.67193e-05 -6.52089e-21 0.0017391 -3.88994e-20 0.00195512)
(0.00211612 3.07933e-05 -2.5306e-21 0.00166073 5.87262e-20 0.00187426)
(0.00197222 8.48926e-05 6.95073e-22 0.00156958 1.5678e-20 0.00176326)
(0.00177352 0.000127801 1.38547e-20 0.00146038 -5.32128e-20 0.00161494)
(0.00151784 -0.000120502 6.64823e-22 0.00125059 9.19763e-22 0.00139946)
(0.00147803 -0.000143656 -1.0533e-20 0.00126633 -2.55916e-20 0.00139063)
(0.00140943 -0.000159865 -2.32741e-21 0.00127072 -1.17246e-21 0.0013616)
(0.0013199 -0.000165123 8.82559e-21 0.00126219 1.90636e-20 0.00131711)
(0.00122892 -0.000160345 -2.79862e-20 0.00125142 -5.69223e-20 0.00126979)
(0.0011352 -0.000144947 -3.19398e-20 0.00123354 -5.23477e-20 0.00121757)
(0.00104698 -0.000120401 -6.4951e-20 0.00120871 -9.60032e-20 0.00116503)
(0.000973121 -9.03613e-05 -5.24978e-21 0.00118112 -7.80406e-22 0.00111757)
(0.00091512 -5.71727e-05 -2.87274e-20 0.00115183 -6.84139e-20 0.0010768)
(0.000875397 -2.41351e-05 1.20772e-19 0.00112359 1.37431e-19 0.00104541)
(0.000850746 6.58744e-06 -1.9884e-20 0.00109582 2.70453e-20 0.001021)
(0.000842032 3.35379e-05 1.36416e-20 0.00107453 8.39392e-21 0.00100686)
(0.000846809 5.60659e-05 -9.3999e-20 0.00106209 -1.19637e-19 0.00100264)
(0.000864162 7.53514e-05 6.12949e-20 0.00106206 -5.6903e-21 0.00101033)
(0.000877932 8.92145e-05 1.77983e-20 0.00105558 5.52319e-20 0.00101109)
(0.000863839 9.31462e-05 2.09353e-20 0.00101387 1.00477e-20 0.00097703)
(0.000771719 7.7592e-05 -8.22358e-20 0.00087661 -4.7896e-20 0.00085069)
(0.000675531 6.16481e-05 5.74968e-20 0.000747975 4.28599e-20 0.00072931)
(8.13419e-05 8.87219e-07 2.66213e-22 8.2278e-05 3.47803e-24 8.20177e-05)
(0.00356404 0.00156623 -2.00941e-18 0.00510507 -3.02315e-19 0.00462978)
(0.00155943 0.000450935 6.84244e-19 0.00198644 -2.68708e-19 0.0018385)
(0.00246683 0.00115689 6.44432e-20 0.00356103 1.10459e-18 0.00312851)
(0.000281203 0.000114767 4.44334e-19 0.000488396 -6.56237e-19 0.000374568)
(0.0178383 -0.00695975 -3.39407e-18 0.0144612 -3.62634e-18 0.0156053)
(0.146364 -0.0585611 4.84662e-18 0.121862 1.71121e-17 0.131131)
(0.476871 -0.197334 -2.91432e-17 0.415437 7.96425e-18 0.439777)
(1.1622 -0.496139 1.48981e-17 1.0608 1.15692e-18 1.10237)
(2.54216 -1.1136 -1.43005e-17 2.42185 7.63534e-17 2.47119)
(4.90897 -2.19758 -4.3981e-16 4.8654 2.45927e-16 4.87703)
(7.94939 -3.62913 2.1683e-16 8.1923 3.53047e-16 8.06605)
(10.563 -4.91247 1.56322e-15 11.3318 -5.86498e-16 10.9552)
(11.6753 -5.5228 -2.76434e-15 13.044 2.16184e-15 12.3812)
(11.1858 -5.36644 5.13863e-16 12.9807 9.32611e-15 12.1069)
(9.8746 -4.78686 -4.87134e-17 11.8322 -6.36732e-15 10.866)
(8.4558 -4.12821 3.05758e-15 10.384 -2.3007e-15 9.42212)
(0.0015522 -9.11043e-05 -1.3629e-21 0.00123878 -2.59439e-21 0.00140939)
(0.00156568 -5.92717e-05 -5.15643e-21 0.0012237 -7.296e-21 0.00140584)
(0.0015711 -2.043e-05 2.13536e-20 0.00121257 4.60391e-20 0.00140042)
(0.00154388 2.08074e-05 4.37931e-21 0.00119225 -5.18728e-21 0.00137348)
(0.00148458 6.12864e-05 3.01556e-21 0.00116497 -3.39741e-20 0.00132791)
(0.00138226 9.45469e-05 -9.39709e-21 0.0011207 2.42905e-20 0.00125261)
(0.00128851 -9.76976e-05 3.60022e-21 0.00106031 6.15887e-21 0.00116908)
(0.00127314 -0.000115777 -5.01346e-21 0.00108091 -9.03766e-21 0.00117113)
(0.00124326 -0.000131401 -2.27991e-21 0.00110008 -1.25638e-21 0.00116414)
(0.00120671 -0.000141543 2.70848e-20 0.00111814 3.96382e-20 0.00115342)
(0.00115892 -0.000144743 1.72144e-20 0.00112689 3.12031e-20 0.0011322)
(0.00110138 -0.000141115 2.18408e-20 0.00112596 4.19419e-20 0.00110097)
(0.00103935 -0.000131397 3.33735e-20 0.00111479 3.86112e-20 0.00106236)
(0.000972773 -0.000116712 -1.9162e-20 0.00108965 -2.97578e-20 0.00101448)
(0.000904793 -9.88104e-05 -6.86079e-20 0.00105273 -6.79745e-20 0.000959837)
(0.000836921 -7.97129e-05 8.92101e-20 0.00100427 5.02401e-20 0.000899698)
(0.000769938 -6.08835e-05 7.51611e-20 0.000946101 6.36552e-20 0.000835245)
(0.000703904 -4.35106e-05 9.75091e-20 0.000879742 4.67115e-20 0.000767497)
(0.000638514 -2.83865e-05 -1.60977e-19 0.000806701 -5.15544e-20 0.000697222)
(0.000573917 -1.5832e-05 -1.37493e-19 0.000729256 -9.23612e-20 0.000625773)
(0.00050996 -5.80833e-06 1.82848e-19 0.000648868 5.75118e-20 0.000553671)
(0.000443541 2.89971e-06 3.71581e-20 0.000563203 2.28825e-20 0.00047883)
(0.000378385 1.0248e-05 -2.73211e-20 0.00047589 2.81988e-21 0.000405117)
(0.000320814 1.57418e-05 -8.42061e-20 0.000394946 -5.51685e-20 0.00033974)
(0.000249412 1.52631e-05 1.44626e-20 0.000291016 -5.54893e-21 0.000259733)
(0.00014759 6.47516e-06 2.21352e-20 0.000158868 6.82936e-21 0.000150577)
(3.64343e-10 3.73467e-17 -1.41585e-31 3.64343e-10 -4.07221e-32 3.64343e-10)
(0.000337058 2.91721e-05 4.47208e-20 0.000364693 6.38798e-21 0.00034705)
(0.000245506 1.37512e-05 -5.36811e-21 0.000255409 -1.1638e-21 0.000249344)
(0.00385784 0.00175787 -1.36519e-18 0.0047049 6.69486e-19 0.00416952)
(0.0150642 0.0070065 3.89127e-18 0.0166616 -1.24198e-18 0.015417)
(0.030011 0.0132354 -7.69331e-18 0.0295707 1.02126e-17 0.0288801)
(0.0437517 0.0178415 1.54086e-19 0.0378526 -3.52217e-19 0.0393451)
(0.00215807 0.000628125 8.41301e-19 0.00132164 -2.98797e-19 0.0016288)
(0.0287852 -0.0102651 6.30483e-18 0.0207926 1.59513e-17 0.0240326)
(0.252756 -0.1088 2.69346e-17 0.233931 -1.22282e-16 0.241466)
(1.06006 -0.477141 -6.63454e-17 1.06284 -3.95367e-16 1.05813)
(2.81362 -1.2983 2.07624e-15 2.96977 5.51301e-16 2.88761)
(5.15402 -2.42354 2.97022e-15 5.68185 6.72314e-16 5.4166)
(7.00347 -3.34388 -1.64332e-15 8.02834 -2.2341e-15 7.52101)
(7.70672 -3.72242 -7.33305e-15 9.13183 1.42197e-15 8.4282)
(0.00128954 -7.51057e-05 -5.52712e-21 0.00103296 -1.12538e-20 0.00115766)
(0.00127903 -5.12169e-05 -1.90129e-21 0.00100504 7.68436e-21 0.00113892)
(0.00125241 -2.16721e-05 1.83045e-20 0.000970772 3.49006e-20 0.00111007)
(0.00121286 9.52568e-06 -7.83638e-21 0.000937747 -4.40085e-22 0.00107456)
(0.0011558 3.99811e-05 6.828e-21 0.000903921 4.32682e-20 0.00102992)
(0.000964183 -7.43941e-05 -5.1339e-21 0.000794144 -7.64719e-21 0.000880879)
(0.000948036 -8.78632e-05 1.00848e-21 0.000806674 1.60685e-21 0.000879836)
(0.000922323 -9.91031e-05 6.11157e-21 0.000818487 6.63758e-21 0.000873156)
(0.000888686 -0.000105918 -3.75458e-20 0.000827165 -5.33656e-20 0.000861433)
(0.000847358 -0.000107502 -2.74899e-20 0.000830126 -3.2151e-20 0.000843039)
(0.000799172 -0.000103634 6.42542e-20 0.000826518 7.69153e-20 0.000817872)
(0.000747513 -9.45867e-05 -6.82381e-20 0.000815504 -8.47339e-20 0.000787525)
(0.00069433 -8.11871e-05 -3.08597e-20 0.000796209 -2.05295e-20 0.000752343)
(0.000641643 -6.4565e-05 -7.33983e-20 0.000769004 -5.49259e-20 0.000713452)
(0.000592379 -4.63118e-05 -1.36859e-20 0.000735704 -2.49033e-20 0.000673371)
(0.000547813 -2.77255e-05 9.19856e-21 0.000697763 -3.31922e-21 0.000633321)
(0.000509147 -1.00035e-05 -5.03839e-20 0.000657262 -6.68226e-20 0.000594941)
(0.00047737 5.89102e-06 1.64256e-19 0.000616748 1.12498e-19 0.000559946)
(0.000452672 1.9387e-05 -5.41627e-20 0.000578283 -9.47203e-21 0.000529346)
(0.000434921 3.04247e-05 -1.33058e-19 0.000543485 -5.81847e-20 0.000503894)
(0.000422119 3.85837e-05 8.84717e-20 0.000512422 1.77056e-21 0.000482214)
(0.00040834 4.36393e-05 -6.45547e-20 0.000480643 -3.72336e-20 0.000458849)
(0.000389438 4.58348e-05 8.87589e-22 0.000444137 4.74562e-20 0.000429996)
(0.000367961 4.6453e-05 -1.58553e-20 0.000407006 -1.24565e-20 0.000399332)
(0.000333215 4.27386e-05 -1.09822e-19 0.000357068 -7.58785e-20 0.00035472)
(0.000229429 2.22799e-05 4.66223e-20 0.000237076 4.52596e-20 0.000237434)
(7.48011e-05 2.44473e-06 1.27879e-22 7.53195e-05 -3.94274e-21 7.54091e-05)
(1.23804e-05 6.18363e-08 3.40017e-23 1.23883e-05 1.04033e-23 1.23905e-05)
(1.97488e-06 1.38627e-09 1.9383e-24 1.97491e-06 -8.68885e-26 1.97499e-06)
(0 0 -0 0 -0 0)
(0 0 0 0 0 0)
(0 0 -0 0 0 0)
(0.0014243 0.000425824 -6.76732e-20 0.00128217 -4.19063e-20 0.00135745)
(0.0169999 0.00694211 2.05993e-20 0.0143943 1.79014e-18 0.0157151)
(0.0567705 0.0226522 -6.59569e-17 0.0465046 5.44553e-18 0.0515702)
(0.0121293 0.00458064 -5.80371e-18 0.00924593 9.70572e-19 0.0106512)
(0.0463434 0.0121059 2.79431e-17 0.0252543 -1.63099e-16 0.0354557)
(0.241235 -0.0984422 5.75499e-16 0.204642 -7.0607e-16 0.221695)
(1.27464 -0.584528 -2.98368e-15 1.32799 1.59036e-16 1.29833)
(3.15409 -1.49014 4.83505e-15 3.52041 1.81656e-15 3.33454)
(0.000973466 -5.79983e-05 3.27632e-21 0.000780252 1.33925e-21 0.000878656)
(0.000975237 -4.04187e-05 -1.18514e-20 0.00076659 -1.70412e-20 0.000871922)
(0.000967263 -1.88375e-05 1.51339e-21 0.000749905 7.7116e-21 0.000859505)
(0.000946606 4.46418e-06 6.46301e-21 0.000731287 -2.15633e-20 0.000839415)
(0.000911513 2.77231e-05 -5.25596e-20 0.000710672 -7.55781e-20 0.000811421)
(0.000790888 -6.10369e-05 4.49952e-21 0.000651711 5.22684e-21 0.000720667)
(0.000783252 -7.19174e-05 -1.13148e-20 0.000665456 -1.36e-20 0.000723782)
(0.000768841 -8.14803e-05 -9.13691e-22 0.00067951 -1.89064e-21 0.000723263)
(0.000750131 -8.80967e-05 -4.716e-21 0.000693159 -2.45939e-21 0.00072057)
(0.000725967 -9.09726e-05 3.73925e-20 0.000703296 4.30341e-20 0.000713341)
(0.000696862 -8.99692e-05 2.86742e-20 0.000709705 2.36586e-20 0.000701591)
(0.000664843 -8.51191e-05 3.64654e-22 0.00071121 1.15629e-20 0.000685969)
(0.000630415 -7.68323e-05 7.11428e-20 0.000706162 6.89332e-20 0.000665792)
(0.000594641 -6.58152e-05 -8.8855e-21 0.00069436 -1.18646e-21 0.000641437)
(0.000558768 -5.31294e-05 -2.4573e-20 0.000675782 -1.15384e-20 0.00061362)
(0.000523167 -3.97212e-05 4.82709e-20 0.000650568 1.80139e-20 0.000582541)
(0.000488366 -2.64975e-05 -6.49866e-20 0.000619627 -2.51869e-20 0.00054893)
(0.000454736 -1.42771e-05 -1.1472e-19 0.000584126 -8.96762e-20 0.000513598)
(0.000422333 -3.5565e-06 -4.79317e-20 0.000545257 1.23545e-20 0.000477153)
(0.000391158 5.36854e-06 2.069e-19 0.000504247 9.34419e-20 0.000440268)
(0.000359897 1.22824e-05 -1.49585e-19 0.000460629 -6.81804e-20 0.000402105)
(0.000326228 1.76143e-05 -3.59846e-20 0.000412331 3.12057e-20 0.000360968)
(0.000291867 2.13315e-05 6.73187e-20 0.000362139 4.38792e-20 0.000319049)
(0.000259813 2.36621e-05 -4.25508e-20 0.00031446 -3.45329e-22 0.000279947)
(0.000232202 2.49065e-05 -1.40457e-20 0.000272573 3.51655e-20 0.000246211)
(0.00021065 2.55481e-05 2.00089e-20 0.000238471 -1.2854e-20 0.000219522)
(0.000178785 2.14407e-05 -1.27357e-19 0.000192618 1.23285e-20 0.000182515)
(0.000130297 1.22185e-05 7.07099e-22 0.000133212 -1.18642e-20 0.000130536)
(2.55263e-05 4.72675e-07 -1.89166e-21 2.54624e-05 1.90294e-22 2.54672e-05)
(6.83439e-06 3.24672e-08 3.51354e-23 6.81985e-06 1.02928e-23 6.82601e-06)
(3.95982e-06 1.06104e-08 -3.70154e-24 3.95275e-06 -1.56086e-23 3.95597e-06)
(1.55339e-06 1.61325e-09 -1.19944e-25 1.55216e-06 -1.12441e-26 1.55273e-06)
(1.08784e-08 7.60854e-14 1.27285e-29 1.08783e-08 3.1046e-31 1.08783e-08)
(0 0 0 0 -0 0)
(0 0 0 0 0 0)
(0.00284672 0.00104928 -3.06509e-19 0.0021926 6.32654e-19 0.00251081)
(0.0282702 0.010643 -3.55169e-17 0.0214558 1.15387e-17 0.0247798)
(0.00527862 0.0019222 -1.02561e-17 0.00386759 -6.91244e-18 0.00456189)
(0.0741029 0.0235309 -9.23566e-17 0.046843 1.02055e-16 0.0603453)
(0.164386 -0.0500064 6.48961e-16 0.100121 -7.43942e-16 0.131774)
(0.000792764 -4.8e-05 -4.92777e-21 0.000636441 -7.21168e-21 0.000714459)
(0.000789482 -3.41682e-05 1.75313e-21 0.000621749 4.84252e-22 0.00070534)
(0.000779551 -1.72546e-05 4.69967e-21 0.000605173 4.77317e-21 0.000692443)
(0.000761696 1.01205e-06 -4.23464e-21 0.000588401 -1.96851e-20 0.000675065)
(0.000639182 -4.98185e-05 -2.21411e-21 0.000527373 -2.08502e-21 0.00058339)
(0.00063308 -5.84616e-05 6.33389e-23 0.000538445 -5.61299e-22 0.000586105)
(0.000622172 -6.61051e-05 1.57117e-20 0.000550204 1.71349e-20 0.00058648)
(0.000607744 -7.14359e-05 6.15399e-22 0.000561572 -3.30722e-22 0.00058509)
(0.000589316 -7.38853e-05 -5.41819e-20 0.000570599 -5.75495e-20 0.000580517)
(0.000566911 -7.32727e-05 1.24508e-20 0.000576816 1.46755e-20 0.000572506)
(0.000541867 -6.95306e-05 1.21534e-20 0.000579186 7.52735e-21 0.000561339)
(0.000514739 -6.29108e-05 -2.81429e-20 0.000576524 -4.09754e-20 0.000546647)
(0.000486226 -5.38534e-05 -4.20517e-20 0.00056842 -2.48123e-20 0.000528532)
(0.000457397 -4.31086e-05 1.59571e-20 0.00055476 2.10121e-20 0.000507553)
(0.000428834 -3.13952e-05 -9.55828e-20 0.000535709 -7.90979e-20 0.000484046)
(0.000401135 -1.94432e-05 6.36611e-20 0.000511857 4.05278e-20 0.000458604)
(0.000374895 -7.9844e-06 1.29394e-19 0.000484175 7.33449e-20 0.000432034)
(0.000350508 2.47433e-06 1.66813e-19 0.000453806 6.28616e-20 0.00040509)
(0.000328181 1.15396e-05 -2.23184e-19 0.000421811 -1.67166e-19 0.000378413)
(0.000308307 1.89992e-05 1.20116e-19 0.000389575 9.18378e-20 0.000352925)
(0.000291585 2.46462e-05 1.28574e-19 0.000359142 2.97146e-20 0.000329748)
(0.000276643 2.82844e-05 8.20753e-20 0.000330371 -1.78901e-20 0.00030793)
(0.000261062 2.999e-05 4.19507e-20 0.000301534 2.23745e-20 0.000285402)
(0.000243942 3.00315e-05 -5.50024e-21 0.000272474 3.07561e-20 0.00026175)
(0.000227236 2.9279e-05 4.24185e-20 0.000245877 -6.99657e-21 0.000239401)
(0.00021319 2.84669e-05 1.46082e-19 0.000223614 6.15114e-20 0.000220543)
(0.000197978 2.65448e-05 -6.17369e-20 0.000200201 -8.3209e-21 0.000200563)
(0.000167108 2.00486e-05 1.38633e-19 0.00016186 3.267e-20 0.000165354)
(0.000116687 1.03053e-05 -1.36575e-20 0.000109609 5.32057e-22 0.000113538)
(7.20628e-05 4.12502e-06 -2.7114e-21 6.72017e-05 1.88702e-21 6.97734e-05)
(2.3686e-05 4.80873e-07 1.21941e-22 2.28776e-05 5.28154e-23 2.32979e-05)
(1.34846e-07 1.66399e-11 -1.94861e-26 1.34811e-07 8.27788e-27 1.34829e-07)
(2.32769e-06 5.10204e-09 -1.59136e-23 2.31648e-06 -9.09827e-24 2.32232e-06)
(2.73705e-07 7.30233e-11 -1.90147e-26 2.73557e-07 1.48528e-25 2.73634e-07)
(0 0 0 0 -0 0)
(0 0 0 0 0 0)
(0.000689601 0.000180006 -1.41962e-18 0.000504878 1.33359e-18 0.000597796)
(0.0226685 0.00780495 -1.63706e-17 0.0155037 1.00933e-17 0.0190815)
(0.0172017 0.00576801 -3.75289e-17 0.0114444 1.45821e-18 0.0143325)
(0.000641261 -3.95807e-05 7.01724e-22 0.000515588 2.30605e-21 0.000578728)
(0.000639596 -2.87119e-05 1.07061e-20 0.000504439 9.46091e-21 0.000572082)
(0.000633082 -1.5425e-05 -1.06858e-20 0.000491983 -3.84851e-21 0.000562747)
(0.000620129 -9.55735e-07 2.64168e-20 0.000479049 2.55192e-20 0.000549653)
(0.00052952 -4.1641e-05 -9.9124e-23 0.000437483 -2.88156e-22 0.000483398)
(0.000525891 -4.87229e-05 -6.9513e-22 0.000447645 -5.6892e-22 0.000486765)
(0.000518791 -5.50864e-05 -2.04959e-21 0.000458735 -1.82403e-21 0.000488654)
(0.000509194 -5.96903e-05 -1.13313e-20 0.000469902 -1.04507e-20 0.000489455)
(0.000496771 -6.20804e-05 1.40268e-20 0.000479658 1.56792e-20 0.0004881)
(0.000481441 -6.21175e-05 7.33361e-20 0.00048771 6.20524e-20 0.000484394)
(0.000464248 -5.97103e-05 -4.42357e-21 0.000493255 -1.20985e-20 0.000478533)
(0.000445452 -5.4997e-05 -3.2103e-20 0.000495207 -2.65645e-20 0.000470054)
(0.00042547 -4.82565e-05 8.48511e-20 0.000493164 7.80551e-20 0.000458941)
(0.00040504 -4.00251e-05 3.41582e-20 0.000486823 2.15904e-20 0.000445461)
(0.000384389 -3.08241e-05 -2.78237e-20 0.000475949 -4.74827e-21 0.000429565)
(0.000363879 -2.12083e-05 -1.03701e-19 0.000460787 -5.03435e-20 0.000411565)
(0.000343793 -1.17675e-05 -1.94567e-19 0.000441748 -1.48147e-19 0.000391822)
(0.000324236 -2.9607e-06 -2.24048e-19 0.000419389 -1.3384e-19 0.000370642)
(0.000305262 4.84011e-06 -1.26643e-20 0.000394398 5.11666e-20 0.000348401)
(0.000286928 1.13456e-05 1.11577e-20 0.000367624 -2.42148e-20 0.000325548)
(0.000268613 1.64039e-05 -1.68055e-19 0.000339114 -7.7153e-20 0.000301808)
(0.000249416 2.00388e-05 -1.0937e-19 0.000308421 -4.71133e-20 0.000276716)
(0.000230082 2.2335e-05 2.79041e-20 0.00027706 2.55607e-21 0.00025142)
(0.00021186 2.34383e-05 1.1617e-19 0.00024717 1.56315e-20 0.000227602)
(0.000195989 2.36448e-05 -4.88419e-20 0.000220654 -2.02325e-20 0.000206756)
(0.000183594 2.3342e-05 -3.05135e-20 0.00019896 -5.74885e-20 0.00019009)
(0.000175148 2.29035e-05 5.86926e-21 0.000182057 2.16813e-21 0.000177771)
(0.000169681 2.24217e-05 -5.6079e-20 0.000168095 -5.44072e-20 0.000168365)
(0.000158694 2.01057e-05 4.05228e-20 0.000148947 8.71097e-21 0.000153514)
(0.000138864 1.57334e-05 1.2839e-20 0.000123862 -9.19173e-21 0.000131126)
(0.000108872 9.98246e-06 4.70764e-22 9.40471e-05 -3.20197e-21 0.000101257)
(7.39717e-05 4.7832e-06 8.41281e-21 6.39025e-05 2.53812e-21 6.88278e-05)
(4.39549e-05 1.68793e-06 2.77242e-21 3.90249e-05 2.02201e-21 4.14581e-05)
(4.35232e-06 1.62566e-08 3.30562e-22 4.2848e-06 1.76471e-23 4.31833e-06)
(2.06521e-06 3.00743e-09 -3.7452e-23 2.04765e-06 4.27719e-23 2.0564e-06)
(7.6692e-08 4.0616e-12 1.4025e-25 7.66664e-08 -1.89098e-25 7.66792e-08)
(0 0 0 0 0 0)
(0 0 -0 0 0 0)
(0.00274215 0.000796384 5.05088e-18 0.00161252 -2.31182e-18 0.00217755)
(0.000530056 -3.33572e-05 -1.83622e-21 0.000426906 -2.82426e-21 0.000478562)
(0.000527993 -2.45762e-05 -5.78025e-21 0.000417098 -4.04186e-21 0.000472505)
(0.000522467 -1.38758e-05 8.98248e-21 0.000406499 3.38166e-21 0.000464599)
(0.000512101 -2.16583e-06 -3.71993e-20 0.000395672 -2.71692e-20 0.000453895)
(0.000441363 -3.50944e-05 -3.49997e-21 0.000365244 -2.55667e-21 0.000403278)
(0.000438826 -4.09187e-05 -1.10347e-20 0.000374073 -9.90375e-21 0.00040652)
(0.000433697 -4.61852e-05 -2.54099e-21 0.000383869 -2.54934e-21 0.000408801)
(0.000426601 -5.00467e-05 3.78307e-20 0.000393827 3.32019e-20 0.000410276)
(0.000417442 -5.2147e-05 -2.52655e-20 0.000402869 -2.24207e-20 0.000410236)
(0.000406033 -5.23732e-05 -2.66126e-20 0.000410763 -2.77081e-20 0.000408472)
(0.000393127 -5.06212e-05 -6.5464e-20 0.000416793 -4.75121e-20 0.000405069)
(0.000378888 -4.69685e-05 -4.48005e-20 0.000420065 -3.12237e-20 0.000399622)
(0.000363605 -4.15963e-05 4.94259e-20 0.000420209 3.22449e-20 0.000392069)
(0.00034778 -3.48862e-05 1.36659e-20 0.000416826 -6.425e-22 0.000382516)
(0.000331611 -2.72159e-05 2.13421e-20 0.000409681 2.40711e-20 0.000370908)
(0.000315374 -1.90065e-05 1.92543e-19 0.000398823 1.17134e-19 0.000357413)
(0.000299324 -1.0739e-05 -6.58066e-20 0.000384459 -7.35973e-21 0.000342285)
(0.000283598 -2.80848e-06 1.4439e-19 0.000366953 1.24523e-19 0.000325755)
(0.000268348 4.43574e-06 1.92532e-20 0.000346866 1.48453e-20 0.000308193)
(0.00025359 1.06949e-05 -3.4069e-20 0.000324739 -1.66092e-20 0.000289889)
(0.000239432 1.58152e-05 1.02729e-19 0.000301297 7.0791e-20 0.000271271)
(0.000226203 1.9622e-05 3.91111e-20 0.000277728 2.84419e-20 0.000253011)
(0.000213605 2.2065e-05 1.8763e-20 0.000254515 -9.35129e-21 0.000235107)
(0.000201265 2.3237e-05 -6.85416e-20 0.000231963 -5.98489e-20 0.000217564)
(0.000189243 2.33762e-05 -7.96633e-22 0.000210619 1.52931e-21 0.000200698)
(0.000178236 2.28385e-05 -3.84716e-20 0.000191387 1.34819e-21 0.000185371)
(0.000168652 2.18603e-05 -5.65791e-20 0.000174318 -3.10698e-21 0.000171867)
(0.000160128 2.05318e-05 1.49526e-20 0.000158646 1.93181e-20 0.000159671)
(0.000151059 1.87279e-05 -2.63205e-21 0.000142861 -1.63382e-20 0.000147185)
(0.000139491 1.62776e-05 -4.66495e-20 0.000125825 1.54725e-21 0.000132792)
(0.000126227 1.35859e-05 -4.69041e-21 0.00010899 1.73627e-21 0.00011764)
(0.000110157 1.05368e-05 1.47853e-21 9.1944e-05 -3.56634e-21 0.000101045)
(9.45154e-05 7.69167e-06 -9.97801e-21 7.6908e-05 1.75484e-21 8.57261e-05)
(6.81845e-05 3.84925e-06 9.27578e-21 5.6037e-05 -4.70439e-20 6.21274e-05)
(4.3301e-05 1.31114e-06 3.57409e-20 3.68455e-05 -6.94806e-21 4.00776e-05)
(1.5462e-06 1.08659e-09 -1.44918e-22 1.53453e-06 -6.32208e-24 1.54037e-06)
(1.07241e-06 -1.8066e-11 9.31752e-23 1.06625e-06 -5.17001e-23 1.06934e-06)
(0 -0 0 0 -0 0)
(0 0 -0 0 0 0)
(0.000441559 -2.83426e-05 2.25749e-21 0.000356259 2.98746e-21 0.000398999)
(0.000439807 -2.11777e-05 1.69841e-20 0.000347994 1.14942e-20 0.000393887)
(0.000435479 -1.24535e-05 -1.089e-20 0.000339212 -1.20956e-20 0.000387449)
(0.000354875 -4.43174e-05 1.58507e-20 0.000342419 1.3939e-20 0.000348651)
(0.000346591 -4.46837e-05 2.25068e-20 0.000350235 1.88421e-20 0.000348394)
(0.000337185 -4.34478e-05 9.51549e-20 0.000356731 7.31654e-20 0.000346946)
(0.000326761 -4.06557e-05 -1.61654e-20 0.000361186 -1.23737e-20 0.000343958)
(0.000315529 -3.64318e-05 3.32225e-20 0.000363295 1.5982e-20 0.000339378)
(0.000303845 -3.105e-05 -6.56992e-20 0.000362678 -3.8031e-20 0.000333222)
(0.000291818 -2.47917e-05 4.87322e-20 0.00035904 2.69501e-20 0.000325371)
(0.000279643 -1.79791e-05 -1.21692e-19 0.000352341 -9.5134e-20 0.000315903)
(0.000267482 -1.09845e-05 4.26721e-21 0.000342631 1.28798e-20 0.00030494)
(0.000255412 -4.13537e-06 1.94689e-20 0.000330087 -1.05198e-20 0.000292594)
(0.000243503 2.24575e-06 3.24865e-20 0.000315028 6.49908e-21 0.00027906)
(0.000231754 7.88657e-06 5.30013e-21 0.000297844 4.6132e-21 0.000264536)
(0.000220209 1.25917e-05 -3.9278e-20 0.000279102 -3.66517e-20 0.00024931)
(0.000208577 1.62193e-05 -7.57466e-20 0.00025902 -2.38716e-20 0.000233381)
(0.000196708 1.87465e-05 -6.51377e-20 0.000237956 -1.90534e-20 0.000216871)
(0.000184984 2.02287e-05 -4.75836e-20 0.000216915 1.30651e-20 0.000200505)
(0.000174016 2.083e-05 -3.02041e-20 0.000197016 -3.20435e-21 0.000185133)
(0.000164326 2.07549e-05 -3.23762e-21 0.000179119 1.41006e-20 0.000171427)
(0.000156044 2.01708e-05 3.70566e-20 0.00016328 2.34044e-20 0.000159457)
(0.00014811 1.90066e-05 -2.65227e-21 0.000148269 -1.46171e-20 0.000148083)
(0.000138849 1.71416e-05 -1.99969e-20 0.000132718 -3.08073e-21 0.000135749)
(0.000127396 1.47036e-05 3.48664e-20 0.000116452 1.03077e-20 0.000121894)
(0.000114988 1.21986e-05 4.67423e-21 0.000101043 1.7025e-21 0.000107955)
(0.000103639 1.00487e-05 5.70524e-21 8.80969e-05 -5.88126e-21 9.58095e-05)
(9.47309e-05 8.34322e-06 4.09647e-21 7.81678e-05 -1.99228e-21 8.64263e-05)
(8.73706e-05 6.7911e-06 -1.02325e-19 7.00696e-05 3.4416e-20 7.87214e-05)
(7.93957e-05 5.06083e-06 -8.74375e-20 6.21095e-05 -2.52231e-20 7.07517e-05)
(5.6816e-05 2.17893e-06 4.42295e-20 4.55958e-05 9.07971e-20 5.12006e-05)
(2.25968e-05 2.08593e-07 -1.72602e-20 2.0205e-05 -2.08928e-20 2.14004e-05)
(1.91309e-06 -7.24048e-10 4.74301e-23 1.89216e-06 -1.29376e-22 1.90261e-06)
(0 -0 0 0 0 0)
(0.000289785 -3.73523e-05 -3.6015e-20 0.000306307 -2.92317e-20 0.000298067)
(0.000281944 -3.51503e-05 -4.32374e-20 0.000311144 -2.78286e-20 0.000296572)
(0.000273444 -3.17452e-05 -9.707e-21 0.000314146 -1.20069e-20 0.00029382)
(0.000264558 -2.73406e-05 8.00777e-20 0.000314985 5.48906e-20 0.000289808)
(0.000255344 -2.2142e-05 -3.00141e-21 0.00031337 -1.20235e-20 0.000284401)
(0.000245938 -1.63924e-05 3.18174e-20 0.0003092 3.68424e-20 0.000277621)
(0.00023646 -1.0388e-05 3.96889e-21 0.000302434 1.04522e-20 0.000269511)
(0.000226959 -4.40074e-06 3.98675e-20 0.000293132 1.43873e-21 0.000260119)
(0.0002175 1.30356e-06 -2.61063e-20 0.000281497 -1.02663e-20 0.000249589)
(0.000208111 6.4732e-06 -3.01945e-20 0.000267816 -7.85051e-21 0.000238079)
(0.000198786 1.09119e-05 9.02765e-21 0.000252445 1.63624e-20 0.000225759)
(0.000189568 1.44756e-05 7.83634e-20 0.000235889 3.0349e-20 0.000212921)
(0.000180496 1.7073e-05 3.70923e-20 0.000218728 1.10694e-20 0.00019982)
(0.000171558 1.86991e-05 3.77085e-20 0.00020149 1.66406e-20 0.000186719)
(0.000162945 1.94653e-05 8.20703e-21 0.000184818 2.80301e-20 0.000174037)
(0.000154843 1.9528e-05 3.02101e-20 0.000169186 4.10116e-21 0.000162128)
(0.000147398 1.90502e-05 -5.96799e-22 0.000154741 -8.63045e-21 0.000151146)
(0.000140027 1.80289e-05 -4.54724e-20 0.000140819 -1.09446e-20 0.000140488)
(0.000131358 1.63377e-05 4.75821e-22 0.000126296 7.65513e-21 0.000128892)
(0.000120516 1.40383e-05 -2.01132e-20 0.00011093 -1.22399e-20 0.00011576)
(0.000108259 1.15348e-05 -3.42866e-21 9.59214e-05 -2.62699e-21 0.000102084)
(9.66654e-05 9.31866e-06 -1.81113e-20 8.30367e-05 3.82495e-22 8.98295e-05)
(8.71938e-05 7.55239e-06 -1.02007e-20 7.29915e-05 -8.36681e-21 8.00862e-05)
(8.04488e-05 6.20406e-06 1.05139e-19 6.56933e-05 7.70686e-21 7.30766e-05)
(7.55297e-05 5.06017e-06 4.11452e-20 6.01299e-05 2.64405e-20 6.78307e-05)