/*--------------------------------*- C++ -*----------------------------------*\
| =========                 |                                                 |
| \\      /  F ield         | OpenFOAM: The Open Source CFD Toolbox           |
|  \\    /   O peration     | Version:  2306                                  |
|   \\  /    A nd           | Website:  www.openfoam.com                      |
|    \\/     M anipulation  |                                                 |
\*---------------------------------------------------------------------------*/
FoamFile
{
    version     2.0;
    format      ascii;
    arch        "LSB;label=32;scalar=64";
    class       volScalarField;
    location    "475";
    object      turbulenceProperties:k;
}
// * * * * * * * * * * * * * * * * * * * * * * * * * * * * * * * * * * * * * //

dimensions      [0 2 -2 0 0 0 0];

internalField   nonuniform List<scalar> 
1340
(
0.0199781
0.0232533
0.0274179
0.03305
0.0396728
0.0480533
0.0587087
0.0718507
0.0885052
0.109757
0.137256
0.17364
0.222542
0.289909
0.385878
0.526365
0.742768
1.07626
1.66178
2.57331
4.62757
7.73396
18.1058
35.3428
39.1678
37.4728
36.823
37.495
38.3285
38.5406
38.0312
36.8966
35.0619
32.5514
29.3098
0.0170386
0.0146483
0.0119551
0.0096385
0.00744358
0.00545906
0.00385213
0.00310761
0.00309043
0.0030551
0.00296698
0.00283057
0.00267373
0.0024886
0.00228038
0.00207426
0.0018721
0.00167936
0.00154523
0.00152589
0.00167374
0.00216393
0.00336942
0.0063235
0.0130762
0.0313824
0.0767471
0.226443
0.626228
1.9184
6.15562
12.0693
18.1833
23.9297
27.9961
28.8025
26.4242
22.5181
18.5649
15.3594
12.9027
11.0154
0.00307934
0.00303751
0.00295211
0.00282555
0.00265253
0.00242442
0.00208395
0.00206749
0.00202087
0.0019496
0.00187506
0.00179316
0.00171036
0.0016359
0.00157187
0.0015222
0.00148378
0.00146171
0.00145577
0.00146828
0.00147231
0.00142737
0.00124951
0.00107641
0.000122819
0.00664945
0.00269219
0.00457819
0.000572083
0.0239524
0.199678
0.666042
1.66269
3.7176
7.3257
12.1039
16.425
18.5503
18.1367
16.2864
14.131
0.00210019
0.00209761
0.00209204
0.00205481
0.00198873
0.00187779
0.00175895
0.00176259
0.00175374
0.00173914
0.00170901
0.00166416
0.00160825
0.00153845
0.00145868
0.00137045
0.00127564
0.00117557
0.00107122
0.000964473
0.000856249
0.000742787
0.000629696
0.000527749
0.00040008
0.000228518
5.46514e-10
0.000524401
0.00037513
0.00636613
0.0235714
0.0442309
0.0604747
0.00255425
0.0368052
0.364076
1.59051
4.3355
8.12623
11.2764
12.6334
0.00174008
0.00171149
0.00166663
0.00161258
0.00154482
0.0013196
0.00131727
0.00130698
0.00128864
0.00126026
0.00122178
0.00117527
0.00112144
0.00106205
0.00100073
0.000939448
0.000880675
0.000827032
0.00078015
0.00074115
0.000708377
0.000673916
0.000631785
0.000587149
0.000522501
0.000351969
0.000112765
1.85795e-05
2.96239e-06
0
0
0
0.00203196
0.0235547
0.0774226
0.0160132
0.0535267
0.333786
1.95048
5.00452
0.00131619
0.00130687
0.00128834
0.00125865
0.0012168
0.00108163
0.00108624
0.00108581
0.00108193
0.0010713
0.00105408
0.00103101
0.00100118
0.00096522
0.000924085
0.000878138
0.000828461
0.00077623
0.000722371
0.000667836
0.000611316
0.000549763
0.000486527
0.00042711
0.000375493
0.000334322
0.000276959
0.000197022
3.82279e-05
1.02401e-05
5.93427e-06
2.32914e-06
1.63175e-08
0
0
0.00377507
0.0372529
0.00685405
0.0906456
0.19814
0.00107183
0.00105829
0.00103858
0.00101258
0.000874972
0.000878815
0.000879428
0.000877203
0.000870216
0.000858117
0.000841196
0.000818955
0.000791589
0.000759855
0.000724295
0.000685798
0.000645552
0.000604702
0.000564203
0.000525404
0.000490238
0.000457472
0.000423999
0.000389083
0.000356257
0.000328674
0.000299371
0.000247161
0.000169917
0.000104519
3.49308e-05
2.02243e-07
3.48325e-06
4.10448e-07
0
0
0.000896138
0.0286268
0.0214893
0.000867788
0.000858058
0.000843906
0.000824416
0.0007252
0.000730151
0.00073309
0.000734275
0.000732265
0.000726773
0.000718018
0.000705357
0.000688787
0.000668662
0.000644951
0.000618115
0.000588682
0.000557133
0.00052403
0.00049005
0.000454767
0.000417277
0.000379281
0.000343316
0.000311699
0.000286322
0.000267489
0.00025307
0.000230578
0.000196926
0.000152088
0.000103351
6.22189e-05
6.47772e-06
3.08463e-06
1.15019e-07
0
0
0.00326611
0.000717762
0.000708798
0.000696782
0.000680834
0.000604942
0.00060971
0.000613184
0.000615352
0.000615273
0.000612634
0.000607494
0.000599287
0.000587942
0.000573561
0.0005561
0.000535805
0.000513034
0.000488153
0.000461703
0.000434109
0.000406
0.000378471
0.000351614
0.000325396
0.00030028
0.000277497
0.000257419
0.000239223
0.000220553
0.000199054
0.000176429
0.000151573
0.000128575
9.31745e-05
6.0112e-05
2.31055e-06
1.604e-06
0
0
0.000598408
0.000590844
0.00058107
0.000522973
0.00052261
0.000520431
0.000515952
0.000509101
0.000499872
0.000488115
0.000473943
0.000457526
0.000439046
0.000418796
0.000397067
0.000374311
0.000350489
0.000325767
0.000301202
0.000278083
0.000257436
0.000239391
0.000222231
0.000203658
0.000182871
0.000161993
0.000143773
0.000129663
0.000118081
0.000106128
7.68062e-05
3.21011e-05
2.85393e-06
0
0.000447079
0.00044483
0.000440704
0.000434675
0.000426557
0.00041638
0.000404203
0.000390105
0.000374293
0.000357003
0.000338495
0.000319189
0.000299522
0.000279884
0.000260899
0.000243078
0.000226643
0.000210666
0.000193273
0.000173603
0.000153132
0.000134766
0.000120136
0.000109609
0.000101745
9.69092e-05
8.4663e-05
4.92309e-05
3.22555e-06
0.00038348
0.000379861
0.000374563
0.000367566
0.000358866
0.00034848
0.00033651
0.000323094
0.000308434
0.000292832
0.000276398
0.000259495
0.000242868
0.000227083
0.000212285
0.000197831
0.000182324
0.000164923
0.000146525
0.000129303
0.000114792
0.000103216
9.38364e-05
8.77257e-05
8.46829e-05
8.13527e-05
5.24634e-05
0.000332569
0.00032923
0.000324496
0.00031832
0.000310669
0.000301599
0.000291193
0.000279567
0.00026698
0.000253625
0.000239756
0.000225827
0.000212255
0.000199132
0.00018605
0.000172087
0.000156623
0.000140282
0.000124707
0.000111203
9.99003e-05
9.02855e-05
8.22979e-05
7.66977e-05
7.44711e-05
7.80616e-05
0.000290059
0.000287006
0.000282763
0.000277277
0.000270552
0.000262623
0.000253552
0.000243537
0.000232707
0.000221211
0.00020939
0.00019766
0.000186102
0.000174428
0.000161981
0.0001483
0.000133836
0.000119873
0.000107534
9.7006e-05
8.79314e-05
8.0029e-05
7.33961e-05
6.84656e-05
6.74e-05
0.000255968
0.000254151
0.000251344
0.000247488
0.000242557
0.000236567
0.000229555
0.000221626
0.000212927
0.000203554
0.000193689
0.000183692
0.000173636
0.000163317
0.000152289
0.000140215
0.000127423
0.000114915
0.000103655
9.39073e-05
8.54391e-05
7.80841e-05
7.16427e-05
6.68088e-05
6.01213e-05
0.000225361
0.000223622
0.000221005
0.000217491
0.000213055
0.00020771
0.000201509
0.000194588
0.000186981
0.000178789
0.000170306
0.000161618
0.000152588
0.000142895
0.000132297
0.000121034
0.000109883
9.96537e-05
9.06523e-05
8.27502e-05
7.58788e-05
6.98325e-05
6.53635e-05
5.95245e-05
0.000199114
0.000197444
0.000195014
0.000191793
0.000187776
0.000182984
0.000177523
0.000171411
0.000164686
0.00015756
0.000150125
0.000142299
0.000133848
0.000124594
0.00011472
0.000104826
9.55817e-05
8.73085e-05
7.99617e-05
7.35079e-05
6.78724e-05
6.33201e-05
5.97832e-05
0.000177447
0.000176478
0.000174875
0.000172603
0.000169648
0.000166001
0.000161739
0.000156874
0.000151408
0.000145467
0.000139161
0.000132441
0.000125131
0.000117101
0.000108489
9.97555e-05
9.14528e-05
8.38938e-05
7.71029e-05
7.10571e-05
6.58064e-05
6.12203e-05
5.8606e-05
0.000157799
0.000156828
0.000155293
0.000153174
0.000150455
0.000147172
0.000143342
0.000138944
0.000134037
0.00012874
0.000123026
0.000116755
0.00010983
0.000102356
9.46885e-05
8.72771e-05
8.04142e-05
7.41724e-05
6.85488e-05
6.36339e-05
5.92592e-05
5.64498e-05
0.000141174
0.000140675
0.000139708
0.000138242
0.000136261
0.000133766
0.000130789
0.000127294
0.000123287
0.000118879
0.000114062
0.000108726
0.000102794
9.6344e-05
8.96504e-05
8.30746e-05
7.68829e-05
7.1176e-05
6.59811e-05
6.13716e-05
5.73234e-05
5.41396e-05
0.000126201
0.000125664
0.000124706
0.000123307
0.000121456
0.000119185
0.000116443
0.000113209
0.000109578
0.000105556
0.000101055
9.6008e-05
9.04745e-05
8.46639e-05
7.88657e-05
7.33154e-05
6.8127e-05
6.33551e-05
5.90469e-05
5.5304e-05
5.19908e-05
0.000113237
0.000113022
0.000112457
0.00011152
0.000110187
0.000108483
0.000106361
0.000103786
0.000100829
9.75027e-05
9.37409e-05
8.94805e-05
8.47633e-05
7.97499e-05
7.467e-05
6.97262e-05
6.50381e-05
6.06764e-05
5.66787e-05
5.31873e-05
4.99702e-05
0.00010165
0.000101382
0.000100801
9.98788e-05
9.86313e-05
9.70204e-05
9.50044e-05
9.26247e-05
8.99034e-05
8.67885e-05
8.32204e-05
7.92256e-05
7.49276e-05
7.05059e-05
6.61322e-05
6.1922e-05
5.79543e-05
5.42692e-05
5.09985e-05
4.79712e-05
9.14158e-05
9.13728e-05
9.10648e-05
9.04688e-05
8.95882e-05
8.83936e-05
8.68455e-05
8.49561e-05
8.27559e-05
8.02004e-05
7.7236e-05
7.38771e-05
7.02167e-05
6.63927e-05
6.25495e-05
5.87925e-05
5.52032e-05
5.18246e-05
4.87664e-05
4.59332e-05
8.2211e-05
8.23326e-05
8.22332e-05
8.18916e-05
8.13007e-05
8.04449e-05
7.92799e-05
7.78014e-05
7.60434e-05
7.39718e-05
7.15327e-05
6.87307e-05
6.56348e-05
6.23506e-05
5.89947e-05
5.56637e-05
5.24346e-05
4.93524e-05
4.65083e-05
4.38502e-05
7.41709e-05
7.42276e-05
7.4081e-05
7.37184e-05
7.31327e-05
7.22832e-05
7.11486e-05
6.97659e-05
6.81051e-05
6.61161e-05
6.3796e-05
6.11955e-05
5.83949e-05
5.5485e-05
5.25499e-05
4.9661e-05
4.68641e-05
4.42299e-05
4.17362e-05
6.68054e-05
6.69763e-05
6.69767e-05
6.67931e-05
6.64212e-05
6.58248e-05
6.49767e-05
6.39065e-05
6.25925e-05
6.09873e-05
5.9083e-05
5.69149e-05
5.45425e-05
5.20367e-05
4.94667e-05
4.68962e-05
4.437e-05
4.19451e-05
3.96071e-05
6.01599e-05
6.04104e-05
6.0521e-05
6.04752e-05
6.02716e-05
5.98762e-05
5.92621e-05
5.84499e-05
5.74255e-05
5.61461e-05
5.45974e-05
5.28042e-05
5.08085e-05
4.86644e-05
4.64287e-05
4.41553e-05
4.18819e-05
3.96619e-05
3.74781e-05
5.44717e-05
5.46612e-05
5.47191e-05
5.4644e-05
5.44075e-05
5.39815e-05
5.33829e-05
5.2598e-05
5.15895e-05
5.03422e-05
4.88712e-05
4.7205e-05
4.53827e-05
4.34491e-05
4.14496e-05
3.94159e-05
3.7389e-05
3.53609e-05
4.91016e-05
4.93458e-05
4.94795e-05
4.95018e-05
4.93884e-05
4.91131e-05
4.86864e-05
4.80981e-05
4.73153e-05
4.63217e-05
4.51246e-05
4.37431e-05
4.22046e-05
4.05426e-05
3.87923e-05
3.69814e-05
3.51411e-05
3.32639e-05
4.42475e-05
4.45265e-05
4.47145e-05
4.48086e-05
4.47894e-05
4.4633e-05
4.43441e-05
4.39145e-05
4.3317e-05
4.25349e-05
4.15693e-05
4.04321e-05
3.91414e-05
3.77207e-05
3.61974e-05
3.45914e-05
3.29277e-05
3.11981e-05
4.01608e-05
4.03857e-05
4.05312e-05
4.05824e-05
4.05169e-05
4.03364e-05
4.00342e-05
3.95874e-05
3.89795e-05
3.82082e-05
3.72791e-05
3.62027e-05
3.49949e-05
3.36749e-05
3.22579e-05
3.07598e-05
2.91739e-05
3.62095e-05
3.64565e-05
3.66365e-05
3.67385e-05
3.67423e-05
3.66455e-05
3.64439e-05
3.61178e-05
3.56524e-05
3.50423e-05
3.42886e-05
3.33964e-05
3.23749e-05
3.12365e-05
2.99909e-05
2.86482e-05
2.72003e-05
3.26328e-05
3.28912e-05
3.30934e-05
3.32308e-05
3.32855e-05
3.32522e-05
3.31292e-05
3.28998e-05
3.25493e-05
3.20714e-05
3.14644e-05
3.07289e-05
2.98687e-05
2.88909e-05
2.78003e-05
2.66019e-05
2.96603e-05
2.98742e-05
3.00345e-05
3.0125e-05
3.01392e-05
3.00762e-05
2.99219e-05
2.96632e-05
2.92931e-05
2.88076e-05
2.82044e-05
2.74831e-05
2.66462e-05
2.56949e-05
2.46293e-05
2.67332e-05
2.69515e-05
2.7125e-05
2.72397e-05
2.7288e-05
2.72696e-05
2.71732e-05
2.69871e-05
2.6704e-05
2.63183e-05
2.58256e-05
2.52228e-05
2.45089e-05
2.36817e-05
2.2738e-05
2.40837e-05
2.43004e-05
2.44797e-05
2.46088e-05
2.46808e-05
2.46952e-05
2.46424e-05
2.45128e-05
2.42989e-05
2.39944e-05
2.35934e-05
2.30911e-05
2.24838e-05
2.17666e-05
2.09339e-05
2.1687e-05
2.18984e-05
2.20774e-05
2.22137e-05
2.23008e-05
2.23378e-05
2.23174e-05
2.22311e-05
2.20717e-05
2.18327e-05
2.15074e-05
2.10898e-05
2.0574e-05
1.99538e-05
1.92216e-05
1.95204e-05
1.97228e-05
1.98974e-05
2.00356e-05
2.01313e-05
2.01835e-05
2.01865e-05
2.01327e-05
2.00157e-05
1.98289e-05
1.95656e-05
1.92187e-05
1.87814e-05
1.82462e-05
1.76045e-05
1.77543e-05
1.79219e-05
1.8058e-05
1.81573e-05
1.82185e-05
1.82373e-05
1.82074e-05
1.81232e-05
1.79779e-05
1.77647e-05
1.74767e-05
1.71063e-05
1.66454e-05
1.60846e-05
1.59749e-05
1.61332e-05
1.62642e-05
1.6363e-05
1.64288e-05
1.64581e-05
1.64456e-05
1.6386e-05
1.62732e-05
1.61007e-05
1.58614e-05
1.55477e-05
1.51513e-05
1.46627e-05
1.43672e-05
1.4515e-05
1.46391e-05
1.4735e-05
1.48021e-05
1.48375e-05
1.48369e-05
1.47955e-05
1.47081e-05
1.45683e-05
1.43691e-05
1.41034e-05
1.37628e-05
1.33381e-05
1.29162e-05
1.30529e-05
1.31687e-05
1.32597e-05
1.33254e-05
1.33638e-05
1.33711e-05
1.33432e-05
1.32753e-05
1.31616e-05
1.29955e-05
1.27702e-05
1.24778e-05
1.21095e-05
1.16074e-05
1.17327e-05
1.18395e-05
1.19246e-05
1.19873e-05
1.20263e-05
1.20385e-05
1.20202e-05
1.19672e-05
1.18743e-05
1.17354e-05
1.15441e-05
1.12933e-05
1.09744e-05
1.05418e-05
1.06395e-05
1.07179e-05
1.07766e-05
1.08145e-05
1.08292e-05
1.08176e-05
1.0776e-05
1.06996e-05
1.0583e-05
1.04204e-05
1.02051e-05
9.92964e-06
9.46866e-06
9.55715e-06
9.62855e-06
9.68246e-06
9.71826e-06
9.73399e-06
9.72697e-06
9.69386e-06
9.6305e-06
9.53217e-06
9.39372e-06
9.20904e-06
8.50242e-06
8.58197e-06
8.64627e-06
8.69519e-06
8.72823e-06
8.74381e-06
8.73971e-06
8.71297e-06
8.66001e-06
8.57674e-06
8.4585e-06
8.29996e-06
7.63299e-06
7.70412e-06
7.76161e-06
7.80541e-06
7.83531e-06
7.85005e-06
7.84772e-06
7.82573e-06
7.78105e-06
7.71016e-06
7.60895e-06
7.47276e-06
6.85139e-06
6.91465e-06
6.96567e-06
7.00447e-06
7.0311e-06
7.0445e-06
7.04309e-06
7.02468e-06
6.98663e-06
6.92594e-06
6.8391e-06
6.72202e-06
6.20523e-06
6.25021e-06
6.28432e-06
6.30767e-06
6.31949e-06
6.31845e-06
6.30271e-06
6.27001e-06
6.21776e-06
6.14302e-06
6.0423e-06
5.56825e-06
5.60768e-06
5.6374e-06
5.65763e-06
5.66781e-06
5.66681e-06
5.65306e-06
5.62467e-06
5.57947e-06
5.51493e-06
5.42815e-06
4.99676e-06
5.03112e-06
5.05683e-06
5.07416e-06
5.08271e-06
5.0815e-06
5.06925e-06
5.0444e-06
5.0051e-06
4.94923e-06
4.87433e-06
4.48435e-06
4.51416e-06
4.53622e-06
4.55089e-06
4.55787e-06
4.55635e-06
4.54527e-06
4.52333e-06
4.48899e-06
4.44049e-06
4.37574e-06
4.02517e-06
4.05087e-06
4.06969e-06
4.08198e-06
4.08751e-06
4.08566e-06
4.07551e-06
4.05598e-06
4.02583e-06
3.98357e-06
3.92749e-06
3.6139e-06
3.636e-06
3.65196e-06
3.66212e-06
3.66632e-06
3.66411e-06
3.6547e-06
3.63722e-06
3.61062e-06
3.57369e-06
3.24574e-06
3.26468e-06
3.2781e-06
3.28639e-06
3.28945e-06
3.28689e-06
3.27809e-06
3.26232e-06
3.23875e-06
3.20637e-06
2.93255e-06
2.94376e-06
2.95042e-06
2.95248e-06
2.94959e-06
2.94129e-06
2.92699e-06
2.90599e-06
2.8775e-06
2.63565e-06
2.64494e-06
2.65017e-06
2.65135e-06
2.64821e-06
2.64034e-06
2.62728e-06
2.60848e-06
2.58329e-06
2.37014e-06
2.37778e-06
2.38181e-06
2.38227e-06
2.37892e-06
2.37146e-06
2.35951e-06
2.34261e-06
2.32026e-06
2.13223e-06
2.13849e-06
2.14153e-06
2.1414e-06
2.13794e-06
2.1309e-06
2.11997e-06
2.10479e-06
2.08494e-06
1.91827e-06
1.92334e-06
1.92558e-06
1.92504e-06
1.92158e-06
1.91501e-06
1.90507e-06
1.89148e-06
1.87392e-06
1.72532e-06
1.72937e-06
1.73094e-06
1.73007e-06
1.72667e-06
1.72057e-06
1.71158e-06
1.69947e-06
1.55172e-06
1.55489e-06
1.55585e-06
1.55467e-06
1.55127e-06
1.54554e-06
1.53733e-06
1.52648e-06
1.39642e-06
1.39879e-06
1.39917e-06
1.39764e-06
1.39417e-06
1.38866e-06
1.38102e-06
1.37113e-06
1.2601e-06
1.25994e-06
1.25805e-06
1.25443e-06
1.24902e-06
1.24173e-06
1.23254e-06
1.13666e-06
1.13599e-06
1.13374e-06
1.12994e-06
1.12453e-06
1.11745e-06
1.10876e-06
1.02798e-06
1.02721e-06
1.025e-06
1.02157e-06
1.01652e-06
1.00988e-06
1.00212e-06
9.42203e-07
9.41183e-07
9.38763e-07
9.35527e-07
9.30539e-07
9.23922e-07
9.16937e-07
8.72726e-07
8.71307e-07
8.68354e-07
8.64683e-07
8.59183e-07
8.51866e-07
8.07195e-07
8.06028e-07
8.03311e-07
7.99844e-07
7.94628e-07
7.87492e-07
7.42834e-07
7.41145e-07
7.3785e-07
7.3378e-07
7.2823e-07
7.20491e-07
6.83119e-07
6.82224e-07
6.79815e-07
6.76462e-07
6.71877e-07
6.65585e-07
6.18493e-07
6.15406e-07
6.10763e-07
6.05511e-07
5.99435e-07
5.90168e-07
5.76962e-07
5.77204e-07
5.75907e-07
5.72705e-07
5.68983e-07
5.65552e-07
4.90313e-07
4.83732e-07
4.78242e-07
4.71715e-07
4.57539e-07
5.19306e-07
5.22178e-07
5.19071e-07
5.18168e-07
5.27802e-07
4.08661e-07
4.09519e-07
4.1564e-07
4.13111e-07
3.96847e-07
6.19936e-07
6.37249e-07
6.35605e-07
6.43062e-07
6.76846e-07
6.94091e-07
7.14457e-07
7.4361e-07
9.91266e-07
1.04911e-06
1.01152e-06
9.60319e-07
)
;

boundaryField
{
    inlet
    {
        type            calculated;
        value           nonuniform List<scalar> 4(4.37798e-06 4.6585e-06 4.71824e-06 4.77336e-06);
    }
    outlet
    {
        type            calculated;
        value           nonuniform List<scalar> 0();
    }
    walls
    {
        type            calculated;
        value           uniform 0;
    }
    frontAndBack
    {
        type            empty;
    }
    procBoundary5to0
    {
        type            processor;
        value           nonuniform List<scalar> 4(0.000509984 0.000504001 0.00049741 0.000489197);
    }
    procBoundary5to1
    {
        type            processor;
        value           nonuniform List<scalar> 
13
(
0.00288488
0.00215683
0.00215683
0.00172483
0.0014561
0.0014561
0.00115751
0.000979211
0.000979211
0.000799132
0.000660849
0.000568089
0.000568089
)
;
    }
    procBoundary5to4
    {
        type            processor;
        value           nonuniform List<scalar> 
95
(
0.000514657
0.000518555
0.00052157
0.00052157
0.000446723
0.000447599
0.000447599
0.000386287
0.000385603
0.000385603
0.000334552
0.000334552
0.000291966
0.000291966
0.000256863
0.000226292
0.000226292
0.00020006
0.00020006
0.00017782
0.00015825
0.00015825
0.000141238
0.000126349
0.000126349
0.000113127
0.000101625
0.000101625
9.12174e-05
8.18892e-05
7.39309e-05
7.39309e-05
6.6484e-05
5.97837e-05
5.41668e-05
5.41668e-05
4.87617e-05
4.38895e-05
3.98607e-05
3.98607e-05
3.58997e-05
3.23229e-05
2.93985e-05
2.93985e-05
2.64746e-05
2.38328e-05
2.14471e-05
1.92937e-05
1.7563e-05
1.7563e-05
1.57958e-05
1.42013e-05
1.27636e-05
1.14681e-05
1.04279e-05
1.04279e-05
9.36563e-06
8.40979e-06
7.55015e-06
6.7776e-06
6.14931e-06
6.14931e-06
5.51904e-06
4.95359e-06
4.44661e-06
3.99228e-06
3.58531e-06
3.22094e-06
2.91639e-06
2.91639e-06
2.6219e-06
2.3585e-06
2.12241e-06
1.91001e-06
1.71843e-06
1.54601e-06
1.39177e-06
1.25847e-06
1.25847e-06
1.13568e-06
1.02725e-06
9.41711e-07
8.72529e-07
8.06794e-07
7.42895e-07
6.82525e-07
6.20206e-07
5.74923e-07
4.9562e-07
4.9562e-07
5.1513e-07
4.06094e-07
6.04608e-07
6.51196e-07
9.89337e-07
)
;
    }
    procBoundary5to6
    {
        type            processor;
        value           nonuniform List<scalar> 
86
(
25.414
9.51845
12.1067
12.4507
8.10787
1.8534
0.126206
0.00854388
0.000917964
0
0
2.5277e-06
3.85706e-05
8.12252e-05
7.48778e-05
6.0368e-05
5.27523e-05
5.13117e-05
5.1658e-05
5.13088e-05
4.9879e-05
4.78601e-05
4.56964e-05
4.35667e-05
4.14915e-05
3.9439e-05
3.73954e-05
3.53617e-05
3.33422e-05
3.13508e-05
2.9398e-05
2.74884e-05
2.56326e-05
2.52864e-05
2.52864e-05
2.344e-05
2.16672e-05
1.99741e-05
1.83655e-05
1.68439e-05
1.54117e-05
1.40697e-05
1.28177e-05
1.16544e-05
1.05777e-05
9.58475e-06
8.97133e-06
8.97133e-06
8.09512e-06
7.29637e-06
6.5702e-06
5.91164e-06
5.31575e-06
4.77754e-06
4.29235e-06
3.85559e-06
3.52501e-06
3.52501e-06
3.16402e-06
2.84053e-06
2.55092e-06
2.29181e-06
2.05991e-06
1.85194e-06
1.68397e-06
1.68397e-06
1.51277e-06
1.35884e-06
1.22133e-06
1.09834e-06
9.92781e-07
9.08602e-07
8.44561e-07
8.44561e-07
7.80181e-07
7.12716e-07
6.58284e-07
5.81993e-07
5.57604e-07
4.51036e-07
5.1764e-07
4.03076e-07
6.96359e-07
6.96359e-07
7.47002e-07
1.26412e-06
)
;
    }
}


// ************************************************************************* //
