/*--------------------------------*- C++ -*----------------------------------*\
| =========                 |                                                 |
| \\      /  F ield         | OpenFOAM: The Open Source CFD Toolbox           |
|  \\    /   O peration     | Version:  2306                                  |
|   \\  /    A nd           | Website:  www.openfoam.com                      |
|    \\/     M anipulation  |                                                 |
\*---------------------------------------------------------------------------*/
FoamFile
{
    version     2.0;
    format      ascii;
    arch        "LSB;label=32;scalar=64";
    class       volScalarField;
    location    "475";
    object      turbulenceProperties:nut;
}
// * * * * * * * * * * * * * * * * * * * * * * * * * * * * * * * * * * * * * //

dimensions      [0 2 -1 0 0 0 0];

internalField   nonuniform List<scalar> 
1340
(
2.5808e-05
2.95347e-05
3.45224e-05
4.0985e-05
4.93088e-05
6.00253e-05
7.38546e-05
9.11588e-05
0.000112975
0.000140349
0.000175234
0.000220745
0.000281312
0.000364892
0.000485068
0.000663861
0.000945884
0.00139526
0.00221738
0.00358943
0.00690168
0.0127117
0.0339124
0.0760454
0.0937377
0.0946687
0.0957097
0.0992369
0.102747
0.104483
0.104461
0.103213
0.100846
0.0974141
0.0927939
2.25824e-05
1.98038e-05
1.70736e-05
1.45837e-05
1.22497e-05
1.01071e-05
8.24451e-06
5.08548e-06
4.98033e-06
4.88546e-06
4.80683e-06
4.71662e-06
4.6338e-06
4.57245e-06
4.51875e-06
4.49564e-06
4.51593e-06
4.54347e-06
4.81844e-06
5.87875e-06
8.65249e-06
1.64109e-05
3.68059e-05
8.38847e-05
0.000162843
0.000315346
0.000588355
0.0013168
0.00282577
0.00708016
0.0204166
0.0394391
0.0632809
0.0925623
0.12371
0.14872
0.162657
0.167949
0.168777
0.167198
0.163853
0.159342
5.16908e-06
5.28233e-06
5.37884e-06
5.50984e-06
5.64412e-06
5.78001e-06
6.26616e-06
6.28349e-06
6.30147e-06
6.3208e-06
6.34449e-06
6.371e-06
6.40131e-06
6.43677e-06
6.47862e-06
6.52762e-06
6.58584e-06
6.65745e-06
6.73667e-06
6.88025e-06
6.88814e-06
6.46471e-06
5.01936e-06
3.8354e-06
5.49652e-08
0.000102155
3.45382e-05
0.00013608
0.000110882
0.000794218
0.00323565
0.00770571
0.0157447
0.0310429
0.0572655
0.0936737
0.132723
0.16446
0.184897
0.196752
0.20345
6.25289e-06
6.23387e-06
6.21932e-06
6.19774e-06
6.1792e-06
6.15928e-06
6.08613e-06
6.08373e-06
6.08313e-06
6.0835e-06
6.08442e-06
6.08709e-06
6.09198e-06
6.09872e-06
6.10877e-06
6.12237e-06
6.14033e-06
6.16383e-06
6.19444e-06
6.23325e-06
6.28432e-06
6.34169e-06
6.24293e-06
5.82689e-06
3.97641e-06
1.24e-06
5.27351e-18
3.13231e-06
1.22396e-06
0.000150732
0.0006753
0.00163707
0.00341152
0.000369407
0.00371525
0.013543
0.0355656
0.0727502
0.118821
0.16134
0.19323
6.0868e-06
6.08915e-06
6.09227e-06
6.09446e-06
6.09826e-06
6.11119e-06
6.11175e-06
6.11202e-06
6.11291e-06
6.11446e-06
6.11643e-06
6.1191e-06
6.12268e-06
6.12738e-06
6.13356e-06
6.14164e-06
6.15222e-06
6.1661e-06
6.18392e-06
6.20809e-06
6.23632e-06
6.28019e-06
6.32339e-06
6.49644e-06
6.30021e-06
3.48783e-06
3.85076e-07
8.86388e-09
1.73621e-10
0
0
0
4.81763e-05
0.000817999
0.00304937
0.000883019
0.00807798
0.0295656
0.0707413
0.124141
6.11124e-06
6.10986e-06
6.11056e-06
6.10951e-06
6.11039e-06
6.10507e-06
6.10485e-06
6.10514e-06
6.1054e-06
6.1055e-06
6.1059e-06
6.1065e-06
6.10727e-06
6.10849e-06
6.11018e-06
6.1125e-06
6.11572e-06
6.12008e-06
6.12599e-06
6.13411e-06
6.14495e-06
6.16045e-06
6.17579e-06
6.21064e-06
6.31096e-06
6.5192e-06
5.60595e-06
3.21333e-06
1.21899e-07
8.34037e-09
2.80521e-09
4.33193e-10
1.95146e-14
0
0
0.00018953
0.00184369
0.00038188
0.00876881
0.0380943
6.1046e-06
6.10391e-06
6.10482e-06
6.1046e-06
6.10531e-06
6.10553e-06
6.10569e-06
6.10573e-06
6.10586e-06
6.10595e-06
6.10612e-06
6.10646e-06
6.10694e-06
6.10765e-06
6.10869e-06
6.11015e-06
6.11221e-06
6.11509e-06
6.11904e-06
6.12461e-06
6.13215e-06
6.14035e-06
6.14902e-06
6.15809e-06
6.26089e-06
6.51688e-06
6.6086e-06
5.56767e-06
3.36294e-06
1.6912e-06
2.56548e-07
1.10483e-11
3.73735e-09
5.06555e-11
0
0
5.72137e-05
0.00206036
0.00166542
6.10484e-06
6.10378e-06
6.10417e-06
6.10385e-06
6.10488e-06
6.10502e-06
6.10531e-06
6.10529e-06
6.1051e-06
6.10498e-06
6.10482e-06
6.10466e-06
6.10461e-06
6.10462e-06
6.10471e-06
6.10494e-06
6.10531e-06
6.1059e-06
6.10679e-06
6.10816e-06
6.11016e-06
6.11281e-06
6.11501e-06
6.11594e-06
6.12344e-06
6.15681e-06
6.26551e-06
6.57678e-06
6.74168e-06
6.55194e-06
5.55073e-06
3.6983e-06
1.85964e-06
2.64157e-08
7.14341e-09
1.07006e-11
0
0
0.00040327
6.10429e-06
6.10315e-06
6.10315e-06
6.10273e-06
6.10481e-06
6.10494e-06
6.10509e-06
6.1049e-06
6.10472e-06
6.10444e-06
6.10421e-06
6.10409e-06
6.10396e-06
6.10391e-06
6.10393e-06
6.10403e-06
6.10426e-06
6.10466e-06
6.10528e-06
6.10623e-06
6.10765e-06
6.10957e-06
6.11143e-06
6.11305e-06
6.11355e-06
6.11824e-06
6.1147e-06
6.15157e-06
6.30813e-06
6.57864e-06
6.9741e-06
7.08515e-06
6.93101e-06
4.92282e-06
2.72941e-06
5.20916e-09
2.91559e-09
0
0
6.10424e-06
6.10298e-06
6.10263e-06
6.10416e-06
6.10388e-06
6.10358e-06
6.10335e-06
6.10314e-06
6.10296e-06
6.1028e-06
6.10269e-06
6.10261e-06
6.10255e-06
6.10253e-06
6.10252e-06
6.1026e-06
6.10268e-06
6.10291e-06
6.10351e-06
6.10427e-06
6.10741e-06
6.10924e-06
6.09734e-06
6.0938e-06
6.13678e-06
6.27898e-06
6.52682e-06
6.88936e-06
7.29052e-06
7.49584e-06
5.08074e-06
1.14546e-06
1.06622e-08
0
6.10302e-06
6.10282e-06
6.10263e-06
6.1025e-06
6.1024e-06
6.10234e-06
6.10232e-06
6.10236e-06
6.10246e-06
6.10267e-06
6.10299e-06
6.10349e-06
6.10407e-06
6.10464e-06
6.10504e-06
6.10563e-06
6.10821e-06
6.1083e-06
6.09925e-06
6.0855e-06
6.0814e-06
6.11739e-06
6.21143e-06
6.46332e-06
6.87246e-06
7.62315e-06
7.13522e-06
2.98672e-06
1.5244e-08
6.10214e-06
6.10201e-06
6.1019e-06
6.10182e-06
6.10175e-06
6.10172e-06
6.10172e-06
6.10176e-06
6.10184e-06
6.10197e-06
6.10219e-06
6.1026e-06
6.1032e-06
6.10381e-06
6.105e-06
6.10733e-06
6.10819e-06
6.10463e-06
6.09477e-06
6.08282e-06
6.07274e-06
6.09948e-06
6.17268e-06
6.50976e-06
7.20443e-06
7.74871e-06
3.86697e-06
6.10166e-06
6.1016e-06
6.10155e-06
6.10152e-06
6.10152e-06
6.10154e-06
6.10161e-06
6.10171e-06
6.10189e-06
6.10214e-06
6.10246e-06
6.10286e-06
6.10333e-06
6.10388e-06
6.10498e-06
6.10678e-06
6.10844e-06
6.10824e-06
6.10456e-06
6.09536e-06
6.08284e-06
6.06647e-06
6.07482e-06
6.25182e-06
6.78852e-06
8.45885e-06
6.10138e-06
6.10135e-06
6.10135e-06
6.10135e-06
6.10136e-06
6.1014e-06
6.10147e-06
6.10157e-06
6.10172e-06
6.10195e-06
6.10227e-06
6.1027e-06
6.1032e-06
6.10384e-06
6.10488e-06
6.10642e-06
6.10825e-06
6.10969e-06
6.10985e-06
6.10663e-06
6.09892e-06
6.07361e-06
6.05356e-06
6.08289e-06
6.67838e-06
6.10125e-06
6.10126e-06
6.10128e-06
6.10131e-06
6.10134e-06
6.10139e-06
6.10145e-06
6.10155e-06
6.10167e-06
6.10186e-06
6.10209e-06
6.10241e-06
6.10281e-06
6.1033e-06
6.10398e-06
6.10497e-06
6.10635e-06
6.10804e-06
6.11001e-06
6.11179e-06
6.1131e-06
6.11165e-06
6.08154e-06
6.10871e-06
5.63407e-06
6.10126e-06
6.1013e-06
6.10135e-06
6.10139e-06
6.10144e-06
6.10149e-06
6.10156e-06
6.10166e-06
6.1018e-06
6.10199e-06
6.10224e-06
6.10256e-06
6.10297e-06
6.10351e-06
6.10425e-06
6.10525e-06
6.10652e-06
6.10803e-06
6.11005e-06
6.11185e-06
6.11906e-06
6.10323e-06
6.16732e-06
5.81799e-06
6.10135e-06
6.10141e-06
6.10146e-06
6.10151e-06
6.10157e-06
6.10164e-06
6.10172e-06
6.10184e-06
6.10199e-06
6.10219e-06
6.10245e-06
6.10278e-06
6.10323e-06
6.10383e-06
6.10464e-06
6.10567e-06
6.10685e-06
6.1084e-06
6.1096e-06
6.11428e-06
6.11282e-06
6.12548e-06
6.19197e-06
6.10143e-06
6.1015e-06
6.10156e-06
6.10162e-06
6.10167e-06
6.10174e-06
6.10181e-06
6.10191e-06
6.10203e-06
6.1022e-06
6.10241e-06
6.10269e-06
6.10306e-06
6.10357e-06
6.10425e-06
6.10512e-06
6.10616e-06
6.1074e-06
6.10879e-06
6.10973e-06
6.11855e-06
6.08373e-06
6.31201e-06
6.10159e-06
6.10165e-06
6.10171e-06
6.10177e-06
6.10183e-06
6.1019e-06
6.10198e-06
6.10209e-06
6.10223e-06
6.1024e-06
6.10263e-06
6.10295e-06
6.10338e-06
6.10396e-06
6.10471e-06
6.10564e-06
6.10666e-06
6.10829e-06
6.10777e-06
6.11859e-06
6.08126e-06
6.24463e-06
6.10167e-06
6.10174e-06
6.10181e-06
6.10188e-06
6.10194e-06
6.10201e-06
6.10209e-06
6.10218e-06
6.1023e-06
6.10245e-06
6.10264e-06
6.1029e-06
6.10327e-06
6.10376e-06
6.10439e-06
6.10521e-06
6.1061e-06
6.10761e-06
6.10745e-06
6.11456e-06
6.09733e-06
6.1524e-06
6.10185e-06
6.10193e-06
6.102e-06
6.10207e-06
6.10214e-06
6.10222e-06
6.10231e-06
6.10242e-06
6.10255e-06
6.10271e-06
6.10293e-06
6.10324e-06
6.10366e-06
6.1042e-06
6.1049e-06
6.1057e-06
6.10689e-06
6.10755e-06
6.11041e-06
6.11e-06
6.10404e-06
6.10195e-06
6.10204e-06
6.10211e-06
6.10219e-06
6.10227e-06
6.10235e-06
6.10243e-06
6.10253e-06
6.10266e-06
6.1028e-06
6.10299e-06
6.10326e-06
6.10362e-06
6.10409e-06
6.10469e-06
6.10542e-06
6.10634e-06
6.10747e-06
6.1081e-06
6.11389e-06
6.09442e-06
6.10215e-06
6.10224e-06
6.10232e-06
6.1024e-06
6.10249e-06
6.10258e-06
6.10267e-06
6.10279e-06
6.10292e-06
6.10309e-06
6.10332e-06
6.10363e-06
6.10404e-06
6.10457e-06
6.10523e-06
6.10598e-06
6.10716e-06
6.10736e-06
6.11263e-06
6.1003e-06
6.10226e-06
6.10236e-06
6.10245e-06
6.10254e-06
6.10263e-06
6.10272e-06
6.10282e-06
6.10293e-06
6.10305e-06
6.1032e-06
6.10341e-06
6.10368e-06
6.10404e-06
6.1045e-06
6.10509e-06
6.10576e-06
6.10678e-06
6.10728e-06
6.11034e-06
6.10684e-06
6.10237e-06
6.10248e-06
6.10258e-06
6.10268e-06
6.10278e-06
6.10287e-06
6.10297e-06
6.10308e-06
6.1032e-06
6.10334e-06
6.10352e-06
6.10377e-06
6.10408e-06
6.10449e-06
6.10501e-06
6.10563e-06
6.10646e-06
6.10725e-06
6.10876e-06
6.10982e-06
6.1026e-06
6.10271e-06
6.10282e-06
6.10293e-06
6.10303e-06
6.10313e-06
6.10325e-06
6.10336e-06
6.1035e-06
6.10366e-06
6.10388e-06
6.10416e-06
6.10452e-06
6.10498e-06
6.10555e-06
6.10625e-06
6.10713e-06
6.10802e-06
6.11016e-06
6.10272e-06
6.10285e-06
6.10296e-06
6.10308e-06
6.10319e-06
6.1033e-06
6.10342e-06
6.10354e-06
6.10367e-06
6.10383e-06
6.10402e-06
6.10428e-06
6.1046e-06
6.10501e-06
6.10552e-06
6.10614e-06
6.10697e-06
6.10774e-06
6.10956e-06
6.10284e-06
6.10298e-06
6.1031e-06
6.10322e-06
6.10334e-06
6.10346e-06
6.10359e-06
6.10371e-06
6.10384e-06
6.10399e-06
6.10418e-06
6.10441e-06
6.10471e-06
6.10508e-06
6.10554e-06
6.1061e-06
6.10684e-06
6.10762e-06
6.10895e-06
6.1031e-06
6.10324e-06
6.10337e-06
6.1035e-06
6.10363e-06
6.10376e-06
6.10389e-06
6.10402e-06
6.10417e-06
6.10435e-06
6.10456e-06
6.10483e-06
6.10517e-06
6.10559e-06
6.10611e-06
6.10677e-06
6.10754e-06
6.10859e-06
6.10323e-06
6.10337e-06
6.10352e-06
6.10366e-06
6.10379e-06
6.10393e-06
6.10407e-06
6.1042e-06
6.10435e-06
6.10452e-06
6.10473e-06
6.10498e-06
6.10529e-06
6.10567e-06
6.10615e-06
6.10675e-06
6.10748e-06
6.1084e-06
6.10335e-06
6.10351e-06
6.10366e-06
6.10381e-06
6.10396e-06
6.10411e-06
6.10425e-06
6.10439e-06
6.10454e-06
6.10471e-06
6.10491e-06
6.10514e-06
6.10543e-06
6.10579e-06
6.10623e-06
6.10678e-06
6.10745e-06
6.10831e-06
6.10364e-06
6.10381e-06
6.10396e-06
6.10412e-06
6.10428e-06
6.10443e-06
6.10458e-06
6.10474e-06
6.1049e-06
6.10509e-06
6.10532e-06
6.10559e-06
6.10593e-06
6.10633e-06
6.10684e-06
6.10746e-06
6.10827e-06
6.10377e-06
6.10395e-06
6.10412e-06
6.10429e-06
6.10445e-06
6.10462e-06
6.10477e-06
6.10493e-06
6.1051e-06
6.10529e-06
6.10551e-06
6.10577e-06
6.10608e-06
6.10647e-06
6.10694e-06
6.10751e-06
6.10827e-06
6.1039e-06
6.10409e-06
6.10427e-06
6.10445e-06
6.10463e-06
6.1048e-06
6.10496e-06
6.10513e-06
6.1053e-06
6.10549e-06
6.10571e-06
6.10596e-06
6.10626e-06
6.10662e-06
6.10706e-06
6.10759e-06
6.10422e-06
6.10442e-06
6.10461e-06
6.1048e-06
6.10498e-06
6.10515e-06
6.10532e-06
6.1055e-06
6.10569e-06
6.10591e-06
6.10615e-06
6.10644e-06
6.10679e-06
6.1072e-06
6.1077e-06
6.10436e-06
6.10457e-06
6.10477e-06
6.10497e-06
6.10516e-06
6.10534e-06
6.10552e-06
6.10571e-06
6.1059e-06
6.10612e-06
6.10636e-06
6.10664e-06
6.10697e-06
6.10737e-06
6.10784e-06
6.10449e-06
6.10471e-06
6.10492e-06
6.10513e-06
6.10534e-06
6.10553e-06
6.10572e-06
6.10591e-06
6.10611e-06
6.10633e-06
6.10657e-06
6.10685e-06
6.10717e-06
6.10755e-06
6.108e-06
6.10461e-06
6.10484e-06
6.10507e-06
6.10529e-06
6.10551e-06
6.10571e-06
6.10591e-06
6.10611e-06
6.10632e-06
6.10654e-06
6.10679e-06
6.10707e-06
6.10738e-06
6.10775e-06
6.10818e-06
6.10473e-06
6.10497e-06
6.10521e-06
6.10545e-06
6.10567e-06
6.10589e-06
6.1061e-06
6.10631e-06
6.10652e-06
6.10676e-06
6.10701e-06
6.10728e-06
6.10759e-06
6.10795e-06
6.10837e-06
6.10509e-06
6.10534e-06
6.10559e-06
6.10583e-06
6.10606e-06
6.10627e-06
6.10649e-06
6.10672e-06
6.10696e-06
6.10722e-06
6.1075e-06
6.10781e-06
6.10817e-06
6.10857e-06
6.10519e-06
6.10546e-06
6.10572e-06
6.10597e-06
6.10621e-06
6.10644e-06
6.10667e-06
6.10691e-06
6.10716e-06
6.10743e-06
6.10771e-06
6.10803e-06
6.10838e-06
6.10878e-06
6.10528e-06
6.10556e-06
6.10583e-06
6.1061e-06
6.10634e-06
6.10659e-06
6.10683e-06
6.10708e-06
6.10734e-06
6.10762e-06
6.10792e-06
6.10824e-06
6.10859e-06
6.10899e-06
6.10534e-06
6.10563e-06
6.10592e-06
6.1062e-06
6.10646e-06
6.10671e-06
6.10697e-06
6.10724e-06
6.10751e-06
6.1078e-06
6.1081e-06
6.10843e-06
6.1088e-06
6.10919e-06
6.10537e-06
6.10568e-06
6.10598e-06
6.10627e-06
6.10655e-06
6.10682e-06
6.10709e-06
6.10736e-06
6.10765e-06
6.10795e-06
6.10827e-06
6.10861e-06
6.10898e-06
6.10939e-06
6.1057e-06
6.10601e-06
6.10632e-06
6.10661e-06
6.10689e-06
6.10717e-06
6.10746e-06
6.10777e-06
6.10808e-06
6.10841e-06
6.10877e-06
6.10915e-06
6.10956e-06
6.10567e-06
6.106e-06
6.10632e-06
6.10663e-06
6.10692e-06
6.10722e-06
6.10753e-06
6.10785e-06
6.10818e-06
6.10852e-06
6.10889e-06
6.10929e-06
6.10561e-06
6.10595e-06
6.10629e-06
6.1066e-06
6.10691e-06
6.10723e-06
6.10755e-06
6.10789e-06
6.10823e-06
6.1086e-06
6.10898e-06
6.10939e-06
6.1055e-06
6.10586e-06
6.1062e-06
6.10653e-06
6.10686e-06
6.10719e-06
6.10753e-06
6.10788e-06
6.10825e-06
6.10863e-06
6.10903e-06
6.10945e-06
6.10533e-06
6.1057e-06
6.10606e-06
6.10641e-06
6.10675e-06
6.10709e-06
6.10745e-06
6.10782e-06
6.1082e-06
6.1086e-06
6.10902e-06
6.10947e-06
6.10548e-06
6.10586e-06
6.10622e-06
6.10657e-06
6.10694e-06
6.10731e-06
6.1077e-06
6.1081e-06
6.10852e-06
6.10896e-06
6.10943e-06
6.10519e-06
6.10559e-06
6.10596e-06
6.10633e-06
6.10671e-06
6.1071e-06
6.10751e-06
6.10793e-06
6.10837e-06
6.10883e-06
6.10932e-06
6.10483e-06
6.10523e-06
6.10562e-06
6.10601e-06
6.1064e-06
6.10681e-06
6.10724e-06
6.10768e-06
6.10814e-06
6.10862e-06
6.10913e-06
6.10437e-06
6.10479e-06
6.1052e-06
6.1056e-06
6.10601e-06
6.10644e-06
6.10688e-06
6.10734e-06
6.10783e-06
6.10833e-06
6.10886e-06
6.10382e-06
6.10426e-06
6.10468e-06
6.10509e-06
6.10552e-06
6.10597e-06
6.10643e-06
6.10691e-06
6.10742e-06
6.10794e-06
6.1085e-06
6.10317e-06
6.10362e-06
6.10406e-06
6.10449e-06
6.10493e-06
6.10539e-06
6.10588e-06
6.10638e-06
6.1069e-06
6.10745e-06
6.10242e-06
6.10288e-06
6.10333e-06
6.10377e-06
6.10423e-06
6.10471e-06
6.10521e-06
6.10573e-06
6.10628e-06
6.10685e-06
6.10204e-06
6.1025e-06
6.10295e-06
6.10343e-06
6.10392e-06
6.10444e-06
6.10498e-06
6.10554e-06
6.10613e-06
6.10109e-06
6.10156e-06
6.10203e-06
6.10252e-06
6.10303e-06
6.10356e-06
6.10411e-06
6.10469e-06
6.1053e-06
6.1e-06
6.10049e-06
6.10097e-06
6.10147e-06
6.102e-06
6.10255e-06
6.10313e-06
6.10373e-06
6.10436e-06
6.09872e-06
6.09921e-06
6.09971e-06
6.10023e-06
6.10078e-06
6.10136e-06
6.10196e-06
6.10259e-06
6.10324e-06
6.09713e-06
6.09763e-06
6.09814e-06
6.09868e-06
6.09925e-06
6.09986e-06
6.10049e-06
6.10116e-06
6.10186e-06
6.09518e-06
6.09568e-06
6.09619e-06
6.09674e-06
6.09734e-06
6.09796e-06
6.09863e-06
6.09934e-06
6.09294e-06
6.09342e-06
6.09392e-06
6.09447e-06
6.09506e-06
6.09569e-06
6.09637e-06
6.0971e-06
6.09056e-06
6.09101e-06
6.0915e-06
6.09202e-06
6.09259e-06
6.0932e-06
6.09387e-06
6.09458e-06
6.08858e-06
6.08904e-06
6.08954e-06
6.09008e-06
6.09066e-06
6.09129e-06
6.09197e-06
6.0861e-06
6.08654e-06
6.08701e-06
6.08753e-06
6.08809e-06
6.08869e-06
6.08934e-06
6.08348e-06
6.08391e-06
6.08438e-06
6.0849e-06
6.08546e-06
6.08606e-06
6.08671e-06
6.08095e-06
6.08137e-06
6.08184e-06
6.08235e-06
6.08292e-06
6.08354e-06
6.08419e-06
6.07863e-06
6.07902e-06
6.07944e-06
6.07992e-06
6.08046e-06
6.08103e-06
6.07632e-06
6.07665e-06
6.07702e-06
6.07744e-06
6.07792e-06
6.07842e-06
6.07399e-06
6.07427e-06
6.07458e-06
6.07494e-06
6.07536e-06
6.07578e-06
6.07183e-06
6.07202e-06
6.07224e-06
6.07251e-06
6.07284e-06
6.07316e-06
6.0706e-06
6.07064e-06
6.07069e-06
6.07075e-06
6.07087e-06
6.071e-06
6.07204e-06
6.07197e-06
6.07188e-06
6.07176e-06
6.07161e-06
6.07151e-06
6.07471e-06
6.07466e-06
6.07459e-06
6.07444e-06
6.07434e-06
6.0778e-06
6.07783e-06
6.07779e-06
6.07765e-06
6.07764e-06
6.08102e-06
6.08117e-06
6.08135e-06
6.08147e-06
6.08156e-06
6.08444e-06
6.08467e-06
6.08472e-06
6.08461e-06
6.08688e-06
6.08769e-06
6.08871e-06
6.08978e-06
6.09831e-06
6.09888e-06
6.09946e-06
6.09971e-06
)
;

boundaryField
{
    inlet
    {
        type            freestream;
        freestreamValue uniform 1e-05;
        value           nonuniform List<scalar> 4(6.09831e-06 6.09888e-06 6.09946e-06 6.09971e-06);
    }
    outlet
    {
        type            freestream;
        freestreamValue nonuniform List<scalar> 0();
        value           nonuniform List<scalar> 0();
    }
    walls
    {
        type            nutUSpaldingWallFunction;
        value           nonuniform List<scalar> 
42
(
0.00322601
0.0034524
0.00368872
0.00387634
0.00405219
0.00420684
0.0043273
0.00441983
0.00448689
0.00452662
0.00454633
0.00454453
0.00451587
0.00446256
0.00438034
0.00426716
0.00411653
0.00392205
0.00367028
0.00334991
0.0029442
0.00245302
0.00192321
0.00152441
0.00136091
0.00143237
0.00158959
0.00175279
0.0018856
0.00197348
0.00202073
0.00203751
0.00201932
0.00196919
0.00188442
0.00298579
0.00271396
0.00241518
0.00204551
0.00164353
0.00120845
0.000769901
)
;
    }
    frontAndBack
    {
        type            empty;
    }
    procBoundary5to0
    {
        type            processor;
        value           nonuniform List<scalar> 4(6.10473e-06 6.10423e-06 6.10296e-06 6.10231e-06);
    }
    procBoundary5to1
    {
        type            processor;
        value           nonuniform List<scalar> 
13
(
6.96116e-06
5.91116e-06
5.91116e-06
6.14154e-06
6.1003e-06
6.1003e-06
6.10918e-06
6.1063e-06
6.1063e-06
6.1055e-06
6.10435e-06
6.10205e-06
6.10205e-06
)
;
    }
    procBoundary5to4
    {
        type            processor;
        value           nonuniform List<scalar> 
95
(
6.10474e-06
6.10475e-06
6.10447e-06
6.10447e-06
6.10365e-06
6.10332e-06
6.10332e-06
6.10253e-06
6.10232e-06
6.10232e-06
6.10176e-06
6.10176e-06
6.10141e-06
6.10141e-06
6.10124e-06
6.10121e-06
6.10121e-06
6.10129e-06
6.10129e-06
6.10135e-06
6.10151e-06
6.10151e-06
6.10158e-06
6.10176e-06
6.10176e-06
6.10185e-06
6.10205e-06
6.10205e-06
6.10215e-06
6.10226e-06
6.10249e-06
6.10249e-06
6.1026e-06
6.10271e-06
6.10296e-06
6.10296e-06
6.10308e-06
6.10319e-06
6.10347e-06
6.10347e-06
6.10359e-06
6.10371e-06
6.10403e-06
6.10403e-06
6.10415e-06
6.10426e-06
6.10438e-06
6.10448e-06
6.10483e-06
6.10483e-06
6.10492e-06
6.10499e-06
6.10504e-06
6.10506e-06
6.10537e-06
6.10537e-06
6.10534e-06
6.10526e-06
6.10513e-06
6.10495e-06
6.10509e-06
6.10509e-06
6.10479e-06
6.10441e-06
6.10394e-06
6.10338e-06
6.10272e-06
6.10195e-06
6.10157e-06
6.10157e-06
6.1006e-06
6.09951e-06
6.09821e-06
6.09662e-06
6.09469e-06
6.09247e-06
6.09011e-06
6.08815e-06
6.08815e-06
6.08569e-06
6.08308e-06
6.08057e-06
6.07829e-06
6.07602e-06
6.07374e-06
6.07166e-06
6.07057e-06
6.0721e-06
6.07473e-06
6.07473e-06
6.07776e-06
6.08084e-06
6.08424e-06
6.08604e-06
6.09761e-06
)
;
    }
    procBoundary5to6
    {
        type            processor;
        value           nonuniform List<scalar> 
86
(
0.0869134
0.153841
0.206329
0.215359
0.175058
0.0932691
0.0215032
0.000859448
0.000191171
0
0
9.66474e-09
2.30317e-06
1.02e-05
9.22312e-06
6.4514e-06
5.26752e-06
5.30954e-06
5.74333e-06
6.07661e-06
6.19488e-06
6.18555e-06
6.14616e-06
6.11948e-06
6.10951e-06
6.10824e-06
6.10918e-06
6.10978e-06
6.10979e-06
6.10955e-06
6.10931e-06
6.10915e-06
6.10907e-06
6.1083e-06
6.1083e-06
6.10836e-06
6.10846e-06
6.10858e-06
6.10873e-06
6.10889e-06
6.10908e-06
6.10927e-06
6.10947e-06
6.10967e-06
6.10986e-06
6.11004e-06
6.10971e-06
6.10971e-06
6.10983e-06
6.10991e-06
6.10994e-06
6.10992e-06
6.10983e-06
6.10967e-06
6.10942e-06
6.10908e-06
6.10803e-06
6.10803e-06
6.10745e-06
6.10675e-06
6.10594e-06
6.10502e-06
6.10393e-06
6.10259e-06
6.10008e-06
6.10008e-06
6.09787e-06
6.09534e-06
6.0927e-06
6.09003e-06
6.08739e-06
6.0849e-06
6.08166e-06
6.08166e-06
6.07898e-06
6.07626e-06
6.07354e-06
6.07117e-06
6.07139e-06
6.07421e-06
6.07753e-06
6.08166e-06
6.08489e-06
6.08489e-06
6.0905e-06
6.10004e-06
)
;
    }
}


// ************************************************************************* //
