/*--------------------------------*- C++ -*----------------------------------*\
| =========                 |                                                 |
| \\      /  F ield         | OpenFOAM: The Open Source CFD Toolbox           |
|  \\    /   O peration     | Version:  2306                                  |
|   \\  /    A nd           | Website:  www.openfoam.com                      |
|    \\/     M anipulation  |                                                 |
\*---------------------------------------------------------------------------*/
FoamFile
{
    version     2.0;
    format      ascii;
    arch        "LSB;label=32;scalar=64";
    class       volScalarField;
    location    "475";
    object      turbulenceProperties:epsilon;
}
// * * * * * * * * * * * * * * * * * * * * * * * * * * * * * * * * * * * * * //

dimensions      [0 2 -3 0 0 0 0];

internalField   nonuniform List<scalar> 
1340
(
0.259337
0.340058
0.452943
0.623532
0.840154
1.1348
1.53073
2.0349
2.68401
3.51442
4.57782
5.96433
7.80215
10.2908
13.7709
18.7577
26.236
37.3536
56.0413
83.0174
139.625
211.744
435.001
739.163
736.472
667.481
637.521
637.509
643.407
639.739
623.072
593.539
548.564
489.473
416.599
0.194102
0.147051
0.100346
0.0666539
0.0405369
0.0221682
0.0111769
0.00736068
0.00727969
0.00711408
0.00670935
0.0061062
0.00544777
0.00471907
0.00396206
0.00327805
0.00267032
0.00214888
0.00181988
0.00177254
0.00210475
0.00330682
0.0067098
0.0165566
0.0442169
0.139002
0.449716
1.75203
6.24503
23.3909
83.5168
166.206
235.118
278.389
285.104
251.017
193.171
135.863
91.8936
63.4931
45.7215
34.2678
0.00722705
0.0070314
0.00664091
0.00608257
0.00535916
0.00447577
0.00330241
0.00325028
0.00310515
0.00288981
0.00267285
0.00244421
0.00222347
0.00203384
0.00187744
0.00176035
0.00167224
0.00162239
0.00160871
0.00163547
0.0016444
0.00154821
0.00119001
0.000880756
7.75983e-06
0.0162179
0.00436643
0.0062635
0.000113605
0.0324835
0.554508
2.59062
7.90129
20.0344
42.1714
70.3791
91.4695
94.1572
80.0573
60.6657
44.1672
0.00335422
0.0033462
0.00332863
0.00321141
0.00300838
0.00268226
0.00235402
0.00236378
0.0023401
0.0023013
0.00222224
0.00210713
0.0019679
0.00180075
0.0016188
0.00142882
0.00123791
0.00105123
0.000872799
0.000707432
0.000557483
0.000419445
0.000301545
0.00021206
0.000121757
3.74143e-05
8.65052e-18
0.000207893
0.000100721
0.0111693
0.0369814
0.0537727
0.0482402
0.000789265
0.0164074
0.440436
3.20079
11.6267
25.009
35.466
37.1686
0.00230377
0.00222869
0.00211335
0.0019785
0.0018157
0.00132482
0.00132014
0.0012996
0.00126338
0.00120833
0.00113566
0.00105084
0.000956771
0.000858101
0.000761854
0.000671392
0.000589994
0.000520286
0.000462945
0.000417784
0.000381618
0.000345341
0.000303468
0.00026194
0.000207579
9.39595e-05
8.17137e-06
1.42035e-07
2.21195e-09
0
0
0
0.00222383
0.0305021
0.0884572
0.0130609
0.0159606
0.169575
2.42004
9.07868
0.00131797
0.00129939
0.00126279
0.00120527
0.00112645
0.000890098
0.000897706
0.000896981
0.000890587
0.000873176
0.000845325
0.000808728
0.000762612
0.000708804
0.000649674
0.00058667
0.000522166
0.000458395
0.000396983
0.000339297
0.000284287
0.000229909
0.000180052
0.000138744
0.0001072
8.49173e-05
5.84306e-05
2.93705e-05
8.26176e-07
4.28215e-08
1.25606e-08
1.53278e-09
2.15367e-14
0
0
0.0032342
0.0338704
0.00550108
0.0421663
0.0463764
0.000874042
0.00085209
0.000820656
0.000780079
0.00058246
0.000587587
0.000588407
0.000585433
0.000576144
0.000560234
0.000538358
0.000510265
0.000476733
0.000439275
0.00039912
0.000357819
0.000317053
0.000278194
0.000242175
0.00021001
0.000182834
0.000159206
0.000136757
0.000115158
9.65143e-05
8.2073e-05
6.8067e-05
4.65369e-05
2.18756e-05
8.00349e-06
7.50585e-07
7.30686e-12
4.48484e-09
3.64047e-11
0
0
0.000403159
0.0178977
0.0124767
0.000572936
0.000560161
0.000541835
0.000517097
0.000400124
0.000405605
0.000408877
0.0004102
0.000407957
0.000401861
0.000392237
0.000378527
0.000360952
0.000340167
0.00031647
0.000290682
0.000263657
0.000236154
0.000208924
0.000182707
0.000157344
0.00013247
0.000109443
8.96709e-05
7.39138e-05
6.23618e-05
5.44087e-05
4.86467e-05
4.03569e-05
2.94592e-05
1.76214e-05
8.11318e-06
2.85342e-06
1.97495e-08
3.81172e-09
2.35389e-12
0
0
0.001184
0.000391959
0.000382231
0.000369381
0.000352666
0.000278424
0.000282829
0.000286061
0.000288089
0.000288015
0.000285549
0.000280778
0.000273243
0.000262995
0.000250287
0.00023528
0.00021842
0.000200249
0.000181297
0.000162183
0.000143375
0.000125408
0.000108978
9.40592e-05
8.0555e-05
6.85994e-05
5.85838e-05
5.04133e-05
4.35333e-05
3.69846e-05
3.00961e-05
2.36041e-05
1.74128e-05
1.25384e-05
6.61707e-06
2.71745e-06
2.05651e-09
9.22084e-10
0
0
0.000272442
0.000265599
0.000256885
0.000208084
0.000207795
0.000206066
0.000202535
0.000197192
0.000190107
0.000181269
0.000170897
0.000159263
0.000146657
0.00013344
0.000119952
0.000106597
9.34611e-05
8.07414e-05
6.90234e-05
5.88337e-05
5.04214e-05
4.36002e-05
3.75749e-05
3.1557e-05
2.54405e-05
1.99541e-05
1.57039e-05
1.27538e-05
1.05574e-05
8.5194e-06
4.49633e-06
7.33702e-07
3.42873e-09
0
0.000152072
0.000150546
0.000147767
0.000143751
0.000138432
0.000131905
0.000124303
0.000115783
0.000106587
9.69672e-05
8.71737e-05
7.75131e-05
6.82552e-05
5.95983e-05
5.17874e-05
4.4954e-05
3.90803e-05
3.37648e-05
2.84201e-05
2.29307e-05
1.78419e-05
1.38173e-05
1.09769e-05
9.12963e-06
7.85362e-06
7.09878e-06
5.43139e-06
1.82919e-06
4.57734e-09
0.000111884
0.000109782
0.000106741
0.000102791
9.79819e-05
9.2393e-05
8.61546e-05
7.9422e-05
7.23783e-05
6.52408e-05
5.81234e-05
5.12316e-05
4.48767e-05
3.92327e-05
3.42859e-05
2.9776e-05
2.52908e-05
2.06939e-05
1.63349e-05
1.27212e-05
1.00264e-05
8.10554e-06
6.69778e-06
5.84704e-06
5.43216e-06
4.99922e-06
2.09259e-06
8.41486e-05
8.24673e-05
8.01127e-05
7.70922e-05
7.34307e-05
6.92058e-05
6.45124e-05
5.9464e-05
5.423e-05
4.89403e-05
4.37341e-05
3.88002e-05
3.42765e-05
3.0169e-05
2.63354e-05
2.25305e-05
1.86632e-05
1.49718e-05
1.18321e-05
9.40854e-06
7.59347e-06
6.20246e-06
5.15341e-06
4.47345e-06
4.20896e-06
4.58383e-06
6.40111e-05
6.26707e-05
6.08313e-05
5.8494e-05
5.56911e-05
5.24745e-05
4.8912e-05
4.51245e-05
4.12005e-05
3.72304e-05
3.33575e-05
2.97246e-05
2.63502e-05
2.3148e-05
1.99622e-05
1.67324e-05
1.36277e-05
1.09323e-05
8.79751e-06
7.15934e-06
5.88266e-06
4.87319e-06
4.09911e-06
3.56658e-06
3.44919e-06
4.98488e-05
4.91436e-05
4.80639e-05
4.66007e-05
4.47623e-05
4.25787e-05
4.00917e-05
3.73702e-05
3.44939e-05
3.15239e-05
2.85424e-05
2.56721e-05
2.29382e-05
2.02929e-05
1.76447e-05
1.49578e-05
1.23529e-05
1.00467e-05
8.17433e-06
6.70916e-06
5.55368e-06
4.63868e-06
3.90528e-06
3.39579e-06
2.75323e-06
3.86404e-05
3.80463e-05
3.71611e-05
3.59885e-05
3.45354e-05
3.28246e-05
3.08938e-05
2.88081e-05
2.65999e-05
2.43199e-05
2.2067e-05
1.98728e-05
1.77143e-05
1.55351e-05
1.33161e-05
1.11453e-05
9.18629e-06
7.55547e-06
6.25214e-06
5.20963e-06
4.38027e-06
3.71019e-06
3.24987e-06
2.69777e-06
3.0164e-05
2.96601e-05
2.89343e-05
2.79865e-05
2.68266e-05
2.54747e-05
2.39768e-05
2.23541e-05
2.06346e-05
1.88874e-05
1.7147e-05
1.54057e-05
1.36302e-05
1.18106e-05
1.00129e-05
8.36015e-06
6.95065e-06
5.79945e-06
4.86448e-06
4.11087e-06
3.50473e-06
3.05025e-06
2.71844e-06
2.39564e-05
2.36953e-05
2.32668e-05
2.26662e-05
2.18967e-05
2.09654e-05
1.99027e-05
1.87233e-05
1.74414e-05
1.60993e-05
1.47338e-05
1.33452e-05
1.19127e-05
1.04328e-05
8.95466e-06
7.57097e-06
6.36313e-06
5.35469e-06
4.52288e-06
3.84138e-06
3.29456e-06
2.85165e-06
2.61141e-06
1.89447e-05
1.87125e-05
1.8348e-05
1.78505e-05
1.72225e-05
1.6479e-05
1.56324e-05
1.4688e-05
1.36687e-05
1.26099e-05
1.15153e-05
1.03713e-05
9.17743e-06
7.97082e-06
6.82139e-06
5.79532e-06
4.91973e-06
4.18561e-06
3.57499e-06
3.08061e-06
2.6719e-06
2.42333e-06
1.51631e-05
1.50562e-05
1.48499e-05
1.454e-05
1.41263e-05
1.36137e-05
1.30144e-05
1.23282e-05
1.15641e-05
1.0752e-05
9.89832e-06
8.99392e-06
8.03921e-06
7.06202e-06
6.11481e-06
5.25067e-06
4.49714e-06
3.85427e-06
3.31218e-06
2.8655e-06
2.50007e-06
2.2297e-06
1.21174e-05
1.20145e-05
1.1832e-05
1.15681e-05
1.12233e-05
1.08074e-05
1.03159e-05
9.7509e-06
9.13541e-06
8.47714e-06
7.76961e-06
7.01286e-06
6.22777e-06
5.45351e-06
4.73211e-06
4.08947e-06
3.53113e-06
3.05378e-06
2.65257e-06
2.32694e-06
2.05652e-06
9.7557e-06
9.71873e-06
9.62181e-06
9.46205e-06
9.23717e-06
8.95369e-06
8.60685e-06
8.19527e-06
7.73483e-06
7.23293e-06
6.68558e-06
6.09169e-06
5.46632e-06
4.83882e-06
4.242e-06
3.69888e-06
3.21819e-06
2.80101e-06
2.44407e-06
2.1522e-06
1.89983e-06
7.86129e-06
7.81999e-06
7.73052e-06
7.58976e-06
7.40135e-06
7.16156e-06
6.86703e-06
6.52731e-06
6.14941e-06
5.73067e-06
5.26914e-06
4.77542e-06
4.27133e-06
3.78207e-06
3.32739e-06
2.91721e-06
2.55533e-06
2.24069e-06
1.97871e-06
1.75083e-06
6.35805e-06
6.35207e-06
6.30932e-06
6.227e-06
6.10637e-06
5.94461e-06
5.73821e-06
5.49124e-06
5.21049e-06
4.89366e-06
4.53858e-06
4.1524e-06
3.75111e-06
3.35367e-06
2.97663e-06
2.62979e-06
2.31848e-06
2.04337e-06
1.80931e-06
1.6052e-06
5.14211e-06
5.15733e-06
5.14488e-06
5.10223e-06
5.02886e-06
4.92355e-06
4.78197e-06
4.60527e-06
4.3995e-06
4.16306e-06
3.89304e-06
3.59403e-06
3.27754e-06
2.95774e-06
2.64792e-06
2.35733e-06
2.09176e-06
1.85307e-06
1.64564e-06
1.4629e-06
4.18551e-06
4.19192e-06
4.17537e-06
4.13459e-06
4.06916e-06
3.97517e-06
3.85135e-06
3.70311e-06
3.5289e-06
3.32578e-06
3.09647e-06
2.84917e-06
2.59435e-06
2.34223e-06
2.10098e-06
1.87632e-06
1.67092e-06
1.48835e-06
1.32525e-06
3.3955e-06
3.41289e-06
3.41294e-06
3.39425e-06
3.35655e-06
3.29655e-06
3.21214e-06
3.10721e-06
2.98074e-06
2.82981e-06
2.65586e-06
2.46452e-06
2.26333e-06
2.06014e-06
1.86167e-06
1.67322e-06
1.4978e-06
1.33856e-06
1.19349e-06
2.75356e-06
2.77655e-06
2.78672e-06
2.7825e-06
2.76379e-06
2.72765e-06
2.67199e-06
2.59925e-06
2.50894e-06
2.39838e-06
2.26789e-06
2.12136e-06
1.96405e-06
1.80177e-06
1.64003e-06
1.48335e-06
1.33453e-06
1.1968e-06
1.06863e-06
2.25747e-06
2.2732e-06
2.27803e-06
2.27177e-06
2.25215e-06
2.21702e-06
2.16813e-06
2.10484e-06
2.0249e-06
1.92816e-06
1.81712e-06
1.69533e-06
1.56696e-06
1.43628e-06
1.30712e-06
1.18201e-06
1.06356e-06
9.51308e-07
1.83431e-06
1.85259e-06
1.86265e-06
1.86432e-06
1.8558e-06
1.83516e-06
1.80341e-06
1.76009e-06
1.70327e-06
1.63248e-06
1.54919e-06
1.45578e-06
1.35518e-06
1.25055e-06
1.1449e-06
1.0405e-06
9.3952e-07
8.41821e-07
1.48956e-06
1.50841e-06
1.52116e-06
1.52758e-06
1.52627e-06
1.51563e-06
1.49607e-06
1.46722e-06
1.42756e-06
1.37648e-06
1.31469e-06
1.24374e-06
1.1656e-06
1.08252e-06
9.96852e-07
9.1036e-07
8.24894e-07
7.40507e-07
1.22712e-06
1.2409e-06
1.24985e-06
1.25301e-06
1.24897e-06
1.23786e-06
1.21938e-06
1.19232e-06
1.15598e-06
1.11069e-06
1.05732e-06
9.97147e-07
9.31721e-07
8.62758e-07
7.91679e-07
7.19849e-07
6.47534e-07
9.97528e-07
1.01118e-06
1.02119e-06
1.02688e-06
1.0271e-06
1.02169e-06
1.01048e-06
9.9248e-07
9.67063e-07
9.3425e-07
8.94493e-07
8.48548e-07
7.97431e-07
7.42336e-07
6.84311e-07
6.2441e-07
5.62887e-07
8.10195e-07
8.23075e-07
8.33224e-07
8.40159e-07
8.42925e-07
8.41241e-07
8.35025e-07
8.23502e-07
8.06049e-07
7.82555e-07
7.5321e-07
7.1841e-07
6.78751e-07
6.35038e-07
5.87998e-07
5.38393e-07
6.69314e-07
6.79002e-07
6.8631e-07
6.90451e-07
6.91103e-07
6.88213e-07
6.81172e-07
6.69443e-07
6.52841e-07
6.31379e-07
6.05215e-07
5.74657e-07
5.4019e-07
5.02308e-07
4.61507e-07
5.43728e-07
5.52643e-07
5.59781e-07
5.64525e-07
5.66529e-07
5.65764e-07
5.6177e-07
5.54104e-07
5.42537e-07
5.26977e-07
5.07431e-07
4.84021e-07
4.57008e-07
4.26679e-07
3.93351e-07
4.41292e-07
4.49268e-07
4.5592e-07
4.60743e-07
4.63445e-07
4.63983e-07
4.62003e-07
4.57154e-07
4.49211e-07
4.38023e-07
4.23504e-07
4.05664e-07
3.84604e-07
3.60459e-07
3.33407e-07
3.57832e-07
3.64839e-07
3.70828e-07
3.75421e-07
3.78371e-07
3.79626e-07
3.78936e-07
3.76009e-07
3.70638e-07
3.62652e-07
3.51926e-07
3.38391e-07
3.22041e-07
3.02919e-07
2.81096e-07
2.89906e-07
2.95948e-07
3.01212e-07
3.05409e-07
3.08335e-07
3.09935e-07
3.10025e-07
3.08375e-07
3.04803e-07
2.99141e-07
2.91246e-07
2.81011e-07
2.68368e-07
2.53291e-07
2.35788e-07
2.3982e-07
2.44368e-07
2.48093e-07
2.50829e-07
2.52525e-07
2.53044e-07
2.52217e-07
2.49888e-07
2.45896e-07
2.401e-07
2.32378e-07
2.22632e-07
2.10795e-07
1.96832e-07
1.94157e-07
1.98024e-07
2.01253e-07
2.03705e-07
2.05348e-07
2.0608e-07
2.05767e-07
2.04278e-07
2.01476e-07
1.97227e-07
1.91407e-07
1.8391e-07
1.74651e-07
1.63568e-07
1.57044e-07
1.60292e-07
1.63044e-07
1.65187e-07
1.66695e-07
1.67494e-07
1.67479e-07
1.66547e-07
1.64585e-07
1.6147e-07
1.57086e-07
1.51329e-07
1.44108e-07
1.35352e-07
1.26925e-07
1.29626e-07
1.31935e-07
1.33765e-07
1.35094e-07
1.35874e-07
1.36022e-07
1.35455e-07
1.34079e-07
1.31792e-07
1.28487e-07
1.24071e-07
1.18455e-07
1.11565e-07
1.02506e-07
1.0473e-07
1.06646e-07
1.08184e-07
1.09325e-07
1.10038e-07
1.10261e-07
1.09926e-07
1.08958e-07
1.07272e-07
1.04777e-07
1.0139e-07
9.70312e-08
9.16297e-08
8.45491e-08
8.6123e-08
8.7397e-08
8.83566e-08
8.8979e-08
8.92214e-08
8.90308e-08
8.83464e-08
8.70976e-08
8.52094e-08
8.26115e-08
7.92339e-08
7.50135e-08
6.82109e-08
6.94919e-08
7.05339e-08
7.13259e-08
7.18543e-08
7.2087e-08
7.1983e-08
7.14937e-08
7.05622e-08
6.91286e-08
6.71349e-08
6.4521e-08
5.5e-08
5.60339e-08
5.68767e-08
5.7522e-08
5.796e-08
5.81671e-08
5.81124e-08
5.77574e-08
5.70573e-08
5.59652e-08
5.44327e-08
5.24113e-08
4.43269e-08
4.51568e-08
4.58332e-08
4.6352e-08
4.67076e-08
4.68835e-08
4.68556e-08
4.65934e-08
4.60628e-08
4.52272e-08
4.40476e-08
4.24849e-08
3.57137e-08
3.63763e-08
3.6915e-08
3.73273e-08
3.76116e-08
3.77552e-08
3.774e-08
3.75429e-08
3.71372e-08
3.64948e-08
3.55853e-08
3.43773e-08
2.9295e-08
2.97212e-08
3.00464e-08
3.02701e-08
3.03836e-08
3.03736e-08
3.02224e-08
2.99096e-08
2.94132e-08
2.87102e-08
2.77765e-08
2.35893e-08
2.39246e-08
2.41788e-08
2.43526e-08
2.44403e-08
2.44316e-08
2.43132e-08
2.40696e-08
2.36843e-08
2.31395e-08
2.24169e-08
1.89957e-08
1.92578e-08
1.94551e-08
1.95887e-08
1.96547e-08
1.96454e-08
1.95507e-08
1.93595e-08
1.9059e-08
1.86359e-08
1.8076e-08
1.52996e-08
1.55036e-08
1.56555e-08
1.57569e-08
1.58052e-08
1.57947e-08
1.5718e-08
1.55665e-08
1.53311e-08
1.50016e-08
1.45672e-08
1.23267e-08
1.24846e-08
1.26009e-08
1.26771e-08
1.27115e-08
1.26999e-08
1.26369e-08
1.2516e-08
1.23307e-08
1.20731e-08
1.17356e-08
9.93648e-09
1.00584e-08
1.01468e-08
1.02034e-08
1.02268e-08
1.02144e-08
1.01621e-08
1.0065e-08
9.91833e-09
9.71648e-09
8.01509e-09
8.10889e-09
8.1757e-09
8.21711e-09
8.23241e-09
8.21955e-09
8.17558e-09
8.09713e-09
7.98051e-09
7.82175e-09
6.54293e-09
6.59304e-09
6.6229e-09
6.63217e-09
6.61918e-09
6.58196e-09
6.51809e-09
6.42488e-09
6.2995e-09
5.28518e-09
5.32248e-09
5.34356e-09
5.34832e-09
5.33561e-09
5.30394e-09
5.25162e-09
5.17672e-09
5.07722e-09
4.27396e-09
4.30157e-09
4.31618e-09
4.31782e-09
4.3057e-09
4.27871e-09
4.23567e-09
4.17522e-09
4.09593e-09
3.45903e-09
3.47936e-09
3.48927e-09
3.48883e-09
3.47757e-09
3.45469e-09
3.41932e-09
3.37052e-09
3.30727e-09
2.79967e-09
2.8145e-09
2.82105e-09
2.81945e-09
2.80934e-09
2.79014e-09
2.76125e-09
2.722e-09
2.67168e-09
2.2648e-09
2.27545e-09
2.27958e-09
2.27729e-09
2.26834e-09
2.25233e-09
2.22884e-09
2.19741e-09
1.83197e-09
1.83947e-09
1.84174e-09
1.83893e-09
1.8309e-09
1.8174e-09
1.79815e-09
1.77285e-09
1.48365e-09
1.48868e-09
1.48949e-09
1.48623e-09
1.47885e-09
1.46718e-09
1.45108e-09
1.43038e-09
1.20812e-09
1.20781e-09
1.20419e-09
1.19726e-09
1.18695e-09
1.17315e-09
1.15585e-09
9.83024e-10
9.81862e-10
9.77979e-10
9.71437e-10
9.62154e-10
9.50075e-10
9.35343e-10
8.04038e-10
8.02827e-10
7.99386e-10
7.9404e-10
7.86198e-10
7.75965e-10
7.64084e-10
6.75458e-10
6.73995e-10
6.70532e-10
6.65917e-10
6.58834e-10
6.49496e-10
6.39711e-10
5.79519e-10
5.77635e-10
5.73726e-10
5.68884e-10
5.6167e-10
5.52143e-10
4.9576e-10
4.94327e-10
4.91e-10
4.8677e-10
4.80442e-10
4.7185e-10
4.19857e-10
4.17949e-10
4.14241e-10
4.09684e-10
4.03509e-10
3.94978e-10
3.5507e-10
3.5414e-10
3.51643e-10
3.48183e-10
3.43478e-10
3.37075e-10
2.91066e-10
2.88168e-10
2.83837e-10
2.78976e-10
2.73405e-10
2.65017e-10
2.53288e-10
2.53501e-10
2.52363e-10
2.49564e-10
2.46331e-10
2.4337e-10
1.82921e-10
1.78044e-10
1.74026e-10
1.69308e-10
1.59285e-10
2.05192e-10
2.07468e-10
2.05006e-10
2.04294e-10
2.11961e-10
1.27068e-10
1.27602e-10
1.31445e-10
1.2985e-10
1.19827e-10
2.92414e-10
3.08975e-10
3.07383e-10
3.14638e-10
3.48563e-10
3.66551e-10
3.88376e-10
4.20715e-10
7.47597e-10
8.37396e-10
7.7846e-10
7.01643e-10
)
;

boundaryField
{
    inlet
    {
        type            calculated;
        value           nonuniform List<scalar> 4(1.45826e-08 1.65112e-08 1.69373e-08 1.73354e-08);
    }
    outlet
    {
        type            calculated;
        value           nonuniform List<scalar> 0();
    }
    walls
    {
        type            calculated;
        value           uniform 0;
    }
    frontAndBack
    {
        type            empty;
    }
    procBoundary5to0
    {
        type            processor;
        value           nonuniform List<scalar> 4(0.000197876 0.00019326 0.000188239 0.000182074);
    }
    procBoundary5to1
    {
        type            processor;
        value           nonuniform List<scalar> 
13
(
0.00631144
0.00354115
0.00354115
0.00226319
0.00161311
0.00161311
0.00101935
0.000729507
0.000729507
0.000485864
0.000332264
0.000245536
0.000245536
)
;
    }
    procBoundary5to4
    {
        type            processor;
        value           nonuniform List<scalar> 
95
(
0.000201518
0.000204582
0.000206969
0.000206969
0.00015183
0.000152426
0.000152426
0.000113528
0.000113126
0.000113126
8.51547e-05
8.51547e-05
6.48554e-05
6.48554e-05
5.01978e-05
3.89602e-05
3.89602e-05
3.04512e-05
3.04512e-05
2.40572e-05
1.90533e-05
1.90533e-05
1.51771e-05
1.21458e-05
1.21458e-05
9.73675e-06
7.85747e-06
7.85747e-06
6.3305e-06
5.10193e-06
4.15847e-06
4.15847e-06
3.36292e-06
2.71924e-06
2.23227e-06
2.23227e-06
1.809e-06
1.46556e-06
1.20884e-06
1.20884e-06
9.80534e-07
7.94878e-07
6.57553e-07
6.57553e-07
5.3326e-07
4.32146e-07
3.4996e-07
2.8321e-07
2.34679e-07
2.34679e-07
1.89829e-07
1.53438e-07
1.23944e-07
1.0006e-07
8.27319e-08
8.27319e-08
6.67346e-08
5.38081e-08
4.33699e-08
3.49486e-08
2.87694e-08
2.87694e-08
2.31743e-08
1.86689e-08
1.50431e-08
1.21261e-08
9.77993e-09
7.8931e-09
6.47103e-09
6.47103e-09
5.23018e-09
4.23212e-09
3.42725e-09
2.77562e-09
2.24676e-09
1.81853e-09
1.47379e-09
1.205e-09
1.205e-09
9.81331e-10
8.02898e-10
6.74753e-10
5.79259e-10
4.95269e-10
4.19926e-10
3.54453e-10
2.92681e-10
2.51501e-10
1.86902e-10
1.86902e-10
2.01905e-10
1.25476e-10
2.78133e-10
3.22646e-10
7.44692e-10
)
;
    }
    procBoundary5to6
    {
        type            processor;
        value           nonuniform List<scalar> 
86
(
334.406
26.5017
31.967
32.3919
16.8984
1.65734
0.0333324
0.00381996
0.000189785
0
0
2.65721e-09
1.10993e-06
4.90434e-06
4.19668e-06
2.76943e-06
2.12078e-06
2.00645e-06
2.03218e-06
2.00308e-06
1.89232e-06
1.74228e-06
1.5885e-06
1.44401e-06
1.30976e-06
1.18339e-06
1.06392e-06
9.51345e-07
8.45784e-07
7.47774e-07
6.57518e-07
5.74873e-07
4.99873e-07
4.8646e-07
4.8646e-07
4.18012e-07
3.57172e-07
3.03534e-07
2.56612e-07
2.15854e-07
1.80707e-07
1.50607e-07
1.24995e-07
1.03336e-07
8.51244e-08
6.98929e-08
6.1233e-08
6.1233e-08
4.98561e-08
4.05029e-08
3.2842e-08
2.65882e-08
2.14982e-08
1.73652e-08
1.40173e-08
1.13098e-08
9.45354e-09
9.45354e-09
7.61647e-09
6.1387e-09
4.95076e-09
3.99608e-09
3.22832e-09
2.60936e-09
2.15751e-09
2.15751e-09
1.74113e-09
1.40484e-09
1.13491e-09
9.17854e-10
7.49908e-10
6.28133e-10
5.42713e-10
5.42713e-10
4.63129e-10
3.86498e-10
3.2972e-10
2.57725e-10
2.36577e-10
1.54789e-10
2.03877e-10
1.23618e-10
3.68953e-10
3.68953e-10
4.24561e-10
1.2158e-09
)
;
    }
}


// ************************************************************************* //
