/*--------------------------------*- C++ -*----------------------------------*\
| =========                 |                                                 |
| \\      /  F ield         | OpenFOAM: The Open Source CFD Toolbox           |
|  \\    /   O peration     | Version:  2306                                  |
|   \\  /    A nd           | Website:  www.openfoam.com                      |
|    \\/     M anipulation  |                                                 |
\*---------------------------------------------------------------------------*/
FoamFile
{
    version     2.0;
    format      ascii;
    arch        "LSB;label=32;scalar=64";
    class       volVectorField;
    location    "475";
    object      U;
}
// * * * * * * * * * * * * * * * * * * * * * * * * * * * * * * * * * * * * * //

dimensions      [0 1 -1 0 0 0 0];

internalField   nonuniform List<vector> 
1340
(
(0.227307 27.647 6.74494e-18)
(1.96454 29.9432 -5.62201e-17)
(4.13734 32.1616 2.1283e-16)
(6.63499 33.8946 -4.10313e-16)
(9.39108 35.2247 3.1465e-16)
(12.3373 36.1102 2.00365e-16)
(15.3188 36.4524 -3.61642e-16)
(18.2397 36.2859 1.24239e-15)
(21.0151 35.6757 -8.39333e-16)
(23.5619 34.6566 -5.809e-16)
(25.8434 33.3238 3.00297e-16)
(27.8127 31.7263 1.67794e-15)
(29.4229 29.8609 6.52295e-16)
(30.6576 27.7678 5.97806e-16)
(31.4739 25.4622 1.43021e-15)
(31.8438 22.9751 1.24023e-15)
(31.6969 20.3078 -2.52892e-15)
(30.9558 17.4968 -8.9727e-15)
(29.4862 14.5542 6.6807e-15)
(27.1602 11.5447 -3.12732e-16)
(23.8373 8.53233 -1.30835e-15)
(19.5672 5.67765 -2.42336e-15)
(14.8905 3.2286 8.27093e-15)
(11.4428 1.44089 -2.14877e-15)
(10.0614 0.261379 1.47811e-15)
(10.6994 -0.358319 -3.1594e-15)
(12.1185 -0.599005 1.89366e-16)
(13.6253 -0.719481 -1.37268e-15)
(14.8685 -0.871278 -5.45178e-15)
(15.6921 -1.0867 -7.6807e-15)
(16.1259 -1.34696 7.72181e-15)
(16.2638 -1.62035 2.69339e-15)
(16.0627 -1.86608 1.10764e-15)
(15.5557 -2.06065 3.71531e-14)
(14.7262 -2.17969 -5.57754e-15)
(-1.1427 25.1965 7.66921e-18)
(-2.24857 22.436 1.16854e-17)
(-3.01404 19.3293 -9.05213e-17)
(-3.31647 15.7331 8.60578e-17)
(-2.99629 12.0183 -2.86093e-16)
(-2.02376 8.32072 7.07938e-16)
(-0.486671 4.95177 1.88663e-15)
(7.15395 23.9923 -3.54616e-18)
(9.04435 25.7193 -2.15986e-17)
(11.3477 27.2835 1.5053e-17)
(14.0035 28.58 6.46878e-17)
(16.8651 29.5493 -3.3053e-16)
(19.9374 30.1312 -1.76097e-16)
(23.108 30.2789 -5.81999e-16)
(26.2441 30.014 1.1448e-16)
(29.292 29.3461 -4.87099e-16)
(32.1687 28.327 -8.47209e-17)
(34.8181 27.0096 1.2173e-15)
(37.2334 25.4924 -1.62227e-15)
(39.4232 23.8655 -9.27968e-16)
(41.3993 22.1613 -1.68269e-17)
(43.1487 20.4109 5.61699e-16)
(44.6308 18.6527 -1.17259e-15)
(45.8266 16.9103 -6.08668e-16)
(46.6992 15.2126 3.57363e-15)
(47.1876 13.5671 -5.87839e-16)
(47.1791 11.9782 -1.2088e-15)
(46.4798 10.3966 -1.70148e-15)
(44.8609 8.72367 1.47965e-15)
(42.181 6.82167 -2.19508e-15)
(38.6444 4.7581 -2.05684e-16)
(35.1115 2.86677 1.18631e-15)
(31.9573 1.34617 1.13907e-15)
(29.1559 0.240367 8.55021e-17)
(26.7736 -0.550285 5.74381e-16)
(24.9188 -1.15068 1.34902e-15)
(23.5673 -1.62239 1.0769e-15)
(22.5408 -1.99188 -1.04675e-15)
(21.6152 -2.2781 -1.23117e-16)
(20.6916 -2.50249 1.44798e-14)
(19.6856 -2.67122 -1.09642e-14)
(18.5071 -2.76944 1.73634e-15)
(5.55902 22.1531 3.08213e-17)
(4.17397 20.1084 -9.58634e-17)
(2.96018 17.7146 -4.80016e-16)
(2.03959 14.9944 4.4734e-16)
(1.5918 12.0367 6.06264e-16)
(1.70558 8.98111 -2.53138e-17)
(8.30381 22.0997 2.14499e-18)
(9.64535 23.6254 9.99668e-18)
(11.2778 25.1114 5.09777e-18)
(13.1539 26.4854 -5.36103e-17)
(15.2214 27.6287 1.44071e-16)
(17.4794 28.518 2.15192e-16)
(19.8536 29.1144 5.84716e-16)
(22.2694 29.3803 2.46048e-17)
(24.6698 29.3158 6.10346e-16)
(26.9969 28.9329 -1.19568e-15)
(29.1975 28.2514 -1.30082e-16)
(31.2377 27.2963 -3.34414e-16)
(33.0901 26.0977 1.51168e-15)
(34.7378 24.6883 -3.3328e-16)
(36.179 23.1023 -4.38904e-16)
(37.4728 21.3507 -6.31106e-16)
(38.6497 19.4639 1.95107e-15)
(39.7296 17.498 -1.555e-15)
(40.7729 15.5026 -9.24667e-16)
(41.8252 13.5514 2.37269e-15)
(42.9477 11.6856 -1.87389e-15)
(44.0595 9.89355 -3.57728e-16)
(44.871 8.03501 -4.50294e-16)
(44.937 6.0261 6.38441e-16)
(44.1657 4.02922 -3.69291e-16)
(42.8117 2.28436 5.9548e-16)
(41.0978 0.90264 -1.14587e-16)
(39.0754 -0.183112 -8.58444e-17)
(36.7008 -1.07329 1.53211e-15)
(34.0123 -1.80071 2.17493e-16)
(31.2205 -2.36354 -3.02822e-15)
(28.6133 -2.76896 3.15968e-15)
(26.3427 -3.03923 -7.69312e-16)
(24.3391 -3.19766 1.52571e-16)
(22.4117 -3.2567 -3.40897e-15)
(7.20963 20.4926 3.83898e-18)
(6.25004 18.7378 -8.46965e-17)
(5.45267 16.6726 2.92104e-16)
(4.81237 14.3623 2.30236e-16)
(4.48419 11.8814 -6.55634e-16)
(4.5138 9.29941 -6.21898e-16)
(10.905 20.2244 1.19703e-17)
(12.1614 21.5194 -1.40376e-17)
(13.6681 22.7806 1.64237e-17)
(15.4018 23.9338 -2.30602e-17)
(17.3162 24.8886 -6.94235e-17)
(19.4176 25.6263 -1.78958e-16)
(21.65 26.1028 -2.87116e-16)
(23.9531 26.2832 1.0398e-16)
(26.2804 26.1596 6.91525e-16)
(28.5767 25.7336 -4.55386e-16)
(30.791 25.0185 -7.66568e-16)
(32.8839 24.0371 -1.16232e-15)
(34.8196 22.8239 1.31936e-15)
(36.5717 21.416 2.22661e-15)
(38.1296 19.8462 -1.98815e-15)
(39.4538 18.1664 -8.58701e-16)
(40.4986 16.4346 1.08875e-16)
(41.2603 14.6875 1.7458e-15)
(41.7488 12.9621 1.00845e-16)
(42.0124 11.2931 -2.52589e-15)
(42.1494 9.70734 3.36219e-15)
(42.3133 8.19891 -1.57219e-15)
(42.6086 6.68416 3.38208e-16)
(42.8885 5.07478 1.34197e-15)
(42.8482 3.43675 -8.00814e-16)
(42.3988 1.95678 6.70479e-16)
(41.7015 0.742223 7.42558e-17)
(40.9081 -0.254432 -3.78926e-16)
(40.0005 -1.12357 -3.02707e-16)
(38.8205 -1.89636 -4.32532e-16)
(37.1769 -2.55653 4.84181e-16)
(34.9678 -3.07698 -4.98654e-15)
(32.2949 -3.4396 -5.14393e-15)
(29.456 -3.64602 1.44349e-15)
(26.6825 -3.70874 5.69072e-15)
(9.84986 18.8697 -5.22603e-17)
(8.90317 17.4008 -2.10354e-17)
(8.07697 15.6681 3.58819e-16)
(7.38579 13.711 -1.58917e-16)
(6.96046 11.5991 9.40729e-16)
(12.4356 18.8257 -2.29767e-17)
(13.4919 19.975 7.30659e-18)
(14.7658 21.117 7.24446e-19)
(16.2229 22.1895 6.15056e-17)
(17.8231 23.1099 1.11949e-16)
(19.5872 23.8733 -3.03329e-16)
(21.4685 24.4402 4.33671e-16)
(23.4199 24.7753 1.92193e-16)
(25.4109 24.8687 5.37696e-16)
(27.395 24.7135 2.80594e-16)
(29.331 24.3115 -8.404e-17)
(31.1841 23.6743 9.6313e-16)
(32.9202 22.8211 -2.01713e-15)
(34.5125 21.7733 1.41182e-16)
(35.94 20.5547 2.09185e-15)
(37.1823 19.1889 -1.03649e-15)
(38.2516 17.6716 1.07028e-15)
(39.1423 16.0257 -2.17234e-16)
(39.847 14.2843 6.94771e-17)
(40.3587 12.4938 2.56152e-15)
(40.6838 10.6938 -1.7539e-15)
(40.8485 8.91487 7.15472e-17)
(40.8957 7.14917 -3.84967e-16)
(40.8181 5.39084 -1.7671e-15)
(40.5228 3.71132 6.44703e-16)
(39.9705 2.23114 -2.16296e-15)
(39.2727 1.00758 -8.18404e-17)
(38.5763 -0.00799203 2.70028e-16)
(37.9456 -0.895564 -2.2306e-16)
(37.3592 -1.69006 4.06204e-15)
(36.7504 -2.39456 1.55218e-15)
(35.9822 -3.00503 -7.21969e-16)
(34.8187 -3.50392 -4.10859e-15)
(33.016 -3.85297 6.53952e-15)
(30.5252 -4.01648 -4.8219e-15)
(11.5428 17.6298 1.21312e-17)
(10.7393 16.3464 -1.52234e-16)
(10.0176 14.8316 5.98204e-17)
(9.38608 13.124 3.82067e-17)
(8.96069 11.2879 -1.34035e-15)
(13.9267 17.5917 1.59568e-17)
(14.8866 18.6088 -2.8172e-17)
(16.0396 19.6253 5.55588e-18)
(17.3538 20.5825 4.95921e-18)
(18.7905 21.4074 -7.22701e-17)
(20.3794 22.1004 -8.80723e-17)
(22.0803 22.6231 -2.73514e-17)
(23.8553 22.9437 -4.3713e-16)
(25.6838 23.0488 -3.89772e-17)
(27.5275 22.9272 2.02767e-16)
(29.3511 22.5746 -3.45968e-16)
(31.125 21.9943 4.24866e-16)
(32.8157 21.1968 1.4503e-15)
(34.3952 20.1966 7.55179e-16)
(35.8391 19.0125 -2.9958e-15)
(37.1279 17.6657 2.00448e-15)
(38.2344 16.1964 6.39941e-16)
(39.1311 14.6553 -1.34229e-15)
(39.8079 13.0823 5.86732e-16)
(40.2722 11.5068 1.44959e-16)
(40.5417 9.94902 -5.46239e-16)
(40.6417 8.40648 2.87151e-15)
(40.5816 6.84783 1.30938e-16)
(40.3343 5.2542 2.35832e-15)
(39.8532 3.68847 -5.06615e-16)
(39.14 2.27004 2.25448e-16)
(38.2852 1.07382 7.25941e-17)
(37.4041 0.0775414 -2.38033e-17)
(36.5565 -0.784294 -1.27602e-15)
(35.7521 -1.54802 -1.03618e-15)
(35.0011 -2.22194 1.14664e-16)
(34.3248 -2.81029 3.68242e-15)
(33.7082 -3.31758 4.62452e-15)
(33.0174 -3.73742 2.34709e-15)
(31.9164 -4.03424 -2.5752e-15)
(13.107 16.5371 -3.7198e-17)
(12.3658 15.4123 -2.64406e-17)
(11.6863 14.081 8.90681e-17)
(11.0782 12.5764 -2.31485e-16)
(15.126 16.5487 -1.16275e-17)
(15.9878 17.462 -1.8692e-18)
(17.0228 18.3823 6.67247e-18)
(18.1971 19.2552 -1.86415e-17)
(19.4723 20.0152 1.12622e-16)
(20.8834 20.6687 -4.3901e-17)
(22.3938 21.1825 -8.03824e-17)
(23.9714 21.5275 1.85441e-16)
(25.6037 21.6923 2.47811e-16)
(27.2582 21.6653 -2.20573e-16)
(28.9064 21.4394 9.56535e-16)
(30.5241 21.0143 -5.01747e-16)
(32.081 20.3949 -1.35999e-15)
(33.5502 19.5906 -2.40323e-15)
(34.908 18.6157 3.53195e-15)
(36.1302 17.4894 -1.60154e-15)
(37.1971 16.2325 -2.14395e-15)
(38.1009 14.8546 -1.32561e-15)
(38.8327 13.3785 -9.8281e-16)
(39.3887 11.8369 -1.41186e-16)
(39.7731 10.2616 -4.84039e-16)
(39.9942 8.67744 -3.32031e-15)
(40.0491 7.08562 1.34627e-15)
(39.9014 5.48696 -3.70712e-15)
(39.502 3.93392 2.97392e-16)
(38.853 2.52215 3.19561e-16)
(38.0326 1.31659 -8.14505e-17)
(37.1404 0.303363 2.69819e-16)
(36.2275 -0.572875 8.39627e-16)
(35.2963 -1.34521 1.56478e-16)
(34.3476 -2.02017 1.09726e-16)
(33.4073 -2.60121 -3.16461e-15)
(32.5183 -3.09376 5.19982e-15)
(31.7348 -3.50191 1.7781e-15)
(31.0434 -3.82246 3.24464e-15)
(14.3842 15.6039 -1.28984e-19)
(13.7103 14.6026 1.01007e-16)
(13.0802 13.4153 -1.04691e-16)
(12.5035 12.0724 5.51498e-16)
(16.1811 15.63 -8.41395e-20)
(16.9712 16.4539 2.6504e-18)
(17.9185 17.2878 3.24423e-18)
(18.9894 18.0804 -2.53869e-20)
(20.1454 18.7725 -2.47357e-17)
(21.4244 19.3744 -2.15855e-16)
(22.7932 19.8551 1.41775e-17)
(24.2239 20.1887 2.33103e-16)
(25.7097 20.365 -5.6874e-16)
(27.2238 20.3715 -3.21243e-16)
(28.7429 20.1993 6.41863e-17)
(30.2478 19.8446 7.71957e-16)
(31.7122 19.3074 2.19738e-15)
(33.112 18.5914 3.13009e-15)
(34.4237 17.7049 8.84887e-17)
(35.6236 16.6607 -1.87169e-16)
(36.6917 15.4745 2.73809e-15)
(37.6061 14.1755 2.37461e-15)
(38.3494 12.7986 -1.2353e-17)
(38.9156 11.3728 -2.36039e-15)
(39.3089 9.92147 8.03245e-16)
(39.5394 8.45711 9.71275e-16)
(39.6105 6.97777 -1.75638e-16)
(39.4994 5.48361 1.4421e-15)
(39.1651 4.01658 -8.03164e-16)
(38.6005 2.65884 -3.80355e-16)
(37.8632 1.47447 -1.27433e-17)
(37.037 0.463067 -4.18379e-16)
(36.1681 -0.417042 -1.34403e-16)
(35.2567 -1.19372 -2.57441e-15)
(34.2932 -1.8716 1.12645e-15)
(33.2799 -2.45116 -2.59915e-15)
(32.2292 -2.93472 -5.86774e-15)
(31.1766 -3.32371 3.09844e-16)
(30.1755 -3.61555 -1.90173e-15)
(15.4962 14.7793 -1.63318e-17)
(14.8723 13.8813 -5.80609e-17)
(14.2801 12.8145 1.0608e-16)
(13.7295 11.6058 -4.32549e-16)
(17.092 14.8184 -1.39058e-17)
(17.8198 15.5665 -2.59235e-17)
(18.6912 16.3266 1.07594e-17)
(19.6724 17.0507 7.96658e-18)
(20.7254 17.6846 3.54129e-17)
(21.8889 18.2414 1.00259e-16)
(23.1323 18.6935 2.39845e-16)
(24.4306 19.0174 2.61559e-16)
(25.781 19.2055 -2.56595e-16)
(27.1605 19.2458 -6.08929e-17)
(28.5503 19.1294 -1.19091e-16)
(29.9356 18.8512 -1.95502e-15)
(31.2938 18.4088 5.00941e-16)
(32.6034 17.8031 -2.03103e-15)
(33.8429 17.0389 -5.4346e-16)
(34.9894 16.1254 6.65087e-16)
(36.0213 15.0775 -1.84187e-15)
(36.9204 13.9115 -1.00427e-15)
(37.6728 12.6452 -4.81742e-16)
(38.2687 11.3017 1.56115e-15)
(38.7051 9.90584 1.18433e-16)
(38.9826 8.47908 7.15985e-16)
(39.0986 7.03323 1.35564e-15)
(39.035 5.5799 -2.75669e-16)
(38.7616 4.15656 -8.16451e-18)
(38.2722 2.82944 1.17781e-15)
(37.613 1.65481 2.18007e-16)
(36.8564 0.63923 -4.35623e-17)
(36.0475 -0.248982 2.89501e-16)
(35.1914 -1.03425 -2.60719e-16)
(34.2795 -1.72117 -2.97175e-15)
(33.308 -2.30925 5.58472e-15)
(32.2725 -2.79884 -5.90358e-15)
(31.1719 -3.18743 -6.15486e-15)
(30.0014 -3.46797 5.72637e-15)
(16.4572 14.0468 8.58833e-18)
(15.8772 13.2353 1.2248e-16)
(15.3195 12.2692 -4.2338e-17)
(21.2522 16.7108 -1.01321e-17)
(22.32 17.2236 -3.78507e-17)
(23.459 17.6437 -3.68671e-16)
(24.6465 17.9507 6.43791e-17)
(25.8825 18.1381 -1.83955e-16)
(27.1472 18.1949 4.30691e-16)
(28.4256 18.1123 -4.37958e-16)
(29.7064 17.8847 1.2419e-15)
(30.9705 17.5077 -8.76456e-17)
(32.1997 16.9792 -7.44268e-17)
(33.3748 16.3008 -3.71657e-16)
(34.474 15.478 -1.7404e-16)
(35.4767 14.5204 6.47274e-16)
(36.3642 13.4417 1.31187e-15)
(37.1183 12.2637 1.34599e-15)
(37.7258 11.0099 8.89739e-16)
(38.1806 9.70193 7.01024e-16)
(38.4808 8.3576 1.44252e-16)
(38.6224 6.98871 -9.14291e-16)
(38.5908 5.60844 -2.11055e-17)
(38.3629 4.2494 5.91352e-16)
(37.9326 2.96729 -8.82376e-16)
(37.3359 1.81423 -1.89208e-16)
(36.6345 0.803849 -1.52097e-16)
(35.8721 -0.085668 -2.955e-16)
(35.0586 -0.874665 2.57486e-15)
(34.1906 -1.56728 2.43442e-15)
(33.267 -2.16258 -1.326e-15)
(32.2841 -2.66019 2.40784e-15)
(31.2347 -3.05631 -8.72793e-16)
(30.0872 -3.34105 -2.96984e-15)
(23.7557 16.6983 1.34218e-16)
(24.8464 16.9873 2.05392e-16)
(25.9812 17.1705 1.49205e-16)
(27.1429 17.238 -5.44208e-16)
(28.3194 17.1822 9.3187e-17)
(29.5024 16.9968 -4.15461e-16)
(30.6758 16.677 -1.18689e-16)
(31.8242 16.2193 -3.57417e-16)
(32.9306 15.6231 2.72897e-16)
(33.9754 14.891 4.69104e-16)
(34.939 14.0298 -1.07514e-16)
(35.8025 13.0509 -1.43304e-15)
(36.5489 11.9683 -7.87208e-16)
(37.1638 10.8001 -8.6855e-16)
(37.6374 9.56605 -3.23444e-16)
(37.9637 8.28546 -6.80551e-16)
(38.1358 6.97498 -1.1802e-16)
(38.1405 5.65228 1.08222e-15)
(37.9592 4.34718 2.5198e-17)
(37.5862 3.10562 5.53423e-16)
(37.0493 1.97385 1.05277e-16)
(36.4002 0.969749 5.01917e-16)
(35.6794 0.0797871 5.17456e-16)
(34.9007 -0.712071 -2.9558e-15)
(34.0643 -1.40918 -1.00169e-15)
(33.1725 -2.0101 -4.86409e-15)
(32.2256 -2.51398 5.10365e-15)
(31.2219 -2.91682 3.60269e-16)
(30.1335 -3.20867 2.3939e-15)
(26.0821 16.2829 4.4091e-16)
(27.1529 16.3548 2.35755e-16)
(28.2385 16.3167 3.45864e-16)
(29.3331 16.1626 -1.82813e-16)
(30.4229 15.8874 -7.21879e-16)
(31.4954 15.4863 1.57358e-15)
(32.536 14.9572 -6.48207e-16)
(33.5269 14.3004 -6.77328e-16)
(34.4502 13.52 -4.44162e-16)
(35.2876 12.6239 1.29945e-15)
(36.0219 11.6238 1.55939e-15)
(36.6371 10.5365 4.33e-16)
(37.1208 9.37993 -1.81423e-15)
(37.4648 8.17206 4.03273e-16)
(37.6607 6.92984 -8.19247e-17)
(37.6965 5.67207 3.34776e-16)
(37.5574 4.42577 -1.54909e-16)
(37.2375 3.22937 1.15631e-16)
(36.7576 2.12403 4.62446e-17)
(36.16 1.13095 -2.69161e-16)
(35.4815 0.244081 4.48821e-16)
(34.7373 -0.548228 1.91512e-15)
(33.9303 -1.24805 4.6268e-17)
(33.0641 -1.8531 5.01018e-15)
(32.141 -2.36172 2.1293e-15)
(31.1635 -2.7693 -2.36912e-15)
(30.1114 -3.06667 -3.31334e-15)
(27.1687 15.541 4.27982e-16)
(28.1724 15.5151 -8.81954e-16)
(29.186 15.3854 -6.09151e-17)
(30.1981 15.1465 1.12504e-15)
(31.1984 14.7936 -5.35078e-16)
(32.1746 14.3231 5.96267e-16)
(33.111 13.734 1.09432e-15)
(33.9912 13.0281 -2.428e-15)
(34.7978 12.2109 -8.39558e-16)
(35.5141 11.2913 -1.79653e-15)
(36.124 10.2821 -5.41299e-16)
(36.6134 9.19914 1.46672e-15)
(36.9717 8.05979 -5.96524e-17)
(37.1891 6.88188 -3.70461e-16)
(37.2542 5.6855 -1.01929e-15)
(37.1544 4.49562 6.56667e-17)
(36.8843 3.34424 -5.6329e-16)
(36.4588 2.26752 -1.62249e-17)
(35.9121 1.28849 -8.12011e-17)
(35.2769 0.407251 -8.06788e-16)
(34.5692 -0.383529 -3.35004e-16)
(33.7935 -1.08458 2.37884e-16)
(32.9541 -1.69269 7.6148e-16)
(32.0539 -2.20516 -3.10807e-15)
(31.0962 -2.61651 -4.12057e-15)
(30.0659 -2.91793 -1.68052e-16)
(28.1183 14.7698 8.39835e-17)
(29.0584 14.6584 -2.03195e-16)
(29.9989 14.4487 -4.21025e-16)
(30.9316 14.1354 5.24134e-16)
(31.8463 13.7145 -2.33841e-15)
(32.7293 13.1837 -3.45807e-16)
(33.5657 12.5433 9.25086e-16)
(34.3392 11.7963 -4.31307e-16)
(35.034 10.9495 4.15718e-16)
(35.634 10.0134 -5.06765e-18)
(36.1239 9.00205 -4.3445e-16)
(36.4916 7.93143 4.14029e-16)
(36.7262 6.81899 2.26035e-16)
(36.8169 5.68493 5.68375e-16)
(36.7527 4.55215 1.19508e-16)
(36.5282 3.44736 2.47362e-17)
(36.1537 2.40229 -8.32321e-17)
(35.6564 1.4409 1.39088e-16)
(35.0646 0.568299 2.09628e-16)
(34.3943 -0.218748 3.86692e-16)
(33.6517 -0.919381 -1.45922e-15)
(32.8414 -1.52939 -1.93646e-15)
(31.9665 -2.04497 1.18371e-15)
(31.0304 -2.45961 1.22082e-14)
(30.0207 -2.76427 2.42031e-15)
(28.0723 14.0764 -3.10964e-16)
(28.9454 13.9789 -1.22284e-16)
(29.82 13.7926 2.85085e-16)
(30.6896 13.5124 -6.23914e-16)
(31.5458 13.1341 5.17252e-16)
(32.3765 12.6544 -4.33248e-16)
(33.1687 12.0724 1.02643e-15)
(33.9074 11.3895 2.69064e-15)
(34.5775 10.6106 1.76429e-15)
(35.1637 9.74344 2.85368e-16)
(35.65 8.80036 -3.33825e-16)
(36.0231 7.79606 -3.4075e-17)
(36.2715 6.74736 -9.71776e-16)
(36.3847 5.67423 2.3234e-17)
(36.3526 4.59772 4.08432e-16)
(36.1699 3.54002 7.06253e-17)
(35.8431 2.5287 2.06001e-17)
(35.3933 1.5879 5.10194e-18)
(34.8445 0.726703 -8.19292e-16)
(34.2122 -0.0544175 -1.66276e-15)
(33.5035 -0.752926 4.16349e-16)
(32.7237 -1.36354 2.98351e-16)
(31.8761 -1.88134 -2.81821e-15)
(30.9644 -2.29881 -1.13314e-14)
(29.9781 -2.60628 -2.74392e-15)
(28.8441 13.3426 3.49861e-16)
(29.6581 13.1752 -2.73408e-16)
(30.469 12.9227 -8.66204e-17)
(31.2697 12.5806 4.96616e-16)
(32.0502 12.1454 2.12606e-15)
(32.7986 11.6151 -2.65505e-15)
(33.5018 10.9897 1.08851e-16)
(34.1451 10.2728 -1.27055e-15)
(34.7143 9.46988 1.95193e-16)
(35.1933 8.5917 -1.258e-15)
(35.5681 7.65154 -3.28412e-16)
(35.8268 6.66536 -6.21494e-17)
(35.9589 5.65228 2.25874e-16)
(35.9553 4.63152 -5.40284e-16)
(35.8105 3.6215 5.41091e-17)
(35.528 2.64603 3.14332e-17)
(35.1235 1.72875 -1.05443e-16)
(34.617 0.881778 7.92262e-16)
(34.0228 0.108871 8.19918e-16)
(33.3487 -0.585666 1.49432e-15)
(32.6003 -1.19549 9.45695e-16)
(31.7813 -1.71448 1.93462e-15)
(30.8958 -2.13419 4.23672e-15)
(29.935 -2.44415 3.02158e-15)
(29.5101 12.5946 -1.58876e-16)
(30.2663 12.3651 3.60549e-17)
(31.015 12.0541 7.93671e-16)
(31.7473 11.6575 -6.33557e-16)
(32.453 11.173 2.30064e-15)
(33.1202 10.5995 -1.13339e-15)
(33.7354 9.93922 4.8404e-16)
(34.285 9.19622 3.45363e-16)
(34.7537 8.37931 1.78973e-15)
(35.1269 7.50054 4.14432e-16)
(35.3926 6.57486 8.51038e-16)
(35.5403 5.6204 -2.26793e-16)
(35.5618 4.65449 -5.10247e-16)
(35.4511 3.69227 3.47614e-16)
(35.2094 2.7542 2.34141e-17)
(34.8479 1.863 -3.17466e-16)
(34.3827 1.03291 -5.43288e-16)
(33.8266 0.270511 1.62518e-15)
(33.1875 -0.418164 -1.04974e-15)
(32.4711 -1.02568 -5.84495e-16)
(31.6817 -1.54477 -2.19269e-15)
(30.8235 -1.966 4.36423e-16)
(29.8896 -2.2781 4.87378e-16)
(29.3737 12.0481 1.89534e-16)
(30.0793 11.8379 1.15532e-16)
(30.7791 11.5534 -1.28054e-15)
(31.4655 11.1906 5.83243e-16)
(32.1298 10.7465 -2.09691e-15)
(32.7613 10.2197 8.06047e-16)
(33.3474 9.61098 -8.88465e-16)
(33.8756 8.9235 -8.76871e-16)
(34.3314 8.16418 2.91835e-16)
(34.7002 7.34393 -1.63277e-15)
(34.9697 6.47662 -9.58113e-16)
(35.13 5.57912 4.63445e-16)
(35.1729 4.66703 7.1124e-16)
(35.0927 3.75257 8.36371e-17)
(34.8884 2.85313 9.95736e-18)
(34.5674 1.99026 2.51288e-16)
(34.1421 1.17955 -1.09996e-16)
(33.6238 0.429935 -1.19873e-15)
(33.0199 -0.250948 -2.25329e-16)
(32.3364 -0.854588 -8.46333e-16)
(31.5773 -1.37257 -4.74752e-17)
(30.7476 -1.79449 -3.50619e-16)
(29.8417 -2.10832 -3.15006e-16)
(29.9055 11.3399 2.41657e-16)
(30.5595 11.0782 3.86119e-16)
(31.2025 10.7448 -1.98904e-16)
(31.8268 10.3366 2.11918e-15)
(32.4231 9.85159 -5.07862e-16)
(32.9799 9.28976 8.20185e-16)
(33.4855 8.65342 -9.20366e-16)
(33.9264 7.94795 4.21978e-16)
(34.2883 7.18316 1.54294e-15)
(34.5589 6.37172 8.67141e-16)
(34.7286 5.52925 -5.07755e-16)
(34.7897 4.66966 -2.57605e-16)
(34.7363 3.80262 -4.59683e-16)
(34.566 2.94274 1.37062e-17)
(34.2828 2.11013 -1.57639e-16)
(33.896 1.32116 3.78628e-16)
(33.4149 0.586541 2.78569e-16)
(32.8463 -0.084602 5.66737e-16)
(32.196 -0.68273 5.02265e-16)
(31.4683 -1.19835 -4.20363e-16)
(30.668 -1.62006 -6.64703e-17)
(29.7914 -1.93513 -2.29262e-15)
(29.7428 10.8694 1.23971e-15)
(30.3541 10.6273 -2.99244e-16)
(30.9561 10.3197 5.88665e-16)
(31.5423 9.94326 -6.40885e-16)
(32.1043 9.4957 -7.34739e-16)
(32.6319 8.97647 -1.09237e-15)
(33.1141 8.38719 1.74757e-15)
(33.5385 7.73192 -1.52856e-15)
(33.8914 7.0194 8.99157e-16)
(34.1607 6.26116 -7.62368e-16)
(34.3369 5.47164 1.91477e-17)
(34.413 4.66311 -2.45735e-17)
(34.383 3.84291 9.64895e-17)
(34.2433 3.02315 3.12783e-17)
(33.9952 2.22241 3.63631e-17)
(33.6451 1.45726 -3.11802e-16)
(33.2003 0.739755 2.27942e-18)
(32.6669 0.0802936 -6.44974e-16)
(32.0503 -0.510636 1.48857e-16)
(31.3545 -1.02254 2.22083e-15)
(30.5847 -1.44311 -1.07591e-17)
(29.7384 -1.75885 -4.33677e-16)
(30.1613 10.1998 -8.25875e-17)
(30.7247 9.91474 -1.155e-15)
(31.2746 9.56656 1.79721e-16)
(31.8034 9.15271 1.13812e-16)
(32.3021 8.67221 1.74371e-16)
(32.7604 8.12606 5.65005e-16)
(33.1672 7.51741 1.17696e-15)
(33.5094 6.85396 -2.26121e-15)
(33.7752 6.14616 5.11794e-16)
(33.9555 5.40728 -7.63872e-17)
(34.0436 4.64811 7.50059e-16)
(34.0338 3.87394 3.062e-17)
(33.9213 3.09454 -1.79418e-17)
(33.7056 2.32693 2.81631e-16)
(33.3903 1.58746 4.52774e-16)
(32.9808 0.889067 4.36317e-16)
(32.4822 0.24317 -2.48596e-17)
(31.8993 -0.338884 -1.32264e-15)
(31.2361 -0.845696 -2.45671e-15)
(30.4976 -1.26411 7.71661e-16)
(29.6828 -1.57989 1.56623e-15)
(29.9797 9.79484 -7.99311e-16)
(30.5067 9.52968 2.09603e-16)
(31.022 9.20657 7.78533e-16)
(31.5189 8.82295 -9.56245e-16)
(31.9893 8.37753 3.26928e-16)
(32.4239 7.87083 -6.13699e-16)
(32.8122 7.30539 -1.84135e-15)
(33.1424 6.68786 2.33137e-16)
(33.4028 6.0277 -1.898e-16)
(33.5849 5.33711 -2.36841e-16)
(33.6823 4.62548 -6.48696e-16)
(33.6894 3.89627 -2.06263e-16)
(33.6012 3.15719 7.10444e-17)
(33.415 2.42365 -1.19911e-16)
(33.1324 1.71145 -4.35873e-16)
(32.7569 1.03399 -1.93186e-16)
(32.2925 0.403464 1.28968e-15)
(31.7433 -0.168021 1.46382e-15)
(31.1131 -0.668327 3.85905e-15)
(30.4067 -1.08354 -5.15396e-16)
(29.6243 -1.39873 -1.54444e-16)
(30.3008 9.16373 -9.01334e-16)
(30.7833 8.86299 -3.61968e-16)
(31.2497 8.50652 -1.58066e-16)
(31.6927 8.09297 2.63787e-16)
(32.1036 7.62236 1.00175e-15)
(32.4731 7.09687 7.37781e-16)
(32.7901 6.52218 5.43229e-16)
(33.0436 5.90684 7.32997e-16)
(33.2254 5.26208 5.94451e-16)
(33.3296 4.596 5.6921e-16)
(33.3509 3.91052 1.22959e-16)
(33.2838 3.21147 -6.64179e-17)
(33.1244 2.51259 -1.78473e-16)
(32.8723 1.82895 4.5872e-16)
(32.5293 1.17405 -5.26574e-16)
(32.0984 0.560649 -4.96607e-16)
(31.5827 0.00135656 6.77935e-16)
(30.9857 -0.491019 1.43263e-15)
(30.3121 -0.901939 1.51677e-15)
(29.5629 -1.21584 -1.39941e-15)
(30.1056 8.81639 7.33237e-16)
(30.5573 8.53562 -4.0652e-16)
(30.9946 8.20363 3.86053e-16)
(31.411 7.81898 -4.69321e-16)
(31.7986 7.38142 -9.37428e-16)
(32.1491 6.89276 3.96837e-16)
(32.4522 6.35792 2.40829e-16)
(32.6976 5.78459 -6.74677e-16)
(32.8773 5.18312 -4.67519e-17)
(32.986 4.56055 -2.53646e-16)
(33.0189 3.91739 -9.97132e-17)
(32.9701 3.25777 1.27626e-17)
(32.8349 2.59385 1.8026e-16)
(32.611 1.93979 -2.05613e-16)
(32.299 1.30891 6.90697e-16)
(31.9005 0.714209 -8.60208e-17)
(31.4179 0.168637 -3.83e-16)
(30.8543 -0.314386 -3.35851e-15)
(30.2138 -0.7199 -1.3581e-15)
(29.4985 -1.03176 1.35229e-15)
(29.9202 8.48692 2.50427e-16)
(30.3428 8.22405 -3.51814e-16)
(30.7524 7.91416 9.70058e-16)
(31.1432 7.55574 -4.14618e-16)
(31.5083 7.14839 6.36934e-16)
(31.8398 6.69366 -2.82894e-16)
(32.1285 6.19575 -7.20627e-16)
(32.3647 5.66178 1.8251e-16)
(32.5409 5.10118 -3.4639e-17)
(32.6522 4.52004 5.1332e-17)
(32.6942 3.91763 1.16799e-16)
(32.6611 3.29663 -9.77585e-18)
(32.5472 2.66768 -9.98432e-17)
(32.3494 2.04391 -1.65863e-16)
(32.0666 1.43825 -6.55529e-16)
(31.6994 0.863636 -2.77306e-16)
(31.2494 0.333334 9.56247e-17)
(30.719 -0.139002 1.09669e-16)
(30.112 -0.537967 8.44268e-16)
(29.4312 -0.847046 9.4105e-16)
(30.1387 7.92796 1.08912e-15)
(30.5221 7.63805 1.8277e-16)
(30.8886 7.30352 3.44982e-16)
(31.2317 6.9238 -6.01105e-16)
(31.5445 6.50031 -1.60896e-17)
(31.8185 6.03665 6.94786e-16)
(32.0448 5.53937 3.53993e-16)
(32.2162 5.01717 -2.81216e-16)
(32.3283 4.47525 -2.45776e-16)
(32.3773 3.91194 -4.65288e-17)
(32.3574 3.32853 4.21264e-17)
(32.2625 2.73432 1.67369e-16)
(32.0885 2.14131 1.56742e-17)
(31.8331 1.56178 6.66119e-16)
(31.4959 1.00854 -7.86921e-16)
(31.0777 0.494827 -1.69223e-15)
(30.5802 0.0345091 2.23209e-16)
(30.0069 -0.356771 -1.05973e-15)
(29.3608 -0.662315 -1.74939e-15)
(29.9444 7.64679 -3.22563e-16)
(30.303 7.37502 -8.95519e-17)
(30.6461 7.06223 8.20339e-16)
(30.9682 6.70782 -4.94091e-16)
(31.2626 6.31305 8.31536e-17)
(31.5218 5.88115 -3.80939e-16)
(31.7376 5.41806 -2.39946e-16)
(31.9032 4.93184 7.49667e-17)
(32.0147 4.42703 2.59543e-16)
(32.0688 3.90104 -1.31364e-17)
(32.0599 3.35408 -5.32048e-17)
(31.9816 2.79411 -1.13722e-16)
(31.8291 2.23203 8.66661e-17)
(31.5992 1.67936 -9.22492e-17)
(31.2906 1.14853 1.23723e-15)
(30.9033 0.652646 1.43976e-15)
(30.4382 0.205598 -6.9095e-17)
(29.8986 -0.17699 -4.47118e-16)
(29.2876 -0.478159 3.99993e-16)
(29.759 7.38017 -3.65668e-16)
(30.0941 7.1249 -1.69062e-15)
(30.4151 6.83199 -3.46008e-16)
(30.7169 6.50079 -3.05819e-16)
(30.9935 6.13241 9.14489e-16)
(31.2379 5.72988 9.67267e-16)
(31.4429 5.29858 -2.99805e-16)
(31.6019 4.84605 -1.57958e-16)
(31.7116 4.37618 1.3786e-16)
(31.7691 3.88571 -2.11752e-16)
(31.7691 3.37386 3.69287e-17)
(31.7053 2.84744 1.28819e-16)
(31.5721 2.3162 -1.66589e-16)
(31.3659 1.79087 -3.36986e-16)
(31.0844 1.2833 -5.69542e-17)
(30.7268 0.806271 -1.53296e-15)
(30.2936 0.373619 -9.04198e-16)
(29.7874 0.000815803 3.70814e-16)
(29.2115 -0.295256 1.32343e-15)
(29.8948 6.88734 6.3868e-17)
(30.1948 6.61256 6.01398e-16)
(30.4772 6.30268 3.22611e-16)
(30.7365 5.95862 -1.10468e-15)
(30.9665 5.58322 -3.69846e-16)
(31.1603 5.18151 5.67432e-16)
(31.3123 4.76041 -1.4699e-16)
(31.4191 4.32337 -1.11688e-16)
(31.4786 3.8666 5.70447e-17)
(31.4857 3.38847 -3.29709e-17)
(31.4343 2.89471 2.35345e-19)
(31.3185 2.39402 -1.28529e-16)
(31.134 1.89623 2.56607e-16)
(30.878 1.41254 -4.02649e-16)
(30.5489 0.955321 6.61074e-16)
(30.1468 0.53803 -5.74933e-16)
(29.6736 0.175975 2.50256e-16)
(29.1326 -0.114186 -1.03991e-15)
(29.7045 6.66203 3.56402e-16)
(29.9846 6.4039 -7.84509e-16)
(30.2484 6.11358 4.73643e-16)
(30.4911 5.79194 6.53855e-16)
(30.7069 5.44166 -3.18823e-17)
(30.8897 5.06738 2.52619e-16)
(31.034 4.6756 -1.59893e-16)
(31.1372 4.26936 8.99087e-17)
(31.1974 3.84443 -3.58478e-17)
(31.2102 3.39853 1.51368e-17)
(31.1693 2.9364 -2.75628e-17)
(31.0688 2.46573 -1.04472e-16)
(30.9043 1.99547 2.78711e-16)
(30.6721 1.53609 -4.48643e-17)
(30.3703 1.09936 -6.27139e-16)
(29.9983 0.698343 2.45064e-15)
(29.5575 0.347888 -9.63139e-16)
(29.0511 0.064412 -6.34425e-17)
(29.5224 6.44855 -2.32097e-16)
(29.7838 6.20573 2.74471e-16)
(30.03 5.93345 -2.33337e-16)
(30.2567 5.63249 -4.51025e-16)
(30.4587 5.30545 7.96191e-17)
(30.6305 4.95666 -7.99562e-16)
(30.767 4.59218 3.77821e-16)
(30.866 4.21475 -1.80986e-16)
(30.9259 3.81987 -1.07683e-16)
(30.9429 3.40462 4.28638e-18)
(30.9108 2.97294 -5.14049e-17)
(30.824 2.53164 1.46289e-16)
(30.6775 2.08868 -3.41694e-16)
(30.4675 1.6538 -1.95026e-17)
(30.1916 1.23807 2.80157e-16)
(29.8486 0.854024 5.92181e-16)
(29.4395 0.516002 4.05214e-16)
(28.9672 0.239892 8.30886e-16)
(29.5918 6.01792 -3.95133e-16)
(29.8214 5.76225 -4.30747e-16)
(30.0328 5.4804 1.18404e-15)
(30.2215 5.17485 1.384e-16)
(30.3825 4.84969 -1.24841e-16)
(30.511 4.51063 -3.72022e-18)
(30.6053 4.16013 -9.33587e-17)
(30.6641 3.79347 1.00613e-16)
(30.6841 3.40731 -1.26199e-17)
(30.6594 3.00486 3.7905e-17)
(30.5845 2.59202 -1.02252e-16)
(30.4544 2.17596 -6.79626e-17)
(30.265 1.76555 3.10795e-17)
(30.0135 1.37117 9.41769e-16)
(29.6983 1.00467 -1.66309e-15)
(29.3199 0.679741 -2.71019e-17)
(28.8809 0.411677 -6.54087e-16)
(29.4082 5.8401 9.93366e-17)
(29.622 5.5998 5.46072e-16)
(29.819 5.33562 -4.82588e-16)
(29.9949 5.04999 1.40059e-16)
(30.1452 4.74675 6.84676e-16)
(30.2658 4.43133 3.19434e-16)
(30.355 4.10596 1.47841e-16)
(30.4121 3.76577 -7.91192e-17)
(30.4341 3.40712 7.28127e-18)
(30.4155 3.03256 3.47721e-17)
(30.351 2.64724 2.34615e-17)
(30.2356 2.25748 1.63433e-16)
(30.0652 1.87136 4.86391e-16)
(29.8366 1.49844 -7.68222e-16)
(29.5479 1.14988 1.55192e-15)
(29.1992 0.838617 -4.32375e-16)
(28.7926 0.579212 5.31277e-16)
(29.2326 5.67202 -2.48604e-15)
(29.4315 5.44596 2.0301e-16)
(29.6146 5.19817 2.98497e-16)
(29.7783 4.931 -5.57177e-16)
(29.9184 4.6481 2.51994e-16)
(30.0311 4.35468 -3.05935e-16)
(30.1151 4.05272 8.25112e-18)
(30.17 3.73732 -3.96425e-17)
(30.193 3.40459 -3.37892e-18)
(30.1794 3.05655 2.9533e-17)
(30.1239 2.69764 9.1701e-17)
(30.0218 2.33345 2.10736e-16)
(29.8687 1.97121 -4.63505e-16)
(29.6615 1.61973 8.62678e-17)
(29.3979 1.28934 9.12876e-17)
(29.0777 0.992181 1.47611e-16)
(29.2493 5.30053 -3.64011e-16)
(29.4194 5.06793 -7.18983e-16)
(29.5714 4.81791 7.0745e-17)
(29.7016 4.55391 -4.19892e-16)
(29.8066 4.2809 3.7055e-16)
(29.8853 4.00074 -1.80134e-16)
(29.9375 3.7085 4.735e-17)
(29.9611 3.40015 -4.31178e-19)
(29.9514 3.07723 -6.51759e-17)
(29.9037 2.74358 -1.12325e-16)
(29.8134 2.40408 5.17685e-18)
(29.6762 2.0652 -3.42687e-16)
(29.4889 1.73493 2.61775e-16)
(29.249 1.42279 -1.20184e-15)
(28.9559 1.14003 3.67816e-16)
(29.075 5.16328 4.58756e-16)
(29.2329 4.94481 7.69838e-16)
(29.3738 4.7107 -5.99379e-16)
(29.4945 4.46426 3.50326e-16)
(29.592 4.21024 -3.43173e-16)
(29.6654 3.95035 2.82337e-17)
(29.7148 3.67972 -1.90157e-17)
(29.7382 3.39423 -2.25074e-17)
(29.7317 3.09502 2.66717e-17)
(29.6907 2.78541 -3.39988e-17)
(29.6109 2.46963 7.0111e-17)
(29.4882 2.15342 4.92942e-16)
(29.3192 1.84399 -6.30834e-17)
(29.1015 1.55001 3.08215e-16)
(28.8342 1.28184 -4.8033e-16)
(28.9083 5.03396 5.77387e-16)
(29.0546 4.82866 -4.69176e-16)
(29.1851 4.60935 8.17786e-16)
(29.2968 4.37923 -7.20869e-16)
(29.3871 4.14286 -1.6569e-16)
(29.4552 3.90182 -5.70207e-18)
(29.5015 3.65132 -1.57085e-16)
(29.5245 3.3872 -2.83722e-18)
(29.5204 3.11031 5.98331e-17)
(29.4852 2.82347 -3.22658e-17)
(29.4146 2.53035 -1.2163e-16)
(29.305 2.23603 -3.97794e-16)
(29.153 1.94693 -4.70007e-16)
(28.9561 1.67088 6.44918e-16)
(28.713 1.41735 2.64109e-16)
(28.7489 4.91232 -1.47335e-15)
(28.8843 4.71928 -1.15241e-16)
(29.0049 4.51374 -4.61634e-16)
(29.1081 4.29881 4.58363e-16)
(29.1914 4.07883 1.22592e-16)
(29.2544 3.8553 2.51259e-16)
(29.2977 3.62354 1.48268e-16)
(29.3198 3.37938 -2.74258e-17)
(29.3176 3.12342 -1.70335e-17)
(29.2873 2.85809 9.07043e-17)
(29.225 2.58653 -3.58943e-16)