/*--------------------------------*- C++ -*----------------------------------*\
| =========                 |                                                 |
| \\      /  F ield         | OpenFOAM: The Open Source CFD Toolbox           |
|  \\    /   O peration     | Version:  2306                                  |
|   \\  /    A nd           | Website:  www.openfoam.com                      |
|    \\/     M anipulation  |                                                 |
\*---------------------------------------------------------------------------*/
FoamFile
{
    version     2.0;
    format      ascii;
    arch        "LSB;label=32;scalar=64";
    class       volScalarField;
    location    "325";
    object      p;
}
// * * * * * * * * * * * * * * * * * * * * * * * * * * * * * * * * * * * * * //

dimensions      [0 2 -2 0 0 0 0];

internalField   nonuniform List<scalar> 
1340
(
-90.0569
-51.5516
-6.90789
26.058
-89.6892
-51.2632
-6.60691
25.7466
-89.2638
-50.9433
-6.35868
25.866
-88.7836
-50.6445
-6.25947
26.069
-88.1844
-50.3535
-6.30111
26.1292
-87.5322
-50.0917
-6.51395
26.0108
-86.9021
-49.9224
-6.93548
25.6879
-86.2547
-49.8272
-7.54984
25.1092
-85.573
-49.7437
-8.26261
24.2555
-84.8609
-49.6436
-9.0156
23.1765
-84.1269
-49.5223
-9.8174
21.938
-83.3795
-49.3982
-10.6843
20.5664
-82.6184
-49.2928
-11.6174
19.0674
-81.8401
-49.213
-12.6134
17.4553
-81.0431
-49.1544
-13.6698
15.7429
-80.2272
-49.1139
-14.7799
13.9364
-79.392
-49.0889
-15.9356
12.0421
-78.536
-49.0789
-17.128
10.0711
-77.6581
-49.0818
-18.3483
8.03526
-76.7564
-49.0949
-19.5878
5.94772
-75.8286
-49.1137
-20.837
3.82274
-74.8728
-49.1338
-22.0858
1.67521
-73.8864
-49.1497
-23.3251
-0.480783
-72.8671
-49.155
-24.5439
-2.62972
-71.8116
-49.1435
-25.7321
-4.75669
-70.7183
-49.1072
-26.879
-6.84644
-69.5837
-49.0394
-27.9757
-8.88374
-68.406
-48.9337
-29.0113
-10.8548
-67.183
-48.7806
-29.9772
-12.7463
-65.9126
-48.5751
-30.8638
-14.5456
-64.5941
-48.31
-31.6636
-16.2422
-63.2271
-47.9798
-32.3694
-17.8262
-61.8109
-47.58
-32.9747
-19.2885
-72.6937
-60.3474
-47.106
-33.474
-20.6226
-70.2441
-58.8375
-46.5561
-33.864
-21.8226
-67.7874
-57.2837
-45.929
-34.1414
-22.8846
-65.3298
-55.6895
-45.2238
-34.3052
-23.8061
-62.8782
-54.0588
-44.4422
-34.3549
-24.5859
-60.4395
-52.3961
-43.5865
-34.2921
-25.2249
-58.0202
-50.7067
-42.6603
-34.1193
-25.7246
-55.6268
-48.9963
-41.668
-33.8404
-26.0881
-53.2656
-47.2709
-40.6151
-33.4604
-26.3203
-50.9425
-45.5367
-39.5079
-32.9853
-26.4264
-48.6628
-43.8001
-38.3531
-32.422
-26.413
-46.4315
-42.0673
-37.158
-31.778
-26.2874
-47.6408
-44.2529
-40.3444
-35.9296
-31.0614
-26.0576
-45.1526
-42.1308
-38.6371
-34.6756
-30.2806
-25.7322
-42.7595
-40.0683
-36.951
-33.4032
-29.4441
-25.32
-40.4616
-38.0679
-35.2909
-32.1193
-28.5603
-24.8299
-38.2582
-36.1316
-33.6612
-30.8308
-27.6376
-24.2712
-36.1481
-34.2608
-32.0658
-29.5437
-26.6838
-23.6528
-34.1298
-32.4562
-30.5081
-28.2638
-25.7068
-22.9833
-32.2013
-30.7182
-28.9909
-26.9961
-24.7135
-22.2712
-30.36
-29.0465
-27.5163
-25.7453
-23.7105
-21.5245
-29.5918
-28.6034
-27.4407
-26.086
-24.5152
-22.7036
-20.7504
-27.8043
-26.9285
-25.8997
-24.7012
-23.3093
-21.6983
-19.9558
-26.1082
-25.3324
-24.4224
-23.3626
-22.1301
-20.699
-19.147
-24.4989
-23.8118
-23.0072
-22.0705
-20.9799
-19.71
-18.3296
-22.9719
-22.3634
-21.6522
-20.8248
-19.8605
-18.7347
-17.5085
-21.5226
-20.984
-20.3556
-19.625
-18.7729
-17.7758
-16.688
-20.1468
-19.6702
-19.1152
-18.4705
-17.7181
-16.8358
-15.872
-19.1999
-18.84
-18.4185
-17.9287
-17.3602
-16.6964
-15.9164
-15.0636
-17.917
-17.5982
-17.2259
-16.7939
-16.293
-15.7079
-15.0192
-14.2656
-16.6992
-16.4172
-16.0887
-15.7082
-15.2674
-14.7524
-14.145
-13.4802
-15.5423
-15.2934
-15.004
-14.6695
-14.2822
-13.8295
-13.2948
-12.7093
-14.4415
-14.2225
-13.9683
-13.6748
-13.3353
-12.9383
-12.4684
-11.9538
-13.3938
-13.2018
-12.9793
-12.7225
-12.4258
-12.0784
-11.6667
-11.2158
-12.5502
-12.377
-12.1766
-11.9453
-11.6782
-11.3657
-10.9951
-10.5896
-11.9871
-11.849
-11.6889
-11.5035
-11.2898
-11.0434
-10.7554
-10.4137
-10.04
-11.2619
-11.1345
-10.9883
-10.8187
-10.6228
-10.3972
-10.1337
-9.82103
-9.48149
-10.5172
-10.3997
-10.2664
-10.1118
-9.93306
-9.72755
-9.48795
-9.20263
-8.89048
-9.77543
-9.67065
-9.55265
-9.41479
-9.25443
-9.06947
-8.85393
-8.59848
-8.32753
-8.9836
-8.88686
-8.77996
-8.65562
-8.51154
-8.34602
-8.15241
-7.91814
-7.65377
-8.27874
-8.2009
-8.11398
-8.00967
-7.88565
-7.74148
-7.57458
-7.38165
-7.19689
-7.3406
-7.26346
-7.18186
-7.08748
-6.97796
-6.85177
-6.70001
-6.50299
-6.24785
-6.89481
-6.8529
-6.80354
-6.73746
-6.65322
-6.55344
-6.44456
-6.33942
-6.30317
-5.37864
-5.31741
-5.25857
-5.19384
-5.12001
-5.03237
-4.91125
-4.71512
-4.37589
-5.99209
-6.01913
-6.02167
-6.01762
-6.00076
-5.96752
-5.92577
-5.90448
-5.95541
-6.21383
-2.51595
-2.44852
-2.3901
-2.34796
-2.30951
-2.26792
-2.2147
-2.10482
-1.85703
-1.28995
-6.76695
-6.64812
-6.66935
-6.79542
-6.88832
-6.93295
-6.97606
-7.09229
-7.38781
-8.06535
106.907
106.178
105.233
104.002
102.275
99.862
96.5438
92.1406
86.6789
80.5107
74.1548
67.9859
62.1236
56.5472
51.2169
46.1165
41.2457
36.6064
32.1967
28.0099
24.0367
20.2679
16.6944
13.3077
10.1003
7.0647
4.19404
1.48152
-1.07737
-3.48617
-5.74676
-7.85969
-9.8255
-11.6434
-13.3126
-14.8327
-16.2031
-17.424
-18.4963
-19.4214
-20.2015
-20.8403
-21.3418
-21.711
-21.954
-22.0776
-22.089
-21.9963
-21.8076
-21.5317
-21.1773
-20.7531
-20.2677
-19.7295
-19.1464
-18.5261
-17.8757
-17.2016
-16.5098
-15.8057
-15.0941
-14.3791
-13.6644
-12.9532
-12.2483
-11.5513
-10.8658
-10.2792
-9.75606
-9.22806
-8.65589
-8.13314
-7.45262
-7.07764
-6.0455
-6.30195
-4.11233
-6.4036
-0.929165
-8.5405
46.9949
46.4806
45.9951
45.5465
45.1085
44.7201
44.4091
44.1474
43.8401
43.3573
42.6156
41.6096
40.3457
38.8226
37.0577
35.0835
32.9346
30.643
28.2382
25.7483
23.1994
20.6165
18.022
15.4356
12.8752
10.3562
7.89367
5.50086
3.18943
0.968267
-1.15532
-3.17509
-5.08648
-6.88506
-8.567
-10.1293
-11.5693
-12.8848
-14.0743
-15.1368
-16.0721
-16.881
-17.5649
-18.1259
-18.5675
-18.8939
-19.1097
-19.2207
-19.2329
-19.1533
-18.989
-18.7474
-18.4361
-18.0626
-17.6345
-17.1589
-16.6429
-16.093
-15.5155
-14.916
-14.2998
-13.6716
-13.0355
-12.3953
-11.7545
-11.1151
-10.4811
-9.9351
-9.44553
-8.95207
-8.40962
-7.92024
-7.26389
-6.92074
-5.91263
-6.18323
-4.05592
-6.27362
-1.02555
29.2662
28.971
28.6469
28.3138
27.9349
27.4892
26.9733
26.3868
25.731
25.0111
24.2406
23.4514
22.6722
21.9023
21.1264
20.324
19.4767
18.5704
17.5939
16.5393
15.4017
14.1802
12.8769
11.4972
10.0493
8.54337
6.99093
5.40388
3.79556
2.17948
0.569188
-1.02182
-2.58127
-4.09738
-5.55931
-6.95749
-8.28328
-9.52912
-10.6885
-11.7558
-12.7267
-13.5979
-14.3671
-15.033
-15.5954
-16.0552
-16.4143
-16.6753
-16.8419
-16.9184
-16.91
-16.8221
-16.6608
-16.4323
-16.143
-15.7994
-15.4079
-14.9749
-14.5062
-14.0075
-13.4842
-12.9413
-12.3833
-11.8142
-11.2379
-10.6572
-10.0758
-9.57184
-9.11723
-8.65875
-8.14865
-7.69094
-7.06694
-6.744
-5.78537
-6.03127
-4.0308
-6.08494
27.8517
27.6625
27.4564
27.2418
27.005
26.7277
26.3917
25.979
25.4681
24.8385
24.0795
23.2058
22.2594
21.2753
20.2665
19.2365
18.188
17.1244
16.0483
14.9604
13.8599
12.7448
11.613
10.4621
9.29022
8.09598
6.87913
5.64014
4.38137
3.10627
1.8198
0.528472
-0.76054
-2.03907
-3.29826
-4.52921
-5.72292
-6.87071
-7.9643
-8.99602
-9.95912
-10.8478
-11.657
-12.3827
-13.0222
-13.5735
-14.0359
-14.4096
-14.6959
-14.897
-15.0157
-15.0558
-15.0216
-14.9179
-14.75
-14.5233
-14.2435
-13.9163
-13.5471
-13.1416
-12.7049
-12.242
-11.7576
-11.2559
-10.7413
-10.2167
-9.68595
-9.22239
-8.80056
-8.37459
-7.89486
-7.46714
-6.87293
-6.57203
-5.6532
-5.89261
-3.97861
23.6022
23.3966
23.1863
22.9845
22.7838
22.5776
22.3577
22.1158
21.844
21.5309
21.1613
20.7203
20.2043
19.623
18.9844
18.2902
17.5416
16.7398
15.8873
14.9876
14.0448
13.0627
12.0457
10.998
9.92388
8.82724
7.7119
6.58132
5.43908
4.28852
3.13302
1.97651
0.822929
-0.323229
-1.45686
-2.57249
-3.66416
-4.72562
-5.75035
-6.73183
-7.6638
-8.54028
-9.35574
-10.1052
-10.7845
-11.3902
-11.9199
-12.372
-12.7457
-13.0414
-13.2602
-13.4039
-13.4753
-13.4778
-13.4151
-13.2916
-13.1119
-12.881
-12.6037
-12.2852
-11.9302
-11.5437
-11.1303
-10.6943
-10.2399
-9.77061
-9.29012
-8.8666
-8.47739
-8.08378
-7.63449
-7.23711
-6.67191
-6.39594
-5.51095
-5.75698
18.9543
18.7764
18.5909
18.4117
18.2315
18.0476
17.8574
17.6549
17.4342
17.1903
16.917
16.6066
16.2523
15.8553
15.4225
14.9578
14.4621
13.9347
13.3734
12.7755
12.1396
11.4646
10.75
9.99596
9.20347
8.37423
7.51069
6.61588
5.69351
4.74761
3.78253
2.80309
1.81407
0.820499
-0.172391
-1.15933
-2.13486
-3.09348
-4.02943
-4.93706
-5.81066
-6.64467
-7.43369
-8.17254
-8.85664
-9.4818
-10.0445
-10.5418
-10.9718
-11.333
-11.6252
-11.8485
-12.0041
-12.0938
-12.1201
-12.086
-11.995
-11.8509
-11.658
-11.4205
-11.1429
-10.8296
-10.485
-10.1132
-9.7184
-9.30441
-8.87454
-8.49163
-8.13598
-7.77575
-7.3583
-6.99227
-6.45777
-6.20748
15.8227
15.6761
15.5205
15.3674
15.2115
15.0516
14.8881
14.7184
14.5373
14.3396
14.1205
13.8741
13.5936
13.2744
12.9185
12.5328
12.1217
11.6875
11.2318
10.754
10.2529
9.72755
9.17705
8.60059
7.9974
7.36694
6.70894
6.02352
5.31136
4.57357
3.81188
3.02871
2.22691
1.40996
0.58187
-0.252977
-1.08979
-1.92355
-2.74895
-3.56058
-4.35297
-5.12068
-5.85834
-6.56066
-7.22277
-7.84005
-8.40826
-8.92377
-9.38345
-9.78489
-10.1264
-10.4069
-10.6262
-10.7846
-10.8834
-10.9241
-10.9092
-10.8414
-10.7239
-10.5602
-10.3541
-10.1094
-9.83016
-9.52015
-9.18339
-8.82366
-8.44398
-8.10176
-7.77998
-7.45349
-7.0687
-6.73444
13.6187
13.4947
13.3613
13.2282
13.0919
12.9517
12.8091
12.6641
12.5146
12.3566
12.1861
11.999
11.7904
11.5542
11.2856
10.9852
10.6572
10.3049
9.93034
9.53519
9.11953
8.68242
8.22339
7.74241
7.23948
6.71462
6.16791
5.59958
5.01004
4.3998
3.76961
3.12059
2.45408
1.77182
1.07604
0.369375
-0.345086
-1.06383
-1.78291
-2.49803
-3.20466
-3.89808
-4.57343
-5.22575
-5.85026
-6.4423
-6.99741
-7.51151
-7.9809
-8.40244
-8.77349
-9.09202
-9.35669
-9.56673
-9.72212
-9.82342
-9.87181
-9.86901
-9.81722
-9.71905
-9.57749
-9.39574
-9.17722
-8.92541
-8.64389
-8.3364
-8.00554
-7.70324
-7.41494
11.804
11.6988
11.5852
11.4703
11.3512
11.2274
11.1009
10.9725
10.8421
10.7081
10.5678
10.4178
10.255
10.0755
9.87441
9.64752
9.39438
9.11787
8.82041
8.50354
8.16881
7.81618
7.44444
7.05279
6.64092
6.20866
5.75597
5.28291
4.78982
4.27716
3.7456
3.1961
2.62973
2.04783
1.45207
0.844316
0.226765
-0.398057
-1.0273
-1.65777
-2.28603
-2.90833
-3.52068
-4.11891
-4.69877
-5.25599
-5.78631
-6.2857
-6.75026
-7.17653
-7.56138
-7.90209
-8.19658
-8.44322
-8.64103
-8.78961
-8.88912
-8.94031
-8.94445
-8.90325
-8.8189
-8.69387
-8.53097
-8.33318
-8.1036
-7.8458
10.2883
10.1989
10.1027
10.0051
9.9026
9.79421
9.68198
9.56731
9.45068
9.33203
9.21044
9.08371
8.94909
8.80402
8.64529
8.46881
8.27088
8.05065
7.81025
7.55183
7.27687
6.98696
6.68233
6.3619
6.02475
5.67041
5.2986
4.90908
4.50172
4.07652
3.63367
3.17364
2.69699
2.20461
1.69763
1.17744
0.645672
0.104283
-0.444509
-0.998198
-1.55402
-2.10899
-2.65983
-3.20304
-3.73503
-4.25203
-4.75021
-5.22581
-5.67506
-6.09446
-6.48071
-6.83076
-7.14206
-7.41239
-7.64006
-7.82391
-7.96328
-8.05807
-8.10868
-8.11601
-8.08146
-8.00675
9.04582
8.96948
8.88738
8.80398
8.71666
8.6235
8.52519
8.42328
8.31878
8.21223
8.10381
7.99288
7.8778
7.7563
7.62618
7.48474
7.3284
7.15379
6.95969
6.74756
6.51932
6.27642
6.0204
5.75182
5.46983
5.17355
4.86255
4.53662
4.1956
3.83932
3.46772
3.08093
2.67915
2.26278
1.83244
1.38894
0.933346
0.466961
-0.00860851
-0.491508
-0.979623
-1.47059
-1.96177
-2.45027
-2.93306
-3.40691
-3.86843
-4.31424
-4.74084
-5.14488
-5.52308
-5.87232
-6.18978
-6.47292
-6.7196
-6.92807
-7.09706
8.01407
7.94854
7.8781
7.80631
7.73115
7.6514
7.567
7.47799
7.38509
7.28942
7.19172
7.09226
6.99068
6.88578
6.77573
6.65859
6.53209
6.39314
6.23861
6.067
5.87918
5.6768
5.46119
5.2338
4.9954
4.74534
4.48272
4.20712
3.91837
3.61635
3.30095
2.97218
2.63007
2.27482
1.90681
1.5265
1.13456
0.731862
0.319489
-0.101248
-0.528818
-0.961449
-1.39711
-1.83352
-2.2682
-2.69848
-3.12148
-3.53421
-3.93358
-4.31648
7.13922
7.08276
7.0221
6.96018
6.89526
6.82628
6.75358
6.67715
6.59641
6.51156
6.42374
6.33385
6.24227
6.14885
6.05277
5.95253
5.84644
5.73258
5.60832
5.47076
5.31822
5.15108
4.97074
4.77842
4.57547
4.36284
4.14009
3.90629
3.66099
3.40402
3.13526
2.85466
2.56215
2.25779
1.94175
1.61433
1.27595
0.927185
)
;

boundaryField
{
    inlet
    {
        type            freestreamPressure;
        freestreamValue uniform 0;
        value           nonuniform List<scalar> 
11
(
-3.17518
-2.91916
-2.9301
-2.98708
-3.02944
-3.05052
-3.07092
-3.12359
-3.25554
-3.41546
-3.76646
)
;
    }
    outlet
    {
        type            freestreamPressure;
        freestreamValue nonuniform List<scalar> 0();
        value           nonuniform List<scalar> 0();
    }
    walls
    {
        type            zeroGradient;
    }
    frontAndBack
    {
        type            empty;
    }
    procBoundary6to2
    {
        type            processor;
        value           nonuniform List<scalar> 
13
(
106.547
47.3158
29.4213
27.9812
23.7499
19.077
15.9283
13.7119
11.8847
10.3582
9.10671
8.06718
7.18555
)
;
    }
    procBoundary6to3
    {
        type            processor;
        value           uniform 6.38864;
    }
    procBoundary6to5
    {
        type            processor;
        value           nonuniform List<scalar> 
86
(
-127.671
-127.207
-126.648
-125.896
-124.875
-123.773
-122.655
-121.498
-120.298
-119.041
-117.726
-116.358
-114.937
-113.46
-111.929
-110.34
-108.695
-106.994
-105.234
-103.417
-101.543
-99.6127
-97.6262
-95.5848
-93.4904
-91.3437
-89.1487
-86.9065
-84.6212
-82.2967
-79.9365
-77.5457
-75.1296
-75.1296
-83.8317
-80.4956
-77.1911
-73.928
-70.7148
-67.5603
-64.4719
-61.456
-58.5188
-55.6651
-52.8989
-50.2234
-50.2234
-50.5129
-47.7125
-45.0384
-42.4882
-40.0587
-37.7468
-35.5483
-33.4593
-31.4753
-31.4753
-30.4205
-28.5405
-26.762
-25.0795
-23.4874
-21.9802
-20.5527
-20.5527
-19.5027
-18.186
-16.9378
-15.7534
-14.6276
-13.5573
-12.6984
-12.6984
-12.1047
-11.372
-10.6207
-9.86869
-9.07183
-8.34913
-7.41486
-6.92959
-5.44474
-5.44474
-5.90136
-2.55581
-6.35549
)
;
    }
    procBoundary6to7
    {
        type            processor;
        value           nonuniform List<scalar> 
91
(
-8.35386
-8.35386
-1.17341
-1.17341
-5.94226
-5.94226
-3.90509
-5.35847
-3.90509
-5.6108
-6.23214
-5.35847
-6.00726
-7.12178
-6.76972
-6.23214
-6.46701
-7.56186
-7.29826
-7.12178
-7.04268
-7.89403
-7.74574
-7.56441
-7.56186
-7.35336
-7.22575
-7.31384
-7.36147
-7.3693
-7.89403
-7.33837
-4.67983
-5.02058
-5.33585
-5.62297
-5.87953
-6.10343
-7.22575
-6.29294
0.5688
0.201731
-0.172902
-0.553788
-0.939378
-1.3279
-1.71739
-2.1057
-2.49042
-2.86904
-3.23889
-4.67983
-3.5972
6.33983
6.28743
6.23387
6.17774
6.11803
6.0549
5.98865
5.91916
5.84576
5.76824
5.68746
5.60448
5.51985
5.43359
5.34516
5.25335
5.15667
5.05352
4.94168
4.81848
4.68208
4.53246
4.37076
4.19814
4.0159
3.8251
3.62548
3.4162
3.19672
2.96687
2.7266
2.47582
2.21445
1.94257
1.66029
1.36784
0.5688
1.06559
)
;
    }
}


// ************************************************************************* //
