/*--------------------------------*- C++ -*----------------------------------*\
| =========                 |                                                 |
| \\      /  F ield         | OpenFOAM: The Open Source CFD Toolbox           |
|  \\    /   O peration     | Version:  2306                                  |
|   \\  /    A nd           | Website:  www.openfoam.com                      |
|    \\/     M anipulation  |                                                 |
\*---------------------------------------------------------------------------*/
FoamFile
{
    version     2.0;
    format      ascii;
    arch        "LSB;label=32;scalar=64";
    class       surfaceScalarField;
    location    "325";
    object      phi;
}
// * * * * * * * * * * * * * * * * * * * * * * * * * * * * * * * * * * * * * //

dimensions      [0 3 -1 0 0 0 0];

oriented        oriented;

internalField   nonuniform List<scalar> 
2577
(
0.113938
0.0126198
0.0953906
0.018546
0.0668356
0.0285557
0.0653169
0.00151706
0.152916
0.0278112
0.133127
0.0383326
0.0996523
0.062029
0.0715058
0.0296608
0.192009
0.0490015
0.167121
0.0632199
0.129645
0.0995068
0.0871721
0.0721331
0.237182
0.0777625
0.205641
0.0947592
0.162905
0.142242
0.112366
0.12267
0.287349
0.11169
0.249237
0.13287
0.200594
0.190886
0.144248
0.179016
0.333405
0.138939
0.295007
0.171267
0.242406
0.243486
0.181268
0.240153
0.3618
0.153087
0.334142
0.198925
0.28529
0.292339
0.222111
0.303332
0.374802
0.163342
0.359249
0.214477
0.322932
0.328656
0.26395
0.362312
0.387048
0.177755
0.374578
0.226946
0.351096
0.35214
0.30203
0.411378
0.405684
0.195951
0.389538
0.243091
0.371671
0.370006
0.332363
0.450685
0.428842
0.215108
0.408669
0.263263
0.390194
0.388484
0.355377
0.485502
0.453402
0.234096
0.431417
0.285246
0.410418
0.409483
0.376061
0.519858
0.478321
0.253184
0.455998
0.307569
0.433196
0.432287
0.398508
0.554546
0.504013
0.272837
0.481483
0.330099
0.457936
0.455834
0.423486
0.588995
0.530964
0.293234
0.507995
0.353068
0.484053
0.479778
0.450457
0.622591
0.559467
0.31432
0.535807
0.376727
0.511449
0.504136
0.47888
0.655159
0.589523
0.336074
0.565187
0.401062
0.540291
0.529035
0.508615
0.686834
0.621218
0.358383
0.596238
0.426043
0.5707
0.554573
0.539797
0.717737
0.654568
0.381257
0.629018
0.451592
0.602877
0.580716
0.57261
0.748004
0.689675
0.404667
0.663602
0.477664
0.636895
0.607423
0.607177
0.777723
0.726621
0.42856
0.700081
0.504203
0.672834
0.634671
0.643626
0.806931
0.765481
0.452917
0.738515
0.531169
0.710787
0.6624
0.682009
0.835708
0.80639
0.477645
0.779052
0.558506
0.750838
0.690616
0.722446
0.864099
0.849357
0.502844
0.821737
0.586126
0.793126
0.719228
0.765035
0.89219
0.894724
0.528196
0.866724
0.614126
0.837708
0.748244
0.809895
0.920003
0.942256
0.553951
0.914035
0.642346
0.884776
0.777504
0.857132
0.947647
0.992227
0.579758
0.963986
0.670587
0.934255
0.807236
0.906893
0.975009
1.0449
0.605689
1.01629
0.699204
0.986504
0.837017
0.959305
1.00221
1.1001
0.631818
1.07172
0.727582
1.04154
0.867201
1.0143
1.02944
1.15821
0.657935
1.12958
0.756206
1.09946
0.89732
1.07245
1.05646
1.21933
0.683827
1.19079
0.784746
1.16039
0.927726
1.13345
1.08339
1.28329
0.709855
1.25504
0.812996
1.22467
0.958092
1.19757
1.1105
1.35089
0.735391
1.32243
0.84146
1.29202
0.988495
1.26529
1.13723
1.44708
0.676022
1.42153
0.760941
1.39346
0.869523
1.36307
1.01889
1.33634
1.16396
1.52123
0.698368
1.49586
0.78631
1.4681
0.897276
1.43764
1.04935
1.41107
1.19054
1.59898
0.720651
1.57398
0.81131
1.54631
0.924947
1.51609
1.07957
1.48972
1.21691
1.68073
0.742555
1.65613
0.835906
1.62886
0.95222
1.59865
1.10978
1.57237
1.24319
1.76671
0.764062
1.74227
0.860339
1.71516
0.979337
1.68515
1.13979
1.65928
1.26906
1.85688
0.785296
1.83291
0.884312
1.80626
1.00599
1.77633
1.16972
1.75051
1.29488
1.95178
0.806251
1.92815
0.907946
1.90171
1.03243
1.87203
1.19939
1.84643
1.32049
2.05137
0.827067
2.02822
0.931091
2.00215
1.0585
1.97247
1.22907
1.94724
1.34571
2.15644
0.847334
2.1335
0.954027
2.10765
1.08435
2.07828
1.25845
2.05335
1.37064
2.26669
0.867482
2.24394
0.976774
2.21862
1.10967
2.18912
1.28794
2.16464
1.39512
2.38277
0.887402
2.36037
0.999179
2.33525
1.13479
2.30607
1.31713
2.28165
1.41954
2.5048
0.907118
2.48283
1.02114
2.45767
1.15995
2.42865
1.34615
2.40472
1.44346
2.65311
0.828347
2.63343
0.926794
2.61132
1.04325
2.58676
1.18451
2.55763
1.37528
2.53407
1.46702
2.7883
0.846262
2.76877
0.946326
2.74691
1.06511
2.72224
1.20918
2.6931
1.40442
2.66992
1.4902
2.9309
0.864206
2.91119
0.966033
2.88952
1.08678
2.865
1.23371
2.83584
1.43358
2.81289
1.51315
3.08085
0.882354
3.06134
0.985545
3.03958
1.10854
3.01499
1.2583
2.98594
1.46263
2.96307
1.53602
3.23924
0.900751
3.21932
1.00547
3.19754
1.13032
3.17317
1.28267
3.14363
1.49217
3.12123
1.55841
3.40589
0.919431
3.38594
1.02542
3.36409
1.15217
3.33932
1.30745
3.30978
1.52171
3.28745
1.58075
3.58155
0.938463
3.5614
1.04557
3.53929
1.17427
3.5145
1.33224
3.48439
1.55181
3.46237
1.60277
3.76691
0.957864
3.74636
1.06612
3.72382
1.1968
3.69879
1.35728
3.66849
1.58211
3.64645
1.62481
3.96231
0.977816
3.94115
1.08728
3.91855
1.21941
3.89298
1.38284
3.86214
1.61296
3.84008
1.64687
4.18852
0.90124
4.16809
0.998245
4.1466
1.10877
4.12345
1.24256
4.09755
1.40874
4.066
1.64451
4.04412
1.66874
4.40639
0.921753
4.38519
1.01945
4.36326
1.13069
4.33941
1.26641
4.31298
1.43517
4.2808
1.67669
4.25869
1.69086
4.63596
0.943058
4.61406
1.04134
4.59143
1.15333
4.56704
1.2908
4.54009
1.46213
4.50707
1.7097
4.48479
1.71314
4.87812
0.965189
4.85549
1.06397
4.83208
1.17674
4.80703
1.31585
4.77928
1.48988
4.74538
1.74359
4.7229
1.73563
5.13348
0.988195
5.11006
1.08739
5.08571
1.20109
5.06003
1.34153
5.03137
1.51854
4.99653
1.77843
4.97366
1.7585
5.40278
1.01239
5.37829
1.11188
5.35319
1.22619
5.32649
1.36823
5.29706
1.54797
5.2611
1.81438
5.23779
1.78181
5.68691
1.0374
5.66142
1.13736
5.63542
1.2522
5.60772
1.39593
5.57726
1.57843
5.53985
1.85179
5.51621
1.80545
6.01263
0.970576
5.98636
1.06367
5.95983
1.1639
5.93259
1.27943
5.90401
1.42452
5.8723
1.61014
5.83375
1.89034
5.80945
1.82976
6.32986
0.997653
6.3024
1.09113
6.27463
1.19167
6.2464
1.30766
6.21646
1.45445
6.18373
1.64287
6.14348
1.9306
6.11845
1.85479
6.66436
1.02618
6.63555
1.11995
6.60666
1.22056
6.57708
1.33723
6.54589
1.48565
6.5118
1.67696
6.47003
1.97236
6.44435
1.88047
7.01771
1.05594
6.98762
1.15003
6.95661
1.25156
6.92552
1.36832
6.89329
1.51789
6.8575
1.71274
6.81428
2.01559
6.78766
1.90709
7.38916
1.08853
7.35762
1.18157
7.32696
1.28223
7.2942
1.40108
7.26006
1.55203
7.22255
1.75025
7.17727
2.06086
7.1494
1.93496
7.78315
1.12062
7.74961
1.21512
7.71571
1.31612
7.68243
1.43436
7.64648
1.58798
7.60849
1.78823
7.56008
2.10927
7.53192
1.96312
5.72269
1.11167
5.73481
1.203
5.75127
1.29966
5.77306
1.41258
5.79959
1.56145
5.83022
1.7576
5.86969
2.0698
5.9005
1.93231
6.27839
1.01955
6.28727
1.10279
6.30074
1.18953
6.31987
1.28053
6.34304
1.38941
6.37093
1.53356
6.40671
1.72182
6.44845
2.02806
6.48219
1.89857
6.89857
1.01557
6.90731
1.09405
6.92328
1.17357
6.94368
1.26014
6.96941
1.36368
7.00115
1.50182
7.03806
1.68491
7.08585
1.98027
7.1224
1.86202
7.57917
1.01069
7.5902
1.08302
7.60593
1.15783
7.62876
1.23731
7.65698
1.33546
7.69109
1.4677
7.7342
1.6418
7.78389
1.93058
7.82701
1.8189
8.32677
1.00634
8.33865
1.07114
8.35793
1.13854
8.38175
1.2135
8.41224
1.30496
8.45126
1.42868
8.49781
1.59525
8.55458
1.87381
8.59917
1.77431
9.14953
1.00146
9.16207
1.0586
9.18208
1.11853
9.2093
1.18628
9.24328
1.27099
9.2857
1.38626
9.33546
1.54549
9.39872
1.81056
9.44793
1.72509
10.0531
0.994782
10.0675
1.04421
10.0895
1.09656
10.12
1.15575
10.1586
1.23241
10.2043
1.3406
10.2598
1.48991
10.329
1.74143
10.3841
1.66998
11.0442
0.988116
11.06
1.02835
11.0836
1.073
11.1159
1.12346
11.1575
1.19074
11.2088
1.28932
11.2708
1.42789
11.3448
1.66744
11.4054
1.60942
12.1421
0.981024
12.1584
1.01204
12.1864
1.04506
12.223
1.08682
12.2691
1.14467
12.3248
1.23363
12.393
1.35972
12.4787
1.58165
12.5476
1.54059
13.3288
0.972425
13.3483
0.992552
13.3771
1.01621
13.4175
1.04642
13.4674
1.09478
13.5292
1.17189
13.6019
1.28695
13.6899
1.49372
13.7607
1.46979
14.6666
0.582831
14.6765
0.96255
14.6984
0.97068
14.7334
0.981201
14.7772
1.00257
14.8332
1.03877
14.9031
1.10204
14.9901
1.19995
15.0987
1.38511
15.1875
1.38097
16.0638
0.531435
16.072
0.954317
16.0945
0.948212
16.128
0.947673
16.176
0.954608
16.2374
0.977372
16.3099
1.02952
16.3951
1.11471
16.4935
1.28678
16.5735
1.30097
17.7797
17.798
17.8305
17.8776
17.9378
18.0118
18.1033
18.2167
18.3662
18.486
0.0921345
0.135989
0.0450041
0.118638
0.0145869
0.117588
-0.00398865
0.130943
-0.0144264
0.154685
-0.0190779
0.18592
-0.0196745
0.222707
-0.018638
0.262914
-0.0194939
0.302885
-0.0247213
0.33759
-0.0329979
0.363653
-0.0409103
0.383973
-0.0468316
0.404429
-0.0506685
0.427322
-0.0525943
0.452383
-0.0527722
0.479057
-0.0513458
0.507189
-0.0484373
0.536888
-0.0441651
0.568337
-0.0386601
0.601671
-0.0320484
0.637014
-0.024439
0.6744
-0.0159492
0.713957
-0.00667192
0.755757
0.00330806
0.799915
0.0139513
0.846488
0.0251917
0.895652
0.0369484
0.947548
0.0491507
1.0021
0.061741
1.05986
0.0746635
1.12053
0.0878681
1.18436
0.10131
1.25185
0.114942
1.3227
0.128716
1.39729
0.142586
1.47585
0.1565
1.55846
0.170408
1.64537
0.184258
1.73666
0.197996
1.83269
0.211564
1.93368
0.224935
2.03998
0.238035
2.15154
0.250826
2.26886
0.263267
2.39228
0.275318
2.52202
0.286945
2.65829
0.298119
2.80171
0.308816
2.95237
0.319019
3.11103
0.328702
3.27777
0.337892
3.45318
0.346551
3.63779
0.354693
3.83193
0.362323
4.03649
0.369449
4.25156
0.376085
4.47815
0.382245
4.71674
0.387946
4.96796
0.393193
5.23255
0.398045
5.51135
0.402483
5.80501
0.40654
6.11439
0.410239
6.44065
0.413603
6.7843
0.41665
7.14635
0.419402
7.52917
0.421263
5.89864
0.423069
6.48039
0.424771
7.1207
0.426438
7.82534
0.427915
8.5977
0.429364
9.44649
0.430564
10.3829
0.431639
11.4043
0.432689
12.5465
0.432741
13.7606
0.434649
15.1856
0.431402
16.5767
0.147815
0.167114
0.109992
0.156462
0.0768171
0.150763
0.0533442
0.154417
0.0397138
0.168315
0.0344665
0.191168
0.0361002
0.221073
0.042939
0.256076
0.0522858
0.293537
0.0603291
0.329547
0.0643166
0.359665
0.0652858
0.383003
0.06553
0.404184
0.0656513
0.427201
0.0655443
0.452489
0.0652652
0.479336
0.0649925
0.507461
0.0649145
0.536966
0.0651948
0.568057
0.0659636
0.600902
0.0673249
0.635652
0.0693687
0.672356
0.0721494
0.711176
0.0757216
0.752185
0.0800971
0.79554
0.0852662
0.841319
0.0912128
0.889706
0.0979297
0.940831
0.105377
0.994655
0.113529
1.05171
0.122332
1.11173
0.131733
1.17496
0.141676
1.24191
0.152102
1.31228
0.162949
1.38644
0.174162
1.46463
0.185661
1.54696
0.1974
1.63363
0.209309
1.72475
0.221334
1.82067
0.233398
1.92161
0.245439
2.02794
0.257414
2.13957
0.269257
2.25701
0.280915
2.38062
0.292336
2.5106
0.303475
2.64715
0.314291
2.7909
0.324745
2.94192
0.334807
3.10097
0.344463
3.26811
0.353658
3.44398
0.362411
3.62904
0.3707
3.82364
0.378522
4.02867
0.385876
4.24421
0.392764
4.47126
0.399195
4.71031
0.405178
4.96197
0.41074
5.22699
0.415867
5.50623
0.420576
5.8003
0.424912
6.11006
0.42888
6.43668
0.432501
6.78068
0.435793
7.14306
0.438776
7.52619
0.440799
5.89661
0.442769
6.47842
0.444662
7.11881
0.446461
7.82354
0.448121
8.59604
0.449694
9.44491
0.451034
10.3815
0.452263
11.4031
0.453428
12.5454
0.453606
13.7604
0.455619
15.1836
0.191681
0.185185
0.166722
0.181422
0.139815
0.177669
0.11658
0.177653
0.100485
0.18441
0.0923531
0.199301
0.0913892
0.222036
0.096102
0.251364
0.10431
0.285329
0.112722
0.321136
0.117613
0.354773
0.118043
0.382574
0.116912
0.405316
0.116572
0.427541
0.117119
0.451941
0.118036
0.47842
0.119146
0.506351
0.120474
0.535637
0.122041
0.56649
0.123869
0.599074
0.125966
0.633556
0.12834
0.669981
0.131035
0.708481
0.134071
0.749149
0.137502
0.792109
0.14135
0.837471
0.145671
0.885385
0.150481
0.936022
0.155822
0.989313
0.1617
1.04583
0.168136
1.10529
0.175125
1.16797
0.182664
1.23437
0.19072
1.30422
0.199269
1.3779
0.208269
1.45563
0.217688
1.53754
0.227472
1.62385
0.237566
1.71465
0.247917
1.81032
0.258464
1.91106
0.269158
2.01724
0.279921
2.12881
0.290693
2.24624
0.301434
2.36988
0.31209
2.49994
0.322588
2.63665
0.332887
2.7806
0.342942
2.93186
0.352701
3.09121
0.36215
3.25866
0.371247
3.43488
0.379968
3.62032
0.388303
3.81531
0.396214
4.02076
0.403703
4.23672
0.410765
4.4642
0.417385
4.70369
0.423591
4.95577
0.429378
5.2212
0.434753
5.50085
0.439742
5.79531
0.444316
6.10548
0.448533
6.43246
0.452397
6.77681
0.455937
7.13952
0.45913
7.52299
0.461315
5.89443
0.463444
6.47629
0.465486
7.11677
0.467455
7.82157
0.469269
8.59422
0.470986
9.4432
0.472534
10.38
0.4738
11.4018
0.475235
12.5439
0.475402
13.7603
0.231068
0.196397
0.215473
0.197019
0.19677
0.196372
0.177972
0.196452
0.162649
0.199732
0.153411
0.20854
0.151174
0.224274
0.155414
0.247124
0.164563
0.27618
0.175962
0.309738
0.185714
0.345021
0.190111
0.378176
0.18919
0.406237
0.186416
0.430316
0.184239
0.454118
0.182868
0.479791
0.181874
0.507345
0.181153
0.536358
0.180806
0.566837
0.180893
0.598988
0.181444
0.633005
0.182447
0.668978
0.183897
0.707031
0.185792
0.747255
0.18813
0.789771
0.190914
0.834686
0.194132
0.882167
0.197803
0.932352
0.201924
0.985191
0.206509
1.04124
0.211543
1.10026
0.217049
1.16247
0.223023
1.22839
0.229461
1.29778
0.236355
1.371
0.243692
1.44829
0.251453
1.52978
0.25961
1.61569
0.268132
1.70613
0.27698
1.80147
0.28611
1.90193
0.295477
2.00788
0.305028
2.11926
0.31471
2.23656
0.324471
2.36012
0.334255
2.49016
0.344008
2.6269
0.353678
2.77093
0.363215
2.92233
0.372585
3.08184
0.38171
3.24954
0.390584
3.42601
0.399177
3.61173
0.407421
3.80706
0.41533
4.01285
0.422872
4.22918
0.430034
4.45704
0.436819
4.69691
0.443182
4.9494
0.449162
5.21522
0.454748
5.49526
0.459945
5.79012
0.464776
6.10065
0.46921
6.42803
0.473304
6.77272
0.477056
7.13577
0.480483
7.51957
0.482827
5.89208
0.485119
6.474
0.487326
7.11456
0.489454
7.81945
0.491439
8.59224
0.493316
9.44132
0.495015
10.3783
0.49641
11.4004
0.498043
12.5423
0.272301
0.204484
0.260997
0.208323
0.246772
0.210597
0.230942
0.212282
0.2158
0.214874
0.204041
0.220299
0.197816
0.230499
0.198063
0.246877
0.204447
0.269796
0.215494
0.298692
0.22845
0.332064
0.239403
0.367224
0.245
0.40064
0.24549
0.429826
0.243933
0.455675
0.242597
0.481128
0.241767
0.508174
0.241052
0.537074
0.240366
0.567522
0.239812
0.599542
0.239491
0.633325
0.239447
0.669022
0.239706
0.706772
0.240296
0.746664
0.241252
0.788815
0.2426
0.833338
0.244363
0.880403
0.24656
0.930155
0.249205
0.982546
0.252309
1.03814
0.255875
1.09669
0.259909
1.15843
0.26441
1.22389
0.269374
1.29282
0.274794
1.36558
0.280662
1.44243
0.286963
1.52348
0.29368
1.60897
0.3008
1.69901
0.308269
1.794
0.316083
1.89412
0.324196
1.99976
0.332569
2.11088
0.341156
2.22797
0.349913
2.35136
0.358789
2.48128
0.367733
2.61796
0.376696
2.76197
0.385627
2.9134
0.394478
3.07299
0.403202
3.24081
0.411755
3.41746
0.420098
3.60339
0.428194
3.79897
0.436013
4.00503
0.443528
4.22166
0.450716
4.44985
0.457561
4.69006
0.464049
4.94291
0.470173
5.2091
0.475927
5.48951
0.481312
5.78473
0.486329
6.09564
0.490985
6.42337
0.495292
6.76841
0.499257
7.1318
0.50291
7.51591
0.505395
5.8896
0.50786
6.47153
0.510217
7.1122
0.512509
7.81715
0.514664
8.59008
0.516685
9.4393
0.518568
10.3764
0.520118
0.31378
0.210223
0.30529
0.216812
0.294116
0.221772
0.280819
0.22558
0.266647
0.229045
0.253491
0.233455
0.243606
0.240384
0.238862
0.251622
0.240194
0.268464
0.247359
0.291527
0.258986
0.320436
0.272346
0.353865
0.283695
0.38929
0.290008
0.423514
0.291431
0.454252
0.290635
0.481924
0.289806
0.509003
0.289447
0.537433
0.289259
0.56771
0.289098
0.599704
0.288998
0.633425
0.289058
0.668962
0.289296
0.706534
0.289732
0.746228
0.290362
0.788184
0.29124
0.83246
0.292386
0.879257
0.293831
0.92871
0.295602
0.980775
0.297727
1.03602
0.300236
1.09418
0.303133
1.15553
0.306435
1.22059
0.310168
1.28909
0.31433
1.36142
0.318925
1.43783
0.323957
1.51845
0.329401
1.60353
0.335244
1.69317
0.341486
1.78776
0.348096
1.88751
0.355047
1.99281
0.362309
2.10362
0.369855
2.22043
0.377627
2.34359
0.385582
2.47333
0.393695
2.60984
0.401912
2.75375
0.410182
2.90513
0.41846
3.06471
0.426709
3.23256
0.434861
3.4093
0.442872
3.59537
0.450726
3.79111
0.458374
3.99738
0.465784
4.21425
0.472926
4.44271
0.479777
4.68321
0.48633
4.93636
0.492544
5.20288
0.498407
5.48365
0.503937
5.7792
0.509121
6.09045
0.513972
6.41852
0.518468
6.76392
0.522615
7.12765
0.526451
7.51208
0.529113
5.88694
0.531704
6.46894
0.534236
7.10967
0.536704
7.81469
0.539028
8.58776
0.541197
0.355076
0.213708
0.349168
0.222721
0.340699
0.23024
0.329894
0.236384
0.317392
0.241547
0.304353
0.246495
0.292467
0.252269
0.283707
0.260382
0.279806
0.272364
0.281709
0.289625
0.289287
0.312858
0.301226
0.341926
0.314896
0.37562
0.326719
0.411691
0.333802
0.447169
0.335977
0.479748
0.335538
0.509442
0.334743
0.538228
0.334359
0.568094
0.334227
0.599835
0.334167
0.633485
0.33419
0.668939
0.334357
0.706366
0.334695
0.74589
0.335209
0.78767
0.335914
0.831756
0.336825
0.878345
0.337965
0.92757
0.339354
0.979386
0.341012
1.03436
0.342959
1.09223
0.345217
1.15328
0.347804
1.21801
0.350738
1.28615
0.354034
1.35812
0.357705
1.43416
0.361759
1.51439
0.366199
1.59909
0.371024
1.68835
0.376229
1.78255
0.381804
1.88194
0.387733
1.98688
0.393994
2.09736
0.400564
2.21386
0.407411
2.33675
0.414503
2.46624
0.421801
2.60254
0.429266
2.74629
0.436854
2.89754
0.444522
3.05704
0.452226
3.22486
0.459919
3.40161
0.467559
3.58773
0.475102
3.78357
0.48251
3.98998
0.489745
4.20702
0.496774
4.43568
0.503567
4.67642
0.510099
4.92983
0.516348
5.19663
0.522296
5.4777
0.52793
5.77357
0.533242
6.08514
0.538228
6.41354
0.542888
6.75926
0.547223
7.12332
0.551241
7.50806
0.554027
5.88415
0.556778
6.46619
0.55948
0.562076
0.396045
0.215297
0.392586
0.22618
0.38674
0.236087
0.378463
0.244661
0.368004
0.252007
0.35605
0.258449
0.343672
0.264647
0.332431
0.271624
0.324148
0.280647
0.320514
0.293259
0.322521
0.31085
0.330157
0.334291
0.34221
0.363567
0.356185
0.397716
0.368684
0.43467
0.376765
0.471667
0.379889
0.506318
0.379946
0.538172
0.379216
0.568824
0.378801
0.60025
0.378707
0.633579
0.378712
0.668934
0.378781
0.706297
0.378948
0.745723
0.379276
0.787342
0.379741
0.831291
0.380396
0.877691
0.38123
0.926736
0.382272
0.978344
0.383532
1.0331
0.385047
1.09072
0.386825
1.1515
0.388892
1.21594
0.391246
1.2838
0.39391
1.35546
0.396898
1.43117
0.400211
1.51108
0.403877
1.59542
0.407893
1.68433
0.41227
1.77817
0.416987
1.87722
0.422047
1.98182
0.427439
2.09197
0.433138
2.20816
0.439145
2.33074
0.445435
2.45995
0.451957
2.59602
0.458692
2.73955
0.465601
2.89063
0.472635
3.05001
0.479778
3.21772
0.486975
3.39441
0.494184
3.58052
0.501376
3.77638
0.508486
3.98287
0.515487
4.20002
0.522341
4.42883
0.529004
4.66975
0.53547
4.92336
0.541699
5.1904
0.547683
5.47172
0.553376
5.76787
0.558764
6.07975
0.563863
6.40844
0.568657
6.75446
0.573156
7.11882
0.577321
0.580234
0.436442
0.215822
0.434982
0.227641
0.431719
0.239349
0.426099
0.250281
0.418073
0.260032
0.407924
0.268598
0.396295
0.276276
0.384227
0.283692
0.373186
0.291688
0.36493
0.301515
0.3611
0.314679
0.362826
0.332565
0.370191
0.356201
0.382157
0.38575
0.396351
0.420475
0.409533
0.458486
0.418711
0.49714
0.422861
0.534022
0.42349
0.568195
0.422891
0.600848
0.422477
0.633994
0.422438
0.668973
0.422565
0.706171
0.422746
0.745542
0.422998
0.78709
0.423368
0.830921
0.423847
0.877211
0.424479
0.926104
0.42527
0.977552
0.426251
1.03212
0.42741
1.08956
0.428806
1.1501
0.430417
1.21433
0.43229
1.28193
0.434431
1.35332
0.436856
1.42875
0.439576
1.50836
0.442614
1.59238
0.445958
1.68099
0.449613
1.77452
0.453604
1.87323
0.45792
1.97751
0.462557
2.08733
0.467507
2.20321
0.472758
2.32549
0.478293
2.45441
0.484093
2.59022
0.490132
2.73351
0.496381
2.88438
0.502822
3.04357
0.509382
3.21116
0.516074
3.38772
0.522822
3.57378
0.529586
3.76961
0.536352
3.9761
0.543067
4.1933
0.549694
4.4222
0.55621
4.66324
0.562557
4.91702
0.568702
5.18426
0.574646
5.46577
0.580352
5.76217
0.585814
0.590978
0.595874
0.476853
0.21603
0.476454
0.228041
0.475217
0.240586
0.472273
0.253225
0.467042
0.265263
0.459355
0.276285
0.449505
0.286125
0.438099
0.295098
0.426145
0.303642
0.415017
0.312644
0.406458
0.323238
0.402131
0.336892
0.403282
0.355051
0.410154
0.378878
0.421863
0.408766
0.436236
0.444113
0.450087
0.483289
0.460344
0.523765
0.465569
0.56297
0.466807
0.599611
0.466341
0.634459
0.465896
0.669418
0.465859
0.706208
0.466086
0.745316
0.466358
0.786817
0.466689
0.830591
0.467103
0.876797
0.467629
0.925578
0.468281
0.9769
0.469072
1.03133
0.47003
1.0886
0.471141
1.14899
0.472452
1.21302
0.473972
1.28041
0.475716
1.35157
0.4777
1.42676
0.47995
1.50611
0.482447
1.58989
0.485235
1.6782
0.488313
1.77144
0.491688
1.86985
0.495365
1.97383
0.499345
2.08335
0.503637
2.19892
0.508213
2.32091
0.513064
2.44956
0.518198
2.58509
0.523586
2.72812
0.529207
2.87876
0.535036
3.03774
0.541056
3.20514
0.5472
3.38158
0.553469
3.56751
0.559815
3.76327
0.566202
3.96971
0.572591
4.18691
0.578946
4.41584
0.585229
0.591407
0.59746
0.603316
0.518128
0.216266
0.517985
0.228184
0.517727
0.240843
0.516772
0.254181
0.514254
0.267782
0.50952
0.281019
0.502292
0.293353
0.492777
0.304614
0.481541
0.314878
0.469561
0.324624
0.458184
0.334615
0.449098
0.345979
0.444051
0.360097
0.444402
0.378527
0.450601
0.402567
0.461927
0.432788
0.476387
0.468829
0.490922
0.50923
0.502283
0.551609
0.508611
0.593283
0.510525
0.632545
0.510226
0.669717
0.509715
0.706719
0.509638
0.745393
0.509907
0.786548
0.51026
0.830238
0.510642
0.876415
0.511087
0.925133
0.511631
0.976356
0.512291
1.03067
0.513067
1.08782
0.513995
1.14806
0.515092
1.21192
0.51635
1.27915
0.517797
1.35013
0.519446
1.42512
0.521302
1.50425
0.523401
1.58779
0.525744
1.67585
0.528354
1.76883
0.53122
1.86699
0.534359
1.97069
0.537777
2.07993
0.541466
2.19523
0.545448
2.31693
0.549719
2.44529
0.554248
2.58056
0.559036
2.72334
0.564069
2.87373
0.569326
3.03248
0.574774
0.580411
0.586208
0.59211
0.598095
0.604129
0.560745
0.216482
0.560557
0.228373
0.560448
0.240952
0.560311
0.254318
0.559664
0.268428
0.557647
0.283036
0.553508
0.297492
0.546838
0.311283
0.537736
0.32398
0.526695
0.335665
0.514639
0.34667
0.50289
0.357728
0.493129
0.369858
0.487159
0.384497
0.486504
0.403221
0.491852
0.42744
0.502676
0.458005
0.517141
0.494764
0.532293
0.536458
0.544771
0.580804
0.552268
0.625048
0.554936
0.667049
0.554878
0.706777
0.554306
0.745965
0.554158
0.786696
0.554429
0.829967
0.554834
0.87601
0.555258
0.924709
0.555723
0.975891
0.556273
1.03012
0.55694
1.08716
0.557715
1.14729
0.558608
1.21103
0.559656
1.2781
0.560862
1.34892
0.562242
1.42374
0.563821
1.50267
0.565587
1.58602
0.567567
0.569761
0.572202
0.57489
0.57783
0.581042
0.584506
0.58822
0.592207
0.596449
0.600937
0.604789
0.604603
0.604427
0.604358
0.604303
0.603934
0.602452
0.598999
0.59299
0.584379
0.573575
0.561439
0.54926
0.538721
0.531714
0.529883
0.534186
0.544361
0.558736
0.574451
0.58802
0.596742
0.600264
0.600501
0.599885
0.599642
0.599911
0.600356
0.600818
0.601288
0.601839
0.602489
0.603261
0.604141
0.605154
0.606313
0.607621
)
;

boundaryField
{
    inlet
    {
        type            calculated;
        value           nonuniform List<scalar> 
11
(
0.471968
0.935982
0.915737
0.900549
0.894437
0.903366
0.938062
1.00129
1.13724
1.1812
0.435747
)
;
    }
    outlet
    {
        type            calculated;
        value           nonuniform List<scalar> 0();
    }
    walls
    {
        type            calculated;
        value           uniform 0;
    }
    frontAndBack
    {
        type            empty;
        value           nonuniform List<scalar> 0();
    }
    procBoundary6to2
    {
        type            processor;
        value           nonuniform List<scalar> 
13
(
-0.16281
-0.178941
-0.209752
-0.24228
-0.280388
-0.31952
-0.358562
-0.397635
-0.436967
-0.477062
-0.518364
-0.560962
-0.604951
)
;
    }
    procBoundary6to3
    {
        type            processor;
        value           uniform 0.216644;
    }
    procBoundary6to5
    {
        type            processor;
        value           nonuniform List<scalar> 
86
(
-0.126559
-0.168108
-0.2132
-0.265943
-0.321276
-0.360654
-0.375949
-0.385058
-0.401461
-0.42388
-0.447999
-0.47239
-0.49741
-0.523667
-0.551361
-0.580554
-0.611278
-0.643527
-0.677443
-0.713085
-0.750514
-0.789839
-0.831118
-0.874556
-0.920077
-0.968011
-1.01803
-1.07083
-1.12623
-1.18432
-1.24522
-1.30932
-1.37643
-0.653222
-1.46988
-1.54357
-1.62126
-1.70263
-1.78821
-1.87812
-1.97274
-2.07218
-2.1767
-2.28684
-2.40269
-2.52451
-0.810556
-2.6709
-2.80622
-2.94884
-3.099
-3.25764
-3.42457
-3.60058
-3.78631
-3.98226
-0.881342
-4.20842
-4.4269
-4.65726
-4.90025
-5.15649
-5.42697
-5.71192
-0.944639
-6.03857
-6.35693
-6.69289
-7.04746
-7.42176
-7.81523
-5.71375
-1.02376
-6.27418
-6.89459
-7.57429
-8.32241
-9.14465
-10.0464
-11.0375
-12.135
-13.3202
-0.632342
-14.6171
-16.0124
-17.7202
)
;
    }
    procBoundary6to7
    {
        type            processor;
        value           nonuniform List<scalar> 
91
(
18.4817
0.452728
16.5796
0.477738
15.1813
0.498296
13.76
11.3989
0.521904
12.5405
9.43713
0.543252
10.3743
7.10697
7.81209
0.564568
8.58527
7.50389
5.88124
0.583122
6.4633
6.07429
6.40327
6.74956
0.600481
7.11421
4.65695
4.91084
5.17821
5.45991
0.60899
5.75649
3.19969
3.37594
3.56171
3.75737
3.96373
4.18088
0.610175
4.4098
1.67387
1.76664
1.86455
1.968
2.07699
2.19201
2.31347
2.44157
2.57657
2.71909
2.86924
0.605658
3.02776
0.228559
0.241127
0.254387
0.268483
0.283405
0.298974
0.314737
0.329989
0.344276
0.357474
0.369864
0.382037
0.395037
0.410228
0.429271
0.453702
0.484589
0.522083
0.565089
0.611479
0.658328
0.703254
0.745728
0.787312
0.83021
0.875741
0.924264
0.97543
1.02965
1.08661
1.14664
1.21025
1.27722
1.34791
1.42258
1.50137
0.609112
1.58453
)
;
    }
}


// ************************************************************************* //
