/*--------------------------------*- C++ -*----------------------------------*\
| =========                 |                                                 |
| \\      /  F ield         | OpenFOAM: The Open Source CFD Toolbox           |
|  \\    /   O peration     | Version:  2306                                  |
|   \\  /    A nd           | Website:  www.openfoam.com                      |
|    \\/     M anipulation  |                                                 |
\*---------------------------------------------------------------------------*/
FoamFile
{
    version     2.0;
    format      ascii;
    arch        "LSB;label=32;scalar=64";
    class       volSymmTensorField;
    location    "325";
    object      turbulenceProperties:R;
}
// * * * * * * * * * * * * * * * * * * * * * * * * * * * * * * * * * * * * * //

dimensions      [0 2 -2 0 0 0 0];

internalField   nonuniform List<symmTensor> 
1340
(
(14.5047 -7.22528 1.21967e-15 19.3632 1.14381e-15 16.9504)
(11.3457 -5.67396 -1.22465e-16 15.4812 -5.25241e-16 13.4333)
(8.41353 -4.21249 -1.54799e-15 11.6173 -2.12391e-17 10.0144)
(2.94623 -1.48382 -3.64041e-16 4.46747 -3.32691e-15 3.70243)
(5.56516 -2.74393 3.42277e-15 7.14905 -4.99359e-15 6.32642)
(4.919 -2.43308 -1.50378e-15 6.39392 1.52335e-15 5.63681)
(4.37795 -2.14587 3.25257e-15 5.5348 4.04014e-16 4.90728)
(4.85451 -2.43467 5.79819e-15 6.45752 8.24777e-15 5.8048)
(7.19499 -3.52497 -1.43686e-14 8.95576 5.20133e-16 8.07091)
(6.21715 -3.05461 4.9592e-15 7.81399 -1.62576e-15 7.01711)
(5.27968 -2.55892 5.14324e-15 6.35897 -1.52374e-15 5.79667)
(5.69811 -2.82289 -1.01093e-14 7.3696 3.05704e-15 6.55976)
(7.51145 -3.65226 4.79492e-15 9.09568 4.89655e-15 8.30736)
(7.00753 -3.42202 -1.01702e-14 8.60613 -1.30271e-16 7.81391)
(6.26073 -3.02067 -1.30324e-14 7.41924 1.88285e-15 6.82501)
(6.54108 -3.21118 9.22719e-15 8.1397 -3.48763e-15 7.38208)
(5.00978 -2.40162 -9.96776e-16 5.81302 4.27507e-16 5.41035)
(6.13078 -2.96571 -1.75111e-15 7.29973 3.98671e-15 6.72123)
(6.43528 -3.08712 6.73689e-16 7.49745 2.43714e-16 6.95063)
(6.971 -3.40164 -1.72735e-14 8.47908 4.32402e-15 7.78096)
(1.22134 -0.557132 2.81185e-15 1.25774 -1.65073e-15 1.23714)
(3.25188 -1.54154 1.0227e-14 3.6577 -1.62879e-15 3.45599)
(5.23412 -2.48201 5.21618e-16 5.90897 -9.16102e-17 5.55616)
(6.71715 -3.26037 3.62176e-15 8.02983 -3.42064e-15 7.42781)
(0.113318 0.0243109 -1.25729e-15 0.0551672 3.18936e-16 0.0841802)
(0.600698 -0.25392 -1.31701e-15 0.536172 -8.05435e-16 0.569556)
(2.76918 -1.27568 1.17177e-15 2.91797 -2.67153e-16 2.83214)
(5.45737 -2.62922 3.10627e-15 6.37654 -9.00778e-16 5.96258)
(0.00713146 0.00222097 5.34325e-17 0.00442914 1.29763e-18 0.00577686)
(0.0931133 0.0212089 -4.15815e-16 0.0465555 1.40806e-16 0.0702985)
(0.707814 -0.284257 -1.87217e-15 0.587071 3.44367e-16 0.642689)
(3.33937 -1.58679 9.84835e-15 3.75026 -5.70981e-16 3.57982)
(0.000844676 0.000156286 -4.3263e-18 0.000399487 -1.83814e-18 0.00062073)
(0.0279062 0.00776064 9.1295e-17 0.0157828 -7.79232e-18 0.0219654)
(0.130232 0.0032539 1.92222e-15 0.0499154 -2.3332e-16 0.0886245)
(1.38768 -0.636547 -4.58401e-15 1.42893 1.49642e-15 1.43228)
(0 -0 0 0 0 0)
(0 0 -0 0 0 0)
(0.0427011 0.0082557 -1.76371e-16 0.0200047 7.61129e-18 0.0308995)
(0.397445 -0.159923 -3.4664e-15 0.324917 1.48265e-16 0.374403)
(0 -0 0 0 -0 0)
(0 -0 0 0 0 0)
(0.00237347 0.000255181 -4.87147e-18 0.000971207 9.61006e-19 0.00163837)
(0.118321 -0.0319277 5.65331e-16 0.0647835 -2.54257e-16 0.0972043)
(1.68892e-06 -1.46089e-09 7.93251e-23 1.67158e-06 -8.11655e-23 1.68019e-06)
(0 -0 0 0 -0 0)
(0.000767486 -7.16543e-05 1.26172e-18 0.000312685 -2.22514e-19 0.000528005)
(0.0428989 -0.00936207 6.02544e-16 0.0207795 -1.77129e-17 0.0338314)
(2.76872e-05 -9.20071e-08 -7.88177e-20 2.36003e-05 2.1937e-20 2.56312e-05)
(3.61916e-08 -1.73462e-12 -4.75924e-27 3.61839e-08 -2.08603e-26 3.61879e-08)
(0.000227067 -3.47545e-05 -1.39411e-18 0.000121716 1.08335e-19 0.000171717)
(0.013913 -0.00351702 -2.18894e-16 0.00730352 2.15904e-17 0.0111906)
(6.30061e-05 -3.33431e-07 4.82376e-19 4.53022e-05 -3.94745e-20 5.41026e-05)
(5.05453e-08 -2.45501e-12 -2.54272e-25 5.05288e-08 4.03673e-26 5.05372e-08)
(1.89621e-05 -5.74381e-07 -9.74892e-21 1.7154e-05 2.77208e-21 1.80174e-05)
(0.00341088 -0.000964068 6.27638e-17 0.00193326 -5.92244e-18 0.00279843)
(5.77395e-05 -4.4818e-07 -3.41929e-19 4.21666e-05 -3.55578e-20 4.99102e-05)
(2.72883e-05 -5.63404e-07 3.34558e-20 2.31277e-05 3.17508e-21 2.52453e-05)
(2.50047e-07 -1.04875e-10 9.29202e-24 2.49658e-07 -1.07323e-24 2.49845e-07)
(0.00022074 -5.16383e-05 -3.81063e-18 0.000146217 4.2284e-19 0.000189386)
(4.55642e-05 -3.4902e-07 2.80804e-20 3.49717e-05 3.85095e-20 4.02415e-05)
(5.55501e-05 -2.13773e-06 -1.48232e-20 4.07372e-05 -1.32656e-20 4.82649e-05)
(1.00827e-07 -1.68444e-11 -1.72787e-24 1.00759e-07 9.64851e-26 1.00792e-07)
(1.32394e-05 -3.92175e-07 8.53641e-21 1.26596e-05 -1.74706e-21 1.29908e-05)
(3.9373e-05 -2.63987e-07 3.79129e-20 3.09774e-05 -2.89636e-21 3.51563e-05)
(6.1559e-05 -2.70154e-06 -5.32654e-20 4.36789e-05 1.80678e-21 5.27517e-05)
(2.58384e-07 -1.16457e-10 7.18984e-25 2.57923e-07 5.64977e-25 2.58146e-07)
(2.43047e-10 -1.49704e-16 -2.60754e-30 2.43046e-10 1.96617e-31 2.43047e-10)
(3.8309e-05 -2.31411e-07 1.22561e-20 3.01102e-05 -1.74471e-20 3.41933e-05)
(5.14843e-05 -2.04887e-06 -3.55319e-20 3.79343e-05 1.39513e-20 4.47997e-05)
(1.79427e-05 -5.27429e-07 4.32546e-20 1.59389e-05 -2.20784e-21 1.69151e-05)
(3.40865e-07 -3.15654e-10 7.82555e-24 3.40365e-07 -9.2244e-25 3.40643e-07)
(3.87285e-05 -2.14306e-07 -1.05694e-19 3.01537e-05 6.38054e-21 3.44262e-05)
(4.13656e-05 -1.4145e-06 6.65421e-20 3.17914e-05 -3.62714e-21 3.66355e-05)
(3.84548e-05 -2.21699e-06 1.13926e-19 3.02769e-05 -1.30806e-20 3.4276e-05)
(4.1065e-06 -4.81818e-08 3.34809e-21 4.02901e-06 -1.4819e-22 4.07157e-06)
(3.85866e-05 -1.9048e-07 1.16522e-20 2.98328e-05 1.15711e-20 3.41967e-05)
(3.62084e-05 -1.12263e-06 -1.36916e-20 2.83798e-05 -6.89024e-21 3.23356e-05)
(4.17917e-05 -2.66702e-06 -4.42124e-20 3.20759e-05 -8.5426e-21 3.68446e-05)
(1.8034e-05 -9.16523e-07 -5.22056e-21 1.65409e-05 1.68431e-21 1.73516e-05)
(3.75528e-05 -1.55924e-07 -3.71361e-21 2.89611e-05 -7.31267e-21 3.3246e-05)
(3.42737e-05 -1.02065e-06 -4.85677e-20 2.69268e-05 7.53008e-21 3.06344e-05)
(3.73941e-05 -2.27641e-06 -1.97248e-19 2.91054e-05 1.3809e-20 3.31869e-05)
(2.88401e-05 -2.32147e-06 -8.1481e-20 2.49952e-05 3.60296e-21 2.70604e-05)
(3.60307e-05 -1.15424e-07 -5.67967e-20 2.77903e-05 1.37405e-20 3.19019e-05)
(3.33463e-05 -9.72342e-07 5.18464e-20 2.60985e-05 -2.77802e-21 2.97515e-05)
(3.29875e-05 -1.88596e-06 4.64786e-20 2.60742e-05 1.61702e-21 2.94882e-05)
(3.15472e-05 -2.86607e-06 -5.8994e-20 2.66981e-05 1.61545e-21 2.92763e-05)
(3.439e-05 -7.29859e-08 1.12209e-19 2.65445e-05 -7.98834e-22 3.04607e-05)
(3.2335e-05 -9.17562e-07 -5.34657e-20 2.52136e-05 1.09215e-21 2.8799e-05)
(3.01759e-05 -1.65779e-06 -3.68584e-20 2.40214e-05 1.69388e-21 2.70687e-05)
(3.00777e-05 -2.74978e-06 1.32914e-19 2.52986e-05 -4.80892e-21 2.78165e-05)
(3.27795e-05 -3.01234e-08 -1.59775e-20 2.53141e-05 -1.13271e-20 2.90418e-05)
(3.10243e-05 -8.46134e-07 2.83885e-20 2.41411e-05 -2.49593e-21 2.7603e-05)
(2.83765e-05 -1.52471e-06 5.03851e-20 2.26121e-05 -3.74588e-21 2.54729e-05)
(2.76931e-05 -2.47161e-06 -8.46536e-20 2.3262e-05 3.53606e-21 2.55775e-05)
(3.12149e-05 1.27023e-08 -1.78073e-20 2.41106e-05 -6.21009e-22 2.76593e-05)
(2.95342e-05 -7.6484e-07 -7.31062e-20 2.29582e-05 3.06659e-21 2.62625e-05)
(2.6933e-05 -1.42018e-06 -8.37959e-20 2.14309e-05 5.25621e-21 2.4167e-05)
(2.55201e-05 -2.2185e-06 9.41882e-20 2.13985e-05 -2.52835e-21 2.35364e-05)
(2.96697e-05 5.51664e-08 -3.3901e-20 2.29183e-05 4.84981e-21 2.62917e-05)
(2.79928e-05 -6.81247e-07 3.81851e-20 2.17454e-05 8.84178e-21 2.48818e-05)
(2.55407e-05 -1.31592e-06 1.27235e-19 2.02832e-05 -5.57113e-23 2.29019e-05)
(2.36752e-05 -2.00951e-06 -9.15929e-20 1.97911e-05 2.02685e-21 2.17922e-05)
(2.81312e-05 9.72109e-08 3.55458e-20 2.17313e-05 3.48141e-21 2.49298e-05)
(2.6465e-05 -5.98396e-07 1.07619e-19 2.05445e-05 -7.52016e-21 2.35146e-05)
(2.41371e-05 -1.20642e-06 7.88451e-21 1.91309e-05 -3.11707e-21 2.16277e-05)
(2.20483e-05 -1.82665e-06 4.94033e-20 1.83584e-05 -1.14586e-21 2.02482e-05)
(2.65995e-05 1.37625e-07 2.92745e-20 2.05508e-05 -6.04049e-21 2.35746e-05)
(2.49655e-05 -5.17945e-07 -6.22935e-20 1.93659e-05 -6.57163e-21 2.21733e-05)
(2.27396e-05 -1.09487e-06 1.52123e-20 1.79877e-05 -2.93536e-21 2.03605e-05)
(2.05577e-05 -1.65782e-06 -9.35771e-20 1.70419e-05 1.08463e-21 1.88337e-05)
(2.50778e-05 1.76531e-07 -5.22936e-20 1.93795e-05 2.37718e-21 2.22286e-05)
(2.34947e-05 -4.39502e-07 -4.18037e-20 1.82105e-05 5.79644e-21 2.08582e-05)
(2.13677e-05 -9.83803e-07 -8.12868e-20 1.68674e-05 1.65882e-21 1.91164e-05)
(1.91652e-05 -1.49854e-06 6.05895e-20 1.58135e-05 -1.50273e-21 1.75147e-05)
(2.35765e-05 2.13189e-07 5.83786e-20 1.82254e-05 -1.03459e-21 2.09012e-05)
(2.20567e-05 -3.64279e-07 4.63304e-20 1.70827e-05 -1.43614e-21 1.95737e-05)
(2.00361e-05 -8.75415e-07 3.9479e-20 1.57816e-05 -7.38676e-22 1.79093e-05)
(1.78611e-05 -1.34797e-06 -1.35502e-19 1.46656e-05 2.25502e-21 1.62823e-05)
(2.21036e-05 2.47003e-07 -6.93837e-20 1.70943e-05 -1.77503e-21 1.95996e-05)
(2.06553e-05 -2.92154e-07 -6.98931e-20 1.59856e-05 -2.69901e-22 1.83233e-05)
(1.87465e-05 -7.70503e-07 -1.02328e-19 1.47321e-05 1.30107e-22 1.67405e-05)
(1.66376e-05 -1.20629e-06 2.15733e-19 1.35924e-05 1.8796e-21 1.51289e-05)
(2.06627e-05 2.77721e-07 3.4412e-20 1.5989e-05 5.1023e-21 1.83266e-05)
(1.92955e-05 -2.24133e-07 4.73946e-20 1.49235e-05 5.78378e-22 1.71116e-05)
(1.75055e-05 -6.6994e-07 5.99056e-20 1.37247e-05 4.5039e-21 1.5617e-05)
(1.54886e-05 -1.07303e-06 -8.65405e-20 1.25883e-05 -3.34246e-21 1.40485e-05)
(1.92617e-05 3.05073e-07 1.80919e-20 1.49155e-05 -2.79891e-21 1.70895e-05)
(1.79789e-05 -1.60366e-07 -6.42862e-20 1.38976e-05 -2.06369e-21 1.59395e-05)
(1.63122e-05 -5.74577e-07 2.36764e-20 1.27595e-05 -4.6594e-21 1.45382e-05)
(1.441e-05 -9.48345e-07 3.62357e-20 1.16504e-05 1.61858e-21 1.30375e-05)
(1.88874e-05 7.53059e-07 -7.04596e-20 1.48285e-05 3.55535e-21 1.68588e-05)
(1.79056e-05 3.28682e-07 -2.8763e-20 1.38775e-05 -3.28491e-21 1.58926e-05)
(1.67122e-05 -1.01218e-07 2.06236e-20 1.29129e-05 5.96317e-21 1.48133e-05)
(1.51684e-05 -4.84697e-07 -9.79928e-20 1.1838e-05 -4.6036e-22 1.35055e-05)
(1.33946e-05 -8.31954e-07 -2.48746e-20 1.0773e-05 1.85998e-22 1.20888e-05)
(1.74929e-05 7.38319e-07 7.89742e-20 1.37612e-05 5.29e-21 1.56279e-05)
(1.65988e-05 3.48465e-07 -3.1803e-20 1.28782e-05 1.96769e-21 1.47395e-05)
(1.54978e-05 -4.71575e-08 8.26966e-20 1.19713e-05 2.37046e-22 1.3735e-05)
(1.40777e-05 -4.00909e-07 6.5663e-20 1.09631e-05 4.38445e-21 1.25227e-05)
(1.24387e-05 -7.2365e-07 7.50481e-20 9.95268e-06 2.23374e-21 1.11989e-05)
(1.61544e-05 7.20506e-07 -1.96694e-20 1.2736e-05 -4.04654e-21 1.44459e-05)
(1.53463e-05 3.64244e-07 3.70358e-20 1.19214e-05 2.30213e-21 1.36348e-05)
(1.43374e-05 1.72383e-09 -2.23131e-20 1.1074e-05 -5.1953e-21 1.2706e-05)
(1.30401e-05 -3.23549e-07 -1.82876e-21 1.01348e-05 -2.83922e-21 1.15897e-05)
(1.1539e-05 -6.23408e-07 -3.01669e-20 9.18648e-06 -3.71269e-21 1.03646e-05)
(1.48766e-05 6.99867e-07 1.14658e-20 1.17563e-05 -1.63914e-22 1.33171e-05)
(1.41508e-05 3.76046e-07 -5.15097e-21 1.10087e-05 -1.21317e-21 1.25807e-05)
(1.32332e-05 4.52859e-08 -5.48771e-20 1.02223e-05 7.31019e-22 1.17278e-05)
(1.20557e-05 -2.52775e-07 -3.49916e-20 9.35297e-06 -2.44483e-21 1.07065e-05)
(1.06916e-05 -5.31106e-07 -7.9752e-20 8.47097e-06 -1.81722e-21 9.5821e-06)
(1.36631e-05 6.76738e-07 -3.67168e-20 1.08248e-05 -2.93598e-22 1.22446e-05)
(1.30151e-05 3.84022e-07 7.46588e-21 1.01422e-05 -3.12696e-22 1.15796e-05)
(1.21867e-05 8.35115e-08 5.4497e-20 9.41729e-06 2.38795e-21 1.08019e-05)
(1.11248e-05 -1.88672e-07 -4.58024e-20 8.61746e-06 -1.22056e-21 9.87316e-06)
(9.89394e-06 -4.46564e-07 2.79539e-20 7.80347e-06 2.24321e-21 8.84868e-06)
(1.25161e-05 6.51464e-07 5.45321e-20 9.94317e-06 5.22119e-21 1.12302e-05)
(1.19414e-05 3.88215e-07 -1.37323e-20 9.32331e-06 6.33226e-22 1.06332e-05)
(1.11988e-05 1.16413e-07 -5.36409e-20 8.6592e-06 -2.93398e-21 9.9289e-06)
(1.02475e-05 -1.31222e-07 -1.07017e-20 7.92792e-06 2.75002e-21 9.0896e-06)
(9.1437e-06 -3.69675e-07 -7.1262e-21 7.18145e-06 -3.1437e-22 8.16185e-06)
(1.14371e-05 6.24447e-07 2.69702e-20 9.11251e-06 -1.21968e-21 1.02753e-05)
(1.09304e-05 3.88914e-07 3.6963e-20 8.55239e-06 2.49107e-21 9.74216e-06)
(1.0269e-05 1.44137e-07 4.27985e-20 7.94742e-06 2.98569e-21 9.10807e-06)
(9.42257e-06 -8.03392e-08 1.00553e-19 7.28298e-06 4.05863e-21 8.35453e-06)
(8.43874e-06 -3.0016e-07 3.42482e-20 6.60245e-06 2.43612e-21 7.51932e-06)
(1.04269e-05 5.96036e-07 -2.1754e-20 8.3334e-06 -2.97222e-21 9.3806e-06)
(9.98274e-06 3.86371e-07 2.12371e-21 7.82971e-06 -2.3897e-21 8.90696e-06)
(9.39762e-06 1.66933e-07 -2.17578e-20 7.28173e-06 -2.34726e-21 8.33948e-06)
(8.64891e-06 -3.58121e-08 -4.09836e-20 6.68123e-06 -5.25849e-21 7.6667e-06)
(7.77692e-06 -2.37895e-07 2.38928e-20 6.06406e-06 6.14034e-22 6.91875e-06)
(9.48523e-06 5.66627e-07 -2.91852e-20 7.60568e-06 -8.8559e-22 8.54586e-06)
(9.09803e-06 3.80893e-07 -5.45541e-20 7.15477e-06 -2.77666e-21 8.12708e-06)
(8.58362e-06 1.85005e-07 -8.14971e-21 6.66107e-06 8.07342e-22 7.62214e-06)
(7.92549e-06 2.6265e-09 -3.35727e-20 6.12132e-06 -1.09988e-21 7.02493e-06)
(7.15652e-06 -1.82414e-07 -1.01455e-21 5.56401e-06 -1.57253e-21 6.35818e-06)
(8.61109e-06 5.36599e-07 3.36475e-21 6.92864e-06 2.15408e-21 7.77023e-06)
(8.27531e-06 3.72814e-07 2.69105e-20 6.5267e-06 2.66291e-21 7.40162e-06)
(7.82573e-06 1.98745e-07 3.48376e-20 6.08409e-06 1.8225e-21 6.9547e-06)
(7.25052e-06 3.53024e-08 -4.22461e-21 5.60132e-06 1.20261e-21 6.42734e-06)
(6.5759e-06 -1.33569e-07 -5.84965e-20 5.10029e-06 -2.53513e-21 5.83574e-06)
(7.80296e-06 5.06301e-07 4.74475e-20 6.30119e-06 3.60763e-21 7.0524e-06)
(7.51329e-06 3.62524e-07 -2.03535e-20 5.9444e-06 -2.63401e-21 6.72939e-06)
(7.12237e-06 2.08475e-07 -2.83739e-20 5.54927e-06 -2.94696e-21 6.33561e-06)
(6.62264e-06 6.25795e-08 2.83583e-20 5.11962e-06 1.16191e-21 5.87247e-06)
(6.03317e-06 -9.08723e-08 5.89847e-20 4.67056e-06 4.74058e-21 5.34928e-06)
(7.05855e-06 4.76036e-07 -8.8656e-22 5.72165e-06 -1.00717e-21 6.39038e-06)
(6.80991e-06 3.50349e-07 -3.43206e-20 5.40617e-06 -1.86644e-21 6.10856e-06)
(6.47182e-06 2.14603e-07 -7.84226e-21 5.055e-06 -7.647e-22 5.76319e-06)
(6.03984e-06 8.48933e-08 -2.48841e-20 4.67418e-06 -1.71429e-21 5.35828e-06)
(5.52704e-06 -5.39837e-08 -2.72469e-21 4.27308e-06 -2.08004e-21 4.89733e-06)
(6.52284e-06 5.44574e-07 -2.15339e-22 5.43949e-06 -2.33769e-22 5.98147e-06)
(6.37538e-06 4.46121e-07 7.00829e-21 5.18826e-06 4.07341e-22 5.78206e-06)
(6.16271e-06 3.36688e-07 1.02582e-20 4.91015e-06 1.45323e-21 5.53689e-06)
(5.87176e-06 2.1753e-07 -3.97629e-20 4.59926e-06 -1.93114e-21 5.23528e-06)
(5.50016e-06 1.02671e-07 3.43014e-20 4.26302e-06 2.80569e-21 4.88278e-06)
(5.05591e-06 -2.24869e-08 -5.73534e-20 3.90588e-06 -3.2151e-21 4.47806e-06)
(5.87513e-06 5.01761e-07 -6.78538e-21 4.91888e-06 -5.53494e-22 5.39727e-06)
(5.75047e-06 4.16798e-07 -9.71667e-21 4.69883e-06 -1.27852e-21 5.22485e-06)
(5.56932e-06 3.21879e-07 -1.07834e-20 4.45447e-06 -1.31352e-21 5.0123e-06)
(5.31995e-06 2.17692e-07 5.13646e-20 4.18014e-06 5.04328e-21 4.74982e-06)
(5.00172e-06 1.16362e-07 -3.91203e-21 3.88429e-06 -1.46338e-21 4.44413e-06)
(4.61822e-06 4.04756e-09 4.94411e-20 3.56708e-06 4.23005e-21 4.08977e-06)
(5.28567e-06 4.61375e-07 6.77342e-21 4.44332e-06 1.2006e-21 4.86472e-06)
(5.18048e-06 3.88275e-07 -1.75337e-20 4.25093e-06 -1.16095e-21 4.71587e-06)
(5.02673e-06 3.06226e-07 5.17488e-22 4.03682e-06 5.46618e-22 4.53216e-06)
(4.81386e-06 2.15466e-07 2.26738e-20 3.79554e-06 5.3865e-22 4.30448e-06)
(4.54251e-06 1.26423e-07 -3.59723e-20 3.53607e-06 -1.9125e-21 4.04036e-06)
(4.2125e-06 2.60718e-08 -2.12355e-20 3.25496e-06 -2.09613e-21 3.73083e-06)
(4.75068e-06 4.23451e-07 2.40449e-20 4.01006e-06 1.62401e-21 4.38056e-06)
(4.66213e-06 3.60748e-07 1.24901e-20 3.8422e-06 1.31246e-21 4.2523e-06)
(4.532e-06 2.90069e-07 2.7344e-20 3.65503e-06 2.00257e-21 4.09385e-06)
(4.35087e-06 2.11259e-07 -3.02256e-20 3.44336e-06 -2.33525e-21 3.89689e-06)
(4.1203e-06 1.33298e-07 5.19753e-20 3.21638e-06 4.60963e-21 3.66935e-06)
(3.83723e-06 4.40138e-08 2.30233e-20 2.9678e-06 2.09186e-21 3.39962e-06)
(4.26635e-06 3.87997e-07 -2.79223e-20 3.61629e-06 -2.87888e-21 3.94148e-06)
(4.19187e-06 3.34348e-07 -4.68347e-21 3.47002e-06 -7.96983e-22 3.83106e-06)
(4.08201e-06 2.73632e-07 -3.22579e-20 3.30674e-06 -3.50038e-21 3.69468e-06)
(3.9284e-06 2.0544e-07 3.6996e-20 3.12153e-06 3.5452e-21 3.52474e-06)
(3.73305e-06 1.37429e-07 3.4255e-21 2.92339e-06 -5.12937e-22 3.32917e-06)
(3.49095e-06 5.8311e-08 -1.29473e-20 2.70403e-06 -1.82127e-21 3.09464e-06)
(3.82887e-06 3.54981e-07 1.12571e-20 3.25922e-06 1.51511e-21 3.54418e-06)
(3.76631e-06 3.09197e-07 -1.16632e-20 3.13195e-06 -9.14178e-22 3.44922e-06)
(3.67368e-06 2.57186e-07 -6.00444e-21 2.98971e-06 9.24698e-23 3.33197e-06)
(3.54368e-06 1.98345e-07 -3.97949e-21 2.82792e-06 -8.77538e-22 3.18558e-06)
(3.37864e-06 1.39204e-07 -1.37715e-20 2.65528e-06 -1.02394e-21 3.01786e-06)
(3.1721e-06 6.93833e-08 -4.09318e-20 2.46205e-06 -3.03297e-21 2.8143e-06)
(3.43445e-06 3.24343e-07 -2.63047e-21 2.93599e-06 3.24425e-22 3.18534e-06)
(3.38193e-06 2.85347e-07 3.126e-21 2.82536e-06 4.44329e-22 3.10372e-06)
(3.30397e-06 2.40905e-07 1.09257e-20 2.70165e-06 1.11068e-21 3.00306e-06)
(3.19416e-06 1.90279e-07 -3.0663e-21 2.56057e-06 -4.47822e-22 2.87714e-06)
(3.05498e-06 1.39023e-07 9.14672e-21 2.41035e-06 4.97604e-22 2.73351e-06)
(2.87914e-06 7.76455e-08 3.30246e-20 2.24037e-06 3.3662e-21 2.55707e-06)
(3.07953e-06 2.96015e-07 5.34588e-20 2.64398e-06 5.25811e-21 2.86185e-06)
(3.0354e-06 2.62866e-07 3.12529e-21 2.54785e-06 4.76626e-22 2.79168e-06)
(2.9698e-06 2.2497e-07 2.09779e-21 2.44034e-06 4.7848e-24 2.70529e-06)
(2.87718e-06 1.81518e-07 -1.95648e-20 2.31745e-06 -1.28826e-21 2.5971e-06)
(2.76001e-06 1.37228e-07 -3.30709e-20 2.18689e-06 -2.93898e-21 2.47424e-06)
(2.6106e-06 8.34744e-08 -5.84895e-21 2.0376e-06 -7.12631e-22 2.32151e-06)
(2.76062e-06 2.69893e-07 -1.68305e-20 2.38052e-06 -2.21097e-21 2.57065e-06)
(2.7235e-06 2.41752e-07 7.18129e-21 2.29701e-06 5.92285e-22 2.5103e-06)
(2.66832e-06 2.09503e-07 -8.0577e-21 2.20365e-06 -1.06744e-21 2.43619e-06)
(2.59025e-06 1.72302e-07 3.85657e-20 2.09672e-06 3.61589e-21 2.34327e-06)
(2.49166e-06 1.34137e-07 2.71268e-20 1.98329e-06 2.88488e-21 2.23822e-06)
(2.36495e-06 8.72203e-08 2.90206e-20 1.85233e-06 2.37836e-21 2.10616e-06)
(2.49279e-06 2.65945e-07 1.32907e-20 2.20758e-06 1.26207e-21 2.35023e-06)
(2.47442e-06 2.45868e-07 2.06132e-20 2.14312e-06 2.52824e-21 2.30884e-06)
(2.44317e-06 2.22016e-07 -6.51761e-21 2.07061e-06 -8.33604e-22 2.25692e-06)
(2.39671e-06 1.94623e-07 -1.49734e-20 1.98954e-06 -1.3829e-21 2.1933e-06)
(2.33092e-06 1.62831e-07 -2.56261e-20 1.89654e-06 -2.81711e-21 2.11352e-06)
(2.248e-06 1.30029e-07 -8.02116e-21 1.79803e-06 -8.5064e-22 2.02372e-06)
(2.14068e-06 8.9221e-08 -4.94541e-20 1.6833e-06 -5.08877e-21 1.90963e-06)
(2.23348e-06 2.40817e-07 -1.97312e-20 1.98555e-06 -2.18276e-21 2.10955e-06)
(2.21788e-06 2.23828e-07 1.48598e-20 1.92946e-06 1.10829e-21 2.07373e-06)
(2.19149e-06 2.0363e-07 -1.76501e-20 1.86644e-06 -1.77293e-21 2.02899e-06)
(2.15234e-06 1.80392e-07 -3.98681e-21 1.79607e-06 -7.79807e-24 1.97436e-06)
(2.09689e-06 1.53278e-07 8.61202e-21 1.71521e-06 7.35049e-22 1.90585e-06)
(2.02711e-06 1.25149e-07 1.78822e-20 1.62966e-06 2.00554e-21 1.82904e-06)
(1.93632e-06 8.97664e-08 -6.78935e-21 1.52924e-06 1.97465e-23 1.73055e-06)
(2.00149e-06 2.18022e-07 1.45733e-20 1.7862e-06 2.02913e-21 1.89388e-06)
(1.98817e-06 2.03653e-07 -2.80448e-20 1.73736e-06 -3.10146e-21 1.86281e-06)
(1.9658e-06 1.86568e-07 -2.40721e-21 1.68257e-06 -2.12313e-22 1.8242e-06)
(1.93274e-06 1.66875e-07 3.69512e-20 1.62143e-06 3.63128e-21 1.77723e-06)
(1.88595e-06 1.43789e-07 -3.66885e-20 1.55113e-06 -3.75028e-21 1.71835e-06)
(1.82716e-06 1.19718e-07 1.74938e-20 1.4768e-06 1.73645e-21 1.65259e-06)
(1.75043e-06 8.91263e-08 2.17114e-20 1.38897e-06 1.8129e-21 1.5676e-06)
(1.79412e-06 1.97377e-07 2.36424e-20 1.6074e-06 2.57172e-21 1.70078e-06)
(1.78267e-06 1.85229e-07 2.17143e-22 1.5648e-06 2.62109e-22 1.67378e-06)
(1.76362e-06 1.70784e-07 2.83576e-21 1.51712e-06 4.0216e-22 1.64038e-06)
(1.73561e-06 1.54111e-07 -4.34338e-20 1.46397e-06 -4.76089e-21 1.59991e-06)
(1.69604e-06 1.34476e-07 -1.30023e-21 1.4028e-06 -1.4628e-22 1.54923e-06)
(1.64644e-06 1.13912e-07 3.05678e-20 1.33816e-06 3.28422e-21 1.49287e-06)
(1.58163e-06 8.75342e-08 -6.05107e-20 1.26142e-06 -6.33235e-21 1.41955e-06)
(1.60888e-06 1.78703e-07 5.89094e-21 1.44713e-06 5.22259e-22 1.52802e-06)
(1.59894e-06 1.68435e-07 -7.97458e-21 1.40993e-06 -7.41015e-22 1.50447e-06)
(1.58264e-06 1.56224e-07 -4.47148e-21 1.36837e-06 -5.72212e-22 1.47551e-06)
(1.55882e-06 1.42119e-07 1.20496e-20 1.32211e-06 1.72721e-21 1.44057e-06)
(1.5253e-06 1.25438e-07 -2.16465e-20 1.26885e-06 -2.31656e-21 1.39689e-06)
(1.48332e-06 1.07899e-07 2.38669e-20 1.21258e-06 2.39107e-21 1.34847e-06)
(1.42858e-06 8.52075e-08 -1.05524e-20 1.14553e-06 -7.83204e-22 1.28522e-06)
(1.44336e-06 1.61813e-07 3.2122e-21 1.30344e-06 1.94762e-22 1.37341e-06)
(1.43469e-06 1.53138e-07 1.72233e-20 1.27093e-06 1.98508e-21 1.35284e-06)
(1.42069e-06 1.42823e-07 -1.56672e-21 1.23467e-06 -9.68094e-23 1.32767e-06)
(1.40035e-06 1.30901e-07 1.0178e-20 1.19436e-06 7.2866e-22 1.29746e-06)
(1.37187e-06 1.16743e-07 -2.93474e-21 1.14795e-06 -3.77405e-22 1.25974e-06)
(1.33625e-06 1.01803e-07 2.37897e-20 1.0989e-06 2.49845e-21 1.21806e-06)
(1.29003e-06 8.2326e-08 -2.5934e-20 1.04035e-06 -2.60671e-21 1.16347e-06)
(1.29517e-06 1.46497e-07 -1.12579e-20 1.1743e-06 -1.42502e-21 1.23475e-06)
(1.28763e-06 1.39177e-07 6.40454e-21 1.14591e-06 6.17487e-22 1.2168e-06)
(1.27559e-06 1.30475e-07 8.17592e-21 1.1143e-06 9.11362e-22 1.19494e-06)
(1.25822e-06 1.2041e-07 -4.07734e-20 1.07921e-06 -4.43563e-21 1.16881e-06)
(1.234e-06 1.08414e-07 -2.86391e-20 1.03878e-06 -3.19788e-21 1.13623e-06)
(1.20371e-06 9.57111e-08 1.92553e-20 9.96005e-07 1.8668e-21 1.10031e-06)
(1.16472e-06 7.90367e-08 -2.43608e-21 9.44931e-07 -2.10475e-22 1.05323e-06)
(1.16532e-06 1.37639e-07 1.19894e-21 1.08018e-06 2.48054e-22 1.12277e-06)
(1.16206e-06 1.32548e-07 -1.35458e-20 1.05778e-06 -1.37879e-21 1.10993e-06)
(1.15554e-06 1.26381e-07 9.38899e-21 1.03305e-06 9.07254e-22 1.09431e-06)
(1.14523e-06 1.19054e-07 -1.44592e-20 1.00557e-06 -1.7638e-21 1.07539e-06)
(1.13044e-06 1.10575e-07 1.01381e-21 9.75089e-07 2.8965e-22 1.05284e-06)
(1.10988e-06 1.00433e-07 -5.56625e-21 9.39936e-07 -3.20218e-22 1.02475e-06)
(1.08411e-06 8.96569e-08 3.65133e-21 9.02681e-07 2.04505e-22 9.93813e-07)
(1.05134e-06 7.54282e-08 -1.22339e-20 8.58255e-07 -1.12337e-21 9.53324e-07)
(1.04522e-06 1.24115e-07 8.2581e-21 9.71998e-07 9.64195e-22 1.00862e-06)
(1.04231e-06 1.19816e-07 2.22623e-20 9.52422e-07 2.63687e-21 9.97376e-07)
(1.03666e-06 1.14621e-07 -1.91724e-20 9.30888e-07 -2.16713e-21 9.83792e-07)
(1.02784e-06 1.08455e-07 -2.06731e-20 9.0702e-07 -2.13127e-21 9.67427e-07)
(1.01526e-06 1.01319e-07 -7.3158e-21 8.8059e-07 -9.62225e-22 9.47999e-07)
(9.97859e-07 9.27598e-08 2.17994e-20 8.50108e-07 2.45212e-21 9.23844e-07)
(9.75982e-07 8.36423e-08 -1.66268e-20 8.17742e-07 -1.90384e-21 8.97247e-07)
(9.48572e-07 7.15476e-08 2.95894e-20 7.7927e-07 3.24985e-21 8.62568e-07)
(9.37405e-07 1.11885e-07 7.33406e-21 8.74566e-07 9.04051e-22 9.0599e-07)
(9.34707e-07 1.08241e-07 -1.02164e-20 8.57357e-07 -1.31483e-21 8.96033e-07)
(9.29724e-07 1.03852e-07 -1.21661e-21 8.38518e-07 -9.33383e-23 8.84132e-07)
(9.22111e-07 9.86512e-08 2.52759e-20 8.17719e-07 3.0637e-21 8.69904e-07)
(9.11363e-07 9.26382e-08 -1.49822e-20 7.94757e-07 -1.85519e-21 8.5312e-07)
(8.96606e-07 8.54133e-08 -5.14223e-21 7.68319e-07 -4.87087e-22 8.32329e-07)
(8.78022e-07 7.76989e-08 -1.58971e-20 7.40211e-07 -1.58858e-21 8.09463e-07)
(8.55169e-07 6.74422e-08 3.29037e-21 7.06986e-07 2.15162e-22 7.79836e-07)
(8.41204e-07 1.00907e-07 1.37614e-20 7.87403e-07 1.50545e-21 8.14319e-07)
(8.38566e-07 9.78004e-08 -6.97039e-21 7.72123e-07 -7.45868e-22 8.05357e-07)
(8.34026e-07 9.40705e-08 3.75137e-21 7.55487e-07 3.67067e-22 7.94775e-07)
(8.2731e-07 8.9664e-08 1.79648e-20 7.37222e-07 2.08894e-21 7.82265e-07)
(8.17999e-07 8.45782e-08 -5.79502e-20 7.17152e-07 -6.47901e-21 7.67637e-07)
(8.05374e-07 7.84623e-08 4.1208e-20 6.94115e-07 4.47717e-21 7.49628e-07)
(7.8951e-07 7.19222e-08 1.65104e-20 6.69638e-07 1.91457e-21 7.29897e-07)
(7.7048e-07 6.32331e-08 3.81874e-21 6.40976e-07 3.29447e-22 7.0461e-07)
(7.552e-07 9.10636e-08 -1.55156e-20 7.09426e-07 -1.92913e-21 7.32301e-07)
(7.52473e-07 8.83989e-08 1.23449e-21 6.95692e-07 1.71715e-22 7.24075e-07)
(7.48155e-07 8.52097e-08 -6.80765e-21 6.80813e-07 -7.35913e-22 7.14483e-07)
(7.42049e-07 8.14533e-08 1.57084e-20 6.6458e-07 1.70019e-21 7.03294e-07)
(7.33775e-07 7.71278e-08 1.05146e-20 6.46833e-07 1.41352e-21 6.90345e-07)
(7.22754e-07 7.19215e-08 -6.86737e-21 6.2654e-07 -7.68764e-22 6.74525e-07)
(7.08994e-07 6.6344e-08 -7.56784e-21 6.05011e-07 -9.43759e-22 6.57275e-07)
(6.92945e-07 5.89544e-08 -1.23788e-20 5.80085e-07 -1.31619e-21 6.35485e-07)
(6.81352e-07 8.25995e-08 -9.70285e-21 6.42494e-07 -1.10937e-21 6.61933e-07)
(6.78664e-07 8.03249e-08 1.11829e-21 6.3021e-07 1.73616e-22 6.54447e-07)
(6.74598e-07 7.76049e-08 2.36046e-20 6.16914e-07 2.63651e-21 6.45769e-07)
(6.69017e-07 7.44019e-08 -1.26283e-22 6.02438e-07 1.20037e-23 6.35714e-07)
(6.61589e-07 7.07151e-08 -1.80724e-20 5.86649e-07 -2.11802e-21 6.24154e-07)
(6.51749e-07 6.62669e-08 3.70554e-20 5.68562e-07 4.22396e-21 6.10044e-07)
(6.39573e-07 6.14829e-08 -7.03555e-21 5.49378e-07 -8.57658e-22 5.94707e-07)
(6.25621e-07 5.51511e-08 2.31955e-20 5.27273e-07 2.67272e-21 5.75512e-07)
(6.22764e-07 7.57641e-08 -1.87177e-20 5.88803e-07 -2.1434e-21 6.05836e-07)
(6.2013e-07 7.37728e-08 2.01419e-20 5.77671e-07 2.34893e-21 5.98968e-07)
(6.16326e-07 7.14021e-08 -3.31618e-20 5.6568e-07 -3.96571e-21 5.91084e-07)
(6.11215e-07 6.86219e-08 8.53642e-21 5.52677e-07 9.96226e-22 5.82018e-07)
(6.04467e-07 6.54216e-08 1.07688e-20 5.38487e-07 1.26591e-21 5.71605e-07)
(5.95527e-07 6.15461e-08 9.48367e-21 5.22157e-07 8.2561e-22 5.5885e-07)
(5.8451e-07 5.73751e-08 -2.98731e-20 5.04823e-07 -3.16586e-21 5.45021e-07)
(5.72969e-07 5.1937e-08 1.56762e-20 4.85666e-07 1.53171e-21 5.28636e-07)
(5.74093e-07 7.13187e-08 3.82618e-21 5.52213e-07 4.73024e-22 5.63008e-07)
(5.72377e-07 6.98845e-08 1.05768e-20 5.42713e-07 1.33402e-21 5.57469e-07)
(5.69305e-07 6.80621e-08 -4.17975e-21 5.32048e-07 -4.76029e-22 5.50606e-07)
(5.65309e-07 6.59205e-08 -6.52768e-21 5.20726e-07 -6.97428e-22 5.42934e-07)
(5.60302e-07 6.34439e-08 1.75089e-20 5.08662e-07 1.97507e-21 5.34364e-07)
(5.53881e-07 6.06144e-08 -1.06873e-20 4.95602e-07 -1.22912e-21 5.24654e-07)
(5.45588e-07 5.72049e-08 -3.5374e-20 4.80691e-07 -4.04554e-21 5.12919e-07)
(5.35227e-07 5.35171e-08 4.11092e-20 4.64683e-07 4.76611e-21 5.00016e-07)
(5.25076e-07 4.87879e-08 -2.25394e-20 4.47576e-07 -2.63483e-21 4.85376e-07)
(5.29752e-07 6.59487e-08 1.07537e-21 5.10619e-07 1.12916e-22 5.20172e-07)
(5.27701e-07 6.46276e-08 -3.20229e-21 5.01556e-07 -5.21024e-22 5.14765e-07)
(5.24343e-07 6.29412e-08 2.33204e-20 4.91316e-07 2.72218e-21 5.08032e-07)
(5.20159e-07 6.09557e-08 -1.28708e-20 4.80433e-07 -1.43193e-21 5.00508e-07)
(5.15077e-07 5.86711e-08 -9.05043e-21 4.68905e-07 -1.14549e-21 4.9219e-07)
(5.08717e-07 5.60751e-08 -4.22478e-21 4.56506e-07 -4.47473e-22 4.82861e-07)
(5.00751e-07 5.29864e-08 3.00343e-20 4.42552e-07 3.52132e-21 4.71821e-07)
(4.91145e-07 4.96903e-08 -1.03036e-20 4.27854e-07 -1.01795e-21 4.59996e-07)
(4.82949e-07 4.56638e-08 -2.01036e-20 4.13301e-07 -2.43766e-21 4.47831e-07)
(4.83047e-07 6.03748e-08 -2.86488e-22 4.67688e-07 -2.96976e-23 4.74861e-07)
(4.80322e-07 5.9185e-08 -2.12128e-20 4.58992e-07 -2.56385e-21 4.69271e-07)
(4.76491e-07 5.76866e-08 -1.82082e-20 4.49248e-07 -2.13701e-21 4.62513e-07)
(4.71976e-07 5.5928e-08 6.46876e-21 4.38901e-07 8.07017e-22 4.55035e-07)
(4.66704e-07 5.39146e-08 -4.96508e-21 4.27985e-07 -6.26832e-22 4.46882e-07)
(4.6031e-07 5.16284e-08 1.21883e-20 4.16266e-07 1.5406e-21 4.37839e-07)
(4.52409e-07 4.88824e-08 -2.43805e-20 4.03e-07 -3.16413e-21 4.27129e-07)
(4.42481e-07 4.58382e-08 7.58254e-20 3.88426e-07 8.92545e-21 4.15037e-07)
(4.32847e-07 4.20202e-08 -3.77804e-20 3.73077e-07 -4.35519e-21 4.01638e-07)
(4.46018e-07 5.57302e-08 -4.28889e-22 4.31494e-07 -9.74732e-24 4.39212e-07)
(4.43534e-07 5.46276e-08 -1.97518e-20 4.23484e-07 -2.29719e-21 4.34229e-07)
(4.39978e-07 5.32288e-08 4.16313e-20 4.1444e-07 4.92262e-21 4.28068e-07)
(4.35679e-07 5.15701e-08 2.53657e-21 4.04715e-07 3.07648e-22 4.21081e-07)
(4.30547e-07 4.96678e-08 -2.38763e-20 3.94386e-07 -2.66589e-21 4.13352e-07)
(4.24366e-07 4.75296e-08 2.78173e-20 3.83378e-07 3.1413e-21 4.04827e-07)
(4.1701e-07 4.50551e-08 -5.31799e-20 3.71306e-07 -6.19853e-21 3.95135e-07)
(4.08926e-07 4.2497e-08 4.88443e-20 3.59196e-07 5.43605e-21 3.85462e-07)
(4.04036e-07 3.96891e-08 -5.76262e-20 3.49081e-07 -6.41342e-21 3.77572e-07)
(3.92477e-07 4.94999e-08 5.01737e-21 3.84729e-07 6.02814e-22 3.86912e-07)
(3.88777e-07 4.85521e-08 1.39956e-20 3.76839e-07 1.76587e-21 3.81221e-07)
(3.84392e-07 4.73965e-08 -1.99681e-20 3.68189e-07 -2.49397e-21 3.74705e-07)
(3.79615e-07 4.60537e-08 -1.21367e-20 3.59058e-07 -1.51671e-21 3.67653e-07)
(3.74314e-07 4.45305e-08 5.92948e-20 3.49491e-07 7.10927e-21 3.6012e-07)
(3.68059e-07 4.279e-08 -3.90636e-20 3.39164e-07 -4.50919e-21 3.51782e-07)
(3.6029e-07 4.06137e-08 -3.36153e-20 3.27102e-07 -3.90254e-21 3.4162e-07)
(3.49755e-07 3.79691e-08 1.25074e-20 3.12669e-07 1.27149e-21 3.28926e-07)
(3.383e-07 3.45936e-08 2.0486e-20 2.96639e-07 2.53709e-21 3.14162e-07)
(3.77712e-07 4.70443e-08 2.78347e-21 3.64146e-07 3.11625e-22 3.73486e-07)
(3.75097e-07 4.60075e-08 4.68384e-21 3.56942e-07 5.47358e-22 3.68974e-07)
(3.71515e-07 4.47182e-08 -1.29556e-20 3.48808e-07 -1.45041e-21 3.63353e-07)
(3.67205e-07 4.31959e-08 9.03365e-22 3.39973e-07 1.17847e-22 3.56848e-07)