/*--------------------------------*- C++ -*----------------------------------*\
| =========                 |                                                 |
| \\      /  F ield         | OpenFOAM: The Open Source CFD Toolbox           |
|  \\    /   O peration     | Version:  2306                                  |
|   \\  /    A nd           | Website:  www.openfoam.com                      |
|    \\/     M anipulation  |                                                 |
\*---------------------------------------------------------------------------*/
FoamFile
{
    version     2.0;
    format      ascii;
    arch        "LSB;label=32;scalar=64";
    class       volScalarField;
    location    "325";
    object      turbulenceProperties:k;
}
// * * * * * * * * * * * * * * * * * * * * * * * * * * * * * * * * * * * * * //

dimensions      [0 2 -2 0 0 0 0];

internalField   nonuniform List<scalar> 
1340
(
25.4092
20.1301
15.0226
5.55807
9.52032
8.47487
7.41001
8.55842
12.1108
10.5241
8.71766
9.81374
12.4572
11.7138
10.2525
11.0314
8.11658
10.0759
10.4417
11.6155
1.85811
5.18279
8.34963
11.0874
0.126333
0.853213
4.25965
8.89825
0.00866873
0.104984
0.968787
5.33473
0.000932446
0.0328272
0.134386
2.12444
0
0
0.0468027
0.548383
0
0
0.00249153
0.140155
2.52034e-06
0
0.000804088
0.0487549
3.84594e-05
5.42817e-08
0.00026025
0.0162036
8.12055e-05
7.58057e-08
2.70667e-05
0.00407129
7.49081e-05
3.78306e-05
3.74775e-07
0.000278171
6.03887e-05
7.22761e-05
1.51189e-07
1.94449e-05
5.27534e-05
7.89948e-05
3.87226e-07
3.6457e-10
5.13063e-05
6.71092e-05
2.53984e-05
5.10937e-07
5.16542e-05
5.48962e-05
5.15038e-05
6.10354e-06
5.13081e-05
4.84619e-05
5.53561e-05
2.59633e-05
4.988e-05
4.59174e-05
4.98432e-05
4.04478e-05
4.78614e-05
4.45982e-05
4.42749e-05
4.37608e-05
4.56976e-05
4.31738e-05
4.0633e-05
4.15964e-05
4.35677e-05
4.13842e-05
3.82308e-05
3.82663e-05
4.14924e-05
3.93775e-05
3.62654e-05
3.52275e-05
3.94399e-05
3.731e-05
3.43629e-05
3.26293e-05
3.73962e-05
3.5262e-05
3.24478e-05
3.03275e-05
3.53625e-05
3.32523e-05
3.05439e-05
2.82166e-05
3.33429e-05
3.12817e-05
2.86758e-05
2.62467e-05
3.13516e-05
2.93566e-05
2.68635e-05
2.44045e-05
2.93987e-05
2.74821e-05
2.51095e-05
2.26794e-05
2.74891e-05
2.56653e-05
2.34236e-05
2.10627e-05
2.56334e-05
2.3908e-05
2.18049e-05
1.95489e-05
2.52874e-05
2.38379e-05
2.22192e-05
2.02559e-05
1.81282e-05
2.3441e-05
2.21083e-05
2.06021e-05
1.87817e-05
1.67952e-05
2.16681e-05
2.04513e-05
1.90587e-05
1.73823e-05
1.5545e-05
1.9975e-05
1.887e-05
1.75917e-05
1.60576e-05
1.43723e-05
1.83663e-05
1.73685e-05
1.6203e-05
1.48077e-05
1.3273e-05
1.68447e-05
1.59489e-05
1.48934e-05
1.36325e-05
1.22435e-05
1.54125e-05
1.46125e-05
1.36623e-05
1.253e-05
1.12803e-05
1.40704e-05
1.33597e-05
1.25094e-05
1.14984e-05
1.03799e-05
1.28184e-05
1.21899e-05
1.14334e-05
1.05359e-05
9.53936e-06
1.1655e-05
1.11018e-05
1.04323e-05
9.63959e-06
8.75597e-06
1.05783e-05
1.00935e-05
9.50363e-06
8.80736e-06
8.02651e-06
9.58529e-06
9.16232e-06
8.645e-06
8.03615e-06
7.34873e-06
8.9719e-06
8.67285e-06
8.30487e-06
7.85315e-06
7.32298e-06
6.71993e-06
8.09564e-06
7.83708e-06
7.51805e-06
7.12495e-06
6.66507e-06
6.13753e-06
7.29686e-06
7.07364e-06
6.79786e-06
6.45694e-06
6.05947e-06
5.59914e-06
6.57065e-06
6.37831e-06
6.14044e-06
5.84556e-06
5.50302e-06
5.10232e-06
5.91206e-06
5.74648e-06
5.54172e-06
5.28734e-06
4.99281e-06
4.64481e-06
5.31614e-06
5.17374e-06
4.99768e-06
4.77859e-06
4.52589e-06
4.22422e-06
4.77789e-06
4.6555e-06
4.50434e-06
4.31594e-06
4.09942e-06
3.83829e-06
4.29268e-06
4.18747e-06
4.05771e-06
3.89586e-06
3.71057e-06
3.48485e-06
3.85589e-06
3.76541e-06
3.65408e-06
3.51512e-06
3.35659e-06
3.16172e-06
3.5253e-06
3.4632e-06
3.38535e-06
3.28977e-06
3.17049e-06
3.03488e-06
2.8668e-06
3.16429e-06
3.11054e-06
3.04346e-06
2.96138e-06
2.85898e-06
2.7429e-06
2.59805e-06
2.84078e-06
2.79417e-06
2.73629e-06
2.6657e-06
2.57771e-06
2.47828e-06
2.3535e-06
2.55115e-06
2.51062e-06
2.46056e-06
2.39975e-06
2.32403e-06
2.23874e-06
2.1313e-06
2.29202e-06
2.25668e-06
2.21326e-06
2.16075e-06
2.09552e-06
2.02219e-06
1.92966e-06
2.0601e-06
2.02923e-06
1.99151e-06
1.94609e-06
1.88978e-06
1.8266e-06
1.74693e-06
1.85211e-06
1.82517e-06
1.79242e-06
1.75312e-06
1.7045e-06
1.65001e-06
1.58144e-06
1.68414e-06
1.66489e-06
1.64145e-06
1.6131e-06
1.57918e-06
1.53728e-06
1.4903e-06
1.43146e-06
1.51292e-06
1.49605e-06
1.47567e-06
1.45114e-06
1.42193e-06
1.38591e-06
1.34549e-06
1.29521e-06
1.35898e-06
1.34405e-06
1.32619e-06
1.30487e-06
1.27962e-06
1.24863e-06
1.21385e-06
1.171e-06
1.22146e-06
1.20802e-06
1.19214e-06
1.1734e-06
1.15139e-06
1.12456e-06
1.09452e-06
1.05803e-06
1.09846e-06
1.08612e-06
1.07172e-06
1.05496e-06
1.03548e-06
1.01191e-06
9.8564e-07
9.54257e-07
9.92889e-07
9.81661e-07
9.68641e-07
9.53584e-07
9.36196e-07
9.15178e-07
8.91829e-07
8.64203e-07
9.08702e-07
8.98385e-07
8.86545e-07
8.72955e-07
8.57279e-07
8.38267e-07
8.17177e-07
7.93636e-07
8.44657e-07
8.3628e-07
8.25979e-07
8.14485e-07
8.01664e-07
7.87069e-07
7.69599e-07
7.49963e-07
7.29014e-07
7.80272e-07
7.72011e-07
7.61845e-07
7.5055e-07
7.38086e-07
7.24042e-07
7.07562e-07
6.89498e-07
6.72041e-07
7.12798e-07
7.04292e-07
6.94126e-07
6.82956e-07
6.70786e-07
6.57208e-07
6.41269e-07
6.22972e-07
6.03781e-07
6.58362e-07
6.50623e-07
6.41243e-07
6.30738e-07
6.19143e-07
6.06285e-07
5.91725e-07
5.76792e-07
5.65345e-07
5.82059e-07
5.73418e-07
5.63643e-07
5.53163e-07
5.41962e-07
5.29502e-07
5.14506e-07
4.95675e-07
4.7455e-07
5.57672e-07
5.50507e-07
5.41838e-07
5.32013e-07
5.21285e-07
5.09931e-07
4.98561e-07
4.90071e-07
4.89528e-07
4.51086e-07
4.42847e-07
4.33853e-07
4.24168e-07
4.13621e-07
4.01286e-07
3.8475e-07
3.62151e-07
3.34875e-07
5.17711e-07
5.12692e-07
5.06218e-07
4.98271e-07
4.89695e-07
4.81745e-07
4.78095e-07
4.84601e-07
5.0114e-07
4.03138e-07
4.02515e-07
3.99623e-07
3.94429e-07
3.87225e-07
3.77439e-07
3.64059e-07
3.56358e-07
3.42255e-07
6.96473e-07
6.80516e-07
6.80829e-07
6.80958e-07
6.80156e-07
6.79172e-07
6.80222e-07
6.93122e-07
7.24569e-07
7.40654e-07
7.47139e-07
7.42674e-07
7.4708e-07
7.52493e-07
7.57107e-07
7.61249e-07
7.67108e-07
7.866e-07
8.19397e-07
8.17586e-07
1.26431e-06
1.06809e-06
1.0833e-06
1.09627e-06
1.10392e-06
1.11274e-06
1.12459e-06
1.14799e-06
1.16846e-06
9.99226e-07
15.1689
6.96247
3.09975
8.9988
12.0177
12.6221
11.2582
8.12889
4.17517
1.26323
0.21096
0.0425115
0.0141585
0.003587
0.000167109
9.55377e-06
0
8.20099e-08
1.69899e-06
1.82158e-05
3.30674e-05
3.73792e-05
3.58373e-05
3.28828e-05
3.01471e-05
2.78563e-05
2.58632e-05
2.40553e-05
2.2377e-05
2.08141e-05
1.93592e-05
1.80046e-05
1.67444e-05
1.55681e-05
1.44684e-05
1.34403e-05
1.24768e-05
1.15735e-05
1.07262e-05
9.93131e-06
9.18519e-06
8.48516e-06
7.82952e-06
7.2149e-06
6.64013e-06
6.10333e-06
5.60257e-06
5.13632e-06
4.70298e-06
4.30104e-06
3.92901e-06
3.58522e-06
3.2683e-06
2.97667e-06
2.70883e-06
2.46332e-06
2.23866e-06
2.03344e-06
1.84626e-06
1.67581e-06
1.52079e-06
1.37977e-06
1.25129e-06
1.13375e-06
1.02659e-06
9.27559e-07
8.40836e-07
7.73926e-07
7.1003e-07
6.58621e-07
5.85189e-07
5.60241e-07
4.5041e-07
4.99183e-07
2.97357e-07
5.26299e-07
3.06197e-07
7.39898e-07
7.59627e-07
9.37281e-07
10.9766
10.3843
4.98269
2.77304
6.91173
9.34235
9.61563
7.97361
4.96398
1.90114
0.308763
0.022478
0.00562326
0.00202435
0.000165502
1.34894e-05
0
2.30509e-08
4.88773e-07
9.61348e-06
2.02552e-05
2.43069e-05
2.41166e-05
2.26655e-05
2.12068e-05
1.99659e-05
1.88674e-05
1.78399e-05
1.68544e-05
1.59087e-05
1.50042e-05
1.41412e-05
1.33199e-05
1.25364e-05
1.17883e-05
1.1075e-05
1.03932e-05
9.74228e-06
9.12071e-06
8.52729e-06
7.96085e-06
7.42067e-06
6.90679e-06
6.41749e-06
5.95314e-06
5.51334e-06
5.09736e-06
4.70492e-06
4.33563e-06
3.98897e-06
3.6645e-06
3.36146e-06
3.07926e-06
2.81715e-06
2.5743e-06
2.34986e-06
2.14293e-06
1.95258e-06
1.77783e-06
1.61776e-06
1.47137e-06
1.33756e-06
1.21514e-06
1.10274e-06
9.99919e-07
9.04669e-07
8.20552e-07
7.55365e-07
6.92045e-07
6.43515e-07
5.6974e-07
5.48737e-07
4.36624e-07
4.90635e-07
2.8498e-07
5.16543e-07
2.95376e-07
7.21489e-07
7.37612e-07
7.14576
8.62253
6.91979
3.04553
2.29935
5.71979
7.69592
7.76043
6.07884
3.35392
0.993609
0.0912921
0.00390356
0.000573185
0.000190107
0
0
1.15041e-09
2.39925e-08
4.02469e-06
1.12233e-05
1.48128e-05
1.52903e-05
1.47263e-05
1.40888e-05
1.35699e-05
1.31269e-05
1.27045e-05
1.22749e-05
1.18338e-05
1.13825e-05
1.09241e-05
1.04626e-05
9.99851e-06
9.53395e-06
9.07158e-06
8.6125e-06
8.15945e-06
7.71351e-06
7.27643e-06
6.84934e-06
6.43372e-06
6.03105e-06
5.64129e-06
5.26607e-06
4.90602e-06
4.56138e-06
4.23276e-06
3.92041e-06
3.62452e-06
3.34521e-06
3.08225e-06
2.83559e-06
2.60485e-06
2.38967e-06
2.18957e-06
2.00399e-06
1.83232e-06
1.67388e-06
1.528e-06
1.39396e-06
1.27087e-06
1.15782e-06
1.05356e-06
9.57788e-07
8.68769e-07
7.89467e-07
7.28088e-07
6.67064e-07
6.22704e-07
5.50415e-07
5.33195e-07
4.22474e-07
4.78219e-07
2.78207e-07
5.03745e-07
2.93719e-07
7.06118e-07
4.68639
6.38753
6.5857
4.88749
1.92052
1.92383
4.70663
6.32082
6.33649
4.83831
2.5068
0.662291
0.0509968
0.000355581
0.000118368
0
0
0
1.00271e-07
2.04078e-06
7.90623e-06
1.17459e-05
1.25647e-05
1.2089e-05
1.14443e-05
1.09411e-05
1.05528e-05
1.02123e-05
9.88537e-06
9.56201e-06
9.23852e-06
8.91367e-06
8.58735e-06
8.25798e-06
7.92527e-06
7.58985e-06
7.25234e-06
6.91439e-06
6.57683e-06
6.24128e-06
5.90901e-06
5.58162e-06
5.26051e-06
4.94637e-06
4.64089e-06
4.34485e-06
4.05896e-06
3.78417e-06
3.52085e-06
3.26957e-06
3.03072e-06
2.80429e-06
2.59057e-06
2.38939e-06
2.20064e-06
2.02414e-06
1.85952e-06
1.70643e-06
1.56441e-06
1.43298e-06
1.31164e-06
1.19969e-06
1.09644e-06
1.00082e-06
9.12537e-07
8.30178e-07
7.56129e-07
6.99314e-07
6.41252e-07
6.01215e-07
5.30742e-07
5.17224e-07
4.08466e-07
4.65805e-07
2.72095e-07
4.92073e-07
2.91244e-07
2.84531
4.43235
5.37334
5.17189
3.70744
1.3926
1.55853
3.80848
5.15944
5.20168
3.94962
2.00874
0.523272
0.0387163
0.0027078
0
0
0
3.75975e-10
7.65746e-09
4.15095e-06
9.10377e-06
1.04188e-05
1.01815e-05
9.6802e-06
9.22801e-06
8.87278e-06
8.57341e-06
8.29077e-06
8.01226e-06
7.73679e-06
7.4649e-06
7.19648e-06
6.93037e-06
6.66549e-06
6.40119e-06
6.13728e-06
5.87401e-06
5.61125e-06
5.34955e-06
5.0895e-06
4.83184e-06
4.57735e-06
4.32662e-06
4.08081e-06
3.8405e-06
3.60646e-06
3.37958e-06
3.16028e-06
2.94921e-06
2.74693e-06
2.55365e-06
2.36976e-06
2.19536e-06
2.03058e-06
1.8754e-06
1.72972e-06
1.59337e-06
1.46612e-06
1.34765e-06
1.23767e-06
1.13568e-06
1.04118e-06
9.53265e-07
8.71666e-07
7.95283e-07
7.25904e-07
6.73127e-07
6.17685e-07
5.81413e-07
5.12514e-07
5.02342e-07
3.95121e-07
4.54529e-07
2.65404e-07
4.82678e-07
1.42007
2.74751
3.91659
4.50397
4.21896
3.00806
1.14862
1.20102
3.07515
4.25677
4.3575
3.34414
1.73118
0.471401
0.0414922
0.00253778
5.61991e-07
0
0
6.99882e-10
1.19634e-08
4.17645e-06
7.7398e-06
7.9214e-06
7.4112e-06
7.10539e-06
6.89759e-06
6.72006e-06
6.55655e-06
6.39268e-06
6.22262e-06
6.04769e-06
5.8695e-06
5.68845e-06
5.50429e-06
5.31703e-06
5.12718e-06
4.93527e-06
4.74141e-06
4.54613e-06
4.35008e-06
4.15366e-06
3.95759e-06
3.76242e-06
3.569e-06
3.37787e-06
3.1898e-06
3.00561e-06
2.82573e-06
2.65089e-06
2.48172e-06
2.31859e-06
2.16199e-06
2.01218e-06
1.86951e-06
1.73408e-06
1.606e-06
1.48528e-06
1.37185e-06
1.26558e-06
1.16631e-06
1.07373e-06
9.87508e-07
9.06932e-07
8.31727e-07
7.61093e-07
6.96188e-07
6.47188e-07
5.94232e-07
5.6152e-07
4.94244e-07
4.87341e-07
3.81608e-07
4.43314e-07
0.470176
1.36245
2.4576
3.37957
3.81818
3.56738
2.58695
1.06208
0.859535
2.46367
3.53602
3.70896
2.91695
1.57093
0.467584
0.0525655
0.000149556
3.08297e-05
0
0
9.07674e-12
2.25192e-07
3.65964e-06
6.48612e-06
6.18454e-06
5.58963e-06
5.36937e-06
5.26167e-06
5.15236e-06
5.04544e-06
4.94179e-06
4.83575e-06
4.72601e-06
4.61292e-06
4.49571e-06
4.37363e-06
4.24672e-06
4.11531e-06
3.97954e-06
3.83995e-06
3.6971e-06
3.55143e-06
3.40373e-06
3.25457e-06
3.10465e-06
2.95469e-06
2.80537e-06
2.65744e-06
2.51144e-06
2.36807e-06
2.22801e-06
2.09169e-06
1.95967e-06
1.8323e-06
1.71001e-06
1.59303e-06
1.48159e-06
1.3758e-06
1.27573e-06
1.18136e-06
1.09267e-06
1.00946e-06
9.31554e-07
8.5841e-07
7.89731e-07
7.25008e-07
6.64757e-07
6.19691e-07
5.69392e-07
5.40362e-07
4.74956e-07
4.71459e-07
0.0624773
0.425269
1.18327
2.10484
2.88561
3.27448
3.10315
2.3264
1.06794
0.545888
1.93951
2.93682
3.18582
2.59332
1.4706
0.488041
0.0657384
0.000526376
6.77548e-05
0
0
0
1.68644e-07
2.63172e-06
5.38627e-06
5.10942e-06
4.47425e-06
4.28267e-06
4.22578e-06
4.14502e-06
4.05417e-06
3.96978e-06
3.88828e-06
3.80589e-06
3.7215e-06
3.63438e-06
3.54385e-06
3.44974e-06
3.35174e-06
3.24993e-06
3.14449e-06
3.03564e-06
2.92392e-06
2.80971e-06
2.69356e-06
2.5761e-06
2.45786e-06
2.33952e-06
2.22158e-06
2.10469e-06
1.98946e-06
1.87633e-06
1.7659e-06
1.65849e-06
1.55457e-06
1.45445e-06
1.35839e-06
1.26659e-06
1.17917e-06
1.09621e-06
1.01775e-06
9.43725e-07
8.74022e-07
8.08283e-07
7.46155e-07
6.87426e-07
6.31959e-07
5.90973e-07
5.43489e-07
0.000540477
0.0457115
0.330727
0.954523
1.74363
2.44097
2.82689
2.74898
2.1526
1.11634
0.282481
1.48665
2.42858
2.75101
2.3343
1.40514
0.515541
0.0827544
0.00173524
0.000124178
0
0
0
9.3119e-08
1.3783e-06
4.22876e-06
4.27297e-06
3.63584e-06
3.43252e-06
3.41619e-06
3.37553e-06
3.30757e-06
3.24051e-06
3.17751e-06
3.11431e-06
3.04904e-06
2.98122e-06
2.91078e-06
2.83732e-06
2.76074e-06
2.68101e-06
2.59823e-06
2.51263e-06
2.42446e-06
2.33406e-06
2.24184e-06
2.14822e-06
2.05374e-06
1.95877e-06
1.86387e-06
1.76957e-06
1.67624e-06
1.58444e-06
1.49449e-06
1.40683e-06
1.32179e-06
1.23963e-06
1.16062e-06
1.08489e-06
1.01257e-06
9.43748e-07
8.78429e-07
8.16582e-07
7.58001e-07
7.02251e-07
6.49421e-07
0.000133515
0.000207638
0.0252803
0.224349
0.717876
1.39611
2.038
2.4407
2.45743
2.02154
1.17647
0.172808
1.09506
1.99165
2.37974
2.1173
1.35584
0.546639
0.103761
0.00408711
0.000181087
0
0
0
2.89891e-08
3.76009e-07
3.08685e-06
3.66609e-06
3.08079e-06
2.79536e-06
2.76099e-06
2.74348e-06
2.69866e-06
2.64905e-06
2.60236e-06
2.55563e-06
2.50674e-06
2.45541e-06
2.40141e-06
2.3446e-06
2.2849e-06
2.22232e-06
2.15702e-06
2.08918e-06
2.01904e-06
1.94687e-06
1.873e-06
1.79787e-06
1.72174e-06
1.64508e-06
1.56832e-06
1.49178e-06
1.41596e-06
1.34114e-06
1.26772e-06
1.19602e-06
1.1263e-06
1.05882e-06
9.93758e-07
9.31231e-07
8.71376e-07
8.14227e-07
0
1.06284e-06
0.000821563
0.01019
0.132048
0.499935
1.07361
1.66925
2.094
2.20006
1.90802
1.2319
0.307792
0.756751
1.6116
2.05494
1.92647
1.31157
0.577998
0.128087
0.00789732
0.000257918
0
0
0
9.90064e-10
3.24422e-09
1.74904e-06
2.90186e-06
2.60501e-06
2.32163e-06
2.26094e-06
2.24769e-06
2.21683e-06
2.17934e-06
2.14359e-06
2.10799e-06
2.07069e-06
2.03126e-06
1.9895e-06
1.94524e-06
1.89836e-06
1.84894e-06
1.7971e-06
1.74297e-06
1.68677e-06
1.62875e-06
1.56926e-06
1.5085e-06
1.44685e-06
1.38468e-06
1.32226e-06
1.26e-06
1.19817e-06
1.1371e-06
1.0771e-06
1.0184e-06
4.16782e-15
0
0
0.000667837
0.00268304
0.0656188
0.317955
0.784933
1.33108
1.7735
1.95999
1.79701
1.27301
0.477802
0.465013
1.27718
1.76456
1.75125
1.26713
0.60708
0.154773
0.0136619
0.000421992
1.32616e-07
0
0
3.16842e-12
7.86977e-08
1.15196e-06
2.2648e-06
2.1825e-06
1.93983e-06
1.86999e-06
1.85859e-06
1.83681e-06
1.80769e-06
1.7794e-06
1.75136e-06
1.7219e-06
1.69059e-06
1.65727e-06
1.62182e-06
1.58417e-06
1.54438e-06
1.50252e-06
1.4587e-06
1.41312e-06
1.36604e-06
1.31763e-06
1.26817e-06
4.8549e-11
7.22836e-12
0
0
0.000334971
0.00029846
0.0260925
0.180691
0.538576
1.02425
1.47317
1.72764
1.67955
1.2935
0.625895
0.219028
0.981035
1.50073
1.58571
1.21939
0.631861
0.183312
0.0201504
5.53655e-05
9.66394e-06
0
0
0
4.85599e-08
6.89408e-07
1.78241e-06
1.84114e-06
1.63004e-06
1.55465e-06
1.54562e-06
1.53088e-06
1.50758e-06
1.48445e-06
)
;

boundaryField
{
    inlet
    {
        type            calculated;
        value           nonuniform List<scalar> 
11
(
5.5947e-06
5.30308e-06
5.43035e-06
5.54843e-06
5.65309e-06
5.7461e-06
5.83327e-06
5.92097e-06
6.0248e-06
5.79061e-06
6.10066e-06
)
;
    }
    outlet
    {
        type            calculated;
        value           nonuniform List<scalar> 0();
    }
    walls
    {
        type            calculated;
        value           uniform 0;
    }
    frontAndBack
    {
        type            empty;
    }
    procBoundary6to2
    {
        type            processor;
        value           nonuniform List<scalar> 
13
(
10.4562
6.28994
3.96783
2.39025
1.18218
0.397093
0.0572762
0.000592882
0.000263786
0
0
5.4025e-08
8.93762e-07
)
;
    }
    procBoundary6to3
    {
        type            processor;
        value           uniform 1.1578e-06;
    }
    procBoundary6to5
    {
        type            processor;
        value           nonuniform List<scalar> 
86
(
29.304
11.0178
14.1362
12.6423
5.01298
0.199204
0.0217198
0.00330502
0
0
3.21782e-06
5.23485e-05
7.80573e-05
6.74205e-05
6.01252e-05
5.95224e-05
5.97836e-05
5.86091e-05
5.64533e-05
5.41425e-05
5.1993e-05
4.99721e-05
4.79729e-05
4.59349e-05
4.38518e-05
4.17378e-05
3.96085e-05
3.74795e-05
3.53623e-05
3.32652e-05
3.11993e-05
2.9175e-05
2.72014e-05
2.72014e-05
2.66032e-05
2.46305e-05
2.27392e-05
2.0935e-05
1.92226e-05
1.76055e-05
1.60855e-05
1.46635e-05
1.33389e-05
1.21102e-05
1.09751e-05
9.93026e-06
9.93026e-06
9.20967e-06
8.30054e-06
7.47329e-06
6.72251e-06
6.04275e-06
5.42856e-06
4.8747e-06
4.37608e-06
3.92781e-06
3.92781e-06
3.57399e-06
3.20665e-06
2.87775e-06
2.58353e-06
2.32047e-06
2.08514e-06
1.8741e-06
1.8741e-06
1.69964e-06
1.52664e-06
1.37128e-06
1.23268e-06
1.10888e-06
1.00223e-06
9.17038e-07
9.17038e-07
8.51963e-07
7.87582e-07
7.20574e-07
6.65662e-07
5.90234e-07
5.6562e-07
4.57588e-07
5.27874e-07
3.96905e-07
3.96905e-07
6.43163e-07
7.43742e-07
9.60459e-07
)
;
    }
    procBoundary6to7
    {
        type            processor;
        value           nonuniform List<scalar> 
91
(
9.39547e-07
9.39547e-07
7.13983e-07
7.13983e-07
6.92385e-07
6.92385e-07
2.88925e-07
2.58141e-07
2.88925e-07
4.73938e-07
3.67403e-07
2.58141e-07
4.31614e-07
5.18221e-07
4.54889e-07
3.67403e-07
4.54885e-07
5.98717e-07
5.61805e-07
5.18221e-07
5.17178e-07
7.59807e-07
7.08052e-07
6.5844e-07
5.98717e-07
6.11347e-07
9.61262e-07
9.0585e-07
8.52286e-07
8.00708e-07
7.59807e-07
7.51189e-07
1.21796e-06
1.16726e-06
1.11638e-06
1.06556e-06
1.01509e-06
9.65228e-07
9.61262e-07
9.16208e-07
1.46195e-06
1.43834e-06
1.41306e-06
1.38603e-06
1.35714e-06
1.32638e-06
1.2938e-06
1.25949e-06
1.22357e-06
1.18623e-06
1.14763e-06
1.21796e-06
1.10796e-06
2.11485e-08
1.28887e-09
0
0
3.82843e-05
7.86843e-05
0.00691132
0.0876365
0.339065
0.750547
1.18987
1.49747
1.55006
1.28987
0.743903
0.0788345
0.718706
1.25856
1.42619
1.16616
0.651216
0.21196
0.0292683
0.000310107
3.52814e-05
0
0
0
2.73061e-08
3.73655e-07
1.40451e-06
1.56808e-06
1.37501e-06
1.28972e-06
1.28361e-06
1.27762e-06
1.46195e-06
1.26056e-06
)
;
    }
}


// ************************************************************************* //
