/*--------------------------------*- C++ -*----------------------------------*\
| =========                 |                                                 |
| \\      /  F ield         | OpenFOAM: The Open Source CFD Toolbox           |
|  \\    /   O peration     | Version:  2306                                  |
|   \\  /    A nd           | Website:  www.openfoam.com                      |
|    \\/     M anipulation  |                                                 |
\*---------------------------------------------------------------------------*/
FoamFile
{
    version     2.0;
    format      ascii;
    arch        "LSB;label=32;scalar=64";
    class       volScalarField;
    location    "75";
    object      div(phi);
}
// * * * * * * * * * * * * * * * * * * * * * * * * * * * * * * * * * * * * * //

dimensions      [0 0 -1 0 0 0 0];

internalField   nonuniform List<scalar> 
1340
(
-1.07574e-05
-1.39499e-05
-6.97501e-06
1.75446e-06
-3.11652e-06
-9.77526e-06
-2.31633e-06
2.76322e-06
-7.69701e-06
-5.6029e-06
8.14556e-07
-3.96023e-06
3.03959e-06
1.18147e-06
-3.0887e-06
-1.08828e-05
5.14062e-06
-5.25068e-07
-2.54315e-08
2.59984e-06
9.89639e-07
2.02219e-06
-8.105e-06
-5.16601e-06
2.03172e-06
1.18518e-06
2.5586e-06
-1.41332e-06
6.2359e-08
1.0712e-06
7.2469e-08
2.72388e-06
1.93943e-07
-2.71207e-06
-1.12484e-05
8.56278e-06
-1.06236e-06
4.27034e-06
2.04935e-07
-3.45402e-07
-1.92936e-06
1.02083e-06
2.28674e-07
1.31851e-07
2.39305e-06
1.67535e-06
1.87369e-06
-8.87299e-06
-4.75449e-06
1.34264e-05
-5.24093e-07
-4.20139e-06
9.79119e-06
-1.53446e-06
4.02048e-06
1.92981e-07
1.94709e-07
-7.16848e-08
1.5165e-06
-8.88562e-07
6.05044e-08
1.47681e-06
1.1589e-06
3.02336e-06
-1.23151e-06
-2.38622e-06
-1.10779e-05
3.25022e-05
-1.19465e-05
2.67724e-05
-6.94474e-06
1.43842e-05
-3.29296e-06
4.39188e-06
3.88239e-06
-2.83085e-06
5.15067e-06
1.17435e-06
2.15444e-06
1.02543e-06
8.92849e-07
-9.00766e-07
1.02673e-06
5.99982e-07
8.31776e-07
2.91768e-06
1.71779e-06
1.81281e-06
-9.37433e-06
-4.28443e-06
6.81359e-06
9.66273e-06
-9.79803e-06
-3.67743e-06
2.89192e-06
-4.24351e-06
4.80665e-06
3.04159e-06
8.2971e-06
3.0543e-06
1.15942e-05
4.11709e-07
8.58055e-06
3.11388e-06
4.29077e-07
7.62513e-06
2.3549e-06
4.41457e-06
9.64045e-07
5.73501e-07
7.63145e-07
1.78452e-06
3.16882e-08
8.51445e-07
1.91921e-06
1.94861e-06
3.52825e-06
-2.42278e-06
-2.0925e-06
-9.93821e-06
8.05788e-05
-0.000101024
2.54432e-05
-6.83392e-05
2.20944e-05
-5.17447e-05
2.10934e-05
-3.7345e-05
1.85844e-05
-2.51258e-05
1.98743e-05
-2.17378e-05
2.0135e-05
-1.67487e-05
1.47898e-05
-1.30688e-05
1.2395e-05
-6.38165e-06
8.67857e-06
3.3698e-06
7.24074e-06
1.06421e-05
5.581e-06
9.05705e-06
4.44952e-06
5.76967e-06
9.52756e-06
3.79485e-06
5.92696e-06
1.9297e-06
1.2543e-06
2.67596e-06
1.28304e-06
3.83199e-07
1.37069e-06
8.7753e-07
1.9637e-06
3.87601e-06
1.39329e-06
1.92762e-06
-9.53504e-06
-3.70341e-06
-0.000411277
0.00133184
-0.000272796
0.000833273
-0.000520872
0.00048424
-0.000651308
0.000224535
-0.000644084
4.1068e-05
-0.000626007
-9.6458e-05
-0.000548402
-0.000194712
-0.000497922
-0.000272694
-0.000423337
-0.000323157
-0.000370687
-0.000352565
-0.000305078
-0.000359522
-0.000258273
-0.000363045
-0.000209754
-0.000346315
-0.000162002
-0.000302457
-0.000111461
-0.000254624
-7.09799e-05
-0.000214606
-8.10567e-05
-0.000177526
-5.43267e-05
-0.000146369
-4.96662e-05
-0.000115207
-3.87796e-05
-9.18548e-05
-1.8552e-05
-7.46178e-05
-1.24157e-05
-5.81834e-05
-7.00424e-06
-3.79042e-05
-1.85511e-06
-2.17846e-05
4.58859e-06
-1.24969e-05
4.53892e-06
-4.17537e-06
4.30443e-06
-5.65327e-07
5.59767e-06
2.06343e-06
5.94754e-06
7.90185e-06
7.3464e-06
7.58938e-06
5.94767e-06
7.92244e-06
8.92754e-06
5.73337e-06
6.54369e-06
3.96692e-06
2.23494e-06
3.88117e-06
8.07544e-07
1.61868e-06
1.18725e-06
8.73986e-07
2.09391e-06
2.96462e-06
2.35894e-06
4.34883e-06
-3.87024e-06
-1.77298e-06
-8.76285e-06
-0.00952115
-0.00158549
-0.002119
-0.00114007
-0.00144646
-0.000749612
-0.00101487
-0.000525666
-0.00070634
-0.000406857
-0.000538262
-0.000353279
-0.000390611
-0.000327672
-0.000311524
-0.000323205
-0.000225113
-0.00032436
-0.000176738
-0.000326533
-0.000121942
-0.000322467
-8.37807e-05
-0.000316735
-5.39712e-05
-0.000303554
-1.43447e-05
-0.000258991
-4.83248e-07
-0.000187296
2.47314e-05
-0.000109136
6.15417e-05
-6.63691e-05
5.45152e-05
-5.14645e-05
3.16416e-05
-5.90511e-05
1.50085e-05
-6.59971e-05
-1.15113e-05
-6.08816e-05
-1.61714e-05
-4.22736e-05
-7.21885e-06
-2.80294e-05
5.80103e-08
-1.48823e-05
2.07341e-06
-5.02575e-06
6.0235e-06
-1.61121e-06
6.54228e-06
2.82242e-06
5.57573e-06
4.79681e-06
6.67858e-06
6.75609e-06
6.72073e-06
6.39145e-06
6.89558e-06
7.19592e-06
6.48255e-06
6.27453e-06
5.18971e-06
2.96794e-06
4.33217e-06
1.83326e-06
2.96338e-06
6.82317e-07
1.27802e-06
1.82556e-06
1.9507e-06
2.63564e-06
5.29775e-06
3.61189e-07
2.24889e-06
-9.47061e-06
-3.07955e-06
-0.00517375
-0.000124385
-0.00178242
8.16754e-06
-0.00143112
-1.31665e-05
-0.00116567
-0.000106463
-0.00101255
-0.000211619
-0.000815407
-0.000287701
-0.000688283
-0.000346061
-0.000531811
-0.000378637
-0.000428087
-0.00040153
-0.000309974
-0.000407535
-0.000224146
-0.000402334
-0.000145115
-0.000384534
-8.39028e-05
-0.000354881
-2.83578e-05
-0.000299303
1.79771e-05
-0.000233701
5.16899e-05
-0.000179256
3.98455e-05
-0.000122339
3.49219e-05
-7.67142e-05
4.18631e-05
-4.01303e-05
2.59432e-05
-1.7572e-05
3.07323e-05
-7.34849e-06
2.66581e-05
-7.4349e-06
1.59264e-05
-3.37213e-06
1.08706e-05
-2.96685e-07
1.21439e-05
1.42873e-06
9.38065e-06
5.26251e-06
9.02389e-06
6.46608e-06
9.60379e-06
7.42155e-06
8.51339e-06
8.00197e-06
7.75032e-06
7.10167e-06
6.79655e-06
6.72311e-06
5.94163e-06
5.92737e-06
4.29411e-06
3.88927e-06
3.49716e-06
4.21048e-06
1.15479e-06
1.52958e-06
4.0286e-07
3.55036e-06
1.10025e-06
3.99745e-06
2.15171e-06
5.20552e-06
-4.77082e-06
-1.36717e-06
-7.10175e-06
-0.00234204
0.00160771
-0.000167172
0.000825327
-0.000542403
0.000457712
-0.000531395
0.000240162
-0.000480326
8.42909e-05
-0.000348301
-1.49678e-05
-0.000273112
-8.26061e-05
-0.000161721
-0.000121045
-0.000105711
-0.000153178
-3.26689e-05
-0.000178564
6.14462e-06
-0.000199292
4.06909e-05
-0.000210194
7.47596e-05
-0.000211568
8.48118e-05
-0.000196285
0.00011141
-0.000147915
8.98976e-05
-7.66254e-05
0.000123818
-1.68529e-05
0.000116024
1.89187e-05
8.94823e-05
2.93065e-05
7.41059e-05
2.4328e-05
4.02161e-05
1.89145e-05
2.19257e-05
2.16976e-05
2.07422e-05
1.94603e-05
1.94219e-05
1.63072e-05
1.40695e-05
1.37354e-05
1.40947e-05
1.06741e-05
1.32106e-05
1.07457e-05
1.20646e-05
1.08234e-05
1.16553e-05
1.01306e-05
9.92448e-06
8.60271e-06
7.95129e-06
7.14235e-06
6.18039e-06
6.23932e-06
4.47473e-06
4.15399e-06
4.9957e-06
3.53548e-06
1.54712e-06
-1.04662e-06
5.55923e-06
-1.14936e-06
3.77928e-06
1.36194e-07
5.61084e-06
-5.93721e-07
2.48188e-06
-8.55503e-06
-2.33233e-06
-0.00284703
0.000572215
-0.0016981
0.000240344
-0.00138679
0.000156051
-0.00112925
4.61945e-05
-0.000828912
-7.33934e-05
-0.000656946
-0.000196389
-0.000482229
-0.000283734
-0.000367715
-0.000335186
-0.00024952
-0.000347155
-0.00015648
-0.000328269
-7.00284e-05
-0.000289611
-2.01425e-06
-0.000237815
3.83639e-05
-0.000186875
7.94653e-05
-0.00012875
8.89362e-05
-7.60732e-05
0.000103625
-2.62338e-05
8.50106e-05
2.54805e-05
8.4299e-05
7.39451e-05
9.46823e-05
0.000105703
8.59202e-05
0.00011593
7.95164e-05
0.000106612
6.68647e-05
7.85902e-05
4.11957e-05
5.23738e-05
2.32991e-05
3.20452e-05
1.64896e-05
1.95455e-05
1.25365e-05
1.5697e-05
1.39335e-05
1.42327e-05
1.56796e-05
1.28262e-05
1.49734e-05
1.07322e-05
1.31189e-05
8.29042e-06
1.06095e-05
5.8569e-06
8.22177e-06
4.98888e-06
5.70001e-06
3.51627e-06
6.33723e-06
2.44686e-06
-1.39026e-06
6.13618e-06
-2.57949e-06
4.94586e-06
-1.67584e-06
3.32013e-06
-7.47329e-08
5.10752e-06
-5.42822e-06
-9.38222e-07
-5.76814e-06
0.00978178
0.00191842
0.00336405
0.00151763
0.00251559
0.00114436
0.00195846
0.000936136
0.00152304
0.000831409
0.00125048
0.000791944
0.00101431
0.000767793
0.000848214
0.000745253
0.000692871
0.000708212
0.000573317
0.000660316
0.000457334
0.000598933
0.000369592
0.000538686
0.000296108
0.000488578
0.000248615
0.000446814
0.000186468
0.000382209
0.00012779
0.000313558
7.49617e-05
0.000257934
3.80318e-05
0.0002214
1.60898e-05
0.000193862
-3.00217e-06
0.000165665
-4.12507e-06
0.000130215
-2.49125e-05
9.66215e-05
-2.63404e-05
7.01175e-05
-2.13701e-05
5.11372e-05
-1.67429e-05
4.1304e-05
-3.21325e-06
3.59921e-05
6.46759e-06
3.10901e-05
1.07857e-05
2.57695e-05
1.22205e-05
2.00988e-05
1.12825e-05
1.42785e-05
8.94239e-06
9.16124e-06
6.92141e-06
6.51037e-06
4.3485e-06
4.47279e-06
5.63214e-06
-3.37828e-07
5.75573e-06
-1.52074e-06
4.82882e-06
-3.07543e-07
8.34166e-07
-6.3224e-07
3.82712e-06
-2.75667e-06
2.04004e-06
-7.59231e-06
-1.59446e-06
0.0228605
0.00689598
0.00740341
0.00434431
0.00500087
0.00253264
0.00350339
0.00147245
0.0024942
0.000904644
0.00190053
0.000643817
0.00142869
0.000526195
0.00114863
0.00048742
0.000873908
0.000470146
0.000714236
0.000476355
0.000532563
0.000483911
0.000428396
0.000498864
0.000300949
0.000511116
0.000233472
0.000529786
0.000149854
0.000520736
8.10196e-05
0.000474064
1.83327e-05
0.000412432
-2.20807e-05
0.000348146
-4.03748e-05
0.000285119
-5.30202e-05
0.000222283
-4.74146e-05
0.000167692
-4.86405e-05
0.000119708
-3.64405e-05
8.47306e-05
-3.47967e-05
6.13021e-05
-2.17374e-05
4.86128e-05
-1.04916e-05
4.13233e-05
6.04504e-07
3.57324e-05
7.91489e-06
2.94231e-05
1.07915e-05
2.16825e-05
1.00088e-05
1.42191e-05
8.05979e-06
7.93075e-06
6.63697e-06
4.86933e-06
3.93387e-06
4.09822e-06
4.87584e-06
2.73806e-06
4.04214e-06
1.84988e-06
3.80159e-06
-6.09638e-07
-1.46257e-08
1.26552e-06
-1.80735e-06
3.6209e-06
-6.17073e-06
-5.09882e-07
-4.42321e-06
0.0269329
0.00412739
0.0116987
0.00558299
0.010683
0.00475066
0.00811314
0.00344263
0.00600628
0.00241376
0.00421656
0.00170707
0.00307467
0.00129056
0.00216823
0.00101994
0.00162224
0.00085869
0.00115456
0.000753508
0.000875085
0.000704094
0.000618586
0.000672624
0.000467703
0.00065486
0.000327619
0.000640702
0.000238532
0.00061726
0.000148838
0.000564195
6.97049e-05
0.000488876
1.15559e-05
0.000411277
-3.52121e-05
0.000334918
-5.87412e-05
0.000265464
-7.92111e-05
0.00019882
-8.15968e-05
0.000142495
-9.04568e-05
9.7501e-05
-7.87086e-05
7.01877e-05
-6.5985e-05
5.5969e-05
-4.40989e-05
4.99499e-05
-2.57893e-05
4.50416e-05
-1.29215e-05
3.86206e-05
-7.27412e-06
3.08693e-05
-4.85727e-06
2.33557e-05
-3.76354e-06
1.68555e-05
-2.51844e-06
1.2128e-05
-2.55806e-06
1.04988e-05
-2.13036e-06
1.08284e-05
-9.65476e-07
6.90186e-06
5.82783e-09
1.51006e-06
6.1996e-08
-1.3288e-06
3.31301e-06
-4.19792e-06
1.81864e-06
-6.68532e-06
-9.40332e-07
0.0632151
0.00643029
0.0116302
0.00354885
0.00842179
0.00178511
0.00617744
0.000863574
0.00483558
0.000473439
0.00368422
0.000335066
0.00297004
0.000354945
0.00229512
0.000407236
0.00187454
0.000483498
0.00143567
0.000547567
0.00114867
0.00060984
0.000859221
0.000638457
0.000663437
0.000643
0.000479363
0.000620074
0.000348949
0.000575376
0.000221487
0.000503689
0.000119548
0.000420958
4.22921e-05
0.000337965
-1.29162e-05
0.00026268
-4.00214e-05
0.000196787
-5.35231e-05
0.000140995
-5.40917e-05
9.7702e-05
-4.90971e-05
6.6207e-05
-3.90819e-05
4.84239e-05
-2.93869e-05
3.95584e-05
-1.59088e-05
3.52825e-05
-8.01182e-06
3.14912e-05
-1.24411e-06
2.65116e-05
1.62272e-06
2.06013e-05
3.44499e-06
1.50452e-05
3.60529e-06
1.02356e-05
3.59034e-06
8.10045e-06
2.78395e-06
9.39908e-06
3.36797e-06
5.5967e-06
2.71191e-06
2.36803e-06
8.57438e-07
-4.5613e-07
1.99922e-06
-2.47294e-06
3.5084e-06
-6.36823e-06
-9.35435e-08
-3.34688e-06
-0.0505501
-0.0158242
-0.00938207
-0.0107676
-0.0048311
-0.00746107
-0.00207667
-0.00521223
-0.000468042
-0.00360102
0.000456918
-0.00242449
0.000986758
-0.0015755
0.00114511
-0.000985163
0.00119037
-0.000564809
0.00106208
-0.000279744
0.000938421
-8.25865e-05
0.000735968
3.16029e-05
0.000583843
9.78479e-05
0.000412923
0.000125128
0.00029937
0.000138384
0.000191833
0.000136221
0.000120806
0.000128661
6.17858e-05
0.000115324
2.15012e-05
0.000101868
-2.29618e-06
8.59032e-05
-1.95285e-05
6.60133e-05
-2.05964e-05
4.13634e-05
-3.54816e-05
2.18025e-05
-3.69877e-05
1.19942e-05
-3.11345e-05
1.22563e-05
-2.37527e-05
1.63802e-05
-1.0092e-05
2.01449e-05
-1.69676e-06
1.9746e-05
2.67878e-06
1.74243e-05
4.69406e-06
1.36336e-05
5.00452e-06
9.87964e-06
4.24361e-06
8.12108e-06
3.77503e-06
8.88706e-06
3.94148e-06
4.73468e-06
2.70702e-06
1.71313e-06
3.70236e-07
7.20688e-07
-1.32448e-06
3.71562e-06
-4.95789e-06
1.68212e-06
-5.74512e-06
-2.77381e-07
-0.028663
-0.0130591
-0.00877912
-0.00973252
-0.00501999
-0.00699725
-0.00262082
-0.00507705
-0.00105196
-0.00374031
-0.000167915
-0.00282923
0.0003122
-0.00219643
0.000565822
-0.001739
0.00065017
-0.00139469
0.000688916
-0.0011132
0.000626331
-0.000881557
0.000586645
-0.000680387
0.000495067
-0.000516371
0.000439099
-0.000377547
0.000352586
-0.000268038
0.000298988
-0.000179848
0.00022963
-0.000114242
0.000183954
-6.5958e-05
0.000133479
-3.33052e-05
9.88256e-05
-1.15645e-05
6.72381e-05
1.29578e-06
4.4738e-05
5.82941e-06
3.01043e-05
1.67698e-06
1.34907e-05
-3.33118e-06
-1.44259e-07
-5.16521e-06
-5.22543e-06
-1.83766e-06
-6.94647e-06
3.84426e-06
-3.30963e-06
8.65562e-06
6.53274e-07
1.0148e-05
2.84183e-06
8.67508e-06
2.69393e-06
6.11593e-06
1.7958e-06
5.18513e-06
1.75389e-06
5.79774e-06
2.03113e-06
2.40988e-06
1.3831e-06
1.19228e-07
3.9267e-08
-9.67368e-07
2.48496e-06
-3.39139e-06
3.12284e-06
-6.12181e-06
3.21522e-07
-1.35284e-06
-0.00887312
-0.00596283
-0.0043125
-0.00481517
-0.00284741
-0.0036685
-0.00176514
-0.00277292
-0.00094689
-0.00210886
-0.000465759
-0.00165164
-0.000142831
-0.00133464
2.28392e-05
-0.00112187
0.000130604
-0.000965544
0.000169795
-0.000847758
0.000187831
-0.0007534
0.000186027
-0.000679894
0.000169093
-0.000617178
0.000160684
-0.000554969
0.00013856
-0.000488772
0.000136395
-0.000417884
0.000118997
-0.000345625
0.000118018
-0.00027366
0.000100919
-0.000208445
9.59189e-05
-0.000151371
7.94382e-05
-0.000105449
7.33917e-05
-6.90409e-05
5.59769e-05
-4.03859e-05
4.72265e-05
-1.88096e-05
3.46282e-05
-5.25166e-06
2.17248e-05
1.80505e-06
1.23611e-05
3.36998e-06
3.96101e-06
1.97603e-06
-1.56274e-06
3.4022e-07
-4.07632e-06
-7.73359e-07
-4.47015e-06
-1.22668e-06
-3.54091e-06
8.0137e-08
-2.54029e-06
8.31219e-07
-1.82925e-06
6.37703e-07
-2.71078e-07
-4.13089e-08
-5.23578e-07
8.57604e-07
-1.71527e-06
3.57329e-06
-4.80875e-06
8.41078e-07
-3.07613e-06
-7.01068e-07
-0.0210305
-0.00030828
-0.000224703
0.000865085
0.000595158
0.000976109
0.000489645
0.000681025
0.000193435
0.00033928
-7.52889e-05
4.87473e-05
-0.000194296
-0.000172693
-0.000278638
-0.000344187
-0.00026075
-0.00045709
-0.000252241
-0.00053041
-0.000188955
-0.000562724
-0.000144178
-0.000571847
-7.69767e-05
-0.000555881
-2.66195e-05
-0.000521828
2.23968e-05
-0.000470869
6.09163e-05
-0.000411733
8.09561e-05
-0.000349535
9.81111e-05
-0.000285914
9.33478e-05
-0.000226384
9.04327e-05
-0.000173553
7.09592e-05
-0.00012973
5.62291e-05
-9.22564e-05
3.3698e-05
-6.55808e-05
1.65723e-05
-4.75371e-05
-5.10015e-06
-3.58644e-05
-1.72971e-05
-2.74415e-05
-2.59478e-05
-2.09434e-05
-2.70735e-05
-1.41862e-05
-2.20676e-05
-7.99208e-06
-1.47849e-05
-3.33761e-06
-8.24687e-06
-1.40153e-07
-3.30632e-06
1.91469e-06
-1.49528e-06
2.58536e-06
-3.54666e-07
3.17203e-06
1.03084e-06
1.91895e-06
7.74593e-07
2.84368e-07
3.20892e-06
-2.5913e-06
8.88484e-07
-3.72449e-06
-1.76096e-06
-9.481e-07
0.0234518
0.00506233
0.00174899
0.00242418
-0.000351928
0.0010864
-0.00101914
0.000475171
-0.00118961
0.000155537
-0.00108964
-3.11227e-05
-0.000980691
-0.000162018
-0.000809869
-0.000239502
-0.000683957
-0.000281554
-0.000532718
-0.000289935
-0.000424395
-0.000283057
-0.00031253
-0.000266009
-0.000231883
-0.000245279
-0.000158398
-0.000219701
-0.000104244
-0.0001894
-5.96173e-05
-0.000157744
-2.50157e-05
-0.000126401
-6.15755e-07
-9.81046e-05
1.8625e-05
-7.10582e-05
2.85991e-05
-4.8761e-05
3.71585e-05
-2.97387e-05
4.14679e-05
-1.49189e-05
4.62035e-05
-3.31373e-06
4.76117e-05
5.36718e-06
5.27014e-05
1.13225e-05
5.3156e-05
1.42448e-05
5.20664e-05
1.61172e-05
4.86288e-05
1.65116e-05
4.17206e-05
1.56734e-05
3.33136e-05
1.42231e-05
2.46811e-05
1.25957e-05
1.7045e-05
7.91079e-06
1.26812e-05
8.15125e-06
1.06913e-05
5.48932e-06
5.38095e-06
3.07064e-06
1.84748e-06
2.46947e-06
-5.91242e-07
6.23993e-07
-2.60521e-06
-1.73123e-06
-1.16018e-06
-3.10425e-07
-0.000503724
0.00124611
-9.79106e-07
0.0010405
-9.32954e-05
0.000901452
-0.000138395
0.000776509
-0.000153805
0.000666892
-0.000146109
0.000579736
-0.000130357
0.000514315
-0.000103237
0.000469206
-8.73078e-05
0.000433708
-6.78642e-05
0.000400288
-6.37427e-05
0.000360822
-5.2676e-05
0.00031568
-5.3396e-05
0.000266306
-4.55597e-05
0.000219626
-4.45629e-05
0.00017714
-3.40699e-05
0.000140939
-2.6945e-05
0.000110093
-1.32242e-05
8.64111e-05
-2.29672e-06
6.80079e-05
1.26457e-05
5.56772e-05
2.50125e-05
4.79224e-05
4.08773e-05
4.53664e-05
5.2143e-05
4.39971e-05
6.40514e-05
4.2036e-05
7.43866e-05
3.7073e-05
7.74908e-05
3.05002e-05
7.71583e-05
2.55936e-05
7.13367e-05
2.23275e-05
6.03209e-05
1.90569e-05
4.56182e-05
1.52316e-05
3.06667e-05
1.16941e-05
1.85724e-05
5.84146e-06
1.25603e-05
6.39382e-06
9.61911e-06
3.36213e-06
3.98345e-06
1.36095e-06
1.30071e-06
2.25146e-07
2.53533e-07
-8.35998e-07
-7.3335e-07
-5.04128e-07
-1.89488e-07
0
)
;

boundaryField
{
    inlet
    {
        type            extrapolatedCalculated;
        value           nonuniform List<scalar> 
27
(
-1.07574e-05
-6.97501e-06
-9.77526e-06
-5.6029e-06
-1.08828e-05
-5.16601e-06
-1.12484e-05
-4.75449e-06
-1.10779e-05
-4.28443e-06
-9.93821e-06
-3.70341e-06
-8.76285e-06
-3.07955e-06
-7.10175e-06
-2.33233e-06
-5.76814e-06
-1.59446e-06
-4.42321e-06
-9.40332e-07
-3.34688e-06
-2.77381e-07
-1.35284e-06
-7.01068e-07
-9.481e-07
-3.10425e-07
0
)
;
    }
    outlet
    {
        type            extrapolatedCalculated;
        value           nonuniform List<scalar> 
78
(
-0.000503724
0.00124611
-9.79106e-07
0.0010405
-9.32954e-05
0.000901452
-0.000138395
0.000776509
-0.000153805
0.000666892
-0.000146109
0.000579736
-0.000130357
0.000514315
-0.000103237
0.000469206
-8.73078e-05
0.000433708
-6.78642e-05
0.000400288
-6.37427e-05
0.000360822
-5.2676e-05
0.00031568
-5.3396e-05
0.000266306
-4.55597e-05
0.000219626
-4.45629e-05
0.00017714
-3.40699e-05
0.000140939
-2.6945e-05
0.000110093
-1.32242e-05
8.64111e-05
-2.29672e-06
6.80079e-05
1.26457e-05
5.56772e-05
2.50125e-05
4.79224e-05
4.08773e-05
4.53664e-05
5.2143e-05
4.39971e-05
6.40514e-05
4.2036e-05
7.43866e-05
3.7073e-05
7.74908e-05
3.05002e-05
7.71583e-05
2.55936e-05
7.13367e-05
2.23275e-05
6.03209e-05
1.90569e-05
4.56182e-05
1.52316e-05
3.06667e-05
1.16941e-05
1.85724e-05
5.84146e-06
1.25603e-05
6.39382e-06
9.61911e-06
3.36213e-06
3.98345e-06
1.36095e-06
1.30071e-06
2.25146e-07
2.53533e-07
-8.35998e-07
-7.3335e-07
-5.04128e-07
-1.89488e-07
0
)
;
    }
    walls
    {
        type            extrapolatedCalculated;
        value           nonuniform List<scalar> 0();
    }
    frontAndBack
    {
        type            empty;
    }
    procBoundary7to3
    {
        type            processor;
        value           nonuniform List<scalar> 
16
(
0.00351967
-0.00667206
0.000746472
0.00213485
0.00407601
0.00554568
0.0211496
-0.00577422
0.00424784
0.00424784
-0.0174215
-0.0147157
-0.00671122
-0.000359304
0.00639218
0.0020697
)
;
    }
    procBoundary7to6
    {
        type            processor;
        value           nonuniform List<scalar> 
91
(
-1.71327e-05
-2.04305e-06
-2.04305e-06
7.11331e-06
7.11331e-06
8.25697e-06
8.25697e-06
1.61196e-06
7.57232e-06
7.57232e-06
-2.03726e-06
1.82166e-06
1.82166e-06
-1.25936e-06
-2.29932e-06
-2.31629e-06
-2.31629e-06
-6.95644e-06
1.86662e-06
-3.60247e-06
-3.60247e-06
-6.12025e-06
9.80357e-07
6.00376e-06
-9.99751e-06
-9.99751e-06
-1.57947e-05
1.8799e-05
-1.10651e-05
1.81222e-05
-9.49124e-06
-9.49124e-06
2.11002e-06
-8.38154e-06
-5.51947e-06
1.05173e-06
-1.48226e-05
2.01008e-05
-2.36138e-05
-2.36138e-05
5.75341e-05
-4.69369e-05
4.71517e-05
-3.70073e-05
3.38019e-05
-2.70711e-05
2.10007e-05
-1.59123e-05
1.40956e-05
-7.29455e-06
1.50992e-05
-1.49454e-05
-1.49454e-05
0.00213159
0.000409994
0.00122025
-9.1455e-05
0.00072208
-0.000290962
0.000420021
-0.00030206
0.00022787
-0.000290709
9.37866e-05
-0.0002143
1.22319e-06
-0.000168062
-7.10959e-05
-9.89964e-05
-0.000119553
-5.83815e-05
-0.000153009
-2.23473e-06
-0.000169612
3.1995e-05
-0.000183188
7.49786e-05
-0.000186945
0.000103637
-0.000180241
0.000125449
-0.000165604
0.000126294
-0.000144038
0.000109435
-0.00011986
9.05396e-05
-0.000126013
0.000106218
-0.000237812
-0.000237812
)
;
    }
}


// ************************************************************************* //
