/*--------------------------------*- C++ -*----------------------------------*\
| =========                 |                                                 |
| \\      /  F ield         | OpenFOAM: The Open Source CFD Toolbox           |
|  \\    /   O peration     | Version:  2306                                  |
|   \\  /    A nd           | Website:  www.openfoam.com                      |
|    \\/     M anipulation  |                                                 |
\*---------------------------------------------------------------------------*/
FoamFile
{
    version     2.0;
    format      ascii;
    arch        "LSB;label=32;scalar=64";
    class       volScalarField;
    location    "75";
    object      magR;
}
// * * * * * * * * * * * * * * * * * * * * * * * * * * * * * * * * * * * * * //

dimensions      [0 2 -2 0 0 0 0];

internalField   nonuniform List<scalar> 
1340
(
5.05002e-07
2.97647e-07
4.96921e-07
3.53093e-07
2.86701e-07
4.83359e-07
1.21818e-07
3.5246e-07
2.77104e-07
4.75408e-07
2.8348e-07
3.42199e-07
1.29984e-07
3.52611e-07
2.68118e-07
4.69353e-07
4.48628e-07
4.28278e-07
2.8887e-07
3.45185e-07
1.37549e-07
3.51269e-07
2.62122e-07
4.62693e-07
6.922e-07
6.05381e-07
5.51952e-07
4.52332e-07
4.31923e-07
2.95004e-07
3.47948e-07
1.47173e-07
3.49041e-07
2.60121e-07
4.55955e-07
9.23631e-07
8.40847e-07
7.60805e-07
6.9586e-07
6.09115e-07
5.55808e-07
4.56731e-07
4.35928e-07
3.02035e-07
3.51027e-07
1.58795e-07
3.46751e-07
2.6209e-07
4.49346e-07
1.31371e-06
1.21605e-06
1.11948e-06
1.02021e-06
9.24486e-07
8.41944e-07
7.62628e-07
6.99e-07
6.12302e-07
5.58893e-07
4.60354e-07
4.39154e-07
3.08527e-07
3.53668e-07
1.70728e-07
3.44245e-07
2.67642e-07
4.42655e-07
1.72093e-06
1.65017e-06
1.57255e-06
1.48968e-06
1.40126e-06
1.30981e-06
1.21415e-06
1.11939e-06
1.02114e-06
9.25561e-07
8.42778e-07
7.63827e-07
7.012e-07
6.14333e-07
5.60398e-07
4.62228e-07
4.40553e-07
3.13122e-07
3.54813e-07
1.81196e-07
3.40918e-07
2.76096e-07
4.34976e-07
1.93266e-06
1.92345e-06
1.9098e-06
1.88986e-06
1.85926e-06
1.81785e-06
1.76658e-06
1.70769e-06
1.64154e-06
1.56823e-06
1.48806e-06
1.40173e-06
1.31144e-06
1.21658e-06
1.12245e-06
1.02428e-06
9.28076e-07
8.44442e-07
7.65337e-07
7.03196e-07
6.15841e-07
5.60694e-07
4.62563e-07
4.39983e-07
3.15459e-07
3.53907e-07
1.8927e-07
3.36328e-07
2.86691e-07
4.26292e-07
1.97655e-06
1.87712e-06
1.79848e-06
1.73777e-06
1.70273e-06
1.71449e-06
1.77035e-06
1.83626e-06
1.88519e-06
1.90535e-06
1.90119e-06
1.89105e-06
1.88414e-06
1.87772e-06
1.86897e-06
1.85537e-06
1.83541e-06
1.80602e-06
1.76345e-06
1.70869e-06
1.64493e-06
1.57347e-06
1.49462e-06
1.40893e-06
1.31867e-06
1.22361e-06
1.12919e-06
1.03025e-06
9.32824e-07
8.47828e-07
7.6799e-07
7.05787e-07
6.17636e-07
5.60499e-07
4.62029e-07
4.37828e-07
3.15933e-07
3.50944e-07
1.94828e-07
3.30317e-07
2.98088e-07
4.1656e-07
0.0165671
0.0186576
0.0514998
0.0577595
0.0299397
0.0912284
0.276342
0.556248
0.914527
1.31701
1.71922
2.07458
2.33948
2.47429
2.44126
2.20508
1.74315
1.0749
0.383733
0.777339
1.48888
1.91954
1.87935
1.33557
0.607424
0.15636
0.0221756
0.00182872
1.43407e-06
1.08574e-07
0
5.6292e-08
8.64522e-07
1.7359e-06
1.72071e-06
1.57091e-06
1.48702e-06
1.45497e-06
1.4401e-06
1.42355e-06
1.39529e-06
1.3658e-06
1.35574e-06
1.38965e-06
1.48711e-06
1.62982e-06
1.76768e-06
1.86022e-06
1.89798e-06
1.90347e-06
1.89872e-06
1.8874e-06
1.86588e-06
1.83843e-06
1.80867e-06
1.77261e-06
1.72337e-06
1.66151e-06
1.58946e-06
1.50987e-06
1.42321e-06
1.33191e-06
1.23566e-06
1.14006e-06
1.03953e-06
9.40429e-07
8.53667e-07
7.72563e-07
7.09696e-07
6.20517e-07
5.60655e-07
4.61552e-07
4.3478e-07
3.1537e-07
3.46263e-07
1.9838e-07
3.22925e-07
3.09471e-07
4.05866e-07
0.0782279
0.147925
0.180876
0.164647
0.1059
0.0678019
0.234443
0.497065
0.822981
1.18074
1.53068
1.832
2.04898
2.15407
2.12771
1.95598
1.6298
1.15127
0.559135
0.293741
0.891646
1.4172
1.65541
1.47115
0.913482
0.346167
0.0725957
0.00863527
0.000643516
6.52846e-06
3.07529e-07
6.75428e-09
1.14636e-07
1.00015e-06
1.17025e-06
1.09914e-06
1.11042e-06
1.19999e-06
1.3058e-06
1.39413e-06
1.45204e-06
1.47564e-06
1.45138e-06
1.40502e-06
1.39018e-06
1.44436e-06
1.55594e-06
1.70247e-06
1.83886e-06
1.92208e-06
1.95569e-06
1.96044e-06
1.94376e-06
1.90512e-06
1.854e-06
1.80276e-06
1.75125e-06
1.69156e-06
1.61895e-06
1.53615e-06
1.44592e-06
1.3517e-06
1.25273e-06
1.15479e-06
1.05155e-06
9.50358e-07
8.61491e-07
7.78607e-07
7.14524e-07
6.24276e-07
5.61134e-07
4.61297e-07
4.31152e-07
3.14291e-07
3.40237e-07
2.00551e-07
3.1427e-07
3.19839e-07
3.94436e-07
0.213863
0.270706
0.268208
0.219449
0.135438
0.0696308
0.219332
0.462297
0.759339
1.08559
1.40746
1.68759
1.89115
1.99083
1.96923
1.81882
1.54046
1.14233
0.645335
0.143526
0.538895
1.0549
1.40555
1.45963
1.14045
0.594557
0.17965
0.0294729
0.00290736
0.000225758
7.45071e-07
8.33642e-08
3.41362e-08
4.52968e-07
9.25645e-07
1.11707e-06
1.28208e-06
1.45308e-06
1.61684e-06
1.76737e-06
1.91348e-06
2.04171e-06
2.12588e-06
2.13673e-06
2.03984e-06
1.84417e-06
1.70764e-06
1.67661e-06
1.71864e-06
1.82726e-06
1.92624e-06
1.98888e-06
2.01697e-06
2.00998e-06
1.96197e-06
1.88653e-06
1.80651e-06
1.73244e-06
1.65696e-06
1.5723e-06
1.47794e-06
1.37883e-06
1.27543e-06
1.1737e-06
1.06665e-06
9.63004e-07
8.71966e-07
7.86746e-07
7.20786e-07
6.29522e-07
5.62741e-07
4.62166e-07
4.27878e-07
3.13876e-07
3.33719e-07
2.02523e-07
3.04904e-07
3.28874e-07
3.82366e-07
0.299914
0.320827
0.284194
0.216078
0.120651
0.0565693
0.206836
0.423362
0.683162
0.971423
1.26453
1.53203
1.7413
1.86281
1.8743
1.76353
1.52937
1.18105
0.73816
0.235797
0.307099
0.802462
1.19306
1.37887
1.2623
0.840897
0.351873
0.0804361
0.00976161
0.000789677
7.75508e-05
6.59697e-06
1.26347e-08
3.35912e-07
1.23062e-06
1.88246e-06
2.15668e-06
2.25918e-06
2.35116e-06
2.49382e-06
2.67788e-06
2.85124e-06
2.9732e-06
3.16481e-06
3.33608e-06
3.32534e-06
3.01403e-06
2.56706e-06
2.25421e-06
2.04936e-06
1.97553e-06
1.96996e-06
2.01585e-06
2.06342e-06
2.08046e-06
2.04318e-06
1.95383e-06
1.84236e-06
1.73516e-06
1.63522e-06
1.5332e-06
1.42659e-06
1.31508e-06
1.20595e-06
1.092e-06
9.8401e-07
8.89408e-07
8.00233e-07
7.30886e-07
6.38098e-07
5.67109e-07
4.65541e-07
4.26312e-07
3.15487e-07
3.28054e-07
2.05926e-07
2.95004e-07
3.37092e-07
3.69934e-07
0.301055
0.298135
0.251949
0.185807
0.0947957
0.0370986
0.181573
0.364799
0.579519
0.818404
1.0685
1.31048
1.51959
1.66874
1.73222
1.68981
1.53023
1.25369
0.873273
0.416305
0.085767
0.568084
0.985442
1.25546
1.29114
1.0321
0.566875
0.180073
0.0284102
0.00224134
0.000208779
4.18849e-05
7.77543e-06
1.53248e-06
1.38198e-06
1.93555e-06
2.27657e-06
2.37988e-06
2.29143e-06
2.03456e-06
1.81148e-06
1.80015e-06
2.1978e-06
2.63439e-06
3.02472e-06
3.58403e-06
4.15408e-06
4.31028e-06
3.83172e-06
3.24876e-06
2.7451e-06
2.43682e-06
2.214e-06
2.07802e-06
2.0448e-06
2.05334e-06
2.03398e-06
1.95753e-06
1.83546e-06
1.70192e-06
1.5758e-06
1.45695e-06
1.33738e-06
1.2213e-06
1.1005e-06
9.89315e-07
8.93139e-07
8.00238e-07
7.28069e-07
6.3473e-07
5.61591e-07
4.59849e-07
4.17931e-07
3.1069e-07
3.18211e-07
2.05476e-07
2.82707e-07
3.42003e-07
3.559e-07
0.195984
0.194467
0.16795
0.133506
0.0803953
0.00925502
0.10445
0.236277
0.392853
0.570205
0.761872
0.958668
1.14765
1.31175
1.43054
1.48184
1.44516
1.30526
1.057
0.709599
0.289606
0.164139
0.601158
0.956973
1.15311
1.11377
0.817709
0.404582
0.116673
0.0174304
0.00148681
0.000215714
6.12233e-05
1.56639e-05
3.44639e-06
1.50632e-06
1.17738e-06
1.12609e-06
1.04262e-06
3.23167e-07
3.56271e-08
4.37239e-09
5.57104e-09
4.01955e-08
3.1966e-07
1.086e-06
1.645e-06
2.32272e-06
3.54923e-06
4.35091e-06
4.39602e-06
4.01686e-06
3.4037e-06
2.86739e-06
2.42992e-06
2.13914e-06
2.00615e-06
1.95766e-06
1.91135e-06
1.81197e-06
1.6693e-06
1.52134e-06
1.3816e-06
1.25334e-06
1.12257e-06
1.00604e-06
9.06466e-07
8.0791e-07
7.30832e-07
6.36271e-07
5.59546e-07
4.5816e-07
4.11274e-07
3.10333e-07
3.08559e-07
2.08663e-07
2.65668e-07
3.36656e-07
3.20003e-07
0.0427663
0.0439338
0.039278
0.0336583
0.0253038
0.0124763
0.040648
0.0995539
0.177844
0.273335
0.38389
0.506331
0.636244
0.767471
0.891243
0.995102
1.06318
1.07683
1.01766
0.872011
0.63767
0.328618
0.0353637
0.388706
0.695863
0.876088
0.854462
0.618701
0.302855
0.0911131
0.0160913
0.00106354
0.000260467
2.1034e-08
3.27089e-09
1.45852e-09
1.21184e-09
1.25269e-09
1.27548e-09
4.39822e-10
0
0
0
0
7.05492e-10
2.33248e-09
3.30435e-09
4.52551e-09
4.92288e-08
5.09481e-07
1.92705e-06
2.91877e-06
3.86889e-06
4.18542e-06
3.85854e-06
3.28494e-06
2.67045e-06
2.21731e-06
1.97931e-06
1.88808e-06
1.80417e-06
1.66683e-06
1.50193e-06
1.34627e-06
1.19492e-06
1.06691e-06
9.59239e-07
8.5048e-07
7.61738e-07
6.62008e-07
5.76891e-07
4.7432e-07
4.17351e-07
3.24015e-07
3.07059e-07
2.24544e-07
2.55698e-07
3.4785e-07
3.1047e-07
0.00722435
0.0128604
0.0172885
0.0169971
0.0149037
0.016021
0.021478
0.033221
0.0529783
0.0809609
0.117718
0.163681
0.218697
0.282151
0.35258
0.427339
0.50156
0.567261
0.612926
0.624358
0.587077
0.490647
0.333478
0.127265
0.124775
0.350511
0.508957
0.529808
0.400867
0.213855
0.080066
0.0216813
0.00425169
0.00108032
0.000119623
5.04582e-05
7.8868e-06
0
0
3.68558e-07
2.86134e-05
6.86432e-05
0.000102959
0.000118506
9.92414e-05
5.72526e-05
0
0
0
9.49381e-10
4.15889e-09
3.73316e-08
2.83623e-07
1.86795e-06
3.15202e-06
3.86051e-06
3.85154e-06
3.28696e-06
2.57619e-06
2.05881e-06
1.84072e-06
1.73736e-06
1.6043e-06
1.44109e-06
1.26957e-06
1.13029e-06
1.01698e-06
8.9866e-07
7.96653e-07
6.90788e-07
5.97465e-07
4.94158e-07
4.26866e-07
3.40992e-07
3.08309e-07
2.42525e-07
2.45875e-07
3.58004e-07
2.99207e-07
0.00152806
0.00372783
0.00559141
0.00681664
0.00751117
0.00812552
0.00916459
0.0111376
0.0144146
0.0192632
0.0260313
0.0352176
0.0475601
0.063818
0.0848065
0.111032
0.142242
0.176876
0.211658
0.241099
0.257674
0.252876
0.219024
0.153357
0.0731718
0.102848
0.195244
0.237417
0.206329
0.134075
0.0687766
0.0302668
0.0127787
0.00543204
0.00222155
0.000589968
0.00031096
0.000154314
9.72657e-05
0.000992859
0.00203579
0.00291975
0.00340017
0.00305498
0.00200669
0.00127174
0.000674088
0.000331003
3.64104e-05
0
0
6.79936e-10
6.34297e-09
1.04772e-07
1.03722e-06
2.48875e-06
3.50921e-06
3.60451e-06
2.92118e-06
2.16238e-06
1.78728e-06
1.63344e-06
1.49902e-06
1.32949e-06
1.18486e-06
1.06898e-06
9.42456e-07
8.26628e-07
7.14289e-07
6.13985e-07
5.1141e-07
4.34866e-07
3.56849e-07
3.09192e-07
2.60026e-07
2.34672e-07
3.66199e-07
2.85666e-07
1.06612e-07
7.20427e-07
4.11787e-06
5.02597e-06
0.000254721
0.000451555
0.000639763
0.000860439
0.00112753
0.00147662
0.00192992
0.00248255
0.00314853
0.00399293
0.00522597
0.00728587
0.0107265
0.0160955
0.0238128
0.0340237
0.0463438
0.0595329
0.0712318
0.0781453
0.0769005
0.0667327
0.0573715
0.0668158
0.0828283
0.0831189
0.0661385
0.0434498
0.0250343
0.0137333
0.00801991
0.00550918
0.00429434
0.00346552
0.00301312
0.00319783
0.00405686
0.00563638
0.00822062
0.0118714
0.016458
0.0209575
0.021702
0.0134383
0.00182005
0.00127456
0.000162367
0
0
0
4.09518e-09
8.35206e-08
8.02461e-07
2.30122e-06
3.36993e-06
3.08266e-06
2.24159e-06
1.72575e-06
1.51683e-06
1.36074e-06
1.22719e-06
1.11488e-06
9.81831e-07
8.52018e-07
7.32182e-07
6.25578e-07
5.24866e-07
4.39984e-07
3.69984e-07
3.08024e-07
2.75344e-07
2.21122e-07
3.71587e-07
2.70155e-07
1.29081e-07
4.06556e-10
2.68312e-10
4.33465e-10
8.59549e-09
2.89556e-08
7.28341e-08
1.6916e-07
3.72757e-07
1.53599e-06
1.64546e-06
2.79845e-05
4.58336e-05
8.53278e-05
0.00018322
0.00033936
0.000525888
0.000687261
0.000743378
0.000694637
0.00118818
0.00293243
0.00601203
0.0104492
0.0159279
0.0215916
0.0262973
0.0292977
0.0314314
0.0338063
0.0346421
0.0314403
0.0248788
0.0178578
0.0127697
0.00987022
0.00738986
0.00445651
0.00229173
0.002394
0.00298032
0.0038164
0.00692924
0.0128991
0.0198002
0.0300019
0.0517992
0.0768544
0.0781103
0.0446442
0.00857415
0.00207158
6.32898e-05
0
0
0
3.53797e-09
7.54726e-08
7.25336e-07
2.35869e-06
2.9325e-06
2.2043e-06
1.63593e-06
1.37957e-06
1.25311e-06
1.15429e-06
1.01987e-06
8.77005e-07
7.48203e-07
6.34799e-07
5.36103e-07
4.43189e-07
3.80531e-07
3.0444e-07
2.87332e-07
2.04543e-07
3.72788e-07
2.5264e-07
2.96275e-05
2.12619e-05
1.2116e-05
7.04e-06
3.82064e-06
1.78374e-06
4.97894e-07
7.47398e-09
5.72194e-10
2.01804e-11
4.53924e-11
1.9832e-09
1.7337e-08
9.73076e-08
7.6695e-07
1.09637e-06
4.31221e-05
0.000113745
0.000228332
0.000397893
0.000622583
0.00089621
0.00122597
0.0016814
0.00243487
0.00368503
0.00550336
0.00774943
0.0100853
0.0121916
0.0140117
0.015384
0.0155925
0.0146775
0.014264
0.0169786
0.0227096
0.0270818
0.0265221
0.0214232
0.0152515
0.0118943
0.0141001
0.0223853
0.0346615
0.0434519
0.0469005
0.0902369
0.171824
0.211975
0.154663
0.0527567
0.00275207
0.000811396
0
0
0
0
1.43638e-08
9.98886e-08
1.56893e-06
2.50999e-06
2.05514e-06
1.50718e-06
1.28335e-06
1.18629e-06
1.0613e-06
9.1156e-07
7.73627e-07
6.52218e-07
5.54388e-07
4.52935e-07
3.95284e-07
3.04185e-07
2.99274e-07
1.87585e-07
3.68878e-07
2.33598e-07
2.17046e-05
1.71261e-05
1.11674e-05
7.65383e-06
5.0626e-06
3.06262e-06
1.76647e-06
1.50678e-06
1.79156e-06
1.99757e-06
1.86412e-06
1.35937e-06
6.6169e-07
3.44048e-08
3.8811e-09
4.9095e-10
8.49446e-09
4.91797e-08
3.91588e-07
5.03689e-07
2.75753e-05
8.21326e-05
0.000169187
0.000299603
0.00048549
0.000744226
0.00110818
0.0016154
0.00228985
0.00312738
0.00409671
0.00510439
0.00604876
0.0065787
0.00706864
0.00960318
0.0188729
0.0359125
0.0540907
0.0650382
0.0655295
0.059471
0.0544094
0.0567079
0.0686365
0.0857676
0.0915054
0.072419
0.14559
0.318932
0.415741
0.320606
0.129565
0.0218039
0.00338423
0
0
0
0
4.41377e-10
7.63754e-08
9.49844e-07
2.04626e-06
1.74138e-06
1.33028e-06
1.1675e-06
1.04539e-06
9.00219e-07
7.61312e-07
6.36463e-07
5.4338e-07
4.36966e-07
3.88251e-07
2.85032e-07
2.96619e-07
1.57023e-07
3.55089e-07
2.13308e-07
1.0814e-05
7.87717e-06
3.39633e-06
1.42692e-06
1.43124e-06
2.80947e-06
4.31092e-06
5.64238e-06
6.69835e-06
7.46965e-06
7.96783e-06
8.12146e-06
7.93857e-06
7.34489e-06
6.33616e-06
4.97428e-06
3.32787e-06
1.78933e-06
5.55385e-07
1.21432e-08
1.06106e-08
3.33435e-08
9.24567e-07
5.50272e-06
3.41456e-05
7.95342e-05
0.000150805
0.000263626
0.000437241
0.000688152
0.00102903
0.00144352
0.00187733
0.00224048
0.00227757
0.00286194
0.00772359
0.0265992
0.0623775
0.103041
0.131587
0.13953
0.13148
0.119966
0.116532
0.124873
0.136171
0.126989
0.123609
0.315241
0.592975
0.695309
0.488942
0.17732
0.022955
0.00518823
0.000744001
0.000117469
0
0
0
4.49556e-08
5.37425e-07
1.80234e-06
1.73049e-06
1.40341e-06
1.18984e-06
1.02531e-06
8.796e-07
7.43856e-07
6.40973e-07
5.19927e-07
4.59243e-07
3.35986e-07
3.38238e-07
1.67478e-07
3.53517e-07
1.98753e-07
1.2686e-06
2.56208e-06
4.60088e-06
5.78988e-06
6.71751e-06
7.48092e-06
8.12123e-06
8.63467e-06
8.9879e-06
9.17461e-06
9.2229e-06
9.17071e-06
9.05828e-06
8.89005e-06
8.64397e-06
8.28525e-06
7.78326e-06
7.0894e-06
6.21822e-06
5.19554e-06
4.09221e-06
2.79605e-06
1.55496e-06
6.53164e-07
2.62866e-07
3.85761e-07
1.89244e-06
8.5984e-06
2.2799e-05
5.09138e-05
0.000101408
0.000175142
0.000268146
0.000336536
0.000320379
0.0003166
0.000440017
0.00313899
0.0218947
0.0716063
0.146511
0.222336
0.275732
0.298969
0.299822
0.291155
0.277973
0.246844
0.164708
0.161167
0.530349
0.953642
1.09678
0.807191
0.352353
0.0815041
0.0128149
0.0015935
0.000283675
0
0
0
1.83329e-08
2.21684e-07
9.64692e-07
1.16512e-06
1.02648e-06
8.67296e-07
7.39589e-07
6.23383e-07
5.46241e-07
4.37466e-07
4.00964e-07
2.73358e-07
3.05279e-07
1.02553e-07
3.28536e-07
1.97072e-07
)
;

boundaryField
{
    inlet
    {
        type            calculated;
        value           nonuniform List<scalar> 
27
(
2.81927e-06
2.78153e-06
2.74681e-06
2.7147e-06
2.68373e-06
2.65389e-06
2.62549e-06
2.59807e-06
2.57097e-06
2.54311e-06
2.51381e-06
2.48222e-06
2.44759e-06
2.40924e-06
2.36676e-06
2.31987e-06
2.26901e-06
2.19992e-06
2.14062e-06
2.07776e-06
2.01127e-06
1.94236e-06
1.87225e-06
1.80183e-06
1.73374e-06
1.66479e-06
1.60204e-06
)
;
    }
    outlet
    {
        type            calculated;
        value           nonuniform List<scalar> 
78
(
1.12976e-06
2.28217e-06
4.33953e-06
5.53444e-06
6.46787e-06
7.23553e-06
7.87829e-06
8.39192e-06
8.74223e-06
8.92222e-06
8.95992e-06
8.89346e-06
8.7637e-06
8.57613e-06
8.31076e-06
7.93525e-06
7.4224e-06
6.72943e-06
5.8743e-06
4.88457e-06
3.82872e-06
2.60255e-06
1.43867e-06
5.9969e-07
2.38724e-07
3.44598e-07
1.64938e-06
7.23319e-06
1.83476e-05
3.86795e-05
7.06397e-05
0.000118017
0.000199512
0.000250744
0.000239364
0.000244974
0.000321027
0.00317558
0.0228737
0.0742263
0.151323
0.229552
0.285108
0.30984
0.31132
0.302545
0.288831
0.256357
0.166312
0.122589
0.500352
0.929933
1.0807
0.797403
0.345278
0.0755497
0.00958156
0.00117347
0.00021033
0
0
0
1.41928e-08
1.71704e-07
7.44337e-07
8.97225e-07
7.95478e-07
6.71846e-07
5.72915e-07
4.79023e-07
4.30217e-07
3.34427e-07
3.26049e-07
1.98688e-07
2.62024e-07
3.07343e-08
3.10372e-07
2.07733e-07
)
;
    }
    walls
    {
        type            calculated;
        value           nonuniform List<scalar> 0();
    }
    frontAndBack
    {
        type            empty;
    }
    procBoundary7to3
    {
        type            processor;
        value           nonuniform List<scalar> 
16
(
0.0157645
0.0121272
0.104549
0.19805
0.226804
0.147483
0.0284908
0.00305358
3.82238e-06
3.82238e-06
1.53149e-10
2.20749e-06
4.12442e-05
2.89423e-05
1.61949e-05
2.78955e-06
)
;
    }
    procBoundary7to6
    {
        type            processor;
        value           nonuniform List<scalar> 
91
(
4.94769e-07
3.11893e-07
3.11893e-07
3.58289e-07
3.58289e-07
1.09728e-07
1.09728e-07
2.76958e-07
3.37942e-07
3.37942e-07
4.45562e-07
4.24853e-07
4.24853e-07
6.89211e-07
6.02366e-07
5.48533e-07
5.48533e-07
9.22672e-07
8.39376e-07
7.58543e-07
7.58543e-07
1.3216e-06
1.22059e-06
1.12133e-06
1.02009e-06
1.02009e-06
1.74897e-06
1.67083e-06
1.58739e-06
1.49984e-06
1.40793e-06
1.40793e-06
2.03966e-06
2.01226e-06
1.98082e-06
1.94286e-06
1.89705e-06
1.84422e-06
1.78574e-06
1.78574e-06
2.50503e-06
2.37407e-06
2.27735e-06
2.20473e-06
2.15105e-06
2.10994e-06
2.07428e-06
2.03732e-06
1.99819e-06
1.96426e-06
1.94524e-06
1.93805e-06
1.93805e-06
0.00684092
0.0142582
0.0168214
0.0227593
0.0575465
0.160778
0.368873
0.698001
1.13382
1.63521
2.14427
2.59503
2.91673
3.03534
2.87814
2.39393
1.59444
0.647119
0.792477
1.7201
2.35865
2.46203
1.9317
1.0161
0.310267
0.0506476
0.00455221
0.000124466
1.75802e-05
0
2.24713e-08
4.31338e-07
2.06271e-06
2.61027e-06
2.49563e-06
2.28527e-06
2.10809e-06
2.10809e-06
)
;
    }
}


// ************************************************************************* //
