/*--------------------------------*- C++ -*----------------------------------*\
| =========                 |                                                 |
| \\      /  F ield         | OpenFOAM: The Open Source CFD Toolbox           |
|  \\    /   O peration     | Version:  2306                                  |
|   \\  /    A nd           | Website:  www.openfoam.com                      |
|    \\/     M anipulation  |                                                 |
\*---------------------------------------------------------------------------*/
FoamFile
{
    version     2.0;
    format      ascii;
    arch        "LSB;label=32;scalar=64";
    class       volVectorField;
    location    "75";
    object      momentError;
}
// * * * * * * * * * * * * * * * * * * * * * * * * * * * * * * * * * * * * * //

dimensions      [0 1 -2 0 0 0 0];

internalField   nonuniform List<vector> 
1340
(
(-0.00769557 0.0731591 -2.95859e-16)
(-0.0161698 0.0435505 -9.36738e-17)
(-0.00584889 0.071004 -3.05808e-16)
(-0.0179279 0.055393 1.81222e-15)
(-0.0162722 0.0435529 -7.72584e-17)
(-0.00276487 0.0683501 4.83791e-16)
(-0.0229605 0.0545402 -5.22342e-16)
(-0.0155997 0.0537154 1.88915e-15)
(-0.015402 0.0431645 2.55167e-16)
(-0.000131063 0.0658208 -7.54459e-16)
(-0.0277238 0.0557797 -1.23123e-15)
(-0.0229516 0.053463 -9.59227e-16)
(-0.0202833 0.0533844 -7.04537e-16)
(-0.0131634 0.0519097 -6.55687e-16)
(-0.0138502 0.0424473 -2.49498e-16)
(0.00177165 0.0635014 -4.2829e-16)
(-0.0327321 0.0548081 -4.03399e-16)
(-0.0282895 0.0543087 3.53528e-17)
(-0.0245768 0.0550555 -2.95211e-15)
(-0.0198394 0.0523084 -1.47647e-15)
(-0.0172242 0.0520935 7.74784e-16)
(-0.010542 0.0500029 -7.58366e-16)
(-0.0117712 0.0414192 -6.84654e-16)
(0.00349089 0.0612295 1.05885e-15)
(-0.0454458 0.0536569 -2.23601e-15)
(-0.0399422 0.054755 -2.87694e-15)
(-0.0348273 0.054932 -1.78419e-15)
(-0.0300769 0.0553 -1.77681e-17)
(-0.0253059 0.0541746 -1.01858e-16)
(-0.0212923 0.0544313 1.18785e-15)
(-0.0164848 0.0511518 4.82893e-16)
(-0.0138581 0.050717 -1.34579e-16)
(-0.00753957 0.0479994 3.71752e-16)
(-0.00926919 0.0401211 2.6137e-17)
(0.00545874 0.0588822 -2.54887e-16)
(-0.0613184 0.0489468 -5.82176e-16)
(-0.0560683 0.0534795 8.63425e-16)
(-0.0500057 0.0548637 2.50374e-16)
(-0.0438225 0.0559598 -2.74979e-16)
(-0.0380393 0.0566267 -1.0242e-15)
(-0.0326142 0.0562956 -1.77894e-15)
(-0.0275156 0.0560845 -3.56185e-16)
(-0.0224292 0.0543087 9.42219e-17)
(-0.0180796 0.0540043 1.22119e-15)
(-0.013126 0.0501418 2.59794e-16)
(-0.0103381 0.0493903 -6.30179e-16)
(-0.00426343 0.0459662 6.40402e-16)
(-0.00642583 0.0386059 4.14988e-16)
(0.00770573 0.0564225 3.56884e-16)
(-0.0876547 0.0321051 -7.71702e-16)
(-0.0810775 0.0384439 2.04595e-16)
(-0.0743176 0.0439412 9.23615e-17)
(-0.0673362 0.048726 -7.50286e-17)
(-0.0606244 0.0523639 -3.21337e-16)
(-0.0549822 0.0567036 1.50968e-15)
(-0.0486635 0.0577734 1.83805e-16)
(-0.042261 0.0584917 6.13874e-16)
(-0.0362413 0.058767 -1.07776e-16)
(-0.0305633 0.0579631 7.92226e-16)
(-0.0252016 0.057197 3.32926e-16)
(-0.0198367 0.0547913 -1.09051e-16)
(-0.015155 0.0538935 -8.37803e-16)
(-0.0100029 0.0493997 -2.12602e-16)
(-0.00699067 0.0482622 3.26515e-16)
(-0.00101862 0.0440462 -3.89312e-16)
(-0.00343195 0.0369721 1.25065e-16)
(0.0100289 0.0538725 9.51143e-17)
(-0.119707 -0.000453157 -7.48874e-16)
(-0.114964 0.0080572 -1.56003e-16)
(-0.10939 0.0161275 1.09341e-16)
(-0.10329 0.0237776 1.06964e-15)
(-0.0965904 0.0309453 -9.701e-17)
(-0.0895165 0.0375986 -6.08743e-16)
(-0.0821664 0.0435308 1.1613e-15)
(-0.074702 0.0486381 3.83277e-16)
(-0.0670799 0.0529305 7.32576e-17)
(-0.0598477 0.0560733 2.14975e-16)
(-0.0537569 0.0601866 -3.45862e-16)
(-0.0471913 0.0608902 -4.92763e-17)
(-0.0405938 0.0612242 -1.26919e-15)
(-0.0344061 0.0611105 -1.7719e-16)
(-0.0285887 0.0598728 1.61776e-16)
(-0.0230689 0.0586052 -3.05345e-16)
(-0.0175397 0.0556191 4.41829e-17)
(-0.0126229 0.0541357 -2.7292e-16)
(-0.00731813 0.0490244 -8.59024e-17)
(-0.00406078 0.047465 2.99848e-17)
(0.00188515 0.0423968 -5.09734e-16)
(-0.00056211 0.0353492 -1.29738e-16)
(0.0122347 0.0513007 -5.60792e-16)
(-0.143762 -0.0610645 9.22727e-17)
(-0.143427 -0.0530357 -1.56224e-16)
(-0.142014 -0.0440141 3.97958e-17)
(-0.140021 -0.0344604 -1.18337e-16)
(-0.137503 -0.0246077 -4.95156e-16)
(-0.134348 -0.0148001 1.62035e-16)
(-0.130398 -0.00496844 1.16323e-16)
(-0.125571 0.00453414 -8.18808e-16)
(-0.120022 0.0135543 -1.98425e-16)
(-0.113679 0.0220875 -2.40161e-16)
(-0.106737 0.0299076 -3.23521e-16)
(-0.0991814 0.0371148 -2.9202e-17)
(-0.0912613 0.0435326 8.47547e-16)
(-0.0830544 0.0491185 4.58795e-16)
(-0.0748107 0.0537165 -1.48884e-16)
(-0.066508 0.0574935 1.92659e-16)
(-0.0587003 0.0600794 1.86223e-17)
(-0.0521325 0.0638862 -6.83715e-17)
(-0.0453099 0.0641632 -2.65181e-17)
(-0.0385569 0.06406 7.19342e-16)
(-0.0322799 0.0635442 7.79348e-16)
(-0.0264273 0.0619024 2.68521e-17)
(-0.0209029 0.0601914 3.12901e-16)
(-0.0153804 0.0567023 -5.04836e-17)
(-0.0103896 0.0546898 6.03839e-16)
(-0.00506493 0.0490142 3.52544e-16)
(-0.00165284 0.0470501 7.05747e-17)
(0.00425335 0.0411252 1.09049e-16)
(0.00194406 0.0338645 8.16008e-16)
(0.0141781 0.0487418 1.81705e-16)
(-0.106835 -0.124328 -3.6769e-17)
(-0.111928 -0.126404 -1.10223e-17)
(-0.117042 -0.12584 1.44074e-18)
(-0.122813 -0.123405 -1.84159e-17)
(-0.129972 -0.120284 -4.32111e-18)
(-0.138884 -0.11722 5.82403e-17)
(-0.14839 -0.113998 1.04896e-17)
(-0.155602 -0.109554 2.85773e-17)
(-0.157954 -0.102494 3.66895e-18)
(-0.156257 -0.0928095 -1.33068e-16)
(-0.154101 -0.0820492 -5.66327e-17)
(-0.154108 -0.0717656 -1.78216e-16)
(-0.15556 -0.0622614 -1.44422e-16)
(-0.156401 -0.0529729 -2.60508e-16)
(-0.155329 -0.0430186 1.15374e-16)
(-0.152723 -0.032304 -2.67298e-16)
(-0.148984 -0.0213806 -2.90447e-17)
(-0.1446 -0.0104795 3.60914e-16)
(-0.139261 0.00016972 -1.06343e-16)
(-0.133295 0.0103582 4.64639e-16)
(-0.126346 0.0199282 -5.93826e-17)
(-0.118835 0.0287969 -1.55582e-17)
(-0.110604 0.0368011 1.12258e-16)
(-0.101933 0.0439445 5.86871e-17)
(-0.0929038 0.0501278 -3.2187e-16)
(-0.0837133 0.0552616 -5.59958e-16)
(-0.0745768 0.0593358 1.10854e-16)
(-0.0654769 0.0624772 -3.47695e-16)
(-0.0570581 0.0644007 -1.06531e-16)
(-0.0499461 0.0678308 1.10087e-17)
(-0.0428453 0.067583 2.02567e-17)
(-0.0359487 0.0669579 5.79176e-16)
(-0.0296345 0.0659866 -2.26119e-16)
(-0.0238395 0.0639306 3.32474e-16)
(-0.0184448 0.0618101 -4.25912e-16)
(-0.0131069 0.057896 1.31448e-16)
(-0.00825019 0.0554304 -4.00114e-16)
(-0.00310647 0.0492853 5.6574e-16)
(0.000291472 0.0469839 5.49601e-16)
(0.00604619 0.0402732 -1.38698e-17)
(0.00394321 0.0326316 -1.36119e-16)
(0.0157981 0.046304 3.40951e-17)
(-0.928643 0.191176 -1.95896e-17)
(-0.297775 0.084325 1.79679e-17)
(0.338104 -0.0204813 -4.0029e-17)
(0.607115 -0.120507 -7.33514e-18)
(0.628678 -0.199536 3.43024e-17)
(0.437952 -0.258284 -1.74772e-17)
(0.0811181 -0.305963 -5.33374e-17)
(-0.367122 -0.345949 1.03883e-17)
(-0.823436 -0.376603 2.04922e-17)
(-1.21459 -0.396521 -4.98313e-17)
(-1.48592 -0.405521 -4.42866e-17)
(-1.60259 -0.402804 -1.00912e-17)
(-1.54848 -0.385526 -2.27325e-17)
(-1.32427 -0.350477 6.16089e-17)
(-0.946877 -0.296091 7.39633e-17)
(-0.449003 -0.224197 -9.81679e-17)
(0.11984 -0.140412 -1.84474e-16)
(0.692838 -0.0535977 -3.35232e-17)
(1.18833 0.0259472 3.91329e-17)
(1.52513 0.0864966 -2.81948e-17)
(1.66373 0.118162 3.16294e-17)
(1.61894 0.118515 -7.0517e-17)
(1.42522 0.0904271 1.55832e-16)
(1.08769 0.0360361 -1.2548e-16)
(0.612394 -0.0371245 -1.99167e-16)
(0.149454 -0.106554 -2.47789e-17)
(-0.101612 -0.15059 -2.09872e-18)
(-0.15053 -0.168769 -9.76924e-17)
(-0.126873 -0.173304 -8.45372e-18)
(-0.103468 -0.172531 -3.98209e-17)
(-0.0913258 -0.169802 2.10335e-17)
(-0.0867177 -0.16704 1.78229e-16)
(-0.0871105 -0.165718 1.68394e-17)
(-0.0914748 -0.166092 8.72483e-17)
(-0.0984263 -0.167614 -3.94745e-17)
(-0.107049 -0.169464 2.42705e-17)
(-0.116022 -0.170198 3.93563e-17)
(-0.124582 -0.168762 1.39167e-17)
(-0.131619 -0.164759 -6.86173e-18)
(-0.137001 -0.157474 -6.63465e-18)
(-0.140761 -0.147831 -6.21478e-18)
(-0.143989 -0.137512 6.74492e-18)
(-0.148319 -0.128431 3.13243e-17)
(-0.156187 -0.121592 1.32659e-17)
(-0.167837 -0.116912 3.89642e-17)
(-0.179851 -0.112357 -5.88652e-17)
(-0.186366 -0.105022 -2.20787e-16)
(-0.185404 -0.0934329 1.81858e-16)
(-0.180364 -0.0790618 -2.07107e-17)
(-0.176201 -0.0646229 8.37348e-17)
(-0.174055 -0.0516486 8.25241e-17)
(-0.172241 -0.0397667 3.53895e-17)
(-0.168993 -0.0280671 9.4564e-17)
(-0.164045 -0.0161818 2.79102e-17)
(-0.157752 -0.00439604 -1.25888e-16)
(-0.150589 0.00705344 -6.80038e-17)
(-0.142634 0.0178155 1.7582e-16)
(-0.133961 0.0277983 1.45593e-17)
(-0.124677 0.0368211 1.49538e-16)
(-0.11488 0.0448707 -1.5783e-17)
(-0.104715 0.0518034 -1.42882e-16)
(-0.0943792 0.0575967 -4.15607e-16)
(-0.0840308 0.0621811 -3.84508e-16)
(-0.073879 0.0655822 2.82227e-16)
(-0.0639251 0.0679968 -1.98718e-16)
(-0.054829 0.0691309 1.03188e-16)
(-0.04711 0.0720801 -2.00933e-16)
(-0.03971 0.0711947 -1.36764e-16)
(-0.0326674 0.0699181 -3.65979e-16)
(-0.0263393 0.0683887 -3.04512e-16)
(-0.02065 0.0658718 -5.47932e-16)
(-0.0154844 0.0633422 2.501e-16)
(-0.0104914 0.0590527 -1.51589e-16)
(-0.00596812 0.0562072 4.38466e-16)
(-0.00122161 0.049699 1.196e-16)
(0.00193712 0.0471638 -5.11349e-17)
(0.00734909 0.0397952 6.55141e-17)
(0.0054167 0.0317137 -2.07554e-16)
(0.0170704 0.0440574 -5.14254e-17)
(0.625755 -0.338395 1.66797e-17)
(1.40786 -0.445609 -1.98154e-17)
(1.86773 -0.504314 -4.44769e-17)
(1.86744 -0.581898 1.25858e-18)
(1.62871 -0.644871 2.08082e-17)
(1.21443 -0.687885 -5.19698e-18)
(0.678748 -0.718846 -2.30314e-18)
(0.0862828 -0.743201 -9.08155e-18)
(-0.496257 -0.760271 -6.62133e-18)
(-1.01099 -0.767036 -1.64178e-17)
(-1.41521 -0.763053 -3.22428e-17)
(-1.68119 -0.750159 1.99076e-17)
(-1.7946 -0.729356 -8.33625e-18)
(-1.75144 -0.699143 -1.21686e-17)
(-1.55682 -0.656791 1.02545e-17)
(-1.22371 -0.600046 -4.66119e-17)
(-0.774334 -0.52891 2.81109e-17)
(-0.242939 -0.446233 4.22966e-17)
(0.31916 -0.357438 -4.81682e-17)
(0.838517 -0.269993 -4.40657e-17)
(1.23875 -0.193623 -4.97997e-17)
(1.47379 -0.136775 -2.3272e-18)
(1.52877 -0.103815 5.74966e-17)
(1.39815 -0.097531 -9.71402e-17)
(1.06751 -0.120648 2.32115e-17)
(0.588409 -0.165585 -1.79471e-17)
(0.164748 -0.210345 1.90448e-18)
(-0.0489386 -0.237979 -5.38439e-17)
(-0.105008 -0.24913 2.24709e-17)
(-0.110313 -0.251305 -2.31933e-17)
(-0.111016 -0.248993 6.4055e-17)
(-0.114072 -0.244643 3.28207e-17)
(-0.119169 -0.24048 -2.2077e-17)
(-0.126797 -0.237663 -1.96856e-17)
(-0.13673 -0.236054 -4.30598e-17)
(-0.148372 -0.234532 2.22345e-17)
(-0.160513 -0.23159 3.02682e-17)
(-0.172323 -0.22588 7.89946e-18)
(-0.18244 -0.21671 -2.54722e-17)
(-0.190144 -0.203851 1.26933e-18)
(-0.194509 -0.187467 -5.03089e-18)
(-0.194998 -0.168902 -3.91399e-18)
(-0.191557 -0.150045 -6.12433e-18)
(-0.186691 -0.132586 -3.95851e-18)
(-0.185306 -0.118255 -1.57773e-17)
(-0.192045 -0.108337 -7.05584e-18)
(-0.204984 -0.101634 7.53443e-17)
(-0.215718 -0.094301 1.18349e-16)
(-0.217037 -0.0828514 7.51604e-17)
(-0.21024 -0.0672887 4.06082e-17)
(-0.201274 -0.0504459 1.36361e-18)
(-0.19408 -0.0348421 2.87211e-17)
(-0.188037 -0.0209345 -2.35986e-18)
(-0.181409 -0.00803989 1.01158e-17)
(-0.173208 0.00437151 5.19611e-17)
(-0.163752 0.0163008 1.94753e-16)
(-0.153384 0.0274732 -3.36182e-16)
(-0.142431 0.0376332 5.76373e-17)
(-0.131008 0.0466646 -1.14295e-16)
(-0.119268 0.0544886 3.43614e-16)
(-0.107392 0.0610133 4.25959e-18)
(-0.0955436 0.0662042 2.97157e-16)
(-0.0839099 0.0700487 4.50951e-16)
(-0.0726504 0.0726538 -2.55127e-16)
(-0.0617861 0.0741789 2.56233e-16)
(-0.0520129 0.0743965 -1.43545e-16)
(-0.043643 0.0767493 -2.23942e-16)
(-0.0359285 0.0750864 -1.08123e-16)
(-0.0287269 0.0730231 7.09864e-17)
(-0.0223811 0.0708222 5.38767e-16)
(-0.0168159 0.0677273 5.66545e-16)
(-0.0119308 0.0647079 -2.89198e-17)
(-0.00738087 0.0600514 -1.7631e-16)
(-0.00334441 0.0568705 -2.80443e-17)
(0.000807982 0.0500891 -7.15914e-16)
(0.00350284 0.0474258 -3.58044e-18)
(0.00834477 0.0395895 -2.48615e-16)
(0.0064563 0.0311212 -1.02151e-16)
(0.0180391 0.0420815 7.26616e-17)
(2.29496 -0.999658 -1.14819e-17)
(2.87258 -1.01055 -8.77429e-18)
(2.91618 -0.927582 9.47204e-18)
(2.61124 -0.928158 8.18251e-20)
(2.13057 -0.93097 -1.99344e-17)
(1.53219 -0.926454 1.10815e-17)
(0.874965 -0.922734 6.74689e-18)
(0.213491 -0.928646 -1.75964e-17)
(-0.404627 -0.942602 6.8971e-18)
(-0.940727 -0.953651 -1.12788e-17)
(-1.36835 -0.952886 1.2067e-17)
(-1.67141 -0.938526 -1.10711e-17)
(-1.84325 -0.913804 -3.29378e-17)
(-1.88273 -0.881538 5.95458e-18)
(-1.7939 -0.84256 1.37944e-17)
(-1.58371 -0.795979 2.80131e-20)
(-1.26318 -0.741381 3.00743e-17)
(-0.848296 -0.679773 -5.58405e-17)
(-0.363569 -0.613727 -3.03715e-17)
(0.149127 -0.545691 2.50442e-18)
(0.628906 -0.478414 4.15687e-18)
(1.01732 -0.415318 3.2947e-17)
(1.27047 -0.359688 -1.02808e-16)
(1.35605 -0.315045 1.56304e-16)
(1.24231 -0.288189 2.21261e-17)
(0.912154 -0.286194 1.99271e-17)
(0.466907 -0.303597 2.65369e-17)
(0.120931 -0.322442 5.95028e-17)
(-0.0396768 -0.330448 1.0685e-17)
(-0.0939205 -0.328875 2.41666e-17)
(-0.119354 -0.322473 -2.65106e-17)
(-0.13914 -0.313935 -5.93421e-17)
(-0.155118 -0.305001 3.57849e-18)
(-0.168469 -0.296781 -4.53658e-18)
(-0.181304 -0.289404 4.81259e-17)
(-0.194679 -0.282212 -2.14099e-17)
(-0.208675 -0.274099 -1.0123e-17)
(-0.222863 -0.264277 -3.07858e-17)
(-0.236743 -0.252354 2.06658e-17)
(-0.249613 -0.238357 -3.26948e-18)
(-0.260548 -0.222102 5.39593e-18)
(-0.26787 -0.203631 5.17666e-18)
(-0.269015 -0.183063 2.39199e-18)
(-0.26141 -0.16032 -3.1103e-18)
(-0.245547 -0.135573 -1.2488e-18)
(-0.228192 -0.111375 3.06614e-17)
(-0.220276 -0.091831 1.37173e-17)
(-0.226274 -0.0789356 -4.09431e-17)
(-0.237777 -0.0698193 2.23976e-17)
(-0.242104 -0.0593783 8.10964e-18)
(-0.23522 -0.0449503 4.64148e-17)
(-0.222382 -0.0279999 -1.06434e-16)
(-0.209643 -0.0113191 9.87263e-18)
(-0.198539 0.00358382 1.23226e-17)
(-0.187711 0.0168376 3.82032e-17)
(-0.175952 0.0289148 -5.83107e-17)
(-0.163159 0.0400052 1.26854e-16)
(-0.149714 0.0499681 3.88781e-17)
(-0.135966 0.0586414 -5.69249e-17)
(-0.122175 0.0659176 1.08343e-16)
(-0.108511 0.0716953 3.76396e-17)
(-0.0951748 0.07602 3.62834e-16)
(-0.0822792 0.0789071 -2.0024e-18)
(-0.0700172 0.0805124 -2.21451e-16)
(-0.058358 0.0809716 3.16862e-16)
(-0.0480531 0.0801112 1.49448e-18)
(-0.0390995 0.081774 -1.54523e-16)
(-0.0311537 0.079253 1.06029e-16)
(-0.0238555 0.0762651 -3.27633e-17)
(-0.0175563 0.0732304 2.2133e-16)
(-0.0121731 0.0694503 1.45425e-17)
(-0.00762649 0.0658581 -2.23153e-17)
(-0.00359725 0.0607627 1.68074e-16)
(-0.000169924 0.0572359 6.71529e-19)
(0.00322262 0.0502628 -3.76056e-17)
(0.0052525 0.0475852 -6.67007e-17)
(0.00926788 0.0394745 -1.50765e-16)
(0.00723105 0.0307893 1.39633e-16)
(0.018769 0.0403771 -1.18971e-16)
(3.41319 -1.60078 1.19742e-17)
(3.65713 -1.5375 4.84192e-18)
(3.31416 -1.35789 -1.5471e-17)
(2.81351 -1.32174 -1.74364e-17)
(2.18477 -1.28819 2.3732e-17)
(1.48235 -1.24206 -1.18366e-17)
(0.774515 -1.19189 6.10999e-18)
(0.110111 -1.15757 2.93687e-17)
(-0.479497 -1.14852 -4.76723e-18)
(-0.973264 -1.1545 3.46638e-18)
(-1.35974 -1.15804 -3.79351e-18)
(-1.63437 -1.14761 3.38588e-18)
(-1.79845 -1.12197 2.23163e-17)
(-1.85559 -1.08507 -6.37296e-18)
(-1.81138 -1.04165 -5.33294e-17)
(-1.67133 -0.994484 -2.09623e-17)
(-1.44207 -0.945613 -2.06869e-17)
(-1.13165 -0.896801 -6.95408e-20)
(-0.75203 -0.850203 1.84094e-17)
(-0.323786 -0.806215 -6.89117e-18)
(0.115399 -0.762489 2.25283e-17)
(0.519722 -0.715083 -4.18891e-17)
(0.846873 -0.661438 8.03238e-17)
(1.05808 -0.601133 -5.00487e-17)
(1.1155 -0.53846 -5.51361e-17)
(0.976436 -0.484855 -1.75123e-17)
(0.642273 -0.452064 -9.19143e-18)
(0.262025 -0.437427 -6.89381e-18)
(0.0146854 -0.426901 6.49669e-18)
(-0.0916726 -0.412024 -8.19037e-18)
(-0.140508 -0.393797 -7.98199e-18)
(-0.176491 -0.375027 1.90121e-17)
(-0.205219 -0.35703 1.10859e-17)
(-0.225404 -0.340004 2.26168e-17)
(-0.238784 -0.323383 -4.07498e-17)
(-0.248033 -0.30651 7.15759e-18)
(-0.25546 -0.288943 -8.39801e-18)
(-0.262782 -0.270997 1.23839e-17)
(-0.271248 -0.253451 5.84338e-18)
(-0.281367 -0.237348 2.43963e-18)
(-0.293336 -0.223034 1.09816e-17)
(-0.306933 -0.210158 4.06743e-18)
(-0.32073 -0.197746 6.15401e-19)
(-0.330493 -0.183982 1.50618e-18)
(-0.329118 -0.165617 2.38931e-19)
(-0.310703 -0.140055 -1.31052e-17)
(-0.279388 -0.108969 3.26499e-18)
(-0.251587 -0.0788547 -1.02451e-17)
(-0.242131 -0.0560709 -7.9918e-17)
(-0.248383 -0.0414248 5.62486e-17)
(-0.254707 -0.030118 2.06486e-17)
(-0.250115 -0.0172365 1.25446e-18)
(-0.235954 -0.00170102 1.38194e-17)
(-0.218886 0.0145214 1.68371e-17)
(-0.202779 0.0294861 -2.02081e-16)
(-0.187626 0.0425172 -4.80124e-18)
(-0.172362 0.0537792 4.21657e-17)
(-0.156597 0.0634707 -1.29784e-18)
(-0.140594 0.0716396 9.53608e-17)
(-0.124719 0.0782243 -4.19337e-16)
(-0.10926 0.0831639 1.04119e-16)
(-0.0943998 0.0865317 6.71309e-17)
(-0.0802507 0.0883571 -4.87538e-16)
(-0.0669963 0.0888813 1.9403e-16)
(-0.0545962 0.0882197 -1.86876e-16)
(-0.0438063 0.0862245 5.2021e-17)
(-0.0342346 0.0871876 -1.16247e-16)
(-0.0260578 0.0837729 1.15429e-16)
(-0.0186661 0.0797799 7.85793e-17)
(-0.0124054 0.0758108 -1.25716e-16)
(-0.00718165 0.071212 -1.89443e-16)
(-0.00293789 0.0669227 -1.10775e-17)
(0.000606246 0.0613284 -2.40952e-16)
(0.0034261 0.0574124 -3.71719e-17)
(0.00600858 0.0502361 5.14135e-16)
(0.00725808 0.0475629 -1.34868e-16)
(0.0102838 0.0393835 3.29167e-16)
(0.00791856 0.03066 -3.62183e-16)
(0.0193728 0.0389508 8.46439e-17)
(3.66579 -2.04779 -1.20929e-17)
(3.60853 -1.90182 1.45117e-18)
(3.05602 -1.6572 -6.15881e-18)
(2.50371 -1.61918 -6.9757e-18)
(1.84514 -1.60238 -2.38515e-17)
(1.13886 -1.56841 1.12505e-17)
(0.46394 -1.50223 5.03424e-18)
(-0.132945 -1.42634 -2.72974e-17)
(-0.63228 -1.37139 5.91531e-18)
(-1.02743 -1.34642 -7.51567e-19)
(-1.31944 -1.33852 2.43768e-18)
(-1.51362 -1.32898 -6.02134e-19)
(-1.61871 -1.30706 -1.58458e-17)
(-1.64409 -1.27175 -6.77311e-18)
(-1.59911 -1.22805 4.80872e-18)
(-1.49105 -1.1817 1.24701e-17)
(-1.32556 -1.13763 4.10982e-19)
(-1.10686 -1.09893 1.54691e-17)
(-0.839889 -1.06708 -2.60674e-17)
(-0.533288 -1.04119 5.65331e-18)
(-0.205608 -1.01693 1.03853e-17)
(0.114355 -0.986201 2.31318e-17)
(0.397704 -0.941468 -2.33956e-17)
(0.616377 -0.878358 -7.08473e-17)
(0.74086 -0.797277 2.29309e-17)
(0.732876 -0.706189 1.33794e-17)
(0.549601 -0.622425 1.5547e-18)
(0.233887 -0.561256 -2.22695e-18)
(-0.0425876 -0.520829 -3.39671e-19)
(-0.177944 -0.488316 6.36852e-18)
(-0.227008 -0.456281 -9.00422e-19)
(-0.259003 -0.425167 -8.47419e-18)
(-0.291025 -0.396448 -1.25288e-17)
(-0.317642 -0.36994 -1.77987e-17)
(-0.334878 -0.344478 2.75852e-17)
(-0.34236 -0.318554 7.02119e-19)
(-0.341843 -0.29128 -6.92263e-18)
(-0.33603 -0.263089 5.96543e-19)
(-0.327999 -0.235441 -2.16661e-18)
(-0.320265 -0.21007 -3.70874e-18)
(-0.315249 -0.188438 -3.94162e-18)
(-0.315612 -0.171569 2.61106e-19)
(-0.324217 -0.159872 6.71036e-19)
(-0.342419 -0.153255 2.14516e-18)
(-0.366872 -0.149111 -6.94658e-18)
(-0.386002 -0.141371 -1.52491e-18)
(-0.383122 -0.12325 3.4158e-17)
(-0.351098 -0.0928249 -1.00739e-17)
(-0.305 -0.0562167 5.28068e-18)
(-0.270475 -0.0235732 -4.00014e-17)
(-0.258413 -0.000760936 1.74677e-17)
(-0.257896 0.0140794 -1.33888e-17)
(-0.253095 0.0263717 3.68813e-17)
(-0.238531 0.0393561 1.08633e-17)
(-0.218205 0.0528938 -1.01758e-16)
(-0.197159 0.0655092 5.00771e-17)
(-0.177258 0.0762363 4.08262e-18)
(-0.158281 0.0848726 -8.15556e-17)
(-0.139797 0.091514 8.06305e-17)
(-0.121855 0.0963212 1.66494e-16)
(-0.104692 0.099385 1.2938e-16)
(-0.0885025 0.100833 -5.36764e-17)
(-0.0734154 0.100774 1.34839e-16)
(-0.05956 0.0994723 -1.73621e-16)
(-0.0468631 0.0970305 1.27967e-17)
(-0.0360809 0.0934395 -6.53757e-17)
(-0.0262081 0.0933669 2.37015e-16)
(-0.0181804 0.0887985 -7.49296e-18)
(-0.0110732 0.0835672 -5.62089e-18)
(-0.0052389 0.0784406 -1.9034e-16)
(-0.000528591 0.0728195 7.57331e-17)
(0.00315088 0.0676433 3.90288e-17)
(0.00597781 0.0613898 2.61084e-16)
(0.00803207 0.056971 6.36525e-17)
(0.00962257 0.04954 -5.06785e-16)
(0.00998444 0.0469161 -1.36053e-16)
(0.0117613 0.0387863 -5.95435e-17)
(0.00880206 0.0304764 1.05639e-16)
(0.0199724 0.0376803 1.2006e-16)
(2.96959 -2.00101 -8.1305e-18)
(2.73234 -1.87138 -7.38423e-18)
(2.10909 -1.56884 1.40882e-17)
(1.64689 -1.49936 3.87677e-18)
(1.12437 -1.49929 -8.18508e-18)
(0.565738 -1.53586 -2.87795e-17)
(0.0340347 -1.55122 -1.49934e-17)
(-0.423004 -1.52617 1.93203e-17)
(-0.783878 -1.47834 -1.10227e-17)
(-1.0466 -1.43223 -2.29653e-17)
(-1.21792 -1.39899 5.23522e-18)
(-1.30893 -1.37417 -1.85097e-18)
(-1.33189 -1.34786 9.92144e-18)
(-1.29946 -1.31437 -3.71296e-18)
(-1.2239 -1.27456 -2.39337e-18)
(-1.11581 -1.23327 2.03117e-17)
(-0.983659 -1.19589 4.29163e-17)
(-0.833094 -1.16518 -9.76308e-18)
(-0.667594 -1.14078 1.82969e-18)
(-0.490028 -1.119 1.16185e-17)
(-0.306301 -1.09446 4.87594e-18)
(-0.127946 -1.06062 6.83852e-18)
(0.0312809 -1.01162 9.03181e-18)
(0.15953 -0.943492 5.47388e-17)
(0.244672 -0.856996 2.24128e-17)
(0.271111 -0.756324 -3.17072e-18)
(0.213246 -0.652321 9.73394e-18)
(0.0562243 -0.561553 -3.47455e-20)
(-0.140541 -0.494986 1.46874e-17)
(-0.2713 -0.44905 3.80356e-18)
(-0.311939 -0.412996 -1.99015e-17)
(-0.313269 -0.380901 -1.56738e-17)
(-0.31438 -0.351415 1.18748e-17)
(-0.32191 -0.324302 -4.1411e-18)
(-0.331059 -0.298659 -1.70613e-17)
(-0.337084 -0.273186 3.18392e-18)
(-0.337532 -0.246763 1.57408e-17)
(-0.331456 -0.219257 4.85056e-18)
(-0.319221 -0.191221 -5.29607e-18)
(-0.301779 -0.163622 1.51475e-17)
(-0.280969 -0.13766 1.19908e-17)
(-0.25938 -0.114606 -6.92756e-18)
(-0.241158 -0.0958904 -1.47309e-17)
(-0.231771 -0.0831564 -2.2706e-17)
(-0.237326 -0.0772835 -2.11054e-17)
(-0.260524 -0.0769561 1.19876e-17)
(-0.293495 -0.0774016 1.6403e-17)
(-0.315848 -0.0719734 -3.33011e-17)
(-0.307889 -0.0561589 -2.97098e-18)
(-0.270344 -0.0312982 2.11772e-17)
(-0.225739 -0.00430787 1.99046e-19)
(-0.195871 0.0177014 8.11824e-18)
(-0.183576 0.0324619 7.86555e-18)
(-0.177622 0.0422978 -2.08346e-18)
(-0.16822 0.0504955 4.55091e-17)
(-0.153703 0.0585498 -3.14908e-17)
(-0.136913 0.0662363 4.45921e-17)
(-0.120335 0.0728363 1.029e-16)
(-0.104761 0.0779283 -1.52353e-17)
(-0.0901583 0.0814854 6.19051e-17)
(-0.0764387 0.083616 -1.57148e-16)
(-0.0636338 0.0845147 -4.06686e-17)
(-0.0517986 0.0842749 1.57321e-17)
(-0.0410205 0.0831183 -9.68594e-17)
(-0.031206 0.0810785 4.48036e-17)
(-0.0230183 0.0782004 3.22193e-17)
(-0.0150749 0.0792534 -1.97431e-17)
(-0.00887375 0.0754161 -7.81645e-17)
(-0.00337083 0.0708887 -5.31255e-17)
(0.00105011 0.0664952 5.33317e-17)
(0.00460469 0.0618093 -1.21966e-17)
(0.00737776 0.0575196 -1.83276e-17)
(0.00941137 0.052458 2.50138e-16)
(0.0108477 0.0489856 4.36529e-17)
(0.0117333 0.0431184 1.67952e-16)
(0.0116626 0.0416212 1.94448e-16)
(0.0124944 0.0354529 2.17831e-17)
(0.00936255 0.0290268 1.46037e-16)
(0.0203397 0.0361171 1.8325e-17)
(1.56043 -2.02066 -1.54132e-18)
(1.11558 -1.85612 -3.40145e-18)
(0.528127 -1.51382 -1.50267e-18)
(0.181354 -1.34441 -3.03793e-18)
(-0.153147 -1.25062 1.29793e-17)
(-0.492473 -1.24873 2.79451e-17)
(-0.811185 -1.28358 1.96304e-17)
(-1.07431 -1.30589 -4.53485e-18)
(-1.25866 -1.29686 5.53329e-18)
(-1.35822 -1.26283 2.64119e-17)
(-1.37828 -1.21915 -1.0514e-17)
(-1.32962 -1.17603 3.68209e-18)
(-1.22545 -1.13291 1.10864e-17)
(-1.07952 -1.08799 1.03842e-17)
(-0.906073 -1.04145 1.9532e-18)
(-0.719549 -0.997931 6.05932e-18)
(-0.533947 -0.964046 -6.3377e-18)
(-0.362072 -0.943736 9.14161e-18)
(-0.214318 -0.93618 1.20834e-17)
(-0.0977539 -0.935435 -1.7634e-17)
(-0.0160852 -0.932528 -4.44879e-18)
(0.0282796 -0.919111 -3.44065e-18)
(0.0338624 -0.890213 -1.743e-17)
(0.00262184 -0.844747 -3.89719e-17)
(-0.0586439 -0.785791 -3.10242e-17)
(-0.141184 -0.717407 2.49189e-17)
(-0.242613 -0.645176 4.31998e-18)
(-0.375253 -0.576939 4.85426e-19)
(-0.537858 -0.521174 -3.37473e-17)
(-0.673572 -0.480145 -5.72069e-17)
(-0.725313 -0.447381 -6.33285e-18)
(-0.706067 -0.417143 5.265e-17)
(-0.663496 -0.388076 -3.43668e-17)
(-0.624858 -0.360532 -2.45007e-17)
(-0.596167 -0.334565 1.42848e-17)
(-0.575349 -0.309471 1.25499e-17)
(-0.559945 -0.28431 8.50788e-19)
(-0.547644 -0.258653 7.357e-18)
(-0.536115 -0.232228 4.86371e-18)
(-0.522213 -0.205097 -1.80737e-18)
(-0.502456 -0.176753 5.73617e-18)
(-0.473567 -0.146749 2.09318e-17)
(-0.433629 -0.114753 8.15413e-18)
(-0.38332 -0.0812872 3.89199e-18)
(-0.328748 -0.0485586 6.79134e-17)
(-0.28342 -0.0206322 2.30876e-18)
(-0.266045 -0.00224442 -1.34003e-17)
(-0.28679 0.00409652 -6.58679e-18)
(-0.330739 0.00189962 3.22986e-17)
(-0.36036 0.0009171 -4.23819e-17)
(-0.346519 0.0100079 -5.88422e-17)
(-0.295827 0.0294704 -5.865e-17)
(-0.239679 0.0517774 1.39228e-17)
(-0.200537 0.069436 6.34191e-18)
(-0.178259 0.0803963 4.19495e-17)
(-0.161821 0.0868576 -1.40736e-17)
(-0.143963 0.0914624 -2.10213e-18)
(-0.124066 0.0952669 -9.14242e-17)
(-0.104164 0.0981247 -1.52423e-17)
(-0.0856952 0.0997114 9.9687e-17)
(-0.0690753 0.0999315 5.36983e-17)
(-0.0542431 0.0989392 -4.5945e-18)
(-0.0410851 0.0968664 4.63049e-17)
(-0.029549 0.0939938 5.32623e-17)
(-0.0194437 0.0903324 -5.17152e-17)
(-0.0114263 0.0860571 2.08695e-17)
(-0.00306879 0.0862498 -3.50766e-17)
(0.00274201 0.0814484 -5.72134e-17)
(0.00760027 0.0757406 -2.19471e-17)
(0.0112007 0.070218 2.02841e-17)
(0.0138606 0.0645394 4.44187e-17)
(0.0157124 0.059282 -4.99616e-17)
(0.0167584 0.053416 -1.93087e-16)
(0.0171737 0.0491942 -4.91655e-17)
(0.0169181 0.0428379 8.82838e-17)
(0.0157225 0.0410777 -9.50691e-17)
(0.0151905 0.0349905 -1.27462e-16)
(0.0110368 0.0289882 -1.0498e-16)
(0.0212654 0.0349501 -9.6749e-17)
(-0.347519 -1.24983 3.05257e-19)
(-0.786371 -1.10745 1.20178e-17)
(-1.09398 -0.927584 -2.98123e-18)
(-1.2488 -0.7602 -5.9556e-18)
(-1.4001 -0.57531 -7.68982e-18)
(-1.54572 -0.459257 -1.10429e-17)
(-1.67001 -0.417945 -1.23354e-17)
(-1.75744 -0.418141 -1.01717e-17)
(-1.79267 -0.42189 -1.87165e-18)
(-1.76818 -0.407585 1.52873e-18)
(-1.68307 -0.374349 1.98546e-17)
(-1.54219 -0.330881 3.15064e-18)
(-1.353 -0.283555 -2.41914e-19)
(-1.12526 -0.23563 -1.75223e-17)
(-0.869124 -0.188885 1.46341e-18)
(-0.596477 -0.146424 -4.15291e-18)
(-0.320134 -0.113657 -2.60412e-17)
(-0.0544462 -0.0945854 -4.29209e-18)
(0.185444 -0.0902878 9.10605e-19)
(0.384054 -0.0968886 1.09121e-17)
(0.527598 -0.107231 1.54537e-17)
(0.604655 -0.113602 -5.39335e-18)
(0.608039 -0.110243 -1.71139e-17)
(0.535974 -0.097247 -9.252e-18)
(0.394438 -0.0801284 3.6371e-17)
(0.197902 -0.0665616 4.77299e-18)
(-0.0333411 -0.0633698 -4.68336e-17)
(-0.279664 -0.0726664 6.50151e-20)
(-0.521955 -0.0927263 1.6421e-17)
(-0.725798 -0.118229 2.63022e-17)
(-0.84939 -0.141639 6.36471e-17)
(-0.885193 -0.157349 -1.61875e-17)
(-0.865718 -0.164762 1.70862e-17)
(-0.826064 -0.166241 6.89034e-17)
(-0.784237 -0.164708 3.26818e-17)
(-0.744776 -0.161706 -3.40302e-17)
(-0.709114 -0.157509 -1.71899e-17)
(-0.679873 -0.152179 -3.19315e-17)
(-0.660557 -0.146072 -9.95351e-18)
(-0.65256 -0.139651 -1.03423e-17)
(-0.653903 -0.132149 4.2471e-17)
(-0.658732 -0.12195 -1.09395e-17)
(-0.65765 -0.106406 3.38992e-18)
(-0.63893 -0.0825087 7.19541e-17)
(-0.591551 -0.0482111 2.55392e-17)
(-0.511042 -0.00397291 4.47832e-17)
(-0.408613 0.0450298 5.97962e-17)
(-0.315701 0.0885701 2.375e-17)
(-0.271512 0.114641 1.45869e-17)
(-0.290559 0.117799 6.2896e-17)
(-0.33903 0.105829 7.81016e-17)
(-0.36025 0.0953591 3.57139e-17)
(-0.329204 0.0969018 1.84787e-17)
(-0.267636 0.10816 4.43882e-17)
(-0.209724 0.12037 7.36546e-18)
(-0.169885 0.127598 4.53731e-17)
(-0.143172 0.129466 3.65475e-17)
(-0.120799 0.128263 6.61279e-17)
(-0.09899 0.125783 4.0063e-17)
(-0.0779912 0.122636 -9.30046e-18)
(-0.0589319 0.118806 3.5535e-17)
(-0.0423045 0.114309 1.68803e-17)
(-0.0281056 0.109166 -7.72251e-19)
(-0.0161425 0.103656 2.19138e-17)
(-0.00608888 0.0976946 8.03004e-18)
(0.00143863 0.0916239 -1.00199e-17)
(0.00987291 0.0908715 -4.53243e-17)
(0.0150889 0.0850589 5.33007e-17)
(0.0190906 0.0782343 -2.83417e-17)
(0.021665 0.0716993 1.67426e-17)
(0.0232368 0.0652156 9.37899e-17)
(0.0240175 0.0592265 6.1795e-17)
(0.0240434 0.0527467 -7.26456e-17)
(0.0234244 0.0479583 9.50507e-17)
(0.0222103 0.0412111 -1.5722e-16)
(0.0199933 0.0392797 -1.46454e-16)
(0.0183877 0.0332794 1.20217e-17)
(0.0131473 0.0281415 8.70928e-17)
(0.0223559 0.0335007 -1.78417e-16)
(-2.43635 0.791778 -3.2904e-18)
(-2.50095 0.86536 8.54159e-18)
(-2.33338 0.836129 1.72199e-18)
(-2.22773 0.893164 -7.14405e-18)
(-2.15772 0.971847 -5.95191e-18)
(-2.10459 1.00777 5.8403e-18)
(-2.05462 0.996596 1.22976e-17)
(-1.99777 0.958136 -1.14236e-17)
(-1.92221 0.914945 -5.97019e-18)
(-1.82127 0.881706 -7.82354e-18)
(-1.68947 0.861767 -1.10307e-17)
(-1.5259 0.853647 -4.36366e-18)
(-1.33113 0.853563 2.13732e-17)
(-1.10785 0.858164 1.36079e-18)
(-0.85968 0.862932 -7.84141e-18)
(-0.591994 0.863899 7.04074e-18)
(-0.311408 0.857532 -6.38427e-18)
(-0.0268634 0.843849 6.16774e-19)
(0.250425 0.825138 2.18639e-17)
(0.506781 0.806905 -1.81248e-17)
(0.726067 0.794377 -1.18639e-18)
(0.891667 0.791146 8.59655e-18)
(0.987903 0.796209 2.11674e-17)
(1.00339 0.803343 -2.29428e-17)
(0.93339 0.801895 -5.8672e-17)
(0.782646 0.781145 3.87503e-17)
(0.565362 0.734691 2.60414e-17)
(0.305192 0.664088 2.82663e-17)
(0.0375625 0.578384 6.26993e-17)
(-0.193077 0.490315 -4.70409e-18)
(-0.355787 0.410331 1.69857e-17)
(-0.451807 0.343438 3.54732e-17)
(-0.503891 0.288678 -3.26093e-17)
(-0.533831 0.242629 5.90146e-18)
(-0.551813 0.202775 3.85119e-17)
(-0.559923 0.168195 3.26585e-18)
(-0.559464 0.139052 4.31773e-17)
(-0.554955 0.11467 4.31082e-17)
(-0.55475 0.0934594 5.97568e-17)
(-0.567391 0.0739127 2.12065e-17)
(-0.598809 0.0554017 -2.68167e-17)
(-0.648261 0.0387132 3.93889e-17)
(-0.706219 0.026739 -6.46837e-17)
(-0.752926 0.0242939 -8.37378e-17)
(-0.761255 0.0374357 -6.99245e-17)
(-0.705462 0.0706349 -5.70713e-17)
(-0.578996 0.122373 2.08981e-17)
(-0.412717 0.181437 4.23291e-17)
(-0.274031 0.227211 4.44315e-17)
(-0.223146 0.241578 6.54336e-17)
(-0.254665 0.225524 3.57989e-17)
(-0.299355 0.198573 -5.00671e-17)
(-0.298031 0.180404 5.33364e-17)
(-0.250147 0.175522 8.81402e-18)
(-0.189614 0.17669 3.80891e-17)
(-0.141245 0.175992 1.7096e-17)
(-0.10823 0.170864 1.37367e-16)