/*--------------------------------*- C++ -*----------------------------------*\
| =========                 |                                                 |
| \\      /  F ield         | OpenFOAM: The Open Source CFD Toolbox           |
|  \\    /   O peration     | Version:  2306                                  |
|   \\  /    A nd           | Website:  www.openfoam.com                      |
|    \\/     M anipulation  |                                                 |
\*---------------------------------------------------------------------------*/
FoamFile
{
    version     2.0;
    format      ascii;
    arch        "LSB;label=32;scalar=64";
    class       surfaceScalarField;
    location    "75";
    object      phi;
}
// * * * * * * * * * * * * * * * * * * * * * * * * * * * * * * * * * * * * * //

dimensions      [0 3 -1 0 0 0 0];

oriented        oriented;

internalField   nonuniform List<scalar> 
2574
(
18.2391
0.531338
16.504
18.2356
0.557978
15.0389
0.558482
16.5035
18.2322
0.583314
13.6585
0.586206
15.036
0.587021
16.5026
18.2289
0.60698
11.2983
0.610291
12.426
0.612862
13.656
0.615909
15.0329
0.616948
16.5016
18.2257
0.630055
9.34316
0.634004
10.2733
0.637646
11.2947
0.641164
12.4225
0.643946
13.6532
0.64712
15.0298
0.6484
16.5003
18.2226
0.64826
7.0257
0.6529
7.7259
0.657448
8.49355
0.661843
9.33876
0.666076
10.269
0.669952
11.2908
0.673667
12.4188
0.676653
13.6502
0.679939
15.0265
0.68143
16.4988
18.2197
0.665947
7.40889
0.670927
5.8082
0.675948
6.38511
0.680941
7.02071
0.68589
7.72095
0.690733
8.48871
0.69542
9.33408
0.699878
10.2646
0.703979
11.2867
0.707911
12.4148
0.711055
13.6471
0.714468
15.0231
0.716165
16.4971
18.217
0.668305
5.98574
0.676519
6.31194
0.684493
6.65573
0.692185
7.01812
0.699574
7.4015
0.704873
5.8029
0.710209
6.37977
0.715548
7.01537
0.720797
7.7157
0.725929
8.48358
0.730847
9.32916
0.735567
10.2598
0.739881
11.2824
0.74401
12.4107
0.747295
13.6438
0.750813
15.0195
0.752673
16.4952
18.2143
0.657468
4.58195
0.666396
4.83223
0.675414
5.09604
0.684429
5.3743
0.693385
5.66763
0.70222
5.97691
0.710873
6.3033
0.719314
6.6473
0.727486
7.00994
0.735299
7.39369
0.740907
5.79729
0.746554
6.37413
0.75218
7.00975
0.757721
7.71016
0.763124
8.47817
0.768324
9.32396
0.773271
10.2549
0.777777
11.2779
0.782033
12.4065
0.785483
13.6404
0.789053
15.016
0.790903
16.4933
18.2119
0.632642
3.14718
0.640097
3.32011
0.647888
3.5024
0.656034
3.69443
0.664496
3.89707
0.673238
4.11042
0.682227
4.33548
0.691417
4.57276
0.700767
4.82288
0.710179
5.08663
0.719638
5.36486
0.729054
5.65821
0.738372
5.9676
0.747532
6.29414
0.75644
6.63839
0.765037
7.00135
0.773309
7.38543
0.779222
5.79139
0.785166
6.36818
0.791065
7.00385
0.796893
7.70433
0.802549
8.47252
0.80794
9.31857
0.813088
10.2498
0.817794
11.2732
0.82213
12.4021
0.825718
13.6368
0.829326
15.0124
0.831393
16.4912
18.2096
0.610512
1.64671
0.61308
1.73823
0.615963
1.83475
0.619123
1.93661
0.622672
2.0438
0.626587
2.15683
0.631018
2.27606
0.635924
2.40176
0.641346
2.53419
0.647146
2.67401
0.653333
2.82124
0.659909
2.97657
0.666961
3.14014
0.674466
3.31259
0.68244
3.49444
0.690808
3.68605
0.699563
3.88832
0.708639
4.10134
0.718025
4.3261
0.72762
4.56317
0.737409
4.8131
0.747333
5.07672
0.757283
5.35491
0.767191
5.64832
0.777008
5.95779
0.786644
6.28451
0.796029
6.62902
0.805101
6.99229
0.813761
7.37678
0.819961
5.78519
0.826183
6.36196
0.83238
6.99766
0.838422
7.69829
0.844297
8.46664
0.849929
9.31294
0.855275
10.2444
0.860029
11.2684
0.864528
12.3976
0.86813
13.6332
0.871749
15.0088
0.873874
16.4891
18.2074
0.70546
0.22586
0.705843
0.238588
0.705538
0.252313
0.704729
0.266839
0.703308
0.282
0.701463
0.2976
0.699072
0.313459
0.69624
0.329284
0.692784
0.3449
0.688671
0.360238
0.683672
0.375204
0.677678
0.389848
0.670392
0.404309
0.661653
0.41882
0.651343
0.433656
0.639657
0.449288
0.62712
0.466406
0.614869
0.486028
0.604409
0.509459
0.59747
0.538178
0.595387
0.573553
0.598666
0.616499
0.606605
0.667051
0.616849
0.723789
0.626095
0.783402
0.632035
0.841854
0.635087
0.897342
0.636671
0.951198
0.637851
1.0063
0.638801
1.0637
0.639666
1.12393
0.640407
1.18751
0.641182
1.25418
0.642026
1.32434
0.643078
1.3983
0.644335
1.47622
0.645897
1.55835
0.647755
1.64481
0.64994
1.73603
0.65245
1.8322
0.655323
1.93373
0.658519
2.04057
0.662113
2.15323
0.666126
2.27202
0.670721
2.39717
0.675926
2.52897
0.681823
2.66811
0.68829
2.81476
0.695209
2.96966
0.702522
3.13282
0.710316
3.3048
0.718614
3.48614
0.727386
3.67729
0.73659
3.87912
0.746169
4.09176
0.75605
4.31622
0.766219
4.553
0.776555
4.80277
0.787026
5.06626
0.797539
5.34441
0.808027
5.63783
0.818379
5.94745
0.828511
6.27439
0.83837
6.61917
0.847867
6.9828
0.856954
7.36769
0.863407
5.77874
0.869834
6.35554
0.876294
6.9912
0.882624
7.69197
0.88858
8.46069
0.894323
9.3072
0.899753
10.239
0.904639
11.2635
0.909187
12.3931
0.91281
13.6296
0.916399
15.0052
0.918716
16.4868
18.2052
0.743453
0.226317
0.742193
0.239762
0.74025
0.254133
0.737794
0.269226
0.734803
0.284898
0.731472
0.300881
0.727791
0.317068
0.723866
0.333169
0.719625
0.349086
0.715151
0.364678
0.710346
0.379962
0.705195
0.394966
0.699581
0.409885
0.693424
0.424943
0.686603
0.440443
0.679022
0.456832
0.67077
0.474631
0.662194
0.494563
0.654034
0.517594
0.647265
0.544901
0.643176
0.577623
0.642673
0.616951
0.646262
0.663448
0.653051
0.716944
0.660912
0.77553
0.666985
0.835722
0.670244
0.89408
0.671505
0.949881
0.672178
1.00563
0.672764
1.06307
0.673399
1.1233
0.673953
1.18692
0.67456
1.25359
0.675211
1.32367
0.676095
1.39743
0.677207
1.47509
0.678693
1.55687
0.68053
1.64295
0.682841
1.73373
0.68557
1.82945
0.688772
1.93052
0.692378
2.03694
0.696403
2.1492
0.700744
2.26765
0.705451
2.39246
0.710648
2.52375
0.716562
2.6622
0.723294
2.80802
0.730797
2.96216
0.738875
3.12473
0.747384
3.2963
0.756302
3.47722
0.765706
3.66789
0.775574
3.86925
0.785853
4.08149
0.796464
4.30562
0.807334
4.54214
0.818398
4.79172
0.829547
5.05512
0.840697
5.33327
0.851788
5.62675
0.862716
5.93653
0.873376
6.26374
0.883761
6.60879
0.893605
6.97296
0.903062
7.35824
0.909772
5.77203
0.916587
6.34873
0.923026
6.98476
0.929446
7.68555
0.935787
8.45435
0.941617
9.30137
0.946936
10.2337
0.951841
11.2586
0.956551
12.3884
0.960133
13.626
0.96349
15.0018
0.965598
16.4846
18.2032
0.766843
0.22799
0.76447
0.242127
0.761428
0.257068
0.758024
0.272631
0.754164
0.288661
0.750098
0.304946
0.745762
0.321316
0.741307
0.337616
0.73663
0.353679
0.731869
0.36942
0.726918
0.384837
0.721903
0.399953
0.716755
0.414962
0.711562
0.430098
0.706264
0.44568
0.700886
0.462163
0.695424
0.480038
0.689936
0.499997
0.684707
0.522779
0.680163
0.549384
0.676968
0.580783
0.675865
0.617987
0.677506
0.661781
0.681918
0.712461
0.688181
0.76925
0.694007
0.829823
0.697578
0.890503
0.698687
0.948702
0.698779
1.00554
0.698791
1.063
0.699165
1.12294
0.699701
1.18633
0.700445
1.25285
0.701294
1.32278
0.702379
1.39636
0.703732
1.47371
0.705507
1.55511
0.707703
1.64074
0.710456
1.73098
0.713751
1.82614
0.717682
1.9266
0.722214
2.0324
0.727386
2.14404
0.733058
2.26198
0.739103
2.38642
0.745358
2.5175
0.751898
2.65566
0.75899
2.80093
0.766959
2.9542
0.775847
3.11585
0.785461
3.28669
0.795549
3.46713
0.806011
3.65743
0.816847
3.85842
0.828061
4.07028
0.839597
4.29409
0.851339
4.53041
0.86322
4.77985
0.875191
5.04316
0.887087
5.32138
0.898963
5.61489
0.910459
5.92504
0.921644
6.25257
0.93245
6.59799
0.942922
6.9625
0.952532
7.34864
0.959597
5.76497
0.966285
6.34205
0.973171
6.97788
0.979517
7.6792
0.985743
8.44813
0.991579
9.29554
0.997206
10.228
1.00205
11.2538
1.00635
12.3841
1.00982
13.6225
1.01339
14.9982
1.01523
16.4828
18.2013
0.770967
0.230376
0.768154
0.245037
0.764841
0.260371
0.761225
0.276301
0.757257
0.292591
0.753184
0.309052
0.748887
0.325572
0.744562
0.341961
0.740057
0.358142
0.735455
0.374029
0.730652
0.389607
0.725735
0.404867
0.720698
0.419969
0.715681
0.435106
0.710722
0.450621
0.705978
0.466891
0.701545
0.484457
0.697535
0.503986
0.694123
0.526185
0.691494
0.551984
0.690008
0.58227
0.689993
0.617968
0.691941
0.65984
0.696014
0.708347
0.701946
0.763334
0.708297
0.823425
0.713117
0.885703
0.715261
0.94651
0.71569
1.00514
0.715647
1.063
0.716096
1.12252
0.717052
1.18535
0.718487
1.25146
0.720184
1.32108
0.722225
1.39436
0.724536
1.4714
0.727217
1.55247
0.730262
1.63771
0.733777
1.7275
0.737801
1.82213
0.742458
1.92197
0.747846
2.02703
0.754055
2.13784
0.761192
2.25485
0.769201
2.37842
0.777794
2.50892
0.7866
2.64687
0.795436
2.7921
0.804346
2.9453
0.813969
3.10623
0.824533
3.27614
0.835967
3.45571
0.848003
3.64541
0.860289
3.84615
0.872745
4.05784
0.885465
4.28138
0.898387
4.5175
0.911491
4.76675
0.924265
5.03039
0.937192
5.30846
0.949581
5.60251
0.961783
5.91285
0.973715
6.24064
0.984827
6.58689
0.995505
6.95183
1.00571
7.33844
1.0126
5.75809
1.01955
6.33511
1.02633
6.97111
1.03301
7.67252
1.03904
8.4421
1.04479
9.28979
1.05015
10.2227
1.05482
11.2491
1.05915
12.3798
1.0624
13.6193
1.06567
14.9949
1.06745
16.481
18.1994
0.755006
0.232611
0.752591
0.247487
0.749874
0.262975
0.747118
0.279074
0.744045
0.295561
0.740877
0.312233
0.737437
0.328918
0.733894
0.345508
0.730048
0.361912
0.72599
0.37808
0.721535
0.393995
0.716759
0.409622
0.711603
0.425071
0.706198
0.440477
0.700654
0.456118
0.695182
0.472318
0.690033
0.489571
0.685457
0.50851
0.681794
0.529823
0.679305
0.554419
0.678366
0.583196
0.67919
0.617091
0.682147
0.656882
0.687339
0.703106
0.694605
0.756076
0.703042
0.814945
0.711126
0.877638
0.716872
0.940731
0.720065
1.00197
0.721592
1.06145
0.723126
1.12102
0.725002
1.18347
0.727712
1.24878
0.730946
1.31785
0.734689
1.39065
0.738895
1.46723
0.743562
1.54784
0.748561
1.63275
0.75386
1.72224
0.75961
1.81644
0.765698
1.91592
0.772236
2.02054
0.779459
2.13066
0.787386
2.24697
0.796608
2.36923
0.807085
2.49847
0.818698
2.63527
0.830942
2.77988
0.843141
2.93311
0.855115
3.09428
0.867345
3.26392
0.88006
3.44301
0.893396
3.63209
0.90741
3.83215
0.921804
4.04346
0.936105
4.2671
0.950367
4.50325
0.964376
4.75276
0.97849
5.0163
0.992017
5.29495
1.00531
5.58923
1.01812
5.90005
1.03037
6.22841
1.04214
6.57513
1.05288
6.9411
1.06305
7.32828
1.07012
5.75102
1.07702
6.32821
1.08371
6.96442
1.09009
7.66615
1.0961
8.43608
1.1016
9.2843
1.10671
10.2176
1.11105
11.2448
1.11514
12.3757
1.118
13.6165
1.12108
14.9918
1.12263
16.4794
18.1976
1.12883
0.236228
1.12589
0.250633
1.12351
0.265723
1.12133
0.281429
1.11924
0.297964
1.11698
0.314643
1.1144
0.331762
1.11122
0.34883
1.10739
0.365974
1.10283
0.382773
1.09727
0.399768
1.09057
0.416458
1.08277
0.433058
1.07367
0.449734
1.06365
0.466317
1.05283
0.483305
1.04172
0.500836
1.03095
0.519457
1.02117
0.539754
1.01327
0.562496
1.00823
0.588367
1.00678
0.618723
1.00952
0.654258
1.01708
0.695725
1.02928
0.743985
1.04563
0.798783
1.06391
0.859455
1.08117
0.923653
1.09459
0.98863
1.10417
1.05205
1.11105
1.1142
1.11741
1.17727
1.12392
1.24231
1.13115
1.31076
1.13892
1.3829
1.14734
1.45894
1.15637
1.53883
1.16601
1.62324
1.17615
1.7121
1.18659
1.80613
1.19724
1.90526
1.20798
2.00992
1.21834
2.12027
1.229
2.23641
1.23971
2.35849
1.25163
2.48663
1.26528
2.6216
1.28116
2.76406
1.29885
2.9154
1.31698
3.0762
1.3337
3.2472
1.34928
3.42748
1.36408
3.6173
1.37854
3.81773
1.39284
4.02918
1.40666
4.25332
1.41955
4.49039
1.43113
4.74121
1.44123
5.00622
1.44989
5.28631
1.45668
5.58246
1.46165
5.8951
1.46439
6.22569
1.46512
6.57442
1.46362
6.9426
1.45975
7.33216
1.45494
5.75585
1.44818
6.33496
1.43941
6.9732
1.42816
7.6774
1.41439
8.44987
1.39756
9.30113
1.37783
10.2373
1.35448
11.2681
1.32774
12.4025
1.29624
13.6479
1.2617
15.0264
1.22108
16.52
18.2366
0.990572
0.239305
0.989273
0.252692
0.989295
0.266561
0.990037
0.281219
0.992007
0.296641
0.994108
0.312887
0.996609
0.329765
0.998679
0.346983
1.00044
0.364614
1.00101
0.382349
1.00073
0.400391
0.998618
0.41869
0.995044
0.436915
0.989328
0.455559
0.98175
0.474148
0.972086
0.493082
0.96072
0.512416
0.947916
0.532382
0.934633
0.553231
0.921715
0.57555
0.910287
0.599956
0.901852
0.627312
0.897841
0.658412
0.899195
0.694547
0.906998
0.736294
0.9215
0.784481
0.941787
0.839264
0.966078
0.899593
0.99089
0.963886
1.01397
1.02922
1.03411
1.0941
1.05242
1.15922
1.06941
1.22534
1.0865
1.29392
1.10344
1.36594
1.12097
1.44164
1.13826
1.52151
1.15643
1.60528
1.17484
1.69365
1.19407
1.78707
1.2138
1.8855
1.23418
1.98969
1.25458
2.09982
1.2747
2.2164
1.2936
2.33955
1.31117
2.46916
1.3273
2.60542
1.34374
2.74769
1.36193
2.89718
1.38284
3.05536
1.40572
3.22431
1.42851
3.40474
1.44896
3.59685
1.46714
3.7996
1.48344
4.0129
1.49872
4.23809
1.51277
4.47636
1.52546
4.72857
1.53627
4.99543
1.54492
5.27769
1.55145
5.57595
1.55565
5.89091
1.55765
6.22372
1.55708
6.57499
1.55409
6.9456
1.54858
7.33768
1.54224
5.76221
1.53401
6.3432
1.52335
6.98387
1.51016
7.6906
1.49441
8.46563
1.47559
9.31995
1.45354
10.2594
1.42776
11.2939
1.39865
12.4316
1.3649
13.6817
1.32764
15.0636
1.28445
16.5632
18.2778
0.880772
0.882372
0.25157
0.886266
0.264096
0.890797
0.277405
0.897294
0.291594
0.904269
0.306592
0.912618
0.322642
0.920823
0.339326
0.929609
0.356836
0.937418
0.374967
0.944752
0.393845
0.950519
0.413258
0.954881
0.433191
0.956852
0.453871
0.956563
0.474938
0.953343
0.49655
0.947372
0.518804
0.938482
0.541504
0.926968
0.565073
0.913355
0.58939
0.898701
0.614887
0.884104
0.642145
0.871178
0.671555
0.861808
0.704167
0.857592
0.740692
0.860279
0.782064
0.870425
0.82926
0.888304
0.882008
0.911782
0.940523
0.938648
1.00267
0.965837
1.06699
0.992606
1.13276
1.01816
1.19982
1.04357
1.26881
1.0687
1.34081
1.0942
1.41643
1.11966
1.49602
1.14547
1.57973
1.17114
1.66793
1.19766
1.76078
1.22479
1.85829
1.25367
1.961
1.28396
2.06945
1.31601
2.18451
1.34853
2.30694
1.3804
2.4374
1.40924
2.57648
1.43405
2.72297
1.45463
2.87651
1.47438
3.03569
1.4961
3.20252
1.52127
3.37965
1.54756
3.57052
1.5718
3.77544
1.59236
3.99231
1.6095
4.22103
1.62403
4.46182
1.63641
4.71625
1.64675
4.98508
1.65462
5.26987
1.65994
5.57062
1.66263
5.88826
1.66263
6.22371
1.65988
6.57777
1.65436
6.95112
1.64626
7.34581
1.63797
5.77049
1.62756
6.35364
1.61443
6.997
1.59911
7.70594
1.5807
8.48404
1.55913
9.34153
1.53435
10.2841
1.50599
11.3223
1.47401
12.4636
1.43746
13.7182
1.39741
15.1037
1.35143
16.6091
18.3217
1.02801
0.246402
1.03474
0.258194
1.04292
0.270798
1.05071
0.284307
1.0601
0.298467
1.06929
0.313732
1.07985
0.329807
1.09
0.346833
1.10114
0.364726
1.11138
0.383698
1.12176
0.403645
1.13063
0.424391
1.13884
0.446344
1.14467
0.469191
1.14878
0.49303
1.14984
0.51785
1.14833
0.543547
1.14334
0.570211
1.13529
0.597884
1.12367
0.626691
1.10971
0.656506
1.09372
0.687771
1.07723
0.720993
1.0617
0.756487
1.04909
0.794963
1.04136
0.837276
1.03957
0.884037
1.04468
0.935718
1.05546
0.99208
1.07045
1.05231
1.08749
1.11585
1.10575
1.18188
1.12448
1.25016
1.14425
1.32134
1.16511
1.3956
1.18751
1.47388
1.21085
1.55639
1.23558
1.64343
1.26083
1.7355
1.28712
1.83219
1.3148
1.93326
1.34533
2.03908
1.37926
2.15052
1.4179
2.26841
1.46063
2.39461
1.50562
2.53158
1.54842
2.68011
1.58477
2.84023
1.61183
3.00859
1.63193
3.18249
1.65071
3.36084
1.67297
3.54832
1.69817
3.75023
1.72234
3.9682
1.74212
4.20124
1.75713
4.44686
1.76845
4.70494
1.77656
4.97702
1.78212
5.26432
1.78466
5.56811
1.78427
5.88867
1.78087
6.22714
1.77471
6.58394
1.76576
6.96009
1.75421
7.35736
1.74315
5.78158
1.72967
6.36713
1.71378
7.0129
1.69501
7.72472
1.67358
8.50548
1.64889
9.36621
1.62095
10.3121
1.5891
11.3541
1.55411
12.4985
1.51449
13.7579
1.47114
15.147
1.42217
16.6581
18.3685
1.44085
0.239508
1.44577
0.251139
1.45147
0.263767
1.45699
0.277174
1.46358
0.291117
1.46977
0.306301
1.47722
0.321994
1.48419
0.338892
1.49215
0.356678
1.49957
0.375535
1.50794
0.395372
1.51527
0.416507
1.52298
0.438874
1.52927
0.462501
1.53544
0.487171
1.53958
0.513431
1.54255
0.540925
1.5428
0.569786
1.54112
0.599917
1.53617
0.631547
1.52841
0.664609
1.51726
0.698884
1.50367
0.734888
1.48751
0.772659
1.47033
0.812406
1.45285
0.85481
1.43727
0.899824
1.42433
0.948724
1.41518
1.0014
1.40974
1.05783
1.40717
1.11855
1.40645
1.18269
1.40692
1.24978
1.40828
1.32007
1.41107
1.39286
1.41605
1.469
1.42371
1.54874
1.43422
1.63301
1.4474
1.72232
1.46301
1.81666
1.48036
1.91589
1.50013
2.01938
1.5235
2.12712
1.55257
2.23939
1.58964
2.3575
1.63607
2.48518
1.68962
2.62651
1.74488
2.78499
1.79229
2.96113
1.82549
3.14931
1.84337
3.34292
1.85445
3.53727
1.86739
3.73727
1.88457
3.95106
1.9025
4.1833
1.91672
4.43269
1.92548
4.69618
1.92979
4.97275
1.93034
5.26379
1.92802
5.57047
1.92261
5.89409
1.91439
6.23538
1.90315
6.5952
1.88924
6.97403
1.87292
7.3737
1.85825
5.79627
1.84094
6.38445
1.82124
7.03262
1.7987
7.74726
1.7731
8.53109
1.7446
9.39472
1.71286
10.3438
1.67778
11.3892
1.63898
12.5374
1.5958
13.801
1.54917
15.1936
1.49685
16.7104
18.4182
1.97102
0.234419
1.97404
0.246282
1.97747
0.25902
1.98058
0.27254
1.98417
0.286691
1.98739
0.301866
1.99098
0.317914
1.99413
0.334759
1.99798
0.352612
2.00101
0.371699
2.00458
0.391756
2.00739
0.41302
2.01062
0.435728
2.01307
0.459462
2.01563
0.484762
2.01717
0.51138
2.01844
0.539854
2.01832
0.569452
2.01744
0.60103
2.01446
0.634125
2.01033
0.668977
2.00324
0.705613
1.99429
0.744095
1.98234
0.784303
1.96845
0.826532
1.95204
0.870954
1.93447
0.917626
1.91575
0.967232
1.89778
1.01957
1.88022
1.07523
1.86416
1.1348
1.84869
1.19803
1.83375
1.26488
1.81869
1.33504
1.80334
1.40835
1.78853
1.48375
1.77548
1.56191
1.76549
1.64296
1.75984
1.72807
1.75832
1.81817
1.761
1.91328
1.767
2.01339
1.77608
2.11808
1.78931
2.22617
1.80946
2.33739
1.84014
2.4545
1.88465
2.58202
1.94188
2.72775
2.00474
2.89827
2.05977
3.09428
2.09466
3.30802
2.10612
3.5258
2.10345
3.73992
2.10037
3.95415
2.10273
4.18094
2.10785
4.42759
2.11049
4.69354
2.10839
4.97488
2.10184
5.27035
2.09191
5.58042
2.07903
5.90698
2.06352
6.25091
2.04551
6.61321
2.02504
6.99452
2.00222
7.39653
1.98308
5.81543
1.96149
6.40604
1.93703
7.05708
1.90969
7.77461
1.87982
8.56096
1.84697
9.42757
1.81097
10.3798
1.77144
11.4288
1.72864
12.5801
1.6817
13.848
1.63124
15.2441
1.57547
16.7662
18.4712
2.46046
0.231761
2.46188
0.243986
2.46335
0.256874
2.46455
0.270547
2.46572
0.285018
2.46637
0.30055
2.4675
0.316436
2.46788
0.333819
2.46824
0.352046
2.46828
0.371184
2.46829
0.391634
2.46759
0.413299
2.4672
0.436083
2.46607
0.46022
2.46487
0.485964
2.46287
0.513036
2.46107
0.541698
2.45816
0.572022
2.45515
0.604109
2.45095
0.637998
2.44637
0.67363
2.44024
0.711419
2.43315
0.751276
2.42423
0.792892
2.41377
0.837077
2.40101
0.883396
2.38676
0.931961
2.37053
0.983139
2.35312
1.03707
2.33434
1.0937
2.31542
1.15382
2.29579
1.21737
2.27607
1.28468
2.25466
1.35618
2.23233
1.43079
2.20748
1.50835
2.1822
1.58729
2.15698
1.66798
2.13474
1.7504
2.11657
1.83618
2.10406
1.92588
2.09669
2.02064
2.09438
2.12049
2.09626
2.22419
2.10277
2.33097
2.11641
2.4408
2.14239
2.55611
2.18492
2.68519
2.24438
2.83887
2.31142
3.02722
2.3695
3.24998
2.40117
3.49414
2.40163
3.73949
2.38188
3.97391
2.3592
4.20363
2.34218
4.44461
2.32933
4.70638
2.31542
4.98879
2.29827
5.28749
2.27748
5.60121
2.25427
5.93017
2.22875
6.27644
2.2017
6.64024
2.17295
7.02327
2.14255
7.42692
2.11804
5.83994
2.09085
6.43322
2.06094
7.087
2.0285
7.80704
1.99346
8.596
1.95541
9.46563
1.91456
10.4207
1.87055
11.4728
1.82352
12.6272
1.77237
13.8991
1.71819
15.2983
1.65826
16.8261
18.527
2.85791
0.231091
2.85852
0.243329
2.85898
0.256379
2.85926
0.270415
2.85932
0.285065
2.85926
0.300805
2.85874
0.317055
2.85803
0.334671
2.85699
0.353126
2.85557
0.372684
2.8538
0.39339
2.85159
0.415516
2.84906
0.438564
2.84606
0.463166
2.84273
0.489207
2.83889
0.516763
2.83477
0.545729
2.83007
0.576562
2.8249
0.609183
2.81923
0.643447
2.81291
0.679869
2.80593
0.718147
2.79856
0.758585
2.78991
0.801251
2.78048
0.846463
2.76982
0.893749
2.75817
0.943595
2.74467
0.996322
2.73027
1.05148
2.71401
1.10964
2.69698
1.1709
2.67874
1.23529
2.66002
1.30346
2.6398
1.37611
2.61824
1.45243
2.59373
1.53259
2.5664
1.61472
2.53692
1.69723
2.50718
1.78024
2.47954
1.86362
2.45682
1.94869
2.44013
2.03716
2.43029
2.1304
2.42627
2.22809
2.42755
2.32974
2.43368
2.43456
2.44689
2.54293
2.47197
2.66003
2.51392
2.79691
2.57276
2.96831
2.63776
3.18495
2.68942
3.44242
2.70827
3.72059
2.68981
3.99232
2.64898
4.24439
2.60575
4.48781
2.56998
4.7421
2.53996
5.01879
2.51027
5.31713
2.47819
5.63328
2.44344
5.96489
2.40725
6.31262
2.36968
6.6778
2.33123
7.06173
2.29215
7.46599
2.26135
5.87075
2.22819
6.46638
2.1925
7.1227
2.15416
7.84539
2.11332
8.63684
2.06985
9.5091
2.02382
10.4667
1.97491
11.5217
1.9232
12.6789
1.86767
13.9546
1.80919
15.3567
1.74479
16.8904
18.5847
3.25521
0.231898
3.25498
0.244382
3.2538
0.257863
3.25251
0.272141
3.25027
0.28724
3.24825
0.303044
3.24533
0.319759
3.24244
0.337667
3.23867
0.356618
3.23471
0.376679
3.23013
0.39769
3.2257
0.419934
3.22028
0.443693
3.21478
0.468616
3.20854
0.495185
3.20215
0.523072
3.19506
0.552567
3.18757
0.583946
3.17962
0.616916
3.17122
0.651727
3.16218
0.688715
3.15283
0.727363
3.14267
0.768595
3.13189
0.811889
3.12083
0.8574
3.1086
0.905837
3.09557
0.956528
3.08176
1.00999
3.06681
1.06636
3.05067
1.12564
3.03345
1.18807
3.01494
1.25368
2.99562
1.32276
2.97613
1.39549
2.9552
1.47336
2.93243
1.55526
2.90633
1.64084
2.87537
1.72811
2.84039
1.81525
2.80328
1.90067
2.76742
1.98459
2.73598
2.06856
2.7123
2.15414
2.69801
2.24236
2.69322
2.3346
2.69725
2.43053
2.71009
2.53017
2.73298
2.63715
2.77051
2.75947
2.82624
2.91261
2.89892
3.11238
2.9741
3.36727
3.02852
3.66628
3.03941
3.98147
3.00235
4.28157
2.93515
4.55504
2.86228
4.81509
2.79745
5.08366
2.74146
5.37322
2.69043
5.68436
2.64087
6.01454
2.59166
6.36188
2.54284
6.72669
2.49411
7.11048
2.44586
7.5143
2.40914
5.90748
2.36971
6.50585
2.32819
7.16424
2.28408
7.88952
2.23761
8.68332
2.18883
9.55789
2.1378
10.5178
2.08377
11.5757
2.0274
12.7353
1.96694
14.0151
1.90502
15.4186
1.83525
16.9602
18.6434
3.48157
3.47986
3.47777
3.47572
3.47329
3.47069
3.4675
3.46434
3.46079
3.45727
3.45316
3.44888
3.44422
3.43938
3.43417
3.42878
3.42279
3.41682
3.41023
3.40343
3.39619
3.38851
3.38036
3.37193
3.36259
3.35312
3.34289
3.33203
3.32035
3.30811
3.29469
3.28056
3.26561
3.24998
3.23405
3.21685
3.19719
3.17405
3.1471
3.11694
3.08542
3.05539
3.02952
3.00974
2.99785
2.99408
2.99817
3.01046
3.03242
3.06658
3.11343
3.16797
3.21623
3.24006
3.22718
3.18045
3.11517
3.046
2.97985
2.9166
2.85513
2.79415
2.73379
2.67438
2.61586
2.57204
2.52608
2.4774
2.42649
2.37338
2.31795
2.26056
2.20005
2.13851
2.07112
2.00625
1.9268
)
;

boundaryField
{
    inlet
    {
        type            calculated;
        value           nonuniform List<scalar> 
27
(
0.509069
0.53486
0.561908
0.590292
0.620124
0.651433
0.684316
0.718845
0.755298
0.793339
0.833696
0.876061
0.920794
0.967586
1.01713
1.0693
1.12444
1.18207
1.2432
1.30759
1.37535
1.44705
1.52254
1.60245
1.68707
1.77656
1.8096
)
;
    }
    outlet
    {
        type            calculated;
        value           nonuniform List<scalar> 
78
(
0.233428
0.246313
0.259951
0.274389
0.289653
0.30583
0.322922
0.341004
0.360132
0.38037
0.401761
0.424384
0.448318
0.473618
0.500363
0.528633
0.558517
0.590093
0.623472
0.658706
0.695928
0.735226
0.776719
0.820492
0.866702
0.915474
0.96673
1.02099
1.078
1.13802
1.20146
1.26793
1.33768
1.41122
1.48928
1.57255
1.66049
1.75133
1.84222
1.93091
2.01614
2.09865
2.18007
2.26221
2.34657
2.43437
2.5262
2.62494
2.73766
2.87852
3.0657
3.3128
3.6182
3.95771
4.29464
4.60184
4.88054
5.15289
5.43952
5.74766
6.07612
6.42289
6.78712
7.16991
7.57288
5.95132
6.55184
7.21294
7.94044
8.73645
9.61332
10.5751
11.6362
12.7968
14.0825
15.4835
17.0397
18.7606
)
;
    }
    walls
    {
        type            calculated;
        value           nonuniform List<scalar> 0();
    }
    frontAndBack
    {
        type            empty;
        value           nonuniform List<scalar> 0();
    }
    procBoundary7to3
    {
        type            processor;
        value           nonuniform List<scalar> 
16
(
-0.70472
-0.744402
-0.768796
-0.773488
-0.757411
-1.13147
-0.991261
-0.877999
0.239487
-1.01517
-1.4404
-1.96977
-2.45905
-2.86035
-3.25238
-3.48318
)
;
    }
    procBoundary7to6
    {
        type            processor;
        value           nonuniform List<scalar> 
91
(
-18.2427
-0.505541
-16.5042
-0.53111
-15.0416
-0.55521
-13.6609
-11.3017
-0.580936
-12.4293
-9.34727
-0.603577
-10.2772
-7.03039
-7.73054
-0.625939
-8.4981
-7.41585
-5.81318
-0.643568
-6.39012
-5.99411
-6.32016
-6.66371
-0.658976
-7.0258
-4.59078
-4.84117
-5.10504
-5.38332
-0.659923
-5.67657
-3.15425
-3.32755
-3.5102
-3.70258
-3.90553
-4.11916
-0.648602
-4.34447
-1.64904
-1.74083
-1.83762
-1.9398
-2.04734
-2.16077
-2.28048
-2.40669
-2.53961
-2.67982
-2.82742
-0.625565
-2.98316
-0.226621
-0.238902
-0.252023
-0.265982
-0.28061
-0.295725
-0.311111
-0.326436
-0.341494
-0.356122
-0.370258
-0.383862
-0.397075
-0.410101
-0.423398
-0.437631
-0.453919
-0.473816
-0.499047
-0.531287
-0.571513
-0.619834
-0.675031
-0.734095
-0.792684
-0.84786
-0.900426
-0.952845
-1.0075
-1.06471
-1.12482
-1.1883
-1.25497
-1.32523
-1.39937
-1.47752
-0.608158
-1.55993
)
;
    }
}


// ************************************************************************* //
