/*--------------------------------*- C++ -*----------------------------------*\
| =========                 |                                                 |
| \\      /  F ield         | OpenFOAM: The Open Source CFD Toolbox           |
|  \\    /   O peration     | Version:  2306                                  |
|   \\  /    A nd           | Website:  www.openfoam.com                      |
|    \\/     M anipulation  |                                                 |
\*---------------------------------------------------------------------------*/
FoamFile
{
    version     2.0;
    format      ascii;
    arch        "LSB;label=32;scalar=64";
    class       volSymmTensorField;
    location    "75";
    object      turbulenceProperties:R;
}
// * * * * * * * * * * * * * * * * * * * * * * * * * * * * * * * * * * * * * //

dimensions      [0 2 -2 0 0 0 0];

internalField   nonuniform List<symmTensor> 
1340
(
(3.17329e-07 -6.87931e-09 -2.44663e-20 2.5209e-07 -3.05776e-21 3.01141e-07)
(1.6021e-07 -1.08156e-08 -2.42015e-20 1.89936e-07 -3.23439e-21 1.63147e-07)
(3.12123e-07 -5.98635e-09 1.26472e-20 2.47967e-07 1.56385e-21 2.96564e-07)
(2.23308e-07 3.29439e-10 1.29856e-19 1.7558e-07 1.66129e-20 2.09712e-07)
(1.56223e-07 -1.11696e-08 2.65528e-23 1.81813e-07 -5.80702e-23 1.56482e-07)
(3.02269e-07 -4.42437e-09 -1.15387e-22 2.41408e-07 2.61007e-23 2.89746e-07)
(7.83609e-08 -2.92075e-09 -6.60936e-20 6.53593e-08 -8.61342e-21 6.64095e-08)
(2.22844e-07 -5.98734e-10 2.39369e-21 1.75279e-07 4.31775e-22 2.09392e-07)
(1.52264e-07 -1.12985e-08 2.89231e-20 1.74875e-07 3.85511e-21 1.50883e-07)
(2.96799e-07 -3.46215e-09 -5.79074e-20 2.37519e-07 -7.29241e-21 2.85454e-07)
(1.84266e-07 -3.76867e-10 -1.57808e-19 1.42787e-07 -2.02728e-20 1.61302e-07)
(2.196e-07 3.01108e-10 -8.63487e-20 1.70194e-07 -1.09235e-20 1.99774e-07)
(8.3559e-08 -3.55368e-09 2.91022e-20 6.95376e-08 3.77868e-21 7.10841e-08)
(2.2303e-07 -1.63495e-09 -4.29869e-20 1.7538e-07 -5.52333e-21 2.09353e-07)
(1.48079e-07 -1.12927e-08 -1.21784e-19 1.68633e-07 -1.61982e-20 1.45835e-07)
(2.92817e-07 -2.75158e-09 5.53333e-20 2.34514e-07 6.91727e-21 2.82025e-07)
(2.90997e-07 3.6146e-10 2.33094e-20 2.2499e-07 2.97727e-21 2.5684e-07)
(2.76669e-07 3.16408e-10 -6.23976e-21 2.13767e-07 -8.15517e-22 2.47345e-07)
(1.87699e-07 -1.96596e-09 3.99111e-22 1.4562e-07 -8.73261e-23 1.64323e-07)
(2.21555e-07 -1.31403e-09 1.72395e-22 1.71728e-07 -3.26427e-23 2.01424e-07)
(8.82827e-08 -4.24929e-09 2.05736e-20 7.3492e-08 2.71207e-21 7.54239e-08)
(2.22126e-07 -2.62741e-09 -2.29321e-21 1.74796e-07 -3.42849e-22 2.08525e-07)
(1.45506e-07 -1.13816e-08 6.73249e-23 1.64279e-07 -2.21865e-23 1.4244e-07)
(2.88178e-07 -2.05355e-09 -8.54283e-23 2.31323e-07 1.94851e-23 2.78423e-07)
(4.48366e-07 1.00734e-09 -5.24664e-20 3.46452e-07 -6.67255e-21 3.97588e-07)
(3.92413e-07 -3.72363e-10 -6.6894e-20 3.03279e-07 -8.41943e-21 3.4716e-07)
(3.57352e-07 -8.79148e-10 -8.37687e-20 2.76106e-07 -1.0472e-20 3.17355e-07)
(2.93374e-07 -2.11113e-09 -3.40624e-20 2.26957e-07 -4.20225e-21 2.58878e-07)
(2.79026e-07 -1.98653e-09 3.78355e-21 2.15687e-07 5.64129e-22 2.49346e-07)
(1.91494e-07 -3.6737e-09 6.41973e-20 1.48992e-07 8.2413e-21 1.67726e-07)
(2.23286e-07 -3.00573e-09 1.33101e-20 1.73274e-07 1.6353e-21 2.02903e-07)
(9.42071e-08 -5.10565e-09 -4.5992e-20 7.87036e-08 -5.98325e-21 8.08617e-08)
(2.2061e-07 -3.62631e-09 4.12605e-20 1.73817e-07 5.3107e-21 2.07177e-07)
(1.45205e-07 -1.16485e-08 6.38622e-23 1.62367e-07 -3.94403e-23 1.41224e-07)
(2.83367e-07 -1.49088e-09 4.11093e-23 2.28165e-07 -1.00405e-23 2.74836e-07)
(5.98464e-07 -3.75054e-10 -1.23662e-20 4.62453e-07 -1.37627e-21 5.30163e-07)
(5.44757e-07 -4.51278e-10 6.14117e-20 4.2093e-07 7.50719e-21 4.82786e-07)
(4.93028e-07 -1.63798e-09 7.14338e-21 3.81036e-07 8.19166e-22 4.36526e-07)
(4.50676e-07 -2.73393e-09 4.11808e-20 3.48343e-07 5.07494e-21 3.99694e-07)
(3.94698e-07 -3.68537e-09 1.22961e-22 3.05312e-07 -9.23102e-23 3.49273e-07)
(3.59699e-07 -3.86623e-09 2.54275e-22 2.78226e-07 -2.73945e-23 3.1953e-07)
(2.96014e-07 -4.66792e-09 2.8529e-20 2.29476e-07 3.60113e-21 2.61297e-07)
(2.81458e-07 -4.36871e-09 -3.60315e-21 2.17976e-07 -4.84292e-22 2.51521e-07)
(1.9573e-07 -5.49176e-09 -1.8704e-22 1.53002e-07 4.67441e-23 1.71596e-07)
(2.25144e-07 -4.78358e-09 -3.24455e-23 1.75123e-07 7.12734e-24 2.04491e-07)
(1.01276e-07 -6.12516e-09 8.73489e-23 8.51543e-08 -2.45117e-23 8.73647e-08)
(2.19107e-07 -4.71495e-09 -1.13982e-22 1.72854e-07 4.89395e-23 2.05683e-07)
(1.4709e-07 -1.20959e-08 1.05157e-19 1.62915e-07 1.40803e-20 1.42202e-07)
(2.78773e-07 -1.20098e-09 2.82381e-20 2.25042e-07 3.55725e-21 2.71202e-07)
(8.51135e-07 -5.48832e-09 -3.3906e-20 6.57946e-07 -3.86188e-21 7.53949e-07)
(7.87858e-07 -5.32385e-09 2.50785e-20 6.09077e-07 3.02082e-21 6.9787e-07)
(7.2522e-07 -5.39403e-09 1.26743e-20 5.60708e-07 1.42605e-21 6.42529e-07)
(6.60863e-07 -5.77261e-09 -4.71809e-21 5.11067e-07 -6.02237e-22 5.85517e-07)
(5.98805e-07 -5.27929e-09 4.89874e-23 4.63067e-07 -6.40306e-24 5.30679e-07)
(5.45248e-07 -5.0144e-09 -1.79357e-22 4.21655e-07 3.83524e-23 4.83458e-07)
(4.93916e-07 -5.82704e-09 -1.98883e-23 3.82207e-07 -7.07468e-23 4.37605e-07)
(4.5234e-07 -6.54648e-09 -4.48423e-20 3.50231e-07 -5.55706e-21 4.01549e-07)
(3.9635e-07 -7.0564e-09 -2.14707e-20 3.07296e-07 -2.59297e-21 3.51126e-07)
(3.61297e-07 -6.88693e-09 2.69252e-20 2.80159e-07 3.39411e-21 3.21313e-07)
(2.97927e-07 -7.24559e-09 -2.71617e-20 2.31774e-07 -3.47324e-21 2.63327e-07)
(2.83184e-07 -6.76118e-09 7.57091e-24 2.20041e-07 -1.68629e-23 2.53285e-07)
(1.99449e-07 -7.34597e-09 -5.81041e-20 1.56887e-07 -7.52036e-21 1.75179e-07)
(2.26592e-07 -6.59078e-09 -1.20385e-20 1.76892e-07 -1.50502e-21 2.05814e-07)
(1.08407e-07 -7.24176e-09 2.38248e-20 9.19256e-08 3.10785e-21 9.40264e-08)
(2.17476e-07 -5.89013e-09 -3.74252e-20 1.71852e-07 -4.82932e-21 2.03977e-07)
(1.50896e-07 -1.27108e-08 -8.87478e-20 1.65717e-07 -1.18787e-20 1.4518e-07)
(2.74283e-07 -1.20384e-09 -3.59332e-20 2.2183e-07 -4.50008e-21 2.67396e-07)
(1.11416e-06 -1.64711e-08 -3.1597e-20 8.62584e-07 -3.4397e-21 9.87747e-07)
(1.06846e-06 -1.47817e-08 -4.76126e-21 8.26995e-07 -4.28772e-22 9.47149e-07)
(1.01825e-06 -1.35555e-08 -4.93262e-21 7.88063e-07 -5.41889e-22 9.02586e-07)
(9.64604e-07 -1.26303e-08 -7.62901e-21 7.46542e-07 -8.22677e-22 8.55009e-07)
(9.0733e-07 -1.19735e-08 -1.50347e-21 7.02271e-07 -9.56277e-23 8.04248e-07)
(8.48055e-07 -1.14907e-08 2.14114e-20 6.56477e-07 2.49824e-21 7.51788e-07)
(7.86055e-07 -1.11742e-08 2.46992e-20 6.08617e-07 2.86366e-21 6.96859e-07)
(7.24563e-07 -1.10185e-08 -4.18309e-23 5.61172e-07 -2.32917e-23 6.42564e-07)
(6.60836e-07 -1.10872e-08 1.06827e-20 5.12087e-07 1.29637e-21 5.86128e-07)
(5.98895e-07 -1.02581e-08 6.88376e-21 4.64131e-07 8.12597e-22 5.31376e-07)
(5.4519e-07 -9.667e-09 -2.5533e-23 4.22575e-07 -9.07849e-24 4.84031e-07)
(4.94044e-07 -1.00916e-08 -2.70761e-24 3.83369e-07 8.20262e-24 4.38379e-07)
(4.53065e-07 -1.04196e-08 1.88806e-22 3.51916e-07 -9.11334e-24 4.02927e-07)
(3.9695e-07 -1.04637e-08 2.05752e-20 3.08929e-07 2.51199e-21 3.52391e-07)
(3.61599e-07 -9.91042e-09 -2.56317e-20 2.81493e-07 -3.24427e-21 3.2227e-07)
(2.98466e-07 -9.79895e-09 2.58512e-20 2.33342e-07 3.31116e-21 2.64447e-07)
(2.83505e-07 -9.10426e-09 1.15103e-24 2.21331e-07 1.78154e-23 2.54085e-07)
(2.01761e-07 -9.16838e-09 5.54585e-20 1.59916e-07 7.13681e-21 1.77755e-07)
(2.26904e-07 -8.35569e-09 1.15494e-20 1.78028e-07 1.4106e-21 2.06333e-07)
(1.14461e-07 -8.37708e-09 -2.26732e-20 9.80405e-08 -2.99098e-21 9.98918e-08)
(2.1524e-07 -7.08762e-09 4.45906e-23 1.70522e-07 2.78616e-23 2.01788e-07)
(1.56189e-07 -1.34705e-08 1.50953e-19 1.70386e-07 2.01904e-20 1.49799e-07)
(2.69241e-07 -1.47322e-09 6.04167e-23 2.1811e-07 -4.09021e-23 2.62939e-07)
(1.24623e-06 -4.21448e-08 -6.8822e-21 9.74993e-07 -6.99168e-22 1.10811e-06)
(1.24141e-06 -3.7655e-08 -1.57122e-20 9.6915e-07 -1.5357e-21 1.10293e-06)
(1.23373e-06 -3.3796e-08 7.30477e-21 9.60951e-07 7.45368e-22 1.09524e-06)
(1.22181e-06 -3.05322e-08 -1.38422e-20 9.49751e-07 -1.46317e-21 1.08392e-06)
(1.20263e-06 -2.76736e-08 -4.64813e-21 9.33593e-07 -3.94102e-22 1.06649e-06)
(1.17611e-06 -2.51696e-08 1.702e-20 9.12402e-07 1.81734e-21 1.04288e-06)
(1.143e-06 -2.31206e-08 1.77543e-21 8.86472e-07 1.48026e-22 1.01363e-06)
(1.10493e-06 -2.15037e-08 1.44871e-22 8.56813e-07 -4.97217e-23 9.79941e-07)
(1.06212e-06 -2.02631e-08 -5.23008e-21 8.23534e-07 -5.9436e-22 9.42088e-07)
(1.01465e-06 -1.93689e-08 -3.84329e-21 7.86752e-07 -4.16412e-22 9.00056e-07)
(9.62691e-07 -1.86629e-08 5.1227e-23 7.46578e-07 1.59742e-24 8.54091e-07)
(9.06725e-07 -1.80941e-08 4.72639e-24 7.03368e-07 -5.16443e-24 8.04558e-07)
(8.48166e-07 -1.75912e-08 -8.61583e-23 6.58178e-07 6.26615e-24 7.52774e-07)
(7.86653e-07 -1.71473e-08 -3.93754e-21 6.10743e-07 -4.22409e-22 6.98315e-07)
(7.25537e-07 -1.67736e-08 1.90998e-23 5.63634e-07 -1.12517e-23 6.44402e-07)
(6.61824e-07 -1.65402e-08 -1.02148e-20 5.14623e-07 -1.22342e-21 5.8801e-07)
(5.99511e-07 -1.53786e-08 -6.57405e-21 4.66317e-07 -7.79877e-22 5.32905e-07)
(5.45277e-07 -1.44611e-08 -2.50945e-23 4.24304e-07 1.95899e-23 4.8508e-07)
(4.94003e-07 -1.44813e-08 -2.6548e-24 3.85055e-07 7.42679e-23 4.39333e-07)
(4.53316e-07 -1.43966e-08 4.05184e-20 3.53829e-07 5.07047e-21 4.04202e-07)
(3.96895e-07 -1.39475e-08 1.06639e-20 3.10584e-07 1.35614e-21 3.53387e-07)
(3.60839e-07 -1.29634e-08 4.18241e-20 2.82453e-07 5.23955e-21 3.22579e-07)
(2.97759e-07 -1.23407e-08 -2.46366e-20 2.34315e-07 -3.17379e-21 2.64756e-07)
(2.82328e-07 -1.13892e-08 9.01023e-24 2.21777e-07 -4.48725e-24 2.53834e-07)
(2.02429e-07 -1.09311e-08 -3.77897e-20 1.61901e-07 -4.8506e-21 1.79127e-07)
(2.25711e-07 -1.00365e-08 3.18763e-20 1.78234e-07 4.15326e-21 2.05757e-07)
(1.18845e-07 -9.47519e-09 5.50687e-20 1.02985e-07 7.19347e-21 1.04468e-07)
(2.12058e-07 -8.24198e-09 -2.58938e-24 1.68644e-07 -2.18507e-23 1.98926e-07)
(1.62471e-07 -1.43358e-08 -8.46612e-23 1.76509e-07 2.96683e-23 1.55656e-07)
(2.63569e-07 -1.96583e-09 8.1135e-21 2.13903e-07 1.0285e-21 2.57864e-07)
(1.20803e-06 -1.23542e-07 5.56812e-21 1.06915e-06 5.08685e-22 1.12863e-06)
(1.15719e-06 -1.10498e-07 2.10293e-22 1.00394e-06 2.89426e-23 1.0734e-06)
(1.11774e-06 -9.85651e-08 3.44708e-22 9.51876e-07 2.76734e-23 1.02942e-06)
(1.08814e-06 -8.79119e-08 1.65032e-20 9.11438e-07 1.53677e-21 9.94788e-07)
(1.07368e-06 -7.87981e-08 7.47897e-21 8.85942e-07 7.13396e-22 9.7426e-07)
(1.08832e-06 -7.21939e-08 1.20491e-20 8.84998e-07 1.13371e-21 9.80505e-07)
(1.13026e-06 -6.75419e-08 3.87271e-21 9.07009e-07 3.67014e-22 1.01235e-06)
(1.17721e-06 -6.31022e-08 7.17913e-21 9.35223e-07 6.7192e-22 1.05044e-06)
(1.21234e-06 -5.80654e-08 -4.1864e-21 9.55566e-07 -4.66295e-22 1.07904e-06)
(1.22857e-06 -5.24008e-08 -2.54502e-20 9.61764e-07 -2.44231e-21 1.0911e-06)
(1.22815e-06 -4.66446e-08 4.91478e-21 9.56919e-07 5.04281e-22 1.08909e-06)
(1.22249e-06 -4.18217e-08 -6.69947e-21 9.50727e-07 -6.79287e-22 1.0836e-06)
(1.21786e-06 -3.81453e-08 3.69564e-23 9.47467e-07 1.39384e-23 1.0799e-06)
(1.2132e-06 -3.52126e-08 4.419e-23 9.44826e-07 -1.52369e-23 1.07647e-06)
(1.20731e-06 -3.27908e-08 -1.24515e-23 9.40605e-07 1.44229e-24 1.07171e-06)
(1.19874e-06 -3.08736e-08 4.24086e-23 9.33393e-07 -5.03893e-24 1.06408e-06)
(1.18635e-06 -2.94163e-08 1.47656e-23 9.22675e-07 -9.85676e-24 1.05274e-06)
(1.16774e-06 -2.8255e-08 -5.51267e-23 9.07298e-07 -1.49006e-23 1.036e-06)
(1.14029e-06 -2.72616e-08 -8.8736e-21 8.85658e-07 -9.01749e-22 1.01174e-06)
(1.10475e-06 -2.64195e-08 1.79415e-20 8.58191e-07 1.98321e-21 9.80441e-07)
(1.06331e-06 -2.57767e-08 -1.48889e-21 8.26268e-07 -2.1233e-22 9.43995e-07)
(1.0169e-06 -2.52808e-08 3.69793e-21 7.90509e-07 4.16775e-22 9.03073e-07)
(9.65693e-07 -2.48594e-08 3.05995e-23 7.5107e-07 -1.56881e-23 8.57897e-07)
(9.1007e-07 -2.43942e-08 -2.27529e-22 7.08238e-07 -6.58666e-23 8.08746e-07)
(8.51464e-07 -2.38855e-08 -1.92428e-20 6.63114e-07 -2.28812e-21 7.56984e-07)
(7.89776e-07 -2.33235e-08 -1.88149e-20 6.1563e-07 -2.15468e-21 7.02415e-07)
(7.28418e-07 -2.27403e-08 1.36248e-20 5.68398e-07 1.65258e-21 6.48348e-07)
(6.64185e-07 -2.21919e-08 -1.08195e-20 5.19049e-07 -1.33132e-21 5.91502e-07)
(6.01125e-07 -2.06885e-08 6.24929e-21 4.7009e-07 7.72634e-22 5.35694e-07)
(5.46042e-07 -1.94441e-08 -4.58738e-23 4.27361e-07 1.77819e-24 4.8709e-07)
(4.94287e-07 -1.90458e-08 -1.62122e-23 3.87762e-07 -1.61069e-23 4.40912e-07)
(4.53571e-07 -1.8529e-08 -1.45732e-20 3.56447e-07 -1.82977e-21 4.05792e-07)
(3.96674e-07 -1.7559e-08 -2.87637e-20 3.12747e-07 -3.65673e-21 3.54537e-07)
(3.59459e-07 -1.60981e-08 -3.98563e-20 2.83469e-07 -4.98917e-21 3.22607e-07)
(2.96222e-07 -1.49117e-08 1.06892e-20 2.35091e-07 1.39922e-21 2.64595e-07)
(2.79898e-07 -1.36447e-08 5.87872e-21 2.21611e-07 7.76748e-22 2.52718e-07)
(2.01691e-07 -1.26459e-08 2.88657e-20 1.63074e-07 3.71739e-21 1.79502e-07)
(2.2301e-07 -1.16263e-08 1.99337e-20 1.7751e-07 2.58057e-21 2.0408e-07)
(1.21471e-07 -1.05085e-08 -4.7005e-23 1.06692e-07 2.95436e-24 1.07696e-07)
(2.0781e-07 -9.31155e-09 -2.39334e-24 1.66126e-07 1.679e-24 1.95329e-07)
(1.68946e-07 -1.52505e-08 -3.09045e-23 1.83287e-07 1.05735e-23 1.62032e-07)
(2.57217e-07 -2.64096e-09 -7.73654e-21 2.09205e-07 -9.78683e-22 2.52152e-07)
(0.00935606 0.00379428 -5.37427e-18 0.00964927 -2.66532e-19 0.00806424)
(0.00972528 -0.00419546 1.18045e-18 0.0116204 -1.97666e-19 0.00912617)
(0.0262925 -0.0123721 5.14881e-18 0.0301873 6.77826e-19 0.0272676)
(0.0279867 -0.0136666 -7.1876e-18 0.0347896 -3.73833e-19 0.0311295)
(0.0104621 -0.00453954 -9.90286e-18 0.0218961 -1.69367e-18 0.016318)
(0.0402741 0.0202822 3.07458e-17 0.0585592 2.46261e-18 0.0494845)
(0.136296 0.0660232 2.26151e-17 0.163312 3.39729e-18 0.149665)
(0.282762 0.134347 -2.79799e-17 0.320282 -2.38631e-18 0.301295)
(0.470418 0.221583 9.27705e-18 0.521025 -5.17676e-19 0.49538)
(0.680296 0.319408 5.64594e-17 0.747608 5.70542e-18 0.713277)
(0.887997 0.416938 1.10402e-17 0.976142 1.71407e-18 0.930941)
(1.06818 0.502748 3.55492e-17 1.18132 4.5026e-18 1.12332)
(1.19732 0.566087 -5.37822e-17 1.33931 -2.3885e-18 1.26685)
(1.25457 0.597131 -1.72331e-16 1.42805 -1.9448e-17 1.34004)
(1.22119 0.58652 5.53722e-17 1.42542 -2.43361e-18 1.32234)
(1.08125 0.525535 3.56184e-16 1.30915 3.72447e-17 1.19459)
(0.826868 0.408425 4.83795e-17 1.06264 1.12563e-17 0.944479)
(0.472737 0.23804 -7.49567e-17 0.69229 -7.57126e-18 0.582528)
(0.119782 0.0316115 9.45259e-18 0.29594 -1.95303e-18 0.208144)
(0.365832 -0.181336 1.25202e-16 0.476337 1.38449e-17 0.421617)
(0.789767 -0.362697 -6.55514e-17 0.823512 -7.93938e-18 0.80732)
(1.05798 -0.467768 2.1504e-16 1.02204 2.4389e-17 1.04074)
(1.05647 -0.45672 -2.87019e-16 0.980138 -2.86254e-17 1.01881)
(0.759748 -0.323711 2.43201e-16 0.687842 1.74092e-17 0.723755)
(0.347868 -0.146959 9.55989e-17 0.31068 1.04892e-17 0.328992)
(0.0897319 -0.0378095 8.14457e-18 0.0798528 1.18953e-18 0.0846227)
(0.0126922 -0.00536782 3.78797e-18 0.0113826 7.39725e-20 0.0119781)
(0.00104179 -0.000443336 4.80792e-18 0.000947064 4.51616e-19 0.000984316)
(8.30778e-07 -2.66055e-08 -2.85497e-23 8.25035e-07 6.91726e-25 8.27208e-07)
(6.27098e-08 -1.94664e-10 1.27098e-24 6.26626e-08 1.34497e-25 6.26823e-08)
(0 -0 -0 0 -0 0)
(3.25116e-08 -8.16276e-11 -2.68496e-24 3.24908e-08 -2.61214e-25 3.2498e-08)
(5.02429e-07 -2.32761e-08 8.84287e-23 4.96217e-07 4.20918e-24 4.97644e-07)
(1.0197e-06 -1.06208e-07 -2.23204e-21 9.84542e-07 -2.2125e-22 9.90801e-07)
(1.02095e-06 -1.15769e-07 5.94242e-21 9.66405e-07 5.40616e-22 9.78652e-07)
(9.43017e-07 -1.02783e-07 -1.85507e-21 8.71198e-07 -1.30768e-22 8.93505e-07)
(9.04483e-07 -9.25333e-08 -5.21333e-21 8.11102e-07 -4.78208e-22 8.47425e-07)
(8.9594e-07 -8.44614e-08 -4.72927e-21 7.80628e-07 -4.60563e-22 8.31013e-07)
(8.95716e-07 -7.6603e-08 4.39037e-21 7.62287e-07 3.98918e-22 8.23869e-07)
(8.92442e-07 -6.82699e-08 8.10412e-25 7.4579e-07 5.22283e-24 8.15185e-07)
(8.80051e-07 -5.95171e-08 -9.96578e-24 7.25737e-07 1.63113e-24 7.99099e-07)
(8.65845e-07 -5.12961e-08 -6.14976e-24 7.06655e-07 1.79673e-24 7.81725e-07)
(8.63321e-07 -4.42407e-08 -6.70923e-24 6.98133e-07 1.58419e-24 7.75495e-07)
(8.88147e-07 -3.91049e-08 -4.44411e-24 7.12283e-07 7.66556e-26 7.94931e-07)
(9.53267e-07 -3.71005e-08 -2.16212e-22 7.58622e-07 -2.46143e-23 8.51193e-07)
(1.04726e-06 -3.76477e-08 -6.10292e-21 8.27762e-07 -5.86973e-22 9.33559e-07)
(1.13835e-06 -3.85601e-08 4.6523e-23 8.94153e-07 3.44329e-23 1.0131e-06)
(1.20089e-06 -3.79807e-08 1.85477e-20 9.37103e-07 1.82458e-21 1.06642e-06)
(1.22799e-06 -3.58732e-08 2.22837e-23 9.52739e-07 -2.39304e-23 1.08816e-06)
(1.23308e-06 -3.37161e-08 4.94603e-21 9.53664e-07 4.94815e-22 1.09132e-06)
(1.22997e-06 -3.25135e-08 -1.24225e-21 9.51284e-07 -1.26187e-22 1.08869e-06)
(1.22146e-06 -3.18558e-08 8.21886e-21 9.46898e-07 8.52337e-22 1.08245e-06)
(1.20612e-06 -3.12816e-08 1.42401e-23 9.37599e-07 -1.62424e-23 1.07039e-06)
(1.18756e-06 -3.09082e-08 4.70824e-24 9.24655e-07 -6.85274e-24 1.05481e-06)
(1.16819e-06 -3.08951e-08 -7.66236e-24 9.09707e-07 2.2208e-23 1.03786e-06)
(1.145e-06 -3.11055e-08 8.43749e-21 8.91293e-07 8.6103e-22 1.01725e-06)
(1.11308e-06 -3.13037e-08 -1.87705e-20 8.66507e-07 -2.05514e-21 9.89067e-07)
(1.07274e-06 -3.13924e-08 4.75249e-21 8.35684e-07 5.70255e-22 9.53677e-07)
(1.02574e-06 -3.13698e-08 -1.5622e-23 7.99855e-07 -2.94242e-24 9.12411e-07)
(9.73887e-07 -3.12398e-08 6.65955e-23 7.60239e-07 -3.68198e-23 8.66793e-07)
(9.17521e-07 -3.09134e-08 -1.06002e-20 7.17059e-07 -1.23107e-21 8.17062e-07)
(8.58161e-07 -3.04102e-08 1.03683e-22 6.71522e-07 2.75601e-24 7.64697e-07)
(7.95628e-07 -2.9737e-08 3.51349e-21 6.23523e-07 3.82215e-22 7.09432e-07)
(7.33456e-07 -2.89339e-08 -7.59457e-23 5.75752e-07 1.64308e-23 6.54684e-07)
(6.6818e-07 -2.8042e-08 7.43585e-23 5.25657e-07 -2.52281e-23 5.96886e-07)
(6.04083e-07 -2.61989e-08 -5.96913e-21 4.75825e-07 -7.49541e-22 5.401e-07)
(5.47896e-07 -2.46274e-08 -1.37374e-20 4.32182e-07 -1.6883e-21 4.90473e-07)
(4.95336e-07 -2.37981e-08 -8.96963e-21 3.91953e-07 -1.08528e-21 4.43551e-07)
(4.54245e-07 -2.28318e-08 4.46989e-21 3.60212e-07 6.00356e-22 4.08087e-07)
(3.96754e-07 -2.13228e-08 2.13325e-20 3.15903e-07 2.67765e-21 3.56263e-07)
(3.57966e-07 -1.93461e-08 1.91598e-20 2.85046e-07 2.36703e-21 3.22793e-07)
(2.94416e-07 -1.75515e-08 -1.84357e-23 2.3622e-07 -3.8501e-23 2.64448e-07)
(2.76646e-07 -1.59076e-08 -2.55495e-20 2.21241e-07 -3.28707e-21 2.5109e-07)
(2.00055e-07 -1.4339e-08 -3.05917e-23 1.6392e-07 1.12058e-23 1.79319e-07)
(2.19022e-07 -1.31417e-08 -1.91323e-20 1.76052e-07 -2.43548e-21 2.01463e-07)
(1.22644e-07 -1.14702e-08 1.46564e-20 1.09456e-07 1.95052e-21 1.0986e-07)
(2.02523e-07 -1.0276e-08 -3.31731e-23 1.62983e-07 -5.71179e-24 1.91025e-07)
(1.75132e-07 -1.616e-08 -6.02755e-20 1.90241e-07 -8.08902e-21 1.68485e-07)
(2.50226e-07 -3.44011e-09 7.36853e-21 2.0407e-07 9.41693e-22 2.45858e-07)
(0.0397004 -0.0186141 -1.41748e-20 0.0467161 -3.22627e-19 0.0408426)
(0.07502 -0.0355128 1.62059e-17 0.0868864 1.49699e-18 0.0786272)
(0.090677 -0.0433652 6.94935e-18 0.106495 1.19418e-18 0.0969106)
(0.0796768 -0.0389077 -6.63627e-18 0.0994262 -3.47863e-19 0.0885831)
(0.0454662 -0.0228499 -7.85171e-18 0.0695288 -8.67079e-19 0.0571773)
(0.021856 0.00707195 1.35729e-19 0.0517461 -1.47149e-19 0.0366295)
(0.108583 0.0540601 1.26844e-19 0.145791 -4.60699e-19 0.12678)
(0.247029 0.119105 2.76651e-17 0.292086 3.06153e-18 0.269005)
(0.41963 0.198938 -2.31741e-17 0.472662 -2.55203e-18 0.445697)
(0.609196 0.286293 6.43816e-17 0.670798 6.13683e-18 0.639639)
(0.794055 0.371578 -2.22979e-17 0.865325 -1.16905e-18 0.829175)
(0.952075 0.44488 2.00977e-19 1.03409 -1.51098e-18 0.992275)
(1.06391 0.497481 8.61467e-17 1.15754 8.56931e-18 1.10975)
(1.11459 0.52262 -1.37999e-18 1.22071 2.50269e-18 1.16675)
(1.09361 0.515436 -8.73441e-17 1.21296 -8.25516e-18 1.15262)
(0.994046 0.472398 -2.31076e-18 1.12623 -6.4182e-19 1.05972)
(0.812493 0.391092 -9.90846e-17 0.954169 -1.23657e-17 0.883041)
(0.552517 0.271502 1.07981e-16 0.695513 9.22363e-18 0.623691)
(0.237708 0.119617 7.2918e-17 0.368615 8.67378e-18 0.30271)
(0.108042 -0.0499851 5.4454e-17 0.210661 4.49632e-18 0.158856)
(0.453572 -0.215398 1.6615e-16 0.513076 2.06571e-17 0.482976)
(0.763726 -0.345582 -3.03001e-16 0.772308 -3.16755e-17 0.768023)
(0.915014 -0.403296 2.66855e-16 0.878914 2.63727e-17 0.897407)
(0.825315 -0.357652 -2.58699e-16 0.768842 -2.2265e-17 0.797614)
(0.516975 -0.221678 -1.19349e-19 0.472944 -1.88723e-18 0.495204)
(0.196565 -0.0839397 -4.66193e-20 0.178599 3.35188e-19 0.187629)
(0.0411044 -0.0176163 -1.61e-17 0.0375895 -1.2347e-18 0.039331)
(0.00484656 -0.0020996 -6.99868e-18 0.00452354 -6.98956e-19 0.00466901)
(0.000359872 -0.000156575 1.23684e-19 0.000339508 3.73119e-21 0.000346854)
(3.79558e-06 -6.71456e-07 -1.51326e-21 3.67003e-06 -1.52997e-22 3.72069e-06)
(1.77834e-07 -2.12654e-09 2.58737e-24 1.77273e-07 1.40663e-26 1.77523e-07)
(3.89982e-09 -1.35155e-12 2.7524e-26 3.89938e-09 2.61061e-27 3.89957e-09)
(6.62978e-08 -5.27329e-10 3.62261e-27 6.60889e-08 3.66033e-27 6.61638e-08)
(5.91484e-07 -5.06858e-08 2.64281e-21 5.63582e-07 2.53135e-22 5.72434e-07)
(7.09881e-07 -7.90302e-08 -4.97499e-21 6.41189e-07 -4.45168e-22 6.6479e-07)
(6.81769e-07 -6.83541e-08 1.38918e-21 5.86272e-07 1.07768e-22 6.24688e-07)
(7.00249e-07 -5.76606e-08 -1.06666e-24 5.78215e-07 -6.93945e-24 6.33801e-07)
(7.64598e-07 -5.13527e-08 6.79554e-21 6.14434e-07 6.3753e-22 6.87432e-07)
(8.37094e-07 -4.71341e-08 -1.87593e-21 6.62372e-07 -1.65767e-22 7.49134e-07)
(8.96989e-07 -4.3268e-08 2.41447e-21 7.03897e-07 2.22915e-22 7.99867e-07)
(9.36111e-07 -3.90216e-08 1.23445e-21 7.31935e-07 1.16727e-22 8.32672e-07)
(9.52221e-07 -3.43878e-08 -6.36466e-24 7.4397e-07 -2.38947e-25 8.45538e-07)
(9.35838e-07 -2.85762e-08 6.22845e-21 7.33592e-07 5.91433e-22 8.31217e-07)
(9.04368e-07 -2.21638e-08 -3.17234e-24 7.12337e-07 -1.834e-24 8.04861e-07)
(8.93774e-07 -1.72499e-08 1.83791e-22 7.05731e-07 2.39836e-23 7.9695e-07)
(9.28398e-07 -1.58858e-08 4.04527e-21 7.32869e-07 3.9415e-22 8.28643e-07)
(9.9961e-07 -1.8429e-08 2.04209e-23 7.89481e-07 -8.5907e-24 8.93182e-07)
(1.09398e-06 -2.3037e-08 -3.63307e-23 8.63128e-07 1.47117e-23 9.77521e-07)
(1.18393e-06 -2.69215e-08 9.03995e-21 9.29331e-07 9.01226e-22 1.05574e-06)
(1.24112e-06 -2.86908e-08 -4.32783e-21 9.67044e-07 -4.50793e-22 1.10326e-06)
(1.26608e-06 -2.95793e-08 2.25151e-23 9.80065e-07 -1.53219e-23 1.12227e-06)
(1.27056e-06 -3.09341e-08 -8.06733e-21 9.80695e-07 -8.26298e-22 1.12488e-06)
(1.25901e-06 -3.25844e-08 1.51519e-23 9.73076e-07 1.90459e-23 1.11539e-06)
(1.232e-06 -3.37479e-08 4.93919e-24 9.55942e-07 1.02659e-23 1.09341e-06)
(1.19701e-06 -3.44984e-08 7.80452e-21 9.32415e-07 8.46132e-22 1.06429e-06)
(1.16284e-06 -3.5342e-08 1.01754e-21 9.0774e-07 1.12843e-22 1.03502e-06)
(1.12919e-06 -3.644e-08 1.63362e-21 8.82112e-07 1.52511e-22 1.0055e-06)
(1.0903e-06 -3.7411e-08 -3.12867e-21 8.52308e-07 -3.75011e-22 9.71277e-07)
(1.04285e-06 -3.79729e-08 -8.47284e-21 8.16299e-07 -9.03902e-22 9.2964e-07)
(9.88724e-07 -3.81152e-08 2.52641e-20 7.7532e-07 2.94409e-21 8.82138e-07)
(9.29857e-07 -3.7881e-08 1.03222e-20 7.30581e-07 1.17598e-21 8.30328e-07)
(8.68457e-07 -3.73478e-08 1.74607e-20 6.83739e-07 2.05221e-21 7.76256e-07)
(8.04078e-07 -3.65138e-08 2.02394e-20 6.34493e-07 2.36989e-21 7.19413e-07)
(7.40347e-07 -3.54391e-08 -1.56916e-20 5.85623e-07 -1.88325e-21 6.63303e-07)
(6.73312e-07 -3.41481e-08 2.17139e-20 5.34218e-07 2.66229e-21 6.03894e-07)
(6.07919e-07 -3.19399e-08 -5.63641e-21 4.83308e-07 -7.36355e-22 5.45883e-07)
(5.50406e-07 -3.00328e-08 -1.06971e-23 4.38591e-07 2.22974e-23 4.95029e-07)
(4.96735e-07 -2.87458e-08 4.70141e-21 3.97467e-07 5.73229e-22 4.47048e-07)
(4.54968e-07 -2.72981e-08 -3.94998e-21 3.64983e-07 -4.80074e-22 4.10908e-07)
(3.96899e-07 -2.52371e-08 1.67977e-20 3.20017e-07 2.15803e-21 3.5848e-07)
(3.56248e-07 -2.27193e-08 1.2814e-20 2.87246e-07 1.62579e-21 3.23135e-07)
(2.92365e-07 -2.02817e-08 -2.77486e-24 2.37865e-07 3.09243e-24 2.64415e-07)
(2.72715e-07 -1.82087e-08 1.64214e-20 2.20897e-07 2.1052e-21 2.49119e-07)
(1.97795e-07 -1.60326e-08 3.9953e-24 1.64772e-07 -4.93319e-23 1.78865e-07)
(2.13964e-07 -1.4607e-08 -5.5683e-20 1.74094e-07 -7.26232e-21 1.98105e-07)
(1.22718e-07 -1.23665e-08 -1.39879e-20 1.11647e-07 -1.8188e-21 1.11311e-07)
(1.96281e-07 -1.11287e-08 -3.58968e-20 1.59274e-07 -4.64718e-21 1.86074e-07)
(1.80469e-07 -1.70086e-08 6.07236e-20 1.96744e-07 8.17614e-21 1.74472e-07)
(2.4273e-07 -4.28847e-09 -7.02499e-21 1.98617e-07 -8.98106e-22 2.39115e-07)
(0.110448 -0.0518001 -2.76225e-20 0.122285 1.46701e-19 0.114972)
(0.138348 -0.0653805 9.06036e-20 0.156289 8.66989e-20 0.145486)
(0.134828 -0.0644353 -6.81635e-18 0.157043 -8.42369e-19 0.144189)
(0.106464 -0.051893 1.08336e-17 0.132451 8.85326e-19 0.117875)
(0.0592622 -0.0296729 2.14309e-18 0.0882098 6.62687e-19 0.0727285)
(0.0214467 0.00342289 -1.15072e-17 0.0546616 -1.13979e-18 0.0371102)
(0.0997044 0.0497147 8.74734e-18 0.139059 5.40887e-19 0.117834)
(0.228315 0.110373 8.11121e-20 0.274104 1.15451e-19 0.249186)
(0.38656 0.183406 -9.35802e-20 0.437569 1.00691e-19 0.410396)
(0.560969 0.263301 6.28242e-19 0.616095 -1.81582e-19 0.587875)
(0.73303 0.341954 -1.89798e-19 0.792257 -4.37972e-19 0.762937)
(0.882398 0.410309 3.90951e-17 0.946211 3.68441e-18 0.91505)
(0.9904 0.45992 2.54587e-19 1.05881 2.56471e-19 1.0254)
(1.04247 0.484149 -8.83727e-19 1.11481 -4.97203e-19 1.07937)
(1.02923 0.478746 6.02373e-17 1.10469 6.60719e-18 1.06762)
(0.946515 0.441833 1.5598e-18 1.02451 -1.80376e-19 0.985979)
(0.794886 0.373542 4.25279e-17 0.874732 3.4339e-18 0.834841)
(0.579358 0.275699 7.84696e-17 0.659228 8.52785e-18 0.618598)
(0.312411 0.152749 4.12926e-19 0.388109 1.38673e-18 0.348659)
(0.0463446 0.0133976 -5.0451e-17 0.110851 -4.56763e-18 0.0761908)
(0.270797 -0.129504 -6.00372e-17 0.315181 -9.57906e-18 0.290166)
(0.564731 -0.257123 2.78003e-16 0.580433 2.92462e-17 0.569882)
(0.770554 -0.342665 -2.73233e-16 0.75421 -2.47229e-17 0.760358)
(0.811739 -0.355372 3.72308e-19 0.771004 -9.82219e-19 0.790301)
(0.64028 -0.277238 -5.47187e-17 0.596058 -4.83063e-18 0.617784)
(0.335484 -0.144386 -1.18718e-19 0.30898 -2.60387e-19 0.322157)
(0.101312 -0.0436314 -7.55323e-18 0.0933891 -6.63403e-19 0.0973713)
(0.0164904 -0.00716877 -2.81593e-20 0.0154535 5.17523e-20 0.0159727)
(0.00160918 -0.000708274 -2.36184e-18 0.00154531 -2.18232e-19 0.00157226)
(0.000126644 -5.48974e-05 -2.22201e-22 0.000118698 -2.57882e-21 0.0001217)
(4.32593e-07 -1.52885e-08 1.42615e-25 4.27562e-07 3.21039e-25 4.29788e-07)
(4.81978e-08 -2.41259e-10 -1.23746e-25 4.80655e-08 -4.91524e-27 4.81265e-08)
(1.97326e-08 -5.3923e-11 -3.97785e-25 1.96857e-08 -2.53346e-26 1.97072e-08)
(2.70476e-07 -1.16617e-08 -1.27809e-21 2.52503e-07 -1.19724e-22 2.60756e-07)
(5.93765e-07 -3.8114e-08 5.31034e-21 4.70517e-07 4.64968e-22 5.29121e-07)
(7.37009e-07 -2.49428e-08 -1.87917e-21 5.42286e-07 -1.57852e-22 6.39806e-07)
(8.46546e-07 -1.11066e-08 5.45421e-24 6.18568e-07 7.63704e-24 7.37717e-07)
(9.57042e-07 -4.73579e-09 -2.01644e-21 7.0235e-07 -1.84003e-22 8.37957e-07)
(1.06455e-06 -2.96066e-09 -3.84067e-21 7.82712e-07 -3.59792e-22 9.31804e-07)
(1.1647e-06 -3.77061e-09 -2.59544e-24 8.56622e-07 -2.60404e-24 1.01649e-06)
(1.26214e-06 -6.3205e-09 -2.48769e-23 9.28359e-07 -1.17214e-23 1.0984e-06)
(1.34669e-06 -1.02767e-08 5.64619e-21 9.92184e-07 5.20513e-22 1.17064e-06)
(1.4005e-06 -1.47052e-08 -7.03091e-21 1.03604e-06 -6.73515e-22 1.21825e-06)
(1.40415e-06 -1.66743e-08 -1.64345e-21 1.04569e-06 -1.56752e-22 1.22474e-06)
(1.33444e-06 -1.34547e-08 -9.54626e-24 1.00497e-06 -1.02811e-24 1.17042e-06)
(1.19769e-06 -7.08354e-09 3.20383e-24 9.18352e-07 4.78404e-24 1.05973e-06)
(1.10296e-06 -4.00913e-09 2.39019e-23 8.57141e-07 -2.47995e-25 9.82239e-07)
(1.07885e-06 -7.08875e-09 -2.27271e-23 8.46346e-07 -1.66221e-23 9.64732e-07)
(1.10192e-06 -1.39431e-08 -7.73755e-21 8.72461e-07 -7.51996e-22 9.88889e-07)
(1.17118e-06 -2.08654e-08 9.58168e-21 9.28237e-07 9.83189e-22 1.05106e-06)
(1.23741e-06 -2.5769e-08 9.72433e-22 9.75277e-07 8.00705e-23 1.10757e-06)
(1.28219e-06 -2.93534e-08 -1.44394e-24 1.00155e-06 -3.16426e-24 1.14316e-06)
(1.30413e-06 -3.315e-08 1.70121e-23 1.01102e-06 6.49387e-25 1.1589e-06)
(1.30089e-06 -3.7135e-08 5.2683e-24 1.00589e-06 -2.29624e-23 1.15462e-06)
(1.26828e-06 -3.99968e-08 -7.84797e-21 9.83591e-07 -8.34493e-22 1.12702e-06)
(1.21682e-06 -4.14659e-08 -1.00953e-21 9.48835e-07 -8.69692e-23 1.0838e-06)
(1.16301e-06 -4.24988e-08 4.93514e-22 9.11043e-07 6.58982e-23 1.03793e-06)
(1.11406e-06 -4.37005e-08 8.48454e-21 8.74994e-07 9.60089e-22 9.95392e-07)
(1.06466e-06 -4.4802e-08 3.19105e-21 8.37687e-07 2.75112e-22 9.51995e-07)
(1.0093e-06 -4.53469e-08 -3.42079e-20 7.95833e-07 -3.95921e-21 9.03321e-07)
(9.47611e-07 -4.52258e-08 -6.04885e-21 7.49223e-07 -6.43628e-22 8.49065e-07)
(8.82887e-07 -4.45821e-08 6.88651e-21 7.00152e-07 7.7812e-22 7.9214e-07)
(8.15532e-07 -4.35058e-08 -3.31213e-20 6.48848e-07 -3.94727e-21 7.327e-07)
(7.49307e-07 -4.20872e-08 1.17602e-20 5.98163e-07 1.46636e-21 6.74369e-07)
(6.79826e-07 -4.03427e-08 -5.98427e-21 5.44903e-07 -7.24223e-22 6.12698e-07)
(6.12906e-07 -3.7747e-08 6.3996e-21 4.92736e-07 7.68491e-22 5.5325e-07)
(5.54014e-07 -3.55053e-08 -1.99411e-20 4.46934e-07 -2.49099e-21 5.01121e-07)
(4.9891e-07 -3.37211e-08 7.35571e-21 4.04619e-07 9.62661e-22 4.51737e-07)
(4.56101e-07 -3.17726e-08 3.76141e-21 3.71029e-07 4.6787e-22 4.14516e-07)
(3.97529e-07 -2.91547e-08 3.33639e-21 3.254e-07 4.24997e-22 3.61501e-07)
(3.5484e-07 -2.61082e-08 -1.43015e-20 2.905e-07 -1.83169e-21 3.24056e-07)
(2.90661e-07 -2.30211e-08 -2.54726e-24 2.40519e-07 3.94325e-24 2.64961e-07)
(2.68719e-07 -2.0503e-08 -1.56272e-20 2.21092e-07 -2.01731e-21 2.4728e-07)
(1.95673e-07 -1.77007e-08 -2.59553e-24 1.66285e-07 4.80422e-23 1.78755e-07)
(2.08406e-07 -1.60241e-08 7.03942e-20 1.72104e-07 9.14121e-21 1.94428e-07)
(1.22448e-07 -1.31861e-08 -9.14287e-24 1.13919e-07 -1.58645e-23 1.12681e-07)
(1.89473e-07 -1.18724e-08 3.42429e-20 1.55273e-07 4.42143e-21 1.80762e-07)
(1.84824e-07 -1.77464e-08 -7.36953e-20 2.02584e-07 -9.91211e-21 1.798e-07)
(2.34795e-07 -5.1072e-09 1.90649e-23 1.92889e-07 3.14753e-24 2.31984e-07)