/*--------------------------------*- C++ -*----------------------------------*\
| =========                 |                                                 |
| \\      /  F ield         | OpenFOAM: The Open Source CFD Toolbox           |
|  \\    /   O peration     | Version:  2306                                  |
|   \\  /    A nd           | Website:  www.openfoam.com                      |
|    \\/     M anipulation  |                                                 |
\*---------------------------------------------------------------------------*/
FoamFile
{
    version     2.0;
    format      ascii;
    arch        "LSB;label=32;scalar=64";
    class       volVectorField;
    location    "75";
    object      U;
}
// * * * * * * * * * * * * * * * * * * * * * * * * * * * * * * * * * * * * * //

dimensions      [0 1 -1 0 0 0 0];

internalField   nonuniform List<vector> 
1340
(
(25.8624 3.22149 4.21574e-17)
(25.7918 3.43232 1.19526e-17)
(25.8579 3.22652 -2.28649e-17)
(25.8206 3.29801 -2.11033e-16)
(25.7922 3.43474 2.73565e-19)
(25.8543 3.23122 -1.95361e-19)
(25.8098 3.35757 9.49227e-17)
(25.8169 3.29972 -3.12158e-18)
(25.792 3.43718 -1.73376e-17)
(25.8511 3.23565 1.06373e-16)
(25.8222 3.30695 3.31346e-16)
(25.8188 3.30112 1.74301e-16)
(25.8062 3.35993 -4.37625e-17)
(25.8128 3.30167 7.59784e-17)
(25.7914 3.43955 7.8799e-17)
(25.8478 3.23992 -1.06677e-16)
(25.8304 3.26132 -5.94788e-17)
(25.824 3.27463 1.53506e-17)
(25.8151 3.30876 -4.99108e-18)
(25.8126 3.30265 -1.96864e-18)
(25.8023 3.36244 -3.18146e-17)
(25.8086 3.3039 4.97597e-18)
(25.7906 3.44183 9.49973e-19)
(25.8446 3.24401 -2.5676e-19)
(25.8393 3.19115 1.70047e-16)
(25.8323 3.21559 2.05581e-16)
(25.8261 3.23611 2.40211e-16)
(25.8193 3.26286 9.12832e-17)
(25.8145 3.2762 -9.47061e-18)
(25.8074 3.31104 -1.42207e-16)
(25.806 3.30465 -2.97372e-17)
(25.798 3.36514 7.16325e-17)
(25.8042 3.30639 -7.33851e-17)
(25.7895 3.44404 1.01819e-20)
(25.8416 3.24789 -2.61015e-19)
(25.8407 3.11683 4.75551e-17)
(25.8333 3.14514 -2.12739e-16)
(25.8272 3.16886 -2.37811e-17)
(25.8219 3.19225 -1.31421e-16)
(25.8168 3.2172 -3.52734e-18)
(25.8125 3.23796 -6.18649e-18)
(25.8075 3.26521 -7.39422e-17)
(25.8043 3.27853 8.79369e-18)
(25.7992 3.3139 -7.04293e-19)
(25.799 3.30721 -1.68381e-18)
(25.7934 3.36811 -2.19025e-18)
(25.7996 3.30922 3.56859e-18)
(25.7879 3.44624 -7.95504e-17)
(25.8389 3.25163 -5.57326e-17)
(25.8363 2.97515 1.36235e-16)
(25.8311 3.01257 -1.05446e-16)
(25.8259 3.04887 -4.97004e-17)
(25.8208 3.08448 1.6336e-17)
(25.8163 3.11815 -4.81516e-20)
(25.8112 3.14686 6.96857e-18)
(25.807 3.17092 7.56418e-19)
(25.8037 3.19461 1.39369e-16)
(25.8006 3.21994 5.82587e-17)
(25.7981 3.24087 -8.02026e-17)
(25.7951 3.26848 7.2101e-17)
(25.7936 3.2817 -3.78362e-19)
(25.7905 3.3174 1.2175e-16)
(25.7916 3.31039 2.28447e-17)
(25.7883 3.37144 -3.99648e-17)
(25.7948 3.31245 7.23196e-17)
(25.786 3.44849 6.7312e-17)
(25.8363 3.25532 7.27375e-17)
(25.8105 2.78506 1.25444e-16)
(25.8091 2.82324 2.06268e-17)
(25.8072 2.86176 1.97461e-17)
(25.805 2.90038 2.37886e-17)
(25.8026 2.93893 6.0013e-18)
(25.8 2.97706 -9.01576e-17)
(25.7974 3.01472 -9.15917e-17)
(25.7949 3.05131 2.03173e-18)
(25.7926 3.08725 -3.97679e-17)
(25.7908 3.12121 -2.33677e-17)
(25.7881 3.15021 7.12519e-18)
(25.7859 3.17448 7.76292e-19)
(25.7847 3.19835 -5.66184e-18)
(25.7837 3.22393 -6.55807e-17)
(25.7832 3.24492 6.65269e-17)
(25.7821 3.27273 -6.49332e-17)
(25.7824 3.28579 -4.01896e-19)
(25.7814 3.32162 -1.23062e-16)
(25.7838 3.31427 -2.68808e-17)
(25.7828 3.37518 3.39367e-17)
(25.7897 3.31616 1.30317e-18)
(25.7837 3.45086 -1.15718e-16)
(25.8338 3.25908 -1.11241e-18)
(25.7421 2.55354 1.45811e-17)
(25.7472 2.58307 4.38569e-17)
(25.7514 2.61415 -2.17751e-17)
(25.7547 2.64669 4.35246e-17)
(25.7572 2.6806 1.54107e-17)
(25.7591 2.71574 -5.84012e-17)
(25.7604 2.75202 -6.35875e-18)
(25.7612 2.78923 -6.88091e-18)
(25.7617 2.82715 1.87486e-17)
(25.7619 2.86559 1.25464e-17)
(25.7621 2.90423 -8.08178e-18)
(25.7622 2.94291 -3.02216e-19)
(25.7623 2.98122 -2.10681e-18)
(25.7625 3.01909 2.20233e-17)
(25.7628 3.0559 2.03967e-18)
(25.7633 3.09208 3.48664e-17)
(25.7644 3.12619 2.31818e-17)
(25.7641 3.15535 7.24012e-18)
(25.7642 3.1797 7.91018e-19)
(25.7651 3.20361 -1.21112e-16)
(25.7663 3.22929 -3.30973e-17)
(25.7678 3.2502 -1.15372e-16)
(25.7689 3.27804 6.29329e-17)
(25.7709 3.29085 -4.15537e-19)
(25.7721 3.32659 7.52695e-17)
(25.7757 3.31887 -6.54197e-17)
(25.7771 3.37937 -8.6114e-17)
(25.7844 3.32039 1.44349e-18)
(25.7811 3.45341 4.50241e-18)
(25.8315 3.26303 -1.71939e-17)
(25.5562 2.35264 5.04209e-18)
(25.5736 2.362 -8.49303e-20)
(25.5894 2.37291 -9.33222e-20)
(25.6038 2.38514 1.3759e-18)
(25.6166 2.39847 -1.42878e-18)
(25.6283 2.41295 -6.54048e-18)
(25.639 2.42892 -2.75201e-18)
(25.6493 2.44677 -6.84087e-18)
(25.6591 2.4667 5.28856e-18)
(25.6678 2.48852 3.6e-17)
(25.675 2.51194 -1.20205e-17)
(25.6808 2.53686 1.262e-17)
(25.6858 2.56345 -4.21506e-18)
(25.6904 2.59182 -3.53042e-18)
(25.6946 2.62202 1.67922e-18)
(25.6983 2.65392 -3.22739e-18)
(25.7017 2.68734 -1.10008e-18)
(25.7046 2.72212 4.01536e-18)
(25.7073 2.75817 2.67014e-17)
(25.7098 2.79525 -6.15983e-17)
(25.7123 2.83316 2.91891e-18)
(25.7148 2.87168 -1.45951e-17)
(25.7174 2.91048 -7.89964e-18)
(25.7201 2.94935 3.91898e-19)
(25.723 2.98785 6.09049e-17)
(25.7261 3.0259 6.83662e-17)
(25.7294 3.06286 -4.16407e-17)
(25.733 3.09918 3.16706e-17)
(25.737 3.13331 -1.9178e-17)
(25.7394 3.16249 7.34663e-18)
(25.7418 3.18677 8.05048e-19)
(25.745 3.21056 4.3418e-17)
(25.7486 3.23616 7.34138e-17)
(25.7523 3.25684 1.00818e-16)
(25.7555 3.28451 -2.56728e-17)
(25.7593 3.29695 -1.35149e-17)
(25.7626 3.33237 -6.29156e-17)
(25.7677 3.32422 -3.61655e-17)
(25.7712 3.38403 2.75809e-18)
(25.7791 3.32519 1.52763e-18)
(25.7782 3.45622 5.23699e-18)
(25.8292 3.26729 1.47076e-17)
(25.4763 2.61608 -1.06132e-18)
(25.4732 2.61267 2.46269e-19)
(25.499 2.60929 7.24408e-19)
(25.5328 2.60595 -6.60292e-19)
(25.5558 2.60198 -7.35367e-19)
(25.5493 2.59625 1.87842e-18)
(25.4952 2.58838 1.10465e-18)
(25.3791 2.57859 -1.05421e-18)
(25.1929 2.56686 2.60175e-19)
(24.9355 2.55267 1.85744e-18)
(24.612 2.53533 2.99354e-19)
(24.2324 2.51424 8.97409e-19)
(23.8105 2.48884 -1.09903e-18)
(23.363 2.45849 -4.00468e-18)
(22.9103 2.42265 1.29819e-18)
(22.4788 2.38133 8.58113e-18)
(22.1034 2.33574 1.21401e-18)
(21.8286 2.28887 -1.43455e-18)
(21.7047 2.24582 5.09737e-19)
(21.7752 2.21303 3.81647e-18)
(22.0621 2.19651 -2.12253e-18)
(22.5542 2.19999 7.66436e-18)
(23.2003 2.2234 -1.19169e-17)
(23.8997 2.26069 1.33643e-17)
(24.5095 2.29929 9.03192e-18)
(24.916 2.32691 1.58526e-18)
(25.1241 2.34076 2.05102e-18)
(25.2217 2.34643 1.88126e-17)
(25.281 2.34975 -1.58569e-18)
(25.3285 2.3531 5.40567e-18)
(25.3685 2.35648 -1.10257e-17)
(25.4014 2.35928 -1.48176e-17)
(25.4286 2.36125 1.28191e-18)
(25.4518 2.36276 -5.4156e-18)
(25.4723 2.36442 1.02927e-17)
(25.4909 2.36685 -2.80563e-18)
(25.508 2.37076 -6.69853e-18)
(25.5238 2.37657 -4.87111e-18)
(25.5385 2.38412 3.43864e-18)
(25.5519 2.3933 -4.2434e-20)
(25.564 2.40383 6.46603e-19)
(25.5746 2.41544 4.76497e-19)
(25.5834 2.42796 4.20509e-19)
(25.5907 2.4417 3.87937e-19)
(25.5971 2.45723 9.695e-19)
(25.6034 2.47521 4.97311e-18)
(25.6104 2.49595 -3.67381e-18)
(25.6173 2.51921 -2.534e-17)
(25.6234 2.54437 -1.14659e-18)
(25.6281 2.57104 -1.12632e-17)
(25.6321 2.5992 -8.00346e-19)
(25.6358 2.62915 -1.47804e-17)
(25.6397 2.66096 -2.85406e-18)
(25.6438 2.69448 -9.88698e-19)
(25.6478 2.72947 3.66297e-18)
(25.6519 2.76577 -2.57451e-17)
(25.6562 2.80314 5.31125e-17)
(25.6607 2.84137 -1.58148e-17)
(25.6656 2.88021 -9.96167e-19)
(25.6708 2.91933 -7.63517e-18)
(25.6764 2.95847 3.12427e-17)
(25.6822 2.9972 -9.97026e-18)
(25.6884 3.03542 -1.04568e-17)
(25.6949 3.07247 7.11797e-18)
(25.7017 3.10883 -6.21723e-18)
(25.7089 3.14282 1.89948e-17)
(25.7141 3.17188 4.4473e-17)
(25.7189 3.19592 2.44851e-17)
(25.7246 3.21943 -1.11505e-17)
(25.7306 3.24474 -6.10524e-17)
(25.7366 3.26499 -5.25478e-17)
(25.7421 3.29225 1.19924e-18)
(25.7479 3.30417 5.5006e-17)
(25.7532 3.339 -2.07374e-18)
(25.7597 3.33038 4.06018e-17)
(25.7654 3.3892 -1.75478e-17)
(25.7738 3.33057 1.55235e-18)
(25.7752 3.45932 4.3931e-17)
(25.8272 3.27199 -1.54353e-17)
(25.4503 2.62832 3.9158e-20)
(25.5164 2.61959 1.47541e-18)
(25.6059 2.61037 6.46067e-19)
(25.6914 2.60037 -4.18985e-19)
(25.7528 2.59015 -4.28414e-19)
(25.7734 2.57918 -6.20077e-20)
(25.738 2.56671 -5.96729e-20)
(25.6355 2.55285 1.15582e-18)
(25.4605 2.53812 -8.02264e-19)
(25.2147 2.52269 1.78712e-18)
(24.9057 2.50626 -5.62833e-19)
(24.5458 2.48843 -5.98646e-20)
(24.1504 2.46901 2.03455e-18)
(23.7366 2.44782 3.26424e-19)
(23.3229 2.4246 -1.74851e-18)
(22.9297 2.399 -7.88061e-19)
(22.5803 2.37089 -1.95009e-18)
(22.3029 2.34075 2.72354e-18)
(22.1309 2.31026 1.59859e-18)
(22.0993 2.28258 7.16708e-19)
(22.2362 2.26204 3.72323e-18)
(22.5535 2.25305 -7.60352e-18)
(23.0375 2.25879 7.91449e-18)
(23.6361 2.2792 -9.22683e-18)
(24.2472 2.30825 -5.79008e-19)
(24.7401 2.33487 -2.7645e-19)
(25.0406 2.35075 -3.99363e-18)
(25.1859 2.35649 -7.33516e-18)
(25.2584 2.35776 2.31121e-19)
(25.3089 2.35875 -1.62923e-18)
(25.3516 2.36044 1.7499e-18)
(25.3868 2.36222 7.34163e-18)
(25.4145 2.36348 -1.43896e-19)
(25.436 2.36433 7.27677e-18)
(25.4534 2.3654 -6.77542e-18)
(25.4681 2.36743 1.63238e-18)
(25.4811 2.37114 7.242e-19)
(25.4928 2.37699 5.39023e-18)
(25.5037 2.38483 -1.56407e-18)
(25.5138 2.39437 1.02871e-18)
(25.5233 2.4054 -2.63614e-19)
(25.5318 2.41774 -7.86588e-20)
(25.5392 2.43114 -7.73671e-19)
(25.5449 2.44556 1.3756e-19)
(25.5486 2.46118 2.70867e-19)
(25.5506 2.47846 -4.39282e-18)
(25.5524 2.4981 -2.39364e-18)
(25.5557 2.52075 2.81989e-18)
(25.5608 2.54642 -1.28377e-17)
(25.5661 2.57443 4.88571e-18)
(25.5705 2.60401 -2.88874e-18)
(25.5744 2.63499 1.73684e-17)
(25.5783 2.66753 -2.4685e-18)
(25.5828 2.70177 -8.72485e-19)
(25.588 2.73756 -1.36057e-17)
(25.5937 2.77469 -2.02378e-18)
(25.5999 2.81286 -1.02143e-17)
(25.6067 2.8518 7.58164e-18)
(25.6141 2.89128 2.06802e-17)
(25.6222 2.93093 -7.3356e-17)
(25.6308 2.97048 -3.23317e-17)
(25.6399 3.0095 -5.64966e-17)
(25.6494 3.04789 -5.34463e-17)
(25.6593 3.08498 4.92212e-17)
(25.6696 3.12127 -6.40494e-17)
(25.6801 3.15496 1.48303e-17)
(25.6883 3.18376 3.1987e-18)
(25.6957 3.2074 -1.32562e-17)
(25.7039 3.23043 1.09675e-17)
(25.7125 3.25522 -4.21478e-17)
(25.721 3.27484 -3.16188e-17)
(25.7288 3.30141 1.21117e-18)
(25.7366 3.31262 -3.74289e-17)
(25.7441 3.34657 -2.05821e-18)
(25.752 3.33738 1.01059e-16)
(25.7598 3.39489 2.2975e-17)
(25.7688 3.33656 5.82721e-17)
(25.7723 3.46276 -3.45958e-17)
(25.8253 3.27724 1.27939e-17)
(25.5695 2.59112 3.09427e-20)
(25.7065 2.57992 -6.38165e-20)
(25.8482 2.56769 -4.50951e-19)
(25.9694 2.55335 7.96503e-19)
(26.053 2.53899 2.13482e-19)
(26.0845 2.52459 -6.5728e-19)
(26.0523 2.50886 3.35138e-19)
(25.9483 2.49158 -3.30007e-21)
(25.7691 2.47392 2.79012e-20)
(25.5175 2.457 -1.93385e-19)
(25.2018 2.44093 5.4347e-20)
(24.835 2.42515 8.22662e-19)
(24.4338 2.40914 -5.74932e-20)
(24.0167 2.39277 2.63436e-19)
(23.6034 2.37606 1.26814e-18)
(23.2139 2.35896 -5.29918e-19)
(22.8688 2.34127 9.71133e-19)
(22.59 2.32283 1.34669e-18)
(22.4013 2.30385 -1.67775e-19)
(22.3277 2.28532 -1.32868e-18)
(22.3912 2.26933 -1.62424e-18)
(22.6063 2.25874 5.59178e-18)
(22.9733 2.25667 -5.3916e-18)
(23.4695 2.2653 1.00411e-18)
(24.0345 2.28381 -1.72902e-18)
(24.5633 2.30592 -2.32067e-19)
(24.9461 2.32266 -2.90518e-19)
(25.1531 2.32977 -3.12804e-19)
(25.2456 2.33036 -2.49274e-18)
(25.2949 2.32942 -2.03698e-20)
(25.3339 2.32947 1.09321e-18)
(25.368 2.33064 -2.98749e-19)
(25.3956 2.33227 -8.69885e-19)
(25.4161 2.33412 -7.53607e-18)
(25.4307 2.33654 4.31396e-18)
(25.4413 2.34014 -9.52696e-19)
(25.4494 2.3455 9.16267e-19)
(25.4559 2.35295 -1.62594e-18)
(25.4615 2.36234 -1.28506e-18)
(25.4665 2.37337 -2.52231e-19)
(25.4715 2.38594 -1.21686e-18)
(25.4765 2.40022 -5.25363e-19)
(25.4819 2.41634 5.3425e-19)
(25.4875 2.43423 3.97972e-19)
(25.4924 2.45371 1.72012e-19)
(25.4951 2.47442 -2.65696e-19)
(25.4947 2.49608 -1.63459e-18)
(25.493 2.51921 2.10292e-18)
(25.4929 2.54488 1.12051e-17)
(25.4961 2.57375 -1.5756e-17)
(25.5013 2.6054 -3.86944e-18)
(25.5068 2.63893 1.07466e-18)
(25.512 2.67373 -2.20015e-18)
(25.5175 2.70973 -7.9147e-19)
(25.524 2.74701 1.982e-17)
(25.5316 2.78551 2.69659e-18)
(25.5402 2.82496 -6.32548e-18)
(25.5497 2.86504 -1.96917e-17)
(25.5602 2.90545 -1.16751e-17)
(25.5715 2.94584 8.14518e-17)
(25.5835 2.98592 1.37164e-17)
(25.5962 3.02528 -1.81872e-17)
(25.6094 3.06381 8.8243e-17)
(25.623 3.10085 -2.74003e-17)
(25.6369 3.13691 1.63291e-17)
(25.6509 3.17011 -1.72545e-17)
(25.6624 3.19847 4.82315e-17)
(25.6725 3.22151 -1.67558e-17)
(25.6834 3.24384 -7.85059e-18)
(25.6947 3.26787 -5.88401e-18)
(25.7057 3.28661 3.00186e-17)
(25.716 3.31218 1.21658e-18)
(25.7258 3.32246 2.87675e-17)
(25.7355 3.35518 -2.02649e-18)
(25.7449 3.34529 -1.25357e-16)
(25.7547 3.40115 2.56546e-18)
(25.7643 3.34317 -5.51251e-17)
(25.7696 3.46653 4.41736e-17)
(25.8238 3.28311 -1.30614e-18)
(25.7895 2.48403 -3.38845e-21)
(25.9792 2.47042 7.66433e-22)
(26.1537 2.45735 1.37166e-18)
(26.2946 2.4421 -1.07602e-18)
(26.3868 2.42802 8.38628e-21)
(26.4178 2.41549 6.18734e-19)
(26.3792 2.40203 -1.57325e-18)
(26.2664 2.38592 -1.66416e-21)
(26.0783 2.36818 9.85156e-21)
(25.818 2.35104 -7.46159e-20)
(25.4929 2.33574 2.23492e-20)
(25.1149 2.32201 -9.24857e-19)
(24.6996 2.30893 6.01584e-20)
(24.2656 2.29579 1.22535e-18)
(23.8331 2.28242 1.91323e-18)
(23.4232 2.26885 -2.74572e-19)
(23.0575 2.25514 7.576e-19)
(22.7573 2.24137 -1.58055e-18)
(22.544 2.22777 6.03417e-19)
(22.4382 2.21489 -1.46873e-19)
(22.4577 2.20383 -1.52825e-18)
(22.6136 2.19621 4.26988e-20)
(22.9083 2.19393 5.52538e-19)
(23.33 2.19885 4.44218e-18)
(23.8433 2.21199 1.92471e-18)
(24.376 2.23125 5.04123e-19)
(24.8224 2.2501 6.77218e-19)
(25.1035 2.26175 -2.23322e-19)
(25.2333 2.26545 1.24057e-18)
(25.2852 2.26557 4.55435e-19)
(25.315 2.26601 8.45069e-19)
(25.3416 2.26816 -2.16366e-18)
(25.3656 2.27184 5.92409e-19)
(25.3845 2.27667 4.48605e-18)
(25.3975 2.28265 -5.20426e-19)
(25.4057 2.29004 7.40853e-19)
(25.4103 2.29912 7.76266e-19)
(25.4125 2.3099 -1.84587e-19)
(25.413 2.32212 5.20127e-20)
(25.4123 2.33548 -2.04957e-19)
(25.4113 2.34995 -9.40736e-19)
(25.4103 2.36595 -3.31271e-20)
(25.4103 2.38413 -8.5096e-19)
(25.4122 2.40499 -3.37717e-19)
(25.4167 2.42884 3.07479e-19)
(25.4229 2.4555 1.76144e-18)
(25.428 2.48391 -1.73245e-18)
(25.4291 2.51269 2.95723e-18)
(25.4265 2.54157 1.47047e-18)
(25.4242 2.57166 7.42064e-18)
(25.4258 2.60435 -3.79271e-18)
(25.4314 2.63998 4.44422e-18)
(25.439 2.67783 -5.06724e-18)
(25.4472 2.71698 -7.63742e-19)
(25.4558 2.75696 2.62197e-17)
(25.4656 2.79764 -1.08698e-17)
(25.4769 2.83894 -1.95116e-18)
(25.4896 2.8806 2.74155e-17)
(25.5035 2.92232 -1.48822e-17)
(25.5185 2.96372 -1.93666e-17)
(25.5344 3.00452 -4.914e-17)
(25.551 3.04431 1.17719e-18)
(25.5683 3.083 -7.13561e-18)
(25.5859 3.11992 1.08454e-17)
(25.6038 3.15563 5.8793e-18)
(25.6216 3.18817 1.30224e-17)
(25.6365 3.21595 -4.15714e-17)
(25.6495 3.23822 -1.77258e-18)
(25.6632 3.25966 -6.2404e-18)
(25.6772 3.28267 3.79051e-17)
(25.6908 3.30032 -7.13351e-18)
(25.7036 3.32458 1.21974e-18)
(25.7156 3.33373 -4.26343e-18)
(25.7275 3.36486 1.03957e-17)
(25.7383 3.35415 7.5938e-17)
(25.7502 3.40795 3.51693e-17)
(25.7603 3.35042 1.37164e-18)
(25.7674 3.47062 1.99851e-17)
(25.8226 3.28966 -2.38852e-17)
(26.0321 2.30838 -3.42258e-20)
(26.2497 2.29771 6.01348e-20)
(26.4392 2.28765 3.54315e-20)
(26.5896 2.27389 1.49708e-18)
(26.6854 2.2624 -4.46674e-20)
(26.7134 2.25595 -6.66602e-19)
(26.6669 2.25136 1.70498e-18)
(26.5449 2.2437 2.82185e-21)
(26.3496 2.23135 -1.24698e-20)
(26.0851 2.21646 7.36695e-20)
(25.7582 2.20187 -1.7772e-20)
(25.3781 2.18877 9.45038e-19)
(24.9577 2.17662 -7.81105e-20)
(24.5128 2.16428 -9.2348e-19)
(24.062 2.15091 -1.7011e-18)
(23.6261 2.13627 6.133e-20)
(23.2272 2.12058 -7.41394e-19)
(22.888 2.10448 1.52422e-18)
(22.6311 2.08901 -7.06842e-19)
(22.4779 2.0755 4.27696e-21)
(22.4466 2.06539 -8.17504e-19)
(22.5484 2.06011 -1.12814e-18)
(22.7855 2.06073 2.01272e-18)
(23.1494 2.06804 -3.12924e-18)
(23.6164 2.08264 -2.5882e-18)
(24.1374 2.10418 -5.75125e-19)
(24.6275 2.12913 -2.43788e-19)
(24.988 2.1506 -6.26081e-20)
(25.179 2.16367 -1.61832e-18)
(25.2493 2.16979 -6.02668e-19)
(25.2711 2.17372 1.14128e-18)
(25.2843 2.17877 3.50409e-18)
(25.2985 2.18595 -2.49029e-20)
(25.3121 2.19526 -2.35599e-18)
(25.3227 2.20654 -3.28247e-18)
(25.3297 2.21975 -4.26896e-19)
(25.3338 2.23488 4.2878e-19)
(25.3356 2.25168 -5.88622e-19)
(25.3353 2.26964 5.29364e-19)
(25.3332 2.28819 -5.83e-20)
(25.3293 2.30703 1.46508e-18)
(25.3241 2.32622 3.66306e-20)
(25.3181 2.3464 1.60476e-18)
(25.3123 2.3684 7.20049e-19)
(25.3088 2.39341 1.09209e-18)
(25.3103 2.42278 -3.09088e-18)
(25.3179 2.4571 -6.86544e-18)
(25.3286 2.4949 4.01078e-18)
(25.3368 2.53339 -3.32585e-18)
(25.3396 2.57078 -1.67642e-18)
(25.3396 2.60765 -2.98932e-19)
(25.3421 2.64568 -1.94742e-18)
(25.3498 2.68599 -4.89363e-18)
(25.3615 2.72832 -9.58217e-19)
(25.375 2.77179 -3.68336e-18)
(25.3896 2.81562 4.31138e-18)
(25.4053 2.85946 -6.74215e-18)
(25.4225 2.90308 -2.06641e-17)
(25.4412 2.94625 -1.43489e-18)
(25.4611 2.98867 -4.84426e-18)
(25.482 3.03006 4.33948e-17)
(25.5036 3.07006 1.21902e-18)
(25.5257 3.10858 -4.36428e-18)
(25.5481 3.14499 3.36701e-17)
(25.5705 3.1799 -1.55904e-17)
(25.5925 3.2113 -2.049e-18)
(25.6112 3.23807 3.10876e-18)
(25.6273 3.25918 5.74169e-18)
(25.6439 3.2793 9.22737e-18)
(25.6608 3.30087 -3.18422e-18)
(25.6771 3.31702 -2.84549e-18)
(25.6925 3.3395 -1.10112e-17)
(25.7065 3.34714 -7.21101e-17)
(25.7207 3.37618 -2.51671e-17)
(25.7327 3.3644 -2.71777e-18)
(25.7468 3.41563 -1.71869e-17)
(25.757 3.35845 1.28109e-18)
(25.7659 3.47512 -5.04232e-17)
(25.8217 3.29681 5.09169e-19)
(26.2512 2.0725 6.59e-19)
(26.4597 2.06541 -5.44938e-19)
(26.6374 2.06406 -5.26399e-19)
(26.7842 2.0549 -2.14897e-19)
(26.8866 2.0412 1.62423e-18)
(26.9286 2.03131 1.16984e-18)
(26.8992 2.02938 -8.31059e-19)
(26.795 2.03164 -5.20824e-19)
(26.6184 2.03191 2.08524e-18)
(26.3746 2.02732 -3.00521e-19)
(26.0702 2.0189 7.3502e-20)
(25.7129 2.0088 -9.13304e-19)
(25.3119 1.99803 2.6138e-19)
(24.8786 1.98614 7.90439e-19)
(24.4271 1.97203 -5.52604e-19)
(23.9742 1.95498 -3.21064e-18)
(23.5396 1.93503 -1.17392e-18)
(23.1453 1.91329 6.70292e-19)
(22.8149 1.89174 -7.97089e-19)
(22.5726 1.8729 -3.03714e-19)
(22.4407 1.85926 2.58945e-19)
(22.4368 1.85285 -1.10958e-18)
(22.5694 1.8548 -2.16755e-18)
(22.8362 1.86546 -1.64113e-18)
(23.2224 1.88473 1.05473e-18)
(23.696 1.91241 -1.43836e-18)
(24.199 1.94698 8.72656e-19)
(24.6453 1.98365 -1.40727e-18)
(24.9551 2.01539 2.13964e-18)
(25.1128 2.03809 -4.91981e-19)
(25.1685 2.05366 4.17783e-18)
(25.1819 2.0668 -3.3014e-18)
(25.1858 2.08084 1.96677e-18)
(25.1898 2.097 3.54774e-18)
(25.1939 2.11541 5.68874e-18)
(25.197 2.13589 -4.42188e-18)
(25.1993 2.15838 -2.60607e-18)
(25.2014 2.18263 3.57228e-19)
(25.2036 2.20826 -4.75035e-19)
(25.2055 2.23466 -5.39445e-18)
(25.2064 2.26134 -4.05928e-18)
(25.2054 2.28793 3.91116e-18)
(25.2016 2.31451 5.34585e-19)
(25.1941 2.34147 6.40461e-18)
(25.1833 2.36959 -1.01575e-18)
(25.1719 2.40011 1.73701e-18)
(25.1654 2.43485 1.25976e-18)
(25.1698 2.47497 8.28432e-18)
(25.1858 2.51963 -8.36405e-19)
(25.207 2.56636 4.58125e-19)
(25.2245 2.61264 1.96114e-18)
(25.2353 2.65739 3.08301e-18)
(25.2438 2.70129 -1.70878e-18)
(25.2557 2.74565 1.35869e-18)
(25.273 2.79123 -9.69861e-18)
(25.2942 2.83764 7.55293e-18)
(25.3173 2.88405 -1.22281e-17)
(25.3417 2.92975 3.85602e-18)
(25.3672 2.97437 -4.12782e-20)
(25.3937 3.01766 -3.00957e-17)
(25.4212 3.05943 -2.36262e-18)
(25.4493 3.09938 1.26159e-17)
(25.4776 3.13743 -9.62873e-18)
(25.5057 3.17301 -4.99808e-18)
(25.5337 3.2068 9.61171e-18)
(25.5608 3.2367 -9.94368e-18)
(25.5839 3.26225 7.57802e-19)
(25.6036 3.28192 2.19041e-17)
(25.6236 3.30048 2.3454e-18)
(25.6437 3.32034 -7.22364e-18)
(25.6629 3.33485 3.47588e-18)
(25.6812 3.3552 2.45861e-17)
(25.6974 3.3613 1.95073e-17)
(25.7141 3.38778 1.7823e-17)
(25.7276 3.37514 -3.62406e-17)
(25.7438 3.4232 -1.65148e-17)
(25.7545 3.36693 1.45013e-18)
(25.7648 3.47942 3.00649e-17)
(25.8217 3.30487 -4.96125e-18)
(26.539 1.70331 3.69505e-19)
(26.641 1.71078 6.50755e-20)
(26.7189 1.72976 4.55574e-19)
(26.7863 1.73752 -6.07082e-19)
(26.8392 1.72869 -2.34227e-18)
(26.8645 1.71283 -1.7227e-18)
(26.8472 1.70378 -2.6109e-19)
(26.777 1.70608 4.39825e-19)
(26.6497 1.7147 -3.1681e-18)
(26.4658 1.72267 5.29525e-19)
(26.2288 1.72662 1.43558e-19)
(25.9433 1.72661 -4.69127e-19)
(25.6149 1.7237 -1.49317e-18)
(25.2498 1.71791 -3.32458e-19)
(24.8558 1.70811 2.55644e-19)
(24.4428 1.69298 1.50705e-18)
(24.0233 1.67202 -1.29629e-19)
(23.6132 1.64629 -2.22635e-18)
(23.2315 1.61834 1.87392e-18)
(22.9002 1.59183 6.82683e-19)
(22.6434 1.57051 5.67665e-19)
(22.4847 1.55751 2.52977e-18)
(22.4435 1.55454 5.52253e-18)
(22.5312 1.5621 3.63187e-18)
(22.7485 1.57988 1.08321e-19)
(23.083 1.60781 -2.74505e-18)
(23.5039 1.64582 1.49932e-18)
(23.9537 1.69232 -3.66363e-20)
(24.352 1.74245 7.6042e-18)
(24.6332 1.78951 9.63222e-18)
(24.7879 1.82966 -1.23056e-17)
(24.8557 1.86385 -2.59191e-19)
(24.8821 1.8953 5.81922e-18)
(24.8949 1.92657 -3.90876e-18)
(24.9041 1.95891 -8.01896e-18)
(24.9112 1.99253 6.98236e-18)
(24.9164 2.02741 -2.89033e-18)
(24.9208 2.0635 7.6766e-19)
(24.926 2.10101 -1.3567e-18)
(24.9334 2.13993 6.61691e-18)
(24.9436 2.1805 -4.77973e-18)
(24.9565 2.2227 -6.77333e-18)
(24.971 2.2665 -3.29343e-18)
(24.9846 2.3115 -1.16951e-17)
(24.9937 2.35678 -1.80952e-17)
(24.9946 2.40089 9.55112e-19)
(24.9858 2.44291 -3.2925e-18)
(24.9721 2.48371 -6.16984e-18)
(24.9652 2.52608 -9.95219e-18)
(24.9768 2.57308 1.38875e-17)
(25.0081 2.62552 9.38158e-18)
(25.0473 2.68087 1.28979e-17)
(25.0817 2.73519 -9.82826e-18)
(25.1085 2.78634 -4.37702e-18)
(25.1335 2.835 -4.34997e-18)
(25.1622 2.88272 -4.69054e-18)
(25.1955 2.93015 1.21742e-17)
(25.2316 2.97677 1.35214e-17)
(25.2689 3.02186 1.24937e-18)
(25.3066 3.06497 -2.86592e-18)
(25.3444 3.10588 -7.52443e-18)
(25.3822 3.14442 -1.1811e-17)
(25.4196 3.18059 -4.44983e-18)
(25.4561 3.21391 -5.82458e-18)
(25.4916 3.24514 3.72109e-18)
(25.5254 3.27214 4.01302e-18)
(25.5543 3.29533 1.34928e-17)
(25.5786 3.31257 -1.10591e-17)
(25.6028 3.32856 1.24611e-17)
(25.6267 3.34572 -5.3922e-18)
(25.6493 3.35771 -2.56772e-17)
(25.6706 3.37501 -1.31295e-17)
(25.6894 3.37883 2.73988e-17)
(25.7084 3.40196 -2.26741e-17)
(25.7236 3.3879 3.02067e-17)
(25.7415 3.43215 5.05883e-17)
(25.7533 3.37649 2.95089e-17)
(25.7639 3.48435 -2.26656e-17)
(25.823 3.31356 4.23671e-17)
(26.7386 1.3496 -9.52062e-19)
(26.6688 1.3691 -2.31623e-19)
(26.5924 1.40558 4.96339e-19)
(26.5268 1.44032 9.32442e-19)
(26.4731 1.45821 1.69286e-18)
(26.4255 1.45919 1.05841e-18)
(26.3752 1.45635 1.22591e-18)
(26.3118 1.46108 4.86196e-19)
(26.2267 1.47525 1.54432e-18)
(26.1136 1.49453 -2.6888e-18)
(25.9695 1.51389 8.88516e-20)
(25.7932 1.53062 -7.26642e-19)
(25.585 1.54388 2.06021e-18)
(25.3458 1.55307 7.62265e-19)
(25.0778 1.5571 -9.20031e-19)
(24.7837 1.55474 1.49235e-18)
(24.4683 1.5451 3.50356e-18)
(24.1383 1.52876 -1.44573e-18)
(23.8033 1.50748 -1.45031e-19)
(23.4764 1.48434 -3.20408e-18)
(23.1744 1.46268 -3.45224e-19)
(22.9174 1.44522 -1.27595e-18)
(22.7271 1.43372 9.27962e-20)
(22.6239 1.42862 -1.93256e-18)
(22.6235 1.42992 -5.85744e-18)
(22.7337 1.43829 8.02586e-18)
(22.9505 1.45538 1.13846e-18)
(23.2508 1.48353 -1.35748e-18)
(23.5867 1.52301 -1.35605e-17)
(23.8949 1.57093 -7.86443e-18)
(24.1274 1.62222 -3.22619e-18)
(24.2755 1.6728 2.4477e-18)
(24.3608 1.72113 -1.45162e-17)
(24.4118 1.76782 -8.93337e-18)
(24.4482 1.81399 2.00464e-19)
(24.4785 1.8604 3.68195e-18)
(24.5046 1.9072 6.83345e-18)
(24.5264 1.95436 4.78505e-18)
(24.5438 2.00197 2.6121e-19)
(24.5584 2.05017 -6.79127e-18)
(24.5725 2.09994 -6.24018e-18)
(24.5896 2.15221 1.42997e-17)
(24.6127 2.20819 -8.55863e-18)
(24.6441 2.26861 -2.26222e-18)
(24.6834 2.33316 1.14829e-17)
(24.7262 2.39987 -1.98679e-17)
(24.7633 2.46513 -6.84578e-18)
(24.7838 2.52493 -5.29285e-19)
(24.7831 2.5771 -1.20067e-18)
(24.772 2.62375 -4.18798e-17)
(24.7741 2.67092 -2.79218e-17)
(24.8064 2.72453 -1.7452e-17)
(24.8634 2.78464 8.75049e-18)
(24.9249 2.84586 -1.9854e-17)
(24.9776 2.90287 6.2236e-18)
(25.0229 2.95431 -1.68e-17)
(25.0676 3.00189 -2.80981e-17)
(25.1154 3.04715 -3.92862e-17)
(25.1655 3.09045 -1.30274e-18)
(25.2161 3.13136 7.65678e-19)
(25.2661 3.16955 -3.75587e-18)
(25.315 3.20482 9.51208e-18)
(25.3624 3.23729 1.67218e-18)
(25.408 3.26661 -4.63109e-18)
(25.4517 3.29364 -6.31299e-18)
(25.4924 3.31625 -2.46996e-18)
(25.5274 3.33591 9.08531e-19)
(25.5565 3.34981 -2.10872e-18)
(25.5848 3.36227 -5.24433e-18)
(25.6123 3.37583 -1.48733e-18)
(25.6381 3.3845 1.79705e-20)
(25.6623 3.39804 4.17334e-18)
(25.6834 3.39893 -7.2495e-18)
(25.7043 3.4182 1.20723e-18)
(25.7211 3.40223 5.21885e-19)
(25.7402 3.44231 -2.72007e-17)
(25.7532 3.38682 -4.76425e-17)
(25.7635 3.4899 1.8203e-17)
(25.8252 3.32284 -2.42856e-17)
(26.3102 1.47189 -1.85798e-19)
(26.1433 1.51438 -7.39763e-19)
(25.9943 1.55253 2.14782e-19)
(25.8641 1.5836 -2.28252e-19)
(25.7508 1.60536 2.54445e-19)
(25.652 1.61927 -1.56862e-18)
(25.5647 1.63166 1.56267e-19)
(25.4842 1.64743 5.45431e-19)
(25.406 1.6676 1.37857e-18)
(25.3252 1.69068 1.45643e-19)
(25.2379 1.71452 1.73596e-18)
(25.1405 1.73758 -2.42211e-18)
(25.0303 1.75814 -9.13793e-19)
(24.9049 1.77481 6.83866e-19)
(24.7625 1.7862 -5.47476e-19)
(24.6019 1.79147 -1.92419e-18)
(24.4227 1.7907 3.39596e-18)
(24.2261 1.78477 -3.88322e-18)
(24.0151 1.77516 2.5828e-18)
(23.7951 1.76352 5.24348e-19)
(23.575 1.75092 1.19841e-18)
(23.3672 1.73787 -2.55819e-18)
(23.187 1.72385 9.20036e-19)
(23.0515 1.70845 8.37344e-18)
(22.9771 1.69215 -5.19596e-19)
(22.9768 1.67707 -7.89679e-18)
(23.055 1.66732 2.77992e-18)
(23.2016 1.66735 -8.58637e-19)
(23.3876 1.6797 -8.43274e-18)
(23.5743 1.70367 8.27633e-18)
(23.7303 1.73579 -1.22214e-17)
(23.8436 1.7718 1.31205e-17)
(23.9201 1.80911 8.37515e-18)
(23.9734 1.84698 -9.02575e-18)
(24.0165 1.88607 -7.19231e-18)
(24.0567 1.92708 -5.65201e-18)
(24.0959 1.97019 -1.62454e-17)
(24.1317 2.01506 -8.24856e-18)
(24.1609 2.06097 -7.69113e-18)
(24.1814 2.10797 3.61564e-18)
(24.1939 2.15671 -1.05809e-17)
(24.2032 2.20891 3.16149e-18)
(24.2175 2.26701 2.03808e-17)
(24.2469 2.33332 1.3371e-17)
(24.3003 2.40909 4.53857e-17)
(24.3792 2.49292 6.36948e-18)
(24.4723 2.57973 -4.78836e-18)
(24.5553 2.66111 -4.8845e-18)
(24.6031 2.72887 3.26685e-17)
(24.6124 2.78077 -9.11646e-18)
(24.6123 2.82477 1.33685e-17)
(24.6412 2.87287 1.34254e-18)
(24.7094 2.9302 4.97254e-18)
(24.7958 2.99167 -1.29303e-17)
(24.8767 3.04914 1.76838e-17)
(24.9458 3.09905 1.78427e-17)
(25.0088 3.14257 -3.86279e-18)
(25.0713 3.18192 1.50717e-17)
(25.1342 3.21815 1.51444e-17)
(25.1963 3.25131 1.05844e-17)
(25.2563 3.28124 -1.84719e-17)
(25.3137 3.30802 6.971e-18)
(25.3679 3.33148 -2.70905e-18)
(25.4192 3.35257 -4.31665e-18)
(25.4663 3.36923 -1.38141e-20)
(25.507 3.38409 -1.96369e-18)
(25.5404 3.39368 1.01183e-18)
(25.5724 3.40161 -2.65521e-18)
(25.603 3.41064 -4.513e-18)
(25.6313 3.41515 6.35356e-18)
(25.6576 3.42422 1.44938e-17)
(25.6804 3.42155 -5.72839e-18)
(25.7026 3.43646 8.84974e-20)
(25.7205 3.4181 -2.25429e-17)
(25.7404 3.45367 8.81248e-20)
(25.7543 3.39795 1.1098e-17)
(25.764 3.49599 1.54337e-18)
(25.8277 3.33273 -6.3994e-17)
(25.6103 2.08402 2.24145e-19)
(25.4492 2.10089 4.33422e-19)
(25.3153 2.11045 -4.23836e-19)
(25.1959 2.12402 -6.77403e-19)
(25.088 2.14028 -3.59429e-19)
(24.9911 2.15585 2.79685e-19)
(24.9053 2.17033 4.22398e-19)
(24.8302 2.18483 -6.93756e-19)
(24.7649 2.20035 -1.48478e-18)
(24.708 2.2171 8.30856e-19)
(24.6578 2.23448 -6.07051e-19)
(24.6121 2.25177 1.78861e-18)
(24.569 2.2679 -9.90467e-19)
(24.5258 2.28214 -1.40437e-20)
(24.4804 2.29387 -4.21255e-19)
(24.43 2.30277 5.98157e-19)
(24.3723 2.30886 -1.18712e-18)
(24.305 2.31251 7.55941e-19)
(24.226 2.31407 -7.27051e-19)
(24.1344 2.31372 -2.21005e-18)
(24.0301 2.31117 1.40981e-18)
(23.9154 2.30579 5.74939e-19)
(23.7947 2.29619 1.94866e-18)
(23.6756 2.28117 -4.23438e-18)
(23.5682 2.2602 -2.84981e-20)
(23.4844 2.23419 9.4838e-18)
(23.4361 2.20588 7.01532e-18)
(23.4311 2.17965 2.93594e-18)
(23.4686 2.1598 7.59754e-18)
(23.5375 2.14909 -2.97887e-19)
(23.6189 2.14727 1.45329e-17)
(23.694 2.15168 -4.80372e-18)
(23.7505 2.15913 1.58724e-17)
(23.7853 2.16759 4.03833e-18)
(23.8035 2.1772 1.33496e-17)
(23.8147 2.18941 7.0436e-18)
(23.8272 2.20582 2.29173e-17)
(23.8451 2.22734 9.28115e-19)
(23.8666 2.25356 2.45597e-17)
(23.8852 2.2836 1.93255e-17)
(23.8932 2.31648 -6.92944e-18)
(23.8857 2.35221 3.29419e-18)
(23.8646 2.39225 -3.18105e-17)
(23.8413 2.43975 1.01081e-19)
(23.8362 2.49901 -2.37145e-17)
(23.8746 2.574 9.21845e-18)
(23.9739 2.6656 1.92422e-17)
(24.1284 2.76821 3.22215e-17)
(24.3004 2.86883 -1.14497e-17)
(24.4344 2.95136 1.84074e-17)
(24.4973 3.00693 -1.87377e-17)
(24.513 3.04283 -2.59455e-18)
(24.5409 3.07703 2.79347e-17)
(24.6146 3.12105 5.90633e-18)
(24.7193 3.17208 2.22279e-17)
(24.8246 3.22094 -1.50682e-17)
(24.9159 3.26224 4.75821e-17)
(24.9961 3.29625 1.42478e-17)
(25.0714 3.32519 1.26422e-17)
(25.1443 3.35047 -1.27595e-17)
(25.2142 3.37249 2.18418e-17)
(25.2803 3.39139 -1.13038e-17)
(25.342 3.40708 4.79957e-18)
(25.3996 3.42052 1.11577e-17)
(25.4516 3.42979 5.78039e-18)
(25.4969 3.43868 -3.72668e-18)
(25.5339 3.44307 -3.40367e-19)
(25.5686 3.44559 1.49341e-18)
(25.6011 3.44927 1.90478e-18)
(25.6309 3.4489 -2.94766e-19)
(25.6582 3.4529 -1.00614e-17)
(25.6818 3.44616 -3.93538e-18)
(25.7044 3.45632 -4.29338e-18)
(25.7226 3.43521 1.31778e-17)
(25.7426 3.46602 -5.95016e-19)
(25.7568 3.40975 2.8764e-17)
(25.7655 3.50252 -1.8227e-19)
(25.8308 3.34311 6.11868e-17)
(24.9825 2.79231 -9.74884e-20)
(24.8612 2.80357 -4.309e-19)
(24.7671 2.80465 -4.6636e-22)
(24.6849 2.80848 3.42725e-19)
(24.6111 2.81418 -1.82438e-19)
(24.5451 2.8203 3.22237e-19)
(24.4867 2.82727 -6.2806e-19)
(24.4357 2.83575 -6.00012e-19)
(24.3923 2.84589 1.3091e-18)
(24.3561 2.85702 -1.37936e-18)
(24.3268 2.86793 -3.76319e-19)
(24.3039 2.87738 -1.56059e-19)
(24.2869 2.88441 1.97562e-18)
(24.2748 2.88879 6.74067e-19)