/*--------------------------------*- C++ -*----------------------------------*\
| =========                 |                                                 |
| \\      /  F ield         | OpenFOAM: The Open Source CFD Toolbox           |
|  \\    /   O peration     | Version:  2306                                  |
|   \\  /    A nd           | Website:  www.openfoam.com                      |
|    \\/     M anipulation  |                                                 |
\*---------------------------------------------------------------------------*/
FoamFile
{
    version     2.0;
    format      ascii;
    arch        "LSB;label=32;scalar=64";
    class       volScalarField;
    location    "975";
    object      div(phi);
}
// * * * * * * * * * * * * * * * * * * * * * * * * * * * * * * * * * * * * * //

dimensions      [0 0 -1 0 0 0 0];

internalField   nonuniform List<scalar> 
10720
(
-7.1617e-06
5.3316e-06
-3.88856e-06
3.1282e-06
-2.45093e-06
-6.98885e-07
-3.36173e-06
-1.95226e-06
-8.86835e-07
6.54481e-07
8.77977e-07
1.14509e-06
6.93138e-07
6.66747e-07
3.5477e-07
4.75424e-07
2.64867e-07
5.20847e-07
1.05928e-07
5.07561e-07
-6.93937e-07
-5.53442e-07
-4.91871e-06
-6.65714e-06
-7.85312e-06
-6.6939e-06
-2.65701e-06
-3.30963e-06
-4.26074e-06
-3.39934e-06
8.87635e-06
-2.37444e-05
-4.18348e-06
-9.89691e-07
7.89869e-06
-3.13029e-05
-7.74968e-05
2.26307e-05
-6.04558e-05
5.46344e-06
-6.00593e-06
-5.08186e-08
-1.28069e-06
-9.98246e-07
4.39576e-06
1.96803e-06
6.81561e-06
1.2913e-06
5.81247e-08
8.80136e-09
-5.23711e-07
-3.55954e-07
-6.72784e-07
-3.95517e-07
-5.80189e-07
-3.28356e-07
-6.25758e-07
-2.78632e-07
-7.12662e-07
-7.50925e-08
-4.14132e-07
1.04866e-06
1.67567e-06
1.85513e-06
1.8001e-06
1.25613e-06
1.18347e-06
-1.69269e-06
2.88113e-06
1.07617e-06
1.48472e-06
1.49771e-06
2.52935e-06
2.60363e-06
1.33117e-07
1.441e-05
1.0053e-05
1.14771e-05
-3.43389e-06
1.46502e-06
-2.46264e-06
2.3208e-06
-2.62184e-06
-1.34575e-06
-2.66921e-06
-1.82368e-06
-2.10158e-07
7.57732e-07
9.46156e-07
1.04154e-06
6.51644e-07
6.61322e-07
3.5373e-07
4.88779e-07
2.50809e-07
4.25495e-07
9.76393e-08
2.56446e-07
-4.43139e-07
-4.65837e-07
-2.09905e-06
-2.65659e-06
-3.50431e-06
-2.91978e-06
-2.19218e-06
-1.95037e-06
-2.98986e-06
-3.15601e-06
3.0564e-06
-1.54818e-05
-6.10334e-06
-5.78772e-06
-1.84317e-06
-1.34131e-05
-7.08745e-05
-5.29834e-05
-8.52328e-05
6.0697e-08
-2.83311e-06
1.04761e-06
-6.57737e-07
2.38307e-06
7.20607e-07
5.11464e-06
1.17234e-06
3.30828e-07
1.36019e-07
-1.51579e-07
-3.11616e-07
-4.72046e-07
-6.89992e-07
-5.95992e-07
-7.0521e-07
-5.12543e-07
-6.65042e-07
-4.42077e-07
-6.32288e-07
-2.35849e-07
-3.17383e-07
6.9038e-07
1.10784e-06
1.56696e-06
1.50217e-06
1.47914e-06
1.0675e-06
-1.20457e-06
2.21036e-06
8.90452e-07
1.41194e-06
1.36847e-06
2.64993e-06
2.58222e-06
-4.78487e-07
1.42364e-05
1.22802e-05
1.97786e-05
6.26846e-06
-4.10765e-06
4.05338e-06
-3.01758e-06
4.16053e-07
-2.80316e-06
-2.0673e-06
-8.65888e-07
2.63959e-07
6.72204e-07
1.20292e-06
8.68366e-07
9.10778e-07
5.73195e-07
6.06093e-07
4.57894e-07
5.09567e-07
4.96493e-07
4.38533e-07
4.74344e-07
1.19131e-07
-7.80616e-08
-1.48081e-06
-2.26185e-06
-2.97519e-06
-2.85129e-06
-2.22561e-06
-1.61565e-06
-2.22376e-06
-1.3478e-06
4.36362e-06
-1.13571e-05
-9.24892e-07
1.88004e-06
7.47329e-06
-1.99859e-05
-2.5969e-05
4.1742e-05
-1.11168e-05
-4.45175e-06
2.91387e-06
-4.74233e-07
2.51332e-06
9.2911e-07
1.6574e-06
1.23169e-06
3.88038e-08
-8.49735e-08
5.42767e-09
-1.48672e-07
-1.46852e-07
-5.12667e-07
-4.5283e-07
-6.21134e-07
-4.32291e-07
-5.03484e-07
-4.26625e-07
-4.30723e-07
-4.58627e-07
-2.71132e-07
-2.04535e-07
6.39619e-07
1.22825e-06
1.64025e-06
1.50258e-06
1.50736e-06
9.8964e-07
-1.14147e-06
2.34771e-06
9.68034e-07
1.46809e-06
1.30382e-06
2.21041e-06
2.12032e-06
7.39396e-07
1.10564e-05
6.75248e-06
5.85834e-06
-3.0381e-06
2.60195e-06
-1.2772e-06
7.36806e-07
-2.21934e-06
-1.81439e-06
-1.26987e-06
-4.14654e-07
3.56909e-07
8.9946e-07
1.04011e-06
8.53955e-07
8.43677e-07
5.45752e-07
6.68892e-07
4.02846e-07
5.86222e-07
3.3272e-07
4.6977e-07
1.67596e-07
1.11302e-07
-4.57599e-07
-1.15174e-06
-2.2087e-06
-2.69485e-06
-3.10494e-06
-2.70772e-06
-2.5864e-06
-2.78824e-06
-2.80612e-06
4.02439e-07
-1.05659e-05
-5.55102e-06
-5.08299e-06
-2.47299e-06
-9.00162e-06
-4.69604e-05
-3.45357e-05
-6.30027e-05
2.07543e-06
5.75129e-07
2.23695e-06
1.94729e-06
1.24121e-06
1.58311e-06
-2.111e-07
-3.20788e-07
-1.16714e-07
-1.22316e-07
4.11797e-09
-2.00444e-07
-4.46503e-07
-5.91223e-07
-7.3374e-07
-6.07526e-07
-6.47523e-07
-4.99323e-07
-5.8957e-07
-4.2017e-07
-4.11286e-07
-1.37694e-07
2.58862e-07
8.1589e-07
1.10411e-06
1.41857e-06
1.44545e-06
1.19651e-06
-6.75221e-07
1.75502e-06
9.45098e-07
1.40725e-06
1.40949e-06
2.64206e-06
2.4955e-06
2.06947e-07
1.41198e-05
1.29176e-05
2.10786e-05
-1.26653e-06
1.78232e-07
1.62897e-07
-1.31985e-06
-1.24425e-06
-1.62076e-06
-8.19787e-07
-1.05304e-08
3.84381e-07
9.76173e-07
8.20188e-07
9.92184e-07
6.84178e-07
8.06965e-07
5.78e-07
6.82791e-07
5.47313e-07
6.39278e-07
5.3548e-07
5.73507e-07
3.7252e-07
9.39636e-08
-7.76346e-07
-1.67017e-06
-2.32692e-06
-3.29116e-06
-2.19223e-06
-2.72057e-06
-1.83077e-06
-1.36061e-06
2.56232e-06
-7.64321e-06
-7.28541e-07
3.87189e-06
8.24094e-06
-2.03413e-05
-1.76882e-05
4.53652e-05
-1.79499e-06
1.67871e-06
1.3976e-06
2.70151e-06
9.67191e-07
1.08955e-06
3.14098e-07
-2.67031e-07
-4.60263e-07
-3.40932e-07
-4.97531e-08
2.00314e-08
-2.07746e-07
-3.51646e-07
-6.86367e-07
-5.76812e-07
-6.8335e-07
-4.47949e-07
-5.49146e-07
-3.89497e-07
-4.8478e-07
-2.6662e-07
-2.54915e-07
3.65764e-07
6.99348e-07
1.32875e-06
1.36567e-06
1.59658e-06
1.03566e-06
-4.03904e-07
1.46406e-06
9.69454e-07
1.20093e-06
1.22781e-06
1.75479e-06
1.76828e-06
1.50198e-06
9.09482e-06
4.18078e-06
3.01456e-06
8.45483e-07
-9.21462e-08
-1.24244e-06
-2.96759e-07
-1.60413e-06
-8.48114e-07
-3.87333e-07
-1.90709e-08
6.05681e-07
7.53742e-07
8.16339e-07
7.76227e-07
6.55154e-07
7.49696e-07
5.48872e-07
6.80149e-07
4.44792e-07
5.9969e-07
3.17314e-07
4.37411e-07
3.28744e-08
-3.63308e-08
-8.65707e-07
-1.33622e-06
-2.35031e-06
-2.71894e-06
-3.28605e-06
-3.12653e-06
-3.54682e-06
-3.12756e-06
-1.23833e-06
-8.97182e-06
-5.98895e-06
-5.24993e-06
-2.58827e-06
-1.01264e-05
-3.94849e-05
-2.34516e-05
-4.90399e-05
9.1988e-07
2.19853e-06
2.03085e-06
1.02285e-06
1.68033e-06
9.60321e-08
-5.32213e-07
-4.45715e-07
-2.6719e-07
2.27694e-08
3.15734e-08
-1.0132e-07
-4.31792e-07
-6.38384e-07
-7.45515e-07
-6.83016e-07
-5.69488e-07
-5.80636e-07
-4.94429e-07
-4.71426e-07
-3.47139e-07
-2.00802e-07
7.0502e-08
4.66803e-07
7.59096e-07
1.22098e-06
1.32433e-06
1.3444e-06
-2.76522e-07
1.42849e-06
1.06102e-06
1.32665e-06
1.3383e-06
2.32919e-06
2.17108e-06
1.08047e-06
1.21707e-05
1.23614e-05
1.9843e-05
1.9666e-06
-1.47072e-06
-8.85317e-08
-1.2186e-06
-6.97787e-07
-5.72594e-07
-2.45886e-07
1.22566e-07
5.31734e-07
5.79117e-07
7.41664e-07
5.83442e-07
7.85443e-07
6.39152e-07
7.9246e-07
6.14794e-07
7.05035e-07
5.79347e-07
6.29329e-07
5.4395e-07
5.11004e-07
2.6404e-07
-2.02002e-07
-8.16388e-07
-1.48886e-06
-2.35261e-06
-2.38818e-06
-2.3768e-06
-2.47701e-06
-8.7631e-07
1.54134e-06
-5.20241e-06
3.95288e-07
4.85678e-06
9.71454e-06
-2.26617e-05
-1.63797e-05
4.90152e-05
-7.33795e-07
6.98242e-07
2.65485e-06
5.77232e-07
1.53887e-06
-3.35807e-07
1.36312e-07
-1.73136e-07
-4.79212e-07
-1.68242e-07
2.27371e-08
9.60697e-08
-7.94361e-08
-4.41823e-07
-6.08169e-07
-7.76315e-07
-5.97148e-07
-6.11968e-07
-4.55091e-07
-5.44713e-07
-3.43611e-07
-4.43143e-07
-1.11692e-07
-9.17634e-08
5.76791e-07
6.2834e-07
1.42335e-06
1.19866e-06
1.46348e-06
-4.00013e-07
1.31638e-06
7.38456e-07
1.1255e-06
9.18806e-07
1.45157e-06
1.21925e-06
1.65551e-06
5.57669e-06
2.09576e-06
-3.05423e-07
-1.25605e-06
-7.45005e-07
-8.19445e-07
-7.29739e-07
-4.74338e-07
-3.3922e-07
-1.91996e-07
2.19834e-07
3.53283e-07
6.03844e-07
4.66579e-07
4.9743e-07
6.26727e-07
6.03005e-07
7.25829e-07
5.35827e-07
6.51352e-07
4.02473e-07
5.30234e-07
2.33233e-07
3.16811e-07
-1.11532e-07
-2.48723e-07
-9.78376e-07
-1.37074e-06
-2.28909e-06
-2.73759e-06
-3.37846e-06
-3.63154e-06
-3.53977e-06
-2.00871e-06
-7.22954e-06
-5.90691e-06
-4.96809e-06
-2.53757e-06
-1.1766e-05
-3.62242e-05
-1.56449e-05
-3.78528e-05
1.73529e-06
4.32436e-07
1.7798e-06
-2.02073e-06
1.14751e-06
8.11406e-08
-2.31581e-07
-3.35211e-07
-7.99382e-08
1.21113e-07
1.56169e-07
-9.7396e-08
-3.68588e-07
-6.93835e-07
-6.97173e-07
-6.58117e-07
-5.51381e-07
-5.62885e-07
-4.85066e-07
-4.64e-07
-3.15264e-07
-2.55286e-07
-3.30723e-08
1.91176e-07
4.8802e-07
8.95602e-07
1.13769e-06
1.23517e-06
2.78979e-08
1.24051e-06
1.30131e-06
1.38141e-06
1.33405e-06
2.05044e-06
1.92469e-06
1.78617e-06
1.0091e-05
1.11867e-05
1.65445e-05
-2.13983e-07
-4.84391e-07
-1.05065e-06
-4.87757e-07
-4.72859e-07
-2.61865e-07
-6.32366e-08
4.34726e-08
3.71956e-07
2.69141e-07
3.52934e-07
4.9469e-07
4.85946e-07
7.63286e-07
6.43138e-07
7.70216e-07
5.73835e-07
6.7983e-07
5.04086e-07
6.33015e-07
4.44003e-07
5.11363e-07
4.94534e-08
-2.66212e-08
-8.13289e-07
-1.13136e-06
-1.93528e-06
-1.963e-06
-2.48906e-06
-7.30361e-07
6.46649e-07
-2.53157e-06
6.99337e-07
6.09242e-06
9.50545e-06
-2.1787e-05
-1.37038e-05
5.15273e-05
-1.72671e-07
-1.91836e-07
1.70597e-06
-1.43159e-06
2.69289e-06
-1.00191e-06
9.88623e-08
-2.52367e-08
-4.65094e-08
-7.22707e-08
1.76181e-07
1.62563e-07
-5.93343e-08
-3.86544e-07
-6.45505e-07
-6.68662e-07
-6.30897e-07
-5.17311e-07
-5.66349e-07
-4.39505e-07
-4.88555e-07
-2.85903e-07
-3.36282e-07
-2.78558e-08
5.83107e-08
5.3346e-07
7.44573e-07
1.21288e-06
1.03786e-06
-5.39213e-09
8.17704e-07
1.05632e-06
8.31458e-07
8.73464e-07
9.86477e-07
9.61077e-07
1.80349e-06
3.36617e-06
7.9856e-08
-2.50584e-06
-9.39221e-07
-1.64892e-06
-9.17075e-07
-8.87661e-07
-3.52656e-07
-1.8379e-07
-1.15524e-07
1.1309e-07
3.13587e-08
8.07273e-07
-3.82491e-08
2.72328e-07
4.50199e-07
6.22219e-07
5.95551e-07
6.63969e-07
5.06337e-07
5.30181e-07
3.64599e-07
3.58663e-07
1.98811e-07
9.2737e-08
-1.35022e-07
-4.78705e-07
-8.52903e-07
-1.56414e-06
-2.10398e-06
-3.07408e-06
-3.3746e-06
-3.84141e-06
-2.07278e-06
-6.09684e-06
-5.70051e-06
-4.52408e-06
-2.37784e-06
-1.15479e-05
-2.90097e-05
-1.01727e-05
-2.90114e-05
1.10698e-06
2.52831e-09
1.88137e-06
-1.96052e-06
1.13971e-06
-9.66732e-08
8.59344e-08
-6.73238e-07
1.90202e-07
2.42769e-07
1.7461e-07
-3.59464e-08
-4.16356e-07
-5.72609e-07
-6.50633e-07
-5.2344e-07
-5.64472e-07
-4.83269e-07
-5.42633e-07
-3.71173e-07
-3.8107e-07
-1.99427e-07
-1.86131e-07
8.88396e-08
1.79564e-07
6.38353e-07
7.45545e-07
1.02503e-06
1.25756e-07
1.1719e-06
1.43808e-06
1.57132e-06
1.44446e-06
1.86182e-06
1.80924e-06
2.407e-06
8.45094e-06
9.94946e-06
1.32315e-05
-1.06585e-06
-5.38151e-07
-4.68076e-07
-1.14361e-07
-3.98401e-07
-2.02812e-07
-2.04308e-07
-2.52526e-07
1.05472e-06
-3.03256e-07
2.31995e-07
-2.75016e-08
4.14597e-07
4.98334e-07
7.37071e-07
6.01973e-07
7.25417e-07
4.8352e-07
6.54099e-07
3.9623e-07
6.6152e-07
2.77623e-07
5.76269e-07
-5.75555e-08
2.7698e-07
-9.00027e-07
-4.20782e-07
-2.05606e-06
-1.27589e-06
-1.62666e-06
1.74657e-06
-1.45068e-06
1.70848e-06
6.1356e-06
8.82868e-06
-1.83407e-05
-1.18113e-05
4.99255e-05
-1.65769e-06
1.63753e-07
6.44134e-07
1.09503e-07
3.17366e-07
-9.7335e-07
5.90415e-07
-7.36979e-07
8.02924e-09
1.63778e-07
3.34018e-07
2.25983e-07
-6.96451e-08
-3.4286e-07
-5.5753e-07
-5.4189e-07
-5.23344e-07
-5.04197e-07
-5.10595e-07
-5.02001e-07
-4.09819e-07
-3.73825e-07
-2.60652e-07
-2.39244e-07
5.70082e-09
7.94162e-08
5.42233e-07
5.75353e-07
8.80696e-07
-1.2227e-07
7.72785e-07
8.80776e-07
1.07878e-06
6.17501e-07
8.3269e-07
6.21216e-07
1.57554e-06
1.34415e-06
-1.10301e-06
-3.21153e-06
-2.90625e-07
-9.35268e-07
-2.43494e-07
-1.00826e-07
-2.88249e-08
-2.24231e-07
-3.59473e-07
5.21489e-07
-5.41182e-07
9.42875e-07
-3.12175e-07
-9.89721e-08
2.31908e-07
4.21889e-07
5.60127e-07
6.2205e-07
5.26676e-07
4.96201e-07
3.34966e-07
3.36161e-07
1.4388e-07
1.4137e-07
-1.01506e-07
-1.96558e-07
-5.55801e-07
-9.56734e-07
-1.51305e-06
-2.39222e-06
-2.93449e-06
-3.52478e-06
-2.03374e-06
-5.1946e-06
-5.73457e-06
-4.2231e-06
-2.26784e-06
-1.06092e-05
-2.17098e-05
-6.00021e-06
-2.16157e-05
2.52188e-07
2.11657e-07
1.85501e-07
-1.42442e-07
2.04846e-07
-3.98431e-07
2.2431e-07
-4.76877e-07
3.45975e-07
4.56193e-07
2.39036e-07
-7.31795e-08
-3.21154e-07
-4.87956e-07
-4.51486e-07
-4.86777e-07
-4.40109e-07
-5.53034e-07
-4.25923e-07
-4.4895e-07
-2.74365e-07
-3.11957e-07
-1.40611e-07
-1.25089e-07
9.32693e-08
2.55578e-07
4.91111e-07
5.84866e-07
2.49909e-07
9.46545e-07
1.50816e-06
1.66439e-06
1.67635e-06
1.81846e-06
1.75181e-06
2.75826e-06
7.07331e-06
8.5566e-06
1.03617e-05
-4.68152e-07
-3.34487e-07
-1.37066e-07
-5.35823e-08
-1.35398e-07
-1.51828e-07
-6.58845e-08
-3.2723e-07
1.40204e-06
-6.22121e-07
-9.59424e-08
-3.78746e-08
1.27772e-07
4.27581e-07
5.24332e-07
7.11236e-07
5.76249e-07
6.48823e-07
4.1926e-07
5.71828e-07
3.27074e-07
5.56153e-07
2.34558e-07
5.16427e-07
7.55715e-08
2.15376e-07
-3.74104e-07
-5.15661e-07
-1.25333e-06
-4.8836e-07
1.56115e-06
1.1852e-07
2.10315e-06
6.5899e-06
8.01258e-06
-1.48099e-05
-9.89802e-06
4.50463e-05
-1.95328e-06
3.82386e-09
1.29077e-07
-5.21368e-08
6.21461e-08
-1.48713e-07
8.39766e-08
-7.72681e-07
1.9857e-07
2.98826e-07
3.56487e-07
1.62807e-07
-5.17783e-08
-3.21902e-07
-3.68624e-07
-4.35696e-07
-3.88918e-07
-4.87892e-07
-4.71289e-07
-4.92416e-07
-3.86625e-07
-3.63288e-07
-2.961e-07
-2.66434e-07
-1.66359e-07
-7.45036e-08
1.46693e-07
2.39621e-07
3.84405e-07
-1.0456e-07
4.77089e-07
9.13458e-07
8.79786e-07
8.43712e-07
4.92396e-07
5.15585e-07
1.3288e-06
1.66166e-07
-1.95503e-06
-3.59882e-06
-3.19115e-07
-3.19015e-07
-1.24917e-07
-2.28847e-08
-6.44071e-08
-2.44909e-07
-2.61095e-07
2.45004e-07
-1.47129e-07
7.17189e-07
-1.25914e-07
-4.56147e-08
3.69846e-08
2.83364e-07
5.32258e-07
5.45945e-07
6.23131e-07
3.63755e-07
4.27647e-07
1.4446e-07
2.31796e-07
-5.67452e-08
5.35129e-08
-2.7588e-07
-2.03331e-07
-7.44216e-07
-8.34395e-07
-1.86017e-06
-2.06774e-06
-3.03411e-06
-1.72992e-06
-4.66234e-06
-5.37838e-06
-4.26496e-06
-1.90157e-06
-9.49377e-06
-1.53206e-05
-3.03649e-06
-1.57184e-05
-5.69238e-08
-2.542e-08
2.03462e-08
-1.49264e-07
4.6442e-08
-1.48267e-07
-4.90183e-08
-3.94114e-07
3.65752e-07
2.60321e-07
1.42602e-07
-9.17646e-08
-2.59981e-07
-3.16601e-07
-3.55183e-07
-3.54952e-07
-4.78192e-07
-4.4435e-07
-4.72677e-07
-3.36975e-07
-3.5372e-07
-2.32693e-07
-2.56826e-07
-1.20482e-07
-1.07657e-07
1.10441e-07
1.49427e-07
3.32748e-07
1.55129e-07
8.20125e-07
1.26536e-06
1.7291e-06
1.75752e-06
1.96432e-06
1.75995e-06
3.00214e-06
5.86041e-06
7.17899e-06
7.92542e-06
-2.79149e-07
-2.75169e-07
-2.25541e-08
-6.536e-08
-1.49775e-07
-1.63182e-07
-1.23356e-07
-1.50596e-07
1.82185e-07
9.07092e-08
-2.57464e-07
-7.6687e-08
2.68175e-08
2.53343e-07
5.10717e-07
6.42303e-07
6.36324e-07
5.37425e-07
4.81201e-07
3.63639e-07
3.88675e-07
2.74376e-07
3.8738e-07
2.6217e-07
4.54899e-07
1.77861e-07
4.49428e-07
-2.24352e-07
4.76642e-08
-2.02464e-07
2.1031e-06
1.03498e-06
2.37985e-06
7.42772e-06
7.23984e-06
-1.15244e-05
-1.00121e-05
4.03161e-05
-2.86173e-06
-1.30758e-07
-6.01827e-08
-8.85713e-08
3.33644e-08
-1.12124e-07
3.97378e-09
-1.20193e-07
7.29111e-08
2.78439e-07
2.92687e-07
9.43026e-08
-1.03285e-07
-1.87412e-07
-2.98043e-07
-2.63757e-07
-3.97435e-07
-3.91663e-07
-4.94424e-07
-3.84413e-07
-4.03706e-07
-3.03785e-07
-3.32003e-07
-2.62154e-07
-2.67244e-07
-1.76982e-07
-1.11683e-07
-8.66804e-09
-2.08035e-09
-1.14618e-07
2.2839e-07
6.44186e-07
8.38133e-07
7.18896e-07
5.23523e-07
2.95138e-07
9.94177e-07
-7.77862e-07
-2.4837e-06
-3.10344e-06
-2.83828e-07
-1.83947e-07
-1.05928e-07
-1.49901e-08
-7.31022e-08
-2.67063e-07
-2.53276e-07
1.36229e-07
-3.8979e-08
-5.23027e-08
1.39311e-07
-3.33834e-07
8.94007e-08
1.76752e-07
4.55043e-07
6.19926e-07
4.62801e-07
4.7092e-07
1.95363e-07
2.6499e-07
-3.09512e-08
8.12631e-08
-1.94121e-07
-4.04668e-08
-3.30338e-07
-2.85188e-07
-6.88159e-07
-1.05301e-06
-1.57648e-06
-2.06862e-06
-1.69208e-06
-3.85282e-06
-5.01221e-06
-3.99373e-06
-1.62913e-06
-8.02039e-06
-1.07043e-05
-1.0593e-06
-1.18669e-05
-1.32538e-07
-9.19192e-08
-3.20759e-08
-1.17121e-07
4.29215e-08
-8.71558e-08
-1.95114e-08
-2.48544e-09
7.66325e-08
1.54922e-07
2.48985e-08
-8.05121e-08
-1.50302e-07
-2.11931e-07
-2.5359e-07
-3.61466e-07
-4.02399e-07
-4.41088e-07
-3.62559e-07
-3.64172e-07
-2.67099e-07
-2.95357e-07
-1.95441e-07
-2.29736e-07
-9.38208e-08
-9.50476e-08
6.35338e-08
5.36444e-08
1.93077e-07
5.25187e-07
1.07403e-06
1.48712e-06
1.816e-06
1.99977e-06
1.85787e-06
2.97874e-06
4.80043e-06
5.76527e-06
6.05159e-06
-2.27142e-07
-2.22317e-07
6.25343e-09
-7.15209e-08
-1.69142e-07
-1.58232e-07
-1.2307e-07
-2.1455e-07
1.71981e-07
1.1423e-07
-2.50807e-07
-5.34295e-09
-2.45006e-07
1.7104e-07
4.85367e-07
5.46413e-07
5.91321e-07
4.17202e-07
4.11875e-07
2.57649e-07
2.79663e-07
1.76549e-07
2.71621e-07
2.30026e-07
4.019e-07
3.39869e-07
6.20426e-07
2.85017e-07
6.56479e-07
4.18057e-07
2.32118e-06
1.24804e-06
3.03534e-06
6.80336e-06
7.59875e-06
-8.75143e-06
-9.46913e-06
3.4845e-05
-3.09212e-06
-1.49947e-07
-1.01292e-07
-8.91839e-08
2.31322e-08
-7.53402e-08
2.9042e-08
-5.40932e-08
-1.9312e-08
4.43596e-08
1.3111e-07
6.76208e-08
1.57612e-08
-1.50599e-07
-1.39292e-07
-2.84803e-07
-2.9266e-07
-4.29942e-07
-3.43791e-07
-3.90557e-07
-2.84599e-07
-3.23528e-07
-2.55118e-07
-2.96202e-07
-2.46257e-07
-2.67688e-07
-1.71844e-07
-2.05702e-07
-1.12026e-07
-2.26953e-07
1.16794e-07
2.66736e-07
6.80938e-07
5.39037e-07
5.01843e-07
4.15132e-08
5.70701e-07
-1.33172e-06
-2.48506e-06
-2.80498e-06
-2.38103e-07
-1.37895e-07
-1.00274e-07
-1.04718e-08
-9.27877e-08
-2.62211e-07
-2.54479e-07
1.11373e-07
-5.01486e-08
-4.40006e-08
9.85644e-08
-1.28516e-07
-4.39808e-08
2.62752e-07
3.67029e-07
4.61848e-07
4.28952e-07
2.45571e-07
2.44386e-07
5.44788e-08
4.90166e-08
-1.19865e-07
-8.41651e-08
-1.82517e-07
-1.51016e-07
-2.52992e-07
-3.78981e-07
-6.75005e-07
-1.03888e-06
-1.3724e-06
-1.57147e-06
-3.16435e-06
-4.31891e-06
-3.65376e-06
-1.30546e-06
-6.25888e-06
-6.65368e-06
1.19791e-07
-8.94302e-06
-1.35668e-07
-1.01943e-07
-4.39596e-08
-9.10077e-08
4.25255e-08
-4.41481e-08
8.22966e-09
-4.64487e-08
-2.01361e-08
4.05895e-08
9.30498e-08
-2.39974e-07
3.83201e-08
-1.11864e-07
-2.33772e-07
-3.17136e-07
-3.60525e-07
-3.33455e-07
-3.31499e-07
-2.6366e-07
-2.80984e-07
-2.08551e-07
-2.42041e-07
-1.5541e-07
-1.51322e-07
-8.16212e-08
-4.1875e-08
1.71496e-08
1.27145e-07
3.8205e-07
8.05172e-07
1.21176e-06
1.68707e-06
1.90932e-06
1.99253e-06
2.79304e-06
3.82356e-06
4.53918e-06
4.46478e-06
-1.91338e-07
-1.88884e-07
2.2293e-08
-9.00106e-08
-1.66549e-07
-1.45807e-07
-1.10523e-07
-2.28983e-07
1.32642e-07
7.57038e-08
-1.02921e-07
-6.27324e-08
1.15251e-08
6.25303e-08
2.93627e-07
4.28246e-07
3.17906e-07
3.59488e-07
1.93973e-07
2.71933e-07
7.16411e-08
1.99448e-07
5.1065e-08
2.84869e-07
1.78277e-07
5.2221e-07
4.23789e-07
7.69496e-07
5.83872e-07
1.20174e-06
1.56207e-06
1.79121e-06
2.51725e-06
6.4856e-06
7.26378e-06
-6.43642e-06
-9.3751e-06
3.02183e-05
-3.26946e-06
-1.37148e-07
-1.00704e-07
-7.73983e-08
2.00465e-08
-5.4792e-08
4.91482e-08
-5.11038e-08
-1.54554e-08
-4.67365e-08
6.21026e-08
-2.29663e-07
2.55635e-07
-6.91966e-10
-6.42054e-08
-1.57133e-07
-3.25277e-07
-2.64996e-07
-3.34157e-07
-2.33439e-07
-2.8289e-07
-2.04179e-07
-2.56035e-07
-2.04707e-07
-2.53768e-07
-1.75861e-07
-2.43571e-07
-1.41863e-07
-2.46418e-07
-1.07967e-07
-1.34157e-07
2.19019e-07
2.26989e-07
5.43196e-07
1.92381e-07
7.17301e-08
3.08406e-07
-1.54706e-06
-2.46685e-06
-2.10229e-06
-1.98955e-07
-1.05496e-07
-1.0382e-07
-1.38409e-08
-8.13975e-08
-2.56462e-07
-2.36541e-07
9.63102e-08
-1.0107e-07
-2.34761e-08
1.20826e-07
3.23477e-08
6.48812e-08
1.57834e-07
3.07973e-07
2.83647e-07
1.58997e-07
1.44574e-07
1.11205e-07
5.28522e-08
-3.88988e-08
-1.16097e-07
-1.49907e-07
-1.61927e-07
-1.55977e-07
-1.72276e-07
-2.84743e-07
-4.15557e-07
-7.5386e-07
-9.22504e-07
-1.52256e-06
-2.48735e-06
-3.6061e-06
-3.04838e-06
-9.81979e-07
-4.50965e-06
-3.62461e-06
1.02098e-06
-6.9378e-06
-1.20832e-07
-8.61173e-08
-4.05633e-08
-6.98298e-08
4.8891e-08
-2.78969e-08
3.64007e-08
-7.63584e-08
-8.26352e-09
-9.55162e-08
1.29208e-07
-2.91986e-07
1.95477e-07
1.60101e-08
-1.62229e-07
-2.33088e-07
-2.59945e-07
-2.52804e-07
-2.24289e-07
-2.27313e-07
-1.84369e-07
-2.05691e-07
-1.5289e-07
-1.14719e-07
-8.47321e-08
-6.03988e-08
-1.8608e-08
1.49236e-08
1.37591e-07
2.75329e-07
6.48281e-07
9.16805e-07
1.49415e-06
1.67914e-06
2.04374e-06
2.37504e-06
2.99384e-06
3.30548e-06
3.21016e-06
-1.57931e-07
-1.66211e-07
2.45016e-08
-8.52827e-08
-1.61277e-07
-1.30993e-07
-1.05773e-07
-2.47862e-07
1.01397e-07
1.20327e-07
-9.57316e-08
1.37149e-07
6.0296e-08
2.4412e-07
1.74179e-07
2.59723e-08
1.78662e-07
1.05144e-07
2.00611e-07
7.90722e-08
1.27093e-07
-1.12655e-08
1.0337e-07
3.77764e-08
2.33627e-07
2.47959e-07
5.01997e-07
5.33568e-07
7.76157e-07
9.47957e-07
1.34705e-06
1.39286e-06
2.34094e-06
5.18832e-06
6.89092e-06
-4.81279e-06
-9.0796e-06
2.48269e-05
-3.18067e-06
-1.13532e-07
-8.67887e-08
-6.12836e-08
2.32824e-08
-3.36194e-08
6.33232e-08
-3.63365e-08
2.07198e-09
-4.25984e-08
6.81533e-09
-2.20405e-07
3.34453e-07
5.52663e-09
1.54187e-08
-1.74924e-07
-1.5785e-07
-2.41311e-07
-1.60534e-07
-2.17099e-07
-1.36222e-07
-1.89627e-07
-1.32276e-07
-1.62153e-07
-9.52564e-08
-1.48622e-07
-1.0774e-07
-1.56094e-07
-1.19762e-07
-1.46714e-07
-6.35264e-08
2.45739e-08
1.46141e-07
2.50311e-07
1.21254e-07
-7.54991e-08
-2.35624e-07
-1.9344e-06
-2.08525e-06
-1.85193e-06
-1.62838e-07
-8.93945e-08
-9.871e-08
-3.77833e-09
-8.33745e-08
-2.37023e-07
-2.33333e-07
8.35214e-08
-9.16974e-08
-3.9038e-08
2.16982e-07
6.09905e-08
1.5347e-07
7.46864e-08
-3.63486e-08
5.38784e-07
-6.96905e-08
1.47987e-08
5.58115e-08
3.75547e-08
-8.06056e-08
-1.28517e-07
-1.92188e-07
-1.76435e-07
-1.7454e-07
-1.80537e-07
-2.50306e-07
-3.45592e-07
-5.94906e-07
-7.68446e-07
-1.38226e-06
-1.99178e-06
-2.90584e-06
-2.41844e-06
-7.54328e-07
-3.18668e-06
-1.56277e-06
1.62275e-06
-5.29587e-06
-1.03785e-07
-7.40559e-08
-3.21459e-08
-5.10473e-08
5.36418e-08
-1.49818e-08
5.68026e-08
-5.43747e-08
-1.80165e-08
-6.77716e-08
1.11311e-07
-1.58098e-07
1.79807e-07
-5.45845e-08
-9.75046e-08
-1.64334e-07
-1.57884e-07
-1.57338e-07
-1.40379e-07
-1.28954e-07
-1.37443e-07
-1.11895e-07
-5.67071e-08
-1.8688e-08
1.59117e-09
1.73646e-09
3.06483e-08
6.3312e-08
1.60162e-07
2.57668e-07
5.4141e-07
7.26039e-07
1.25661e-06
1.40773e-06
1.86741e-06
1.90828e-06
2.19585e-06
2.28502e-06
2.17851e-06
-1.4138e-07
-1.43131e-07
2.84241e-08
-9.17005e-08
-1.44497e-07
-1.12364e-07
-9.62722e-08
-2.38261e-07
9.49083e-08
1.21796e-07
-4.18933e-08
1.34303e-07
9.24224e-08
-1.09459e-07
6.76003e-07
-4.5255e-07
-2.78329e-07
-8.40558e-08
3.83463e-08
9.07464e-08
2.80315e-09
-7.69526e-09
-6.01269e-08
1.06919e-08
2.27777e-08
1.74557e-07
2.33844e-07
4.49938e-07
4.74253e-07
8.10745e-07
8.06992e-07
1.17705e-06
1.78463e-06
3.86531e-06
5.96122e-06
-3.86568e-06
-7.32666e-06
2.06058e-05
-3.23744e-06
-9.58381e-08
-7.17967e-08
-4.78332e-08
2.5338e-08
-2.38223e-08
7.31888e-08
-2.28454e-08
2.62373e-08
-4.78344e-08
-1.64024e-08
-3.40023e-08
2.57778e-08
7.64982e-08
-7.76726e-08
-7.76155e-08
-1.60756e-07
-8.42312e-08
-1.44933e-07
-6.89798e-08
-1.18645e-07
-6.35676e-08
-6.53334e-08
5.10956e-09
-5.02141e-09
-4.00816e-09
-4.57063e-08
-4.3263e-08
-7.34091e-08
-3.55679e-08
-6.27446e-08
6.23169e-08
4.16428e-09
1.89916e-07
-7.70592e-08
-1.90264e-07
-3.26892e-07
-1.78014e-06
-2.089e-06
-1.36933e-06
-1.45129e-07
-7.61116e-08
-1.04964e-07
-6.54567e-09
-6.6117e-08
-2.21762e-07
-2.07239e-07
8.22799e-08
-9.72195e-08
-2.73251e-08
2.18424e-07
8.07109e-08
-2.70746e-08
2.35285e-07
-4.55553e-07
3.43335e-07
-4.42329e-07
-3.36287e-07
-5.08498e-08
-2.76777e-08
-7.39908e-08
-1.86504e-07
-1.95835e-07
-2.39431e-07
-1.79844e-07
-2.48914e-07
-2.27405e-07
-3.87387e-07
-4.89142e-07
-7.47309e-07
-1.18722e-06
-1.62785e-06
-2.34112e-06
-1.82037e-06
-8.6934e-07
-2.19576e-06
-3.84598e-07
1.9587e-06
-4.12275e-06
-8.45312e-08
-5.71578e-08
-2.48272e-08
-3.79831e-08
5.55973e-08
-3.61152e-09
7.37192e-08
-4.25876e-08
-1.93358e-08
-4.23229e-08
2.46089e-08
3.99208e-08
-2.352e-08
2.62073e-08
-8.72832e-08
-4.65923e-08
-1.82848e-07
-4.59312e-08
-7.6407e-08
-6.15596e-08
-5.06358e-08
2.6593e-09
5.01472e-08
9.48628e-08
7.07664e-08
6.95668e-08
7.30187e-08
1.22354e-07
1.83983e-07
2.77541e-07
4.69743e-07
6.12182e-07
1.03573e-06
1.13729e-06
1.63551e-06
1.47156e-06
1.59169e-06
1.49889e-06
1.5098e-06
-1.15639e-07
-1.43082e-07
2.09532e-08
-8.5782e-08
-1.3224e-07
-9.5505e-08
-8.53387e-08
-2.29776e-07
9.0054e-08
1.3465e-07
-5.0108e-08
8.32672e-08
1.39699e-08
-2.97842e-07
2.65422e-07
-1.03836e-06
-4.30817e-07
-2.47598e-07
-1.64209e-08
1.69139e-08
-2.45603e-08
-9.24694e-08
-1.07049e-07
-1.11867e-07
-6.44828e-08
-1.73224e-08
1.00581e-07
1.77622e-07
3.05417e-07
4.49481e-07
5.1223e-07
8.04991e-07
1.22295e-06
2.84946e-06
4.31547e-06
-2.66283e-06
-4.92463e-06
1.5398e-05
-3.04084e-06
-8.1207e-08
-5.68747e-08
-3.57369e-08
2.58208e-08
-1.20135e-08
7.71692e-08
-7.70761e-09
3.8605e-08
-4.25496e-08
-2.05087e-08
-3.50632e-08
5.96288e-09
1.39249e-08
-2.76887e-08
-3.42763e-08
-2.40989e-07
-8.55944e-08
-5.69791e-08
-2.26702e-08
-9.41172e-09
2.14431e-09
7.51787e-08
1.14548e-07
1.18297e-07
7.58467e-08
3.47354e-08
1.75172e-08
1.43551e-08
2.32483e-08
1.30103e-08
6.584e-08
7.76364e-09
1.18937e-07
-1.44153e-07
-1.76233e-07
-4.50538e-07
-1.70635e-06
-1.68787e-06
-1.11692e-06
-1.35732e-07
-7.68082e-08
-1.01275e-07
-1.14647e-09
-6.64621e-08
-1.97029e-07
-1.93752e-07
8.54167e-08
-8.35969e-08
-3.5447e-08
1.96743e-07
-9.79979e-09
-1.40422e-07
-2.97101e-08
-7.38486e-07
-1.37119e-07
-9.01153e-07
-1.72447e-07
-6.80578e-08
-1.84464e-08
-1.33924e-07
-1.63638e-07
-2.62707e-07
-2.12307e-07
-2.59612e-07
-2.18508e-07
-2.96363e-07
-3.41751e-07
-4.75799e-07
-6.74021e-07
-9.96322e-07
-1.36797e-06
-1.82258e-06
-1.39908e-06
-1.49131e-06
-1.68879e-06
-5.82135e-08
1.66836e-06
-3.20307e-06
-6.16383e-08
-4.88749e-08
-1.93349e-08
-2.79864e-08
5.41543e-08
2.15234e-09
8.19923e-08
-3.48381e-08
-2.01977e-08
-3.17217e-08
3.65858e-08
5.04078e-09
-3.23945e-08
7.206e-09
-2.7997e-07
-1.5525e-07
-1.61331e-07
1.58189e-08
-2.31756e-08
4.81396e-08
6.91071e-08
1.04447e-07
1.61372e-07
1.52014e-07
1.21205e-07
9.711e-08
1.06491e-07
1.52817e-07
1.9932e-07
2.86978e-07
4.08254e-07
5.40919e-07
8.24041e-07
9.54725e-07
1.28787e-06
1.10928e-06
1.12871e-06
1.03806e-06
1.10434e-06
-9.22931e-08
-1.32608e-07
1.50517e-08
-9.15949e-08
-1.17244e-07
-7.87789e-08
-7.05175e-08
-2.0556e-07
8.53441e-08
1.16801e-07
-8.69065e-08
-7.08215e-09
-1.21431e-07
-4.08828e-07
-1.6357e-07
-7.12421e-07
-2.36128e-07
-1.69815e-07
5.38237e-09
-1.9858e-08
-4.79699e-08
-1.37488e-07
-1.39568e-07
-1.75899e-07
-1.38594e-07
-1.26239e-07
-3.65644e-08
8.36635e-09
1.20885e-07
1.84275e-07
2.73062e-07
4.49501e-07
8.1242e-07
1.86952e-06
2.92181e-06
-1.88448e-06
-2.70867e-06
1.14185e-05
-2.90036e-06
-7.80505e-08
-3.63816e-08
-2.82913e-08
2.35167e-08
-9.06033e-09
7.73673e-08
-4.07046e-09
4.76414e-08
-3.31138e-08
-7.40726e-09
-3.71548e-08
-1.60188e-08
6.46333e-08
-3.02735e-07
4.26969e-09
-3.86823e-07
2.79697e-08
-1.75408e-07
1.82573e-07
7.58032e-08
1.5199e-07
1.85081e-07
1.94253e-07
1.72868e-07
1.09697e-07
7.35026e-08
6.06901e-08
6.71881e-08
6.64774e-08
6.76361e-08
7.69001e-08
3.96723e-08
7.25477e-08
-1.14184e-07
-2.37875e-07
-3.637e-07
-1.27815e-06
-1.40688e-06
-7.90595e-07
-2.09756e-07
-4.28558e-08
-9.74125e-08
-8.09218e-09
-5.41459e-08
-1.8026e-07
-1.64501e-07
8.1868e-08
-8.00201e-08
-4.62712e-08
1.2599e-07
-8.26232e-08
-2.18594e-07
-1.56871e-07
-6.73723e-07
-8.5038e-08
-7.46677e-07
3.45107e-07
-2.89413e-09
-4.46654e-08
-9.63247e-08
-1.99965e-07
-2.19595e-07
-2.48607e-07
-2.23984e-07
-2.44995e-07
-2.60469e-07
-3.26283e-07
-4.07293e-07
-5.88437e-07
-8.06428e-07
-1.11552e-06
-1.43749e-06
-9.16888e-07
-2.17223e-06
-1.28958e-06
-1.90143e-07
1.15262e-06
-2.50883e-06
2.31107e-08
-1.67077e-08
-9.14263e-09
-2.11972e-08
5.08962e-08
5.90684e-09
8.4557e-08
-2.39793e-08
-5.01788e-09
-2.2819e-08
3.95603e-08
5.50172e-08
-2.08714e-07
1.53434e-07
-7.82169e-07
2.66144e-08
-3.70983e-07
2.52251e-07
8.2932e-08
2.39993e-07
2.35474e-07
2.24685e-07
2.0443e-07
1.68789e-07
1.17062e-07
9.95366e-08
1.13153e-07
1.52794e-07
1.93062e-07
2.67922e-07
3.46328e-07
4.65042e-07
6.5034e-07
7.62432e-07
1.00718e-06
8.47831e-07
8.72047e-07
8.12312e-07
9.27536e-07
4.20074e-08
-2.46413e-07
-1.96618e-09
-8.54338e-08
-1.09039e-07
-6.66777e-08
-6.14555e-08
-1.90246e-07
7.61693e-08
8.57915e-08
-1.15462e-07
-6.8625e-08
-1.70486e-07
-4.45354e-07
-9.63183e-08
-6.67016e-07
3.04313e-07
-5.0868e-07
-1.84127e-07
-7.82836e-08
-1.31167e-07
-1.24376e-07
-1.92765e-07
-1.62764e-07
-2.05868e-07
-1.48437e-07
-1.42481e-07
-6.52452e-08
-3.61544e-08
3.32939e-08
7.8415e-08
1.84372e-07
5.56997e-07
1.03448e-06
3.20335e-07
-1.29483e-06
-8.48298e-07
7.69774e-06
-2.59103e-06
-3.9431e-08
2.28326e-08
-7.95153e-09
2.35562e-08
-4.0316e-09
7.38256e-08
1.99428e-09
5.62183e-08
-1.96998e-08
8.62027e-09
-2.60687e-08
-4.18367e-08
1.22619e-07
-4.61854e-07
1.16947e-07
-4.13629e-07
9.87437e-09
1.17272e-07
2.04795e-07
3.64983e-07
2.83983e-07
2.30434e-07
2.17098e-07
1.56715e-07
1.06861e-07
7.81131e-08
7.86812e-08
8.62665e-08
9.11618e-08
9.0558e-08
8.68683e-08
6.02218e-08
5.66297e-08
-8.4505e-08
-2.01539e-07
-1.91838e-07
-8.67253e-07
-9.81185e-07
-5.10466e-07
-2.29442e-07
-2.84068e-08
-1.01032e-07
-8.253e-09
-5.61462e-08
-1.59113e-07
-1.51188e-07
7.90578e-08
-7.8381e-08
-5.25783e-08
8.05044e-08
-1.15264e-07
-2.33997e-07
-1.63238e-07
-6.33841e-07
1.08602e-07
-4.59133e-07
2.44644e-07
-1.78808e-07
-3.05904e-07
-1.88496e-07
-2.16399e-07
-2.19322e-07
-2.2889e-07
-2.07874e-07
-2.12402e-07
-2.28222e-07
-2.67206e-07
-3.38383e-07
-4.65006e-07
-6.31262e-07
-8.54263e-07
-1.0843e-06
-1.25385e-06
6.61194e-08
-1.64359e-06
-3.49063e-07
4.01187e-07
-1.87203e-06
8.04962e-08
3.60298e-08
6.43601e-09
-1.41286e-08
4.6987e-08
5.68195e-09
8.33402e-08
-1.86301e-08
9.15974e-09
-1.97776e-08
5.09409e-08
6.34425e-08
-1.01767e-07
-8.44911e-08
-4.92899e-07
-4.06934e-07
1.63918e-07
-1.03796e-08
4.42446e-07
3.12518e-07
2.28763e-07
2.45281e-07
2.01103e-07
1.30877e-07
9.31124e-08
8.02669e-08
9.61594e-08
1.33346e-07
1.63603e-07
2.27321e-07
2.74365e-07
3.83219e-07
4.86787e-07
6.16422e-07
7.58439e-07
6.64499e-07
6.97815e-07
7.32567e-07
8.22525e-07