/*--------------------------------*- C++ -*----------------------------------*\
| =========                 |                                                 |
| \\      /  F ield         | OpenFOAM: The Open Source CFD Toolbox           |
|  \\    /   O peration     | Version:  2306                                  |
|   \\  /    A nd           | Website:  www.openfoam.com                      |
|    \\/     M anipulation  |                                                 |
\*---------------------------------------------------------------------------*/
FoamFile
{
    version     2.0;
    format      ascii;
    arch        "LSB;label=32;scalar=64";
    class       volScalarField;
    location    "975";
    object      nuTilda;
}
// * * * * * * * * * * * * * * * * * * * * * * * * * * * * * * * * * * * * * //

dimensions      [0 2 -1 0 0 0 0];

internalField   nonuniform List<scalar> 
10720
(
6.29092e-05
6.61138e-05
7.02153e-05
7.53178e-05
8.16866e-05
8.97462e-05
0.000100161
0.000113483
0.000130973
0.000154081
0.00018512
0.000227459
0.000285633
0.000367523
0.000486575
0.000664671
0.000946282
0.00139545
0.00221747
0.00358942
0.0069015
0.0127114
0.0339124
0.076049
0.0937402
0.0946679
0.0957022
0.0992314
0.102748
0.104486
0.104464
0.103217
0.100848
0.0974151
0.0927943
0.0869137
0.0784804
0.0690232
0.0538298
6.00005e-05
5.73604e-05
5.46053e-05
5.19066e-05
4.91579e-05
4.63757e-05
4.36718e-05
4.15912e-05
4.34422e-05
4.72961e-05
5.29035e-05
6.05937e-05
7.10607e-05
8.55651e-05
0.000105908
0.000135074
0.00017782
0.000242227
0.000342409
0.00050322
0.000773851
0.00124219
0.00211765
0.00376992
0.00732809
0.0147229
0.0324777
0.0663216
0.0934696
0.105025
0.108433
0.109375
0.109471
0.108975
0.107974
0.106577
0.104431
0.101996
0.0924634
3.8071e-05
3.78508e-05
3.76496e-05
3.74809e-05
3.72852e-05
3.71033e-05
3.69672e-05
3.68471e-05
3.67951e-05
3.68408e-05
3.69025e-05
3.75059e-05
3.96453e-05
4.42923e-05
5.39067e-05
7.20392e-05
0.000107839
0.000173825
0.000318858
0.000589613
0.00132209
0.00283125
0.0071132
0.020508
0.0395405
0.0633163
0.0925256
0.123649
0.148687
0.162649
0.167952
0.168785
0.167204
0.163852
0.159338
0.153837
0.148548
0.139892
0.147212
3.8244e-05
3.84755e-05
3.86703e-05
3.89311e-05
3.91945e-05
3.9457e-05
3.97066e-05
3.99145e-05
3.97971e-05
3.95291e-05
3.91564e-05
3.86932e-05
3.81511e-05
3.75296e-05
3.67953e-05
3.59241e-05
3.48274e-05
3.34377e-05
3.15607e-05
2.8973e-05
2.51729e-05
1.98027e-05
1.18098e-05
4.78901e-06
7.59954e-06
0.000115494
0.000541176
0.0041568
0.0141156
0.0287197
0.0437273
0.0550627
0.0618255
0.0656074
0.0680052
0.0699954
0.071727
0.075299
0.0784605
4.03655e-05
4.03971e-05
4.04297e-05
4.04648e-05
4.05077e-05
4.05556e-05
4.06102e-05
4.06739e-05
4.07487e-05
4.0836e-05
4.09392e-05
4.10653e-05
4.12046e-05
4.14503e-05
4.14618e-05
4.07956e-05
3.72037e-05
3.54257e-05
2.03724e-05
0.000118542
0.000260132
3.8754e-05
0.00147406
0.000526425
0.00289497
0.00738536
0.0154453
0.0308588
0.0572656
0.0937062
0.132759
0.164497
0.184918
0.196755
0.203443
0.206322
0.20758
0.201627
0.212134
4.03413e-05
4.03065e-05
4.02799e-05
4.02404e-05
4.02063e-05
4.01696e-05
4.01369e-05
4.0111e-05
4.01198e-05
4.01475e-05
4.01836e-05
4.02277e-05
4.02815e-05
4.03416e-05
4.0409e-05
4.04833e-05
4.05673e-05
4.06631e-05
4.0777e-05
4.09146e-05
4.10897e-05
4.13121e-05
4.16237e-05
4.19506e-05
4.23858e-05
4.19223e-05
4.20738e-05
3.13478e-05
0.00010768
0.000790928
0.00301751
0.00754202
0.0142529
0.0224362
0.0311574
0.0396008
0.047
0.0536722
0.0631649
4.00344e-05
4.00299e-05
4.00288e-05
4.00295e-05
4.00312e-05
4.00361e-05
4.00452e-05
4.00577e-05
4.00763e-05
4.01015e-05
4.01347e-05
4.0178e-05
4.02344e-05
4.0305e-05
4.03987e-05
4.0511e-05
4.02423e-05
3.98169e-05
3.62298e-05
2.60334e-05
8.59521e-06
1.31452e-05
0
0.000108065
0.000604891
0.00158697
0.000438071
0.00131312
0.00415832
0.0135961
0.0356514
0.0728147
0.118846
0.161343
0.193221
0.215348
0.231944
0.239195
0.255721
4.00356e-05
4.004e-05
4.00458e-05
4.00498e-05
4.00569e-05
4.00607e-05
4.00631e-05
4.00648e-05
4.00608e-05
4.00558e-05
4.00494e-05
4.00425e-05
4.0036e-05
4.00297e-05
4.00235e-05
4.0017e-05
4.00102e-05
4.00028e-05
3.99934e-05
3.99839e-05
3.99739e-05
3.99632e-05
3.99506e-05
3.99389e-05
3.99262e-05
3.99306e-05
3.9917e-05
4.00278e-05
3.98714e-05
3.97854e-05
3.83221e-05
3.60542e-05
0.000233077
0.00104683
0.00304066
0.00689435
0.0131038
0.021848
0.039229
4.00808e-05
4.00819e-05
4.00824e-05
4.0084e-05
4.00869e-05
4.00905e-05
4.00955e-05
4.01021e-05
4.01108e-05
4.01222e-05
4.01371e-05
4.01566e-05
4.01822e-05
4.0215e-05
4.02593e-05
4.03106e-05
4.03936e-05
4.03936e-05
4.08259e-05
4.05203e-05
3.75308e-05
2.9114e-05
8.98931e-06
4.53985e-06
0
0
9.37836e-05
0.000285335
0.00091614
0.00306244
0.000921691
0.00810036
0.029556
0.0707107
0.124109
0.175038
0.217169
0.248055
0.278392
4.00809e-05
4.00784e-05
4.00797e-05
4.00777e-05
4.00793e-05
4.00771e-05
4.00732e-05
4.00697e-05
4.00677e-05
4.00673e-05
4.00672e-05
4.00671e-05
4.00677e-05
4.00687e-05
4.00705e-05
4.00728e-05
4.00756e-05
4.00791e-05
4.00831e-05
4.00877e-05
4.00928e-05
4.00984e-05
4.01048e-05
4.01118e-05
4.01209e-05
4.01288e-05
4.01533e-05
4.01157e-05
4.03775e-05
3.92932e-05
4.43763e-05
2.15043e-05
6.27429e-05
0.000253337
9.29453e-05
0.00031375
0.00104337
0.0017458
0.0137073
4.00695e-05
4.00691e-05
4.00696e-05
4.00701e-05
4.00703e-05
4.0071e-05
4.00721e-05
4.00736e-05
4.00758e-05
4.0079e-05
4.00833e-05
4.00892e-05
4.00973e-05
4.01082e-05
4.01232e-05
4.01433e-05
4.01719e-05
4.01904e-05
4.0308e-05
4.04531e-05
4.0953e-05
4.05612e-05
3.84293e-05
2.34182e-05
8.23243e-06
5.47987e-06
2.445e-06
0
0
0
0.000206812
0.00184866
0.000376738
0.00873728
0.0380477
0.093235
0.160383
0.223981
0.278353
4.00686e-05
4.00673e-05
4.0069e-05
4.00686e-05
4.00718e-05
4.00713e-05
4.00687e-05
4.00665e-05
4.00647e-05
4.00636e-05
4.00628e-05
4.00619e-05
4.00614e-05
4.00611e-05
4.00611e-05
4.00611e-05
4.00614e-05
4.00617e-05
4.00622e-05
4.00627e-05
4.00631e-05
4.00633e-05
4.00635e-05
4.00628e-05
4.00627e-05
4.00633e-05
4.0064e-05
4.00674e-05
4.00666e-05
4.00832e-05
4.00469e-05
4.02001e-05
3.89094e-05
3.61299e-05
3.00329e-05
7.791e-05
0.00024733
0.000456647
0.0024032
4.00699e-05
4.00703e-05
4.00706e-05
4.00707e-05
4.0071e-05
4.00711e-05
4.00714e-05
4.00721e-05
4.0073e-05
4.00743e-05
4.00762e-05
4.00789e-05
4.00827e-05
4.0088e-05
4.00954e-05
4.01057e-05
4.01195e-05
4.01339e-05
4.01499e-05
4.01786e-05
4.02919e-05
4.04869e-05
4.15169e-05
4.09241e-05
3.59189e-05
2.75713e-05
1.21058e-05
7.50258e-06
5.90586e-06
2.0556e-06
0
0
8.59152e-05
0.00205261
0.00164196
0.0214739
0.0782741
0.166181
0.252335
4.00691e-05
4.00671e-05
4.00678e-05
4.00672e-05
4.00703e-05
4.00702e-05
4.0068e-05
4.00658e-05
4.00642e-05
4.00632e-05
4.00626e-05
4.00622e-05
4.0062e-05
4.00621e-05
4.0062e-05
4.0062e-05
4.00623e-05
4.00628e-05
4.00634e-05
4.00642e-05
4.00651e-05
4.00662e-05
4.00674e-05
4.00689e-05
4.00707e-05
4.00731e-05
4.00762e-05
4.00801e-05
4.00849e-05
4.0091e-05
4.0099e-05
4.01174e-05
4.02457e-05
3.94394e-05
3.38325e-05
1.83598e-05
7.68642e-06
0
0.000575322
4.00691e-05
4.00694e-05
4.00699e-05
4.00699e-05
4.00696e-05
4.00693e-05
4.0069e-05
4.00687e-05
4.00686e-05
4.00687e-05
4.00688e-05
4.00692e-05
4.00699e-05
4.0071e-05
4.00727e-05
4.00752e-05
4.0079e-05
4.00835e-05
4.00874e-05
4.00965e-05
4.00945e-05
4.0092e-05
4.02607e-05
4.10132e-05
4.15652e-05
4.10616e-05
3.88284e-05
3.43146e-05
2.86212e-05
9.82959e-06
7.08319e-06
1.41756e-06
0
0
0.000399735
0.000849505
0.0170941
0.0903563
0.200102
4.0068e-05
4.00659e-05
4.00659e-05
4.00652e-05
4.00682e-05
4.00684e-05
4.00668e-05
4.00648e-05
4.00633e-05
4.00625e-05
4.00619e-05
4.00616e-05
4.00615e-05
4.00616e-05
4.00618e-05
4.0062e-05
4.00621e-05
4.00621e-05
4.00623e-05
4.00625e-05
4.00627e-05
4.0063e-05
4.00633e-05
4.00636e-05
4.00638e-05
4.00641e-05
4.00645e-05
4.0065e-05
4.00655e-05
4.00657e-05
4.00667e-05
4.00622e-05
4.00828e-05
3.99988e-05
4.02333e-05
3.79626e-05
3.26033e-05
9.09489e-06
0
4.0069e-05
4.00693e-05
4.00695e-05
4.00692e-05
4.00688e-05
4.00683e-05
4.00679e-05
4.00677e-05
4.00674e-05
4.00673e-05
4.00674e-05
4.00676e-05
4.0068e-05
4.00687e-05
4.00699e-05
4.00716e-05
4.00743e-05
4.00778e-05
4.0081e-05
4.00851e-05
4.0088e-05
4.00845e-05
4.00376e-05
4.01239e-05
4.05103e-05
4.10314e-05
4.15896e-05
4.18095e-05
4.15511e-05
3.76472e-05
3.20101e-05
6.65987e-06
5.7281e-06
0
0
0.000197333
0.0046377
0.0306293
0.13291
4.00679e-05
4.00656e-05
4.0065e-05
4.00639e-05
4.00667e-05
4.00672e-05
4.00659e-05
4.00641e-05
4.00629e-05
4.0062e-05
4.00616e-05
4.00613e-05
4.00612e-05
4.00614e-05
4.00615e-05
4.00618e-05
4.00621e-05
4.00623e-05
4.00625e-05
4.00625e-05
4.00626e-05
4.00628e-05
4.00631e-05
4.00635e-05
4.00639e-05
4.00645e-05
4.00655e-05
4.00667e-05
4.00683e-05
4.00702e-05
4.00728e-05
4.00756e-05
4.0081e-05
4.00811e-05
4.01354e-05
4.02798e-05
4.10965e-05
3.75505e-05
5.92968e-06
4.00689e-05
4.00689e-05
4.00689e-05
4.00684e-05
4.00678e-05
4.00673e-05
4.00667e-05
4.00663e-05
4.00659e-05
4.00656e-05
4.00653e-05
4.00651e-05
4.00649e-05
4.00648e-05
4.00648e-05
4.00648e-05
4.00649e-05
4.00651e-05
4.00654e-05
4.00664e-05
4.00695e-05
4.00748e-05
4.00653e-05
4.00333e-05
4.00457e-05
4.0156e-05
4.04278e-05
4.08826e-05
4.14916e-05
4.21268e-05
4.24114e-05
3.8032e-05
2.57868e-05
7.90221e-06
0
0
1.02238e-05
0.000472163
0.0724408
4.00679e-05
4.00656e-05
4.00644e-05
4.00629e-05
4.00655e-05
4.00662e-05
4.00651e-05
4.00635e-05
4.00624e-05
4.00617e-05
4.00614e-05
4.00611e-05
4.0061e-05
4.0061e-05
4.00612e-05
4.00615e-05
4.00618e-05
4.00621e-05
4.00624e-05
4.00627e-05
4.00629e-05
4.0063e-05
4.0063e-05
4.00631e-05
4.00631e-05
4.00633e-05
4.00636e-05
4.00641e-05
4.00648e-05
4.00656e-05
4.00663e-05
4.00677e-05
4.00671e-05
4.0077e-05
4.00395e-05
4.02038e-05
3.9534e-05
4.46733e-05
2.30888e-05
4.00686e-05
4.00684e-05
4.00681e-05
4.00675e-05
4.00669e-05
4.00662e-05
4.00657e-05
4.00653e-05
4.0065e-05
4.00647e-05
4.00646e-05
4.00644e-05
4.00644e-05
4.00645e-05
4.00647e-05
4.0065e-05
4.00656e-05
4.00666e-05
4.00676e-05
4.00686e-05
4.00696e-05
4.00717e-05
4.00745e-05
4.00674e-05
4.00479e-05
4.00322e-05
4.00412e-05
4.01172e-05
4.02907e-05
4.07278e-05
4.14094e-05
4.2639e-05
4.192e-05
3.30861e-05
8.62445e-06
0
0
0.000806406
0.0333204
4.0068e-05
4.00657e-05
4.00641e-05
4.00623e-05
4.00646e-05
4.00653e-05
4.00645e-05
4.0063e-05
4.0062e-05
4.00614e-05
4.00611e-05
4.00608e-05
4.00607e-05
4.00607e-05
4.00608e-05
4.0061e-05
4.00613e-05
4.00617e-05
4.0062e-05
4.00624e-05
4.00627e-05
4.00629e-05
4.00631e-05
4.00633e-05
4.00634e-05
4.00635e-05
4.00638e-05
4.00642e-05
4.00648e-05
4.00656e-05
4.00666e-05
4.00682e-05
4.00681e-05
4.00766e-05
4.00482e-05
4.01796e-05
3.9608e-05
4.19698e-05
3.67246e-05
4.00683e-05
4.00678e-05
4.00673e-05
4.00666e-05
4.00659e-05
4.00653e-05
4.00648e-05
4.00644e-05
4.00641e-05
4.00638e-05
4.00636e-05
4.00635e-05
4.00633e-05
4.00633e-05
4.00633e-05
4.00634e-05
4.00635e-05
4.00637e-05
4.00642e-05
4.00649e-05
4.0066e-05
4.00675e-05
4.00701e-05
4.00724e-05
4.00706e-05
4.00633e-05
4.00498e-05
4.00371e-05
4.00255e-05
4.007e-05
4.01843e-05
4.07648e-05
4.19662e-05
4.29309e-05
3.54082e-05
7.67627e-06
0
0.000287321
0.0131196
4.00679e-05
4.00658e-05
4.00639e-05
4.00619e-05
4.00639e-05
4.00646e-05
4.00639e-05
4.00625e-05
4.00617e-05
4.00611e-05
4.00608e-05
4.00606e-05
4.00604e-05
4.00603e-05
4.00603e-05
4.00605e-05
4.00608e-05
4.00612e-05
4.00615e-05
4.00619e-05
4.00623e-05
4.00627e-05
4.0063e-05
4.00633e-05
4.00636e-05
4.00637e-05
4.00638e-05
4.0064e-05
4.00643e-05
4.00647e-05
4.00653e-05
4.00661e-05
4.00665e-05
4.00695e-05
4.00631e-05
4.00956e-05
3.99869e-05
4.02721e-05
4.02752e-05
4.00679e-05
4.00671e-05
4.00665e-05
4.00658e-05
4.00651e-05
4.00645e-05
4.0064e-05
4.00637e-05
4.00634e-05
4.00632e-05
4.00631e-05
4.0063e-05
4.00629e-05
4.00629e-05
4.0063e-05
4.00631e-05
4.00633e-05
4.00636e-05
4.00641e-05
4.00647e-05
4.00654e-05
4.00663e-05
4.00676e-05
4.00696e-05
4.00717e-05
4.0073e-05
4.00728e-05
4.00698e-05
4.00585e-05
4.00377e-05
4.00003e-05
3.99974e-05
4.03072e-05
4.12795e-05
4.40293e-05
3.07336e-05
1.2395e-06
9.97532e-05
0.00434455
4.00678e-05
4.00659e-05
4.00638e-05
4.00616e-05
4.00634e-05
4.0064e-05
4.00633e-05
4.00621e-05
4.00613e-05
4.00608e-05
4.00605e-05
4.00603e-05
4.006e-05
4.00599e-05
4.00599e-05
4.00601e-05
4.00603e-05
4.00606e-05
4.0061e-05
4.00615e-05
4.00619e-05
4.00624e-05
4.00628e-05
4.00631e-05
4.00635e-05
4.00638e-05
4.00639e-05
4.00639e-05
4.00641e-05
4.00644e-05
4.00648e-05
4.00654e-05
4.00662e-05
4.00669e-05
4.00689e-05
4.00654e-05
4.0092e-05
3.99768e-05
4.03723e-05
4.00673e-05
4.00664e-05
4.00657e-05
4.0065e-05
4.00644e-05
4.00637e-05
4.00633e-05
4.0063e-05
4.00628e-05
4.00627e-05
4.00626e-05
4.00626e-05
4.00626e-05
4.00626e-05
4.00626e-05
4.00627e-05
4.00628e-05
4.0063e-05
4.00633e-05
4.00637e-05
4.00643e-05
4.00651e-05
4.00661e-05
4.00674e-05
4.00692e-05
4.00713e-05
4.00739e-05
4.00771e-05
4.00802e-05
4.00776e-05
4.00636e-05
4.00095e-05
3.99587e-05
4.00052e-05
4.10438e-05
4.61031e-05
1.82314e-06
2.68121e-05
0.00111212
4.00676e-05
4.00659e-05
4.00638e-05
4.00614e-05
4.00629e-05
4.00635e-05
4.00629e-05
4.00617e-05
4.0061e-05
4.00605e-05
4.00602e-05
4.006e-05
4.00597e-05
4.00595e-05
4.00595e-05
4.00596e-05
4.00598e-05
4.00602e-05
4.00605e-05
4.0061e-05
4.00614e-05
4.00619e-05
4.00624e-05
4.00628e-05
4.00633e-05
4.00636e-05
4.00638e-05
4.0064e-05
4.0064e-05
4.00641e-05
4.00644e-05
4.00647e-05
4.00653e-05
4.00657e-05
4.00677e-05
4.0064e-05
4.00836e-05
4.00269e-05
4.01533e-05
4.00667e-05
4.00657e-05
4.0065e-05
4.00643e-05
4.00637e-05
4.00631e-05
4.00627e-05
4.00625e-05
4.00624e-05
4.00624e-05
4.00624e-05
4.00624e-05
4.00625e-05
4.00625e-05
4.00626e-05
4.00627e-05
4.00628e-05
4.0063e-05
4.00632e-05
4.00635e-05
4.0064e-05
4.00646e-05
4.00653e-05
4.00663e-05
4.00676e-05
4.00693e-05
4.00713e-05
4.00741e-05
4.00785e-05
4.00837e-05
4.00879e-05
4.00841e-05
4.00215e-05
4.00629e-05
3.91624e-05
4.51987e-05
3.20216e-05
3.36701e-06
9.84852e-05
4.00672e-05
4.00658e-05
4.00638e-05
4.00613e-05
4.00625e-05
4.0063e-05
4.00624e-05
4.00614e-05
4.00607e-05
4.00602e-05
4.00599e-05
4.00596e-05
4.00593e-05
4.00592e-05
4.00591e-05
4.00592e-05
4.00594e-05
4.00597e-05
4.006e-05
4.00605e-05
4.00609e-05
4.00614e-05
4.00619e-05
4.00624e-05
4.00629e-05
4.00633e-05
4.00637e-05
4.00639e-05
4.0064e-05
4.0064e-05
4.00642e-05
4.00644e-05
4.00648e-05
4.00652e-05
4.00661e-05
4.00659e-05
4.00704e-05
4.00643e-05
4.00755e-05
4.00661e-05
4.00651e-05
4.00644e-05
4.00637e-05
4.00631e-05
4.00626e-05
4.00623e-05
4.00622e-05
4.00622e-05
4.00623e-05
4.00623e-05
4.00624e-05
4.00625e-05
4.00626e-05
4.00627e-05
4.00628e-05
4.00629e-05
4.0063e-05
4.00632e-05
4.00634e-05
4.00638e-05
4.00642e-05
4.00648e-05
4.00656e-05
4.00667e-05
4.0068e-05
4.00697e-05
4.00718e-05
4.00745e-05
4.00789e-05
4.00835e-05
4.00977e-05
4.00664e-05
4.01791e-05
3.95179e-05
4.06498e-05
4.54679e-05
2.01353e-06
2.26844e-05
4.00668e-05
4.00657e-05
4.00637e-05
4.00612e-05
4.00621e-05
4.00626e-05
4.0062e-05
4.00611e-05
4.00604e-05
4.00598e-05
4.00595e-05
4.00593e-05
4.0059e-05
4.00588e-05
4.00587e-05
4.00588e-05
4.0059e-05
4.00592e-05
4.00596e-05
4.006e-05
4.00605e-05
4.0061e-05
4.00615e-05
4.0062e-05
4.00626e-05
4.0063e-05
4.00634e-05
4.00637e-05
4.00639e-05
4.0064e-05
4.00641e-05
4.00642e-05
4.00644e-05
4.00648e-05
4.00652e-05
4.00659e-05
4.00664e-05
4.00708e-05
4.00656e-05
4.00655e-05
4.00645e-05
4.00637e-05
4.00631e-05
4.00626e-05
4.00622e-05
4.0062e-05
4.0062e-05
4.00621e-05
4.00622e-05
4.00624e-05
4.00625e-05
4.00626e-05
4.00627e-05
4.00628e-05
4.00629e-05
4.0063e-05
4.00631e-05
4.00633e-05
4.00635e-05
4.00638e-05
4.00642e-05
4.00646e-05
4.00652e-05
4.00661e-05
4.00672e-05
4.00687e-05
4.00705e-05
4.00726e-05
4.00755e-05
4.00782e-05
4.00877e-05
4.0085e-05
4.01058e-05
4.02231e-05
3.84339e-05
4.89743e-05
3.2311e-06
9.01834e-08
4.00663e-05
4.00655e-05
4.00636e-05
4.00611e-05
4.00618e-05
4.00622e-05
4.00617e-05
4.00608e-05
4.006e-05
4.00595e-05
4.00592e-05
4.00589e-05
4.00586e-05
4.00585e-05
4.00584e-05
4.00585e-05
4.00586e-05
4.00588e-05
4.00591e-05
4.00595e-05
4.006e-05
4.00605e-05
4.00611e-05
4.00616e-05
4.00622e-05
4.00627e-05
4.00631e-05
4.00635e-05
4.00638e-05
4.0064e-05
4.00641e-05
4.00641e-05
4.00642e-05
4.00644e-05
4.00648e-05
4.00654e-05
4.00656e-05
4.00692e-05
4.00669e-05
4.0065e-05
4.0064e-05
4.00632e-05
4.00626e-05
4.00622e-05
4.00619e-05
4.00618e-05
4.00619e-05
4.00621e-05
4.00623e-05
4.00624e-05
4.00626e-05
4.00627e-05
4.00629e-05
4.0063e-05
4.00631e-05
4.00632e-05
4.00633e-05
4.00635e-05
4.00636e-05
4.00639e-05
4.00642e-05
4.00646e-05
4.00651e-05
4.00658e-05
4.00667e-05
4.0068e-05
4.00696e-05
4.00714e-05
4.00736e-05
4.00763e-05
4.00785e-05
4.00953e-05
4.00301e-05
4.04466e-05
3.85249e-05
4.54687e-05
2.79263e-05
3.70356e-06
4.00658e-05
4.00652e-05
4.00635e-05
4.0061e-05
4.00615e-05
4.00618e-05
4.00613e-05
4.00604e-05
4.00597e-05
4.00592e-05
4.00589e-05
4.00586e-05
4.00583e-05
4.00582e-05
4.00581e-05
4.00581e-05
4.00582e-05
4.00585e-05
4.00588e-05
4.00591e-05
4.00596e-05
4.00601e-05
4.00606e-05
4.00612e-05
4.00618e-05
4.00623e-05
4.00628e-05
4.00632e-05
4.00636e-05
4.00638e-05
4.0064e-05
4.00641e-05
4.00641e-05
4.00642e-05
4.00645e-05
4.00649e-05
4.00653e-05
4.00676e-05
4.00672e-05
4.00644e-05
4.00635e-05
4.00626e-05
4.00622e-05
4.00618e-05
4.00617e-05
4.00617e-05
4.00619e-05
4.00621e-05
4.00623e-05
4.00625e-05
4.00627e-05
4.00629e-05
4.0063e-05
4.00632e-05
4.00633e-05
4.00634e-05
4.00635e-05
4.00636e-05
4.00638e-05
4.0064e-05
4.00642e-05
4.00646e-05
4.0065e-05
4.00656e-05
4.00664e-05
4.00674e-05
4.00688e-05
4.00705e-05
4.00724e-05
4.00754e-05
4.00745e-05
4.00949e-05
4.00258e-05
4.03254e-05
3.93833e-05
4.15249e-05
4.13718e-05
1.33641e-05
4.00653e-05
4.00649e-05
4.00633e-05
4.0061e-05
4.00613e-05
4.00614e-05
4.00609e-05
4.00601e-05
4.00594e-05
4.00589e-05
4.00586e-05
4.00583e-05
4.0058e-05
4.00579e-05
4.00578e-05
4.00578e-05
4.00579e-05
4.00581e-05
4.00584e-05
4.00588e-05
4.00592e-05
4.00597e-05
4.00602e-05
4.00608e-05
4.00614e-05
4.00619e-05
4.00624e-05
4.00629e-05
4.00633e-05
4.00636e-05
4.00639e-05
4.00641e-05
4.00641e-05
4.00642e-05
4.00643e-05
4.00646e-05
4.00649e-05
4.00667e-05
4.00667e-05
4.00639e-05
4.0063e-05
4.00622e-05
4.00618e-05
4.00616e-05
4.00616e-05
4.00617e-05
4.00619e-05
4.00622e-05
4.00624e-05
4.00626e-05
4.00628e-05
4.0063e-05
4.00632e-05
4.00633e-05
4.00635e-05
4.00636e-05
4.00637e-05
4.00638e-05
4.0064e-05
4.00641e-05
4.00644e-05
4.00646e-05
4.0065e-05
4.00655e-05
4.00661e-05
4.00671e-05
4.00682e-05
4.00698e-05
4.00714e-05
4.00741e-05
4.00739e-05
4.00872e-05
4.00554e-05
4.01569e-05
4.00155e-05
3.96357e-05
4.40484e-05
2.83646e-05
4.00648e-05
4.00646e-05
4.00631e-05
4.00609e-05
4.0061e-05
4.00611e-05
4.00606e-05
4.00598e-05
4.00591e-05
4.00586e-05
4.00583e-05
4.0058e-05
4.00577e-05
4.00576e-05
4.00575e-05
4.00576e-05
4.00577e-05
4.00579e-05
4.00581e-05
4.00584e-05
4.00588e-05
4.00593e-05
4.00598e-05
4.00604e-05
4.0061e-05
4.00615e-05
4.0062e-05
4.00625e-05
4.00629e-05
4.00633e-05
4.00636e-05
4.00639e-05
4.00641e-05
4.00641e-05
4.00642e-05
4.00644e-05
4.00646e-05
4.00662e-05
4.00662e-05
4.00635e-05
4.00626e-05
4.00618e-05
4.00615e-05
4.00615e-05
4.00615e-05
4.00617e-05
4.0062e-05
4.00622e-05
4.00625e-05
4.00628e-05
4.0063e-05
4.00632e-05
4.00634e-05
4.00635e-05
4.00637e-05
4.00638e-05
4.00639e-05
4.00641e-05
4.00642e-05
4.00644e-05
4.00646e-05
4.00648e-05
4.00651e-05
4.00655e-05
4.00661e-05
4.00669e-05
4.00679e-05
4.00692e-05
4.00707e-05
4.00728e-05
4.00741e-05
4.00794e-05
4.00787e-05
4.00676e-05
4.02346e-05
3.93637e-05
4.26142e-05
3.70398e-05
4.00643e-05
4.00643e-05
4.00629e-05
4.00607e-05
4.00607e-05
4.00608e-05
4.00603e-05
4.00595e-05
4.00588e-05
4.00583e-05
4.0058e-05
4.00577e-05
4.00574e-05
4.00573e-05
4.00573e-05
4.00573e-05
4.00574e-05
4.00576e-05
4.00578e-05
4.00581e-05
4.00585e-05
4.00589e-05
4.00594e-05
4.006e-05
4.00605e-05
4.00611e-05
4.00616e-05
4.00621e-05
4.00625e-05
4.0063e-05
4.00633e-05
4.00637e-05
4.00639e-05
4.00641e-05
4.00641e-05
4.00642e-05
4.00644e-05
4.00657e-05
4.00657e-05
4.00631e-05
4.00622e-05
4.00615e-05
4.00614e-05
4.00614e-05
4.00615e-05
4.00617e-05
4.0062e-05
4.00623e-05
4.00626e-05
4.00629e-05
4.00631e-05
4.00633e-05
4.00635e-05
4.00637e-05
4.00639e-05
4.0064e-05
4.00642e-05
4.00643e-05
4.00644e-05
4.00646e-05
4.00648e-05
4.0065e-05
4.00653e-05
4.00656e-05
4.00661e-05
4.00668e-05
4.00677e-05
4.00688e-05
4.00701e-05
4.00718e-05
4.00739e-05
4.00751e-05
4.00858e-05
4.00498e-05
4.02178e-05
3.96692e-05
4.09926e-05
4.01603e-05
4.00638e-05
4.00639e-05
4.00627e-05
4.00606e-05
4.00605e-05
4.00604e-05
4.00599e-05
4.00592e-05
4.00586e-05
4.00581e-05
4.00577e-05
4.00574e-05
4.00572e-05
4.00571e-05
4.0057e-05
4.00571e-05
4.00572e-05
4.00573e-05
4.00575e-05
4.00578e-05
4.00581e-05
4.00585e-05
4.0059e-05
4.00595e-05
4.00601e-05
4.00606e-05
4.00611e-05
4.00617e-05
4.00621e-05
4.00626e-05
4.0063e-05
4.00634e-05
4.00637e-05
4.0064e-05
4.00641e-05
4.00641e-05
4.00642e-05
4.00654e-05
4.00654e-05
4.00627e-05
4.00619e-05
4.00612e-05
4.00612e-05
4.00613e-05
4.00615e-05
4.00617e-05
4.00621e-05
4.00624e-05
4.00627e-05
4.0063e-05
4.00632e-05
4.00635e-05
4.00637e-05
4.00639e-05
4.00641e-05
4.00642e-05
4.00644e-05
4.00646e-05
4.00647e-05
4.00649e-05
4.00651e-05
4.00653e-05
4.00655e-05
4.00658e-05
4.00662e-05
4.00668e-05
4.00676e-05
4.00686e-05
4.00698e-05
4.00712e-05
4.00734e-05
4.00737e-05
4.00835e-05
4.00607e-05
4.01454e-05
3.99562e-05
4.01917e-05
4.06391e-05
4.00634e-05
4.00635e-05
4.00624e-05
4.00605e-05
4.00602e-05
4.00601e-05
4.00596e-05
4.00589e-05
4.00582e-05
4.00578e-05
4.00574e-05
4.00571e-05
4.00569e-05
4.00568e-05
4.00568e-05
4.00568e-05
4.00569e-05
4.0057e-05
4.00572e-05
4.00575e-05
4.00578e-05
4.00582e-05
4.00586e-05
4.00591e-05
4.00597e-05
4.00602e-05
4.00607e-05
4.00612e-05
4.00617e-05
4.00622e-05
4.00627e-05
4.00631e-05
4.00635e-05
4.00638e-05
4.0064e-05
4.00641e-05
4.00641e-05
4.00651e-05
4.00651e-05
4.00623e-05
4.00616e-05
4.0061e-05
4.00611e-05
4.00612e-05
4.00614e-05
4.00618e-05
4.00621e-05
4.00624e-05
4.00628e-05
4.00631e-05
4.00634e-05
4.00636e-05
4.00639e-05
4.00641e-05
4.00643e-05
4.00645e-05
4.00646e-05
4.00648e-05
4.0065e-05
4.00651e-05
4.00653e-05
4.00655e-05
4.00657e-05
4.0066e-05
4.00664e-05
4.00669e-05
4.00676e-05
4.00684e-05
4.00695e-05
4.00708e-05
4.00727e-05
4.00736e-05
4.00792e-05
4.00728e-05
4.00961e-05
4.00856e-05
3.99891e-05
4.04014e-05
4.0063e-05
4.00631e-05
4.00621e-05
4.00603e-05
4.006e-05
4.00598e-05
4.00592e-05
4.00585e-05
4.00579e-05
4.00575e-05
4.00571e-05
4.00568e-05
4.00567e-05
4.00566e-05
4.00565e-05
4.00566e-05
4.00566e-05
4.00568e-05
4.00569e-05
4.00572e-05
4.00574e-05
4.00578e-05
4.00582e-05
4.00587e-05
4.00592e-05
4.00597e-05
4.00602e-05
4.00608e-05
4.00613e-05
4.00618e-05
4.00623e-05
4.00627e-05
4.00631e-05
4.00635e-05
4.00638e-05
4.0064e-05
4.0064e-05
4.00648e-05
4.00648e-05
4.0062e-05
4.00614e-05
4.00609e-05
4.0061e-05
4.00612e-05
4.00614e-05
4.00618e-05
4.00622e-05
4.00625e-05
4.00629e-05
4.00632e-05
4.00635e-05
4.00638e-05
4.0064e-05
4.00643e-05
4.00645e-05
4.00647e-05
4.00649e-05
4.00651e-05
4.00652e-05
4.00654e-05
4.00656e-05
4.00658e-05
4.0066e-05
4.00663e-05
4.00666e-05
4.00671e-05
4.00677e-05
4.00684e-05
4.00694e-05
4.00705e-05
4.00721e-05
4.00735e-05
4.00763e-05
4.00783e-05
4.00777e-05
4.01105e-05
4.00118e-05
4.01803e-05
4.00626e-05
4.00628e-05
4.00619e-05
4.00601e-05
4.00597e-05
4.00594e-05
4.00589e-05
4.00582e-05
4.00576e-05
4.00572e-05
4.00568e-05
4.00566e-05
4.00564e-05
4.00563e-05
4.00563e-05
4.00563e-05
4.00564e-05
4.00565e-05
4.00566e-05
4.00568e-05
4.00571e-05
4.00574e-05
4.00579e-05
4.00583e-05
4.00588e-05
4.00593e-05
4.00598e-05
4.00603e-05
4.00608e-05
4.00613e-05
4.00618e-05
4.00623e-05
4.00628e-05
4.00632e-05
4.00635e-05
4.00638e-05
4.00638e-05
4.00644e-05
4.00646e-05
4.00617e-05
4.00611e-05
4.00607e-05
4.00609e-05
4.00611e-05
4.00614e-05
4.00618e-05
4.00622e-05
4.00626e-05
4.0063e-05
4.00633e-05
4.00636e-05
4.00639e-05
4.00642e-05
4.00645e-05
4.00647e-05
4.00649e-05
4.00651e-05
4.00653e-05
4.00655e-05
4.00657e-05
4.00659e-05
4.00661e-05
4.00663e-05
4.00666e-05
4.00669e-05
4.00673e-05
4.00678e-05
4.00685e-05
4.00693e-05
4.00704e-05
4.00717e-05
4.00733e-05
4.0075e-05
4.00789e-05
4.00754e-05
4.01e-05
4.0061e-05
4.0093e-05
4.00622e-05
4.00624e-05
4.00615e-05
4.00599e-05
4.00594e-05
4.00591e-05
4.00585e-05
4.00578e-05
4.00572e-05
4.00568e-05
4.00565e-05
4.00562e-05
4.00561e-05
4.0056e-05
4.0056e-05
4.0056e-05
4.00561e-05
4.00562e-05
4.00563e-05
4.00565e-05
4.00568e-05
4.00571e-05
4.00575e-05
4.00579e-05
4.00584e-05
4.00588e-05
4.00593e-05
4.00598e-05
4.00603e-05
4.00609e-05
4.00614e-05
4.00619e-05
4.00624e-05
4.00629e-05
4.00633e-05
4.00636e-05
4.00636e-05
4.00641e-05
4.00643e-05
4.00614e-05
4.00609e-05
4.00606e-05
4.00608e-05
4.00611e-05
4.00614e-05
4.00618e-05
4.00622e-05
4.00627e-05
4.00631e-05
4.00634e-05
4.00638e-05
4.00641e-05
4.00644e-05
4.00647e-05
4.00649e-05
4.00651e-05
4.00654e-05
4.00656e-05
4.00658e-05
4.0066e-05
4.00662e-05
4.00664e-05
4.00667e-05
4.00669e-05
4.00672e-05
4.00676e-05
4.0068e-05
4.00686e-05
4.00694e-05
4.00703e-05
4.00715e-05
4.0073e-05
4.00744e-05
4.00778e-05
4.00771e-05
4.00881e-05
4.00846e-05
4.00802e-05
4.00618e-05
4.0062e-05
4.00612e-05
4.00596e-05
4.00591e-05
4.00587e-05
4.00581e-05
4.00574e-05
4.00569e-05
4.00565e-05
4.00562e-05
4.00559e-05
4.00558e-05
4.00557e-05
4.00557e-05
4.00557e-05
4.00558e-05
4.00559e-05
4.0056e-05
4.00562e-05
4.00564e-05
4.00567e-05
4.00571e-05
4.00575e-05
4.00579e-05
4.00584e-05
4.00588e-05
4.00593e-05
4.00599e-05
4.00604e-05
4.00609e-05
4.00615e-05
4.0062e-05
4.00625e-05
4.00629e-05
4.00633e-05
4.00635e-05
4.00638e-05
4.0064e-05
4.00611e-05
4.00607e-05
4.00605e-05
4.00608e-05
4.00611e-05
4.00614e-05
4.00619e-05
4.00623e-05
4.00627e-05
4.00632e-05
4.00635e-05
4.00639e-05
4.00642e-05
4.00646e-05
4.00648e-05
4.00651e-05
4.00654e-05
4.00656e-05
4.00658e-05
4.00661e-05
4.00663e-05
4.00665e-05
4.00667e-05
4.0067e-05
4.00672e-05
4.00675e-05
4.00678e-05
4.00683e-05
4.00688e-05
4.00695e-05
4.00704e-05
4.00714e-05
4.00728e-05
4.00742e-05
4.00767e-05
4.00782e-05
4.00825e-05
4.00885e-05
4.00866e-05
4.00614e-05
4.00616e-05
4.00609e-05
4.00594e-05
4.00588e-05
4.00584e-05
4.00578e-05
4.00571e-05
4.00565e-05
4.00561e-05
4.00558e-05
4.00556e-05
4.00555e-05
4.00554e-05
4.00554e-05
4.00554e-05
4.00554e-05
4.00555e-05
4.00557e-05
4.00558e-05
4.0056e-05
4.00563e-05
4.00567e-05
4.00571e-05
4.00575e-05
4.00579e-05
4.00584e-05
4.00588e-05
4.00593e-05
4.00599e-05
4.00604e-05
4.0061e-05
4.00615e-05
4.00621e-05
4.00625e-05
4.0063e-05
4.00632e-05
4.00634e-05
4.00638e-05
4.00608e-05
4.00605e-05
4.00603e-05
4.00607e-05
4.0061e-05
4.00614e-05
4.00619e-05
4.00623e-05
4.00628e-05
4.00632e-05
4.00636e-05
4.0064e-05
4.00644e-05
4.00647e-05
4.0065e-05
4.00653e-05
4.00656e-05
4.00658e-05
4.00661e-05
4.00663e-05
4.00666e-05
4.00668e-05
4.00671e-05
4.00673e-05
4.00675e-05
4.00678e-05
4.00681e-05
4.00685e-05
4.00691e-05
4.00697e-05
4.00705e-05
4.00714e-05
4.00726e-05
4.00741e-05
4.0076e-05
4.00782e-05
4.00809e-05
4.00859e-05
4.0091e-05
4.00611e-05
4.00613e-05
4.00606e-05
4.00591e-05
4.00585e-05
4.0058e-05
4.00574e-05
4.00567e-05
4.00561e-05
4.00557e-05
4.00554e-05
4.00552e-05
4.00551e-05
4.00551e-05
4.0055e-05
4.00551e-05
4.00551e-05
4.00552e-05
4.00553e-05
4.00555e-05
4.00557e-05
4.00559e-05
4.00563e-05
4.00566e-05
4.0057e-05
4.00574e-05
4.00579e-05
4.00583e-05
4.00588e-05
4.00594e-05
4.00599e-05
4.00605e-05
4.0061e-05
4.00616e-05
4.00621e-05
4.00626e-05
4.00629e-05
4.00631e-05
4.00635e-05
4.00606e-05
4.00603e-05
4.00602e-05
4.00606e-05
4.0061e-05
4.00614e-05
4.00619e-05
4.00624e-05
4.00629e-05
4.00633e-05
4.00637e-05
4.00641e-05
4.00645e-05
4.00649e-05
4.00652e-05
4.00655e-05
4.00658e-05
4.00661e-05
4.00663e-05
4.00666e-05
4.00669e-05
4.00671e-05
4.00674e-05
4.00676e-05
4.00679e-05
4.00682e-05
4.00685e-05
4.00689e-05
4.00693e-05
4.00699e-05
4.00706e-05
4.00715e-05
4.00726e-05
4.0074e-05
4.00757e-05
4.00778e-05
4.00806e-05
4.00832e-05
4.00912e-05
4.00608e-05
4.00609e-05
4.00602e-05
4.00588e-05
4.00581e-05
4.00576e-05
4.00569e-05
4.00563e-05
4.00557e-05
4.00553e-05
4.00551e-05
4.00549e-05
4.00547e-05
4.00547e-05
4.00547e-05
4.00547e-05
4.00548e-05
4.00548e-05
4.00549e-05
4.00551e-05
4.00553e-05
4.00555e-05
4.00558e-05
4.00562e-05
4.00565e-05
4.00569e-05
4.00573e-05
4.00578e-05
4.00583e-05
4.00588e-05
4.00594e-05
4.00599e-05
4.00605e-05
4.00611e-05
4.00616e-05
4.00621e-05
4.00626e-05
4.00627e-05
4.00633e-05
4.00603e-05
4.00601e-05
4.006e-05
4.00605e-05
4.00609e-05
4.00614e-05
4.00619e-05
4.00624e-05
4.00629e-05
4.00634e-05
4.00638e-05
4.00643e-05
4.00647e-05
4.0065e-05
4.00654e-05
4.00657e-05
4.0066e-05
4.00663e-05
4.00666e-05
4.00669e-05
4.00672e-05
4.00674e-05
4.00677e-05
4.0068e-05
4.00682e-05
4.00685e-05
4.00688e-05
4.00692e-05
4.00696e-05
4.00702e-05
4.00708e-05
4.00716e-05
4.00727e-05
4.00739e-05
4.00755e-05
4.00773e-05
4.00804e-05
4.00818e-05
4.00897e-05
4.00604e-05
4.00606e-05
4.00599e-05
4.00585e-05
4.00578e-05
4.00572e-05
4.00565e-05
4.00558e-05
4.00553e-05
4.00549e-05
4.00547e-05
4.00545e-05
4.00544e-05
4.00543e-05
4.00543e-05
4.00543e-05
4.00544e-05
4.00544e-05
4.00546e-05
4.00547e-05
4.00549e-05
4.00551e-05
4.00554e-05
4.00557e-05
4.0056e-05
4.00564e-05
4.00568e-05
4.00572e-05
4.00577e-05
4.00582e-05
4.00588e-05
4.00593e-05
4.00599e-05
4.00605e-05
4.00611e-05
4.00616e-05
4.00622e-05
4.00624e-05
4.0063e-05
4.006e-05
4.00599e-05
4.00599e-05
4.00604e-05
4.00608e-05
4.00613e-05
4.00619e-05
4.00624e-05
4.0063e-05
4.00635e-05
4.00639e-05
4.00644e-05
4.00648e-05
4.00652e-05
4.00655e-05
4.00659e-05
4.00662e-05
4.00665e-05
4.00668e-05
4.00671e-05
4.00674e-05
4.00677e-05
4.0068e-05
4.00683e-05
4.00686e-05
4.00689e-05
4.00692e-05
4.00695e-05
4.007e-05
4.00705e-05
4.00711e-05
4.00718e-05
4.00728e-05
4.00739e-05
4.00754e-05
4.00771e-05
4.008e-05
4.00811e-05
4.00883e-05
4.00601e-05
4.00602e-05
4.00595e-05
4.00582e-05
4.00574e-05
4.00568e-05
4.00561e-05
4.00554e-05
4.00549e-05
4.00545e-05
4.00542e-05
4.00541e-05
4.00539e-05
4.00539e-05
4.00539e-05
4.00539e-05
4.0054e-05
4.0054e-05
4.00541e-05
4.00543e-05
4.00544e-05
4.00546e-05
4.00549e-05
4.00552e-05
4.00555e-05
4.00559e-05
4.00562e-05
4.00567e-05
4.00571e-05
4.00576e-05
4.00581e-05