/*--------------------------------*- C++ -*----------------------------------*\
| =========                 |                                                 |
| \\      /  F ield         | OpenFOAM: The Open Source CFD Toolbox           |
|  \\    /   O peration     | Version:  2306                                  |
|   \\  /    A nd           | Website:  www.openfoam.com                      |
|    \\/     M anipulation  |                                                 |
\*---------------------------------------------------------------------------*/
FoamFile
{
    version     2.0;
    format      ascii;
    arch        "LSB;label=32;scalar=64";
    class       volSymmTensorField;
    location    "975";
    object      turbulenceProperties:devReff;
}
// * * * * * * * * * * * * * * * * * * * * * * * * * * * * * * * * * * * * * //

dimensions      [0 2 -2 0 0 0 0];

internalField   nonuniform List<symmTensor> 
10720
(
(0.00163714 0.0042578 -9.50052e-22 -0.00177373 -2.23883e-20 0.000136594)
(0.00238853 0.00488004 -1.24445e-22 -0.00248647 1.40368e-19 9.79407e-05)
(0.00361106 0.00546063 -2.7648e-20 -0.00380828 -4.34989e-19 0.000197225)
(0.00524593 0.00621489 1.19073e-19 -0.00549191 8.78824e-19 0.000245981)
(0.00742492 0.00687341 -2.25916e-19 -0.00769357 -8.34226e-19 0.000268644)
(0.010404 0.00726189 -1.72317e-19 -0.0107954 -4.50646e-19 0.000391443)
(0.014299 0.0073746 3.25999e-19 -0.0147853 1.25251e-18 0.000486258)
(0.0191877 0.00685906 -8.31324e-19 -0.0197702 -2.26133e-18 0.000582587)
(0.0252391 0.00535157 -2.0651e-19 -0.0259856 6.04418e-19 0.000746566)
(0.0325645 0.00260624 6.13778e-19 -0.033465 1.25948e-18 0.000900457)
(0.0413422 -0.00189799 1.57979e-18 -0.0424337 5.77708e-19 0.00109149)
(0.0519597 -0.008734 -3.5524e-18 -0.0532775 -3.29928e-18 0.00131783)
(0.0649577 -0.0188219 6.72791e-19 -0.0665509 8.68396e-19 0.00159319)
(0.081247 -0.0337493 2.68636e-18 -0.0832018 1.27312e-18 0.00195483)
(0.102368 -0.056169 -4.07746e-18 -0.104834 -6.36945e-18 0.00246626)
(0.13053 -0.0904045 -4.36536e-18 -0.133705 -2.58502e-18 0.00317454)
(0.169882 -0.14506 1.92126e-17 -0.174189 1.779e-17 0.00430664)
(0.224283 -0.232429 1.78591e-17 -0.230164 3.3791e-17 0.00588053)
(0.310933 -0.388888 -3.53878e-17 -0.319548 -5.48547e-17 0.00861518)
(0.426452 -0.64176 -1.3779e-18 -0.438627 1.45542e-17 0.0121748)
(0.666808 -1.2142 -2.7223e-17 -0.686202 5.20469e-17 0.0193947)
(0.945549 -2.11448 -1.24403e-17 -0.971667 4.18837e-17 0.0261182)
(1.76559 -5.12887 -1.43152e-16 -1.81775 -6.4189e-16 0.05216)
(2.42862 -10.312 3.3146e-16 -2.51206 5.58903e-16 0.0834464)
(1.52872 -11.6482 4.24131e-17 -1.56981 -7.12353e-16 0.0410943)
(0.526695 -11.2299 3.65809e-16 -0.515183 5.81273e-16 -0.0115116)
(-0.145889 -11.0457 -8.18511e-17 0.175806 -7.84425e-17 -0.0299174)
(-0.665125 -11.229 2.74507e-16 0.689988 2.30564e-16 -0.0248629)
(-1.13648 -11.4433 7.29068e-16 1.15295 1.20849e-15 -0.0164726)
(-1.57194 -11.4561 4.00609e-16 1.5803 1.99762e-15 -0.00835755)
(-1.95815 -11.2419 -1.4116e-15 1.95642 -1.93149e-15 0.00172658)
(-2.2739 -10.8356 -4.74975e-16 2.26341 -7.26159e-16 0.0104957)
(-2.49392 -10.2219 -3.21696e-17 2.47897 -4.36821e-15 0.0149504)
(-2.60539 -9.41486 -2.58332e-15 2.59001 -7.29981e-15 0.0153808)
(-2.58946 -8.40635 1.00631e-15 2.57525 9.23203e-16 0.0142082)
(-2.43556 -7.22763 1.22005e-15 2.42456 1.14388e-15 0.0109986)
(-2.07508 -5.67592 -1.22459e-16 2.06186 -5.25279e-16 0.0132173)
(-1.60211 -4.21393 -1.54849e-15 1.60278 -2.10466e-17 -0.000669483)
(-0.759583 -1.48479 -3.6423e-16 0.762511 -3.32878e-15 -0.00292785)
(0.000968053 0.00371303 2.39399e-21 -0.00101994 5.55972e-20 5.18857e-05)
(0.000549691 0.00319714 -3.57155e-21 -0.000639717 2.57178e-23 9.00257e-05)
(0.000179308 0.0026111 -1.95659e-20 -0.000226375 -1.37148e-19 4.70669e-05)
(-6.7079e-05 0.00208971 4.98093e-21 3.29508e-05 9.36022e-20 3.41282e-05)
(-0.00017926 0.0015969 3.91902e-21 0.000160973 -1.82537e-20 1.82878e-05)
(-0.000172607 0.0011672 -3.38575e-20 0.000173003 1.10833e-19 -3.95657e-07)
(-8.40106e-05 0.000835305 -2.02266e-19 0.000108118 1.62794e-19 -2.41076e-05)
(5.47818e-05 0.000636924 1.39726e-19 -1.70837e-05 -5.51809e-20 -3.76981e-05)
(0.00023136 0.000621222 2.26703e-19 -0.000204966 -1.14671e-19 -2.63943e-05)
(0.000471315 0.000742214 -1.54452e-19 -0.000468025 3.90403e-20 -3.2907e-06)
(0.000812376 0.00102677 -3.88387e-20 -0.00082302 1.83172e-19 1.06434e-05)
(0.00130644 0.0015664 2.49336e-19 -0.00132442 1.03714e-19 1.79827e-05)
(0.00202428 0.00252564 4.59462e-19 -0.00205445 -7.15378e-20 3.01699e-05)
(0.00305564 0.00413712 -8.14012e-21 -0.00310694 -2.58799e-19 5.13e-05)
(0.00447308 0.0066446 -8.04483e-20 -0.00454802 -1.73497e-19 7.49409e-05)
(0.00629922 0.0103377 2.69055e-20 -0.00640792 -5.82061e-20 0.000108704)
(0.00863912 0.015635 -1.97154e-19 -0.00878487 6.70121e-19 0.000145754)
(0.0117401 0.0234245 7.42378e-19 -0.0119383 2.75949e-19 0.000198174)
(0.0161482 0.03545 3.28025e-19 -0.0164165 -1.21849e-18 0.000268371)
(0.0226884 0.0549987 -1.32085e-18 -0.0230789 -3.46436e-19 0.000390541)
(0.0329407 0.0886167 -4.44084e-18 -0.0335316 -2.02923e-18 0.000590924)
(0.0490727 0.148528 -3.35497e-18 -0.0500521 -8.97229e-19 0.000979404)
(0.075704 0.263752 6.22755e-18 -0.0774818 -5.78853e-19 0.00177781)
(0.116281 0.487768 -7.467e-18 -0.119918 1.2081e-18 0.00363661)
(0.183242 0.979449 4.06952e-18 -0.191089 -7.22379e-18 0.00784625)
(0.277943 2.01763 -1.26414e-16 -0.294318 2.61682e-18 0.016375)
(0.410052 4.53272 -7.8324e-17 -0.448527 1.22983e-17 0.0384749)
(0.421167 9.36903 6.59253e-17 -0.501475 8.24527e-19 0.0803077)
(0.00812307 13.292 8.69845e-18 -0.112266 -1.25602e-19 0.104143)
(-0.628749 14.9598 6.28583e-17 0.530418 4.34739e-19 0.0983313)
(-1.26785 15.3986 -4.37185e-16 1.18561 -4.894e-18 0.0822435)
(-1.85323 15.4185 1.57308e-16 1.78589 2.09301e-17 0.0673379)
(-2.37739 15.2563 -1.88904e-15 2.3216 -1.53206e-16 0.0557945)
(-2.83317 14.9562 -3.45856e-15 2.78626 -2.3695e-16 0.0469015)
(-3.21856 14.534 1.05847e-15 3.17823 1.08393e-16 0.0403266)
(-3.53765 14.0109 1.0246e-15 3.50239 1.64276e-16 0.0352629)
(-3.77532 13.2878 1.45055e-15 3.74323 2.6667e-16 0.0320882)
(-3.91955 12.4706 -2.90393e-16 3.88956 -3.67461e-17 0.0299936)
(-3.64029 10.0667 -4.55479e-15 3.63372 -7.84233e-16 0.00656931)
(0.000579433 -0.000460528 1.22857e-22 -0.00052005 4.00306e-21 -5.93829e-05)
(0.000492605 -0.000547355 2.90331e-20 -0.000425489 7.03537e-20 -6.7116e-05)
(0.000371416 -0.000622949 -2.692e-20 -0.000291097 -4.74605e-20 -8.03189e-05)
(0.000250519 -0.000652178 -1.81361e-20 -0.00015859 -5.16564e-20 -9.1929e-05)
(0.00013315 -0.00064511 1.2227e-19 -3.25565e-05 2.37308e-19 -0.000100593)
(2.3141e-05 -0.000610486 4.76159e-20 8.61802e-05 7.38713e-20 -0.000109321)
(-6.029e-05 -0.000551403 2.2581e-19 0.000177198 2.0745e-19 -0.000116908)
(-0.000116636 -0.000479008 -1.16705e-19 0.000238471 -2.24589e-20 -0.000121835)
(-0.000149303 -0.000404777 1.64896e-19 0.000274582 1.14263e-19 -0.000125279)
(-0.000158012 -0.000336002 -5.85649e-21 0.000285259 2.50081e-22 -0.000127247)
(-0.000150112 -0.000278307 -2.23006e-19 0.000277009 -1.90525e-19 -0.000126896)
(-0.000132662 -0.00023995 2.87171e-19 0.00025889 3.57498e-19 -0.000126228)
(-0.000110888 -0.00022612 1.76603e-19 0.000240754 8.8744e-20 -0.000129866)
(-8.62534e-05 -0.00024579 -3.68424e-20 0.000231115 1.99827e-20 -0.000144862)
(-4.85444e-05 -0.000344618 -2.26871e-19 0.000241474 3.73456e-20 -0.00019293)
(6.24957e-05 -0.000658598 4.77363e-19 0.000258287 5.46263e-19 -0.000320782)
(0.000455362 -0.00154865 8.55427e-19 0.000142133 -9.35401e-19 -0.000597495)
(0.00150215 -0.00354909 -4.4188e-18 -0.00049923 -5.72737e-18 -0.00100292)
(0.00420733 -0.00868052 5.06249e-19 -0.00253863 7.46875e-18 -0.00166871)
(0.0104879 -0.0211622 7.37477e-18 -0.00790327 -2.07124e-18 -0.00258467)
(0.0295525 -0.0626792 1.55234e-17 -0.0251323 6.15181e-18 -0.00442015)
(0.0741146 -0.174792 -2.35792e-17 -0.067894 -2.25794e-17 -0.00622067)
(0.195492 -0.546271 7.43597e-17 -0.187684 1.87684e-16 -0.00780849)
(0.505218 -1.78615 1.55884e-19 -0.502443 -1.54899e-16 -0.00277488)
(0.749799 -3.55027 -2.73596e-16 -0.773523 1.69829e-16 0.0237248)
(0.790272 -5.39746 -9.72347e-17 -0.844661 -6.60493e-16 0.0543889)
(0.603475 -7.14852 1.18411e-18 -0.675394 7.56806e-17 0.0719194)
(0.204277 -8.39146 -2.94432e-16 -0.279889 -4.44673e-16 0.0756115)
(-0.295492 -8.63403 -4.93542e-16 0.22946 -2.83223e-15 0.0660328)
(-0.707047 -7.89625 -1.66977e-16 0.665808 -3.54614e-15 0.0412394)
(-0.931183 -6.69133 5.22924e-16 0.922766 4.89624e-15 0.00841733)
(-0.998203 -5.47775 -9.55183e-16 1.01636 -3.75724e-17 -0.0181538)
(-0.984346 -4.49817 -7.18982e-15 1.01414 1.34209e-15 -0.029793)
(-0.930794 -3.75344 8.77244e-15 0.960439 1.59514e-14 -0.0296451)
(-0.863805 -3.18637 -1.48867e-15 0.887819 -8.63705e-16 -0.0240134)
(-0.781559 -2.74349 3.42273e-15 0.802021 -4.99297e-15 -0.0204625)
(-0.730772 -2.43274 -1.50382e-15 0.743874 1.52312e-15 -0.0131023)
(-0.561993 -2.14569 3.25259e-15 0.594721 4.03455e-16 -0.0327282)
(-0.850989 -2.43448 5.7988e-15 0.751821 8.24911e-15 0.0991678)
(0.000645655 -0.00034501 9.36998e-21 -0.000595427 2.31774e-20 -5.02283e-05)
(0.000684421 -0.000224612 -1.27043e-20 -0.00063747 -9.60291e-20 -4.69503e-05)
(0.000691694 -7.63945e-05 -1.86441e-20 -0.000654664 -1.11219e-19 -3.70304e-05)
(0.000654249 8.66809e-05 -7.12344e-21 -0.000627665 1.6531e-19 -2.65843e-05)
(0.000565078 0.000235301 1.92652e-21 -0.000550957 4.34556e-20 -1.41215e-05)
(0.000429276 0.000348908 3.78247e-20 -0.000425619 -1.45276e-19 -3.65732e-06)
(0.000271226 0.00040598 7.02572e-20 -0.00027464 -2.2467e-19 3.41366e-06)
(0.000131121 0.000406958 -3.17856e-19 -0.000140194 8.3933e-21 9.07269e-06)
(2.28717e-05 0.000374119 4.88576e-20 -3.33812e-05 2.16475e-19 1.05095e-05)
(-6.63162e-05 0.000316361 1.24469e-21 6.00911e-05 -1.29263e-19 6.22508e-06)
(-0.000121767 0.000243629 -8.32677e-20 0.000123187 -7.895e-20 -1.4201e-06)
(-0.000141757 0.000176672 -6.00706e-20 0.00015008 -8.49752e-20 -8.32284e-06)
(-0.000139971 0.000124397 -1.12035e-20 0.000152778 1.86594e-20 -1.28068e-05)
(-0.00012757 8.66286e-05 3.75293e-20 0.000142839 1.0099e-19 -1.52691e-05)
(-0.000111044 6.08898e-05 6.4734e-20 0.000127502 2.50096e-20 -1.64583e-05)
(-9.41908e-05 4.40025e-05 -9.21266e-20 0.000110951 -4.69911e-21 -1.67605e-05)
(-7.86826e-05 3.33876e-05 8.27055e-20 9.51006e-05 8.54259e-21 -1.64179e-05)
(-6.53908e-05 2.68724e-05 -9.84914e-21 8.10452e-05 -2.88778e-20 -1.56544e-05)
(-5.43344e-05 2.27331e-05 -3.38118e-20 6.89938e-05 5.37888e-20 -1.46595e-05)
(-4.52858e-05 1.99641e-05 -2.57776e-20 5.8919e-05 2.80594e-20 -1.36333e-05)
(-3.79975e-05 1.79326e-05 -6.20006e-20 5.07309e-05 6.975e-20 -1.27334e-05)
(-3.26724e-05 1.64692e-05 -8.73211e-20 4.49201e-05 4.53005e-20 -1.22476e-05)
(-2.91895e-05 1.55186e-05 -1.25798e-19 4.16893e-05 1.08382e-20 -1.24997e-05)
(-2.68697e-05 1.54958e-05 5.6107e-20 4.05156e-05 5.32823e-21 -1.36459e-05)
(-2.46032e-05 1.72629e-05 -3.99459e-21 3.96875e-05 5.47733e-21 -1.50843e-05)
(-0.000235312 0.000213506 5.26709e-19 0.000404617 1.37774e-19 -0.000169305)
(-0.0011975 0.00135689 2.6967e-18 0.0021678 -1.92561e-19 -0.000970299)
(-0.00866895 0.0119941 1.08353e-18 0.0162507 -4.51456e-19 -0.00758179)
(-0.0262269 0.0459314 -7.54126e-19 0.0499595 1.03196e-19 -0.0237325)
(-0.0449442 0.102717 4.96454e-17 0.0849991 2.01643e-18 -0.0400548)
(-0.0579722 0.170678 4.02654e-16 0.105298 9.7202e-18 -0.0473253)
(-0.065977 0.235243 2.39536e-16 0.111231 1.3118e-17 -0.0452536)
(-0.0730168 0.289382 1.76247e-15 0.112019 1.2094e-16 -0.0390026)
(-0.0819868 0.33494 2.54475e-15 0.11474 1.69248e-16 -0.032753)
(-0.0941527 0.375376 -5.70586e-16 0.122124 -9.71562e-17 -0.0279713)
(-0.108449 0.415565 -4.90976e-16 0.133605 -8.61439e-17 -0.0251555)
(-0.128785 0.456188 -1.2252e-15 0.151573 -5.1505e-16 -0.0227884)
(-0.14732 0.552325 -2.52522e-15 0.174166 -3.51139e-18 -0.026846)
(-0.207631 0.775784 -2.03913e-15 0.197415 1.35831e-15 0.0102166)
(0.000333681 -0.000312808 1.72579e-21 -0.000360069 2.38757e-21 2.63878e-05)
(0.00025836 -0.000372282 -2.7296e-20 -0.000290235 -6.63199e-20 3.1875e-05)
(0.00016085 -0.000413559 -6.02087e-21 -0.000197977 -3.03305e-21 3.71263e-05)
(5.20705e-05 -0.000426362 2.27884e-20 -9.69438e-05 4.92238e-20 4.48733e-05)
(-5.44257e-05 -0.000413077 -7.20971e-20 3.54566e-06 -1.46642e-19 5.088e-05)
(-0.000154783 -0.000372457 -8.20729e-20 9.7908e-05 -1.34513e-19 5.68754e-05)
(-0.000238945 -0.000308489 -1.66416e-19 0.000175434 -2.45978e-19 6.35111e-05)
(-0.0003 -0.000230744 -1.34057e-20 0.000231133 -1.99281e-21 6.88671e-05)
(-0.000337765 -0.000145421 -7.30692e-20 0.000264305 -1.74014e-19 7.34608e-05)
(-0.000352964 -6.11088e-05 3.05788e-19 0.000275454 3.47969e-19 7.75099e-05)
(-0.000348658 1.659e-05 -5.00761e-20 0.000268535 6.81112e-20 8.01225e-05)
(-0.000331379 8.39144e-05 3.41324e-20 0.000250344 2.10022e-20 8.10342e-05)
(-0.000307335 0.000139295 -2.33538e-19 0.00022752 -2.97234e-19 7.9815e-05)
(-0.000281359 0.000184856 1.50372e-19 0.000204138 -1.39598e-20 7.72213e-05)
(-0.000253977 0.000218701 4.36308e-20 0.000181522 1.35396e-19 7.24554e-05)
(-0.00022401 0.00023781 5.34494e-20 0.000159037 2.56525e-20 6.49736e-05)
(-0.000179239 0.000226922 -2.40503e-19 0.000127521 -1.40075e-19 5.17178e-05)
(-0.00015264 0.00022365 2.0859e-19 0.000110176 1.55489e-19 4.2464e-05)
(-0.000102344 0.000169004 5.071e-20 7.59574e-05 6.62512e-22 2.63868e-05)
(-0.000915043 0.00164937 -2.11605e-18 0.00070778 -3.1836e-19 0.000207262)
(-0.00180547 0.00345927 5.24898e-18 0.00147018 -2.06144e-18 0.00033529)
(-6.63342e-05 0.000131107 7.3007e-21 5.76756e-05 1.25176e-19 8.65859e-06)
(-0.00134216 0.00153439 5.94636e-18 0.0014328 -8.78269e-18 -9.06362e-05)
(0.00125985 -0.00469246 -2.28687e-18 -0.00101567 -2.4437e-18 -0.00024418)
(0.0118918 -0.0525973 4.35114e-18 -0.010109 1.53648e-17 -0.00178273)
(0.0315221 -0.189399 -2.79707e-17 -0.027448 7.65534e-18 -0.00407409)
(0.0527796 -0.48692 1.46231e-17 -0.0468169 1.13793e-18 -0.00596271)
(0.0635078 -1.10708 -1.42195e-17 -0.0563272 7.59013e-17 -0.00718066)
(0.0252959 -2.19775 -4.39881e-16 -0.0185057 2.45957e-16 -0.00679017)
(-0.119878 -3.63052 2.16921e-16 0.123067 3.53201e-16 -0.00318946)
(-0.387142 -4.91373 1.56372e-15 0.381941 -5.86681e-16 0.00520091)
(-0.691762 -5.5241 -2.76507e-15 0.677356 2.16252e-15 0.0144061)
(-0.905555 -5.36733 5.13938e-16 0.889825 9.32762e-15 0.0157298)
(-0.983123 -4.78728 -4.86902e-17 0.974732 -6.36768e-15 0.00839091)
(-0.964888 -4.12833 3.05769e-15 0.96342 -2.30078e-15 0.00146812)
(-0.87853 -3.52378 -1.43659e-14 0.8815 5.20448e-16 -0.00297079)
(-0.798608 -3.05367 4.95847e-15 0.797586 -1.62554e-15 0.00102227)
(-0.531909 -2.55827 5.14275e-15 0.547016 -1.52325e-15 -0.0151076)
(-0.844177 -2.82235 -1.01092e-14 0.826943 3.05696e-15 0.0172334)
(0.000395295 -0.000236804 -3.54252e-21 -0.000419381 -6.74348e-21 2.40862e-05)
(0.000435596 -0.000154352 -1.34281e-20 -0.000454967 -1.89999e-20 1.93711e-05)
(0.000460048 -5.32795e-05 5.56878e-20 -0.000474973 1.20065e-19 1.49256e-05)
(0.000454763 5.43796e-05 1.14453e-20 -0.000464206 -1.35567e-20 9.44314e-06)
(0.000415687 0.000160468 7.89573e-21 -0.000421152 -8.89554e-20 5.46419e-06)
(0.000342125 0.00024805 -2.46538e-20 -0.000344106 6.37274e-20 1.98095e-06)
(0.000244197 0.00030301 2.3758e-20 -0.000243891 1.44098e-19 -3.0687e-07)
(0.000141061 0.000319908 1.56358e-19 -0.000141807 1.67851e-19 7.46251e-07)
(4.81369e-05 0.000309274 5.31697e-20 -4.95978e-05 -1.33522e-19 1.46091e-06)
(-2.83435e-05 0.000273934 1.18442e-19 2.72881e-05 7.01952e-20 1.05542e-06)
(-7.85704e-05 0.000221402 -8.35354e-20 7.72412e-05 2.14691e-20 1.32922e-06)
(-0.00010266 0.000166969 -1.20562e-20 0.000100154 7.0629e-20 2.5059e-06)
(-0.000108698 0.000119366 5.25984e-21 0.000104634 -6.34548e-20 4.06421e-06)
(-0.000104073 8.10066e-05 1.1335e-19 9.83161e-05 -7.9796e-20 5.75726e-06)
(-9.40452e-05 5.20544e-05 8.56316e-21 8.68706e-05 -1.25373e-20 7.17459e-06)
(-8.20395e-05 3.1043e-05 -1.26635e-20 7.36758e-05 5.23559e-20 8.36375e-06)
(-7.02287e-05 1.64115e-05 8.11348e-20 6.10086e-05 -9.58404e-20 9.22005e-06)
(-5.97404e-05 6.3148e-06 1.31939e-20 4.98982e-05 1.15876e-20 9.84215e-06)
(-5.10627e-05 -7.62334e-07 9.35631e-20 4.08714e-05 -6.54347e-21 1.01912e-05)
(-4.39374e-05 -6.08768e-06 1.00026e-19 3.34928e-05 2.24106e-20 1.04446e-05)
(-3.80777e-05 -1.0408e-05 2.55856e-19 2.74928e-05 -3.37974e-20 1.05849e-05)
(-3.29294e-05 -1.44531e-05 3.31047e-19 2.21557e-05 -5.00793e-20 1.07737e-05)
(-2.77599e-05 -1.86722e-05 1.96865e-19 1.66898e-05 1.70537e-20 1.10701e-05)
(-2.10892e-05 -2.26158e-05 4.53301e-20 9.23591e-06 -9.27047e-21 1.18533e-05)
(-1.29581e-05 -2.48037e-05 -4.86226e-20 -2.34517e-07 2.34838e-20 1.31926e-05)
(-4.80908e-06 -2.40848e-05 1.81522e-19 -9.4375e-06 -2.94964e-20 1.42466e-05)
(2.16948e-06 -2.25522e-05 -4.88551e-20 -1.80223e-05 -4.7537e-21 1.58529e-05)
(5.47536e-06 -1.38325e-05 -3.13946e-20 -1.76537e-05 6.47203e-22 1.21783e-05)
(5.62363e-05 -7.33791e-05 2.76157e-20 -0.000143674 -8.6845e-22 8.7438e-05)
(0.000481014 -0.000275627 -1.44017e-18 -0.00111255 -5.44913e-20 0.000631534)
(0.00145033 0.000425602 -8.65023e-18 -0.00322072 -7.87146e-20 0.00177039)
(0.00231357 0.00468906 -5.48356e-17 -0.00521487 -3.18043e-18 0.0029013)
(0.00185824 0.0154475 -1.34331e-16 -0.0050697 -4.43297e-18 0.00321146)
(-0.000686823 0.0342915 -3.34079e-16 -0.00190447 -2.28712e-17 0.00259129)
(-0.00552565 0.0608593 -8.55061e-16 0.00397994 -7.65532e-17 0.00154571)
(-0.0113266 0.0929765 2.15608e-16 0.0108233 -1.74201e-17 0.000503395)
(-0.0190693 0.127605 -1.17291e-15 0.0190198 2.10816e-16 4.94919e-05)
(-0.00964048 0.1541 2.94731e-15 0.0104711 5.32905e-16 -0.000830609)
(-0.0374599 0.261206 4.63713e-15 0.0294771 9.50692e-16 0.00798278)
(0.00030628 -0.000258223 9.51569e-21 -0.000296876 1.62784e-20 -9.40394e-06)
(0.000259298 -0.000306082 -1.32542e-20 -0.000248912 -2.38931e-20 -1.03863e-05)
(0.000195911 -0.00034741 -6.02783e-21 -0.000182639 -3.32171e-21 -1.32724e-05)
(0.000125024 -0.000374211 7.16065e-20 -0.000109146 1.04795e-19 -1.5878e-05)
(5.17748e-05 -0.000382635 4.5507e-20 -3.28945e-05 8.24868e-20 -1.88803e-05)
(-2.12931e-05 -0.000372943 5.77214e-20 4.3669e-05 1.10845e-19 -2.23759e-05)
(-8.66745e-05 -0.000347085 8.81562e-20 0.000112589 1.01992e-19 -2.59149e-05)
(-0.000139539 -0.000308085 -5.05818e-20 0.000168994 -7.85515e-20 -2.94547e-05)
(-0.000178415 -0.000260562 -1.80919e-19 0.00021168 -1.79248e-19 -3.32644e-05)
(-0.000202004 -0.000209912 2.34922e-19 0.000238693 1.323e-19 -3.66891e-05)
(-0.000211574 -0.000160037 1.97567e-19 0.000251484 1.67323e-19 -3.99103e-05)
(-0.000209291 -0.000114101 2.55705e-19 0.00025182 1.22495e-19 -4.25287e-05)
(-0.000197728 -7.42123e-05 -4.20852e-19 0.000241973 -1.34782e-19 -4.42449e-05)
(-0.000179863 -4.12308e-05 -3.58068e-19 0.000224681 -2.40533e-19 -4.48182e-05)
(-0.000157739 -1.50509e-05 4.7381e-19 0.000202211 1.49029e-19 -4.44719e-05)
(-0.000133134 7.4744e-06 9.57786e-20 0.000175307 5.89818e-20 -4.21734e-05)
(-0.000107455 2.6591e-05 -7.08912e-20 0.000145547 7.31686e-21 -3.80917e-05)
(-8.50134e-05 4.31436e-05 -2.30782e-19 0.000118158 -1.51199e-19 -3.31442e-05)
(-6.20235e-05 5.46946e-05 5.18257e-20 8.70632e-05 -1.98842e-20 -2.50397e-05)
(-4.30376e-05 5.86061e-05 2.00341e-19 5.90413e-05 6.18119e-20 -1.60037e-05)
(-3.80954e-05 7.09257e-05 -2.6889e-19 4.90742e-05 -7.73424e-20 -1.09788e-05)
(-4.03755e-05 9.39036e-05 1.43957e-19 4.85869e-05 2.05625e-20 -8.21145e-06)
(-3.74296e-05 0.000112358 -4.38603e-20 4.34993e-05 -9.51017e-21 -6.0697e-06)
(-0.000241482 0.00109874 -8.53058e-19 0.000288146 4.1838e-19 -4.66647e-05)
(-0.000591722 0.00637274 3.53783e-18 0.000862562 -1.12921e-18 -0.000270839)
(0.000510934 0.0129178 -7.50395e-18 8.3496e-05 9.95801e-18 -0.00059443)
(0.000449273 0.00233522 1.99938e-20 -0.000321657 -4.60817e-20 -0.000127616)
(0.00162812 0.00224821 3.01281e-18 -0.00136274 -1.06963e-18 -0.000265375)
(0.00476174 -0.0115369 7.07358e-18 -0.00419796 1.78978e-17 -0.000563782)
(0.0100849 -0.109377 2.70618e-17 -0.00882849 -1.22861e-16 -0.00125637)
(-0.000302224 -0.478523 -6.65186e-17 0.00251958 -3.9643e-16 -0.00221736)
(-0.0768501 -1.29969 2.07834e-15 0.0795669 5.51865e-16 -0.0027168)
(-0.263614 -2.42433 2.9711e-15 0.264496 6.72595e-16 -0.000881654)
(-0.514236 -3.34435 -1.64347e-15 0.510825 -2.23441e-15 0.00341031)
(-0.71556 -3.72264 -7.3332e-15 0.709605 1.42205e-15 0.00595534)
(-0.79287 -3.65042 4.79331e-15 0.790333 4.89443e-15 0.00253731)
(-0.801233 -3.42063 -1.01675e-14 0.796515 -1.30111e-16 0.00471786)
(-0.574021 -3.0197 -1.30299e-14 0.58401 1.88258e-15 -0.00998815)
(-0.812954 -3.21037 9.2261e-15 0.785185 -3.48753e-15 0.0277692)
(0.000342224 -0.000198497 -1.46076e-20 -0.000335899 -2.97426e-20 -6.32501e-06)
(0.000364714 -0.000135329 -5.02369e-21 -0.000359228 2.03041e-20 -5.48569e-06)
(0.000373312 -5.72455e-05 4.83501e-20 -0.000370622 9.21874e-20 -2.69014e-06)
(0.00036393 2.51556e-05 -2.06945e-20 -0.00036261 -1.16224e-21 -1.32004e-06)
(0.000332411 0.000105542 1.80247e-20 -0.000332513 1.1422e-19 1.02045e-07)
(0.00027855 0.000174405 5.52693e-20 -0.00027883 -1.58028e-20 2.79882e-07)
(0.000208874 0.000222873 5.9761e-20 -0.000208618 -1.55035e-21 -2.56151e-07)
(0.000134091 0.000246333 -1.47488e-19 -0.000134121 -8.91343e-20 2.99097e-08)
(6.20832e-05 0.000246781 -8.05827e-20 -6.28878e-05 6.96672e-21 8.04671e-07)
(-4.81339e-07 0.000226456 1.33622e-19 -6.61745e-07 6.03013e-20 1.14308e-06)
(-4.60143e-05 0.000192083 6.23689e-20 4.50225e-05 -5.11783e-21 9.91791e-07)
(-7.36465e-05 0.000153527 7.38462e-20 7.31321e-05 -4.55936e-20 5.14415e-07)
(-8.69237e-05 0.000117332 -1.14039e-19 8.71756e-05 -7.47462e-20 -2.5185e-07)
(-9.02497e-05 8.63932e-05 -1.41383e-19 9.13693e-05 2.66889e-20 -1.11959e-06)
(-8.73192e-05 6.17588e-05 1.29049e-20 8.93386e-05 3.73724e-20 -2.01937e-06)
(-8.10776e-05 4.30064e-05 4.37229e-20 8.39014e-05 -1.30119e-20 -2.82386e-06)
(-7.35833e-05 2.93006e-05 -1.07379e-19 7.71376e-05 -8.50144e-21 -3.55421e-06)
(-6.6111e-05 1.94555e-05 -4.12434e-21 7.02675e-05 -1.70995e-20 -4.15644e-06)
(-5.93561e-05 1.23042e-05 -4.12363e-20 6.40056e-05 -8.07156e-21 -4.64947e-06)
(-5.34503e-05 6.79487e-06 8.66503e-20 5.8436e-05 -4.99182e-20 -4.98568e-06)
(-4.83435e-05 2.24992e-06 -9.43813e-20 5.35919e-05 -3.27924e-20 -5.24839e-06)
(-4.37598e-05 -1.90784e-06 -1.96269e-19 4.92024e-05 -2.31683e-20 -5.44262e-06)
(-3.92321e-05 -6.02087e-06 8.8889e-21 4.48497e-05 -2.97495e-20 -5.61759e-06)
(-3.40472e-05 -9.84474e-06 5.03137e-20 3.9779e-05 -2.86279e-20 -5.73183e-06)
(-2.84136e-05 -1.2248e-05 1.52479e-19 3.44235e-05 -1.06384e-20 -6.00995e-06)
(-2.34555e-05 -1.29978e-05 -1.4286e-19 3.00706e-05 -8.27361e-21 -6.61511e-06)
(-1.95444e-05 -1.28635e-05 -2.45766e-20 2.68443e-05 7.64391e-21 -7.29989e-06)
(-1.65195e-05 -1.23522e-05 1.47862e-20 2.44677e-05 1.29327e-21 -7.94824e-06)
(-1.3684e-05 -1.14346e-05 -6.83165e-21 2.18798e-05 -2.74647e-22 -8.19588e-06)
(-1.08694e-05 -1.02009e-05 -9.94607e-21 1.87105e-05 4.83226e-22 -7.84107e-06)
(-7.46424e-06 -8.187e-06 -1.60139e-20 1.38338e-05 -8.46165e-22 -6.36952e-06)
(-4.21528e-06 -5.76353e-06 4.61567e-20 8.62648e-06 1.33189e-21 -4.4112e-06)
(-3.03771e-05 -5.74157e-05 2.01496e-18 7.74868e-05 1.31112e-19 -4.71098e-05)
(-5.85971e-07 -4.59778e-05 1.88314e-17 0.000110425 1.75136e-18 -0.000109839)
(0.000235617 0.000599878 7.84948e-17 -0.000134604 1.03395e-17 -0.000101013)
(0.00088183 0.00333524 -1.7378e-16 -0.000938963 -2.65277e-17 5.71338e-05)
(0.00157063 0.0112125 7.42422e-16 -0.00204686 1.09817e-16 0.000476233)
(0.00672216 0.0279245 -4.86446e-16 -0.00721137 -1.68339e-16 0.000489216)
(-0.00282873 0.104509 -3.29706e-16 -0.0019495 -1.41028e-15 0.00477823)
(0.000222634 -0.000196128 -1.35347e-20 -0.000225649 -2.01606e-20 3.01561e-06)
(0.000184148 -0.000231624 2.65854e-21 -0.000188508 4.23597e-21 4.35984e-06)
(0.000134444 -0.000261248 1.61108e-20 -0.000139278 1.74974e-20 4.83418e-06)
(7.79987e-05 -0.000279187 -9.89662e-20 -8.41632e-05 -1.40665e-19 6.16454e-06)
(1.8932e-05 -0.000283319 -7.24487e-20 -2.64808e-05 -8.47329e-20 7.54883e-06)
(-4.04422e-05 -0.00027307 1.69306e-19 3.16123e-05 2.02667e-19 8.8299e-06)
(-9.4835e-05 -0.000249163 -1.79755e-19 8.42688e-05 -2.23209e-19 1.05662e-05)
(-0.000140347 -0.000213788 -8.12619e-20 0.000127929 -5.40597e-20 1.24181e-05)
(-0.00017474 -0.000169936 -1.93186e-19 0.000160477 -1.44566e-19 1.42627e-05)
(-0.00019668 -0.000121817 -3.59989e-20 0.000180319 -6.55051e-20 1.63605e-05)
(-0.000206279 -7.2869e-05 2.41759e-20 0.000187824 -8.72367e-21 1.84546e-05)
(-0.000204704 -2.62633e-05 -1.32279e-19 0.000184162 -1.75438e-19 2.05423e-05)
(-0.000193971 1.5445e-05 4.30642e-19 0.000171446 2.94944e-19 2.25255e-05)
(-0.000176466 5.07379e-05 -1.41749e-19 0.000152269 -2.47893e-20 2.41963e-05)
(-0.000154503 7.9433e-05 -3.47387e-19 0.000128934 -1.51909e-19 2.55693e-05)
(-0.00013052 0.000100452 2.30334e-19 0.000104582 4.60958e-21 2.59376e-05)
(-0.000106132 0.000113137 -1.6736e-19 8.13169e-05 -9.65294e-20 2.48146e-05)
(-8.17563e-05 0.000118016 2.28539e-21 5.90845e-05 1.22191e-19 2.26718e-05)
(-5.96943e-05 0.000118141 -4.03238e-20 3.96049e-05 -3.16796e-20 2.00894e-05)
(-3.92403e-05 0.000110923 -2.8503e-19 2.26672e-05 -1.96934e-19 1.6573e-05)
(-2.21811e-05 9.47313e-05 1.98233e-19 1.03272e-05 1.92445e-19 1.18539e-05)
(-1.15775e-05 7.54068e-05 3.94488e-21 4.40435e-06 -1.21617e-19 7.17311e-06)
(-6.7666e-06 6.98846e-05 3.843e-20 2.12941e-06 1.1759e-20 4.63718e-06)
(-2.52097e-06 7.98495e-05 1.11652e-19 -1.22057e-06 -5.00057e-21 3.74154e-06)
(3.77389e-06 8.69991e-05 -3.76448e-20 -6.753e-06 -1.19922e-20 2.97911e-06)
(9.47311e-06 8.92071e-05 1.26741e-19 -1.15712e-05 2.02421e-20 2.09806e-06)
(9.62739e-05 0.000672009 -5.22151e-20 -0.000105488 1.18625e-21 9.214e-06)
(0.000420604 0.00257074 -4.08763e-19 -0.000437391 -2.52945e-19 1.67864e-05)
(0.00146767 0.00785564 2.31656e-20 -0.00148071 2.02578e-18 1.30434e-05)
(0.00519439 0.0228181 -6.64556e-17 -0.00514851 5.48632e-18 -4.58844e-05)
(0.00153317 0.0048287 -6.12071e-18 -0.00150745 1.02358e-18 -2.57237e-05)
(0.0107002 0.0121536 2.8055e-17 -0.0104704 -1.6376e-16 -0.000229887)
(0.0187108 -0.0983879 5.75501e-16 -0.0178818 -7.06121e-16 -0.000828981)
(-0.0256595 -0.584249 -2.98286e-15 0.0276496 1.58977e-16 -0.00199018)
(-0.182192 -1.48986 4.83429e-15 0.184004 1.81625e-15 -0.00181168)
(-0.400678 -2.39898 -9.9598e-16 0.40138 4.27291e-16 -0.000701914)
(-0.585945 -2.96374 -1.75014e-15 0.581969 3.9849e-15 0.00397562)
(-0.525541 -3.08578 6.73617e-16 0.536029 2.43448e-16 -0.0104884)
(-0.772387 -3.40056 -1.72701e-14 0.735128 4.32351e-15 0.0372582)
(0.000253108 -0.000152903 8.63746e-21 -0.000256266 3.53072e-21 3.15744e-06)
(0.000274184 -0.000106572 -3.12486e-20 -0.000275956 -4.49325e-20 1.77281e-06)
(0.000285724 -4.96654e-05 3.9901e-21 -0.000287343 2.03317e-20 1.61918e-06)
(0.000283464 1.1771e-05 1.70416e-20 -0.000284288 -5.6858e-20 8.23691e-07)
(0.000264476 7.30933e-05 -1.38576e-19 -0.000265053 -1.99266e-19 5.76423e-07)
(0.000228057 0.000127523 -1.41948e-19 -0.000228065 7.28579e-20 8.49141e-09)
(0.00017833 0.000168591 1.98759e-19 -0.000178005 1.03191e-19 -3.25339e-07)
(0.000122699 0.000192328 -6.43112e-20 -0.00012258 -1.86802e-19 -1.19083e-07)
(6.67714e-05 0.00019883 -8.78174e-20 -6.69512e-05 2.49287e-20 1.79772e-07)
(1.59936e-05 0.000188953 -5.98843e-20 -1.63332e-05 -1.03992e-19 3.39577e-07)
(-2.36404e-05 0.000167061 2.09743e-20 2.3337e-05 3.1666e-20 3.03434e-07)
(-5.04748e-05 0.000139406 -3.93064e-20 5.01956e-05 -5.14048e-20 2.79221e-07)
(-6.58568e-05 0.000110987 -8.11802e-20 6.55264e-05 1.0921e-19 3.30483e-07)
(-7.23438e-05 8.47907e-05 8.61059e-20 7.18771e-05 5.0516e-20 4.66757e-07)
(-7.25481e-05 6.24353e-05 7.31688e-20 7.18744e-05 -3.36505e-20 6.73715e-07)
(-6.88982e-05 4.43327e-05 -1.50338e-20 6.79432e-05 -3.01136e-20 9.54969e-07)
(-6.32425e-05 3.02671e-05 4.36825e-20 6.19784e-05 9.72948e-21 1.26412e-06)
(-5.69267e-05 1.95706e-05 -6.47135e-20 5.53454e-05 1.65351e-20 1.58135e-06)
(-5.07691e-05 1.14598e-05 4.58168e-20 4.88922e-05 -1.20504e-21 1.87694e-06)
(-4.5112e-05 5.13608e-06 -6.03068e-20 4.29597e-05 -2.8163e-20 2.15231e-06)
(-4.00221e-05 -2.29547e-08 5.81809e-20 3.7644e-05 4.86274e-21 2.37814e-06)
(-3.53181e-05 -4.52332e-06 7.79908e-20 3.27491e-05 1.70602e-20 2.569e-06)
(-3.06274e-05 -8.65391e-06 -5.44319e-21 2.79075e-05 7.1566e-21 2.71988e-06)
(-2.53523e-05 -1.22589e-05 -1.46136e-19 2.2432e-05 7.00254e-23 2.9203e-06)
(-1.95036e-05 -1.45491e-05 -5.43768e-20 1.63509e-05 -2.32195e-20 3.15275e-06)
(-1.39163e-05 -1.52711e-05 -1.60215e-20 1.05755e-05 2.46895e-20 3.34086e-06)
(-9.03129e-06 -1.50183e-05 5.92788e-20 5.385e-06 7.3601e-22 3.64629e-06)
(-4.81581e-06 -1.41933e-05 2.13741e-21 7.45461e-07 -4.86857e-22 4.07035e-06)
(-1.23694e-06 -1.3132e-05 -3.3556e-21 -3.3232e-06 2.86612e-22 4.56014e-06)
(1.63627e-06 -1.12933e-05 3.75534e-20 -6.3533e-06 1.7409e-22 4.71703e-06)
(4.3691e-06 -1.18022e-05 3.3264e-20 -1.00253e-05 1.07548e-21 5.65616e-06)
(3.23018e-06 -5.83779e-06 -8.99582e-20 -6.13154e-06 -4.97858e-21 2.90136e-06)
(1.1872e-05 -1.72343e-05 -7.63511e-19 -1.98571e-05 -5.92192e-20 7.9851e-06)
(8.68863e-05 -0.000109112 -1.06772e-18 -0.000129201 -1.30344e-19 4.23149e-05)
(2.45019e-05 -2.67099e-05 2.06799e-19 -3.24307e-05 2.23936e-21 7.92874e-06)
(0.000109764 -8.93075e-05 -1.75229e-18 -0.000127462 6.96008e-19 1.76981e-05)
(0.000366638 -0.000131209 -1.79464e-17 -0.000396194 -1.49311e-17 2.95552e-05)
(0.000937677 0.0002128 5.60569e-17 -0.000915905 4.0031e-18 -2.17727e-05)
(0.00383922 0.0197216 -2.90751e-16 -0.00521179 5.23094e-17 0.00137257)
(0.00018413 -0.000161014 1.18696e-20 -0.000183018 1.37883e-20 -1.11164e-06)
(0.000155879 -0.000189721 -2.9849e-20 -0.000154872 -3.58774e-20 -1.00703e-06)
(0.000118628 -0.000214942 -2.41029e-21 -0.000117023 -4.98742e-21 -1.60468e-06)
(7.60892e-05 -0.00023239 -1.24403e-20 -7.41975e-05 -6.48759e-21 -1.89168e-06)
(3.1036e-05 -0.000239974 9.86365e-20 -2.87668e-05 1.13518e-19 -2.26912e-06)
(-1.54507e-05 -0.000237317 7.56357e-20 1.84274e-05 6.24058e-20 -2.97673e-06)
(-5.93402e-05 -0.00022451 9.61787e-22 6.29578e-05 3.04985e-20 -3.61757e-06)
(-9.76928e-05 -0.000202637 1.87631e-19 0.000102082 1.81804e-19 -4.38914e-06)
(-0.00012879 -0.000173559 -2.34317e-20 0.000134176 -3.12878e-21 -5.38569e-06)
(-0.000151049 -0.000140082 -6.47896e-20 0.000157472 -3.04223e-20 -6.42343e-06)