/*--------------------------------*- C++ -*----------------------------------*\
| =========                 |                                                 |
| \\      /  F ield         | OpenFOAM: The Open Source CFD Toolbox           |
|  \\    /   O peration     | Version:  2306                                  |
|   \\  /    A nd           | Website:  www.openfoam.com                      |
|    \\/     M anipulation  |                                                 |
\*---------------------------------------------------------------------------*/
FoamFile
{
    version     2.0;
    format      ascii;
    arch        "LSB;label=32;scalar=64";
    class       volVectorField;
    location    "975";
    object      U;
}
// * * * * * * * * * * * * * * * * * * * * * * * * * * * * * * * * * * * * * //

dimensions      [0 1 -1 0 0 0 0];

internalField   nonuniform List<vector> 
10720
(
(0.227303 27.647 6.745e-18)
(1.96454 29.9432 -5.62203e-17)
(4.13734 32.1617 2.12831e-16)
(6.63499 33.8946 -4.10314e-16)
(9.39108 35.2248 3.1465e-16)
(12.3373 36.1102 2.00365e-16)
(15.3188 36.4524 -3.61643e-16)
(18.2397 36.286 1.24239e-15)
(21.0151 35.6757 -8.39334e-16)
(23.5619 34.6566 -5.80901e-16)
(25.8434 33.3238 3.00297e-16)
(27.8127 31.7263 1.67794e-15)
(29.4229 29.8609 6.52295e-16)
(30.6576 27.7678 5.97806e-16)
(31.4739 25.4622 1.43021e-15)
(31.8438 22.9751 1.24023e-15)
(31.6969 20.3078 -2.52892e-15)
(30.9558 17.4968 -8.9727e-15)
(29.4862 14.5542 6.6807e-15)
(27.1602 11.5446 -3.12732e-16)
(23.8372 8.53231 -1.30835e-15)
(19.5671 5.67761 -2.42337e-15)
(14.8911 3.22869 8.27069e-15)
(11.4441 1.44122 -2.14865e-15)
(10.061 0.261568 1.47821e-15)
(10.6974 -0.358653 -3.15995e-15)
(12.1171 -0.599622 1.89383e-16)
(13.6254 -0.71996 -1.37267e-15)
(14.8693 -0.871496 -5.45157e-15)
(15.6928 -1.08674 -7.68051e-15)
(16.1264 -1.34694 7.72166e-15)
(16.2642 -1.62034 2.69333e-15)
(16.0631 -1.86609 1.10762e-15)
(15.556 -2.06069 3.71522e-14)
(14.7265 -2.17973 -5.57734e-15)
(13.5776 -2.20872 -5.02547e-16)
(11.7314 -2.06648 8.63929e-16)
(9.72604 -1.82206 2.14973e-15)
(3.48754 -1.07559 1.69577e-14)
(-1.1427 25.1966 7.66911e-18)
(-2.24858 22.436 1.16854e-17)
(-3.01405 19.3293 -9.05209e-17)
(-3.31648 15.7331 8.60573e-17)
(-2.9963 12.0183 -2.86091e-16)
(-2.02377 8.32074 7.07936e-16)
(-0.486683 4.95178 1.88662e-15)
(1.3644 2.18881 5.48266e-15)
(3.32267 -0.139521 -1.64501e-15)
(5.55301 -2.15989 5.0879e-16)
(7.84878 -3.66176 1.74119e-15)
(9.96512 -4.62794 2.62231e-15)
(11.8356 -5.18647 8.17037e-16)
(13.4723 -5.46193 -1.38869e-15)
(14.9 -5.55117 -1.24463e-15)
(16.1499 -5.51722 6.67133e-16)
(17.2526 -5.40769 2.50561e-16)
(18.2406 -5.2515 8.37578e-16)
(19.145 -5.06814 -6.87906e-16)
(19.9876 -4.8604 -1.35719e-16)
(20.7866 -4.62979 -5.97333e-16)
(21.5528 -4.36684 2.95512e-16)
(22.2875 -4.05759 8.09206e-16)
(22.9598 -3.67699 -2.71815e-16)
(23.5021 -3.22513 -3.03577e-16)
(23.897 -2.74548 -2.94819e-16)
(24.175 -2.27773 -8.40485e-18)
(24.3721 -1.77844 9.25989e-18)
(24.5037 -1.18113 1.23677e-19)
(24.5699 -0.513058 -3.41325e-18)
(24.5503 0.159842 7.4667e-17)
(24.4305 0.789602 5.57317e-17)
(24.2114 1.3536 1.25378e-16)
(23.9018 1.84542 3.6388e-16)
(23.5017 2.26734 9.76315e-18)
(23.0077 2.62726 2.3069e-16)
(22.3174 2.92666 8.27153e-16)
(21.3672 3.13422 2.1846e-15)
(18.7647 3.31188 2.34025e-15)
(7.15396 23.9923 -3.54616e-18)
(9.04435 25.7194 -2.15989e-17)
(11.3477 27.2835 1.50532e-17)
(14.0035 28.58 6.46881e-17)
(16.8651 29.5494 -3.30531e-16)
(19.9374 30.1312 -1.76097e-16)
(23.108 30.279 -5.82e-16)
(26.2441 30.014 1.1448e-16)
(29.292 29.3461 -4.871e-16)
(32.1687 28.327 -8.4721e-17)
(34.8181 27.0096 1.21731e-15)
(37.2334 25.4924 -1.62227e-15)
(39.4232 23.8655 -9.27968e-16)
(41.3993 22.1613 -1.68269e-17)
(43.1487 20.4109 5.61699e-16)
(44.6308 18.6527 -1.17259e-15)
(45.8266 16.9103 -6.08668e-16)
(46.6992 15.2127 3.57363e-15)
(47.1876 13.5671 -5.87838e-16)
(47.1791 11.9783 -1.2088e-15)
(46.4799 10.3966 -1.70155e-15)
(44.8611 8.72366 1.47969e-15)
(42.1806 6.82161 -2.19519e-15)
(38.6421 4.75777 -2.05701e-16)
(35.1085 2.86616 1.18644e-15)
(31.9561 1.34553 1.13919e-15)
(29.1567 0.239871 8.55087e-17)
(26.7754 -0.550473 5.74346e-16)
(24.9201 -1.15066 1.3489e-15)
(23.5678 -1.62232 1.07685e-15)
(22.5411 -1.99183 -1.0467e-15)
(21.6155 -2.2781 -1.23112e-16)
(20.6919 -2.50252 1.44795e-14)
(19.6859 -2.67127 -1.09641e-14)
(18.5074 -2.76949 1.7363e-15)
(17.1191 -2.7795 -4.99494e-15)
(15.1492 -2.63281 1.57988e-15)
(13.0645 -2.36656 -6.59358e-16)
(7.06347 -1.47585 4.49198e-15)
(5.55902 22.1531 3.08211e-17)
(4.17397 20.1084 -9.58629e-17)
(2.96017 17.7146 -4.80014e-16)
(2.03959 14.9945 4.47338e-16)
(1.59179 12.0367 6.06262e-16)
(1.70557 8.98112 -2.53139e-17)
(2.40263 6.03982 -2.72084e-15)
(3.58769 3.4389 -4.60251e-15)
(5.08026 1.14187 3.07486e-15)
(6.84371 -0.758212 -1.62471e-15)
(8.73744 -2.12439 2.21164e-16)
(10.5866 -3.01233 -5.0847e-16)
(12.3097 -3.54995 2.78653e-17)
(13.8829 -3.83701 1.49371e-16)
(15.3008 -3.95451 5.00023e-16)
(16.5748 -3.95472 -9.10418e-16)
(17.7215 -3.88206 9.77874e-16)
(18.7646 -3.7616 -2.29134e-16)
(19.7282 -3.6112 -4.23718e-16)
(20.6353 -3.42809 -2.94984e-16)
(21.5012 -3.20995 -6.66835e-16)
(22.3382 -2.9394 -7.29367e-16)
(23.1482 -2.59509 -7.90766e-16)
(23.9088 -2.13663 3.15248e-16)
(24.5677 -1.57144 -2.11977e-17)
(25.099 -0.963323 1.34858e-16)
(25.5135 -0.336453 9.93648e-17)
(25.8055 0.27377 5.9055e-18)
(25.967 0.821306 -1.18758e-19)
(26.0005 1.28865 2.20454e-18)
(25.9349 1.68399 -4.28273e-17)
(25.7971 2.03013 -1.90067e-17)
(25.5971 2.3467 -1.76882e-16)
(25.3361 2.64221 -1.28556e-16)
(25.0049 2.92011 -2.58346e-17)
(24.6045 3.18328 -1.08864e-16)
(24.0359 3.42892 -6.36381e-16)
(23.4731 3.64811 -2.27502e-15)
(21.4975 3.71659 -2.4233e-15)
(8.30381 22.0998 2.14497e-18)
(9.64535 23.6255 9.997e-18)
(11.2778 25.1114 5.09779e-18)
(13.1539 26.4854 -5.36106e-17)
(15.2214 27.6287 1.44072e-16)
(17.4794 28.518 2.15193e-16)
(19.8536 29.1144 5.84717e-16)
(22.2694 29.3804 2.46048e-17)
(24.6698 29.3158 6.10347e-16)
(26.9969 28.9329 -1.19568e-15)
(29.1975 28.2514 -1.30082e-16)
(31.2377 27.2963 -3.34414e-16)
(33.0901 26.0977 1.51168e-15)
(34.7378 24.6883 -3.3328e-16)
(36.179 23.1023 -4.38905e-16)
(37.4729 21.3507 -6.31106e-16)
(38.6497 19.4639 1.95107e-15)
(39.7296 17.498 -1.55499e-15)
(40.773 15.5026 -9.24667e-16)
(41.8252 13.5514 2.3727e-15)
(42.9476 11.6857 -1.87407e-15)
(44.0595 9.89371 -3.57753e-16)
(44.8713 8.03537 -4.50344e-16)
(44.9382 6.02669 6.38557e-16)
(44.1676 4.02978 -3.69363e-16)
(42.814 2.28463 5.95315e-16)
(41.1004 0.902806 -1.14562e-16)
(39.0763 -0.182912 -8.58162e-17)
(36.6994 -1.07315 1.5322e-15)
(34.0105 -1.80064 2.17497e-16)
(31.2193 -2.36349 -3.02812e-15)
(28.6126 -2.76896 3.15963e-15)
(26.3426 -3.0393 -7.6931e-16)
(24.3393 -3.19774 1.52569e-16)
(22.4119 -3.25675 -3.40893e-15)
(20.4315 -3.21343 1.06788e-14)
(18.0249 -3.02205 -2.38957e-15)
(15.5374 -2.65342 -3.7144e-16)
(9.75569 -1.88528 -6.25296e-15)
(7.20963 20.4926 3.83898e-18)
(6.25004 18.7378 -8.46962e-17)
(5.45267 16.6726 2.92103e-16)
(4.81236 14.3623 2.30236e-16)
(4.48419 11.8814 -6.55633e-16)
(4.5138 9.29942 -6.21896e-16)
(4.92873 6.75362 1.2497e-15)
(5.69821 4.40207 1.8647e-15)
(6.78417 2.29672 1.61156e-15)
(8.13892 0.507265 -1.39258e-15)
(9.63649 -0.905569 -1.02371e-15)
(11.1564 -1.96299 2.63523e-16)
(12.627 -2.72627 9.91702e-16)
(14.0131 -3.25344 1.40283e-15)
(15.2976 -3.59508 -2.76236e-16)
(16.4787 -3.79449 -3.25746e-17)
(17.5627 -3.88965 9.4814e-16)
(18.5631 -3.90676 1.80343e-17)
(19.4969 -3.86401 7.1835e-16)
(20.3814 -3.76664 6.41896e-16)
(21.2291 -3.6168 1.49357e-15)
(22.0489 -3.40624 1.55608e-15)
(22.8409 -3.12154 6.87047e-16)
(23.5858 -2.74229 1.34655e-16)
(24.2405 -2.28354 -1.24783e-16)
(24.7806 -1.79446 3.59529e-16)
(25.2165 -1.29722 -6.9785e-17)
(25.5617 -0.796781 -3.84939e-17)
(25.8216 -0.289633 2.72192e-18)
(25.9965 0.226063 3.63597e-19)
(26.0885 0.75003 1.64386e-17)
(26.0991 1.2719 3.98093e-17)
(26.028 1.7735 5.65745e-17)
(25.8751 2.23925 1.60081e-17)
(25.6309 2.66169 -1.92088e-16)
(25.2954 3.0392 1.03719e-16)
(24.7698 3.37351 -9.25145e-16)
(24.1693 3.6261 4.34731e-15)
(22.3696 3.7274 1.07067e-14)
(10.905 20.2245 1.19702e-17)
(12.1614 21.5194 -1.40375e-17)
(13.6681 22.7806 1.64237e-17)
(15.4018 23.9338 -2.30607e-17)
(17.3162 24.8886 -6.94239e-17)
(19.4176 25.6263 -1.78958e-16)
(21.65 26.1028 -2.87116e-16)
(23.9531 26.2832 1.03981e-16)
(26.2804 26.1596 6.91526e-16)
(28.5767 25.7337 -4.55386e-16)
(30.791 25.0185 -7.66569e-16)
(32.8839 24.0371 -1.16233e-15)
(34.8196 22.8239 1.31936e-15)
(36.5717 21.416 2.22662e-15)
(38.1296 19.8462 -1.98815e-15)
(39.4538 18.1664 -8.58701e-16)
(40.4986 16.4347 1.08875e-16)
(41.2603 14.6876 1.7458e-15)
(41.7488 12.9621 1.00845e-16)
(42.0124 11.2931 -2.52589e-15)
(42.1493 9.70729 3.36234e-15)
(42.3132 8.19884 -1.57225e-15)
(42.6084 6.68406 3.38234e-16)
(42.8882 5.07462 1.34217e-15)
(42.848 3.43643 -8.00922e-16)
(42.3982 1.95649 6.69967e-16)
(41.6996 0.742287 7.42016e-17)
(40.9062 -0.254056 -3.78656e-16)
(40.0003 -1.12326 -3.02751e-16)
(38.8201 -1.89617 -4.32558e-16)
(37.176 -2.55647 4.8418e-16)
(34.9674 -3.07703 -4.98667e-15)
(32.2952 -3.43972 -5.1441e-15)
(29.4565 -3.64614 1.44352e-15)
(26.6829 -3.70881 5.69074e-15)
(24.0051 -3.63038 -2.50216e-15)
(21.0745 -3.39197 3.31648e-15)
(18.0882 -2.91003 6.54351e-16)
(12.3259 -2.20254 3.04655e-15)
(9.84986 18.8697 -5.22601e-17)
(8.90317 17.4008 -2.10354e-17)
(8.07696 15.6681 3.58818e-16)
(7.38578 13.711 -1.58917e-16)
(6.96046 11.5991 9.40727e-16)
(6.83595 9.38073 7.95859e-16)
(7.03834 7.15957 -9.8752e-16)
(7.54194 5.05826 1.19224e-17)
(8.32463 3.13445 3.43404e-16)
(9.35354 1.45264 2.38277e-15)
(10.5377 0.0660482 1.75325e-16)
(11.7925 -1.01955 6.77826e-16)
(13.0582 -1.83596 -1.85335e-15)
(14.2937 -2.42408 -1.14695e-15)
(15.4739 -2.82325 3.4468e-16)
(16.5865 -3.07256 1.98568e-16)
(17.6289 -3.20613 -9.52812e-16)
(18.6051 -3.25102 9.43227e-17)
(19.5249 -3.22691 -2.30268e-16)
(20.3999 -3.14324 5.98282e-16)
(21.2392 -3.00323 -6.3014e-16)
(22.0491 -2.80141 -9.16667e-16)
(22.8287 -2.52653 1.14683e-16)
(23.5615 -2.16106 2.24661e-16)
(24.2117 -1.71067 4.36464e-16)
(24.7554 -1.21289 -3.19584e-16)
(25.1974 -0.690759 -4.04897e-17)
(25.549 -0.155344 1.39246e-17)
(25.8149 0.382867 -4.18107e-18)
(25.9979 0.908833 -2.53701e-18)
(26.1032 1.40673 3.72517e-18)
(26.1373 1.86089 -8.67194e-18)
(26.1041 2.26812 -8.03236e-18)
(26.0052 2.63153 2.09751e-17)
(25.831 2.95774 1.99241e-16)
(25.5776 3.25126 -5.66012e-16)
(25.1463 3.52021 2.55102e-15)
(24.6142 3.69601 -1.98933e-15)
(22.9849 3.75933 -2.10555e-15)
(12.4356 18.8257 -2.29766e-17)
(13.4919 19.975 7.30656e-18)
(14.7658 21.117 7.24333e-19)
(16.2229 22.1896 6.15064e-17)
(17.8231 23.1099 1.1195e-16)
(19.5872 23.8733 -3.0333e-16)
(21.4685 24.4402 4.33672e-16)
(23.4199 24.7754 1.92193e-16)
(25.4109 24.8687 5.37697e-16)
(27.395 24.7135 2.80595e-16)
(29.331 24.3115 -8.404e-17)
(31.1841 23.6743 9.63131e-16)
(32.9203 22.8211 -2.01713e-15)
(34.5125 21.7733 1.41182e-16)
(35.94 20.5547 2.09185e-15)
(37.1823 19.1889 -1.03649e-15)
(38.2516 17.6716 1.07028e-15)
(39.1423 16.0257 -2.17234e-16)
(39.847 14.2843 6.94771e-17)
(40.3587 12.4938 2.56152e-15)
(40.6838 10.6938 -1.7539e-15)
(40.8485 8.91488 7.15461e-17)
(40.8956 7.14921 -3.84969e-16)
(40.8179 5.39087 -1.76714e-15)
(40.5226 3.71125 6.44728e-16)
(39.9708 2.23086 -2.16214e-15)
(39.2739 1.00719 -8.18011e-17)
(38.5777 -0.00822291 2.69913e-16)
(37.9462 -0.89548 -2.23086e-16)
(37.3596 -1.68997 4.06233e-15)
(36.7504 -2.3946 1.55225e-15)
(35.982 -3.00516 -7.22027e-16)
(34.8189 -3.50408 -4.10892e-15)
(33.0168 -3.85311 6.53989e-15)
(30.5259 -4.01656 -4.82199e-15)
(27.5893 -3.97641 3.56945e-16)
(24.2474 -3.73118 4.74727e-16)
(20.7884 -3.16238 -4.46107e-17)
(14.9283 -2.47014 -3.73995e-15)
(11.5428 17.6298 1.21312e-17)
(10.7393 16.3464 -1.52234e-16)
(10.0176 14.8316 5.98202e-17)
(9.38608 13.1241 3.82068e-17)
(8.96069 11.2879 -1.34035e-15)
(8.76622 9.35142 -1.15388e-15)
(8.83376 7.39034 3.56815e-15)
(9.15433 5.50433 -2.81214e-15)
(9.71851 3.75577 -1.11537e-17)
(10.5022 2.19693 3.55401e-17)
(11.4407 0.868544 -3.50141e-16)
(12.471 -0.21632 -5.13728e-16)
(13.5452 -1.07517 -1.03629e-15)
(14.6253 -1.73501 1.26899e-15)
(15.684 -2.22165 5.40886e-16)
(16.7052 -2.56473 -1.13598e-16)
(17.6806 -2.79058 2.87752e-16)
(18.6082 -2.92145 -5.25891e-16)
(19.4922 -2.97399 3.54805e-16)
(20.3393 -2.95803 -3.43154e-16)
(21.1556 -2.87698 3.86279e-16)
(21.9449 -2.72764 3.54809e-16)
(22.7052 -2.50189 -6.26408e-17)
(23.4216 -2.18892 -5.29093e-16)
(24.0639 -1.79482 -1.31487e-16)
(24.6086 -1.35144 -4.53578e-17)
(25.0564 -0.884028 1.09784e-16)
(25.4161 -0.405348 1.21354e-18)
(25.6916 0.0752292 -3.11551e-18)
(25.8851 0.547583 1.95167e-17)
(26 1.0035 8.59201e-18)
(26.0419 1.44299 -3.93779e-18)
(26.0147 1.86612 5.63107e-18)
(25.9218 2.26937 6.90824e-18)
(25.7576 2.6497 3.31957e-17)
(25.5242 3.00274 -1.74909e-16)
(25.1357 3.32902 -8.60459e-16)
(24.6771 3.54902 2.8519e-15)
(23.3014 3.66104 -3.12208e-15)
(13.9267 17.5917 1.59567e-17)
(14.8866 18.6088 -2.81717e-17)
(16.0396 19.6253 5.5559e-18)
(17.3538 20.5825 4.95926e-18)
(18.7905 21.4074 -7.22707e-17)
(20.3794 22.1004 -8.80727e-17)
(22.0803 22.6232 -2.73514e-17)
(23.8553 22.9437 -4.37131e-16)
(25.6838 23.0488 -3.89773e-17)
(27.5275 22.9272 2.02767e-16)
(29.3511 22.5746 -3.45968e-16)
(31.125 21.9944 4.24866e-16)
(32.8157 21.1968 1.4503e-15)
(34.3952 20.1966 7.5518e-16)
(35.8391 19.0125 -2.99581e-15)
(37.1279 17.6657 2.00448e-15)
(38.2344 16.1964 6.39941e-16)
(39.1311 14.6553 -1.34229e-15)
(39.8079 13.0823 5.86731e-16)
(40.2722 11.5068 1.44959e-16)
(40.5417 9.94904 -5.46238e-16)
(40.6417 8.40652 2.8715e-15)
(40.5816 6.84792 1.30936e-16)
(40.3343 5.25429 2.35832e-15)
(39.8532 3.68846 -5.06624e-16)
(39.1401 2.26991 2.25456e-16)
(38.2853 1.07368 7.25902e-17)
(37.4041 0.0775129 -2.38015e-17)
(36.5566 -0.784195 -1.27602e-15)
(35.7524 -1.54791 -1.0362e-15)
(35.0013 -2.22195 1.14668e-16)
(34.3245 -2.8104 3.6827e-15)
(33.7076 -3.3177 4.62493e-15)
(33.0172 -3.73749 2.34725e-15)
(31.9167 -4.03426 -2.57528e-15)
(30.0277 -4.13077 -3.40884e-15)
(27.0863 -3.96964 -4.23889e-15)
(23.5158 -3.38273 -3.57013e-17)
(17.5877 -2.71579 1.02117e-15)
(13.107 16.5371 -3.71979e-17)
(12.3658 15.4123 -2.64405e-17)
(11.6863 14.081 8.90679e-17)
(11.0782 12.5764 -2.31484e-16)
(10.644 10.9597 -5.55114e-16)
(10.3998 9.24907 1.10167e-15)
(10.3732 7.50029 -9.85792e-16)
(10.5651 5.80009 -8.66024e-16)
(10.9701 4.21072 -9.55904e-16)
(11.5678 2.77122 -9.56736e-16)
(12.3122 1.51456 1.47025e-15)
(13.1562 0.457828 -7.14317e-16)
(14.0634 -0.407403 7.96163e-16)
(15.0016 -1.09773 1.52567e-16)
(15.945 -1.62894 -2.39961e-16)
(16.8762 -2.02232 -6.69019e-16)
(17.7842 -2.29779 -5.28997e-16)
(18.6627 -2.47364 2.909e-16)
(19.5108 -2.56454 -1.29498e-16)
(20.331 -2.58038 -3.94684e-16)
(21.1259 -2.52571 -3.48827e-16)
(21.8966 -2.39965 -2.48028e-16)
(22.6397 -2.19656 3.10336e-16)
(23.3417 -1.90896 -1.02686e-16)
(23.9761 -1.54126 -2.94845e-16)
(24.5208 -1.1188 3.28825e-16)
(24.973 -0.664952 2.20526e-17)
(25.3387 -0.192137 2.1807e-18)
(25.6213 0.290654 4.2715e-18)
(25.8222 0.772908 -2.63201e-17)
(25.9447 1.24529 -4.03336e-18)
(25.9938 1.69806 1.21816e-17)
(25.9732 2.12131 -5.33102e-18)
(25.8861 2.509 -2.1255e-17)
(25.7266 2.85954 8.904e-17)
(25.4952 3.16967 6.63913e-16)
(25.1127 3.44509 -2.52936e-15)
(24.6513 3.59202 -3.30237e-15)
(23.4323 3.62885 1.09392e-15)
(15.126 16.5487 -1.16274e-17)
(15.9878 17.462 -1.86919e-18)
(17.0228 18.3823 6.67217e-18)
(18.1971 19.2552 -1.86415e-17)
(19.4723 20.0152 1.12623e-16)
(20.8834 20.6687 -4.39012e-17)
(22.3938 21.1826 -8.03825e-17)
(23.9714 21.5275 1.85442e-16)
(25.6037 21.6923 2.47812e-16)
(27.2582 21.6653 -2.20573e-16)
(28.9064 21.4394 9.56536e-16)
(30.5241 21.0143 -5.01748e-16)
(32.081 20.3949 -1.36e-15)
(33.5502 19.5907 -2.40323e-15)
(34.908 18.6157 3.53195e-15)
(36.1302 17.4894 -1.60154e-15)
(37.1972 16.2325 -2.14396e-15)
(38.1009 14.8546 -1.32561e-15)
(38.8327 13.3785 -9.8281e-16)
(39.3887 11.8369 -1.41186e-16)
(39.7731 10.2616 -4.84039e-16)
(39.9941 8.67747 -3.3203e-15)
(40.0491 7.08568 1.34627e-15)
(39.9014 5.48703 -3.70712e-15)
(39.5021 3.93393 2.97396e-16)
(38.8531 2.52207 3.1957e-16)
(38.0325 1.31651 -8.14517e-17)
(37.1403 0.303371 2.69817e-16)
(36.2275 -0.572792 8.39611e-16)
(35.2965 -1.34512 1.56477e-16)
(34.3478 -2.02015 1.09727e-16)
(33.4074 -2.60129 -3.16474e-15)
(32.5179 -3.09386 5.20009e-15)
(31.7343 -3.50195 1.77817e-15)
(31.0431 -3.82243 3.24467e-15)
(30.25 -4.01961 6.90889e-15)
(28.613 -4.00915 1.10102e-15)
(25.8273 -3.5115 -6.537e-17)
(20.2005 -2.92697 6.55743e-16)
(14.3842 15.6039 -1.28994e-19)
(13.7103 14.6026 1.01007e-16)
(13.0802 13.4153 -1.04691e-16)
(12.5035 12.0724 5.51497e-16)
(12.0724 10.6324 -2.6568e-16)
(11.7992 9.105 1.1745e-16)
(11.7087 7.53178 1.17133e-15)
(11.8083 5.99136 8.67974e-16)
(12.095 4.54396 3.71306e-16)
(12.5513 3.21762 -9.53253e-16)
(13.1432 2.03938 -4.59992e-16)
(13.8348 1.02661 7.47802e-16)
(14.5985 0.17457 8.08989e-17)
(15.4083 -0.527167 -3.10977e-17)
(16.2414 -1.08797 -5.43314e-16)
(17.0817 -1.52285 4.44803e-16)
(17.9171 -1.84619 9.94294e-16)
(18.7389 -2.07166 -5.5912e-16)
(19.543 -2.21084 -6.36308e-17)
(20.3284 -2.27222 -5.74027e-16)
(21.0949 -2.25989 -2.90156e-16)
(21.8413 -2.17375 3.04523e-16)
(22.5631 -2.00987 -7.2687e-16)
(23.2474 -1.76357 2.51316e-16)
(23.8711 -1.43908 3.35619e-16)
(24.4131 -1.05727 -1.13909e-16)
(24.8679 -0.640092 -9.69822e-17)
(25.2389 -0.200992 -1.88846e-17)
(25.5288 0.249872 -1.36533e-18)
(25.7385 0.7013 1.91766e-18)
(25.8707 1.14251 -3.97866e-17)
(25.9299 1.56551 6.92531e-17)
(25.9195 1.96678 -7.0331e-18)
(25.8417 2.34277 6.28737e-17)
(25.6907 2.692 7.57983e-17)
(25.4658 3.01 -6.03761e-16)
(25.0933 3.29801 1.83118e-15)
(24.6336 3.46062 1.9109e-16)
(23.5071 3.50383 5.68767e-15)
(16.1811 15.63 -8.41391e-20)
(16.9712 16.4539 2.65041e-18)
(17.9185 17.2878 3.24427e-18)
(18.9894 18.0804 -2.51922e-20)
(20.1454 18.7725 -2.47359e-17)
(21.4244 19.3744 -2.15856e-16)
(22.7932 19.8551 1.41776e-17)
(24.2239 20.1887 2.33104e-16)
(25.7097 20.365 -5.68741e-16)
(27.2238 20.3715 -3.21243e-16)
(28.7429 20.1993 6.41865e-17)
(30.2478 19.8447 7.71958e-16)
(31.7122 19.3075 2.19738e-15)
(33.112 18.5914 3.13009e-15)
(34.4237 17.7049 8.84888e-17)
(35.6236 16.6607 -1.87169e-16)
(36.6917 15.4745 2.73809e-15)
(37.6061 14.1755 2.37461e-15)
(38.3494 12.7986 -1.23531e-17)
(38.9156 11.3728 -2.36038e-15)
(39.3089 9.92149 8.03244e-16)
(39.5394 8.45714 9.71273e-16)
(39.6105 6.97782 -1.75638e-16)
(39.4994 5.48366 1.4421e-15)
(39.1652 4.01658 -8.03174e-16)
(38.6005 2.65877 -3.80363e-16)
(37.8631 1.47441 -1.27434e-17)
(37.0369 0.463084 -4.18377e-16)
(36.168 -0.416966 -1.34401e-16)
(35.2568 -1.19365 -2.57439e-15)
(34.2933 -1.8716 1.12646e-15)
(33.28 -2.45123 -2.59921e-15)
(32.2291 -2.93483 -5.86789e-15)
(31.1764 -3.32377 3.0985e-16)
(30.1753 -3.61553 -1.90171e-15)
(29.3625 -3.79843 -7.48914e-15)
(28.511 -3.85057 1.75623e-15)
(27.1015 -3.48944 2.31518e-16)
(22.46 -3.0642 1.84046e-15)
(15.4962 14.7793 -1.63317e-17)
(14.8723 13.8813 -5.80608e-17)
(14.2801 12.8145 1.0608e-16)
(13.7295 11.6058 -4.32548e-16)
(13.3039 10.3121 -3.24755e-18)
(13.0123 8.9363 -1.87338e-16)
(12.8778 7.51064 -1.97368e-15)
(12.9103 6.10863 7.972e-16)
(13.1079 4.78661 -1.15075e-16)
(13.4558 3.5643 1.03493e-15)
(13.9274 2.46463 -5.72731e-16)
(14.4946 1.50388 5.34909e-16)
(15.1365 0.678682 -7.77633e-16)
(15.8325 -0.0178744 -5.96438e-16)
(16.5639 -0.590783 3.09768e-16)
(17.3167 -1.05033 3.35084e-16)
(18.0793 -1.40596 3.36381e-16)
(18.842 -1.66703 1.97802e-16)
(19.5989 -1.84203 -2.32212e-16)
(20.3465 -1.93774 9.28455e-16)
(21.0821 -1.95757 -2.70922e-16)
(21.8026 -1.9019 4.35134e-16)
(22.5022 -1.76801 4.53146e-16)
(23.1686 -1.55317 -1.63621e-18)
(23.7808 -1.26129 -8.82284e-17)
(24.3185 -0.909134 -6.98848e-17)
(24.7744 -0.516716 1.51975e-17)
(25.1495 -0.0976459 1.99065e-17)
(25.4453 0.337752 6.49652e-18)
(25.6624 0.77852 1.16107e-17)
(25.8026 1.21416 2.72314e-17)
(25.8696 1.63647 -1.3357e-16)
(25.8665 2.03745 -6.92457e-17)
(25.7955 2.41089 1.23341e-17)
(25.6507 2.75341 -1.52757e-16)
(25.4316 3.05764 6.69019e-16)
(25.0689 3.32356 -6.18613e-16)
(24.6199 3.44653 2.69398e-16)
(23.5732 3.43477 -3.06734e-16)
(17.092 14.8184 -1.39057e-17)
(17.8198 15.5665 -2.59233e-17)
(18.6912 16.3266 1.07595e-17)
(19.6724 17.0508 7.96593e-18)
(20.7254 17.6846 3.54133e-17)
(21.8889 18.2414 1.0026e-16)
(23.1323 18.6935 2.39845e-16)
(24.4306 19.0174 2.6156e-16)
(25.781 19.2055 -2.56595e-16)
(27.1605 19.2458 -6.08931e-17)
(28.5503 19.1294 -1.19091e-16)
(29.9356 18.8512 -1.95502e-15)
(31.2938 18.4088 5.00941e-16)
(32.6034 17.8031 -2.03103e-15)
(33.8429 17.0389 -5.4346e-16)
(34.9894 16.1254 6.65088e-16)
(36.0213 15.0775 -1.84187e-15)
(36.9204 13.9115 -1.00427e-15)
(37.6728 12.6452 -4.81742e-16)
(38.2687 11.3017 1.56115e-15)
(38.7051 9.90586 1.18432e-16)
(38.9826 8.47911 7.15984e-16)
(39.0986 7.03327 1.35564e-15)
(39.035 5.57994 -2.7567e-16)
(38.7616 4.15656 -8.16435e-18)
(38.2722 2.82939 1.17784e-15)
(37.6129 1.65476 2.1801e-16)
(36.8563 0.639243 -4.35623e-17)
(36.0475 -0.248919 2.89498e-16)
(35.1915 -1.03419 -2.60717e-16)
(34.2796 -1.72118 -2.97177e-15)
(33.3081 -2.30932 5.58481e-15)
(32.2726 -2.79895 -5.90367e-15)
(31.1718 -3.18751 -6.15486e-15)
(30.0012 -3.46797 5.72623e-15)
(28.8605 -3.62212 2.75755e-15)
(27.8176 -3.64098 -1.48856e-15)
(27.2403 -3.33317 -7.5031e-16)
(23.9945 -3.08614 -1.38451e-15)
(16.4572 14.0468 8.5883e-18)
(15.8772 13.2353 1.2248e-16)
(15.3195 12.2692 -4.23379e-17)
(14.7938 11.1733 -4.67412e-16)
(14.377 10.0023 -2.8457e-16)
(14.0746 8.75406 -6.76245e-16)
(13.9097 7.45413 -1.69555e-16)
(13.893 6.17256 8.67457e-16)
(14.0229 4.9611 6.57967e-16)
(14.2869 3.83383 -1.8951e-16)
(14.6633 2.81015 1.5873e-15)
(15.1292 1.90494 -3.97367e-17)
(15.6685 1.11492 1.16167e-15)
(16.2653 0.434899 4.70268e-16)
(16.9044 -0.137939 -4.2434e-16)
(17.5746 -0.610464 3.84451e-17)
(18.2654 -0.988602 -8.82588e-16)
(18.9676 -1.27826 5.82573e-17)
(19.6743 -1.48502 5.13055e-16)
(20.3805 -1.61358 2.18538e-17)
(21.0816 -1.66634 3.50091e-16)
(21.773 -1.64352 -4.41211e-16)
(22.4481 -1.54306 -2.83694e-16)
(23.0946 -1.36344 -5.06031e-16)
(23.6931 -1.10819 -3.14196e-16)
(24.2245 -0.791128 -2.01568e-17)
(24.6796 -0.430247 -8.77763e-17)
(25.0576 -0.0392443 -1.65339e-18)
(25.3587 0.371188 -6.41263e-18)
(25.5829 0.789912 -1.57503e-18)
(25.7315 1.20604 3.22467e-17)
(25.8074 1.61032 -1.6927e-17)
(25.8132 1.99637 1.372e-16)
(25.7508 2.35839 -3.07085e-16)
(25.6142 2.69278 3.53078e-17)
(25.4025 2.99155 -2.03483e-17)
(25.0509 3.25235 3.2306e-16)
(24.6141 3.37065 3.29529e-16)
(23.6447 3.34526 -4.17617e-16)
(17.8937 14.0911 -4.02599e-18)
(18.5696 14.7732 -5.3299e-19)
(19.3777 15.468 1.8433e-17)
(20.2844 16.1307 -1.85448e-17)
(21.2522 16.7108 -1.01324e-17)
(22.32 17.2236 -3.7851e-17)
(23.459 17.6437 -3.68673e-16)
(24.6465 17.9507 6.43793e-17)
(25.8825 18.1381 -1.83956e-16)
(27.1472 18.1949 4.30692e-16)
(28.4256 18.1123 -4.37959e-16)
(29.7064 17.8847 1.2419e-15)
(30.9705 17.5077 -8.76456e-17)
(32.1998 16.9792 -7.4427e-17)
(33.3748 16.3008 -3.71658e-16)
(34.474 15.478 -1.7404e-16)
(35.4767 14.5204 6.47275e-16)
(36.3642 13.4417 1.31187e-15)
(37.1183 12.2637 1.34599e-15)
(37.7258 11.0099 8.89739e-16)
(38.1806 9.70195 7.01023e-16)
(38.4808 8.35762 1.44252e-16)
(38.6224 6.98874 -9.14291e-16)
(38.5909 5.60847 -2.11057e-17)
(38.3629 4.24939 5.91358e-16)
(37.9326 2.96725 -8.82389e-16)
(37.3359 1.81418 -1.8921e-16)
(36.6345 0.803856 -1.52097e-16)
(35.8721 -0.0856181 -2.95498e-16)
(35.0587 -0.874621 2.57485e-15)
(34.1907 -1.56728 2.43443e-15)
(33.267 -2.16265 -1.32602e-15)
(32.2842 -2.66029 2.40786e-15)
(31.2346 -3.05639 -8.72792e-16)
(30.0871 -3.34107 -2.96976e-15)
(28.861 -3.48976 -1.28681e-15)
(27.4791 -3.48136 1.4119e-15)
(26.8403 -3.13432 2.41855e-16)
(24.7094 -2.99191 -1.67678e-15)
(17.3011 13.3879 5.85697e-17)
(16.7584 12.6503 1.7777e-16)
(16.2305 11.7706 -3.8032e-16)
(15.7277 10.7712 -7.7832e-16)
(15.3212 9.70483 -7.70843e-16)
(15.0135 8.56533 2.17223e-15)
(14.8273 7.37398 1.16279e-15)
(14.7743 6.19797 4.17616e-16)
(14.8523 5.08419 -1.73147e-15)
(15.0508 4.04297 -9.84635e-16)
(15.3512 3.09109 -1.78507e-15)
(15.7346 2.24191 -1.64129e-15)
(16.1881 1.49157 -3.74852e-16)
(16.6991 0.835523 2.54169e-16)
(17.2558 0.272298 -2.68286e-16)
(17.8494 -0.203116 -3.42984e-16)
(18.4713 -0.593961 3.70833e-16)
(19.1133 -0.903544 -4.94484e-16)
(19.7685 -1.13496 5.4237e-17)
(20.4311 -1.29078 1.94442e-16)
(21.0954 -1.37203 3.94609e-16)
(21.7556 -1.3785 -1.78728e-16)
(22.4043 -1.30838 -1.00075e-16)
(23.0296 -1.16066 -8.19009e-17)
(23.6131 -0.938585 2.49202e-16)
(24.1363 -0.653456 -1.22823e-17)
(24.5889 -0.321103 5.5106e-17)
(24.9684 0.0451327 -7.82623e-18)
(25.2737 0.434414 -4.21906e-18)
(25.5041 0.835716 -1.34083e-17)
(25.6601 1.23805 -3.69247e-17)
(25.7441 1.63213 -1.09993e-16)
(25.758 2.01012 1.97084e-17)
(25.7034 2.36483 3.07481e-16)
(25.5744 2.69147 3.59931e-16)
(25.3701 2.98013 2.61485e-16)
(25.0304 3.22632 2.11291e-15)
(24.6075 3.32285 -2.56796e-15)
(23.7158 3.2676 2.00383e-15)
(18.6019 13.4343 1.56263e-17)
(19.2327 14.0588 1.40834e-17)
(19.986 14.6961 -3.90042e-18)
(20.8283 15.3041 1.8232e-17)
(21.7225 15.8362 -9.96953e-17)
(22.7075 16.3086 1.14623e-17)
(23.7557 16.6983 1.34218e-16)
(24.8464 16.9874 2.05393e-16)
(25.9812 17.1705 1.49205e-16)
(27.1429 17.238 -5.44209e-16)
(28.3194 17.1822 9.31871e-17)
(29.5024 16.9968 -4.15461e-16)
(30.6758 16.677 -1.18689e-16)
(31.8242 16.2193 -3.57418e-16)
(32.9306 15.6231 2.72897e-16)
(33.9754 14.891 4.69105e-16)
(34.939 14.0298 -1.07514e-16)
(35.8025 13.0509 -1.43304e-15)
(36.5489 11.9683 -7.87208e-16)
(37.1638 10.8001 -8.6855e-16)
(37.6374 9.56607 -3.23444e-16)
(37.9638 8.28548 -6.80551e-16)
(38.1359 6.975 -1.1802e-16)
(38.1405 5.6523 1.08223e-15)
(37.9593 4.34717 2.51981e-17)
(37.5863 3.10558 5.5343e-16)
(37.0493 1.97381 1.05278e-16)
(36.4001 0.969752 5.01917e-16)
(35.6794 0.0798253 5.17453e-16)
(34.9007 -0.712037 -2.9558e-15)
(34.0644 -1.40919 -1.00169e-15)
(33.1725 -2.01017 -4.86414e-15)
(32.2256 -2.51407 5.1037e-15)
(31.2218 -2.91689 3.60267e-16)
(30.1334 -3.20868 2.39384e-15)
(28.9713 -3.36174 -7.595e-16)
(27.5273 -3.35901 -1.86259e-15)
(26.5195 -2.96201 1.02288e-16)
(24.8895 -2.82142 7.5017e-16)
(18.0462 12.7907 6.7029e-17)
(17.5363 12.1169 -2.01084e-16)
(17.0354 11.3121 -7.60509e-18)
(16.5537 10.3962 4.4056e-16)
(16.1583 9.42023 -8.76415e-16)
(15.8494 8.37458 -1.40182e-15)
(15.6486 7.27826 -9.12316e-16)
(15.5686 6.19518 1.09956e-15)
(15.6067 5.16811 1.53286e-15)
(15.7536 4.2047 2.42979e-16)
(15.9933 3.31977 1.0655e-15)
(16.3093 2.52536 1.00162e-15)
(16.6909 1.81682 -6.01249e-16)
(17.1283 1.18954 4.0276e-16)
(17.6121 0.642606 -1.04193e-16)
(18.1359 0.17219 6.91636e-16)
(18.6929 -0.22362 -4.24357e-16)
(19.2762 -0.54605 -6.91998e-16)
(19.8797 -0.796131 -2.40622e-16)
(20.4972 -0.97472 -5.78914e-16)
(21.1227 -1.08157 -5.1106e-16)
(21.7497 -1.11569 -4.5193e-16)
(22.3703 -1.07505 8.40751e-16)
(22.9727 -0.958793 5.19919e-16)
(23.5395 -0.769749 8.38056e-17)
(24.0526 -0.517074 2.83305e-16)
(24.501 -0.214629 4.79241e-17)
(24.8805 0.124799 1.29553e-17)
(25.189 0.490324 -1.42029e-18)
(25.4249 0.870956 -2.48228e-18)
(25.5881 1.25567 2.46026e-17)
(25.6801 1.63465 -3.66594e-18)
(25.7024 2.00006 7.06662e-17)
(25.6561 2.34447 1.53429e-16)
(25.5354 2.66244 -6.54172e-16)
(25.339 2.9429 2.71229e-17)
(25.012 3.17916 -2.46672e-15)
(24.6034 3.26444 4.19395e-15)
(23.7858 3.19128 2.17691e-15)
(19.2324 12.8367 -1.08268e-17)
(19.8238 13.4103 1.20228e-17)
(20.5292 13.9963 -1.90869e-17)
(21.3156 14.5551 -1.78536e-17)
(22.1463 15.0434 1.25253e-17)
(23.0596 15.4781 3.239e-17)
(24.0292 15.8384 -1.42083e-16)
(25.0357 16.108 -5.85423e-17)
(26.0821 16.2829 4.40911e-16)
(27.1529 16.3548 2.35756e-16)
(28.2385 16.3167 3.45864e-16)
(29.3331 16.1626 -1.82814e-16)
(30.4229 15.8874 -7.2188e-16)
(31.4954 15.4863 1.57358e-15)
(32.536 14.9572 -6.48208e-16)
(33.5269 14.3004 -6.77328e-16)
(34.4502 13.52 -4.44162e-16)
(35.2876 12.6239 1.29945e-15)
(36.0219 11.6238 1.55939e-15)
(36.6371 10.5365 4.33e-16)
(37.1208 9.37994 -1.81423e-15)
(37.4648 8.17208 4.03273e-16)
(37.6607 6.92987 -8.19248e-17)
(37.6966 5.67209 3.34777e-16)
(37.5574 4.42577 -1.5491e-16)
(37.2375 3.22934 1.15633e-16)
(36.7576 2.124 4.6245e-17)
(36.1599 1.13095 -2.69161e-16)
(35.4815 0.24411 4.4882e-16)
(34.7373 -0.548201 1.91512e-15)
(33.9304 -1.24806 4.62681e-17)
(33.0642 -1.85315 5.01023e-15)
(32.141 -2.36179 2.12932e-15)
(31.1634 -2.76936 -2.36911e-15)
(30.1113 -3.06668 -3.31327e-15)
(29.0094 -3.22284 -1.18245e-15)
(27.6674 -3.23543 -1.22065e-15)
(26.4492 -2.82405 -8.69876e-17)
(24.9072 -2.62524 1.60443e-15)
(18.709 12.2456 -4.74168e-17)
(18.2281 11.6277 -2.57537e-17)
(17.7516 10.8883 1.74117e-16)
(17.2898 10.0456 -4.62e-17)
(16.9057 9.14847 5.41006e-16)
(16.5984 8.18499 9.23382e-16)
(16.3881 7.1725 7.09304e-17)
(16.2878 6.17179 6.52126e-16)
(16.2951 5.22196 -1.9288e-15)
(16.4012 4.32909 -1.29103e-15)
(16.592 3.50616 8.64179e-16)
(16.8527 2.76404 1.26295e-15)
(17.1743 2.0975 -6.53873e-16)
(17.5488 1.50176 -9.162e-17)
(17.9687 0.975892 -5.2975e-17)
(18.4294 0.516322 -1.73187e-16)
(18.9262 0.122061 6.36755e-16)
(19.4533 -0.206834 8.75198e-16)
(20.0057 -0.469905 8.18413e-17)
(20.5778 -0.666486 6.24468e-16)
(21.1633 -0.795086 2.15942e-16)
(21.7555 -0.853877 3.3731e-16)
(22.3466 -0.840469 -5.25729e-16)
(22.9248 -0.753737 -4.34929e-17)
(23.4732 -0.595856 -2.6716e-16)
(23.9745 -0.374263 -3.05661e-16)
(24.417 -0.100864 -1.1482e-16)
(24.7951 0.212353 2.83427e-17)
(25.1055 0.554636 9.41474e-18)
(25.346 0.915206 6.14697e-18)
(25.5156 1.28308 1.27249e-18)
(25.6151 1.64824 -3.65651e-17)
(25.6455 2.00233 1.05063e-17)
(25.6074 2.33703 -2.56222e-16)
(25.495 2.64594 1.71438e-17)
(25.3071 2.91656 -5.99602e-16)
(24.9937 3.14018 1.60291e-15)
(24.6008 3.21113 -2.35908e-15)
(23.854 3.11932 -4.08621e-15)
(19.7963 12.2896 1.02471e-17)
(20.3529 12.8178 -1.83012e-17)
(21.0158 13.3579 -5.35798e-17)
(21.7528 13.8723 9.37804e-18)
(22.5277 14.321 -3.23851e-18)
(23.3781 14.7209 -9.54698e-17)
(24.2786 15.0532 1.93471e-16)
(25.2108 15.3033 -3.20928e-16)
(26.1788 15.4683 1.02747e-15)
(27.1687 15.541 4.27983e-16)
(28.1724 15.5152 -8.81956e-16)
(29.186 15.3854 -6.09152e-17)
(30.1981 15.1466 1.12504e-15)