/*--------------------------------*- C++ -*----------------------------------*\
| =========                 |                                                 |
| \\      /  F ield         | OpenFOAM: The Open Source CFD Toolbox           |
|  \\    /   O peration     | Version:  2306                                  |
|   \\  /    A nd           | Website:  www.openfoam.com                      |
|    \\/     M anipulation  |                                                 |
\*---------------------------------------------------------------------------*/
FoamFile
{
    version     2.0;
    format      ascii;
    arch        "LSB;label=32;scalar=64";
    class       volScalarField;
    location    "0.004";
    object      rDeltaT;
}
// * * * * * * * * * * * * * * * * * * * * * * * * * * * * * * * * * * * * * //

dimensions      [0 0 -1 0 0 0 0];

internalField   nonuniform List<scalar> 
20000
(
19191.843
19575.68
19191.843
18815.532
18446.6
18084.902
17730.296
17382.643
17041.807
16707.654
16380.053
16051.461
15946.442
15819.906
15665.068
15481.91
15266.289
15016.337
14729.269
14402.67
14033.878
13758.704
13681.727
13620.641
13556.815
13492.331
13430.289
13373.956
13325.864
13287.347
13258.385
13237.5
13223.163
13212.36
13202.679
13190.968
13172.849
13154.915
13141.368
13133.028
13135.359
13154.351
13164.329
13170.187
13171.978
13173.658
13176.831
13181.543
13187.768
13195.649
19575.68
19967.193
19575.68
19191.843
18815.532
18446.6
18084.902
17730.296
17382.643
17041.807
16707.654
16368.375
16257.963
16125.216
15963.031
15771.387
15545.736
15284.256
14983.899
14642.427
14257.266
13977.712
13703.639
13353.57
13290.996
13227.775
13166.95
13111.722
13064.573
13026.811
12998.417
12977.941
12963.885
12953.294
12943.803
12932.322
12914.558
12896.975
12883.694
12875.517
12877.803
12896.422
12906.205
12911.948
12913.704
12915.351
12918.462
12923.081
12929.184
12936.91
19967.193
20366.537
19967.193
19575.68
19191.843
18815.532
18446.6
18084.902
17730.296
17382.643
17041.807
16690.65
16574.617
16435.2
16265.351
16064.655
15828.584
15554.995
15240.879
14883.933
14481.833
14197.875
13919.486
13646.555
13378.975
13116.642
12908.775
12854.629
12808.404
12771.384
12743.546
12723.471
12709.691
12699.308
12690.003
12678.747
12661.331
12644.094
12631.073
12623.056
12625.297
12643.551
12653.142
12658.772
12660.494
12662.109
12665.159
12669.687
12675.671
12683.245
20366.537
20773.868
20366.537
19967.193
19575.68
19191.843
18815.532
18446.6
18084.902
17730.296
17382.643
17016.587
16894.758
16748.413
16570.604
16360.517
16113.65
15827.494
15499.121
15126.17
14706.559
14418.195
14135.485
13858.319
13586.587
13320.183
13059.003
12802.945
12557.259
12520.964
12493.672
12473.992
12460.482
12450.302
12441.179
12430.144
12413.07
12396.17
12383.405
12375.545
12377.742
12395.639
12405.042
12410.561
12412.249
12413.832
12416.822
12421.262
12427.128
12434.554
20773.868
21189.345
20773.868
20366.537
19967.193
19575.68
19191.843
18815.532
18446.6
18084.902
17730.296
17346.126
17218.379
17064.904
16878.872
16658.999
16400.9
16101.735
15758.598
15369.066
14931.326
14638.555
14351.524
14070.122
13794.237
13523.762
13258.59
12998.618
12743.743
12493.866
12248.698
12229.404
12216.159
12206.179
12197.234
12186.415
12169.676
12153.108
12140.593
12132.887
12135.041
12152.587
12161.805
12167.217
12168.871
12170.424
12173.355
12177.708
12183.459
12190.74
21189.345
21613.132
21189.345
20773.868
20366.537
19967.193
19575.68
19191.843
18815.532
18446.6
18084.902
17680.611
17546.607
17385.51
17190.755
16960.557
16690.64
16377.867
16019.34
15612.584
15156.064
14858.887
14567.536
14281.898
14001.861
13727.314
13458.151
13194.266
12935.555
12681.917
12433.252
12189.462
11976.626
11966.842
11958.073
11947.466
11931.055
11914.812
11902.542
11894.988
11897.099
11914.301
11923.339
11928.644
11930.266
11931.788
11934.662
11938.929
11944.568
11951.705
21613.132
22045.395
21613.132
21189.345
20773.868
20366.537
19967.193
19575.68
19191.843
18815.532
18446.6
18019.465
17878.81
17709.641
17505.72
17264.72
16982.485
16655.484
16280.965
15856.351
15545.442
15240.629
14941.793
14648.817
14361.585
14079.985
13803.907
13533.242
13267.885
13007.73
12752.677
12502.624
12257.475
12017.132
11723.601
11713.202
11697.113
11681.188
11669.159
11661.753
11663.823
11680.687
11689.548
11694.749
11696.339
11697.831
11700.649
11704.833
11710.361
11717.358
22045.395
22486.303
22045.395
21613.132
21189.345
20773.868
20366.537
19967.193
19575.68
19191.843
18815.532
18362.28
18214.7
18037.086
17823.574
17571.221
17276.115
16934.332
16543.176
16100.07
15784.382
15474.885
15171.455
14873.976
14582.329
14296.401
14016.08
13741.255
13471.818
13207.665
12948.691
12694.795
12445.878
12201.841
11962.589
11728.029
11467.758
11452.145
11440.352
11433.091
11435.121
11451.654
11460.341
11465.44
11466.999
11468.462
11471.224
11475.326
11480.746
11487.606
22486.303
22936.029
22486.303
22045.395
21613.132
21189.345
20773.868
20366.537
19967.193
19575.68
19191.843
18708.927
18554.092
18367.615
18144.073
17879.863
17571.282
17214.084
16805.665
16343.393
16022.934
15708.759
15400.744
15098.769
14802.714
14512.465
14227.907
13948.928
13675.42
13407.275
13144.387
12886.654
12633.974
12386.249
12143.382
11905.276
11671.839
11442.98
11216.031
11208.913
11210.903
11227.112
11235.628
11240.628
11242.156
11243.59
11246.298
11250.32
11255.633
11262.359
22936.029
23394.749
22936.029
22486.303
22045.395
21613.132
21189.345
20773.868
20366.537
19967.193
19575.68
19060.207
18897.69
18701.765
18467.589
18190.888
17868.182
17494.852
17068.407
16586.208
16260.988
15942.145
15629.554
15323.092
15022.639
14728.078
14439.292
14156.169
13878.597
13606.467
13339.674
13078.112
12821.678
12570.273
12323.797
12082.154
11845.249
11612.989
11385.283
11162.042
10991.081
11006.972
11015.322
11020.223
11021.722
11023.128
11025.783
11029.725
11034.934
11041.528
23394.749
23862.644
23394.749
22936.029
22486.303
22045.395
21613.132
21189.345
20773.868
20366.537
19967.193
19416.104
19245.36
19039.434
18794.032
18504.13
18166.534
17776.289
17331.051
16828.182
16498.218
16174.724
15857.572
15546.639
15241.803
14942.944
14649.945
14362.692
14081.07
13804.971
13534.285
13268.907
13008.732
12753.659
12503.587
12258.419
12018.058
11782.41
11551.382
11324.884
11102.828
10937.899
10799.335
10804.14
10805.61
10806.988
10809.591
10813.456
10818.563
10825.028
23862.644
24339.897
23862.644
23394.749
22936.029
22486.303
22045.395
21613.132
21189.345
20773.868
20366.537
19774.689
19595.57
19379.238
19122.144
18818.512
18465.466
18057.673
17592.924
17247.964
16909.769
16578.205
16253.142
15934.453
15622.013
15315.699
15015.391
14720.972
14432.325
14149.338
13871.9
13599.902
13333.238
13071.801
12815.492
12564.207
12317.85
12076.324
11839.533
11607.386
11379.79
11156.657
10937.899
10723.43
10593.735
10595.086
10597.638
10601.428
10606.434
10612.772
24339.897
24826.695
24339.897
23862.644
23394.749
22936.029
22486.303
22045.395
21613.132
21189.345
20773.868
20366.537
19950.479
19722.928
19453.354
19135.143
18765.702
18339.427
17854.263
17504.179
17160.96
16824.471
16494.579
16171.156
15854.074
15543.21
15238.441
14939.648
14646.714
14359.524
14077.964
13801.926
13531.3
13265.98
13005.863
12750.846
12500.829
12255.715
12015.407
11779.811
11548.834
11322.386
11100.379
10882.724
10669.338
10387.339
10389.841
10393.556
10398.465
10404.679
24826.695
25323.229
24826.695
24339.897
23862.644
23394.749
22936.029
22486.303
22045.395
21613.132
21189.345
20773.868
20307.376
20068.281
19785.756
19452.402
19065.952
18620.468
18114.096
17758.917
17410.703
17069.317
16734.624
16406.494
16084.799
15769.41
15460.206
15157.065
14859.868
14568.498
14282.841
14002.785
13728.221
13459.04
13195.137
12936.409
12682.754
12434.072
12190.267
11951.242
11716.904
11487.161
11261.922
11041.1
10824.608
10612.361
10404.276
10189.761
10194.574
10200.666
25323.229
25829.694
25323.229
24826.695
24339.897
23862.644
23394.749
22936.029
22486.303
22045.395
21613.132
21189.345
20666.98
20415.83
20119.743
19770.501
19366.194
18900.654
18372.21
18011.971
17658.795
17312.544
16973.082
16640.277
16313.997
15994.114
15680.504
15373.043
15071.611
14776.089
14486.362
14202.316
13923.839
13650.823
13383.159
13120.745
12863.475
12611.25
12363.971
12121.54
11883.863
11650.846
11422.398
11198.429
10978.852
10763.581
10552.53
10345.618
10142.762
10000.652
25829.694
26346.287
25829.694
25323.229
24826.695
24339.897
23862.644
23394.749
22936.029
22486.303
22045.395
21613.132
21030.459
20766.412
20455.895
20089.858
19666.728
19180.081
18628.54
18263.274
17905.171
17554.089
17209.891
16872.442
16541.61
16217.265
15899.279
15587.529
15281.891
14982.246
14688.476
14400.467
14118.105
13841.279
13569.882
13303.806
13042.947
12787.203
12536.473
12290.66
12049.667
11813.399
11581.763
11354.67
11132.029
10913.754
10699.759
10489.96
10284.274
10082.622
26346.287
26873.213
26346.287
25829.694
25323.229
24826.695
24339.897
23862.644
23394.749
22936.029
22486.303
22045.395
21613.132
21118.206
20792.608
20409.034
19966.248
19457.65
19076.128
18702.086
18335.378
17975.861
17623.393
17277.836
16939.055
16606.917
16281.291
15962.05
15649.069
15342.224
15041.396
14746.467
14457.321
14173.844
13895.925
13623.456
13356.33
13094.441
12837.687
12585.968
12339.184
12097.239
11860.038
11627.489
11399.499
11175.979
10956.842
10742.002
10531.375
10324.877
26873.213
27410.677
26873.213
26346.287
25829.694
25323.229
24826.695
24339.897
23862.644
23394.749
22936.029
22486.303
22045.395
21472.365
21130.727
20728.591
20265.063
19967.193
19575.68
19191.843
18815.532
18446.6
18084.902
17730.296
17382.643
17041.807
16707.654
16380.053
16058.875
15743.996
15435.29
15132.637
14835.919
14545.018
14259.822
13980.218
13706.096
13437.349
13173.871
12915.56
12662.314
12414.033
12170.621
11931.981
11698.021
11468.648
11243.772
11023.306
10807.163
10595.258
27410.677
27958.891
27410.677
26873.213
26346.287
25829.694
25323.229
24826.695
24339.897
23862.644
23394.749
22936.029
22486.303
21827.307
21468.861
21047.333
20773.868
20366.537
19967.193
19575.68
19191.843
18815.532
18446.6
18084.902
17730.296
17382.643
17041.807
16707.654
16380.053
16058.875
15743.996
15435.29
15132.637
14835.919
14545.018
14259.822
13980.218
13706.096
13437.349
13173.871
12915.56
12662.314
12414.033
12170.621
11931.981
11698.021
11468.648
11243.772
11023.306
10807.163
27958.891
28518.069
27958.891
27410.677
26873.213
26346.287
25829.694
25323.229
24826.695
24339.897
23862.644
23394.749
22936.029
22486.303
22045.395
21613.132
21189.345
20773.868
20366.537
19967.193
19575.68
19191.843
18815.532
18446.6
18084.902
17730.296
17382.643
17041.807
16707.654
16380.053
16058.875
15743.996
15435.29
15132.637
14835.919
14545.018
14259.822
13980.218
13706.096
13437.349
13173.871
12915.56
12662.314
12414.033
12170.621
11931.981
11698.021
11468.648
11243.772
11023.306
28518.069
29088.43
28518.069
27958.891
27410.677
26873.213
26346.287
25829.694
25323.229
24826.695
24339.897
23862.644
23394.749
22936.029
22486.303
22045.395
21613.132
21189.345
20773.868
20366.537
19967.193
19575.68
19191.843
18815.532
18446.6
18084.902
17730.296
17382.643
17041.807
16707.654
16380.053
16058.875
15743.996
15435.29
15132.637
14835.919
14545.018
14259.822
13980.218
13706.096
13437.349
13173.871
12915.56
12662.314
12414.033
12170.621
11931.981
11698.021
11468.648
11243.772
29088.43
29670.199
29088.43
28518.069
27958.891
27410.677
26873.213
26346.287
25829.694
25323.229
24826.695
24339.897
23862.644
23394.749
22936.029
22486.303
22045.395
21613.132
21189.345
20773.868
20366.537
19967.193
19575.68
19191.843
18815.532
18446.6
18084.902
17730.296
17382.643
17041.807
16707.654
16380.053
16058.875
15743.996
15435.29
15132.637
14835.919
14545.018
14259.822
13980.218
13706.096
13437.349
13173.871
12915.56
12662.314
12414.033
12170.621
11931.981
11698.021
11468.648
29670.199
30263.603
29670.199
29088.43
28518.069
27958.891
27410.677
26873.213
26346.287
25829.694
25323.229
24826.695
24339.897
23862.644
23394.749
22936.029
22486.303
22045.395
21613.132
21189.345
20773.868
20366.537
19967.193
19575.68
19191.843
18815.532
18446.6
18084.902
17730.296
17382.643
17041.807
16707.654
16380.053
16058.875
15743.996
15435.29
15132.637
14835.919
14545.018
14259.822
13980.218
13706.096
13437.349
13173.871
12915.56
12662.314
12414.033
12170.621
11931.981
11698.021
30263.603
30868.875
30263.603
29670.199
29088.43
28518.069
27958.891
27410.677
26873.213
26346.287
25829.694
25323.229
24826.695
24339.897
23862.644
23394.749
22936.029
22486.303
22045.395
21613.132
21189.345
20773.868
20366.537
19967.193
19575.68
19191.843
18815.532
18446.6
18084.902
17730.296
17382.643
17041.807
16707.654
16380.053
16058.875
15743.996
15435.29
15132.637
14835.919
14545.018
14259.822
13980.218
13706.096
13437.349
13173.871
12915.56
12662.314
12414.033
12170.621
11931.981
30868.875
31486.252
30868.875
30263.603
29670.199
29088.43
28518.069
27958.891
27410.677
26873.213
26346.287
25829.694
25323.229
24826.695
24339.897
23862.644
23394.749
22936.029
22486.303
22045.395
21613.132
21189.345
20773.868
20366.537
19967.193
19575.68
19191.843
18815.532
18446.6
18084.902
17730.296
17382.643
17041.807
16707.654
16380.053
16058.875
15743.996
15435.29
15132.637
14835.919
14545.018
14259.822
13980.218
13706.096
13437.349
13173.871
12915.56
12662.314
12414.033
12170.621
31486.252
32115.977
31486.252
30868.875
30263.603
29670.199
29088.43
28518.069
27958.891
27410.677
26873.213
26346.287
25829.694
25323.229
24826.695
24339.897
23862.644
23394.749
22936.029
22486.303
22045.395
21613.132
21189.345
20773.868
20366.537
19967.193
19575.68
19191.843
18815.532
18446.6
18084.902
17730.296
17382.643
17041.807
16707.654
16380.053
16058.875
15743.996
15435.29
15132.637
14835.919
14545.018
14259.822
13980.218
13706.096
13437.349
13173.871
12915.56
12662.314
12414.033
32115.977
32758.297
32115.977
31486.252
30868.875
30263.603
29670.199
29088.43
28518.069
27958.891
27410.677
26873.213
26346.287
25829.694
25323.229
24826.695
24339.897
23862.644
23394.749
22936.029
22486.303
22045.395
21613.132
21189.345
20773.868
20366.537
19967.193
19575.68
19191.843
18815.532
18446.6
18084.902
17730.296
17382.643
17041.807
16707.654
16380.053
16058.875
15743.996
15435.29
15132.637
14835.919
14545.018
14259.822
13980.218
13706.096
13437.349
13173.871
12915.56
12662.314
32758.297
33413.463
32758.297
32115.977
31486.252
30868.875
30263.603
29670.199
29088.43
28518.069
27958.891
27410.677
26873.213
26346.287
25829.694
25323.229
24826.695
24339.897
23862.644
23394.749
22936.029
22486.303
22045.395
21613.132
21189.345
20773.868
20366.537
19967.193
19575.68
19191.843
18815.532
18446.6
18084.902
17730.296
17382.643
17041.807
16707.654
16380.053
16058.875
15743.996
15435.29
15132.637
14835.919
14545.018
14259.822
13980.218
13706.096
13437.349
13173.871
12915.56
33413.463
34081.732
33413.463
32758.297
32115.977
31486.252
30868.875
30263.603
29670.199
29088.43
28518.069
27958.891
27410.677
26873.213
26346.287
25829.694
25323.229
24826.695
24339.897
23862.644
23394.749
22936.029
22486.303
22045.395
21613.132
21189.345
20773.868
20366.537
19967.193
19575.68
19191.843
18815.532
18446.6
18084.902
17730.296
17382.643
17041.807
16707.654
16380.053
16058.875
15743.996
15435.29
15132.637
14835.919
14545.018
14259.822
13980.218
13706.096
13437.349
13173.871
34081.732
34763.367
34081.732
33413.463
32758.297
32115.977
31486.252
30868.875
30263.603
29670.199
29088.43
28518.069
27958.891
27410.677
26873.213
26346.287
25829.694
25323.229
24826.695
24339.897
23862.644
23394.749
22936.029
22486.303
22045.395
21613.132
21189.345
20773.868
20366.537
19967.193
19575.68
19191.843
18815.532
18446.6
18084.902
17730.296
17382.643
17041.807
16707.654
16380.053
16058.875
15743.996
15435.29
15132.637
14835.919
14545.018
14259.822
13980.218
13706.096
13437.349
34763.367
35458.634
34763.367
34081.732
33413.463
32758.297
32115.977
31486.252
30868.875
30263.603
29670.199
29088.43
28518.069
27958.891
27410.677
26873.213
26346.287
25829.694
25323.229
24826.695
24339.897
23862.644
23394.749
22936.029
22486.303
22045.395
21613.132
21189.345
20773.868
20366.537
19967.193
19575.68
19191.843
18815.532
18446.6
18084.902
17730.296
17382.643
17041.807
16707.654
16380.053
16058.875
15743.996
15435.29
15132.637
14835.919
14545.018
14259.822
13980.218
13706.096
35458.634
36167.807
35458.634
34763.367
34081.732
33413.463
32758.297
32115.977
31486.252
30868.875
30263.603
29670.199
29088.43
28518.069
27958.891
27410.677
26873.213
26346.287
25829.694
25323.229
24826.695
24339.897
23862.644
23394.749
22936.029
22486.303
22045.395
21613.132
21189.345
20773.868
20366.537
19967.193
19575.68
19191.843
18815.532
18446.6
18084.902
17730.296
17382.643
17041.807
16707.654
16380.053
16058.875
15743.996
15435.29
15132.637
14835.919
14545.018
14259.822
13980.218
36167.807
36891.163
36167.807
35458.634
34763.367
34081.732
33413.463
32758.297
32115.977
31486.252
30868.875
30263.603
29670.199
29088.43
28518.069
27958.891
27410.677
26873.213
26346.287
25829.694
25323.229
24826.695
24339.897
23862.644
23394.749
22936.029
22486.303
22045.395
21613.132
21189.345
20773.868
20366.537
19967.193
19575.68
19191.843
18815.532
18446.6
18084.902
17730.296
17382.643
17041.807
16707.654
16380.053
16058.875
15743.996
15435.29
15132.637
14835.919
14545.018
14259.822
36891.163
37628.986
36891.163
36167.807
35458.634
34763.367
34081.732
33413.463
32758.297
32115.977
31486.252
30868.875
30263.603
29670.199
29088.43
28518.069
27958.891
27410.677
26873.213
26346.287
25829.694
25323.229
24826.695
24339.897
23862.644
23394.749
22936.029
22486.303
22045.395
21613.132
21189.345
20773.868
20366.537
19967.193
19575.68
19191.843
18815.532
18446.6
18084.902
17730.296
17382.643
17041.807
16707.654
16380.053
16058.875
15743.996
15435.29
15132.637
14835.919
14545.018
37628.986
38381.566
37628.986
36891.163
36167.807
35458.634
34763.367
34081.732
33413.463
32758.297
32115.977
31486.252
30868.875
30263.603
29670.199
29088.43
28518.069
27958.891
27410.677
26873.213
26346.287
25829.694
25323.229
24826.695
24339.897
23862.644
23394.749
22936.029
22486.303
22045.395
21613.132
21189.345
20773.868
20366.537
19967.193
19575.68
19191.843
18815.532
18446.6
18084.902
17730.296
17382.643
17041.807
16707.654
16380.053
16058.875
15743.996
15435.29
15132.637
14835.919
38381.566
39149.197
38381.566
37628.986
36891.163
36167.807
35458.634
34763.367
34081.732
33413.463
32758.297
32115.977
31486.252
30868.875
30263.603
29670.199
29088.43
28518.069
27958.891
27410.677
26873.213
26346.287
25829.694
25323.229
24826.695
24339.897
23862.644
23394.749
22936.029
22486.303
22045.395
21613.132
21189.345
20773.868
20366.537
19967.193
19575.68
19191.843
18815.532
18446.6
18084.902
17730.296
17382.643
17041.807
16707.654
16380.053
16058.875
15743.996
15435.29
15132.637
39149.197
39932.181
39149.197
38381.566
37628.986
36891.163
36167.807
35458.634
34763.367
34081.732
33413.463
32758.297
32115.977
31486.252
30868.875
30263.603
29670.199
29088.43
28518.069
27958.891
27410.677
26873.213
26346.287
25829.694
25323.229
24826.695
24339.897
23862.644
23394.749
22936.029
22486.303
22045.395
21613.132
21189.345
20773.868
20366.537
19967.193
19575.68
19191.843
18815.532
18446.6
18084.902
17730.296
17382.643
17041.807
16707.654
16380.053
16058.875
15743.996
15435.29
39932.181
40730.825
39932.181
39149.197
38381.566
37628.986
36891.163
36167.807
35458.634
34763.367
34081.732
33413.463
32758.297
32115.977
31486.252
30868.875
30263.603
29670.199
29088.43
28518.069
27958.891
27410.677
26873.213
26346.287
25829.694
25323.229
24826.695
24339.897
23862.644
23394.749
22936.029
22486.303
22045.395
21613.132
21189.345
20773.868
20366.537
19967.193
19575.68
19191.843
18815.532
18446.6
18084.902
17730.296
17382.643
17041.807
16707.654
16380.053
16058.875
15743.996
40730.825
41545.441
40730.825
39932.181
39149.197
38381.566
37628.986
36891.163
36167.807
35458.634
34763.367
34081.732
33413.463
32758.297
32115.977
31486.252
30868.875
30263.603
29670.199
29088.43
28518.069
27958.891
27410.677
26873.213
26346.287
25829.694
25323.229
24826.695
24339.897
23862.644
23394.749
22936.029
22486.303
22045.395
21613.132
21189.345
20773.868
20366.537
19967.193
19575.68
19191.843
18815.532
18446.6
18084.902
17730.296
17382.643
17041.807
16707.654
16380.053
16058.875
41545.441
42376.35
41545.441
40730.825
39932.181
39149.197
38381.566
37628.986
36891.163
36167.807
35458.634
34763.367
34081.732
33413.463
32758.297
32115.977
31486.252
30868.875
30263.603
29670.199
29088.43
28518.069
27958.891
27410.677
26873.213
26346.287
25829.694
25323.229
24826.695
24339.897
23862.644
23394.749
22936.029
22486.303
22045.395
21613.132
21189.345
20773.868
20366.537
19967.193
19575.68
19191.843
18815.532
18446.6
18084.902
17730.296
17382.643
17041.807
16707.654
16380.053
42376.35
43223.877
42376.35
41545.441
40730.825
39932.181
39149.197
38381.566
37628.986
36891.163
36167.807
35458.634
34763.367
34081.732
33413.463
32758.297
32115.977
31486.252
30868.875
30263.603
29670.199
29088.43
28518.069
27958.891
27410.677
26873.213
26346.287
25829.694
25323.229
24826.695
24339.897
23862.644
23394.749
22936.029
22486.303
22045.395
21613.132
21189.345
20773.868
20366.537
19967.193
19575.68
19191.843
18815.532
18446.6
18084.902
17730.296
17382.643
17041.807
16707.654
43223.877
44088.355
43223.877
42376.35
41545.441
40730.825
39932.181
39149.197
38381.566
37628.986
36891.163
36167.807
35458.634
34763.367
34081.732
33413.463
32758.297
32115.977
31486.252
30868.875
30263.603
29670.199
29088.43
28518.069
27958.891
27410.677
26873.213
26346.287
25829.694
25323.229
24826.695
24339.897
23862.644
23394.749
22936.029
22486.303
22045.395
21613.132
21189.345
20773.868
20366.537
19967.193
19575.68
19191.843
18815.532
18446.6
18084.902
17730.296
17382.643
17041.807
44088.355
44970.122
44088.355
43223.877
42376.35
41545.441
40730.825
39932.181
39149.197
38381.566
37628.986
36891.163
36167.807
35458.634
34763.367
34081.732
33413.463
32758.297
32115.977
31486.252
30868.875
30263.603
29670.199
29088.43
28518.069
27958.891
27410.677
26873.213
26346.287
25829.694
25323.229
24826.695
24339.897
23862.644
23394.749
22936.029
22486.303
22045.395
21613.132
21189.345
20773.868
20366.537
19967.193
19575.68
19191.843
18815.532
18446.6
18084.902
17730.296
17382.643
44970.122
45869.524
44970.122
44088.355
43223.877
42376.35
41545.441
40730.825
39932.181
39149.197
38381.566
37628.986
36891.163
36167.807
35458.634
34763.367
34081.732
33413.463
32758.297
32115.977
31486.252
30868.875
30263.603
29670.199
29088.43
28518.069
27958.891
27410.677
26873.213
26346.287
25829.694
25323.229
24826.695
24339.897
23862.644
23394.749
22936.029
22486.303
22045.395
21613.132
21189.345
20773.868
20366.537
19967.193
19575.68
19191.843
18815.532
18446.6
18084.902
17730.296
45869.524
46786.915
45869.524
44970.122
44088.355
43223.877
42376.35
41545.441
40730.825
39932.181
39149.197
38381.566
37628.986
36891.163
36167.807
35458.634
34763.367
34081.732
33413.463
32758.297
32115.977
31486.252
30868.875
30263.603
29670.199
29088.43
28518.069
27958.891
27410.677
26873.213
26346.287
25829.694
25323.229
24826.695
24339.897
23862.644
23394.749
22936.029
22486.303
22045.395
21613.132
21189.345
20773.868
20366.537
19967.193
19575.68
19191.843
18815.532
18446.6
18084.902
46786.915
47722.653
46786.915
45869.524
44970.122
44088.355
43223.877
42376.35
41545.441
40730.825
39932.181
39149.197
38381.566
37628.986
36891.163
36167.807
35458.634
34763.367
34081.732
33413.463
32758.297
32115.977
31486.252
30868.875
30263.603
29670.199
29088.43
28518.069
27958.891
27410.677
26873.213
26346.287
25829.694
25323.229
24826.695
24339.897
23862.644
23394.749
22936.029
22486.303
22045.395
21613.132
21189.345
20773.868
20366.537
19967.193
19575.68
19191.843
18815.532
18446.6
47722.653
48677.106
47722.653
46786.915
45869.524
44970.122
44088.355
43223.877
42376.35
41545.441
40730.825
39932.181
39149.197
38381.566
37628.986
36891.163
36167.807
35458.634
34763.367
34081.732
33413.463
32758.297
32115.977
31486.252
30868.875
30263.603
29670.199
29088.43
28518.069
27958.891
27410.677
26873.213
26346.287
25829.694
25323.229
24826.695
24339.897
23862.644
23394.749
22936.029
22486.303
22045.395
21613.132
21189.345
20773.868
20366.537
19967.193
19575.68
19191.843
18815.532
48677.106
49650.648
48677.106
47722.653
46786.915
45869.524
44970.122
44088.355
43223.877
42376.35
41545.441
40730.825
39932.181
39149.197
38381.566
37628.986
36891.163
36167.807
35458.634
34763.367
34081.732
33413.463
32758.297
32115.977
31486.252
30868.875
30263.603
29670.199
29088.43
28518.069
27958.891
27410.677
26873.213
26346.287
25829.694
25323.229
24826.695
24339.897
23862.644
23394.749
22936.029
22486.303
22045.395
21613.132
21189.345
20773.868
20366.537
19967.193
19575.68
19191.843
49650.648
50643.661
49650.648
48677.106
47722.653
46786.915
45869.524
44970.122
44088.355
43223.877
42376.35
41545.441
40730.825
39932.181
39149.197
38381.566
37628.986
36891.163
36167.807
35458.634
34763.367
34081.732
33413.463
32758.297
32115.977
31486.252
30868.875
30263.603
29670.199
29088.43
28518.069
27958.891
27410.677
26873.213
26346.287
25829.694
25323.229
24826.695
24339.897
23862.644
23394.749
22936.029
22486.303
22045.395
21613.132
21189.345
20773.868
20366.537
19967.193
19575.68
50643.661
51656.534
50643.661
49650.648
48677.106
47722.653
46786.915
45869.524
44970.122
44088.355
43223.877
42376.35
41545.441
40730.825
39932.181
39149.197
38381.566
37628.986
36891.163
36167.807
35458.634
34763.367
34081.732
33413.463
32758.297
32115.977
31486.252
30868.875
30263.603
29670.199
29088.43
28518.069
27958.891
27410.677
26873.213
26346.287
25829.694
25323.229
24826.695
24339.897
23862.644
23394.749
22936.029
22486.303
22045.395
21613.132
21189.345
20773.868
20366.537
19967.193
51656.534
52689.665
51656.534
50643.661
49650.648
48677.106
47722.653
46786.915
45869.524
44970.122
44088.355
43223.877
42376.35
41545.441
40730.825
39932.181
39149.197
38381.566
37628.986
36891.163
36167.807
35458.634
34763.367
34081.732
33413.463
32758.297
32115.977
31486.252
30868.875
30263.603
29670.199
29088.43
28518.069
27958.891
27410.677
26873.213
26346.287
25829.694
25323.229
24826.695
24339.897
23862.644
23394.749
22936.029
22486.303
22045.395
21613.132
21189.345
20773.868
20366.537
52689.665
53743.458
52689.665
51656.534
50643.661
49650.648
48677.106
47722.653
46786.915
45869.524
44970.122
44088.355
43223.877
42376.35
41545.441
40730.825
39932.181
39149.197
38381.566
37628.986
36891.163
36167.807
35458.634
34763.367
34081.732
33413.463
32758.297
32115.977
31486.252
30868.875
30263.603
29670.199
29088.43
28518.069
27958.891
27410.677
26873.213
26346.287
25829.694
25323.229
24826.695
24339.897
23862.644
23394.749
22936.029
22486.303
22045.395
21613.132
21189.345
20773.868
53743.458
54818.327
53743.458
52689.665
51656.534
50643.661
49650.648
48677.106
47722.653
46786.915
45869.524
44970.122
44088.355
43223.877
42376.35
41545.441
40730.825
39932.181
39149.197
38381.566
37628.986
36891.163
36167.807
35458.634
34763.367
34081.732
33413.463
32758.297
32115.977
31486.252
30868.875
30263.603
29670.199
29088.43
28518.069
27958.891
27410.677
26873.213
26346.287
25829.694
25323.229
24826.695
24339.897
23862.644
23394.749
22936.029
22486.303
22045.395
21613.132
21189.345
54818.327
55914.694
54818.327
53743.458
52689.665
51656.534
50643.661
49650.648
48677.106
47722.653
46786.915
45869.524
44970.122
44088.355
43223.877
42376.35
41545.441
40730.825
39932.181
39149.197
38381.566
37628.986
36891.163
36167.807
35458.634
34763.367
34081.732
33413.463
32758.297
32115.977
31486.252
30868.875
30263.603
29670.199
29088.43
28518.069
27958.891
27410.677
26873.213
26346.287
25829.694
25323.229
24826.695
24339.897
23862.644
23394.749
22936.029
22486.303
22045.395
21613.132
55914.694
57032.988
55914.694
54818.327
53743.458
52689.665
51656.534
50643.661
49650.648
48677.106
47722.653
46786.915
45869.524
44970.122
44088.355
43223.877
42376.35
41545.441
40730.825
39932.181
39149.197
38381.566
37628.986
36891.163
36167.807
35458.634
34763.367
34081.732
33413.463
32758.297
32115.977
31486.252
30868.875
30263.603
29670.199
29088.43
28518.069
27958.891
27410.677
26873.213
26346.287
25829.694
25323.229
24826.695
24339.897
23862.644
23394.749
22936.029
22486.303
22045.395
57032.988
58173.648
57032.988
55914.694
54818.327
53743.458
52689.665
51656.534
50643.661
49650.648
48677.106
47722.653
46786.915
45869.524
44970.122
44088.355
43223.877
42376.35
41545.441
40730.825
39932.181
39149.197
38381.566
37628.986
36891.163
36167.807
35458.634
34763.367
34081.732
33413.463
32758.297
32115.977
31486.252
30868.875
30263.603
29670.199
29088.43
28518.069
27958.891
27410.677
26873.213
26346.287
25829.694
25323.229
24826.695
24339.897
23862.644
23394.749
22936.029
22486.303
58173.648
59337.121
58173.648
57032.988
55914.694
54818.327
53743.458
52689.665
51656.534
50643.661
49650.648
48677.106
47722.653
46786.915
45869.524
44970.122
44088.355
43223.877
42376.35
41545.441
40730.825
39932.181
39149.197
38381.566
37628.986
36891.163
36167.807
35458.634
34763.367
34081.732
33413.463
32758.297
32115.977
31486.252
30868.875
30263.603
29670.199
29088.43
28518.069
27958.891
27410.677
26873.213
26346.287
25829.694
25323.229
24826.695
24339.897
23862.644
23394.749
22936.029
59337.121
60523.863
59337.121
58173.648
57032.988
55914.694
54818.327
53743.458
52689.665
51656.534
50643.661
49650.648
48677.106
47722.653
46786.915
45869.524
44970.122
44088.355
43223.877
42376.35
41545.441
40730.825
39932.181
39149.197
38381.566
37628.986
36891.163
36167.807
35458.634
34763.367
34081.732
33413.463
32758.297
32115.977
31486.252
30868.875
30263.603
29670.199
29088.43
28518.069
27958.891
27410.677
26873.213
26346.287
25829.694
25323.229
24826.695
24339.897
23862.644
23394.749
60523.863
61734.34
60523.863
59337.121
58173.648
57032.988
55914.694
54818.327
53743.458
52689.665
51656.534
50643.661
49650.648
48677.106
47722.653
46786.915
45869.524
44970.122
44088.355
43223.877
42376.35
41545.441
40730.825
39932.181
39149.197
38381.566
37628.986
36891.163
36167.807
35458.634
34763.367
34081.732
33413.463
32758.297
32115.977
31486.252
30868.875