/*--------------------------------*- C++ -*----------------------------------*\
| =========                 |                                                 |
| \\      /  F ield         | OpenFOAM: The Open Source CFD Toolbox           |
|  \\    /   O peration     | Version:  2306                                  |
|   \\  /    A nd           | Website:  www.openfoam.com                      |
|    \\/     M anipulation  |                                                 |
\*---------------------------------------------------------------------------*/
FoamFile
{
    version     2.0;
    format      ascii;
    arch        "LSB;label=32;scalar=64";
    class       volSymmTensorField;
    location    "450";
    object      turbulenceProperties:devReff;
}
// * * * * * * * * * * * * * * * * * * * * * * * * * * * * * * * * * * * * * //

dimensions      [0 2 -2 0 0 0 0];

internalField   nonuniform List<symmTensor> 
10720
(
(0.00163714 0.00425779 -9.50069e-22 -0.00177373 -2.23883e-20 0.000136593)
(0.00238852 0.00488002 -1.24309e-22 -0.00248646 1.40368e-19 9.79402e-05)
(0.00361105 0.00546062 -2.76482e-20 -0.00380827 -4.34987e-19 0.000197225)
(0.00524591 0.00621487 1.19073e-19 -0.00549189 8.78822e-19 0.00024598)
(0.00742491 0.00687339 -2.25915e-19 -0.00769355 -8.34223e-19 0.000268643)
(0.0104039 0.00726186 -1.72317e-19 -0.0107954 -4.50645e-19 0.000391442)
(0.014299 0.00737458 3.25998e-19 -0.0147852 1.25251e-18 0.000486256)
(0.0191876 0.00685904 -8.31322e-19 -0.0197702 -2.26133e-18 0.000582585)
(0.025239 0.00535156 -2.06509e-19 -0.0259856 6.04417e-19 0.000746563)
(0.0325644 0.00260623 6.13777e-19 -0.0334649 1.25947e-18 0.000900454)
(0.0413421 -0.00189799 1.57979e-18 -0.0424336 5.77706e-19 0.00109149)
(0.0519596 -0.00873399 -3.55239e-18 -0.0532774 -3.29927e-18 0.00131782)
(0.0649576 -0.0188219 6.7279e-19 -0.0665508 8.68395e-19 0.00159318)
(0.0812468 -0.0337492 2.68635e-18 -0.0832016 1.27312e-18 0.00195482)
(0.102368 -0.0561689 -4.07745e-18 -0.104834 -6.36944e-18 0.00246625)
(0.13053 -0.0904043 -4.36535e-18 -0.133705 -2.58501e-18 0.00317454)
(0.169882 -0.14506 1.92126e-17 -0.174188 1.77899e-17 0.00430663)
(0.224283 -0.232428 1.78591e-17 -0.230163 3.37909e-17 0.00588052)
(0.310932 -0.388887 -3.53878e-17 -0.319547 -5.48546e-17 0.00861515)
(0.426452 -0.641759 -1.3779e-18 -0.438626 1.45542e-17 0.0121748)
(0.666805 -1.21419 -2.7223e-17 -0.686199 5.20468e-17 0.0193947)
(0.945548 -2.11448 -1.24401e-17 -0.971666 4.18836e-17 0.0261183)
(1.76558 -5.12884 -1.43151e-16 -1.81774 -6.41884e-16 0.0521596)
(2.42861 -10.312 3.31458e-16 -2.51206 5.58901e-16 0.0834466)
(1.52872 -11.6483 4.24143e-17 -1.56982 -7.12353e-16 0.0410954)
(0.526702 -11.23 3.65809e-16 -0.515192 5.81279e-16 -0.0115097)
(-0.145877 -11.0458 -8.1852e-17 0.175792 -7.84429e-17 -0.0299154)
(-0.665125 -11.229 2.7451e-16 0.689999 2.30563e-16 -0.0248731)
(-1.13647 -11.443 7.29062e-16 1.15295 1.20848e-15 -0.0164791)
(-1.57191 -11.4559 4.00594e-16 1.58025 1.99764e-15 -0.0083479)
(-1.95806 -11.2417 -1.41159e-15 1.95633 -1.93154e-15 0.00173515)
(-2.27379 -10.8352 -4.74948e-16 2.2633 -7.26177e-16 0.0104959)
(-2.49385 -10.2216 -3.22521e-17 2.4789 -4.36833e-15 0.0149463)
(-2.60537 -9.41471 -2.58333e-15 2.59 -7.30007e-15 0.015376)
(-2.58948 -8.40637 1.00635e-15 2.57527 9.23249e-16 0.0142067)
(-2.43552 -7.22759 1.22005e-15 2.42451 1.14394e-15 0.0110177)
(-2.0742 -5.67387 -1.2241e-16 2.06075 -5.25102e-16 0.013444)
(-1.5867 -4.17192 -1.51869e-15 1.58498 -2.44189e-17 0.00171742)
(-0.472651 -0.926836 -1.88616e-16 0.473441 -1.90331e-15 -0.000789787)
(0.000968053 0.00371302 2.39404e-21 -0.00101994 5.55971e-20 5.18854e-05)
(0.000549692 0.00319713 -3.57159e-21 -0.000639717 2.55678e-23 9.00252e-05)
(0.00017931 0.0026111 -1.95663e-20 -0.000226376 -1.37147e-19 4.70665e-05)
(-6.70764e-05 0.00208971 4.98139e-21 3.29484e-05 9.36017e-20 3.41279e-05)
(-0.000179257 0.00159689 3.9189e-21 0.00016097 -1.82533e-20 1.82875e-05)
(-0.000172604 0.0011672 -3.3858e-20 0.000173 1.10834e-19 -3.9611e-07)
(-8.40078e-05 0.000835302 -2.02265e-19 0.000108116 1.62794e-19 -2.41082e-05)
(5.47839e-05 0.000636923 1.39725e-19 -1.70857e-05 -5.5181e-20 -3.76982e-05)
(0.000231362 0.000621222 2.26704e-19 -0.000204968 -1.14671e-19 -2.6394e-05)
(0.000471318 0.000742216 -1.54451e-19 -0.000468028 3.90397e-20 -3.29045e-06)
(0.00081238 0.00102678 -3.88388e-20 -0.000823024 1.83172e-19 1.06436e-05)
(0.00130644 0.0015664 2.49336e-19 -0.00132442 1.03713e-19 1.79829e-05)
(0.00202429 0.00252565 4.59462e-19 -0.00205446 -7.15379e-20 3.01702e-05)
(0.00305565 0.00413713 -8.14036e-21 -0.00310696 -2.58799e-19 5.13005e-05)
(0.0044731 0.00664462 -8.04482e-20 -0.00454804 -1.73497e-19 7.49415e-05)
(0.00629923 0.0103377 2.69057e-20 -0.00640794 -5.82064e-20 0.000108705)
(0.00863914 0.015635 -1.97155e-19 -0.0087849 6.70123e-19 0.000145755)
(0.0117402 0.0234246 7.42381e-19 -0.0119383 2.75951e-19 0.000198175)
(0.0161482 0.0354501 3.28026e-19 -0.0164166 -1.21849e-18 0.000268373)
(0.0226884 0.0549989 -1.32086e-18 -0.023079 -3.4644e-19 0.000390542)
(0.0329407 0.0886169 -4.44085e-18 -0.0335317 -2.02925e-18 0.000590927)
(0.0490728 0.148528 -3.35499e-18 -0.0500522 -8.9724e-19 0.000979407)
(0.0757042 0.263753 6.22757e-18 -0.077482 -5.7885e-19 0.00177782)
(0.116282 0.487769 -7.46698e-18 -0.119918 1.2081e-18 0.00363662)
(0.183243 0.979451 4.06954e-18 -0.191089 -7.22399e-18 0.00784627)
(0.277943 2.01763 -1.26415e-16 -0.294318 2.61658e-18 0.0163751)
(0.410054 4.53273 -7.83243e-17 -0.448529 1.22989e-17 0.038475)
(0.421168 9.36904 6.59254e-17 -0.501476 8.24807e-19 0.080308)
(0.0081232 13.292 8.69845e-18 -0.112266 -1.25653e-19 0.104143)
(-0.628749 14.9598 6.2859e-17 0.530418 4.3616e-19 0.0983314)
(-1.26785 15.3986 -4.37185e-16 1.18561 -4.89507e-18 0.0822437)
(-1.85323 15.4185 1.57309e-16 1.78589 2.09288e-17 0.0673381)
(-2.3774 15.2563 -1.88903e-15 2.3216 -1.53197e-16 0.0557947)
(-2.83317 14.9562 -3.45856e-15 2.78627 -2.37e-16 0.0469017)
(-3.21856 14.534 1.05846e-15 3.17823 1.0838e-16 0.0403269)
(-3.53766 14.011 1.02459e-15 3.50239 1.6429e-16 0.0352632)
(-3.77532 13.2878 1.45055e-15 3.74323 2.66683e-16 0.0320886)
(-3.91954 12.4706 -2.90395e-16 3.88955 -3.6743e-17 0.0299973)
(-3.64023 10.0666 -4.55471e-15 3.63362 -7.84207e-16 0.00660735)
(0.000579433 -0.000460527 1.22859e-22 -0.00052005 4.00305e-21 -5.93828e-05)
(0.000492605 -0.000547355 2.9033e-20 -0.000425489 7.03536e-20 -6.71159e-05)
(0.000371416 -0.000622949 -2.69199e-20 -0.000291097 -4.74604e-20 -8.03187e-05)
(0.000250519 -0.000652178 -1.81361e-20 -0.000158591 -5.16564e-20 -9.19289e-05)
(0.00013315 -0.000645109 1.2227e-19 -3.25568e-05 2.37307e-19 -0.000100593)
(2.31412e-05 -0.000610485 4.76158e-20 8.61799e-05 7.38712e-20 -0.000109321)
(-6.02899e-05 -0.000551403 2.2581e-19 0.000177197 2.07449e-19 -0.000116908)
(-0.000116636 -0.000479008 -1.16705e-19 0.000238471 -2.24588e-20 -0.000121835)
(-0.000149303 -0.000404777 1.64896e-19 0.000274582 1.14262e-19 -0.000125279)
(-0.000158012 -0.000336002 -5.85654e-21 0.000285259 2.50067e-22 -0.000127247)
(-0.000150112 -0.000278307 -2.23006e-19 0.000277009 -1.90525e-19 -0.000126896)
(-0.000132662 -0.000239949 2.87171e-19 0.00025889 3.57497e-19 -0.000126227)
(-0.000110888 -0.000226119 1.76602e-19 0.000240754 8.87438e-20 -0.000129866)
(-8.62536e-05 -0.000245789 -3.68423e-20 0.000231115 1.99826e-20 -0.000144861)
(-4.85452e-05 -0.000344616 -2.2687e-19 0.000241474 3.73456e-20 -0.000192929)
(6.24931e-05 -0.000658592 4.7736e-19 0.000258287 5.4626e-19 -0.00032078)
(0.000455354 -0.00154863 8.5542e-19 0.000142138 -9.35397e-19 -0.000597492)
(0.00150213 -0.00354906 -4.41878e-18 -0.000499215 -5.72735e-18 -0.00100292)
(0.00420729 -0.00868044 5.06249e-19 -0.00253859 7.46872e-18 -0.0016687)
(0.0104878 -0.0211621 7.37474e-18 -0.00790318 -2.07124e-18 -0.00258466)
(0.0295521 -0.0626785 1.55233e-17 -0.025132 6.15178e-18 -0.00442014)
(0.074114 -0.174791 -2.35791e-17 -0.0678933 -2.25793e-17 -0.00622068)
(0.19549 -0.546265 7.43592e-17 -0.187682 1.87682e-16 -0.00780853)
(0.50521 -1.78612 1.5583e-19 -0.502435 -1.54897e-16 -0.00277508)
(0.749791 -3.55022 -2.73593e-16 -0.773514 1.69827e-16 0.0237238)
(0.7903 -5.39761 -9.72351e-17 -0.844701 -6.60554e-16 0.0544005)
(0.603527 -7.14881 1.18377e-18 -0.675462 7.56942e-17 0.0719344)
(0.204327 -8.39218 -2.94461e-16 -0.279942 -4.44709e-16 0.0756145)
(-0.295503 -8.63452 -4.93563e-16 0.229457 -2.83241e-15 0.0660459)
(-0.707042 -7.89645 -1.66977e-16 0.665794 -3.54627e-15 0.0412485)
(-0.93119 -6.69147 5.22938e-16 0.922784 4.89648e-15 0.00840682)
(-0.998259 -5.47793 -9.5522e-16 1.01642 -3.75678e-17 -0.0181586)
(-0.984415 -4.49833 -7.18963e-15 1.0142 1.34209e-15 -0.0297892)
(-0.930846 -3.75355 8.7725e-15 0.960487 1.59519e-14 -0.0296406)
(-0.863833 -3.18644 -1.4887e-15 0.887846 -8.63766e-16 -0.0240127)
(-0.781582 -2.7435 3.42272e-15 0.802068 -4.99323e-15 -0.0204863)
(-0.730872 -2.43229 -1.50361e-15 0.744245 1.52303e-15 -0.0133726)
(-0.560385 -2.13709 3.24928e-15 0.595677 4.02394e-16 -0.0352919)
(-0.787297 -2.25523 5.36288e-15 0.698341 7.29121e-15 0.0889562)
(0.000645655 -0.000345009 9.36998e-21 -0.000595427 2.31773e-20 -5.02282e-05)
(0.00068442 -0.000224612 -1.27043e-20 -0.00063747 -9.60293e-20 -4.69501e-05)
(0.000691694 -7.6394e-05 -1.86441e-20 -0.000654663 -1.11218e-19 -3.70303e-05)
(0.000654248 8.66813e-05 -7.12348e-21 -0.000627664 1.65311e-19 -2.65842e-05)
(0.000565077 0.000235302 1.92662e-21 -0.000550956 4.34553e-20 -1.41214e-05)
(0.000429275 0.000348908 3.7825e-20 -0.000425618 -1.45277e-19 -3.65725e-06)
(0.000271226 0.00040598 7.02568e-20 -0.000274639 -2.2467e-19 3.41367e-06)
(0.000131121 0.000406958 -3.17857e-19 -0.000140194 8.39357e-21 9.07273e-06)
(2.28717e-05 0.000374118 4.88569e-20 -3.33811e-05 2.16475e-19 1.05095e-05)
(-6.63163e-05 0.000316361 1.2444e-21 6.00913e-05 -1.29263e-19 6.22503e-06)
(-0.000121767 0.000243629 -8.32674e-20 0.000123188 -7.89498e-20 -1.42017e-06)
(-0.000141757 0.000176672 -6.00705e-20 0.00015008 -8.49749e-20 -8.32289e-06)
(-0.000139971 0.000124397 -1.12035e-20 0.000152778 1.86594e-20 -1.28069e-05)
(-0.00012757 8.66286e-05 3.75293e-20 0.000142839 1.0099e-19 -1.52692e-05)
(-0.000111044 6.08897e-05 6.4734e-20 0.000127502 2.50096e-20 -1.64583e-05)
(-9.41908e-05 4.40024e-05 -9.21267e-20 0.000110951 -4.6991e-21 -1.67605e-05)
(-7.86826e-05 3.33875e-05 8.27056e-20 9.51006e-05 8.54263e-21 -1.6418e-05)
(-6.53908e-05 2.68724e-05 -9.84912e-21 8.10452e-05 -2.88779e-20 -1.56544e-05)
(-5.43343e-05 2.27332e-05 -3.38117e-20 6.89938e-05 5.3789e-20 -1.46595e-05)
(-4.52857e-05 1.99641e-05 -2.57776e-20 5.8919e-05 2.80595e-20 -1.36333e-05)
(-3.79975e-05 1.79326e-05 -6.20006e-20 5.07309e-05 6.97504e-20 -1.27334e-05)
(-3.26724e-05 1.64692e-05 -8.73211e-20 4.49201e-05 4.53008e-20 -1.22477e-05)
(-2.91895e-05 1.55186e-05 -1.25798e-19 4.16893e-05 1.08382e-20 -1.24997e-05)
(-2.68697e-05 1.54958e-05 5.6107e-20 4.05156e-05 5.32841e-21 -1.36459e-05)
(-2.46032e-05 1.7263e-05 -3.99457e-21 3.96875e-05 5.47748e-21 -1.50844e-05)
(-0.000235313 0.000213507 5.26711e-19 0.000404618 1.37781e-19 -0.000169306)
(-0.00119751 0.0013569 2.69671e-18 0.00216781 -1.92567e-19 -0.000970305)
(-0.00866898 0.0119941 1.08355e-18 0.0162508 -4.5151e-19 -0.00758182)
(-0.026227 0.0459315 -7.54141e-19 0.0499596 1.03219e-19 -0.0237326)
(-0.0449443 0.102717 4.96453e-17 0.0849992 2.01604e-18 -0.0400549)
(-0.0579723 0.170679 4.02654e-16 0.105298 9.72213e-18 -0.0473253)
(-0.0659771 0.235243 2.39535e-16 0.111231 1.31173e-17 -0.0452536)
(-0.0730169 0.289383 1.76247e-15 0.112019 1.20944e-16 -0.0390026)
(-0.0819869 0.33494 2.54475e-15 0.11474 1.6929e-16 -0.032753)
(-0.0941528 0.375377 -5.70582e-16 0.122124 -9.71778e-17 -0.0279713)
(-0.108449 0.415565 -4.90974e-16 0.133605 -8.61548e-17 -0.0251555)
(-0.128785 0.456189 -1.22519e-15 0.151574 -5.15115e-16 -0.0227885)
(-0.147322 0.552325 -2.52523e-15 0.17417 -3.46244e-18 -0.0268474)
(-0.207654 0.775776 -2.03917e-15 0.197452 1.35851e-15 0.0102025)
(0.000333682 -0.000312807 1.7258e-21 -0.000360069 2.38759e-21 2.63877e-05)
(0.00025836 -0.000372281 -2.7296e-20 -0.000290235 -6.63198e-20 3.18749e-05)
(0.000160851 -0.000413558 -6.02086e-21 -0.000197977 -3.03308e-21 3.71262e-05)
(5.20709e-05 -0.000426361 2.27884e-20 -9.69441e-05 4.92238e-20 4.48732e-05)
(-5.44252e-05 -0.000413077 -7.20971e-20 3.54527e-06 -1.46642e-19 5.08799e-05)
(-0.000154783 -0.000372457 -8.20728e-20 9.79075e-05 -1.34513e-19 5.68753e-05)
(-0.000238945 -0.000308489 -1.66416e-19 0.000175434 -2.45977e-19 6.3511e-05)
(-0.000299999 -0.000230744 -1.34057e-20 0.000231132 -1.99283e-21 6.8867e-05)
(-0.000337765 -0.000145421 -7.30692e-20 0.000264304 -1.74013e-19 7.34607e-05)
(-0.000352964 -6.11089e-05 3.05788e-19 0.000275454 3.47969e-19 7.75098e-05)
(-0.000348657 1.65898e-05 -5.00762e-20 0.000268535 6.81112e-20 8.01224e-05)
(-0.000331378 8.39141e-05 3.41323e-20 0.000250344 2.10021e-20 8.10341e-05)
(-0.000307335 0.000139294 -2.33538e-19 0.00022752 -2.97234e-19 7.98149e-05)
(-0.000281359 0.000184856 1.50372e-19 0.000204138 -1.39598e-20 7.72213e-05)
(-0.000253977 0.000218701 4.36307e-20 0.000181522 1.35396e-19 7.24554e-05)
(-0.00022401 0.000237809 5.34493e-20 0.000159036 2.56524e-20 6.49737e-05)
(-0.000179239 0.000226922 -2.40503e-19 0.000127521 -1.40075e-19 5.17179e-05)
(-0.00015264 0.00022365 2.0859e-19 0.000110176 1.55489e-19 4.24641e-05)
(-0.000102344 0.000169004 5.07099e-20 7.59571e-05 6.6244e-22 2.63868e-05)
(-0.000915037 0.00164936 -2.11604e-18 0.000707775 -3.18358e-19 0.000207262)
(-0.00180546 0.00345927 5.24896e-18 0.00147017 -2.06144e-18 0.000335291)
(-6.63524e-05 0.000131144 7.30258e-21 5.76913e-05 1.2521e-19 8.66108e-06)
(-0.00134216 0.00153451 5.94616e-18 0.00143279 -8.78242e-18 -9.06262e-05)
(0.00125803 -0.00468563 -2.28358e-18 -0.0010142 -2.44019e-18 -0.000243823)
(0.0119051 -0.0526572 4.3557e-18 -0.0101209 1.53823e-17 -0.00178422)
(0.0316536 -0.19019 -2.80861e-17 -0.0275617 7.67601e-18 -0.00409191)
(0.0531107 -0.490047 1.47172e-17 -0.0471011 1.14278e-18 -0.0060096)
(0.0637029 -1.11122 -1.42717e-17 -0.0564855 7.61973e-17 -0.00721739)
(0.0252602 -2.19829 -4.39957e-16 -0.0184634 2.46006e-16 -0.00679682)
(-0.119842 -3.62971 2.16874e-16 0.123043 3.53034e-16 -0.0032005)
(-0.387148 -4.91324 1.56351e-15 0.381972 -5.8667e-16 0.0051761)
(-0.691727 -5.52342 -2.76465e-15 0.677325 2.16218e-15 0.0144014)
(-0.905508 -5.36693 5.13892e-16 0.889781 9.32704e-15 0.0157269)
(-0.983092 -4.78715 -4.86939e-17 0.974699 -6.36756e-15 0.00839282)
(-0.96487 -4.12831 3.05763e-15 0.963399 -2.3008e-15 0.00147124)
(-0.878527 -3.52382 -1.43662e-14 0.881506 5.20347e-16 -0.00297877)
(-0.79862 -3.05356 4.95832e-15 0.797698 -1.62565e-15 0.0009215)
(-0.531519 -2.55653 5.13627e-15 0.547602 -1.52196e-15 -0.0160828)
(-0.843967 -2.81471 -1.00221e-14 0.825963 2.90317e-15 0.0180036)
(0.000395295 -0.000236803 -3.54254e-21 -0.000419381 -6.74351e-21 2.40862e-05)
(0.000435596 -0.000154352 -1.34281e-20 -0.000454967 -1.89997e-20 1.93711e-05)
(0.000460047 -5.32791e-05 5.56881e-20 -0.000474973 1.20065e-19 1.49256e-05)
(0.000454763 5.438e-05 1.14453e-20 -0.000464206 -1.35571e-20 9.44308e-06)
(0.000415687 0.000160468 7.89576e-21 -0.000421151 -8.89555e-20 5.46415e-06)
(0.000342124 0.00024805 -2.4654e-20 -0.000344105 6.37279e-20 1.98092e-06)
(0.000244197 0.00030301 2.37584e-20 -0.00024389 1.44099e-19 -3.0688e-07)
(0.00014106 0.000319908 1.56358e-19 -0.000141807 1.67851e-19 7.46268e-07)
(4.81366e-05 0.000309273 5.31701e-20 -4.95976e-05 -1.33522e-19 1.46091e-06)
(-2.83437e-05 0.000273934 1.18441e-19 2.72883e-05 7.01952e-20 1.05542e-06)
(-7.85705e-05 0.000221402 -8.35355e-20 7.72412e-05 2.14691e-20 1.32924e-06)
(-0.00010266 0.000166968 -1.20562e-20 0.000100154 7.0629e-20 2.50593e-06)
(-0.000108698 0.000119366 5.2599e-21 0.000104634 -6.34549e-20 4.06424e-06)
(-0.000104073 8.10064e-05 1.1335e-19 9.83161e-05 -7.97961e-20 5.75729e-06)
(-9.40452e-05 5.20542e-05 8.56315e-21 8.68706e-05 -1.25373e-20 7.17462e-06)
(-8.20395e-05 3.10428e-05 -1.26635e-20 7.36757e-05 5.2356e-20 8.36378e-06)
(-7.02286e-05 1.64114e-05 8.11349e-20 6.10086e-05 -9.58406e-20 9.22008e-06)
(-5.97403e-05 6.31472e-06 1.31939e-20 4.98981e-05 1.15876e-20 9.84217e-06)
(-5.10626e-05 -7.62406e-07 9.35632e-20 4.08714e-05 -6.54344e-21 1.01913e-05)
(-4.39373e-05 -6.08774e-06 1.00026e-19 3.34927e-05 2.24108e-20 1.04446e-05)
(-3.80777e-05 -1.0408e-05 2.55856e-19 2.74927e-05 -3.37974e-20 1.0585e-05)
(-3.29294e-05 -1.44532e-05 3.31048e-19 2.21557e-05 -5.00794e-20 1.07737e-05)
(-2.77599e-05 -1.86722e-05 1.96865e-19 1.66897e-05 1.70542e-20 1.10702e-05)
(-2.10892e-05 -2.26159e-05 4.53302e-20 9.23585e-06 -9.27058e-21 1.18533e-05)
(-1.29581e-05 -2.48038e-05 -4.86227e-20 -2.34572e-07 2.34842e-20 1.31927e-05)
(-4.80904e-06 -2.40848e-05 1.81522e-19 -9.43755e-06 -2.94971e-20 1.42466e-05)
(2.16951e-06 -2.25522e-05 -4.88549e-20 -1.80224e-05 -4.75405e-21 1.58529e-05)
(5.47537e-06 -1.38325e-05 -3.13945e-20 -1.76537e-05 6.4723e-22 1.21783e-05)
(5.62368e-05 -7.33797e-05 2.76159e-20 -0.000143675 -8.68597e-22 8.74386e-05)
(0.000481015 -0.000275628 -1.44017e-18 -0.00111255 -5.45003e-20 0.000631535)
(0.00145033 0.000425602 -8.65022e-18 -0.00322073 -7.88822e-20 0.0017704)
(0.00231358 0.00468906 -5.48356e-17 -0.00521489 -3.18048e-18 0.00290131)
(0.00185825 0.0154475 -1.34331e-16 -0.00506972 -4.43498e-18 0.00321147)
(-0.000686807 0.0342915 -3.34079e-16 -0.00190449 -2.2875e-17 0.0025913)
(-0.00552563 0.0608593 -8.55064e-16 0.0039799 -7.6541e-17 0.00154573)
(-0.0113266 0.0929767 2.1561e-16 0.0108232 -1.74313e-17 0.000503414)
(-0.0190692 0.127605 -1.17293e-15 0.0190197 2.10883e-16 4.94521e-05)
(-0.0096404 0.1541 2.9473e-15 0.0104711 5.32916e-16 -0.000830715)
(-0.0374632 0.261203 4.63717e-15 0.0294808 9.50713e-16 0.00798245)
(0.00030628 -0.000258223 9.51568e-21 -0.000296876 1.62784e-20 -9.4039e-06)
(0.000259298 -0.000306082 -1.32542e-20 -0.000248912 -2.38931e-20 -1.03863e-05)
(0.000195911 -0.000347409 -6.02783e-21 -0.000182639 -3.32174e-21 -1.32723e-05)
(0.000125025 -0.000374211 7.16064e-20 -0.000109147 1.04795e-19 -1.5878e-05)
(5.17749e-05 -0.000382634 4.5507e-20 -3.28947e-05 8.24867e-20 -1.88803e-05)
(-2.12929e-05 -0.000372943 5.77214e-20 4.36687e-05 1.10845e-19 -2.23758e-05)
(-8.66743e-05 -0.000347085 8.81562e-20 0.000112589 1.01992e-19 -2.59148e-05)
(-0.000139539 -0.000308084 -5.05818e-20 0.000168993 -7.85515e-20 -2.94546e-05)
(-0.000178415 -0.000260562 -1.80918e-19 0.00021168 -1.79248e-19 -3.32643e-05)
(-0.000202003 -0.000209912 2.34922e-19 0.000238692 1.323e-19 -3.6689e-05)
(-0.000211574 -0.000160037 1.97567e-19 0.000251484 1.67323e-19 -3.99102e-05)
(-0.000209291 -0.000114101 2.55705e-19 0.00025182 1.22495e-19 -4.25286e-05)
(-0.000197728 -7.42123e-05 -4.20852e-19 0.000241973 -1.34781e-19 -4.42449e-05)
(-0.000179863 -4.12309e-05 -3.58068e-19 0.000224681 -2.40533e-19 -4.48181e-05)
(-0.000157739 -1.50509e-05 4.73809e-19 0.000202211 1.49029e-19 -4.44718e-05)
(-0.000133134 7.47433e-06 9.57785e-20 0.000175307 5.89818e-20 -4.21734e-05)
(-0.000107455 2.65909e-05 -7.08913e-20 0.000145547 7.31687e-21 -3.80917e-05)
(-8.50134e-05 4.31435e-05 -2.30782e-19 0.000118158 -1.51199e-19 -3.31443e-05)
(-6.20234e-05 5.46944e-05 5.18258e-20 8.70631e-05 -1.98842e-20 -2.50398e-05)
(-4.30376e-05 5.86062e-05 2.00342e-19 5.90415e-05 6.18121e-20 -1.60039e-05)
(-3.80953e-05 7.09255e-05 -2.6889e-19 4.90741e-05 -7.73423e-20 -1.09788e-05)
(-4.03754e-05 9.39037e-05 1.43958e-19 4.85869e-05 2.05626e-20 -8.21151e-06)
(-3.74294e-05 0.000112358 -4.38603e-20 4.34991e-05 -9.51017e-21 -6.06976e-06)
(-0.000240961 0.00109635 -8.51209e-19 0.000287524 4.17476e-19 -4.65625e-05)
(-0.00059258 0.00637999 3.54164e-18 0.000863633 -1.13049e-18 -0.000271053)
(0.00050517 0.0128292 -7.45086e-18 8.41251e-05 9.89163e-18 -0.000589295)
(0.00339028 0.0176551 1.52483e-19 -0.002429 -3.48192e-19 -0.000961275)
(0.000262223 0.000362498 4.84909e-19 -0.000219551 -1.72239e-19 -4.26726e-05)
(0.00394701 -0.00954026 5.85282e-18 -0.00347745 1.48112e-17 -0.000469561)
(0.00987782 -0.107045 2.65018e-17 -0.00864255 -1.20013e-16 -0.00123527)
(-0.000311879 -0.477123 -6.63256e-17 0.00251511 -3.95358e-16 -0.00220324)
(-0.0767563 -1.29808 2.07585e-15 0.0794691 5.51215e-16 -0.00271285)
(-0.263503 -2.42339 2.97007e-15 0.264381 6.72415e-16 -0.000878404)
(-0.514108 -3.34369 -1.64326e-15 0.510698 -2.23408e-15 0.00340997)
(-0.715462 -3.72231 -7.33285e-15 0.709509 1.42196e-15 0.00595253)
(-0.792829 -3.65036 4.79345e-15 0.790299 4.8948e-15 0.00252996)
(-0.801243 -3.42065 -1.01676e-14 0.796562 -1.30317e-16 0.0046813)
(-0.573911 -3.01946 -1.30266e-14 0.584259 1.88158e-15 -0.0103477)
(-0.814707 -3.21256 9.21233e-15 0.786367 -3.43376e-15 0.0283394)
(0.000342224 -0.000198497 -1.46076e-20 -0.000335899 -2.97426e-20 -6.32498e-06)
(0.000364714 -0.000135328 -5.02372e-21 -0.000359228 2.03042e-20 -5.48566e-06)
(0.000373312 -5.72451e-05 4.83501e-20 -0.000370622 9.21872e-20 -2.69012e-06)
(0.00036393 2.51558e-05 -2.06946e-20 -0.00036261 -1.16213e-21 -1.32002e-06)
(0.000332411 0.000105543 1.80246e-20 -0.000332513 1.1422e-19 1.02049e-07)
(0.000278549 0.000174405 5.52694e-20 -0.000278829 -1.58031e-20 2.79873e-07)
(0.000208874 0.000222873 5.9761e-20 -0.000208618 -1.55036e-21 -2.56147e-07)
(0.000134091 0.000246333 -1.47488e-19 -0.000134121 -8.91343e-20 2.99286e-08)
(6.20829e-05 0.000246781 -8.05826e-20 -6.28876e-05 6.96675e-21 8.0468e-07)
(-4.81525e-07 0.000226456 1.33622e-19 -6.61561e-07 6.03011e-20 1.14309e-06)
(-4.60144e-05 0.000192083 6.23689e-20 4.50226e-05 -5.11786e-21 9.91789e-07)
(-7.36466e-05 0.000153527 7.38463e-20 7.31322e-05 -4.55936e-20 5.14409e-07)
(-8.69238e-05 0.000117332 -1.14039e-19 8.71757e-05 -7.47461e-20 -2.51859e-07)
(-9.02497e-05 8.63931e-05 -1.41383e-19 9.13693e-05 2.6689e-20 -1.1196e-06)
(-8.73193e-05 6.17587e-05 1.29049e-20 8.93386e-05 3.73724e-20 -2.01938e-06)
(-8.10776e-05 4.30063e-05 4.37229e-20 8.39014e-05 -1.3012e-20 -2.82387e-06)
(-7.35833e-05 2.93006e-05 -1.07379e-19 7.71376e-05 -8.50146e-21 -3.55422e-06)
(-6.6111e-05 1.94554e-05 -4.12437e-21 7.02675e-05 -1.70996e-20 -4.15645e-06)
(-5.93561e-05 1.23042e-05 -4.12364e-20 6.40056e-05 -8.0716e-21 -4.64949e-06)
(-5.34503e-05 6.79484e-06 8.66504e-20 5.8436e-05 -4.99184e-20 -4.98569e-06)
(-4.83435e-05 2.2499e-06 -9.43813e-20 5.35919e-05 -3.27927e-20 -5.24841e-06)
(-4.37598e-05 -1.90785e-06 -1.96269e-19 4.92024e-05 -2.31686e-20 -5.44263e-06)
(-3.92321e-05 -6.02088e-06 8.88875e-21 4.48497e-05 -2.97498e-20 -5.6176e-06)
(-3.40472e-05 -9.84475e-06 5.03136e-20 3.97791e-05 -2.86282e-20 -5.73185e-06)
(-2.84136e-05 -1.2248e-05 1.5248e-19 3.44236e-05 -1.06384e-20 -6.00997e-06)
(-2.34555e-05 -1.29978e-05 -1.4286e-19 3.00706e-05 -8.27412e-21 -6.61512e-06)
(-1.95444e-05 -1.28635e-05 -2.45767e-20 2.68443e-05 7.64423e-21 -7.2999e-06)
(-1.65195e-05 -1.23522e-05 1.47862e-20 2.44677e-05 1.29342e-21 -7.94825e-06)
(-1.3684e-05 -1.14346e-05 -6.83163e-21 2.18799e-05 -2.74682e-22 -8.19589e-06)
(-1.08695e-05 -1.02009e-05 -9.9461e-21 1.87106e-05 4.83543e-22 -7.84111e-06)
(-7.46435e-06 -8.18713e-06 -1.60142e-20 1.3834e-05 -8.45792e-22 -6.36962e-06)
(-4.21532e-06 -5.76359e-06 4.61571e-20 8.62658e-06 1.33179e-21 -4.41126e-06)
(-3.03771e-05 -5.74158e-05 2.01497e-18 7.74869e-05 1.3109e-19 -4.71098e-05)
(-5.85385e-07 -4.59778e-05 1.88314e-17 0.000110424 1.75147e-18 -0.000109839)
(0.000235619 0.000599879 7.8495e-17 -0.000134608 1.03406e-17 -0.000101012)
(0.000881845 0.00333524 -1.73781e-16 -0.000938981 -2.65291e-17 5.71365e-05)
(0.00157066 0.0112125 7.42422e-16 -0.00204688 1.09819e-16 0.000476227)
(0.00672227 0.0279245 -4.86443e-16 -0.00721152 -1.68353e-16 0.000489251)
(-0.00282939 0.10451 -3.29681e-16 -0.00194967 -1.41046e-15 0.00477906)
(0.000222634 -0.000196128 -1.35347e-20 -0.000225649 -2.01606e-20 3.0156e-06)
(0.000184148 -0.000231624 2.65854e-21 -0.000188508 4.23595e-21 4.35982e-06)
(0.000134444 -0.000261247 1.61108e-20 -0.000139278 1.74974e-20 4.83416e-06)
(7.79988e-05 -0.000279186 -9.89662e-20 -8.41634e-05 -1.40665e-19 6.16452e-06)
(1.89322e-05 -0.000283319 -7.24487e-20 -2.6481e-05 -8.47328e-20 7.54881e-06)
(-4.0442e-05 -0.00027307 1.69306e-19 3.16121e-05 2.02667e-19 8.82988e-06)
(-9.48347e-05 -0.000249163 -1.79755e-19 8.42686e-05 -2.23208e-19 1.05661e-05)
(-0.000140347 -0.000213788 -8.12619e-20 0.000127929 -5.40597e-20 1.2418e-05)
(-0.00017474 -0.000169936 -1.93186e-19 0.000160477 -1.44566e-19 1.42627e-05)
(-0.000196679 -0.000121817 -3.59989e-20 0.000180319 -6.55051e-20 1.63604e-05)
(-0.000206279 -7.28691e-05 2.41759e-20 0.000187824 -8.72369e-21 1.84546e-05)
(-0.000204704 -2.62634e-05 -1.32279e-19 0.000184162 -1.75438e-19 2.05422e-05)
(-0.000193971 1.54449e-05 4.30642e-19 0.000171446 2.94944e-19 2.25255e-05)
(-0.000176465 5.07378e-05 -1.41749e-19 0.000152269 -2.47893e-20 2.41963e-05)
(-0.000154503 7.94328e-05 -3.47387e-19 0.000128934 -1.51908e-19 2.55693e-05)
(-0.00013052 0.000100451 2.30334e-19 0.000104582 4.6094e-21 2.59376e-05)
(-0.000106131 0.000113136 -1.6736e-19 8.13168e-05 -9.65294e-20 2.48146e-05)
(-8.17562e-05 0.000118016 2.28533e-21 5.90844e-05 1.22192e-19 2.26718e-05)
(-5.96942e-05 0.00011814 -4.03238e-20 3.96048e-05 -3.16797e-20 2.00894e-05)
(-3.92402e-05 0.000110923 -2.8503e-19 2.26671e-05 -1.96934e-19 1.65731e-05)
(-2.21811e-05 9.47315e-05 1.98234e-19 1.03271e-05 1.92446e-19 1.18539e-05)
(-1.15774e-05 7.54073e-05 3.94494e-21 4.40425e-06 -1.21619e-19 7.17319e-06)
(-6.76656e-06 6.98844e-05 3.843e-20 2.12931e-06 1.1759e-20 4.63725e-06)
(-2.52058e-06 7.9849e-05 1.11652e-19 -1.22072e-06 -5.00065e-21 3.7413e-06)
(3.77674e-06 8.7e-05 -3.76399e-20 -6.75278e-06 -1.19923e-20 2.97604e-06)
(9.48228e-06 8.92173e-05 1.26741e-19 -1.15764e-05 2.02571e-20 2.09413e-06)
(1.27792e-05 8.91713e-05 -6.92975e-21 -1.40015e-05 1.58596e-22 1.22231e-06)
(2.84521e-05 0.000173983 -2.76415e-20 -2.96015e-05 -1.71204e-20 1.14945e-06)
(0.00123653 0.00662154 2.17844e-20 -0.00124807 1.70687e-18 1.15409e-05)
(0.000662634 0.00291108 -8.48172e-18 -0.000656852 7.00236e-19 -5.78195e-06)
(0.00261895 0.00824848 -1.04596e-17 -0.00257527 1.749e-18 -4.36729e-05)
(0.0105706 0.0120054 2.77164e-17 -0.0103437 -1.61765e-16 -0.000226916)
(0.0187385 -0.0985024 5.76207e-16 -0.0179097 -7.07023e-16 -0.000828814)
(-0.0256457 -0.584252 -2.98301e-15 0.0276358 1.58994e-16 -0.00199009)
(-0.182178 -1.48988 4.83461e-15 0.183991 1.81643e-15 -0.00181323)
(-0.400685 -2.39905 -9.96018e-16 0.401395 4.27479e-16 -0.00070992)
(-0.585969 -2.9638 -1.7501e-15 0.582005 3.98551e-15 0.00396353)
(-0.525483 -3.08579 6.73244e-16 0.536115 2.44289e-16 -0.0106321)
(-0.77331 -3.40215 -1.72602e-14 0.73582 4.31266e-15 0.0374902)
(0.000253108 -0.000152902 8.63747e-21 -0.000256266 3.53068e-21 3.15743e-06)
(0.000274184 -0.000106572 -3.12486e-20 -0.000275956 -4.49324e-20 1.7728e-06)
(0.000285724 -4.96652e-05 3.99005e-21 -0.000287343 2.03317e-20 1.61917e-06)
(0.000283464 1.17712e-05 1.70417e-20 -0.000284288 -5.68582e-20 8.23687e-07)
(0.000264476 7.30935e-05 -1.38576e-19 -0.000265052 -1.99266e-19 5.76418e-07)
(0.000228057 0.000127523 -1.41948e-19 -0.000228065 7.28584e-20 8.48342e-09)
(0.00017833 0.000168591 1.98759e-19 -0.000178004 1.03191e-19 -3.25335e-07)
(0.000122699 0.000192328 -6.43112e-20 -0.00012258 -1.86802e-19 -1.19072e-07)
(6.67712e-05 0.00019883 -8.78174e-20 -6.6951e-05 2.49287e-20 1.79777e-07)
(1.59934e-05 0.000188953 -5.98843e-20 -1.6333e-05 -1.03992e-19 3.39578e-07)
(-2.36405e-05 0.000167061 2.09743e-20 2.33371e-05 3.16661e-20 3.03436e-07)
(-5.04749e-05 0.000139406 -3.93064e-20 5.01956e-05 -5.14048e-20 2.79222e-07)
(-6.58569e-05 0.000110987 -8.11803e-20 6.55264e-05 1.0921e-19 3.30486e-07)
(-7.23438e-05 8.47906e-05 8.6106e-20 7.18771e-05 5.0516e-20 4.66761e-07)
(-7.25481e-05 6.24352e-05 7.31689e-20 7.18744e-05 -3.36506e-20 6.7372e-07)
(-6.88982e-05 4.43326e-05 -1.50338e-20 6.79432e-05 -3.01136e-20 9.54974e-07)
(-6.32425e-05 3.0267e-05 4.36826e-20 6.19784e-05 9.72949e-21 1.26412e-06)
(-5.69267e-05 1.95705e-05 -6.47136e-20 5.53454e-05 1.65351e-20 1.58136e-06)
(-5.07691e-05 1.14598e-05 4.58168e-20 4.88921e-05 -1.20504e-21 1.87695e-06)
(-4.5112e-05 5.13604e-06 -6.03069e-20 4.29596e-05 -2.81632e-20 2.15232e-06)
(-4.00221e-05 -2.29947e-08 5.81809e-20 3.7644e-05 4.86281e-21 2.37814e-06)
(-3.53181e-05 -4.52336e-06 7.79909e-20 3.27491e-05 1.70604e-20 2.56901e-06)
(-3.06274e-05 -8.65394e-06 -5.44308e-21 2.79075e-05 7.15666e-21 2.71989e-06)
(-2.53523e-05 -1.22589e-05 -1.46136e-19 2.2432e-05 6.98596e-23 2.92031e-06)
(-1.95036e-05 -1.45491e-05 -5.43769e-20 1.63509e-05 -2.322e-20 3.15276e-06)
(-1.39163e-05 -1.52711e-05 -1.60215e-20 1.05755e-05 2.46902e-20 3.34087e-06)
(-9.03127e-06 -1.50183e-05 5.92788e-20 5.38497e-06 7.36104e-22 3.6463e-06)
(-4.81579e-06 -1.41933e-05 2.13744e-21 7.45434e-07 -4.86903e-22 4.07036e-06)
(-1.23692e-06 -1.3132e-05 -3.35563e-21 -3.32323e-06 2.86656e-22 4.56015e-06)
(1.63629e-06 -1.12933e-05 3.75534e-20 -6.35333e-06 1.73945e-22 4.71704e-06)
(4.36912e-06 -1.18022e-05 3.32643e-20 -1.00253e-05 1.07545e-21 5.65618e-06)
(3.23019e-06 -5.8378e-06 -8.99581e-20 -6.13156e-06 -4.97827e-21 2.90137e-06)
(1.18721e-05 -1.72344e-05 -7.63515e-19 -1.98572e-05 -5.92205e-20 7.98514e-06)
(8.68866e-05 -0.000109112 -1.06772e-18 -0.000129202 -1.30402e-19 4.2315e-05)
(2.45026e-05 -2.67106e-05 2.06807e-19 -3.24316e-05 2.22203e-21 7.92898e-06)
(0.000109765 -8.93078e-05 -1.75231e-18 -0.000127463 6.96246e-19 1.76981e-05)
(0.000366638 -0.000131208 -1.7946e-17 -0.000396193 -1.49331e-17 2.95552e-05)
(0.000937659 0.000212807 5.60551e-17 -0.000915901 4.00246e-18 -2.17576e-05)
(0.0038395 0.0197217 -2.90735e-16 -0.00521323 5.23043e-17 0.00137372)
(0.00018413 -0.000161014 1.18697e-20 -0.000183018 1.37883e-20 -1.11164e-06)
(0.000155879 -0.000189721 -2.9849e-20 -0.000154872 -3.58774e-20 -1.00702e-06)
(0.000118628 -0.000214942 -2.41028e-21 -0.000117023 -4.98743e-21 -1.60467e-06)
(7.60893e-05 -0.00023239 -1.24403e-20 -7.41976e-05 -6.4876e-21 -1.89167e-06)
(3.10361e-05 -0.000239974 9.86365e-20 -2.8767e-05 1.13518e-19 -2.26911e-06)
(-1.54505e-05 -0.000237317 7.56356e-20 1.84272e-05 6.24058e-20 -2.97672e-06)
(-5.93401e-05 -0.00022451 9.61797e-22 6.29576e-05 3.04984e-20 -3.61756e-06)
(-9.76927e-05 -0.000202637 1.87631e-19 0.000102082 1.81804e-19 -4.38913e-06)
(-0.00012879 -0.000173559 -2.34317e-20 0.000134176 -3.12879e-21 -5.38568e-06)