/*--------------------------------*- C++ -*----------------------------------*\
| =========                 |                                                 |
| \\      /  F ield         | OpenFOAM: The Open Source CFD Toolbox           |
|  \\    /   O peration     | Version:  2306                                  |
|   \\  /    A nd           | Website:  www.openfoam.com                      |
|    \\/     M anipulation  |                                                 |
\*---------------------------------------------------------------------------*/
FoamFile
{
    version     2.0;
    format      ascii;
    arch        "LSB;label=32;scalar=64";
    class       volScalarField;
    location    "375";
    object      magR;
}
// * * * * * * * * * * * * * * * * * * * * * * * * * * * * * * * * * * * * * //

dimensions      [0 2 -2 0 0 0 0];

internalField   nonuniform List<scalar> 
1340
(
8.17029e-07
1.60821e-06
1.82048e-07
7.4807e-07
8.14499e-07
1.61056e-06
2.01316e-07
3.23695e-07
1.78387e-07
7.50888e-07
8.14768e-07
1.61129e-06
3.72363e-07
3.27804e-07
3.07546e-07
2.11157e-07
3.31194e-07
1.76227e-07
7.53929e-07
8.16991e-07
1.61117e-06
5.32369e-07
4.93404e-07
4.61525e-07
4.31853e-07
4.00927e-07
3.7179e-07
3.29416e-07
3.11114e-07
2.21712e-07
3.38413e-07
1.75368e-07
7.57088e-07
8.20525e-07
1.61069e-06
7.47076e-07
7.00398e-07
6.53796e-07
6.08375e-07
5.63834e-07
5.2195e-07
4.85615e-07
4.55928e-07
4.28103e-07
3.98961e-07
3.71397e-07
3.31407e-07
3.15114e-07
2.32824e-07
3.45185e-07
1.75694e-07
7.60094e-07
8.24835e-07
1.60996e-06
1.01672e-06
9.73143e-07
9.29741e-07
8.86812e-07
8.44455e-07
8.02524e-07
7.60602e-07
7.1833e-07
6.75677e-07
6.33006e-07
5.91343e-07
5.50248e-07
5.11444e-07
4.77815e-07
4.50336e-07
4.2438e-07
3.97085e-07
3.71126e-07
3.33729e-07
3.19478e-07
2.4438e-07
3.51393e-07
1.77106e-07
7.62889e-07
8.29501e-07
1.60867e-06
1.37057e-06
1.33915e-06
1.30688e-06
1.27384e-06
1.24017e-06
1.20593e-06
1.17122e-06
1.13611e-06
1.10064e-06
1.06472e-06
1.02829e-06
9.91293e-07
9.53783e-07
9.15903e-07
8.77934e-07
8.40134e-07
8.02583e-07
7.65166e-07
7.2753e-07
6.89407e-07
6.50803e-07
6.12087e-07
5.74203e-07
5.36579e-07
5.00917e-07
4.70036e-07
4.4476e-07
4.20684e-07
3.95283e-07
3.70964e-07
3.36365e-07
3.2417e-07
2.56287e-07
3.56916e-07
1.79529e-07
7.65368e-07
8.33914e-07
1.60722e-06
1.34664e-06
1.39805e-06
1.23263e-06
1.26859e-06
1.26937e-06
1.32675e-06
1.35766e-06
1.3882e-06
1.41479e-06
1.43988e-06
1.46294e-06
1.48388e-06
1.50214e-06
1.51783e-06
1.53149e-06
1.54237e-06
1.55085e-06
1.557e-06
1.56091e-06
1.56276e-06
1.56256e-06
1.56045e-06
1.55667e-06
1.55134e-06
1.54455e-06
1.53641e-06
1.52709e-06
1.51673e-06
1.50529e-06
1.49298e-06
1.47974e-06
1.46568e-06
1.45084e-06
1.43519e-06
1.4188e-06
1.40164e-06
1.38367e-06
1.36497e-06
1.34541e-06
1.325e-06
1.3038e-06
1.28168e-06
1.25867e-06
1.23472e-06
1.20991e-06
1.18422e-06
1.1577e-06
1.13048e-06
1.10259e-06
1.07413e-06
1.0452e-06
1.01577e-06
9.85786e-07
9.55205e-07
9.2393e-07
8.92008e-07
8.5954e-07
8.26753e-07
7.93868e-07
7.60962e-07
7.27943e-07
6.94523e-07
6.60508e-07
6.25939e-07
5.91173e-07
5.57049e-07
5.22898e-07
4.90417e-07
4.62301e-07
4.39203e-07
4.1701e-07
3.93537e-07
3.70894e-07
3.39297e-07
3.29164e-07
2.68468e-07
3.61688e-07
1.82861e-07
7.67267e-07
8.37834e-07
1.60583e-06
1.38992e-06
1.10127e-06
1.00743e-06
1.10126e-06
1.12197e-06
1.15814e-06
1.18023e-06
1.20466e-06
1.22646e-06
1.24712e-06
1.26595e-06
1.2829e-06
1.29787e-06
1.31086e-06
1.32207e-06
1.3311e-06
1.33825e-06
1.3437e-06
1.34731e-06
1.34926e-06
1.34969e-06
1.34864e-06
1.34628e-06
1.34274e-06
1.33806e-06
1.33238e-06
1.32586e-06
1.31844e-06
1.31027e-06
1.30143e-06
1.29188e-06
1.28174e-06
1.27096e-06
1.2596e-06
1.24765e-06
1.23506e-06
1.22187e-06
1.20804e-06
1.19351e-06
1.17826e-06
1.16227e-06
1.14551e-06
1.12789e-06
1.10941e-06
1.09012e-06
1.06994e-06
1.04898e-06
1.02729e-06
1.00492e-06
9.81982e-07
9.58525e-07
9.3453e-07
9.09948e-07
8.84724e-07
8.58734e-07
8.32e-07
8.04578e-07
7.76661e-07
7.48428e-07
7.19947e-07
6.91163e-07
6.61848e-07
6.31864e-07
6.01269e-07
5.70401e-07
5.39993e-07
5.0928e-07
4.79993e-07
4.54628e-07
4.3366e-07
4.13346e-07
3.91824e-07
3.70908e-07
3.42502e-07
3.34438e-07
2.80819e-07
3.65664e-07
1.86876e-07
7.68922e-07
8.40807e-07
1.60509e-06
1.05617e-06
9.28322e-07
8.95136e-07
9.788e-07
9.88374e-07
1.01364e-06
1.0317e-06
1.05105e-06
1.0686e-06
1.085e-06
1.09969e-06
1.11322e-06
1.12508e-06
1.13538e-06
1.14419e-06
1.15146e-06
1.15721e-06
1.16171e-06
1.16478e-06
1.16648e-06
1.16714e-06
1.16669e-06
1.16524e-06
1.16279e-06
1.15962e-06
1.15572e-06
1.15109e-06
1.14587e-06
1.1401e-06
1.13382e-06
1.12706e-06
1.11986e-06
1.11219e-06
1.1041e-06
1.09558e-06
1.08659e-06
1.07712e-06
1.06714e-06
1.05662e-06
1.04548e-06
1.03372e-06
1.02129e-06
1.00807e-06
9.94135e-07
9.79406e-07
9.63852e-07
9.47605e-07
9.30644e-07
9.13064e-07
8.94945e-07
8.76318e-07
8.57176e-07
8.37473e-07
8.17103e-07
7.95934e-07
7.73971e-07
7.51225e-07
7.27825e-07
7.03948e-07
6.79667e-07
6.54937e-07
6.29593e-07
6.03529e-07
5.76841e-07
5.498e-07
5.23023e-07
4.95718e-07
4.69633e-07
4.46979e-07
4.28078e-07
4.09657e-07
3.90107e-07
3.70983e-07
3.45979e-07
3.39988e-07
2.93248e-07
3.68871e-07
1.91554e-07
7.693e-07
8.43514e-07
1.60549e-06
8.98611e-07
8.30239e-07
8.05208e-07
8.66067e-07
8.71058e-07
8.91022e-07
9.05377e-07
9.20417e-07
9.33953e-07
9.46601e-07
9.57976e-07
9.68372e-07
9.77525e-07
9.85477e-07
9.92297e-07
9.98005e-07
1.00251e-06
1.00609e-06
1.00859e-06
1.0101e-06
1.01082e-06
1.01074e-06
1.00987e-06
1.00831e-06
1.0063e-06
1.00361e-06
1.00047e-06
9.96966e-07
9.92996e-07
9.887e-07
9.84047e-07
9.7913e-07
9.73833e-07
9.68285e-07
9.62414e-07
9.56186e-07
9.49618e-07
9.42659e-07
9.35243e-07
9.2736e-07
9.18943e-07
9.09931e-07
9.00283e-07
8.89981e-07
8.78948e-07
8.67238e-07
8.54879e-07
8.41889e-07
8.28375e-07
8.14378e-07
7.99943e-07
7.85043e-07
7.69641e-07
7.53551e-07
7.36697e-07
7.19024e-07
7.00451e-07
6.81176e-07
6.61307e-07
6.40892e-07
6.19971e-07
5.984e-07
5.7607e-07
5.53124e-07
5.2976e-07
5.0647e-07
4.82473e-07
4.59513e-07
4.39491e-07
4.22576e-07
4.06018e-07
3.88429e-07
3.71175e-07
3.49722e-07
3.45812e-07
3.05472e-07
3.71408e-07
1.9597e-07
7.68934e-07
8.44665e-07
1.60938e-06
7.95147e-07
7.35739e-07
7.11226e-07
7.57864e-07
7.61542e-07
7.77086e-07
7.87991e-07
7.99397e-07
8.0946e-07
8.19108e-07
8.27727e-07
8.35523e-07
8.42537e-07
8.48515e-07
8.53748e-07
8.58229e-07
8.6175e-07
8.64529e-07
8.66649e-07
8.68034e-07
8.68848e-07
8.69049e-07
8.68713e-07
8.67976e-07
8.66794e-07
8.65191e-07
8.63406e-07
8.6126e-07
8.58778e-07
8.56076e-07
8.53314e-07
8.50238e-07
8.47016e-07
8.4348e-07
8.39801e-07
8.36088e-07
8.31824e-07
8.27369e-07
8.22625e-07
8.17517e-07
8.11868e-07
8.05829e-07
7.99214e-07
7.91952e-07
7.8422e-07
7.75781e-07
7.66818e-07
7.57375e-07
7.47408e-07
7.37136e-07
7.26458e-07
7.15377e-07
7.03909e-07
6.91747e-07
6.78813e-07
6.65122e-07
6.50452e-07
6.34988e-07
6.18941e-07
6.02209e-07
5.84943e-07
5.67085e-07
5.48433e-07
5.29173e-07
5.09457e-07
4.89658e-07
4.68962e-07
4.49161e-07
4.31771e-07
4.16861e-07
4.02196e-07
3.86642e-07
3.71453e-07
3.53779e-07
3.52093e-07
3.17861e-07
3.73243e-07
2.04243e-07
7.64161e-07
8.49083e-07
1.61364e-06
6.80096e-07
6.29205e-07
6.07069e-07
6.42936e-07
6.4446e-07
6.55926e-07
6.63202e-07
6.7049e-07
6.78172e-07
6.84335e-07
6.90153e-07
6.96082e-07
7.00711e-07
7.04695e-07
7.08717e-07
7.12168e-07
7.14311e-07
7.16795e-07
7.1853e-07
7.19799e-07
7.2088e-07
7.21194e-07
7.21625e-07
7.21762e-07
7.21351e-07
7.20964e-07
7.20441e-07
7.19694e-07
7.18828e-07
7.17642e-07
7.16759e-07
7.15685e-07
7.14375e-07
7.12786e-07
7.11562e-07
7.10101e-07
7.08178e-07
7.0617e-07
7.04068e-07
7.01657e-07
6.98708e-07
6.95672e-07
6.91834e-07
6.87692e-07
6.83238e-07
6.77935e-07
6.72427e-07
6.66586e-07
6.60156e-07
6.53718e-07
6.46911e-07
6.39714e-07
6.32375e-07
6.24265e-07
6.1539e-07
6.05824e-07
5.95312e-07
5.83847e-07
5.71853e-07
5.59173e-07
5.45924e-07
5.32143e-07
5.17584e-07
5.02456e-07
4.86801e-07
4.70852e-07
4.5386e-07
4.37628e-07
4.23122e-07
4.10401e-07
3.97894e-07
3.84704e-07
3.71971e-07
3.58855e-07
3.59176e-07
3.32433e-07
3.71741e-07
2.2032e-07
7.49685e-07
8.4124e-07
1.55938e-06
5.58216e-07
5.22325e-07
5.05862e-07
5.30132e-07
5.30314e-07
5.37807e-07
5.416e-07
5.46049e-07
5.50951e-07
5.54303e-07
5.58066e-07
5.61899e-07
5.64552e-07
5.67025e-07
5.70018e-07
5.72249e-07
5.73582e-07
5.75773e-07
5.76893e-07
5.78298e-07
5.79569e-07
5.79883e-07
5.80944e-07
5.81891e-07
5.82073e-07
5.82707e-07
5.83071e-07
5.83498e-07
5.84065e-07
5.84268e-07
5.84668e-07
5.85268e-07
5.85481e-07
5.85685e-07
5.86386e-07
5.86565e-07
5.86702e-07
5.86796e-07
5.86819e-07
5.86513e-07
5.86015e-07
5.85245e-07
5.83926e-07
5.82626e-07
5.80702e-07
5.78406e-07
5.76055e-07
5.73385e-07
5.70418e-07
5.67503e-07
5.64452e-07
5.61052e-07
5.57582e-07
5.53441e-07
5.48596e-07
5.4303e-07
5.36579e-07
5.29244e-07
5.21388e-07
5.1293e-07
5.03958e-07
4.94478e-07
4.84327e-07
4.73605e-07
4.62244e-07
4.50415e-07
4.37462e-07
4.25048e-07
4.13599e-07
4.03251e-07
3.93148e-07
3.82661e-07
3.72954e-07
3.64995e-07
3.67523e-07
3.47984e-07
3.69115e-07
2.3789e-07
7.4903e-07
8.34327e-07
1.55714e-06
4.55926e-07
4.29469e-07
4.16023e-07
4.33142e-07
4.32791e-07
4.36732e-07
4.39096e-07
4.42372e-07
4.44077e-07
4.46613e-07
4.49287e-07
4.51102e-07
4.52812e-07
4.54664e-07
4.56777e-07
4.5788e-07
4.59447e-07
4.60967e-07
4.61776e-07
4.63376e-07
4.6466e-07
4.6524e-07
4.66579e-07
4.67784e-07
4.68462e-07
4.69929e-07
4.70855e-07
4.71897e-07
4.73333e-07
4.74509e-07
4.75683e-07
4.77317e-07
4.78545e-07
4.79932e-07
4.81696e-07
4.83019e-07
4.84448e-07
4.8594e-07
4.87263e-07
4.88357e-07
4.89478e-07
4.90197e-07
4.90807e-07
4.91314e-07
4.91273e-07
4.91296e-07
4.91263e-07
4.91032e-07
4.90821e-07
4.90644e-07
4.90576e-07
4.90262e-07
4.89777e-07
4.88921e-07
4.87309e-07
4.8505e-07
4.82035e-07
4.78234e-07
4.74045e-07
4.69345e-07
4.64215e-07
4.587e-07
4.52591e-07
4.45873e-07
4.38523e-07
4.30553e-07
4.21443e-07
4.1266e-07
4.04118e-07
3.96121e-07
3.88503e-07
3.80851e-07
3.74558e-07
3.71798e-07
3.768e-07
3.6281e-07
3.6805e-07
2.55414e-07
7.56002e-07
8.12767e-07
1.55666e-06
3.7179e-07
3.32449e-07
3.49815e-07
3.36831e-07
3.51654e-07
3.49814e-07
3.52185e-07
3.54168e-07
3.56002e-07
3.5692e-07
3.58574e-07
3.60415e-07
3.61701e-07
3.62778e-07
3.64341e-07
3.6598e-07
3.66686e-07
3.6834e-07
3.69601e-07
3.70631e-07
3.72265e-07
3.73379e-07
3.74712e-07
3.76079e-07
3.77518e-07
3.78933e-07
3.80637e-07
3.82199e-07
3.83739e-07
3.85768e-07
3.87604e-07
3.8939e-07
3.91743e-07
3.93655e-07
3.95863e-07
3.98358e-07
4.00406e-07
4.0276e-07
4.0513e-07
4.07272e-07
4.09445e-07
4.11521e-07
4.13417e-07
4.15294e-07
4.1695e-07
4.18539e-07
4.20137e-07
4.21767e-07
4.23459e-07
4.25259e-07
4.2715e-07
4.29232e-07
4.31175e-07
4.32912e-07
4.34418e-07
4.3519e-07
4.35434e-07
4.35082e-07
4.34067e-07
4.32811e-07
4.31208e-07
4.29258e-07
4.27041e-07
4.24301e-07
4.20975e-07
4.1705e-07
4.1243e-07
4.06709e-07
4.01124e-07
3.95182e-07
3.89397e-07
3.84239e-07
3.79467e-07
3.76839e-07
3.79122e-07
3.86509e-07
3.76315e-07
3.68216e-07
2.76865e-07
7.66881e-07
7.85124e-07
1.55579e-06
3.00813e-07
2.68071e-07
2.81453e-07
2.701e-07
2.82793e-07
2.80696e-07
2.82817e-07
2.83611e-07
2.85064e-07
2.86136e-07
2.86844e-07
2.88289e-07
2.89367e-07
2.90571e-07
2.91728e-07
2.92917e-07
2.93938e-07
2.9546e-07
2.96823e-07
2.97992e-07
2.99438e-07
3.00787e-07
3.02666e-07
3.04036e-07
3.05809e-07
3.07589e-07
3.09427e-07
3.11631e-07
3.13496e-07
3.15857e-07
3.18104e-07
3.20526e-07
3.23194e-07
3.25639e-07
3.28399e-07
3.31321e-07
3.34049e-07
3.36862e-07
3.39879e-07
3.42702e-07
3.45573e-07
3.48451e-07
3.51158e-07
3.53977e-07
3.56708e-07
3.59511e-07
3.62364e-07
3.65312e-07
3.68528e-07
3.71893e-07
3.75325e-07
3.78993e-07
3.82597e-07
3.85954e-07
3.89189e-07
3.91764e-07
3.93898e-07
3.95628e-07
3.96877e-07
3.97994e-07
3.98899e-07
3.99578e-07
4.00039e-07
4.00094e-07
3.99597e-07
3.98531e-07
3.96789e-07
3.94019e-07
3.91211e-07
3.87583e-07
3.8389e-07
3.81102e-07
3.79205e-07
3.80351e-07
3.87357e-07
3.96752e-07
3.88866e-07
3.70537e-07
3.05747e-07
7.81797e-07
7.52789e-07
1.55609e-06
2.40008e-07
2.13613e-07
2.23328e-07
2.14005e-07
2.24486e-07
2.23072e-07
2.24715e-07
2.25508e-07
2.26992e-07
2.27484e-07
2.28521e-07
2.29994e-07
2.30845e-07
2.3217e-07
2.33409e-07
2.34437e-07
2.35931e-07
2.37385e-07
2.38915e-07
2.40181e-07
2.41854e-07
2.4369e-07
2.45361e-07
2.47193e-07
2.49298e-07
2.51097e-07
2.53426e-07
2.55858e-07
2.5791e-07
2.60588e-07
2.63089e-07
2.65879e-07
2.68737e-07
2.71422e-07
2.74517e-07
2.77764e-07
2.80674e-07
2.83873e-07
2.87245e-07
2.90408e-07
2.93676e-07
2.97143e-07
3.00346e-07
3.0375e-07
3.07359e-07
3.10881e-07
3.14676e-07
3.18577e-07
3.22814e-07
3.27189e-07
3.31655e-07
3.36412e-07
3.41041e-07
3.45513e-07
3.49933e-07
3.53818e-07
3.57393e-07
3.6076e-07
3.6384e-07
3.66884e-07
3.69797e-07
3.72626e-07
3.75311e-07
3.77626e-07
3.79502e-07
3.8085e-07
3.81554e-07
3.81332e-07
3.80869e-07
3.79287e-07
3.77635e-07
3.77248e-07
3.78309e-07
3.83334e-07
3.94556e-07
4.05033e-07
3.97672e-07
3.72594e-07
3.39135e-07
8.00361e-07
7.13017e-07
1.56067e-06
2.01304e-07
1.80338e-07
1.88452e-07
1.80348e-07
1.89348e-07
1.88067e-07
1.88905e-07
1.90118e-07
1.91032e-07
1.91371e-07
1.92467e-07
1.93597e-07
1.94368e-07
1.95303e-07
1.96567e-07
1.97473e-07
1.989e-07
2.00223e-07
2.01351e-07
2.02692e-07
2.04385e-07
2.06091e-07
2.07463e-07
2.09192e-07
2.11458e-07
2.13061e-07
2.15244e-07
2.17577e-07
2.19702e-07
2.22175e-07
2.2473e-07
2.27418e-07
2.30228e-07
2.32994e-07
2.36124e-07
2.39328e-07
2.42362e-07
2.45797e-07
2.49268e-07
2.52784e-07
2.56285e-07
2.6019e-07
2.63921e-07
2.67888e-07
2.72128e-07
2.76251e-07
2.80852e-07
2.85442e-07
2.9033e-07
2.95387e-07
3.00552e-07
3.05921e-07
3.1119e-07
3.16487e-07
3.21667e-07
3.26557e-07
3.31311e-07
3.3595e-07
3.40461e-07
3.45013e-07
3.49471e-07
3.5394e-07
3.5832e-07
3.62363e-07
3.66142e-07
3.69444e-07
3.72147e-07
3.74082e-07
3.75694e-07
3.76027e-07
3.76188e-07
3.77789e-07
3.81296e-07
3.89579e-07
4.03924e-07
4.14693e-07
4.07919e-07
3.83188e-07
3.88411e-07
8.29061e-07
6.76004e-07
1.582e-06
1.64171e-07
1.46376e-07
1.52927e-07
1.45752e-07
1.54987e-07
1.53693e-07
1.55097e-07
1.56315e-07
1.56749e-07
1.57464e-07
1.58979e-07
1.6018e-07
1.61177e-07
1.62084e-07
1.63436e-07
1.64879e-07
1.66335e-07
1.67595e-07
1.68775e-07
1.70783e-07
1.72338e-07
1.74023e-07
1.75696e-07
1.77405e-07
1.79785e-07
1.81591e-07
1.83667e-07
1.85901e-07
1.88246e-07
1.90652e-07
1.9302e-07
1.95802e-07
1.9835e-07
2.01134e-07
2.0417e-07
2.07106e-07
2.1016e-07
2.1331e-07
2.16811e-07
2.20231e-07
2.23631e-07
2.27514e-07
2.31319e-07
2.35301e-07
2.39472e-07
2.43799e-07
2.48337e-07
2.52953e-07
2.5779e-07
2.62756e-07
2.67928e-07
2.73153e-07
2.78496e-07
2.83923e-07
2.89284e-07
2.94611e-07
2.99975e-07
3.05346e-07
3.10698e-07
3.16206e-07
3.21688e-07
3.27279e-07
3.32836e-07
3.3817e-07
3.43358e-07
3.48098e-07
3.52309e-07
3.55812e-07
3.58615e-07
3.6011e-07
3.62106e-07
3.6614e-07
3.72887e-07
3.85202e-07
4.02123e-07
4.1056e-07
4.00165e-07
3.77228e-07
4.20667e-07
8.46844e-07
6.13276e-07
1.61909e-06
1.73511e-07
1.61205e-07
1.65858e-07
1.60637e-07
1.6517e-07
1.64187e-07
1.65278e-07
1.65849e-07
1.65686e-07
1.66136e-07
1.67102e-07
1.67896e-07
1.68393e-07
1.68727e-07
1.6962e-07
1.70564e-07
1.71365e-07
1.72136e-07
1.72815e-07
1.7427e-07
1.7529e-07
1.76233e-07
1.7746e-07
1.78741e-07
1.8036e-07
1.81771e-07
1.83408e-07
1.85065e-07
1.87017e-07
1.8905e-07
1.9105e-07
1.93542e-07
1.95843e-07
1.98562e-07
2.01434e-07
2.04425e-07
2.07606e-07
2.1094e-07
2.14749e-07
2.18426e-07
2.22427e-07
2.26663e-07
2.3093e-07
2.3534e-07
2.39896e-07
2.44556e-07
2.49126e-07
2.53896e-07
2.58665e-07
2.63533e-07
2.68662e-07
2.73877e-07
2.79408e-07
2.85068e-07
2.90912e-07
2.96831e-07
3.02804e-07
3.08791e-07
3.14637e-07
3.20547e-07
3.26373e-07
3.32294e-07
3.38233e-07
3.441e-07
3.49911e-07
3.55402e-07
3.60576e-07
3.6533e-07
3.6993e-07
3.73324e-07
3.76116e-07
3.8019e-07
3.86496e-07
3.97901e-07
4.13268e-07
4.20187e-07
4.15155e-07
4.14285e-07
5.10576e-07
8.95258e-07
6.34008e-07
1.77978e-06
1.32333e-07
1.33786e-07
1.32291e-07
1.35272e-07
1.36613e-07
1.37052e-07
1.3781e-07
1.38349e-07
1.39204e-07
1.40115e-07
1.40666e-07
1.41563e-07
1.42467e-07
1.43419e-07
1.44349e-07
1.45252e-07
1.46365e-07
1.47417e-07
1.48498e-07
1.49721e-07
1.50832e-07
1.5214e-07
1.53366e-07
1.5469e-07
1.5613e-07
1.57609e-07
1.59112e-07
1.60632e-07
1.62355e-07
1.64025e-07
1.65831e-07
1.67732e-07
1.69624e-07
1.71739e-07
1.73837e-07
1.76118e-07
1.78446e-07
1.80878e-07
1.83444e-07
1.85977e-07
1.8869e-07
1.91387e-07
1.94091e-07
1.96798e-07
1.99568e-07
2.02264e-07
2.04972e-07
2.07813e-07
2.10708e-07
2.13854e-07
2.17212e-07
2.20855e-07
2.24824e-07
2.28974e-07
2.33407e-07
2.37973e-07
2.42746e-07
2.4765e-07
2.5267e-07
2.58012e-07
2.63524e-07
2.69323e-07
2.75282e-07
2.81315e-07
2.87351e-07
2.93076e-07
2.98469e-07
3.03271e-07
3.05988e-07
3.07101e-07
3.11102e-07
3.19417e-07
3.324e-07
3.52133e-07
3.70581e-07
3.68274e-07
3.46869e-07
3.54141e-07
4.99961e-07
7.63746e-07
5.75822e-07
1.79265e-06
)
;

boundaryField
{
    inlet
    {
        type            calculated;
        value           nonuniform List<scalar> 
23
(
6.78299e-06
6.74897e-06
6.71597e-06
6.68393e-06
6.65218e-06
6.61995e-06
6.58632e-06
6.55062e-06
6.51189e-06
6.46933e-06
6.42182e-06
6.36976e-06
6.30996e-06
6.21617e-06
6.1378e-06
6.04259e-06
5.9243e-06
5.78019e-06
5.60696e-06
5.40384e-06
5.16223e-06
4.97836e-06
4.62619e-06
)
;
    }
    outlet
    {
        type            calculated;
        value           nonuniform List<scalar> 
82
(
1.05573e-07
1.05321e-07
1.07561e-07
1.088e-07
1.10263e-07
1.10599e-07
1.11311e-07
1.11761e-07
1.1258e-07
1.13459e-07
1.13904e-07
1.14749e-07
1.15605e-07
1.16502e-07
1.17374e-07
1.18202e-07
1.19273e-07
1.20267e-07
1.21282e-07
1.22467e-07
1.23504e-07
1.24761e-07
1.25921e-07
1.27179e-07
1.28565e-07
1.2998e-07
1.31412e-07
1.32841e-07
1.34494e-07
1.36062e-07
1.37757e-07
1.39546e-07
1.41284e-07
1.43258e-07
1.45168e-07
1.47254e-07
1.49356e-07
1.51536e-07
1.53836e-07
1.56051e-07
1.5845e-07
1.60803e-07
1.63142e-07
1.65474e-07
1.67882e-07
1.70213e-07
1.7257e-07
1.75103e-07
1.77704e-07
1.80593e-07
1.83699e-07
1.8708e-07
1.90765e-07
1.94572e-07
1.98629e-07
2.02791e-07
2.07189e-07
2.11795e-07
2.16635e-07
2.2197e-07
2.27613e-07
2.33648e-07
2.39884e-07
2.46181e-07
2.5246e-07
2.58349e-07
2.63745e-07
2.68213e-07
2.69983e-07
2.70196e-07
2.74365e-07
2.84025e-07
2.99815e-07
3.23604e-07
3.45134e-07
3.41096e-07
3.0944e-07
3.03267e-07
4.48036e-07
7.34282e-07
4.68533e-07
1.62422e-06
)
;
    }
    walls
    {
        type            calculated;
        value           nonuniform List<scalar> 0();
    }
    frontAndBack
    {
        type            empty;
    }
    procBoundary3to2
    {
        type            processor;
        value           nonuniform List<scalar> 
88
(
8.22955e-07
1.6052e-06
1.87199e-07
7.44922e-07
7.44922e-07
1.92299e-07
3.16018e-07
3.16018e-07
3.73216e-07
3.26656e-07
3.04511e-07
3.04511e-07
5.42723e-07
5.01212e-07
4.67171e-07
4.35679e-07
4.03037e-07
4.03037e-07
7.75434e-07
7.24783e-07
6.74318e-07
6.25191e-07
5.77255e-07
5.77255e-07
1.08022e-06
1.03074e-06
9.81725e-07
9.33519e-07
8.86247e-07
8.39734e-07
7.93496e-07
7.93496e-07
1.51649e-06
1.47717e-06
1.43714e-06
1.39655e-06
1.35545e-06
1.31401e-06
1.2723e-06
1.23038e-06
1.18829e-06
1.14593e-06
1.10324e-06
1.06015e-06
1.06015e-06
1.03561e-06
1.54355e-06
1.62768e-06
1.47704e-06
1.52308e-06
1.5706e-06
1.61057e-06
1.64415e-06
1.67395e-06
1.70062e-06
1.72555e-06
1.74717e-06
1.76556e-06
1.7812e-06
1.79353e-06
1.80307e-06
1.80956e-06
1.81312e-06
1.81414e-06
1.8126e-06
1.80872e-06
1.80267e-06
1.79453e-06
1.78462e-06
1.77311e-06
1.75993e-06
1.7454e-06
1.72962e-06
1.71263e-06
1.69452e-06
1.6753e-06
1.65517e-06
1.63399e-06
1.61182e-06
1.58883e-06
1.56479e-06
1.53988e-06
1.51403e-06
1.48718e-06
1.45946e-06
1.43078e-06
1.40113e-06
1.40113e-06
)
;
    }
    procBoundary3to6
    {
        type            processor;
        value           uniform 7.38294e-08;
    }
    procBoundary3to7
    {
        type            processor;
        value           nonuniform List<scalar> 
16
(
1.16289e-08
9.42744e-07
9.69291e-07
7.51075e-07
6.56306e-07
5.77774e-07
4.88774e-07
4.06236e-07
4.06236e-07
3.29226e-07
2.66035e-07
2.11777e-07
1.7857e-07
1.4604e-07
1.58141e-07
1.35804e-07
)
;
    }
}


// ************************************************************************* //
