/*--------------------------------*- C++ -*----------------------------------*\
| =========                 |                                                 |
| \\      /  F ield         | OpenFOAM: The Open Source CFD Toolbox           |
|  \\    /   O peration     | Version:  2306                                  |
|   \\  /    A nd           | Website:  www.openfoam.com                      |
|    \\/     M anipulation  |                                                 |
\*---------------------------------------------------------------------------*/
FoamFile
{
    version     2.0;
    format      ascii;
    arch        "LSB;label=32;scalar=64";
    class       volScalarField;
    location    "375";
    object      turbulenceProperties:nut;
}
// * * * * * * * * * * * * * * * * * * * * * * * * * * * * * * * * * * * * * //

dimensions      [0 2 -1 0 0 0 0];

internalField   nonuniform List<scalar> 
1340
(
6.14789e-06
6.12038e-06
6.12291e-06
6.124e-06
6.14982e-06
6.12066e-06
6.12946e-06
6.13102e-06
6.12343e-06
6.12589e-06
6.15186e-06
6.12086e-06
6.10904e-06
6.11372e-06
6.12194e-06
6.13075e-06
6.13171e-06
6.12399e-06
6.12797e-06
6.15398e-06
6.12095e-06
6.09885e-06
6.10256e-06
6.10478e-06
6.10624e-06
6.10756e-06
6.10982e-06
6.11484e-06
6.12341e-06
6.1321e-06
6.13242e-06
6.1246e-06
6.13027e-06
6.15619e-06
6.12093e-06
6.07727e-06
6.08104e-06
6.08548e-06
6.09025e-06
6.09505e-06
6.09971e-06
6.10336e-06
6.10549e-06
6.10688e-06
6.10822e-06
6.11068e-06
6.11606e-06
6.12497e-06
6.13348e-06
6.13312e-06
6.12526e-06
6.13279e-06
6.15847e-06
6.12077e-06
6.07937e-06
6.07669e-06
6.07433e-06
6.07263e-06
6.07198e-06
6.07275e-06
6.07479e-06
6.0778e-06
6.08171e-06
6.08626e-06
6.0911e-06
6.09594e-06
6.10061e-06
6.1042e-06
6.10623e-06
6.10756e-06
6.10893e-06
6.1116e-06
6.1174e-06
6.12664e-06
6.13491e-06
6.13382e-06
6.12598e-06
6.13556e-06
6.16083e-06
6.12045e-06
6.0975e-06
6.09638e-06
6.0953e-06
6.09426e-06
6.09325e-06
6.09223e-06
6.09116e-06
6.08994e-06
6.08846e-06
6.08663e-06
6.08441e-06
6.08184e-06
6.07908e-06
6.07639e-06
6.07408e-06
6.07249e-06
6.07201e-06
6.07299e-06
6.07521e-06
6.07839e-06
6.08244e-06
6.0871e-06
6.09201e-06
6.09688e-06
6.10155e-06
6.10507e-06
6.10699e-06
6.10826e-06
6.10969e-06
6.11261e-06
6.11885e-06
6.12842e-06
6.13637e-06
6.1345e-06
6.12679e-06
6.13861e-06
6.16323e-06
6.11995e-06
5.76705e-06
7.73263e-06
6.90517e-06
6.04913e-06
5.99474e-06
6.12692e-06
6.15237e-06
6.15013e-06
6.14464e-06
6.13815e-06
6.13473e-06
6.13191e-06
6.12899e-06
6.12637e-06
6.12407e-06
6.12197e-06
6.12008e-06
6.11841e-06
6.11694e-06
6.11565e-06
6.11452e-06
6.11356e-06
6.11273e-06
6.11202e-06
6.11141e-06
6.11087e-06
6.1104e-06
6.10995e-06
6.10951e-06
6.10906e-06
6.1086e-06
6.10811e-06
6.10758e-06
6.10699e-06
6.10635e-06
6.10564e-06
6.10485e-06
6.10399e-06
6.10305e-06
6.10205e-06
6.101e-06
6.0999e-06
6.09877e-06
6.09765e-06
6.09654e-06
6.09547e-06
6.09444e-06
6.09343e-06
6.09241e-06
6.09131e-06
6.09003e-06
6.08847e-06
6.08654e-06
6.08422e-06
6.08156e-06
6.07876e-06
6.07608e-06
6.07383e-06
6.07236e-06
6.07208e-06
6.07329e-06
6.07568e-06
6.07903e-06
6.08323e-06
6.088e-06
6.09297e-06
6.09788e-06
6.10255e-06
6.10598e-06
6.10778e-06
6.109e-06
6.1105e-06
6.11372e-06
6.12043e-06
6.13031e-06
6.13786e-06
6.13517e-06
6.12768e-06
6.14194e-06
6.16566e-06
6.11924e-06
8.00831e-06
6.52763e-06
6.06399e-06
6.01079e-06
6.1337e-06
6.15973e-06
6.14919e-06
6.14312e-06
6.13799e-06
6.13453e-06
6.132e-06
6.12935e-06
6.12689e-06
6.12471e-06
6.12272e-06
6.12091e-06
6.11929e-06
6.11785e-06
6.11658e-06
6.11547e-06
6.1145e-06
6.11367e-06
6.11295e-06
6.11232e-06
6.11178e-06
6.11129e-06
6.11083e-06
6.11039e-06
6.10995e-06
6.1095e-06
6.10903e-06
6.10852e-06
6.10796e-06
6.10735e-06
6.10667e-06
6.10593e-06
6.10511e-06
6.10422e-06
6.10326e-06
6.10223e-06
6.10116e-06
6.10004e-06
6.09892e-06
6.09779e-06
6.0967e-06
6.09564e-06
6.09462e-06
6.09361e-06
6.09258e-06
6.09144e-06
6.0901e-06
6.08845e-06
6.08641e-06
6.08398e-06
6.08125e-06
6.07841e-06
6.07574e-06
6.07357e-06
6.07225e-06
6.07219e-06
6.07363e-06
6.07621e-06
6.07974e-06
6.08409e-06
6.08896e-06
6.09399e-06
6.09894e-06
6.10359e-06
6.10691e-06
6.1086e-06
6.10977e-06
6.11138e-06
6.11494e-06
6.12216e-06
6.13231e-06
6.13937e-06
6.13582e-06
6.12869e-06
6.14558e-06
6.16809e-06
6.1183e-06
6.3366e-06
6.04058e-06
6.06073e-06
6.13617e-06
6.162e-06
6.14797e-06
6.14059e-06
6.13692e-06
6.1339e-06
6.13159e-06
6.12928e-06
6.12703e-06
6.12501e-06
6.12317e-06
6.12148e-06
6.11996e-06
6.1186e-06
6.11738e-06
6.11631e-06
6.11537e-06
6.11455e-06
6.11383e-06
6.11321e-06
6.11266e-06
6.11217e-06
6.11171e-06
6.11127e-06
6.11084e-06
6.1104e-06
6.10994e-06
6.10944e-06
6.10891e-06
6.10833e-06
6.10769e-06
6.10698e-06
6.1062e-06
6.10535e-06
6.10443e-06
6.10344e-06
6.10239e-06
6.1013e-06
6.10018e-06
6.09905e-06
6.09794e-06
6.09685e-06
6.09581e-06
6.0948e-06
6.0938e-06
6.09275e-06
6.09156e-06
6.09014e-06
6.08839e-06
6.08624e-06
6.0837e-06
6.08089e-06
6.07802e-06
6.07539e-06
6.07331e-06
6.07216e-06
6.07236e-06
6.07403e-06
6.07681e-06
6.08052e-06
6.08502e-06
6.08999e-06
6.09508e-06
6.10006e-06
6.10468e-06
6.10788e-06
6.10944e-06
6.11058e-06
6.11233e-06
6.11628e-06
6.12405e-06
6.13442e-06
6.14089e-06
6.13644e-06
6.12983e-06
6.14955e-06
6.17048e-06
6.11711e-06
6.01833e-06
6.10482e-06
6.14188e-06
6.15713e-06
6.14575e-06
6.13781e-06
6.13523e-06
6.13293e-06
6.13085e-06
6.12885e-06
6.12686e-06
6.12504e-06
6.12338e-06
6.12185e-06
6.12046e-06
6.1192e-06
6.11807e-06
6.11706e-06
6.11617e-06
6.11538e-06
6.11469e-06
6.11408e-06
6.11354e-06
6.11305e-06
6.1126e-06
6.11216e-06
6.11174e-06
6.1113e-06
6.11085e-06
6.11038e-06
6.10986e-06
6.10931e-06
6.10869e-06
6.10802e-06
6.10727e-06
6.10646e-06
6.10558e-06
6.10462e-06
6.10361e-06
6.10254e-06
6.10144e-06
6.10031e-06
6.09919e-06
6.09809e-06
6.09702e-06
6.09599e-06
6.09499e-06
6.09398e-06
6.0929e-06
6.09166e-06
6.09015e-06
6.08829e-06
6.08601e-06
6.08337e-06
6.08049e-06
6.0776e-06
6.07502e-06
6.07306e-06
6.07211e-06
6.07259e-06
6.0745e-06
6.07748e-06
6.08138e-06
6.08604e-06
6.0911e-06
6.09625e-06
6.10125e-06
6.10582e-06
6.10888e-06
6.11031e-06
6.11144e-06
6.11336e-06
6.11777e-06
6.12611e-06
6.13665e-06
6.14242e-06
6.13702e-06
6.13113e-06
6.15386e-06
6.1728e-06
6.11563e-06
6.12949e-06
6.14829e-06
6.14799e-06
6.14169e-06
6.13526e-06
6.13322e-06
6.13158e-06
6.12978e-06
6.12806e-06
6.12636e-06
6.12477e-06
6.12332e-06
6.12197e-06
6.12073e-06
6.11961e-06
6.11859e-06
6.11767e-06
6.11685e-06
6.11612e-06
6.11547e-06
6.11489e-06
6.11437e-06
6.1139e-06
6.11345e-06
6.11303e-06
6.11261e-06
6.11218e-06
6.11174e-06
6.11128e-06
6.11079e-06
6.11025e-06
6.10966e-06
6.10902e-06
6.10831e-06
6.10753e-06
6.10668e-06
6.10576e-06
6.10478e-06
6.10375e-06
6.10266e-06
6.10155e-06
6.10043e-06
6.09931e-06
6.09823e-06
6.09718e-06
6.09617e-06
6.09518e-06
6.09416e-06
6.09304e-06
6.09173e-06
6.09012e-06
6.08813e-06
6.08573e-06
6.08298e-06
6.08004e-06
6.07716e-06
6.07464e-06
6.07282e-06
6.0721e-06
6.07288e-06
6.07503e-06
6.07822e-06
6.08232e-06
6.08712e-06
6.09228e-06
6.09748e-06
6.1025e-06
6.10701e-06
6.1099e-06
6.11121e-06
6.11235e-06
6.1145e-06
6.11942e-06
6.12834e-06
6.13898e-06
6.14392e-06
6.13756e-06
6.13258e-06
6.15853e-06
6.17498e-06
6.11376e-06
6.14478e-06
6.13818e-06
6.13504e-06
6.13213e-06
6.13053e-06
6.12927e-06
6.12784e-06
6.12647e-06
6.12514e-06
6.12388e-06
6.12271e-06
6.12163e-06
6.12063e-06
6.1197e-06
6.11886e-06
6.1181e-06
6.1174e-06
6.11678e-06
6.11621e-06
6.11569e-06
6.11522e-06
6.11478e-06
6.11436e-06
6.11395e-06
6.11355e-06
6.11313e-06
6.1127e-06
6.11225e-06
6.11177e-06
6.11124e-06
6.11067e-06
6.11004e-06
6.10935e-06
6.10859e-06
6.10777e-06
6.10688e-06
6.10593e-06
6.10492e-06
6.10386e-06
6.10277e-06
6.10166e-06
6.10055e-06
6.09946e-06
6.0984e-06
6.09739e-06
6.0964e-06
6.09541e-06
6.09437e-06
6.09318e-06
6.09176e-06
6.09e-06
6.08784e-06
6.08528e-06
6.08241e-06
6.07942e-06
6.07657e-06
6.07417e-06
6.07257e-06
6.07217e-06
6.07333e-06
6.07578e-06
6.07924e-06
6.08357e-06
6.08854e-06
6.0938e-06
6.09905e-06
6.10407e-06
6.10845e-06
6.11113e-06
6.1123e-06
6.11348e-06
6.11596e-06
6.12154e-06
6.13113e-06
6.14174e-06
6.14557e-06
6.13813e-06
6.13453e-06
6.16399e-06
6.17718e-06
6.11166e-06
6.13108e-06
6.12939e-06
6.12845e-06
6.12752e-06
6.12661e-06
6.12558e-06
6.12459e-06
6.12366e-06
6.12277e-06
6.12193e-06
6.12115e-06
6.12042e-06
6.11974e-06
6.11911e-06
6.11853e-06
6.11799e-06
6.11749e-06
6.11703e-06
6.1166e-06
6.11619e-06
6.11579e-06
6.11541e-06
6.11502e-06
6.11463e-06
6.11423e-06
6.1138e-06
6.11335e-06
6.11287e-06
6.11234e-06
6.11177e-06
6.11114e-06
6.11046e-06
6.10971e-06
6.1089e-06
6.10803e-06
6.10709e-06
6.1061e-06
6.10506e-06
6.10399e-06
6.10289e-06
6.10179e-06
6.10071e-06
6.09966e-06
6.09864e-06
6.09765e-06
6.09668e-06
6.09568e-06
6.09458e-06
6.09328e-06
6.09169e-06
6.08973e-06
6.08736e-06
6.08461e-06
6.08162e-06
6.0786e-06
6.07583e-06
6.07362e-06
6.07234e-06
6.0724e-06
6.07402e-06
6.07682e-06
6.0806e-06
6.0852e-06
6.09035e-06
6.0957e-06
6.10099e-06
6.10598e-06
6.11017e-06
6.11257e-06
6.11359e-06
6.11488e-06
6.11784e-06
6.12425e-06
6.13456e-06
6.14493e-06
6.1473e-06
6.13873e-06
6.13743e-06
6.17034e-06
6.17919e-06
6.1089e-06
6.12629e-06
6.12591e-06
6.12536e-06
6.12469e-06
6.12399e-06
6.12333e-06
6.1227e-06
6.1221e-06
6.12152e-06
6.12098e-06
6.12046e-06
6.11998e-06
6.11952e-06
6.11908e-06
6.11867e-06
6.11828e-06
6.1179e-06
6.11753e-06
6.11718e-06
6.11682e-06
6.11646e-06
6.1161e-06
6.11572e-06
6.11532e-06
6.1149e-06
6.11445e-06
6.11396e-06
6.11343e-06
6.11285e-06
6.11223e-06
6.11154e-06
6.1108e-06
6.11e-06
6.10913e-06
6.10821e-06
6.10724e-06
6.10622e-06
6.10516e-06
6.10408e-06
6.103e-06
6.10193e-06
6.10089e-06
6.09987e-06
6.0989e-06
6.09794e-06
6.09697e-06
6.09592e-06
6.09472e-06
6.09327e-06
6.09148e-06
6.08929e-06
6.0867e-06
6.08378e-06
6.08071e-06
6.07771e-06
6.07507e-06
6.07311e-06
6.07223e-06
6.07283e-06
6.07489e-06
6.07806e-06
6.08215e-06
6.08701e-06
6.09232e-06
6.09776e-06
6.10307e-06
6.10798e-06
6.11193e-06
6.11403e-06
6.11494e-06
6.11642e-06
6.11998e-06
6.12731e-06
6.13828e-06
6.14819e-06
6.14886e-06
6.13938e-06
6.14129e-06
6.1771e-06
6.18074e-06
6.10565e-06
6.12446e-06
6.1247e-06
6.12405e-06
6.12363e-06
6.12316e-06
6.12273e-06
6.12231e-06
6.12192e-06
6.12153e-06
6.12115e-06
6.12079e-06
6.12044e-06
6.1201e-06
6.11977e-06
6.11945e-06
6.11913e-06
6.11881e-06
6.1185e-06
6.11818e-06
6.11785e-06
6.11751e-06
6.11715e-06
6.11678e-06
6.11638e-06
6.11596e-06
6.1155e-06
6.11501e-06
6.11447e-06
6.11389e-06
6.11326e-06
6.11257e-06
6.11183e-06
6.11103e-06
6.11018e-06
6.10927e-06
6.10831e-06
6.10731e-06
6.10628e-06
6.10522e-06
6.10416e-06
6.10311e-06
6.10208e-06
6.10108e-06
6.10011e-06
6.09917e-06
6.09822e-06
6.09722e-06
6.09609e-06
6.09475e-06
6.0931e-06
6.09109e-06
6.08866e-06
6.08586e-06
6.0828e-06
6.07969e-06
6.07676e-06
6.07432e-06
6.07269e-06
6.0723e-06
6.07347e-06
6.07597e-06
6.0795e-06
6.08392e-06
6.08901e-06
6.09447e-06
6.09997e-06
6.10528e-06
6.11007e-06
6.11373e-06
6.11551e-06
6.11637e-06
6.11816e-06
6.12246e-06
6.13078e-06
6.1423e-06
6.15145e-06
6.15022e-06
6.14018e-06
6.14624e-06
6.18418e-06
6.18168e-06
6.10189e-06
6.12358e-06
6.1239e-06
6.12329e-06
6.12301e-06
6.12271e-06
6.12244e-06
6.12217e-06
6.1219e-06
6.12163e-06
6.12136e-06
6.1211e-06
6.12084e-06
6.12057e-06
6.1203e-06
6.12003e-06
6.11975e-06
6.11946e-06
6.11916e-06
6.11884e-06
6.11851e-06
6.11816e-06
6.11779e-06
6.11739e-06
6.11695e-06
6.11649e-06
6.11599e-06
6.11544e-06
6.11485e-06
6.11421e-06
6.11352e-06
6.11278e-06
6.11199e-06
6.11114e-06
6.11025e-06
6.10931e-06
6.10833e-06
6.10732e-06
6.10629e-06
6.10526e-06
6.10423e-06
6.10322e-06
6.10224e-06
6.1013e-06
6.10037e-06
6.09944e-06
6.09847e-06
6.0974e-06
6.09614e-06
6.09461e-06
6.09274e-06
6.09047e-06
6.0878e-06
6.08481e-06
6.08167e-06
6.07857e-06
6.07579e-06
6.07361e-06
6.07241e-06
6.07261e-06
6.07435e-06
6.07728e-06
6.08119e-06
6.08592e-06
6.09122e-06
6.09679e-06
6.10234e-06
6.10763e-06
6.11224e-06
6.11554e-06
6.11702e-06
6.11792e-06
6.12014e-06
6.12533e-06
6.13469e-06
6.1466e-06
6.15465e-06
6.15134e-06
6.14124e-06
6.15235e-06
6.19149e-06
6.18186e-06
6.09763e-06
6.12354e-06
6.12376e-06
6.12334e-06
6.12315e-06
6.12295e-06
6.12275e-06
6.12254e-06
6.12233e-06
6.12212e-06
6.1219e-06
6.12167e-06
6.12144e-06
6.1212e-06
6.12095e-06
6.12068e-06
6.1204e-06
6.12011e-06
6.1198e-06
6.11946e-06
6.11911e-06
6.11873e-06
6.11831e-06
6.11787e-06
6.1174e-06
6.11688e-06
6.11632e-06
6.11573e-06
6.11508e-06
6.11439e-06
6.11365e-06
6.11286e-06
6.11202e-06
6.11114e-06
6.11022e-06
6.10927e-06
6.10829e-06
6.10729e-06
6.10629e-06
6.1053e-06
6.10432e-06
6.10337e-06
6.10244e-06
6.10154e-06
6.10063e-06
6.09969e-06
6.09866e-06
6.09746e-06
6.09602e-06
6.09427e-06
6.09213e-06
6.08959e-06
6.0867e-06
6.08358e-06
6.0804e-06
6.07739e-06
6.07482e-06
6.07301e-06
6.07235e-06
6.07322e-06
6.07549e-06
6.07886e-06
6.08314e-06
6.08816e-06
6.09366e-06
6.09932e-06
6.10489e-06
6.1101e-06
6.11446e-06
6.11736e-06
6.11858e-06
6.11962e-06
6.12245e-06
6.12867e-06
6.13909e-06
6.15114e-06
6.1577e-06
6.15219e-06
6.14271e-06
6.15975e-06
6.19889e-06
6.18108e-06
6.09262e-06
6.12397e-06
6.12414e-06
6.1238e-06
6.12365e-06
6.12347e-06
6.1233e-06
6.12311e-06
6.12292e-06
6.12272e-06
6.12251e-06
6.12228e-06
6.12205e-06
6.1218e-06
6.12154e-06
6.12126e-06
6.12096e-06
6.12064e-06
6.12029e-06
6.11993e-06
6.11953e-06
6.11911e-06
6.11865e-06
6.11816e-06
6.11763e-06
6.11707e-06
6.11646e-06
6.11581e-06
6.11511e-06
6.11438e-06
6.11359e-06
6.11277e-06
6.11191e-06
6.11101e-06
6.11009e-06
6.10914e-06
6.10819e-06
6.10723e-06
6.10628e-06
6.10534e-06
6.10443e-06
6.10353e-06
6.10266e-06
6.10178e-06
6.10087e-06
6.09987e-06
6.09872e-06
6.09735e-06
6.09568e-06
6.09365e-06
6.09123e-06
6.08844e-06
6.08537e-06
6.08216e-06
6.07902e-06
6.07617e-06
6.07391e-06
6.07258e-06
6.07259e-06
6.07413e-06
6.07691e-06
6.0807e-06
6.08534e-06
6.09063e-06
6.09629e-06
6.10202e-06
6.10759e-06
6.11267e-06
6.11671e-06
6.11917e-06
6.12019e-06
6.1215e-06
6.12511e-06
6.13251e-06
6.14394e-06
6.15584e-06
6.16051e-06
6.15277e-06
6.14469e-06
6.16836e-06
6.20616e-06
6.1791e-06
6.08789e-06
6.12459e-06
6.12475e-06
6.12443e-06
6.12428e-06
6.1241e-06
6.12393e-06
6.12374e-06
6.12353e-06
6.12332e-06
6.12309e-06
6.12285e-06
6.1226e-06
6.12232e-06
6.12203e-06
6.12172e-06
6.12138e-06
6.12103e-06
6.12064e-06
6.12023e-06
6.1198e-06
6.11933e-06
6.11882e-06
6.11828e-06
6.11771e-06
6.1171e-06
6.11645e-06
6.11576e-06
6.11503e-06
6.11426e-06
6.11346e-06
6.11262e-06
6.11176e-06
6.11087e-06
6.10997e-06
6.10906e-06
6.10814e-06
6.10724e-06
6.10634e-06
6.10547e-06
6.10461e-06
6.10376e-06
6.1029e-06
6.102e-06
6.10101e-06
6.09989e-06
6.09855e-06
6.09693e-06
6.09498e-06
6.09265e-06
6.08996e-06
6.08697e-06
6.08379e-06
6.08059e-06
6.07759e-06
6.07503e-06
6.0732e-06
6.07249e-06
6.07328e-06
6.07547e-06
6.07877e-06
6.08298e-06
6.08797e-06
6.0935e-06
6.09928e-06
6.10505e-06
6.11055e-06
6.11541e-06
6.11904e-06
6.12108e-06
6.12203e-06
6.12388e-06
6.12852e-06
6.13724e-06
6.1495e-06
6.1607e-06
6.16294e-06
6.15321e-06
6.14772e-06
6.1787e-06
6.21307e-06
6.1763e-06
6.08497e-06
6.12504e-06
6.12521e-06
6.12487e-06
6.1247e-06
6.12451e-06
6.12432e-06
6.12411e-06
6.12389e-06
6.12366e-06
6.12341e-06
6.12314e-06
6.12285e-06
6.12255e-06
6.12223e-06
6.12188e-06
6.12151e-06
6.12111e-06
6.12069e-06
6.12024e-06
6.11976e-06
6.11924e-06
6.1187e-06
6.11812e-06
6.1175e-06
6.11685e-06
6.11617e-06
6.11545e-06
6.1147e-06
6.11392e-06
6.11311e-06
6.11228e-06
6.11143e-06
6.11057e-06
6.1097e-06
6.10884e-06
6.10799e-06
6.10715e-06
6.10634e-06
6.10554e-06
6.10474e-06
6.10393e-06
6.10308e-06
6.10215e-06
6.10108e-06
6.09981e-06
6.09827e-06
6.09641e-06
6.09417e-06
6.09156e-06
6.08863e-06
6.08546e-06
6.0822e-06
6.07904e-06
6.07618e-06
6.0739e-06
6.07257e-06
6.07258e-06
6.07405e-06
6.07677e-06
6.08049e-06
6.08507e-06
6.09035e-06
6.09606e-06
6.10194e-06
6.10773e-06
6.11318e-06
6.11781e-06
6.12102e-06
6.12264e-06
6.12354e-06
6.12588e-06
6.13152e-06
6.14149e-06
6.15453e-06
6.16504e-06
6.16489e-06
6.15312e-06
6.15033e-06
6.1883e-06
6.21911e-06
6.17196e-06
6.08171e-06
6.1255e-06
6.1257e-06
6.12529e-06
6.12509e-06
6.12486e-06
6.12463e-06
6.12438e-06
6.12411e-06
6.12383e-06
6.12354e-06
6.12322e-06
6.12289e-06
6.12253e-06
6.12216e-06
6.12176e-06
6.12134e-06
6.12089e-06
6.12042e-06
6.11993e-06
6.1194e-06
6.11885e-06
6.11828e-06
6.11767e-06
6.11704e-06
6.11639e-06
6.11571e-06
6.11501e-06
6.11429e-06
6.11355e-06
6.1128e-06
6.11204e-06
6.11127e-06
6.1105e-06
6.10974e-06
6.10898e-06
6.10822e-06
6.10747e-06
6.1067e-06
6.10591e-06
6.10507e-06
6.10415e-06
6.10311e-06
6.1019e-06
6.10046e-06
6.09875e-06
6.09673e-06
6.09437e-06
6.09169e-06
6.08874e-06
6.0856e-06
6.08242e-06
6.07935e-06
6.0766e-06
6.0744e-06
6.07306e-06
6.07289e-06
6.07413e-06
6.0767e-06
6.0803e-06
6.08475e-06
6.08992e-06
6.09559e-06
6.10152e-06
6.10745e-06
6.11314e-06
6.11821e-06
6.12213e-06
6.12453e-06
6.12582e-06
6.12748e-06
6.1316e-06
6.13959e-06
6.15157e-06
6.16455e-06
6.17169e-06
6.16647e-06
6.15435e-06
6.16279e-06
6.20834e-06
6.22593e-06
6.1664e-06
6.08389e-06
)
;

boundaryField
{
    inlet
    {
        type            freestream;
        freestreamValue uniform 1e-05;
        value           uniform 1e-05;
    }
    outlet
    {
        type            freestream;
        freestreamValue uniform 1e-05;
        value           nonuniform List<scalar> 
82
(
6.1255e-06
6.12529e-06
6.1257e-06
6.12509e-06
6.12486e-06
6.12463e-06
6.12438e-06
6.12411e-06
6.12383e-06
6.12354e-06
6.12322e-06
6.12289e-06
6.12253e-06
6.12216e-06
6.12176e-06
6.12134e-06
6.12089e-06
6.12042e-06
6.11993e-06
6.1194e-06
6.11885e-06
6.11828e-06
6.11767e-06
6.11704e-06
6.11639e-06
6.11571e-06
6.11501e-06
6.11429e-06
6.11355e-06
6.1128e-06
6.11204e-06
6.11127e-06
6.1105e-06
6.10974e-06
6.10898e-06
6.10822e-06
6.10747e-06
6.1067e-06
6.10591e-06
6.10507e-06
6.10415e-06
6.10311e-06
6.1019e-06
6.10046e-06
6.09875e-06
6.09673e-06
6.09437e-06
6.09169e-06
6.08874e-06
6.0856e-06
6.08242e-06
6.07935e-06
6.0766e-06
6.0744e-06
6.07306e-06
6.07289e-06
6.07413e-06
6.0767e-06
6.0803e-06
6.08475e-06
6.08992e-06
6.09559e-06
6.10152e-06
6.10745e-06
6.11314e-06
6.11821e-06
6.12213e-06
6.12453e-06
6.12582e-06
6.12748e-06
6.1316e-06
6.13959e-06
6.15157e-06
6.16455e-06
6.17169e-06
6.16647e-06
6.15435e-06
6.16279e-06
6.20834e-06
6.22593e-06
6.1664e-06
6.08389e-06
)
;
    }
    walls
    {
        type            nutUSpaldingWallFunction;
        value           nonuniform List<scalar> 0();
    }
    frontAndBack
    {
        type            empty;
    }
    procBoundary3to2
    {
        type            processor;
        value           nonuniform List<scalar> 
88
(
6.14604e-06
6.12003e-06
6.12242e-06
6.12228e-06
6.12228e-06
6.12821e-06
6.13033e-06
6.13033e-06
6.10831e-06
6.11268e-06
6.12057e-06
6.12057e-06
6.09804e-06
6.10178e-06
6.10409e-06
6.10562e-06
6.10693e-06
6.10693e-06
6.07679e-06
6.08042e-06
6.08475e-06
6.08946e-06
6.09421e-06
6.09421e-06
6.07963e-06
6.07696e-06
6.07456e-06
6.07278e-06
6.07197e-06
6.07254e-06
6.07441e-06
6.07441e-06
6.09735e-06
6.09623e-06
6.09514e-06
6.09408e-06
6.09307e-06
6.09206e-06
6.09101e-06
6.08983e-06
6.08842e-06
6.08668e-06
6.08456e-06
6.08208e-06
6.08208e-06
3.43238e-06
7.95461e-06
7.21835e-06
6.04954e-06
6.01007e-06
6.11848e-06
6.14452e-06
6.15154e-06
6.14402e-06
6.13762e-06
6.13443e-06
6.13129e-06
6.12814e-06
6.12548e-06
6.1231e-06
6.12094e-06
6.11903e-06
6.11735e-06
6.11588e-06
6.1146e-06
6.1135e-06
6.11255e-06
6.11175e-06
6.11107e-06
6.11048e-06
6.10997e-06
6.10951e-06
6.10907e-06
6.10863e-06
6.10817e-06
6.1077e-06
6.10719e-06
6.10663e-06
6.10601e-06
6.10533e-06
6.10457e-06
6.10374e-06
6.10284e-06
6.10186e-06
6.10083e-06
6.09974e-06
6.09862e-06
6.09862e-06
)
;
    }
    procBoundary3to6
    {
        type            processor;
        value           uniform 1.48677e-08;
    }
    procBoundary3to7
    {
        type            processor;
        value           nonuniform List<scalar> 
16
(
1.03339e-09
6.27699e-06
8.05054e-06
6.26278e-06
6.02713e-06
6.13615e-06
6.1386e-06
6.12737e-06
6.12737e-06
6.12553e-06
6.12407e-06
6.12398e-06
6.12432e-06
6.12491e-06
6.12538e-06
6.12592e-06
)
;
    }
}


// ************************************************************************* //
