/*--------------------------------*- C++ -*----------------------------------*\
| =========                 |                                                 |
| \\      /  F ield         | OpenFOAM: The Open Source CFD Toolbox           |
|  \\    /   O peration     | Version:  2306                                  |
|   \\  /    A nd           | Website:  www.openfoam.com                      |
|    \\/     M anipulation  |                                                 |
\*---------------------------------------------------------------------------*/
FoamFile
{
    version     2.0;
    format      ascii;
    arch        "LSB;label=32;scalar=64";
    class       volScalarField;
    location    "375";
    object      turbulenceProperties:L;
}
// * * * * * * * * * * * * * * * * * * * * * * * * * * * * * * * * * * * * * //

dimensions      [0 1 0 0 0 0 0];

internalField   nonuniform List<scalar> 
1340
(
0.257287
0.183446
0.544507
0.268982
0.257682
0.18331
0.518649
0.40901
0.550023
0.268477
0.257634
0.183265
0.381366
0.406465
0.419648
0.506428
0.404357
0.553359
0.267936
0.257278
0.183268
0.318938
0.331296
0.342549
0.354123
0.367529
0.381661
0.405471
0.417237
0.494234
0.400025
0.554711
0.267378
0.25672
0.183291
0.269215
0.278045
0.287788
0.298342
0.309907
0.322107
0.333943
0.344646
0.355671
0.368434
0.381863
0.404253
0.414583
0.482303
0.396087
0.554218
0.266851
0.256047
0.18333
0.230773
0.235881
0.241322
0.247093
0.253213
0.259745
0.266809
0.27455
0.283086
0.292477
0.302609
0.313711
0.325399
0.336659
0.34678
0.357229
0.369304
0.382004
0.402846
0.411744
0.470769
0.392577
0.552046
0.266364
0.255324
0.183399
0.198775
0.201093
0.20356
0.206182
0.208962
0.211907
0.215023
0.218319
0.221808
0.225517
0.229475
0.233716
0.238265
0.24314
0.24834
0.253864
0.259735
0.26601
0.272806
0.28025
0.288446
0.297433
0.307093
0.317682
0.328801
0.339434
0.348948
0.358795
0.370145
0.382089
0.401267
0.408757
0.45971
0.389532
0.548366
0.265936
0.254647
0.183478
0.200318
0.198354
0.210303
0.206577
0.206477
0.202052
0.199756
0.197545
0.195676
0.19396
0.192422
0.191058
0.189891
0.188905
0.18806
0.187394
0.18688
0.186509
0.186274
0.186164
0.186175
0.1863
0.186525
0.186845
0.187255
0.18775
0.188321
0.188963
0.18968
0.19046
0.191309
0.192225
0.193205
0.194255
0.195374
0.196566
0.197837
0.199187
0.200629
0.202168
0.203804
0.205554
0.207424
0.209426
0.211561
0.213843
0.216277
0.218864
0.221615
0.22453
0.227616
0.230888
0.234372
0.238092
0.242086
0.246377
0.250985
0.255911
0.261157
0.266743
0.272727
0.279214
0.286316
0.29412
0.30265
0.311787
0.321812
0.332304
0.342263
0.351149
0.360374
0.370967
0.382127
0.399532
0.405647
0.449166
0.386958
0.543417
0.265611
0.254051
0.183554
0.199248
0.222116
0.23182
0.221688
0.219724
0.216285
0.214243
0.212056
0.210159
0.208408
0.20685
0.205477
0.204287
0.203271
0.202406
0.201717
0.201176
0.200767
0.200497
0.200352
0.200319
0.200396
0.200571
0.200835
0.201185
0.201614
0.202109
0.202676
0.203306
0.203996
0.204747
0.205556
0.206425
0.207354
0.208344
0.209403
0.210529
0.21173
0.213014
0.214387
0.215856
0.217429
0.21912
0.220937
0.222881
0.224973
0.227208
0.229594
0.232134
0.234829
0.237684
0.240715
0.243943
0.247394
0.251107
0.255107
0.259416
0.264035
0.268968
0.274236
0.27989
0.286023
0.292734
0.300094
0.308112
0.316673
0.326088
0.335893
0.34514
0.353387
0.361968
0.371778
0.382121
0.39766
0.402439
0.439183
0.384853
0.53763
0.26533
0.253603
0.183594
0.226619
0.24148
0.245929
0.235247
0.234126
0.231178
0.22914
0.227018
0.225143
0.223434
0.221935
0.22058
0.219413
0.218414
0.21757
0.216881
0.216341
0.21592
0.215634
0.215477
0.215415
0.215456
0.21559
0.215817
0.216111
0.216475
0.21691
0.217403
0.217951
0.218554
0.219208
0.219911
0.220668
0.221475
0.222333
0.223251
0.224229
0.225274
0.226392
0.227594
0.228884
0.230272
0.231777
0.233395
0.235142
0.237031
0.239053
0.241221
0.243531
0.245983
0.248583
0.251341
0.254279
0.257427
0.260825
0.264497
0.268469
0.272749
0.277335
0.282245
0.287526
0.293259
0.299528
0.306383
0.313832
0.321771
0.330519
0.339579
0.348082
0.355685
0.363595
0.372597
0.382084
0.39566
0.399144
0.42978
0.383181
0.531113
0.265272
0.2532
0.183568
0.245407
0.2554
0.259371
0.250107
0.24938
0.246563
0.244599
0.24259
0.240824
0.239208
0.237782
0.236501
0.23539
0.234437
0.233629
0.232959
0.232434
0.232019
0.23173
0.231557
0.231473
0.231483
0.231582
0.23176
0.231991
0.232301
0.232665
0.233074
0.233539
0.234045
0.234597
0.235185
0.235823
0.236498
0.237217
0.237988
0.238809
0.239688
0.240635
0.241655
0.242758
0.243957
0.245259
0.246674
0.248216
0.249886
0.251684
0.253618
0.255677
0.257864
0.260179
0.262635
0.265247
0.268062
0.271108
0.274417
0.278029
0.281933
0.286136
0.290658
0.295524
0.300806
0.306584
0.312884
0.319714
0.326988
0.335026
0.343299
0.351036
0.357994
0.365222
0.373401
0.381987
0.39354
0.395772
0.421097
0.381875
0.525191
0.265344
0.253034
0.183347
0.260983
0.271348
0.275982
0.267351
0.266699
0.264016
0.262182
0.260303
0.258678
0.257149
0.255805
0.254608
0.253545
0.252649
0.251872
0.251213
0.250699
0.250295
0.249988
0.249788
0.24967
0.249641
0.249689
0.249794
0.249964
0.250195
0.250453
0.250765
0.251126
0.251522
0.251928
0.252383
0.252862
0.253391
0.253945
0.254507
0.255158
0.255843
0.256579
0.257378
0.258271
0.259236
0.260306
0.261495
0.26278
0.264205
0.265744
0.267394
0.26917
0.271038
0.273021
0.275125
0.277355
0.27978
0.28243
0.285319
0.288516
0.292007
0.295767
0.299848
0.304244
0.309
0.314215
0.319887
0.326024
0.332555
0.33982
0.347234
0.354161
0.360441
0.366954
0.374265
0.381846
0.391279
0.39223
0.412813
0.38094
0.514548
0.26618
0.25238
0.1831
0.282211
0.293411
0.298707
0.290255
0.28991
0.287364
0.285782
0.284223
0.282607
0.28133
0.280141
0.278944
0.278021
0.277233
0.276444
0.275773
0.275358
0.27488
0.274547
0.274305
0.274099
0.274038
0.273956
0.27393
0.274008
0.274081
0.27418
0.274322
0.274486
0.274713
0.274881
0.275087
0.275338
0.275644
0.27588
0.276163
0.276537
0.276929
0.277341
0.277816
0.278401
0.279006
0.279778
0.280618
0.281531
0.282629
0.283783
0.285022
0.286406
0.287811
0.28932
0.290941
0.292621
0.294513
0.296626
0.298956
0.301582
0.304527
0.307703
0.311173
0.314929
0.318985
0.323445
0.328283
0.333526
0.339133
0.345429
0.351782
0.357764
0.363268
0.368934
0.375208
0.381583
0.388506
0.388347
0.403668
0.381713
0.495528
0.268742
0.253544
0.186244
0.311488
0.322024
0.327219
0.319642
0.319586
0.317351
0.316237
0.314945
0.313539
0.312589
0.311533
0.310467
0.309736
0.30906
0.308246
0.307645
0.307286
0.306701
0.306402
0.306029
0.305693
0.30561
0.30533
0.305082
0.305033
0.304867
0.304771
0.304659
0.304511
0.304457
0.304353
0.304196
0.30414
0.304086
0.303903
0.303856
0.303819
0.303794
0.303787
0.303865
0.303993
0.304191
0.304534
0.304872
0.305376
0.30598
0.306603
0.307315
0.308112
0.3089
0.309732
0.310667
0.311629
0.312789
0.314164
0.315767
0.317657
0.31985
0.32225
0.324898
0.32778
0.330912
0.334367
0.338136
0.342272
0.346744
0.351845
0.356951
0.361861
0.366475
0.371156
0.376211
0.381084
0.385229
0.383916
0.39455
0.383072
0.476957
0.268865
0.25457
0.186363
0.34466
0.355129
0.36082
0.353618
0.353761
0.35216
0.35121
0.349907
0.349234
0.34824
0.347202
0.346502
0.345847
0.345141
0.344341
0.343926
0.343338
0.342772
0.342471
0.341879
0.341405
0.341192
0.340702
0.340262
0.340015
0.339484
0.339149
0.338774
0.338259
0.337839
0.337421
0.336842
0.336409
0.335921
0.335305
0.334844
0.334349
0.333834
0.333379
0.333004
0.332622
0.332376
0.332168
0.331996
0.332009
0.332
0.33201
0.332087
0.332156
0.332214
0.332235
0.332338
0.332499
0.332787
0.333334
0.334106
0.335147
0.336475
0.337959
0.339649
0.341524
0.343576
0.345893
0.348495
0.35141
0.354653
0.358472
0.362271
0.366083
0.369761
0.37337
0.377107
0.380271
0.381694
0.379166
0.386407
0.383629
0.460368
0.267633
0.257908
0.186388
0.381668
0.40363
0.393484
0.400994
0.392453
0.393483
0.392156
0.391056
0.390047
0.389544
0.388645
0.38765
0.386961
0.386385
0.385555
0.38469
0.384319
0.383455
0.3828
0.382268
0.381427
0.380857
0.380179
0.379487
0.378762
0.378054
0.377206
0.376434
0.375677
0.374687
0.373798
0.372939
0.371816
0.370911
0.369874
0.368712
0.367767
0.366689
0.365614
0.36465
0.36368
0.36276
0.361926
0.361106
0.360387
0.359702
0.359016
0.35832
0.357601
0.356842
0.356049
0.355181
0.354377
0.353662
0.353044
0.352728
0.352626
0.352766
0.353178
0.353692
0.354352
0.35516
0.356086
0.357239
0.358655
0.360345
0.362364
0.36491
0.367446
0.3702
0.372941
0.375438
0.377797
0.379123
0.377995
0.374377
0.379412
0.383546
0.442229
0.265742
0.262395
0.186442
0.424311
0.449486
0.438671
0.447792
0.43763
0.439261
0.437611
0.436998
0.435882
0.435064
0.434527
0.433436
0.432628
0.43173
0.430873
0.429997
0.429249
0.428142
0.427157
0.426318
0.425287
0.424332
0.423012
0.422058
0.420832
0.419612
0.418363
0.41688
0.415637
0.41408
0.412614
0.411051
0.40935
0.407809
0.40609
0.404295
0.402639
0.400953
0.399168
0.39752
0.395864
0.394224
0.392701
0.391133
0.389631
0.388108
0.386576
0.385011
0.383326
0.381586
0.379834
0.377988
0.3762
0.374556
0.372993
0.371761
0.37075
0.369937
0.369355
0.368838
0.368424
0.368115
0.367909
0.36789
0.368126
0.368625
0.36944
0.370742
0.372074
0.373813
0.375609
0.376983
0.377931
0.377374
0.373961
0.369518
0.373241
0.382346
0.420866
0.263209
0.267952
0.186427
0.475025
0.503525
0.492453
0.503062
0.49118
0.492734
0.49093
0.490066
0.488461
0.487933
0.486824
0.485262
0.484367
0.482983
0.481698
0.48064
0.479116
0.477646
0.476114
0.474857
0.473211
0.471425
0.469817
0.468072
0.466091
0.464418
0.462278
0.460074
0.45824
0.455879
0.453706
0.451317
0.44891
0.446683
0.444156
0.441552
0.439256
0.436772
0.4342
0.431827
0.429417
0.426903
0.42462
0.422232
0.419745
0.417359
0.414833
0.412284
0.409567
0.406817
0.404065
0.401194
0.398458
0.395867
0.393356
0.391186
0.389223
0.387402
0.38576
0.384159
0.382647
0.381197
0.379838
0.378679
0.37775
0.377088
0.376746
0.376862
0.377094
0.377881
0.378708
0.378906
0.378383
0.375908
0.37054
0.365725
0.369087
0.381291
0.399647
0.260153
0.275304
0.186159
0.518682
0.548006
0.536082
0.547989
0.534811
0.536628
0.535437
0.533726
0.532448
0.531975
0.530458
0.528908
0.527858
0.526592
0.524896
0.523691
0.521808
0.520081
0.518622
0.516902
0.514758
0.512622
0.510924
0.508807
0.506073
0.504165
0.501601
0.498904
0.496484
0.493713
0.490897
0.487986
0.484997
0.482109
0.478902
0.475684
0.472696
0.469381
0.4661
0.462846
0.459673
0.456209
0.452972
0.449605
0.446088
0.442745
0.439101
0.435554
0.431869
0.428154
0.424455
0.42071
0.417129
0.413619
0.410272
0.407185
0.404252
0.401451
0.398785
0.39615
0.39362
0.391133
0.388742
0.386575
0.384583
0.382867
0.381481
0.380499
0.379685
0.379518
0.379438
0.378638
0.376903
0.372889
0.366224
0.361444
0.364422
0.375987
0.37346
0.255628
0.282718
0.184916
0.574341
0.608252
0.595084
0.609549
0.591116
0.5936
0.590907
0.588599
0.587785
0.586447
0.583647
0.581455
0.579653
0.57803
0.575634
0.573109
0.570596
0.568445
0.566455
0.563115
0.560569
0.557848
0.555185
0.552504
0.548834
0.546097
0.543002
0.539728
0.536355
0.53296
0.529679
0.525901
0.522513
0.518883
0.515009
0.511345
0.507615
0.503852
0.499767
0.49587
0.492085
0.487867
0.483837
0.479724
0.475527
0.471287
0.466958
0.462676
0.458312
0.453957
0.44955
0.445225
0.440929
0.43669
0.432622
0.42869
0.42484
0.421088
0.417449
0.413802
0.410267
0.406754
0.403353
0.400167
0.39714
0.394435
0.392077
0.390147
0.388623
0.387816
0.386748
0.384618
0.381135
0.375009
0.367049
0.363261
0.367935
0.378949
0.358885
0.252936
0.296843
0.1828
0.558681
0.579608
0.571423
0.58063
0.57261
0.574321
0.572422
0.571436
0.571716
0.570941
0.569288
0.567941
0.5671
0.566539
0.565044
0.563478
0.562158
0.560897
0.559793
0.557452
0.555827
0.554337
0.552416
0.550432
0.547955
0.545823
0.543382
0.540942
0.538111
0.535209
0.532399
0.528959
0.525842
0.522229
0.518491
0.514683
0.510724
0.506671
0.502158
0.497912
0.493413
0.488781
0.484242
0.479684
0.475105
0.470555
0.466217
0.461814
0.457533
0.453284
0.448932
0.444632
0.440205
0.43581
0.431407
0.427083
0.42285
0.418734
0.414829
0.410993
0.407314
0.403677
0.400125
0.396708
0.393408
0.390365
0.38756
0.385034
0.382635
0.380893
0.37948
0.377449
0.37437
0.368983
0.362072
0.359078
0.361233
0.361608
0.325763
0.246029
0.292025
0.174394
0.639697
0.636215
0.639799
0.63271
0.629595
0.628587
0.626855
0.625631
0.623706
0.621675
0.620457
0.618486
0.616519
0.614469
0.612484
0.610577
0.608249
0.606074
0.603862
0.601388
0.599168
0.596585
0.594193
0.591645
0.588907
0.586136
0.583359
0.58059
0.577498
0.574548
0.571411
0.568161
0.564981
0.561489
0.55809
0.554462
0.550833
0.547115
0.543273
0.53956
0.535666
0.531876
0.528156
0.524509
0.520853
0.517367
0.513934
0.510404
0.506881
0.503133
0.499224
0.495085
0.490691
0.486222
0.48158
0.476938
0.472228
0.467534
0.462873
0.458063
0.453256
0.448359
0.443489
0.438718
0.434094
0.429842
0.425947
0.422564
0.420687
0.419928
0.417225
0.411771
0.403668
0.392216
0.382341
0.383529
0.395153
0.391088
0.329227
0.266348
0.306659
0.173749
)
;

boundaryField
{
    inlet
    {
        type            calculated;
        value           nonuniform List<scalar> 
23
(
0.0972129
0.0974564
0.0976939
0.0979261
0.0981582
0.0983957
0.0986454
0.098913
0.0992061
0.0995317
0.0998993
0.100308
0.100782
0.101535
0.102177
0.10298
0.104005
0.105297
0.106916
0.108918
0.111451
0.113534
0.117791
)
;
    }
    outlet
    {
        type            calculated;
        value           nonuniform List<scalar> 
82
(
0.715632
0.716476
0.70899
0.704933
0.700232
0.699165
0.69692
0.69551
0.692972
0.690276
0.688923
0.686377
0.683825
0.681183
0.678643
0.676257
0.673208
0.670415
0.667599
0.664353
0.661553
0.658208
0.655163
0.651911
0.648381
0.644839
0.641309
0.637848
0.633911
0.630244
0.62635
0.62232
0.618476
0.614198
0.610141
0.605803
0.601522
0.597179
0.592697
0.588474
0.583999
0.57971
0.575536
0.571463
0.567347
0.563444
0.559579
0.555513
0.551429
0.546998
0.542353
0.537429
0.532214
0.526983
0.521576
0.516201
0.5107
0.505127
0.499466
0.493444
0.487309
0.480996
0.474725
0.468635
0.462791
0.457503
0.452812
0.44903
0.447557
0.447383
0.443984
0.436398
0.424803
0.408954
0.396035
0.39836
0.418117
0.422269
0.347599
0.271501
0.340048
0.182451
)
;
    }
    walls
    {
        type            calculated;
        value           nonuniform List<scalar> 0();
    }
    frontAndBack
    {
        type            empty;
    }
    procBoundary3to2
    {
        type            processor;
        value           nonuniform List<scalar> 
88
(
0.256364
0.183619
0.537018
0.269548
0.269548
0.530663
0.413943
0.413943
0.380929
0.407177
0.421731
0.421731
0.31588
0.328705
0.340472
0.352564
0.366564
0.366564
0.264247
0.273327
0.283374
0.294302
0.306283
0.306283
0.223887
0.229196
0.234846
0.240832
0.247171
0.253925
0.26122
0.26122
0.18897
0.191468
0.194115
0.196915
0.199878
0.203005
0.206304
0.209789
0.21347
0.21738
0.221543
0.225999
0.225999
0.229223
0.189022
0.183303
0.191446
0.188506
0.1857
0.183398
0.18152
0.179892
0.178472
0.177176
0.176074
0.175153
0.174381
0.173779
0.173317
0.173005
0.172834
0.172785
0.172857
0.173042
0.173331
0.173724
0.174205
0.174769
0.175422
0.176151
0.176952
0.177827
0.178775
0.179797
0.180887
0.182055
0.183302
0.184623
0.186035
0.187534
0.189127
0.190826
0.192629
0.19455
0.196596
0.196596
)
;
    }
    procBoundary3to6
    {
        type            processor;
        value           uniform 1.48079;
    }
    procBoundary3to7
    {
        type            processor;
        value           nonuniform List<scalar> 
16
(
5.04127
0.239822
0.238674
0.268672
0.287179
0.306187
0.332901
0.365143
0.365143
0.405601
0.451201
0.505702
0.550711
0.608951
0.585193
0.63147
)
;
    }
}


// ************************************************************************* //
