/*--------------------------------*- C++ -*----------------------------------*\
| =========                 |                                                 |
| \\      /  F ield         | OpenFOAM: The Open Source CFD Toolbox           |
|  \\    /   O peration     | Version:  2306                                  |
|   \\  /    A nd           | Website:  www.openfoam.com                      |
|    \\/     M anipulation  |                                                 |
\*---------------------------------------------------------------------------*/
FoamFile
{
    version     2.0;
    format      ascii;
    arch        "LSB;label=32;scalar=64";
    class       volScalarField;
    location    "375";
    object      turbulenceProperties:I;
}
// * * * * * * * * * * * * * * * * * * * * * * * * * * * * * * * * * * * * * //

dimensions      [0 0 0 0 0 0 0];

internalField   nonuniform List<scalar> 
1340
(
2.65941e-05
3.72821e-05
1.25946e-05
2.55141e-05
2.65514e-05
3.72901e-05
1.32105e-05
1.67604e-05
1.24668e-05
2.55547e-05
2.65534e-05
3.72794e-05
1.79628e-05
1.68512e-05
1.63214e-05
1.35265e-05
1.69499e-05
1.239e-05
2.55986e-05
2.65859e-05
3.7259e-05
2.14904e-05
2.06841e-05
2.00013e-05
1.93443e-05
1.86356e-05
1.79428e-05
1.68873e-05
1.64112e-05
1.38571e-05
1.71299e-05
1.23577e-05
2.56439e-05
2.66384e-05
3.72342e-05
2.54822e-05
2.46651e-05
2.38227e-05
2.29734e-05
2.21103e-05
2.12678e-05
2.05102e-05
1.98705e-05
1.92519e-05
1.85825e-05
1.79268e-05
1.69326e-05
1.65114e-05
1.41964e-05
1.72962e-05
1.23664e-05
2.56859e-05
2.67022e-05
3.72063e-05
2.97544e-05
2.91039e-05
2.84414e-05
2.77707e-05
2.70927e-05
2.64045e-05
2.56985e-05
2.49672e-05
2.42078e-05
2.34246e-05
2.26349e-05
2.18293e-05
2.10411e-05
2.03344e-05
1.97388e-05
1.91593e-05
1.85309e-05
1.79132e-05
1.69857e-05
1.66199e-05
1.45404e-05
1.74465e-05
1.24124e-05
2.57236e-05
2.67702e-05
3.71718e-05
3.4519e-05
3.41233e-05
3.37113e-05
3.32836e-05
3.28415e-05
3.2385e-05
3.19149e-05
3.14317e-05
3.09352e-05
3.04236e-05
2.98957e-05
2.93494e-05
2.87849e-05
2.82033e-05
2.7608e-05
2.70023e-05
2.63868e-05
2.57589e-05
2.51118e-05
2.44394e-05
2.37398e-05
2.30178e-05
2.22896e-05
2.15431e-05
2.08115e-05
2.01574e-05
1.96063e-05
1.90666e-05
1.84806e-05
1.79018e-05
1.70461e-05
1.67358e-05
1.48859e-05
1.75782e-05
1.24926e-05
2.57553e-05
2.68327e-05
3.71351e-05
3.40524e-05
3.46652e-05
3.25615e-05
3.30443e-05
3.30553e-05
3.37925e-05
3.41839e-05
3.45669e-05
3.48972e-05
3.52064e-05
3.54885e-05
3.57431e-05
3.59641e-05
3.61534e-05
3.63179e-05
3.64491e-05
3.65518e-05
3.6627e-05
3.66762e-05
3.67011e-05
3.67022e-05
3.66811e-05
3.66405e-05
3.65816e-05
3.65056e-05
3.64135e-05
3.63073e-05
3.61884e-05
3.60561e-05
3.59129e-05
3.5758e-05
3.55924e-05
3.54163e-05
3.52294e-05
3.50322e-05
3.48242e-05
3.46047e-05
3.43744e-05
3.41313e-05
3.38755e-05
3.36071e-05
3.33243e-05
3.30271e-05
3.27143e-05
3.23867e-05
3.20431e-05
3.16841e-05
3.13108e-05
3.09229e-05
3.05215e-05
3.01074e-05
2.96796e-05
2.9237e-05
2.87781e-05
2.83008e-05
2.78051e-05
2.72915e-05
2.67628e-05
2.62216e-05
2.56686e-05
2.51014e-05
2.4514e-05
2.39018e-05
2.32637e-05
2.26046e-05
2.19391e-05
2.1253e-05
2.05799e-05
1.99796e-05
1.94731e-05
1.89737e-05
1.8431e-05
1.78922e-05
1.71132e-05
1.6858e-05
1.52306e-05
1.769e-05
1.26029e-05
2.57765e-05
2.68859e-05
3.70986e-05
3.45229e-05
3.07463e-05
2.94132e-05
3.0753e-05
3.10393e-05
3.15356e-05
3.18355e-05
3.2164e-05
3.24545e-05
3.27277e-05
3.29751e-05
3.31964e-05
3.3391e-05
3.35593e-05
3.37044e-05
3.38212e-05
3.39142e-05
3.39855e-05
3.40336e-05
3.40609e-05
3.40692e-05
3.40591e-05
3.40323e-05
3.39908e-05
3.39349e-05
3.38663e-05
3.37869e-05
3.3696e-05
3.35953e-05
3.34855e-05
3.33665e-05
3.32392e-05
3.3103e-05
3.29588e-05
3.2806e-05
3.26441e-05
3.24733e-05
3.22929e-05
3.21019e-05
3.18999e-05
3.16862e-05
3.14603e-05
3.12206e-05
3.09667e-05
3.06992e-05
3.04161e-05
3.01188e-05
2.98075e-05
2.94825e-05
2.91449e-05
2.87951e-05
2.84323e-05
2.80554e-05
2.76629e-05
2.72524e-05
2.68233e-05
2.63758e-05
2.59122e-05
2.54345e-05
2.49431e-05
2.44364e-05
2.39094e-05
2.33582e-05
2.27826e-05
2.21873e-05
2.15855e-05
2.09606e-05
2.03475e-05
1.98016e-05
1.93391e-05
1.88802e-05
1.83817e-05
1.78842e-05
1.71865e-05
1.69859e-05
1.55716e-05
1.77812e-05
1.27347e-05
2.57926e-05
2.69224e-05
3.70689e-05
3.00838e-05
2.82062e-05
2.76975e-05
2.89619e-05
2.91031e-05
2.94733e-05
2.97352e-05
3.00134e-05
3.02638e-05
3.04959e-05
3.07026e-05
3.08921e-05
3.10575e-05
3.12007e-05
3.1323e-05
3.14241e-05
3.15042e-05
3.15674e-05
3.16112e-05
3.16364e-05
3.16476e-05
3.1644e-05
3.16269e-05
3.15963e-05
3.1556e-05
3.15057e-05
3.14455e-05
3.13772e-05
3.13013e-05
3.12182e-05
3.11282e-05
3.1032e-05
3.09288e-05
3.08195e-05
3.07038e-05
3.0581e-05
3.04508e-05
3.03129e-05
3.01665e-05
3.00104e-05
2.98443e-05
2.96675e-05
2.94778e-05
2.92762e-05
2.90612e-05
2.8832e-05
2.85901e-05
2.8335e-05
2.80677e-05
2.7789e-05
2.74991e-05
2.71976e-05
2.68833e-05
2.65542e-05
2.62075e-05
2.58427e-05
2.54593e-05
2.50585e-05
2.46426e-05
2.42121e-05
2.37655e-05
2.32989e-05
2.28093e-05
2.22972e-05
2.17665e-05
2.12284e-05
2.06657e-05
2.01139e-05
1.96225e-05
1.92032e-05
1.87855e-05
1.83319e-05
1.78773e-05
1.72656e-05
1.71192e-05
1.59067e-05
1.78528e-05
1.28865e-05
2.57864e-05
2.69533e-05
3.70514e-05
2.77282e-05
2.66501e-05
2.62453e-05
2.72189e-05
2.72976e-05
2.76091e-05
2.78311e-05
2.80619e-05
2.82681e-05
2.84596e-05
2.86309e-05
2.87868e-05
2.89236e-05
2.90422e-05
2.91437e-05
2.92288e-05
2.92961e-05
2.935e-05
2.93882e-05
2.94118e-05
2.94243e-05
2.9425e-05
2.94144e-05
2.93938e-05
2.93668e-05
2.93299e-05
2.92864e-05
2.92375e-05
2.91818e-05
2.91212e-05
2.90553e-05
2.89853e-05
2.89096e-05
2.883e-05
2.87453e-05
2.8655e-05
2.85593e-05
2.84574e-05
2.83482e-05
2.82313e-05
2.81058e-05
2.79704e-05
2.78245e-05
2.76675e-05
2.74979e-05
2.73165e-05
2.71233e-05
2.69183e-05
2.6703e-05
2.64778e-05
2.62432e-05
2.59984e-05
2.57427e-05
2.54725e-05
2.51861e-05
2.48822e-05
2.45585e-05
2.42178e-05
2.38613e-05
2.34891e-05
2.31013e-05
2.26944e-05
2.22656e-05
2.18164e-05
2.13497e-05
2.08745e-05
2.03737e-05
1.9883e-05
1.94454e-05
1.9068e-05
1.86912e-05
1.82825e-05
1.78727e-05
1.73504e-05
1.72577e-05
1.62285e-05
1.79075e-05
1.3027e-05
2.57665e-05
2.6958e-05
3.70723e-05
2.60613e-05
2.50675e-05
2.46467e-05
2.54421e-05
2.55041e-05
2.57634e-05
2.5944e-05
2.61316e-05
2.62961e-05
2.6453e-05
2.65925e-05
2.67182e-05
2.6831e-05
2.6927e-05
2.70109e-05
2.70828e-05
2.71394e-05
2.71844e-05
2.72191e-05
2.72422e-05
2.72565e-05
2.72612e-05
2.72575e-05
2.72477e-05
2.72309e-05
2.72076e-05
2.71814e-05
2.71496e-05
2.71125e-05
2.70719e-05
2.70303e-05
2.69838e-05
2.69349e-05
2.68809e-05
2.68246e-05
2.67676e-05
2.67017e-05
2.66325e-05
2.65585e-05
2.64784e-05
2.63892e-05
2.62933e-05
2.61876e-05
2.60706e-05
2.59453e-05
2.58074e-05
2.56599e-05
2.55032e-05
2.53365e-05
2.51631e-05
2.49814e-05
2.47911e-05
2.45924e-05
2.43797e-05
2.41512e-05
2.39068e-05
2.3642e-05
2.33594e-05
2.30622e-05
2.2748e-05
2.24189e-05
2.20733e-05
2.17066e-05
2.13216e-05
2.09204e-05
2.051e-05
2.00722e-05
1.96446e-05
1.92615e-05
1.8927e-05
1.8592e-05
1.823e-05
1.78698e-05
1.7442e-05
1.74058e-05
1.65475e-05
1.79445e-05
1.32912e-05
2.56714e-05
2.70148e-05
3.70954e-05
2.40807e-05
2.31612e-05
2.27506e-05
2.34131e-05
2.34411e-05
2.3649e-05
2.37802e-05
2.39109e-05
2.40479e-05
2.41574e-05
2.42604e-05
2.4365e-05
2.44466e-05
2.45167e-05
2.45873e-05
2.46479e-05
2.46858e-05
2.47296e-05
2.47605e-05
2.47834e-05
2.48031e-05
2.48097e-05
2.48183e-05
2.48219e-05
2.48161e-05
2.48108e-05
2.48033e-05
2.47919e-05
2.47785e-05
2.47596e-05
2.4746e-05
2.47291e-05
2.47082e-05
2.46825e-05
2.46631e-05
2.46396e-05
2.46081e-05
2.45752e-05
2.45405e-05
2.45004e-05
2.44509e-05
2.43997e-05
2.43343e-05
2.42633e-05
2.41865e-05
2.40943e-05
2.3998e-05
2.38952e-05
2.37811e-05
2.36662e-05
2.35439e-05
2.34137e-05
2.328e-05
2.31312e-05
2.29671e-05
2.27887e-05
2.25909e-05
2.23729e-05
2.21423e-05
2.18957e-05
2.16349e-05
2.13601e-05
2.1066e-05
2.07562e-05
2.04309e-05
2.00944e-05
1.97297e-05
1.93752e-05
1.90529e-05
1.87658e-05
1.84791e-05
1.81719e-05
1.78706e-05
1.75561e-05
1.75704e-05
1.69142e-05
1.78997e-05
1.37946e-05
2.54104e-05
2.68748e-05
3.64435e-05
2.17962e-05
2.10831e-05
2.07485e-05
2.12405e-05
2.12443e-05
2.13941e-05
2.14697e-05
2.1558e-05
2.16549e-05
2.1721e-05
2.1795e-05
2.18701e-05
2.19221e-05
2.19706e-05
2.2029e-05
2.20726e-05
2.20989e-05
2.21417e-05
2.21639e-05
2.21916e-05
2.22166e-05
2.22234e-05
2.22446e-05
2.22635e-05
2.22679e-05
2.22809e-05
2.22889e-05
2.2298e-05
2.23099e-05
2.23148e-05
2.23236e-05
2.23362e-05
2.23415e-05
2.23466e-05
2.23613e-05
2.2366e-05
2.237e-05
2.23732e-05
2.23751e-05
2.23708e-05
2.23628e-05
2.23496e-05
2.2326e-05
2.23026e-05
2.22673e-05
2.22247e-05
2.21809e-05
2.21309e-05
2.20748e-05
2.20196e-05
2.19615e-05
2.18964e-05
2.18297e-05
2.17496e-05
2.16553e-05
2.15463e-05
2.14191e-05
2.12732e-05
2.11156e-05
2.09445e-05
2.07612e-05
2.05658e-05
2.03545e-05
2.01291e-05
1.98876e-05
1.96332e-05
1.93509e-05
1.90767e-05
1.88203e-05
1.85854e-05
1.83532e-05
1.8109e-05
1.78806e-05
1.76932e-05
1.7762e-05
1.72953e-05
1.78264e-05
1.43231e-05
2.53812e-05
2.67451e-05
3.64005e-05
1.96824e-05
1.91023e-05
1.88011e-05
1.91841e-05
1.91765e-05
1.92637e-05
1.9316e-05
1.93881e-05
1.94257e-05
1.94813e-05
1.95398e-05
1.95795e-05
1.96168e-05
1.96572e-05
1.97032e-05
1.97273e-05
1.97614e-05
1.97945e-05
1.98123e-05
1.9847e-05
1.98749e-05
1.98878e-05
1.99169e-05
1.99432e-05
1.99582e-05
1.999e-05
2.00103e-05
2.00331e-05
2.00642e-05
2.00899e-05
2.01154e-05
2.01507e-05
2.01774e-05
2.02075e-05
2.02455e-05
2.02742e-05
2.03051e-05
2.03373e-05
2.03661e-05
2.03899e-05
2.04144e-05
2.04305e-05
2.04444e-05
2.0456e-05
2.04563e-05
2.04579e-05
2.04583e-05
2.04546e-05
2.04512e-05
2.04486e-05
2.04481e-05
2.04426e-05
2.04336e-05
2.04169e-05
2.03844e-05
2.03383e-05
2.02763e-05
2.01974e-05
2.01099e-05
2.0011e-05
1.99025e-05
1.97852e-05
1.96544e-05
1.95097e-05
1.93503e-05
1.9176e-05
1.89747e-05
1.87789e-05
1.85864e-05
1.8404e-05
1.82288e-05
1.80511e-05
1.79048e-05
1.78441e-05
1.79727e-05
1.7649e-05
1.779e-05
1.48293e-05
2.54791e-05
2.63755e-05
3.63771e-05
1.7761e-05
1.67945e-05
1.72277e-05
1.69051e-05
1.72731e-05
1.7228e-05
1.72863e-05
1.73351e-05
1.738e-05
1.74025e-05
1.7443e-05
1.74878e-05
1.75191e-05
1.75454e-05
1.75833e-05
1.7623e-05
1.76402e-05
1.76802e-05
1.77107e-05
1.77356e-05
1.77749e-05
1.78017e-05
1.78338e-05
1.78666e-05
1.79011e-05
1.79349e-05
1.79756e-05
1.80128e-05
1.80494e-05
1.80975e-05
1.8141e-05
1.81832e-05
1.82385e-05
1.82835e-05
1.83352e-05
1.83935e-05
1.84413e-05
1.84961e-05
1.85511e-05
1.86007e-05
1.8651e-05
1.8699e-05
1.87427e-05
1.8786e-05
1.88242e-05
1.88609e-05
1.88976e-05
1.8935e-05
1.89737e-05
1.90148e-05
1.90578e-05
1.9105e-05
1.91491e-05
1.91886e-05
1.9223e-05
1.92412e-05
1.92478e-05
1.92412e-05
1.922e-05
1.91934e-05
1.91591e-05
1.91171e-05
1.90691e-05
1.90097e-05
1.89371e-05
1.88511e-05
1.87491e-05
1.86218e-05
1.8497e-05
1.83627e-05
1.82306e-05
1.81124e-05
1.80029e-05
1.79446e-05
1.80052e-05
1.819e-05
1.79627e-05
1.77822e-05
1.54261e-05
2.56394e-05
2.58998e-05
3.63456e-05
1.59655e-05
1.50712e-05
1.54428e-05
1.51283e-05
1.54797e-05
1.54222e-05
1.54804e-05
1.55022e-05
1.55419e-05
1.55712e-05
1.55905e-05
1.56298e-05
1.5659e-05
1.56917e-05
1.5723e-05
1.57551e-05
1.57826e-05
1.58235e-05
1.58601e-05
1.58914e-05
1.59301e-05
1.5966e-05
1.6016e-05
1.60523e-05
1.60992e-05
1.61462e-05
1.61945e-05
1.62523e-05
1.63011e-05
1.63626e-05
1.64209e-05
1.64835e-05
1.65523e-05
1.66151e-05
1.66856e-05
1.676e-05
1.68292e-05
1.69003e-05
1.69762e-05
1.7047e-05
1.71187e-05
1.71903e-05
1.72574e-05
1.7327e-05
1.73942e-05
1.74629e-05
1.75325e-05
1.76042e-05
1.7682e-05
1.77631e-05
1.78454e-05
1.7933e-05
1.80187e-05
1.80984e-05
1.8175e-05
1.82361e-05
1.82867e-05
1.8328e-05
1.83581e-05
1.83851e-05
1.84073e-05
1.84244e-05
1.84367e-05
1.84399e-05
1.84308e-05
1.84089e-05
1.83717e-05
1.8311e-05
1.82495e-05
1.81682e-05
1.80845e-05
1.80219e-05
1.79807e-05
1.80127e-05
1.81851e-05
1.84158e-05
1.8247e-05
1.78253e-05
1.61959e-05
2.58622e-05
2.53363e-05
3.63249e-05
1.42518e-05
1.3445e-05
1.37473e-05
1.34574e-05
1.37829e-05
1.37395e-05
1.379e-05
1.38143e-05
1.38597e-05
1.38747e-05
1.39063e-05
1.39511e-05
1.39769e-05
1.4017e-05
1.40543e-05
1.40853e-05
1.41301e-05
1.41736e-05
1.42193e-05
1.42569e-05
1.43065e-05
1.43607e-05
1.44099e-05
1.44637e-05
1.45252e-05
1.45775e-05
1.46451e-05
1.47152e-05
1.47742e-05
1.48508e-05
1.49219e-05
1.5001e-05
1.50815e-05
1.51568e-05
1.52431e-05
1.53331e-05
1.54133e-05
1.55011e-05
1.55931e-05
1.56789e-05
1.57671e-05
1.58601e-05
1.59456e-05
1.60359e-05
1.61311e-05
1.62235e-05
1.63225e-05
1.64236e-05
1.65327e-05
1.66447e-05
1.67582e-05
1.68784e-05
1.69947e-05
1.71063e-05
1.72161e-05
1.73123e-05
1.74004e-05
1.74832e-05
1.75587e-05
1.76331e-05
1.77042e-05
1.77733e-05
1.78389e-05
1.7896e-05
1.79428e-05
1.79775e-05
1.79974e-05
1.79959e-05
1.7989e-05
1.79553e-05
1.79194e-05
1.79136e-05
1.79429e-05
1.80671e-05
1.83379e-05
1.85923e-05
1.84384e-05
1.78602e-05
1.704e-05
2.61386e-05
2.46311e-05
3.63499e-05
1.30446e-05
1.23465e-05
1.26211e-05
1.23468e-05
1.26511e-05
1.26082e-05
1.26362e-05
1.26767e-05
1.27071e-05
1.27184e-05
1.27547e-05
1.27921e-05
1.28175e-05
1.28483e-05
1.28897e-05
1.29194e-05
1.29659e-05
1.30089e-05
1.30455e-05
1.30888e-05
1.31433e-05
1.3198e-05
1.32418e-05
1.32969e-05
1.33687e-05
1.34192e-05
1.34877e-05
1.35606e-05
1.36266e-05
1.37031e-05
1.37816e-05
1.38637e-05
1.39491e-05
1.40326e-05
1.41266e-05
1.42221e-05
1.43119e-05
1.4413e-05
1.45144e-05
1.46164e-05
1.47173e-05
1.4829e-05
1.4935e-05
1.50468e-05
1.51654e-05
1.52799e-05
1.54066e-05
1.55321e-05
1.56645e-05
1.58004e-05
1.59381e-05
1.60801e-05
1.62183e-05
1.63562e-05
1.64901e-05
1.66156e-05
1.67368e-05
1.68544e-05
1.6968e-05
1.7082e-05
1.71932e-05
1.73042e-05
1.74127e-05
1.75127e-05
1.76063e-05
1.76884e-05
1.77564e-05
1.78063e-05
1.78488e-05
1.78605e-05
1.78677e-05
1.79093e-05
1.79965e-05
1.8197e-05
1.85382e-05
1.87973e-05
1.86592e-05
1.80964e-05
1.82164e-05
2.65704e-05
2.39549e-05
3.65625e-05
1.17722e-05
1.11157e-05
1.13617e-05
1.1092e-05
1.14379e-05
1.139e-05
1.14419e-05
1.14867e-05
1.15025e-05
1.15287e-05
1.1584e-05
1.16276e-05
1.16637e-05
1.16964e-05
1.1745e-05
1.17967e-05
1.18486e-05
1.18933e-05
1.1935e-05
1.20058e-05
1.20602e-05
1.21189e-05
1.2177e-05
1.2236e-05
1.23177e-05
1.23793e-05
1.24497e-05
1.25251e-05
1.26038e-05
1.2684e-05
1.27624e-05
1.28539e-05
1.29372e-05
1.30275e-05
1.31254e-05
1.32193e-05
1.33163e-05
1.34156e-05
1.35251e-05
1.36312e-05
1.37359e-05
1.38545e-05
1.39697e-05
1.40893e-05
1.42135e-05
1.43411e-05
1.44738e-05
1.46076e-05
1.47465e-05
1.48877e-05
1.50335e-05
1.51795e-05
1.53274e-05
1.54763e-05
1.5622e-05
1.57656e-05
1.5909e-05
1.60514e-05
1.61921e-05
1.63358e-05
1.64779e-05
1.66217e-05
1.67639e-05
1.68997e-05
1.70313e-05
1.71513e-05
1.72581e-05
1.73475e-05
1.74198e-05
1.74598e-05
1.75114e-05
1.76124e-05
1.77785e-05
1.80763e-05
1.84791e-05
1.8686e-05
1.84636e-05
1.7936e-05
1.89327e-05
2.68152e-05
2.27797e-05
3.69374e-05
1.20971e-05
1.16603e-05
1.18272e-05
1.16396e-05
1.18025e-05
1.17673e-05
1.18063e-05
1.18266e-05
1.18207e-05
1.18367e-05
1.18709e-05
1.1899e-05
1.19165e-05
1.19282e-05
1.19597e-05
1.19928e-05
1.20208e-05
1.20477e-05
1.20713e-05
1.21219e-05
1.21572e-05
1.21897e-05
1.22319e-05
1.22758e-05
1.23312e-05
1.23791e-05
1.24346e-05
1.24905e-05
1.25559e-05
1.26238e-05
1.26902e-05
1.27725e-05
1.2848e-05
1.29367e-05
1.30296e-05
1.31258e-05
1.32273e-05
1.33328e-05
1.34524e-05
1.35668e-05
1.36902e-05
1.38196e-05
1.39487e-05
1.40809e-05
1.42162e-05
1.43533e-05
1.44864e-05
1.46241e-05
1.47605e-05
1.48985e-05
1.50426e-05
1.51878e-05
1.53404e-05
1.5495e-05
1.56532e-05
1.58118e-05
1.59704e-05
1.61279e-05
1.62804e-05
1.64332e-05
1.65828e-05
1.67337e-05
1.68841e-05
1.70319e-05
1.71776e-05
1.73147e-05
1.74436e-05
1.75621e-05
1.76765e-05
1.77611e-05
1.78307e-05
1.79308e-05
1.80837e-05
1.83557e-05
1.87176e-05
1.88883e-05
1.87904e-05
1.87787e-05
2.08348e-05
2.7533e-05
2.31253e-05
3.86646e-05
1.05552e-05
1.06131e-05
1.05534e-05
1.06716e-05
1.07244e-05
1.07415e-05
1.07711e-05
1.0792e-05
1.08253e-05
1.08605e-05
1.08817e-05
1.09163e-05
1.0951e-05
1.09874e-05
1.10229e-05
1.10571e-05
1.10993e-05
1.1139e-05
1.11796e-05
1.12254e-05
1.12668e-05
1.13154e-05
1.13607e-05
1.14094e-05
1.14622e-05
1.15162e-05
1.15708e-05
1.16257e-05
1.16877e-05
1.17474e-05
1.18116e-05
1.18788e-05
1.19454e-05
1.20193e-05
1.20922e-05
1.21709e-05
1.22507e-05
1.23336e-05
1.24204e-05
1.25054e-05
1.25959e-05
1.26852e-05
1.2774e-05
1.28623e-05
1.2952e-05
1.30387e-05
1.31252e-05
1.32154e-05
1.33067e-05
1.34054e-05
1.35099e-05
1.36224e-05
1.37441e-05
1.38702e-05
1.40038e-05
1.41401e-05
1.42813e-05
1.44249e-05
1.45707e-05
1.47244e-05
1.48816e-05
1.50454e-05
1.52123e-05
1.53799e-05
1.55462e-05
1.57029e-05
1.58498e-05
1.59802e-05
1.60553e-05
1.60877e-05
1.61952e-05
1.64139e-05
1.67492e-05
1.72468e-05
1.77039e-05
1.76627e-05
1.71546e-05
1.73361e-05
2.05748e-05
2.53733e-05
2.19781e-05
3.86572e-05
)
;

boundaryField
{
    inlet
    {
        type            calculated;
        value           nonuniform List<scalar> 
23
(
7.59915e-05
7.57842e-05
7.55824e-05
7.53857e-05
7.51899e-05
7.49908e-05
7.47831e-05
7.45627e-05
7.43241e-05
7.40622e-05
7.377e-05
7.34489e-05
7.30805e-05
7.25164e-05
7.20435e-05
7.14666e-05
7.07442e-05
6.98567e-05
6.87763e-05
6.7487e-05
6.59154e-05
6.46671e-05
6.22238e-05
)
;
    }
    outlet
    {
        type            calculated;
        value           nonuniform List<scalar> 
82
(
9.4348e-06
9.4236e-06
9.52331e-06
9.57794e-06
9.64219e-06
9.65683e-06
9.68786e-06
9.70742e-06
9.74289e-06
9.78085e-06
9.79996e-06
9.83622e-06
9.87282e-06
9.91101e-06
9.94798e-06
9.98296e-06
1.0028e-05
1.00697e-05
1.0112e-05
1.01613e-05
1.02041e-05
1.02558e-05
1.03033e-05
1.03545e-05
1.04107e-05
1.04676e-05
1.0525e-05
1.05819e-05
1.06474e-05
1.07091e-05
1.07754e-05
1.08449e-05
1.0912e-05
1.09878e-05
1.10605e-05
1.11394e-05
1.12183e-05
1.12995e-05
1.13846e-05
1.14659e-05
1.15534e-05
1.16384e-05
1.17224e-05
1.18054e-05
1.18906e-05
1.19724e-05
1.20546e-05
1.21423e-05
1.22318e-05
1.23304e-05
1.24356e-05
1.25492e-05
1.26719e-05
1.27975e-05
1.293e-05
1.30647e-05
1.32055e-05
1.33515e-05
1.35033e-05
1.36687e-05
1.38418e-05
1.40247e-05
1.42116e-05
1.43982e-05
1.45824e-05
1.47536e-05
1.49096e-05
1.50385e-05
1.50915e-05
1.51005e-05
1.52192e-05
1.54877e-05
1.5916e-05
1.6541e-05
1.70918e-05
1.70051e-05
1.62124e-05
1.60559e-05
1.94874e-05
2.48921e-05
1.98205e-05
3.68148e-05
)
;
    }
    walls
    {
        type            calculated;
        value           nonuniform List<scalar> 0();
    }
    frontAndBack
    {
        type            empty;
    }
    procBoundary3to2
    {
        type            processor;
        value           nonuniform List<scalar> 
88
(
2.66911e-05
3.72661e-05
1.27714e-05
2.54674e-05
2.54674e-05
1.29138e-05
1.65637e-05
1.65637e-05
1.79892e-05
1.68266e-05
1.62448e-05
1.62448e-05
2.17092e-05
2.08568e-05
2.01319e-05
1.94376e-05
1.86916e-05
1.86916e-05
2.59817e-05
2.5109e-05
2.421e-05
2.33032e-05
2.23847e-05
2.23847e-05
3.07059e-05
2.99868e-05
2.92572e-05
2.85217e-05
2.77818e-05
2.70343e-05
2.62708e-05
2.62708e-05
3.6369e-05
3.58959e-05
3.54072e-05
3.49038e-05
3.43859e-05
3.3855e-05
3.33115e-05
3.27555e-05
3.21871e-05
3.16041e-05
3.10054e-05
3.03888e-05
3.03888e-05
2.99308e-05
3.64706e-05
3.74617e-05
3.57037e-05
3.62565e-05
3.68164e-05
3.72821e-05
3.76694e-05
3.80105e-05
3.83136e-05
3.85952e-05
3.88382e-05
3.90444e-05
3.92196e-05
3.9358e-05
3.94656e-05
3.954e-05
3.95825e-05
3.95977e-05
3.9585e-05
3.9547e-05
3.94854e-05
3.94009e-05
3.92968e-05
3.9175e-05
3.90342e-05
3.88779e-05
3.87071e-05
3.85219e-05
3.8323e-05
3.81103e-05
3.7886e-05
3.7648e-05
3.73968e-05
3.7134e-05
3.68569e-05
3.65669e-05
3.62631e-05
3.59442e-05
3.56114e-05
3.52632e-05
3.4899e-05
3.4899e-05
)
;
    }
    procBoundary3to6
    {
        type            processor;
        value           uniform 8.00423e-06;
    }
    procBoundary3to7
    {
        type            processor;
        value           nonuniform List<scalar> 
16
(
3.17239e-06
2.84506e-05
2.87976e-05
2.53459e-05
2.36766e-05
2.21941e-05
2.03944e-05
1.85782e-05
1.85782e-05
1.67128e-05
1.50138e-05
1.33871e-05
1.22858e-05
1.1103e-05
1.1549e-05
1.06929e-05
)
;
    }
}


// ************************************************************************* //
