/*--------------------------------*- C++ -*----------------------------------*\
| =========                 |                                                 |
| \\      /  F ield         | OpenFOAM: The Open Source CFD Toolbox           |
|  \\    /   O peration     | Version:  2306                                  |
|   \\  /    A nd           | Website:  www.openfoam.com                      |
|    \\/     M anipulation  |                                                 |
\*---------------------------------------------------------------------------*/
FoamFile
{
    version     2.0;
    format      ascii;
    arch        "LSB;label=32;scalar=64";
    class       volScalarField;
    location    "0.016";
    object      Ma;
}
// * * * * * * * * * * * * * * * * * * * * * * * * * * * * * * * * * * * * * //

dimensions      [0 0 0 0 0 0 0];

internalField   nonuniform List<scalar> 
20000
(
0.18574238
0.22157146
0.24459713
0.26406579
0.2813482
0.29540302
0.29974042
0.29961744
0.2991835
0.29890401
0.29844311
0.29801653
0.29746214
0.29687165
0.29616693
0.2953814
0.29447846
0.29346705
0.29233512
0.29109046
0.28974412
0.28832221
0.28686699
0.28543731
0.28410887
0.28296418
0.28207807
0.28150535
0.28127989
0.28138008
0.28176755
0.28238335
0.28316155
0.28404671
0.28498161
0.28591554
0.2868159
0.28765437
0.28840837
0.28906571
0.28962905
0.29009668
0.29047861
0.29077946
0.29100709
0.29120393
0.29135488
0.29143113
0.29147254
0.29150482
0.18600081
0.22200013
0.24515704
0.26473463
0.28204907
0.29569701
0.29935142
0.29919071
0.2987466
0.29846299
0.29799107
0.29755468
0.29698613
0.29638036
0.29565759
0.29485125
0.2939252
0.292888
0.29172876
0.29045595
0.28908266
0.2876376
0.28616654
0.2847326
0.28341559
0.28230076
0.2814607
0.28095364
0.28080326
0.28097938
0.28144013
0.28212087
0.28295337
0.2838817
0.28484988
0.28580909
0.28672888
0.28758161
0.28834586
0.28901195
0.28958326
0.29005812
0.29044653
0.29075231
0.29098527
0.29118992
0.29134599
0.29141784
0.29146331
0.29150263
0.18630355
0.22248826
0.24578151
0.2654686
0.28281968
0.29596289
0.29888845
0.29873613
0.29827935
0.29798854
0.29750403
0.29705565
0.29647216
0.29584952
0.29510762
0.2942792
0.29332882
0.29226458
0.29107682
0.28977477
0.2883738
0.28690541
0.28541928
0.28398303
0.28268098
0.28160046
0.28081297
0.28037986
0.28030941
0.28056861
0.28110802
0.28185832
0.282749
0.28372279
0.28472599
0.28571164
0.2866504
0.28751627
0.28828989
0.28896426
0.28954278
0.29002387
0.29041782
0.29072773
0.29096507
0.29117775
0.29133648
0.29140682
0.29145581
0.29149732
0.1865777
0.22294272
0.24637027
0.26615933
0.28354822
0.29612427
0.2983364
0.29824057
0.29777234
0.29747512
0.29697829
0.29651794
0.29591916
0.29527912
0.29451733
0.29366595
0.29269033
0.29159808
0.29038091
0.28904894
0.28762006
0.28612875
0.28462894
0.28319307
0.28191003
0.28086825
0.28014025
0.27978743
0.27980132
0.28014851
0.28077007
0.28159234
0.2825427
0.28356323
0.28460218
0.28561456
0.2865725
0.28745157
0.28823451
0.28891698
0.28950266
0.28998993
0.29038938
0.2907034
0.29094507
0.2911656
0.29132617
0.29139603
0.29144864
0.29149226
0.18684179
0.22338863
0.24694916
0.26683552
0.28425831
0.29619599
0.29782904
0.2977063
0.29722641
0.29692227
0.29641279
0.29593986
0.29532529
0.29466708
0.29388462
0.2930093
0.29200736
0.29088598
0.28963834
0.28827563
0.28681846
0.28530465
0.28379269
0.28236027
0.28110077
0.28010287
0.27944262
0.27917562
0.27928028
0.27972058
0.28042826
0.28132533
0.28233733
0.28340581
0.28448123
0.28552092
0.28649816
0.28739001
0.28818188
0.28887205
0.28946451
0.2899576
0.29036221
0.29068006
0.29092586
0.29115381
0.29131553
0.29138613
0.29144198
0.29148711
0.18709485
0.22382256
0.24751623
0.26748932
0.28493445
0.29616691
0.29725427
0.29713203
0.29664025
0.29632892
0.29580654
0.29532056
0.29468974
0.29401261
0.29320868
0.29230838
0.29127902
0.29012735
0.28884818
0.28745396
0.28596826
0.28443257
0.28291035
0.28148486
0.28025374
0.27930564
0.27872199
0.27854565
0.27874807
0.27928617
0.28008354
0.28105782
0.28213299
0.28325043
0.28436285
0.28543005
0.28642651
0.28733106
0.28813165
0.28882911
0.28942798
0.28992651
0.290336
0.29065747
0.29090731
0.29114212
0.29130454
0.29137671
0.29143565
0.29148202
0.18733121
0.22424185
0.24807051
0.26812234
0.28556895
0.29603915
0.29664192
0.29651807
0.29601409
0.29569508
0.29515941
0.29465966
0.29401192
0.2933149
0.29248849
0.29156203
0.29050401
0.28932081
0.28800899
0.28658246
0.28506808
0.28351132
0.28198105
0.28056644
0.27936871
0.27847768
0.27797948
0.27789918
0.27820624
0.27884685
0.27973731
0.28079103
0.28193068
0.28309789
0.28424771
0.28534257
0.28635812
0.28727493
0.28808395
0.28878862
0.28939344
0.28989694
0.29031093
0.29063568
0.29088932
0.29113054
0.29129342
0.29136778
0.29142956
0.29147697
0.18755171
0.22464948
0.24861711
0.26873999
0.28615101
0.29580889
0.29598871
0.29586485
0.29534829
0.29502092
0.2944713
0.2939568
0.29329123
0.29257317
0.29172311
0.29076916
0.28968112
0.28846504
0.2871194
0.28565982
0.2841167
0.28253994
0.28100429
0.27960499
0.27844603
0.27762077
0.27721596
0.27723825
0.27765648
0.27840419
0.27939087
0.28052595
0.28173115
0.28294869
0.28413614
0.28525866
0.28629307
0.28722178
0.28803884
0.28875024
0.28936077
0.28986906
0.29028714
0.29061478
0.2908718
0.29111905
0.29128217
0.29135914
0.29142359
0.29147194
0.18775971
0.22504796
0.24915954
0.26934921
0.28667291
0.29544568
0.29529701
0.29517275
0.29464277
0.29430602
0.29374162
0.29321125
0.29252685
0.29178647
0.29091145
0.28992856
0.28880899
0.28755862
0.28617795
0.28468461
0.28311284
0.28151743
0.27997956
0.27860051
0.27748644
0.27673684
0.27643215
0.2765652
0.27710069
0.27795993
0.27904565
0.28026371
0.28153525
0.28280347
0.28402859
0.28517864
0.28623158
0.28717172
0.28799646
0.2887143
0.28933007
0.28984263
0.29026456
0.29059492
0.29085511
0.29110784
0.29127091
0.29135069
0.29141761
0.2914669
0.18795604
0.22543616
0.24969799
0.26995217
0.28712043
0.29496411
0.29456563
0.29444005
0.29389621
0.29354934
0.29296949
0.29242218
0.29171788
0.29095377
0.29005233
0.28903888
0.2878862
0.28660002
0.28518311
0.28365537
0.28205523
0.28044288
0.27890647
0.27755307
0.27649098
0.27582775
0.27562962
0.27588224
0.27654086
0.27751579
0.27870307
0.28000541
0.28134379
0.28266278
0.28392548
0.28510276
0.28617378
0.28712485
0.28795689
0.28868084
0.28930146
0.28981793
0.29024319
0.29057592
0.29083985
0.29109721
0.29125972
0.29134229
0.29141157
0.29146182
0.18813887
0.22581221
0.25022966
0.27055024
0.28747442
0.2943619
0.29379468
0.2936668
0.29310856
0.2927506
0.29215438
0.29158873
0.29086318
0.29007373
0.28914426
0.28809856
0.28691108
0.2855876
0.28413325
0.28257056
0.28094255
0.27931543
0.27778466
0.27646263
0.27546129
0.27489508
0.27481076
0.27519156
0.27597916
0.27707363
0.27836461
0.27975219
0.28115761
0.28252725
0.28382722
0.28503129
0.2861198
0.28708129
0.28792026
0.28864996
0.289275
0.28979495
0.29022313
0.29055799
0.29082636
0.2910868
0.29124863
0.29133385
0.29140543
0.29145687
0.18831472
0.2261815
0.25075448
0.27115041
0.28772376
0.29363984
0.29298488
0.2928529
0.29227906
0.29190852
0.29129466
0.29070911
0.28996092
0.28914453
0.28818544
0.28710582
0.28588189
0.28451957
0.28302665
0.28142863
0.27977355
0.2781343
0.27661398
0.27532962
0.27439959
0.27393999
0.27397829
0.27449554
0.27541776
0.2766353
0.27803176
0.27950516
0.28097753
0.28239744
0.2837342
0.28496445
0.28606982
0.28704117
0.28788664
0.28862159
0.2892506
0.28977364
0.29020446
0.29054116
0.2908143
0.29107672
0.29123774
0.29132542
0.29139924
0.29145235
0.18847519
0.22653378
0.2512665
0.27175519
0.28785694
0.29279329
0.29213145
0.29199426
0.29140405
0.29101985
0.29038758
0.28978091
0.28900896
0.2881642
0.28717396
0.28605878
0.28479671
0.28339409
0.28186154
0.28022797
0.27854696
0.27689883
0.27539437
0.27415496
0.27330825
0.2729638
0.27313527
0.27379674
0.27485903
0.27620273
0.27770601
0.27926544
0.28080436
0.28227395
0.2836468
0.28490249
0.28602405
0.28700464
0.28785602
0.28859555
0.28922805
0.2897538
0.29018715
0.29052546
0.29080332
0.29106713
0.29122717
0.29131694
0.29139303
0.29144808
0.18861197
0.22685999
0.25175147
0.27235049
0.28787128
0.29188994
0.29122997
0.29108746
0.29048076
0.29008226
0.28943104
0.2888022
0.2880054
0.28713085
0.28610793
0.28495549
0.2836536
0.28220921
0.28063608
0.27896693
0.27726157
0.27560843
0.27412586
0.27293993
0.27218952
0.27196886
0.27228464
0.2730979
0.27430531
0.27577784
0.27738884
0.27903413
0.2806389
0.2821573
0.28356537
0.28484572
0.28598263
0.28697162
0.28782821
0.28857187
0.28920745
0.28973547
0.29017093
0.29051073
0.2907936
0.29105807
0.29121698
0.2913084
0.29138688
0.29144421
0.1887358
0.22716796
0.25221207
0.27293707
0.28775721
0.29100945
0.29028056
0.29013208
0.28950842
0.2890946
0.28842368
0.28777138
0.2869485
0.28604262
0.28498538
0.28379396
0.28245054
0.28096297
0.27934837
0.27764388
0.27591622
0.27426258
0.27280845
0.27168659
0.27104544
0.27095834
0.27142939
0.27240191
0.27375908
0.27536258
0.27708171
0.27881228
0.2804819
0.282048
0.2834903
0.2847944
0.28594542
0.28694189
0.28780326
0.28855135
0.28918956
0.28971933
0.29015568
0.29049679
0.29078519
0.29104946
0.29120721
0.29129979
0.29138083
0.29144076
0.1888479
0.22745628
0.25264328
0.27350818
0.28750674
0.29004568
0.28928246
0.28912695
0.28848571
0.28805534
0.2873638
0.28668668
0.28583643
0.28489767
0.28380444
0.28257224
0.28118556
0.27965334
0.2779965
0.27625719
0.2745099
0.27286094
0.2714427
0.27039768
0.26987765
0.26993587
0.27057272
0.27171174
0.27322278
0.27495887
0.27678606
0.27860095
0.28033408
0.28194653
0.28342204
0.28474836
0.2859121
0.28691553
0.28778191
0.28853422
0.28917435
0.28970544
0.29014215
0.29048408
0.29077794
0.29104133
0.29119786
0.29129118
0.29137491
0.29143777
0.18894616
0.22772345
0.25303817
0.27405114
0.2871176
0.28902923
0.2882334
0.28807
0.28741062
0.28696259
0.28624968
0.28554651
0.2846676
0.28369435
0.28256328
0.2812884
0.27985655
0.27827821
0.27657846
0.27480524
0.27304164
0.27140335
0.27002969
0.26907612
0.26868822
0.26890544
0.26971813
0.27103046
0.27269892
0.2745686
0.27650327
0.27840109
0.28019607
0.28185346
0.28336079
0.28470732
0.28588337
0.28689348
0.28776458
0.28851967
0.28916109
0.28969311
0.29013055
0.29047314
0.29077175
0.29103374
0.29118892
0.29128266
0.29136913
0.29143527
0.18902717
0.2279722
0.25339991
0.27455381
0.28658835
0.2879527
0.2871317
0.28695986
0.28628224
0.28581563
0.28508059
0.28434996
0.28344084
0.28243114
0.28126011
0.27994032
0.27846126
0.2768353
0.27509217
0.27328642
0.27151057
0.26988977
0.268571
0.26772471
0.26748044
0.26787088
0.26886924
0.27036121
0.27218997
0.27419361
0.27623465
0.27821361
0.28006853
0.28176933
0.28330617
0.28467213
0.28586015
0.28687592
0.28775039
0.28850761
0.28914991
0.28968234
0.29012013
0.29046352
0.29076659
0.29102661
0.29118033
0.29127434
0.29136349
0.2914333
0.18908164
0.22820051
0.25373427
0.27500073
0.2859179
0.28682331
0.28597962
0.28579839
0.2851018
0.28461505
0.28385647
0.28309634
0.28215486
0.28110628
0.27989275
0.27852563
0.2769972
0.27532218
0.27353548
0.27169917
0.26991592
0.26832025
0.26706912
0.26634616
0.2662585
0.26683624
0.26802992
0.26970717
0.27169837
0.27383569
0.27598143
0.27803932
0.27995214
0.28169423
0.28325828
0.28464398
0.28584171
0.28686193
0.28773917
0.28849841
0.289141
0.28967336
0.29011081
0.29045478
0.29076246
0.29101985
0.29117206
0.29126628
0.29135802
0.29143191
0.18911582
0.22841587
0.25405986
0.27538257
0.28503496
0.28564554
0.28477939
0.28458671
0.28386964
0.28336038
0.28257611
0.28178386
0.28080743
0.27971725
0.27845851
0.27704154
0.27546162
0.27373628
0.27190619
0.27004202
0.2682571
0.26669541
0.26552752
0.26494271
0.26502722
0.26580585
0.26720406
0.26907151
0.2712265
0.27349653
0.27574477
0.27787904
0.27984749
0.28162788
0.28321889
0.28462187
0.28582747
0.28685156
0.28773135
0.28849203
0.28913434
0.28966614
0.29010283
0.29044717
0.29075937
0.2910135
0.2911641
0.29125851
0.29135281
0.29143112
0.18912558
0.22861952
0.25438502
0.27567627
0.28396326
0.28441821
0.28352861
0.28332223
0.28258289
0.28204851
0.28123629
0.28040925
0.27939528
0.27826083
0.27695425
0.27548502
0.27385162
0.27207491
0.27020214
0.26831362
0.26653378
0.26501658
0.26394979
0.26351738
0.26379178
0.26478432
0.26639572
0.26845739
0.27077667
0.27317769
0.27552569
0.27773357
0.27975476
0.28157058
0.28318829
0.2846052
0.28581798
0.28684514
0.28772691
0.28848849
0.28912994
0.28966069
0.29009616
0.29044081
0.29075737
0.29100762
0.29115644
0.291251
0.29134795
0.29143097
0.18909655
0.22880014
0.25471477
0.27585914
0.28270839
0.28313628
0.28222176
0.28199931
0.28123616
0.28067444
0.27983245
0.27896841
0.27791468
0.27673357
0.27537665
0.27385285
0.27216412
0.2703353
0.26842117
0.26651273
0.26474581
0.2632857
0.26233951
0.26207473
0.26255728
0.2637765
0.26560893
0.26786789
0.27035104
0.27288061
0.2753252
0.27760357
0.27967372
0.28152421
0.28316504
0.28459458
0.28581321
0.28684264
0.28772587
0.28848776
0.28912778
0.28965699
0.29009081
0.29043574
0.29075647
0.29100225
0.29114905
0.29124369
0.29134349
0.29143148
0.18900972
0.22894292
0.25504515
0.27591939
0.28130647
0.28179002
0.2808507
0.2806112
0.27982385
0.27923346
0.27836053
0.2774577
0.27636219
0.2751321
0.27372239
0.27214176
0.27039598
0.26851464
0.26656117
0.26463818
0.26289325
0.26150585
0.26070025
0.26062029
0.26132916
0.26278745
0.26484779
0.26730603
0.26995166
0.2726066
0.2751442
0.2774893
0.27960456
0.28148921
0.2831493
0.28459005
0.28581317
0.2868441
0.28772825
0.28848982
0.28912785
0.28965503
0.29008677
0.29043203
0.29075661
0.29099734
0.29114194
0.29123658
0.29133939
0.29143269
0.18885684
0.22903323
0.25536576
0.27583842
0.27999482
0.28037704
0.27941308
0.27915554
0.27834358
0.27772306
0.27681781
0.27587423
0.27473474
0.27345322
0.27198815
0.27034838
0.26854393
0.26661011
0.26462015
0.26268912
0.26097687
0.25968147
0.25903506
0.2591605
0.26011317
0.2618223
0.26411629
0.26677462
0.26958038
0.27235691
0.27498349
0.27739059
0.27954907
0.2814639
0.28314152
0.28459154
0.28581784
0.28684953
0.28773404
0.28849464
0.28913012
0.28965481
0.29008407
0.29042983
0.29075766
0.2909928
0.29113513
0.29122974
0.2913356
0.29143464
0.18864923
0.22907588
0.25568401
0.27560558
0.2785445
0.27889826
0.27790889
0.27763144
0.27679382
0.27614125
0.27520196
0.27421532
0.27302934
0.27169367
0.27017045
0.26846918
0.26660459
0.26461886
0.26259622
0.26066494
0.25899831
0.25781708
0.25734831
0.25770214
0.25891549
0.26088629
0.26341838
0.26627636
0.26923889
0.27213264
0.27484337
0.27730747
0.2795085
0.28144832
0.28314166
0.28459905
0.28582719
0.28685891
0.28774322
0.28850216
0.28913454
0.2896563
0.29008275
0.29042932
0.29075937
0.29098858
0.29112868
0.29122327
0.29133223
0.29143736
0.18838731
0.22906414
0.25598535
0.2752073
0.27702102
0.27735123
0.27633609
0.27603715
0.27517278
0.27448598
0.27351053
0.27247816
0.2712428
0.26984995
0.26826561
0.26650038
0.26457445
0.26253803
0.26048764
0.25856536
0.2569601
0.25591724
0.25564631
0.256252
0.25774251
0.25998461
0.2627578
0.26581368
0.26892873
0.2719347
0.2747237
0.27724152
0.27948089
0.28144305
0.28314967
0.28461248
0.28584118
0.28687225
0.28775578
0.28851234
0.28914108
0.28965948
0.29008285
0.29043075
0.29076147
0.29098469
0.29112264
0.29121726
0.29132956
0.2914409
0.18809203
0.22901411
0.25626223
0.27462853
0.27541556
0.2757366
0.27469439
0.27437146
0.27347851
0.27275474
0.27174058
0.27065947
0.2693715
0.26791818
0.26626954
0.26443793
0.26244976
0.26036476
0.25829276
0.25639047
0.2548663
0.25398664
0.2539365
0.25481737
0.25660089
0.25912245
0.26213812
0.26538881
0.26865132
0.27176343
0.27462443
0.27719457
0.27946552
0.28144799
0.2831655
0.2846318
0.28585977
0.28688951
0.28777168
0.28852511
0.28914968
0.28966434
0.29008443
0.29043431
0.29076369
0.29098114
0.29111705
0.29121171
0.29132771
0.29144527
0.18777414
0.22893711
0.25650015
0.27374179
0.27373549
0.27405105
0.2729805
0.27263107
0.27170783
0.27094433
0.26988872
0.26875557
0.26741141
0.26589402
0.26417775
0.26227743
0.26022671
0.25809627
0.25601026
0.25414135
0.25272256
0.25202959
0.25222751
0.25340599
0.25549732
0.25830475
0.26156261
0.26500379
0.26840774
0.27161868
0.27454695
0.27716496
0.27946336
0.28146307
0.28318901
0.28465688
0.28588289
0.28691069
0.28779087
0.28854039
0.2891603
0.28967084
0.29008754
0.29043992
0.29076601
0.29097801
0.29111189
0.29120657
0.29132665
0.2914505
0.18743364
0.22883625
0.25667484
0.27262154
0.27198018
0.27229147
0.27119162
0.27081327
0.26985782
0.26905141
0.2679511
0.26676208
0.26535771
0.26377241
0.26198516
0.26001415
0.25790135
0.25572992
0.25363929
0.25182019
0.25053463
0.25005248
0.25052837
0.2520261
0.25443855
0.25753632
0.2610343
0.26466044
0.26819843
0.27150028
0.27449343
0.27715107
0.2794742
0.28148817
0.28322011
0.28468763
0.28591049
0.28693573
0.2878133
0.28855812
0.28917289
0.28967896
0.29009217
0.29044708
0.29076853
0.29097527
0.2911071
0.29120174
0.29132644
0.29145656
0.18708852
0.2287158
0.25675989
0.27125545
0.27015197
0.27045675
0.26932591
0.26891516
0.26792471
0.26707142
0.26592246
0.26467337
0.26320463
0.26154763
0.25968631
0.25764311
0.25546974
0.25326325
0.25117948
0.24943047
0.24830841
0.24806425
0.24884813
0.25068618
0.25343117
0.25682161
0.26055594
0.26436012
0.2680231
0.27140977
0.27446236
0.27715374
0.27949792
0.28152308
0.28325859
0.28472392
0.28594251
0.28696459
0.28783888
0.28857823
0.28918741
0.28968868
0.29009831
0.29045535
0.29077118
0.29097272
0.29110262
0.29119716
0.29132712
0.29146346
0.18675961
0.22858736
0.25671691
0.26963853
0.26824738
0.26854201
0.26737776
0.26693035
0.26590167
0.26499736
0.26379592
0.2624828
0.26094575
0.25921356
0.25727544
0.25515932
0.25292804
0.25069405
0.24863115
0.24697788
0.2460501
0.24607509
0.24719669
0.24939498
0.25248164
0.25616481
0.26012995
0.26410342
0.26788154
0.27134963
0.27445148
0.27717284
0.27953427
0.28156761
0.2833043
0.28476564
0.28597889
0.28699722
0.28786754
0.28860065
0.28920383
0.28969997
0.29010594
0.29046442
0.29077368
0.29097004
0.2910984
0.29119285
0.29132879
0.29147115
0.18641207
0.22846322
0.25651873
0.26776581
0.26625621
0.26653675
0.2653371
0.26484928
0.26377993
0.26282132
0.26156425
0.26018359
0.25857463
0.25676395
0.25474672
0.25255769
0.25027257
0.24802057
0.24599593
0.24446964
0.24376644
0.24409653
0.24558453
0.24816114
0.25159603
0.25556967
0.25975815
0.26389002
0.26777575
0.27131795
0.27446139
0.27720813
0.27958299
0.2816215
0.283357
0.28481265
0.28601956
0.28703356
0.28789915
0.28862531
0.2892221
0.28971279
0.29011507
0.2904743
0.2907758
0.29096715
0.29109433
0.29118897
0.29133153
0.29147957
0.18602611
0.22834236
0.25612735
0.26572818
0.26416461
0.26442909
0.2631943
0.26266394
0.26155253
0.26053689
0.25922114
0.25776941
0.25608478
0.25419241
0.25209408
0.24983315
0.24749987
0.2452418
0.24327704
0.2419134
0.24146703
0.24214064
0.24402264
0.24699331
0.25078014
0.25503956
0.25944142
0.26371971
0.26770852
0.27131192
0.27449196
0.27725922
0.27964375
0.28168446
0.28341648
0.28486482
0.28606447
0.28707352
0.28793361
0.28865215
0.28924221
0.28972711
0.2901258
0.2904853
0.29077753
0.29096359
0.29109017
0.29118596
0.29133545
0.29148863
0.1855778
0.228232
0.25554437
0.2637467
0.26197051
0.26221672
0.26094646
0.26037077
0.259215
0.25813874
0.25676053
0.25523369
0.2534694
0.25149214
0.24931129
0.24698064
0.24460672
0.24235752
0.24047974
0.23931724
0.2391643
0.24021996
0.2425223
0.2458998
0.25003927
0.25457705
0.25917958
0.26359511
0.26767703
0.27133207
0.27454276
0.2773257
0.27971616
0.2817562
0.28348249
0.28492201
0.28611357
0.28711704
0.28797078
0.28868109
0.28926412
0.2897429
0.29013827
0.29049784
0.29077936
0.29095941
0.2910854
0.29118396
0.29134058
0.29149825
0.18505256
0.22814433
0.25472803
0.26157141
0.25967472
0.25989852
0.25859043
0.257965
0.25676156
0.25562036
0.25417546
0.25256928
0.25072124
0.24865608
0.24639196
0.24399519
0.24159032
0.23936866
0.23761243
0.2366895
0.23687269
0.23834805
0.24109492
0.24488866
0.24937817
0.25418358
0.25897271
0.26351928
0.26767794
0.27137811
0.27461318
0.27740705
0.27979984
0.28183638
0.2835548
0.28498407
0.28616679
0.28716401
0.28801052
0.28871207
0.28928778
0.28976017
0.29015275
0.29051211
0.29078183
0.29095536
0.29107977
0.29118287
0.29134699
0.29150834
0.18441434
0.22808151
0.2536658
0.25926699
0.2572683
0.25746612
0.25611831
0.25543892
0.25418468
0.25297433
0.25145845
0.24976858
0.24783264
0.24567677
0.24332956
0.24087198
0.23844864
0.23627815
0.23468478
0.23404092
0.23460792
0.23653909
0.23975173
0.2439673
0.24880053
0.25385935
0.25882394
0.26348821
0.26771189
0.27144935
0.2747026
0.27750274
0.27989434
0.28192466
0.28363313
0.28505088
0.28622409
0.28721435
0.2880527
0.28874501
0.28931313
0.28977895
0.29016959
0.2905279
0.29078488
0.29095162
0.2910737
0.29118263
0.29135475
0.29151881
0.18365407
0.22801909
0.25232739
0.25682009
0.25474323
0.254912
0.25352295
0.25278538
0.2514772
0.25019336
0.24860185
0.24682352
0.24479526
0.2425462
0.24011725
0.23760634
0.23518064
0.23309132
0.231707
0.23138644
0.2323864
0.23480786
0.23850376
0.24314247
0.24830879
0.25360478
0.25873622
0.26349807
0.26777825
0.27154491
0.27481028
0.27761219
0.2799992
0.28202068
0.28371724
0.2851223
0.28628541
0.28726793
0.28809716
0.28877984
0.2893401
0.28979931
0.29018928
0.29054449
0.29078801
0.29094797
0.29106769
0.29118312
0.2913639
0.29152949
0.18276598
0.22793131
0.25070419
0.25423885
0.25209434
0.25223045
0.2507987
0.24999828
0.24863241
0.24727
0.24559726
0.24372499
0.24159974
0.23925561
0.23674798
0.23419397
0.23178667
0.22981687
0.2286904
0.22874395
0.23022564
0.23316933
0.23736147
0.2424197
0.24790391
0.25342359
0.25870462
0.26354965
0.26787601
0.27166391
0.27493548
0.2777348
0.28011396
0.28212407
0.28380687
0.28519819
0.28635068
0.28732465
0.28814377
0.28881646
0.28936859
0.2898214
0.29021238
0.29056077
0.29079082
0.29094433
0.2910619
0.29118479
0.29137447
0.29154023
0.18176828
0.22777214
0.24878622
0.25152521
0.2493178
0.24941697
0.24794068
0.2470715
0.24564262
0.24419504
0.24243428
0.24046198
0.23823538
0.23579566
0.23321475
0.23063144
0.2282694
0.22646694
0.22564792
0.22613396
0.22814443
0.23163852
0.23633453
0.24180301
0.24758691
0.25331886
0.25872507
0.26364182
0.26800393
0.27180529
0.27507737
0.27786992
0.28023812
0.28223448
0.28390178
0.28527843
0.28641982
0.28738437
0.28819242
0.28885481
0.28939853
0.28984536
0.29023884
0.29057608
0.29079321
0.29094083
0.29105647
0.29118847
0.29138639
0.29155088
0.18069489
0.22750093
0.24653999
0.24868248
0.24641126
0.24646616
0.24494114
0.24399495
0.24249581
0.24095541
0.23909952
0.2370216
0.23469052
0.23215677
0.229511
0.22691678
0.22463451
0.22305515
0.22259738
0.22357832
0.22616222
0.23022996
0.23543107
0.24129467
0.24736213
0.25328486
0.25879813
0.26377317
0.26816074
0.27196804
0.27523514
0.2780169
0.28037116
0.2823515
0.28400171
0.28536292
0.28649276
0.28744693
0.28824297
0.28889478
0.28942987
0.2898714
0.2902678
0.29059053
0.29079536
0.29093783
0.29105216
0.29119451
0.29139951
0.29156133
0.17961022
0.22709291
0.24376458
0.24570086
0.24336173
0.24336214
0.24178293
0.24075099
0.23917471
0.23753479
0.2355779
0.23339014
0.23095326
0.22832956
0.22563089
0.22305004
0.22089187
0.21959633
0.21956188
0.22110014
0.22429909
0.22895732
0.23465754
0.24089668
0.24723318
0.25331699
0.25892217
0.26394195
0.26834501
0.27215102
0.27540793
0.2781751
0.2805126
0.2824748
0.28410646
0.28545153
0.28656937
0.28751217
0.28829532
0.28893629
0.28946258
0.28989981
0.29029832
0.29060433
0.29079755
0.29093585
0.29104983
0.29120308
0.29141365
0.29157146
0.17858232
0.22651146
0.24057605
0.24255039
0.24014176
0.24007952
0.23844349
0.2373196
0.23566142
0.23391706
0.23185462
0.2295541
0.22701192
0.22430508
0.22156979
0.21903408
0.21705666
0.21610703
0.2165682
0.21872436
0.22257491
0.22783256
0.23401835
0.24061419
0.2471937
0.25341553
0.25909514
0.2641464
0.26855532
0.27235314
0.27559488
0.27834385
0.28066191
0.28260399
0.28421582
0.28554418
0.28664957
0.28757993
0.28834939
0.28897926
0.28949675
0.2899312
0.29032958
0.29061752
0.2907998
0.2909351
0.29104991
0.29121447
0.2914286
0.29158118
0.17748514
0.22572348
0.23732772
0.23920601
0.23672928
0.23659904
0.23490588
0.23368546
0.23194128
0.23008782
0.22791561
0.2255002
0.22285499
0.22007508
0.21732501
0.2148758
0.21314672
0.21261013
0.21364576
0.21647723
0.22100886
0.22686569
0.23351717
0.24045183
0.24723832
0.25357823
0.25931471
0.26438455
0.26879016
0.27257327
0.27579516
0.27852251
0.28081862
0.28273873
0.28432958
0.28564077
0.28673319
0.28765002
0.28840508
0.2890236
0.28953255
0.28996649
0.2903606
0.29062981
0.29080176
0.29093538
0.29105223
0.29122888
0.29144411
0.2915904
0.17628534
0.22468413
0.23394197
0.23565955
0.23311557
0.23291073
0.23115897
0.22983646
0.22800094
0.22603252
0.22374597
0.2212145
0.21847085
0.21563213
0.21289666
0.21058751
0.20918172
0.20913622
0.21082564
0.21438556
0.21961827
0.2260644
0.23316044
0.24040296
0.24736688
0.25380229
0.25957843
0.26465447
0.26904804
0.2728103
0.27600792
0.27871042
0.28098221
0.28287866
0.28444759
0.28574124
0.28682011
0.28772227
0.28846234
0.28906927
0.28957029
0.29000654
0.29039024
0.29064099
0.29080358
0.2909361
0.29105606
0.29124643
0.29145994
0.29159908
0.17494127
0.2233847
0.23027034
0.23190566
0.22929371
0.22900459
0.22718984
0.22575787
0.22382462
0.22173446
0.21932907
0.21668209
0.21384786
0.2109701
0.20828849
0.20618865
0.20518458
0.20572128
0.20814185
0.21247585
0.21841828
0.22543517
0.23295425
0.24046114
0.24757644
0.25408457
0.25988364
0.26495412
0.26932746
0.2730631
0.27623234
0.27890699
0.28115222
0.28302347
0.28456967
0.28584549
0.28691014
0.28779653
0.28852111
0.28911626
0.28961044
0.29005086
0.29041808
0.29065125
0.29080573
0.29093676
0.29106111
0.29126709
0.29147584
0.29160714
0.17344006
0.22182355
0.22636395
0.22793373
0.22525253
0.22486525
0.22298026
0.22142937
0.21939247
0.2171746
0.21464678
0.21188735
0.20897491
0.20608552
0.20350984
0.2017028
0.20118676
0.20240543
0.20562986
0.21077287
0.21742149
0.22498659
0.2328921
0.24062562
0.24786327
0.25442173
0.26022774
0.26528152
0.26962696
0.27333064
0.27646763
0.2791116
0.28132818
0.28317284
0.28469569
0.28595344
0.28700313
0.28787264
0.28858137
0.28916468
0.28965359
0.29009769
0.29044421
0.2906608
0.29080836
0.29093762
0.29106826
0.29129058
0.29149159
0.29161457
0.17173276
0.21979676
0.22220754
0.2237242
0.22097255
0.22046956
0.21850943
0.21682818
0.21468165
0.21233213
0.20967997
0.20681435
0.20384188
0.20097886
0.19857767
0.19715712
0.19723061
0.19923171
0.20332577
0.209299
0.21663878
0.22472661
0.2329664
0.24089275
0.24822316
0.25481025
0.26060799
0.26563468
0.26994511
0.27361186
0.27671307
0.27932373
0.28150971
0.2833265
0.28482552
0.28606501
0.28709888
0.28795048
0.2886431
0.28921475
0.28970062
0.29014496
0.29046831
0.29066953
0.29081136
0.29093992
0.29107917
0.29131627
0.29150702
0.29162135
0.16981512
0.21734276
0.2177845
0.21923519
0.21642076
0.21577294
0.21375369
0.21193448
0.20966848
0.20718392
0.20440811
0.20144694
0.19844085
0.19565621
0.19351837
0.1925856
0.1933659
0.19624688
0.20126444
0.20807395
0.21608228
0.2246493
0.23317572
0.24125753
0.24865162
0.25524656
0.26102176
0.2660117
0.27028055
0.2739058
0.27696792
0.27954281
0.28169638
0.28348419
0.28495906
0.28618009
0.28719718
0.28802994
0.28870633
0.28926683
0.28975255
0.29019031
0.29048992
0.29067732
0.29081489
0.2909442
0.29109482
0.29134318
0.29152204
0.29162752
0.16763222
0.21442196
0.21305926
0.2144127
0.21156957
0.21077062
0.20866732
0.20672409
0.20432703
0.2017036
0.19880878
0.19576971
0.19276818
0.19013232
0.18836512
0.18803502
0.18964893
0.1934996
0.19947862
0.2071153
0.21576218
0.22474623
0.23351544
0.24171437
0.24914391
0.25572703
0.26146639
0.26641069
0.27063194
0.27421151
0.27723153
0.2797684
0.28188787
0.28364571
0.28509619
0.28629854
0.2872978
0.28811092
0.28877107
0.28932136
0.28980945
0.29023208
0.29050896
0.29068446
0.29081941
0.29095007
0.29111598
0.29137025
0.2915364
0.29163326
0.16513379
0.21097723
0.20802269
0.2092686
0.20639334
0.20543196
0.20324689
0.2011581
0.19862468
0.19586225
0.19285908
0.18976968
0.18682706
0.18443406
0.18315813
0.18356682
0.18614065
0.1910385
0.19799814
0.20644083
0.21567361
0.22501507
0.233979
0.24225724
0.24969523
0.25624815
0.26193941
0.26682992
0.27099807
0.27452812
0.27750326
0.28000002
0.28208385
0.28381091
0.28523688
0.28642024
0.28740052
0.28819332
0.28883742
0.28937889
0.28986966
0.29027024
0.29052581
0.2906913
0.29082526
0.29095821
0.29114304
0.29139659
0.29154994
0.29163867
0.16235684
0.20693141
0.20266582
0.20376541
0.20087083
0.19973927
0.19745692
0.19519603
0.19252541
0.18963069
0.18653795
0.18343899
0.18063073
0.17860088
0.17795202
0.17925329
0.18290682
0.18891086
0.19685026
0.20606331
0.21580789
0.2254501
0.23455898
0.24287979
0.25030076
0.25680643
0.26243839
0.26726771
0.27137779
0.27485486
0.27778259
0.28023731
0.2822841
0.28397967
0.28538107
0.28654506
0.2875051
0.28827706
0.28890551
0.28944016
0.28993099
0.29030551
0.29054125
0.29069818
0.29083231
0.29096968
0.29117525
0.29142163
0.29156268
0.29164379
0.15942552
0.20207505
0.19695816
0.19788219
0.19496623
0.19365215
0.19122575
0.18880393
0.18599407
0.1829798
0.17982746
0.17677835
0.17420724
0.17268395
0.17282133
0.17517573
0.18001493
0.18716083
0.19606104
0.20597947
0.21616179
0.22604258
0.23524726
0.24357557
0.2509558
0.25739862
0.26296112
0.26772256
0.27177006
0.27519098
0.278069
0.28047992
0.28248842
0.28415195
0.28552879
0.28667287
0.28761135
0.28836209
0.28897566
0.28950616
0.28999148
0.29033857
0.29055621
0.29070555
0.2908401
0.29098447
0.29121054
0.29144537
0.29157472
0.29164858
0.15653003
0.196189
0.19084952
0.19157142
0.18862366
0.18707798
0.18450901
0.18193871
0.17899312
0.17588092
0.17271542
0.16980094
0.16760401
0.1667505
0.16785991
0.17142307
0.17753226
0.18582917
0.19564643
0.20618127
0.2167279
0.22678259
0.23603529
0.2443381
0.25165573
0.25802156
0.26350546
0.26819305
0.27217392
0.27553585
0.27836205
0.28072758
0.28269668
0.28432777
0.28568008
0.28680356
0.28771912
0.28844842
0.28904832
0.28957781
0.29004935
0.29036995
0.29057128
0.29071362
0.29084876
0.2910023
0.29124681
0.29146787
0.29158602
0.29165302
0.15353067
0.18947068
0.18426294
0.18477424
0.18176892
0.17995914
0.1772785
0.17454788
0.17148404
0.16831051
0.16520109
0.1625394
0.16088703
0.16089447
0.16317712
0.16808901
0.17552329
0.1849538
0.19560606
0.20666458
0.21749445
0.22765916