/*--------------------------------*- C++ -*----------------------------------*\
| =========                 |                                                 |
| \\      /  F ield         | OpenFOAM: The Open Source CFD Toolbox           |
|  \\    /   O peration     | Version:  2306                                  |
|   \\  /    A nd           | Website:  www.openfoam.com                      |
|    \\/     M anipulation  |                                                 |
\*---------------------------------------------------------------------------*/
FoamFile
{
    version     2.0;
    format      ascii;
    arch        "LSB;label=32;scalar=64";
    class       volScalarField;
    location    "0.016";
    object      p;
}
// * * * * * * * * * * * * * * * * * * * * * * * * * * * * * * * * * * * * * //

dimensions      [1 -1 -2 0 0 0 0];

internalField   nonuniform List<scalar> 
20000
(
99801.514
99803.345
99805.224
99808.058
99811.913
99817.042
99823.497
99831.124
99840.258
99851.175
99863.99
99879.374
99897.194
99918.462
99942.918
99971.662
100004.42
100042.08
100084.27
100131.3
100182.33
100236.58
100292.22
100347.01
100397.94
100441.84
100475.88
100498.01
100506.99
100503.83
100489.8
100467.1
100437.97
100403.52
100365.44
100326.95
100291.66
100258.94
100226.64
100196.66
100170.99
100149.54
100130.22
100113.1
100099.57
100082.79
100066.68
100058.66
100058.3
100065.45
99816.388
99818.444
99820.37
99823.324
99827.388
99832.789
99839.585
99847.57
99857.073
99868.403
99881.651
99897.558
99915.932
99937.863
99963.035
99992.616
100026.28
100064.94
100108.19
100156.28
100208.31
100263.39
100319.55
100374.41
100424.77
100467.4
100499.55
100519.02
100525.04
100518.86
100501.95
100476.69
100445.41
100409.29
100369.88
100330.3
100294.14
100260.91
100228.42
100198.23
100172.23
100150.51
100131.03
100113.86
100100.18
100083
100066.9
100059.28
100058.78
100065.22
99833.36
99835.425
99837.458
99840.517
99844.741
99850.312
99857.304
99865.563
99875.392
99887.112
99900.781
99917.21
99936.15
99958.765
99984.684
100015.13
100049.73
100089.43
100133.74
100182.92
100235.95
100291.84
100348.47
100403.3
100452.95
100494.15
100524.18
100540.73
100543.66
100534.26
100514.34
100486.41
100452.9
100415.07
100374.31
100333.63
100296.6
100262.88
100230.19
100199.77
100173.46
100151.46
100131.82
100114.61
100100.8
100083.19
100067.17
100059.89
100059.2
100065.02
99851.761
99853.849
99855.987
99859.161
99863.56
99869.318
99876.545
99885.065
99895.213
99907.333
99921.434
99938.405
99957.931
99981.256
100007.95
100039.29
100074.87
100115.62
100161.05
100211.32
100265.36
100322.04
100379.08
100433.76
100482.54
100522.13
100549.77
100563.14
100562.8
100549.99
100526.91
100496.21
100460.38
100420.78
100378.65
100336.85
100298.96
100264.76
100231.87
100201.22
100174.61
100152.37
100132.56
100115.32
100101.38
100083.36
100067.49
100060.45
100059.56
100064.82
99871.524
99873.678
99875.94
99879.258
99883.877
99889.872
99897.374
99906.167
99916.626
99929.146
99943.681
99961.202
99981.326
100005.38
100032.87
100065.14
100101.72
100143.57
100190.14
100241.53
100296.57
100354
100411.38
100465.78
100513.52
100551.31
100576.23
100586.26
100582.4
100566.01
100539.62
100506.04
100467.84
100426.42
100382.89
100339.95
100301.22
100266.57
100233.49
100202.61
100175.72
100153.24
100133.28
100116
100101.94
100083.52
100067.83
100060.96
100059.88
100064.64
99892.874
99895.099
99897.483
99900.94
99905.772
99911.991
99919.744
99928.831
99939.618
99952.554
99967.534
99985.622
100006.36
100031.16
100059.48
100092.71
100130.33
100173.32
100221.05
100273.57
100329.62
100387.77
100445.41
100499.38
100545.88
100581.65
100603.52
100610.03
100602.39
100582.24
100552.41
100515.86
100475.22
100431.94
100387
100342.92
100303.34
100268.27
100235.01
100203.92
100176.76
100154.06
100133.96
100116.65
100102.48
100083.68
100068.21
100061.43
100060.18
100064.45
99915.803
99918.103
99920.611
99924.215
99929.272
99935.717
99943.717
99953.093
99964.202
99977.559
99992.994
100011.67
100033.04
100058.63
100087.81
100122.03
100160.74
100204.89
100253.82
100307.5
100364.54
100423.36
100481.16
100534.55
100579.63
100613.08
100631.57
100634.38
100622.71
100598.63
100565.25
100525.65
100482.51
100437.34
100390.96
100345.73
100305.33
100269.86
100236.42
100205.12
100177.72
100154.84
100134.6
100117.27
100102.99
100083.86
100068.63
100061.86
100060.44
100064.27
99940.193
99942.574
99945.197
99948.955
99954.243
99960.913
99969.168
99978.855
99990.309
100004.12
100020.04
100039.34
100061.39
100087.8
100117.88
100153.13
100192.97
100238.34
100288.5
100343.34
100401.36
100460.81
100518.65
100571.28
100614.73
100645.53
100660.36
100659.22
100643.29
100615.13
100578.07
100535.35
100489.68
100442.57
100394.75
100348.37
100307.17
100271.33
100237.73
100206.22
100178.59
100155.54
100135.19
100117.86
100103.48
100084.04
100069.08
100062.27
100060.69
100064.09
99965.871
99968.379
99971.121
99975.058
99980.61
99987.538
99996.087
100006.13
100017.97
100032.27
100048.71
100068.66
100091.42
100118.69
100149.72
100186.06
100227.08
100273.69
100325.12
100381.15
100440.13
100500.12
100557.87
100609.54
100651.13
100678.9
100689.86
100684.46
100664.06
100631.65
100590.82
100544.92
100496.68
100447.63
100398.36
100350.85
100308.85
100272.68
100238.92
100207.2
100179.37
100156.17
100135.72
100118.41
100103.94
100084.23
100069.57
100062.69
100060.94
100063.93
99993.125
99995.77
99998.642
100002.77
100008.6
100015.78
100024.62
100035.02
100047.24
100062.04
100079.02
100099.66
100123.17
100151.34
100183.37
100220.85
100263.09
100311
100363.73
100420.94
100480.86
100541.33
100598.82
100649.34
100688.8
100713.14
100719.99
100710.02
100684.93
100648.14
100603.45
100554.32
100503.49
100452.48
100401.76
100353.13
100310.39
100273.9
100239.99
100208.07
100180.05
100156.72
100136.19
100118.9
100104.3
100084.4
100070.09
100063.11
100061.19
100063.77
100021.95
100024.72
100027.71
100032.02
100038.1
100045.54
100054.66
100065.43
100078.05
100093.4
100110.95
100132.33
100156.64
100185.78
100218.87
100257.54
100301.06
100350.32
100404.37
100462.78
100523.6
100584.43
100641.51
100690.64
100727.64
100748.16
100750.66
100735.8
100705.84
100664.52
100615.89
100563.5
100510.08
100457.1
100404.94
100355.21
100311.76
100275
100240.94
100208.81
100180.63
100157.19
100136.6
100119.33
100104.49
100084.54
100070.62
100063.57
100061.44
100063.61
100051.9
100054.84
100057.98
100062.52
100068.91
100076.66
100086.14
100097.36
100110.45
100126.4
100144.59
100166.76
100191.93
100222.08
100256.28
100296.19
100341.05
100391.69
100447.09
100506.69
100568.36
100629.44
100685.91
100733.43
100767.55
100783.93
100781.75
100761.72
100726.68
100680.73
100628.1
100572.43
100516.4
100461.46
100407.88
100357.09
100312.97
100275.95
100241.76
100209.44
100181.11
100157.58
100136.94
100119.7
100104.55
100084.6
100071.15
100064.05
100061.68
100063.43
100083.76
100086.85
100090.11
100094.86
100101.51
100109.54
100119.37
100131.05
100144.62
100161.2
100180.04
100203.04
100229.09
100260.3
100295.66
100336.86
100383.1
100435.16
100491.94
100552.71
100615.17
100676.37
100732.01
100777.64
100808.43
100820.38
100813.14
100787.68
100747.38
100696.68
100640.02
100581.05
100522.44
100465.55
100410.55
100358.75
100314
100276.77
100242.45
100209.96
100181.5
100157.9
100137.22
100120.01
100104.53
100084.64
100071.66
100064.58
100061.92
100063.21
100117.3
100120.56
100123.97
100128.96
100135.9
100144.26
100154.44
100166.57
100180.63
100197.84
100217.35
100241.21
100268.19
100300.5
100337.06
100379.61
100427.28
100480.79
100538.96
100600.89
100664.05
100725.2
100779.79
100823.21
100850.19
100857.43
100844.72
100813.57
100767.85
100712.31
100651.58
100589.33
100528.15
100469.34
100412.96
100360.17
100314.85
100277.45
100243.04
100210.38
100181.8
100158.16
100137.45
100120.27
100104.4
100084.66
100072.14
100065.15
100062.14
100062.94
100152.39
100155.85
100159.45
100164.72
100172.02
100180.75
100191.3
100203.91
100218.47
100236.36
100256.57
100281.32
100309.27
100342.72
100380.55
100424.48
100473.63
100528.63
100588.2
100651.26
100715.03
100775.94
100829.22
100870.03
100892.75
100894.92
100876.38
100839.29
100787.98
100727.55
100662.74
100597.22
100533.51
100472.8
100415.06
100361.35
100315.53
100278
100243.51
100210.63
100181.96
100158.3
100137.64
100120.49
100104.16
100084.67
100072.56
100065.76
100062.35
100062.63
100189.4
100193.06
100196.81
100202.35
100209.98
100219.05
100229.99
100243.11
100258.19
100276.79
100297.74
100323.43
100352.39
100387.03
100426.16
100471.54
100522.21
100578.74
100639.71
100703.85
100768.1
100828.57
100880.27
100917.97
100936.03
100932.73
100907.99
100864.72
100807.7
100742.32
100673.44
100604.69
100538.48
100475.93
100416.86
100362.29
100316.06
100278.43
100243.81
100210.72
100182
100158.34
100137.73
100120.63
100103.85
100084.66
100072.95
100066.4
100062.54
100062.28
100228.07
100231.96
100235.9
100241.77
100249.77
100259.22
100270.59
100284.25
100299.88
100319.23
100340.93
100367.58
100397.59
100433.46
100473.96
100520.82
100573.07
100631.15
100693.53
100758.7
100823.28
100883.06
100932.86
100966.93
100979.96
100970.69
100939.43
100889.75
100826.9
100756.55
100683.62
100611.69
100543.06
100478.68
100418.34
100363.01
100316.38
100278.67
100243.92
100210.71
100181.96
100158.32
100137.76
100120.69
100103.48
100084.64
100073.31
100067.04
100062.71
100061.87
100268.88
100272.99
100277.11
100283.29
100291.66
100301.45
100313.2
100327.39
100343.56
100363.65
100386.13
100413.78
100444.88
100482.04
100523.96
100572.39
100626.26
100685.93
100749.71
100815.82
100880.57
100939.4
100986.91
101016.76
101024.39
101008.66
100970.55
100914.26
100845.5
100770.17
100693.24
100618.2
100547.2
100481.05
100419.52
100363.45
100316.5
100278.75
100243.92
100210.57
100181.82
100158.22
100137.73
100120.7
100103.05
100084.6
100073.64
100067.66
100062.88
100061.4
100311.35
100315.69
100320.01
100326.53
100335.25
100345.4
100357.58
100372.34
100389.08
100409.98
100433.29
100462.01
100494.28
100532.81
100576.24
100626.29
100681.86
100743.14
100808.29
100875.24
100939.95
100997.56
101042.3
101067.37
101069.16
101046.49
101001.22
100938.14
100863.41
100783.12
100702.25
100624.18
100550.87
100483.03
100420.4
100363.6
100316.45
100278.68
100243.78
100210.29
100181.57
100158.04
100137.66
100120.66
100102.57
100084.54
100073.97
100068.24
100063.05
100060.88
100355.31
100359.92
100364.46
100371.36
100380.46
100391.02
100403.66
100419.07
100436.44
100458.22
100482.45
100512.32
100545.86
100585.84
100630.87
100682.62
100739.92
100802.83
100869.32
100936.98
101001.41
101057.47
101098.85
101118.68
101114.06
101084.02
101031.29
100961.27
100880.53
100795.33
100710.61
100629.59
100554.06
100484.64
100420.86
100363.52
100316.21
100278.47
100243.49
100209.89
100181.21
100157.77
100137.52
100120.56
100102.02
100084.47
100074.28
100068.79
100063.2
100060.29
100400.95
100405.81
100410.6
100417.85
100427.35
100438.36
100451.51
100467.64
100485.72
100508.47
100533.72
100564.82
100599.72
100641.23
100687.93
100741.43
100800.52
100865.06
100932.83
101001.04
101064.94
101119.04
101156.43
101170.55
101158.92
101121.08
101060.61
100983.54
100896.79
100806.76
100718.28
100634.41
100556.75
100485.87
100420.98
100363.18
100315.79
100278.09
100243.05
100209.35
100180.76
100157.43
100137.33
100120.4
100101.4
100084.38
100074.59
100069.32
100063.31
100059.63
100448.19
100453.37
100458.44
100466.08
100476.02
100487.6
100501.34
100518.3
100537.16
100560.94
100587.26
100619.66
100655.97
100699.08
100747.51
100802.83
100863.73
100929.9
100998.86
101067.42
101130.49
101182.19
101214.88
101222.79
101203.53
101157.49
101089.04
101004.83
100912.11
100817.33
100725.21
100638.6
100558.98
100486.6
100420.77
100362.58
100315.17
100277.55
100242.44
100208.67
100180.2
100157
100137.08
100120.18
100100.71
100084.26
100074.89
100069.83
100063.39
100058.89
100497.97
100503.43
100508.78
100516.75
100527.2
100539.33
100553.59
100571.34
100590.95
100615.78
100643.19
100676.93
100714.71
100759.47
100809.7
100866.88
100929.62
100997.39
101067.43
101136.13
101198.02
101246.74
101274.06
101275.18
101247.71
101193.08
101116.44
101025.05
100926.42
100827.01
100731.39
100642.16
100560.73
100486.85
100420.22
100361.71
100314.37
100276.84
100241.68
100207.86
100179.54
100156.5
100136.78
100119.88
100099.95
100084.13
100075.19
100070.34
100063.45
100058.08
100549.59
100555.4
100561.13
100569.57
100580.57
100593.28
100608.1
100626.69
100647.1
100673.02
100701.57
100736.69
100776.01
100822.48
100874.57
100933.66
100998.26
101067.6
101138.57
101207.14
101267.47
101312.49
101333.86
101327.48
101291.25
101227.65
101142.67
101044.08
100939.64
100835.76
100736.76
100645.11
100561.88
100486.72
100419.33
100360.6
100313.37
100275.96
100240.75
100206.92
100178.79
100155.92
100136.43
100119.49
100099.14
100083.99
100075.49
100070.85
100063.47
100057.19
100603.58
100609.74
100615.87
100624.74
100636.24
100649.59
100664.97
100684.44
100705.66
100732.71
100762.45
100799.02
100839.93
100888.19
100942.2
101003.25
101069.72
101140.55
101212.29
101280.42
101338.71
101379.26
101394.08
101379.45
101333.92
101261.03
101167.58
101061.84
100951.73
100843.52
100741.32
100647.46
100562.39
100486.16
100418.11
100359.23
100312.19
100274.91
100239.65
100205.85
100177.94
100155.26
100136.01
100119
100098.31
100083.84
100075.77
100071.33
100063.48
100056.21
100659.91
100666.42
100672.97
100682.29
100694.25
100708.24
100724.18
100744.55
100766.64
100794.87
100825.87
100863.95
100906.55
100956.67
101012.68
101075.73
101144.08
101216.31
101288.58
101355.92
101411.62
101446.85
101454.49
101430.83
101375.5
101293.04
101191.06
101078.25
100962.62
100850.26
100745.1
100649.11
100562.44
100485.17
100416.55
100357.63
100310.82
100273.68
100238.38
100204.66
100176.99
100154.52
100135.52
100118.36
100097.5
100083.7
100076.03
100071.77
100063.38
100055.13
100718.17
100725.09
100732.13
100741.92
100754.36
100769.1
100785.67
100807.04
100830.07
100859.57
100891.9
100931.58
100975.95
101028.01
101086.09
101151.19
101221.38
101294.89
101367.44
101433.6
101485.98
101515.08
101514.8
101481.38
101415.77
101323.51
101212.97
101093.22
100972.26
100855.97
100748.09
100649.93
100561.95
100483.76
100414.67
100355.78
100309.26
100272.26
100236.94
100203.34
100175.96
100153.7
100134.96
100117.53
100096.74
100083.55
100076.27
100072.18
100063.2
100053.97
100778.86
100786.18
100793.7
100803.95
100816.87
100832.41
100849.62
100872.03
100896.04
100926.87
100960.62
101001.97
101048.22
101102.3
101162.54
101229.71
101301.71
101376.33
101448.85
101513.35
101561.53
101583.81
101574.67
101530.83
101454.49
101352.26
101233.21
101106.7
100980.61
100860.68
100750.24
100650.12
100560.92
100481.92
100412.49
100353.71
100307.51
100270.65
100235.33
100201.91
100174.82
100152.8
100134.32
100116.54
100096.03
100083.39
100076.48
100072.57
100062.94
100052.7
100841.75
100849.52
100857.56
100868.33
100881.74
100898.11
100916.02
100939.53
100964.59
100996.82
101032.1
101075.23
101123.46
101179.67
101242.12
101311.39
101385.12
101460.64
101532.78
101595.02
101638.06
101652.74
101633.81
101578.89
101491.45
101379.13
101251.68
101118.6
100987.66
100864.4
100751.36
100649.66
100559.36
100479.68
100410
100351.43
100305.58
100268.84
100233.55
100200.36
100173.6
100151.83
100133.59
100115.46
100095.35
100083.21
100076.67
100072.94
100062.6
100051.33
100906.86
100915.1
100923.7
100935.03
100948.94
100966.22
100984.87
101009.57
101035.78
101069.54
101106.47
101151.51
101201.84
101260.25
101324.97
101396.32
101471.66
101547.82
101619.14
101678.41
101715.31
101721.56
101691.9
101625.27
101526.41
101403.99
101268.28
101128.88
100993.45
100867.05
100751.66
100648.54
100557.27
100477.04
100407.22
100348.93
100303.45
100266.83
100231.59
100198.7
100172.28
100150.77
100132.79
100114.35
100094.71
100083.05
100076.86
100073.32
100062.17
100049.87
100974.18
100982.93
100992.09
101004.04
101018.51
101036.82
101056.32
101082.35
101109.85
101145.25
101183.95
101230.98
101283.49
101344.18
101411.2
101484.58
101561.37
101637.86
101707.86
101763.26
101793.05
101789.89
101748.61
101669.7
101559.17
101426.69
101282.94
101137.54
100997.99
100868.43
100751.17
100646.75
100554.67
100474.01
100404.17
100346.24
100301.14
100264.62
100229.47
100196.94
100170.87
100149.63
100131.91
100113.24
100094.14
100082.98
100077.04
100073.71
100061.63
100048.33
101044.07
101053.38
101063.09
101075.78
101090.9
101110.35
101130.79
101158.24
101187.09
101224.18
101264.72
101313.8
101368.57
101431.58
101500.91
101576.25
101654.28
101730.72
101798.79
101849.23
101871.03
101857.31
101803.58
101711.88
101589.55
101447.11
101295.59
101144.61
101001.17
100868.8
100749.85
100644.32
100551.57
100470.61
100400.87
100343.36
100298.64
100262.2
100227.18
100195.08
100169.36
100148.41
100130.94
100112.14
100093.69
100082.94
100077.24
100074.06
100060.98
100046.71
101117.11
101127.01
101137.29
101150.93
101166.7
101187.28
101208.58
101237.43
101267.64
101306.46
101348.9
101400.11
101457.2
101522.58
101594.2
101671.4
101750.4
101826.33
101891.72
101936.04
101948.88
101923.43
101856.47
101751.56
101617.35
101465.15
101306.21
101150.12
101002.78
100868.17
100747.71
100641.25
100547.98
100466.86
100397.32
100340.3
100295.95
100259.57
100224.73
100193.12
100167.76
100147.1
100129.88
100110.96
100093.36
100083.1
100077.51
100074.36
100060.21
100045.03
101193.23
101203.78
101214.74
101229.3
101245.59
101267.35
101289.57
101319.88
101351.54
101392.17
101436.61
101490.02
101549.52
101617.29
101691.18
101770.06
101849.7
101924.6
101986.38
102023.35
102026.14
101987.84
101906.9
101788.45
101642.41
101480.72
101314.85
101153.88
101003.15
100866.53
100744.78
100637.56
100543.93
100462.78
100393.55
100337.07
100293.07
100256.72
100222.12
100191.07
100166.05
100145.72
100128.68
100109.64
100093.05
100083.44
100077.96
100074.52
100059.31
100043.3
101272.19
101283.47
101295.09
101310.64
101327.55
101350.61
101373.84
101405.72
101438.93
101481.46
101528
101583.7
101645.65
101715.84
101791.92
101872.27
101952.16
102025.37
102082.35
102110.89
102102.31
102050.09
101954.53
101822.33
101664.58
101493.79
101321.53
101155.73
101002.28
100863.88
100741.06
100633.27
100539.43
100458.37
100389.57
100333.69
100290.01
100253.66
100219.37
100188.92
100164.26
100144.25
100127.34
100108.11
100092.64
100083.77
100078.64
100074.64
100058.28
100041.53
101354.45
101366.51
101378.78
101395.39
101412.91
101437.33
101461.63
101495.13
101529.98
101574.48
101623.21
101681.25
101745.73
101818.32
101896.49
101978.05
102057.7
102128.42
102179.27
102198.24
102176.87
102109.76
101999.01
101852.96
101683.75
101504.4
101326.03
101156.07
101000.15
100860.25
100736.59
100628.4
100534.5
100453.66
100385.39
100330.15
100286.75
100250.39
100216.48
100186.68
100162.37
100142.7
100125.8
100106.4
100092.14
100084.09
100079.44
100074.73
100057.11
100039.75
101440.07
101452.98
101465.88
101483.6
101501.79
101527.62
101553.06
101588.26
101624.81
101671.36
101722.36
101782.82
101849.86
101924.85
102004.96
102087.38
102166.22
102233.45
102276.72
102284.86
102249.31
102166.37
102040.01
101880.14
101699.87
101512.55
101328.2
101154.85
100996.8
100855.68
100731.39
100622.98
100529.16
100448.68
100381.04
100326.48
100283.3
100246.92
100213.46
100184.34
100160.39
100141.07
100124.02
100104.62
100091.63
100084.43
100080.3
100074.76
100055.79
100037.98
101529.09
101542.97
101556.5
101575.41
101594.3
101621.6
101648.21
101685.16
101723.51
101772.18
101825.58
101888.55
101958.21
102035.55
102117.37
102200.23
102277.54
102340
102374.3
102370.14
102319.08
102219.49
102077.23
101903.72
101712.95
101518
101328.49
101152.07
100992.25
100850.19
100725.5
100617.03
100523.44
100443.43
100376.52
100322.66
100279.67
100243.24
100210.31
100181.9
100158.34
100139.34
100121.91
100102.92
100091.17
100084.82
100081.2
100074.75
100054.32
100036.24
101621.52
101636.53
101650.69
101670.8
101690.4
101719.23
101747.05
101785.86
101826.15
101877.09
101933.04
101998.63
102070.95
102150.52
102233.76
102316.52
102391.41
102447.57
102471.57
102453.41
102385.62
102268.68
102110.38
101923.59
101722.98
101520.62
101326.83
101147.79
100986.54
100843.82
100718.93
100610.58
100517.35
100437.94
100371.84
100318.7
100275.84
100239.38
100207.06
100179.37
100156.21
100137.5
100119.49
100101.36
100090.78
100085.24
100082.09
100074.47
100052.72
100034.55
101717.26
101733.56
101748.16
101769.48
101789.88
101820.43
101849.66
101890.53
101933
101986.38
102045.02
102113.29
102188.24
102269.85
102354.11
102436.12
102507.46
102555.64
102567.86
102534.02
102448.36
102313.51
102139.23
101939.73
101729.69
101520.89
101323.26
101142.05
100979.74
100836.62
100711.72
100603.65
100510.92
100432.22
100367.03
100314.6
100271.82
100235.34
100203.7
100176.74
100154.01
100135.52
100116.85
100099.9
100090.43
100085.63
100082.97
100073.92
100051
100032.93
101816.28
101833.93
101848.88
101871.78
101893.14
101925.72
101956.59
101999.7
102044.51
102100.42
102161.82
102232.77
102310.22
102393.59
102478.37
102558.8
102625.19
102663.66
102662.44
102611.29
102506.73
102353.62
102163.65
101952.13
101732.94
101518.74
101317.83
101134.91
100971.88
100828.61
100703.91
100596.28
100504.18
100426.3
100362.07
100310.35
100267.62
100231.15
100200.24
100174.01
100151.73
100133.36
100114.09
100098.5
100090.08
100085.91
100083.63
100073.08
100049.2
100031.4
101919.51
101938.5
101954.11
101978.92
102001.24
102035.91
102068.47
102113.84
102161.05
102219.5
102283.67
102357.22
102436.99
102521.75
102606.42
102684.24
102743.9
102771.12
102754.44
102684.49
102560.17
102388.67
102183.53
101960.48
101733.27
101514.23
101310.61
101126.43
100963.01
100819.85
100695.53
100588.47
100497.13
100420.18
100356.97
100305.95
100263.23
100226.82
100196.69
100171.17
100149.37
100130.98
100111.26
100097.14
100089.74
100086.07
100083.96
100071.89
100047.34
100029.97
102027.48
102048.08
102064.55
102091.3
102114.55
102151.3
102185.56
102233.17
102282.8
102343.79
102410.69
102486.75
102568.59
102654.27
102738.06
102811.98
102862.95
102877.19
102843.02
102752.9
102608.17
102418.44
102198.84
101964.6
101730.6
101507.43
101301.68
101116.68
100953.19
100810.36
100686.61
100580.28
100489.8
100413.88
100351.74
100301.38
100258.67
100222.36
100193.06
100168.23
100146.89
100128.25
100108.47
100095.82
100089.36
100086.15
100084.14
100070.29
100045.44
100028.66
102140.98
102163.23
102180.36
102208.93
102233.06
102271.88
102307.89
102357.73
102409.86
102473.42
102543.03
102621.45
102705.02
102791.03
102872.97
102941.37
102981.63
102980.91
102927.32
102815.8
102650.29
102442.76
102209.23
101965.08
101725.01
101498.43
101291.13
101105.73
100942.48
100800.21
100677.18
100571.7
100482.21
100407.41
100346.37
100296.63
100253.93
100217.81
100189.34
100165.18
100144.27
100125.03
100105.85
100094.56
100089.02
100086.27
100084.23
100068.27
100043.55
100027.46
102259.22
102283.31
102300.99
102331.63
102356.65
102397.67
102435.56
102487.68
102542.4
102608.56
102680.84
102761.39
102846.26
102931.86
103010.73
103071.54
103099.27
103081.2
103006.42
102872.5
102686.16
102461.5
102214.46
101961.85
101716.58
101487.34
101279.05
101093.64
100930.91
100789.41
100667.28
100562.79
100474.38
100400.77
100340.84
100291.69
100249.03
100213.17
100185.54
100162.03
100141.45
100121.39
100103.35
100093.41
100088.75
100086.48
100084.26
100065.8
100041.68
100026.4
102382.58
102408.45
102426.54
102459.4
102485.38
102528.78
102568.86
102623.33
102680.67
102749.4
102824.23
102906.59
102992.17
103076.45
103150.69
103201.65
103214.76
103176.98
103079.39
102922.39
102715.53
102474.29
102215.17
101955.01
101705.46
101474.27
101265.52
101080.49
100918.56
100778.03
100656.94
100553.54
100466.32
100393.97
100335.15
100286.54
100243.97
100208.46
100181.67
100158.76
100138.37
100117.52
100100.95
100092.34
100088.54
100086.83
100084.14
100062.96
100039.85
100025.46
102510.45
102538.36
102556.91
102592.33
102619.45
102665.38
102707.99
102765
102824.92
102896.08
102973.26
103057.02
103142.59
103224.35
103292
103330.79
103326.87
103267.12
103145.35
102964.97
102738.15
102480.83
102211.31
101944.67
101691.77
101459.35
101250.64
101066.35
100905.46
100766.09
100646.18
100544
100458.04
100387.02
100329.28
100281.16
100238.76
100203.71
100177.72
100155.36
100134.96
100113.59
100098.73
100091.38
100088.36
100087.06
100083.54
100059.83
100038.08
100024.64
102643.94
102674.24
102693.17
102731.49
102759.9
102808.09
102852.88
102912.63
102975.29
103048.73
103127.97
103212.57
103297.21
103374.92
103433.54
103457.96
103434.22
103350.46
103203.46
102999.8
102753.57
102481.78
102202.97
101931
101675.66
101442.68
101234.5
101051.27
100891.67
100753.63
100635.05
100534.18
100449.56
100379.89
100323.2
100275.55
100233.42
100198.92
100173.7
100151.81
100131.12
100109.87
100096.75
100090.58
100088.19
100087.17
100082.3
100056.6
100036.34
100023.93
102784.31
102817.29
102836.47
102877.58
102906.96
102957.59
103004.39
103066.35
103131.89
103207.5
103288.35
103373.06
103455.53
103527.25
103574.19
103581.68
103535.4
103425.85
103253.02
103026.51
102761.45
102477.09
102190.33
101914.18
101657.3
101424.39
101217.18
101035.33
100877.23
100740.69
100623.55
100524.09
100440.9
100372.6
100316.9
100269.68
100227.96
100194.11
100169.61
100148.06
100126.78
100106.58
100095.08
100089.92
100088.01
100087.2
100080.24
100053.42
100034.69
100023.28
102931.24
102967.3
102986.26
103030.51
103060.97
103113.77
103162.83
103226.88
103295.01
103372.45
103454.29
103538.11
103616.85
103680.09
103712.73
103700.31
103628.97
103492.2
103293.39
103044.51
102762.47
102466.88
102173.57
101894.4
101636.82
101404.6
101198.78
101018.58
100862.19
100727.3
100611.73
100513.77
100432.05
100365.13
100310.35
100263.55
100222.38
100189.28
100165.44
100144.09
100122.17
100103.64
100093.67
100089.35
100087.75
100087.04
100077.25
100050.42
100033.15
100022.67
103084.53
103124.08
103142.43
103189.89
103221.5
103276.38
103328.08
103394.41
103464.79
103543.51
103625.51
103707.15
103780.13
103831.97
103847.57
103812.07
103713.46
103548.53
103324
103053.48
102756.52
102451.35
102152.93
101871.85
101614.4
101383.42
101179.36
101001.09
100846.59
100713.49
100599.6
100503.22
100423.03
100357.47
100303.53
100257.15
100216.69
100184.45
100161.17
100139.84
100117.49
100100.94
100092.44
100088.85
100087.39
100086.55
100073.4
100047.65
100031.72
100022.1
103244.73
103287.61
103305.21
103355.72
103388.81
103445.87
103500.43
103568.76
103641.13
103720.46
103801.5
103879.29
103943.95
103981.32
103976.72
103915.14
103787.44
103593.94
103344.06
103054.02
102743.78
102430.75
102128.66
101846.75
101590.18
101360.96
101159.01
100982.89
100830.46
100699.29
100587.18
100492.47
100413.84
100349.62
100296.41
100250.49
100210.9
100179.61
100156.75
100135.18
100112.9
100098.4
100091.23
100088.3
100087.11
100085.75
100069.07
100045.02
100030.36
100021.57
103412.59
103458.21
103475.06
103528.23
103563.75
103623.12
103680.3
103750.09
103823.87
103902.88
103981.51
104053.28
104106.41
104126.35
104097.95
104007.66
103849.63
103627.63
103353.36
103046.01
102724.49
102405.37
102101.01
101819.29
101564.3
101337.32
101137.8
100964.05
100813.85
100684.73
100574.5
100481.52
100404.49
100341.54
100288.98
100243.56
100205
100174.77
100152.14
100130
100108.6
100095.94
100089.98
100087.7
100086.85
100084.69
100064.69
100042.49
100029.08
100021.1
103587.77
103636.31
103653.19
103708.26
103746.78
103808.46
103867.83
103938.48
104012.61
104090.01
104164.33
104227.35
104265.53
104264.6
104208.99
104087.84
103898.78
103648.51
103352.31
103029.64
102698.95
102375.52
102070.24
101789.67
101536.92
101312.6
101115.78
100944.61
100796.78
100669.83
100561.57
100470.39
100394.99
100333.25
100281.24
100236.36
100198.98
100169.93
100147.27
100124.4
100104.53
100093.54
100088.67
100087.02
100086.53
100083.37
100060.43
100040.1
100027.9
100020.68
103770.33
103822.15
103840.71
103898.59
103938.91
104000.99
104062.27
104133.15
104206.5
104280.68
104348.3
104399.1
104419.06
104393.3
104307.52
104153.94
103933.71
103656.6
103340.78
103005.22
102667.54
102341.55
102036.62
101758.08
101508.15
101286.88
101093.03
100924.6
100779.28
100654.6
100548.39
100459.09
100385.33
100324.73
100273.18
100228.92
100192.85
100165.04
100142.09
100118.6
100100.61
100091.18
100087.29
100086.17
100086
100081.51
100056.41
100037.9
100026.84
100020.3
103962.37
104017.11
104036.48
104095.58
104138.45
104200.95
104263.21
104333.32
104404.39
104473.22
104531.12
104566
104563.94
104509.6
104391.18
104204.27
103953.13
103651.95
103319.01
102973.12
102630.65
102303.78
102000.4
101724.7
101478.12
101260.24
101069.58
100904.06
100761.36
100639.06
100534.99
100447.62
100375.53
100315.97
100264.81
100221.25
100186.59
100160.03
100136.51
100112.79
100096.84
100088.88
100085.8
100085.04
100085.02
100078.6
100052.69
100035.91
100025.88
100019.98
104162.33
104219.35
104239.89
104300.09
104344.95
104407.37
104469.67
104537.68
104604.56
104665.36
104709.76
104725.06
104696.7
104610.54
104457.67
104237.06
103957.26
103634.5
103287.36
102933.84
102588.72
102262.55
101961.82
101689.68
101446.93
101232.75
101045.48
100883.01
100743.06
100623.22
100521.37
100435.99
100365.57
100306.98
100256.17
100213.37
100180.18
100154.81
100130.39
100107.21
100093.22
100086.59
100084.17
100083.56
100083.46
100074.13
100049.32
100034.04
100024.99
100019.7
104370.6
104429.58
104451.44
104511.55
104557.61
104619.15
104680.27
104744.45
104804.61
104853.92
104880.84
104872.35
104813.75
104693.1
104504.75
104251.45
103945.75
103604.55
103246.35
102887.87
102542.18
102218.18
101921.09
101653.18
101414.67
101204.47
101020.77
100861.48
100724.37
100607.08
100507.52
100424.2
100355.47
100297.75
100247.27
100205.3
100173.62
100149.23
100123.8
100101.98
100089.75
100084.24
100082.32
100081.79
100081.35
100068.88
100046.07
100032.25
100024.18
100019.49
104586.11
104646.6
104669.64
104728.89
104775.49
104834.83
104893.02
104950.99
105001.17
105034.86
105040.23
105003.5
104911.26
104754.28
104530.32
104247.12
103918.64
103562.56
103196.57
102835.77
102491.45
102170.99
101878.44
101615.33
101381.43
101175.43
100995.47
100839.48
100705.3
100590.65
100493.44
100412.25
100345.2
100288.3
100238.15
100197.07
100166.88
100143.19
100116.99
100097.04
100086.4
100081.8
100080.25
100079.82
100078.79