/*--------------------------------*- C++ -*----------------------------------*\
| =========                 |                                                 |
| \\      /  F ield         | OpenFOAM: The Open Source CFD Toolbox           |
|  \\    /   O peration     | Version:  2306                                  |
|   \\  /    A nd           | Website:  www.openfoam.com                      |
|    \\/     M anipulation  |                                                 |
\*---------------------------------------------------------------------------*/
FoamFile
{
    version     2.0;
    format      ascii;
    arch        "LSB;label=32;scalar=64";
    class       surfaceScalarField;
    location    "0.016";
    object      phi;
}
// * * * * * * * * * * * * * * * * * * * * * * * * * * * * * * * * * * * * * //

dimensions      [1 0 -1 0 0 0 0];

oriented        oriented;

internalField   nonuniform List<scalar> 
39600
(
-1.733115e-05
-0.0031520126
0.0031692274
-3.887117e-05
-0.0045053706
0.0045268019
-6.4564946e-05
-0.005959579
0.0059851495
-9.5353483e-05
-0.0077100716
0.0077407364
-0.0001347045
-0.009845026
0.0098842374
-0.00020300873
-0.012385781
0.012453952
-0.00032731309
-0.015047787
0.015171938
-0.00048003595
-0.018020675
0.018173246
-0.00066283143
-0.021558767
0.021741351
-0.00088177637
-0.025805801
0.026024511
-0.001144227
-0.030870483
0.03113265
-0.0014593649
-0.03693439
0.037249208
-0.0018379716
-0.04417081
0.044549044
-0.0022935569
-0.052819806
0.053274957
-0.0028418751
-0.063139149
0.063686965
-0.0035029431
-0.075455626
0.076116089
-0.00430032
-0.090140654
0.090937331
-0.0052631352
-0.10764631
0.10860832
-0.0064262246
-0.12850092
0.12966306
-0.0078328654
-0.15333783
0.15474335
-0.0095335345
-0.18291115
0.18461052
-0.011588854
-0.21812724
0.22018107
-0.01406929
-0.26008289
0.26256164
-0.017055076
-0.31011516
0.31309909
-0.020636405
-0.36986686
0.37344617
-0.024911595
-0.44136175
0.4456349
-0.029993037
-0.52708145
0.53216092
-0.035996938
-0.63006055
0.63606324
-0.04305971
-0.75398765
0.76104923
-0.05135413
-0.9032452
0.91153974
-0.06107624
-1.0830916
1.0928145
-0.072466214
-1.2997722
1.3111626
-0.085806763
-1.5607142
1.5740546
-0.10143313
-1.8747909
1.890405
-0.11970932
-2.2525324
2.2707821
-0.14100762
-2.7065409
2.7278232
-0.16571546
-3.2519914
3.2766994
-0.19423277
-3.9068361
3.9353428
-0.22686579
-4.6924248
4.725028
-0.2637296
-5.6345847
5.6714189
-0.30467901
-6.7645425
6.8054725
-0.3491182
-8.119525
8.1639482
-0.39572812
-9.7443324
9.7909133
-0.44204512
-11.692887
11.739171
-0.4838734
-14.030273
14.072014
-0.51421039
-16.835878
16.866058
-0.52208925
-20.204527
20.212324
-0.49145557
-24.249626
24.218961
-0.39635014
-29.11267
29.017637
-34.967756
34.770388
-1.6166774e-05
-0.0031358949
-3.7106046e-05
-0.0044844878
-6.2684326e-05
-0.0059340884
-9.3886162e-05
-0.0076789512
-0.00013392398
-0.0098051181
-0.00020437225
-0.012315458
-0.0003266274
-0.014925692
-0.00047424643
-0.017873227
-0.000651754
-0.021381471
-0.00086496432
-0.025592814
-0.0011212577
-0.030614471
-0.0014295735
-0.036626386
-0.001800424
-0.043800339
-0.0022471414
-0.052373518
-0.0027852342
-0.06260156
-0.0034344588
-0.074806999
-0.004217963
-0.089357832
-0.005165023
-0.10670007
-0.006310275
-0.12735663
-0.0076961747
-0.15195305
-0.0093732677
-0.18123535
-0.011401954
-0.21610001
-0.013851829
-0.25763469
-0.016802559
-0.30716624
-0.020342288
-0.36632911
-0.024567808
-0.43713828
-0.029588158
-0.52206298
-0.035513886
-0.62413633
-0.042483295
-0.74701925
-0.050659846
-0.89506881
-0.060237452
-1.0735133
-0.071451322
-1.2885577
-0.084580287
-1.5475866
-0.099953557
-1.8594276
-0.11793329
-2.234576
-0.13889064
-2.6856022
-0.16320804
-3.227676
-0.19128505
-3.8787678
-0.22343921
-4.6602978
-0.25980519
-5.5982484
-0.30026026
-6.7241073
-0.34426078
-8.075541
-0.3905595
-9.6980628
-0.43681425
-11.646665
-0.47901875
-13.988155
-0.51043088
-16.804622
-0.52062209
-20.194413
-0.49388384
-24.276384
-0.40543314
-29.201082
-35.154446
-1.5769823e-05
-0.0031202571
-3.5734017e-05
-0.0044646472
-5.9987778e-05
-0.0059099689
-8.9578536e-05
-0.0076494909
-0.00012737394
-0.0097674699
-0.00019805607
-0.012244912
-0.00032060419
-0.0148033
-0.00046555639
-0.017728431
-0.00063973902
-0.021207501
-0.00084897925
-0.025383803
-0.0011004054
-0.030363329
-0.001402936
-0.036324168
-0.0017668867
-0.043436768
-0.0022055359
-0.051935298
-0.0027342116
-0.062073394
-0.0033724912
-0.074169313
-0.0041434905
-0.088587538
-0.0050761043
-0.10576826
-0.0062049275
-0.12622877
-0.0075723897
-0.15058672
-0.0092288565
-0.17958021
-0.011233891
-0.21409648
-0.013657418
-0.25521288
-0.016577344
-0.30424818
-0.020080524
-0.36282794
-0.024262402
-0.43295845
-0.029226798
-0.51710041
-0.035080642
-0.61828387
-0.041962794
-0.74013791
-0.050028906
-0.88700259
-0.059470173
-1.0640711
-0.070518301
-1.2775085
-0.083448201
-1.5346577
-0.098584893
-1.8442999
-0.11628771
-2.2168951
-0.13692407
-2.6649861
-0.16087785
-3.203726
-0.1885482
-3.8511041
-0.22026335
-4.6286072
-0.25617523
-5.5623658
-0.2961908
-6.6841126
-0.33980918
-8.0319396
-0.38586771
-9.6520335
-0.43213934
-11.600427
-0.47480328
-13.945575
-0.50739523
-16.772186
-0.51995422
-20.181928
-0.49725989
-24.299084
-0.41556042
-29.282785
-35.330354
-1.5291922e-05
-0.003105091
-3.4584619e-05
-0.004445478
-5.7976899e-05
-0.0058867145
-8.6567516e-05
-0.0076210271
-0.00012302429
-0.0097311741
-0.00019462716
-0.012173459
-0.00031394338
-0.01468416
-0.00045616417
-0.017586393
-0.00062700182
-0.021036881
-0.00083228605
-0.025178746
-0.0010789955
-0.030116905
-0.0013760006
-0.036027479
-0.0017334376
-0.043079712
-0.0021644657
-0.051504702
-0.0026842803
-0.061554089
-0.0033123523
-0.073541846
-0.0040716352
-0.087828953
-0.0049907548
-0.10484998
-0.0061046075
-0.1251159
-0.0074549348
-0.14923754
-0.0090924095
-0.17794405
-0.011076581
-0.2121138
-0.013476066
-0.25281509
-0.016368549
-0.30135753
-0.019838994
-0.35935951
-0.023981257
-0.42881822
-0.028894186
-0.51218931
-0.034681411
-0.61249813
-0.04148239
-0.73333777
-0.049445019
-0.8790399
-0.05875874
-1.0547564
-0.069651466
-1.2666147
-0.082395217
-1.5219148
-0.097310337
-1.8293935
-0.11475573
-2.1994715
-0.1350956
-2.6446672
-0.15871458
-3.1801118
-0.18601026
-3.8238141
-0.21732461
-4.5973154
-0.2528279
-5.5268913
-0.29245491
-6.6445071
-0.33575684
-7.9886548
-0.38164272
-9.6061768
-0.42801495
-11.554087
-0.47123029
-13.902442
-0.50511208
-16.738457
-0.52014838
-20.166956
-0.50159969
-24.317636
-0.42674215
-29.357671
-35.495417
-1.4689376e-05
-0.0030905677
-3.3129549e-05
-0.0044271925
-5.5382631e-05
-0.0058646173
-8.2730031e-05
-0.0075938313
-0.00011776363
-0.009696299
-0.00019022961
-0.012101138
-0.00030611472
-0.014568436
-0.00044574613
-0.017446925
-0.00061348942
-0.020869353
-0.00081511102
-0.024977357
-0.0010574373
-0.029874864
-0.0013493082
-0.035735924
-0.0017006626
-0.04272874
-0.0021246348
-0.051081166
-0.0026362065
-0.061043038
-0.0032547865
-0.072923876
-0.0040032003
-0.087081263
-0.0049102099
-0.1039438
-0.0060101261
-0.12401697
-0.0073454027
-0.14790342
-0.0089661307
-0.17632466
-0.010931721
-0.21014975
-0.013310514
-0.25043803
-0.016178938
-0.29849099
-0.019620771
-0.35591971
-0.023727775
-0.42471322
-0.028592633
-0.50732619
-0.034322251
-0.60676986
-0.041046312
-0.72661431
-0.048912993
-0.87117283
-0.058107659
-1.0455604
-0.068856045
-1.2558649
-0.081426767
-1.5093446
-0.096137659
-1.8146905
-0.11334295
-2.1822876
-0.13340977
-2.6246232
-0.1567202
-3.1568076
-0.1836766
-3.7968618
-0.21462976
-4.5663824
-0.24977242
-5.4917771
-0.28906643
-6.6052354
-0.33211286
-7.9456256
-0.37790283
-9.5604156
-0.42445454
-11.507568
-0.46831787
-13.858661
-0.50359666
-16.703328
-0.5211854
-20.14942
-0.50690365
-24.331922
-0.43903579
-29.425594
-35.649505
-1.4090916e-05
-0.0030765473
-3.168399e-05
-0.0044096792
-5.2840746e-05
-0.0058435659
-7.901923e-05
-0.0075677525
-0.00011301568
-0.0096624439
-0.00018649255
-0.012027794
-0.00030079428
-0.014454298
-0.00043788908
-0.017310006
-0.00060259936
-0.020704855
-0.00080069757
-0.024779484
-0.0010388716
-0.029636975
-0.0013258668
-0.035449245
-0.0016715299
-0.042383463
-0.0020888718
-0.050664266
-0.0025927838
-0.06053965
-0.0032026058
-0.072314677
-0.0039410486
-0.086343536
-0.0048369942
-0.1030487
-0.0059246868
-0.12293027
-0.0072465269
-0.14658274
-0.0088525088
-0.17472002
-0.010802262
-0.20820152
-0.013163463
-0.24807855
-0.016011774
-0.29564454
-0.019428877
-0.35250464
-0.023505126
-0.420639
-0.028327109
-0.50250598
-0.034004034
-0.60109436
-0.040657835
-0.71996118
-0.048435675
-0.86339467
-0.05752036
-1.0364745
-0.068134968
-1.2452487
-0.080545962
-1.4969341
-0.095068173
-1.800176
-0.11205402
-2.165323
-0.13187362
-2.6048274
-0.15490539
-3.1337832
-0.18155531
-3.7702152
-0.21218771
-4.535769
-0.24701441
-5.4569784
-0.28603322
-6.5662394
-0.32888965
-7.9027865
-0.37465696
-9.5146767
-0.42147631
-11.460781
-0.46608207
-13.814136
-0.50287157
-16.666685
-0.52313606
-20.129193
-0.51326381
-24.341799
-0.45248741
-29.486445
-35.792533
-1.3676884e-05
-0.0030629991
-3.0586295e-05
-0.0043928954
-5.0704931e-05
-0.0058235795
-7.5768618e-05
-0.0075428207
-0.00010915557
-0.0096291988
-0.0001838094
-0.011953269
-0.00029613948
-0.014342119
-0.00043090296
-0.017175398
-0.0005928132
-0.020543155
-0.00078763697
-0.024584889
-0.0010218732
-0.029403024
-0.0013043147
-0.035167122
-0.0016446056
-0.042043561
-0.0020557593
-0.050253557
-0.0025525895
-0.060043353
-0.0031543666
-0.071713525
-0.0038837759
-0.085614861
-0.0047697044
-0.10216361
-0.0058467098
-0.12185427
-0.0071569051
-0.14527373
-0.0087508004
-0.17312749
-0.010687312
-0.20626657
-0.01303421
-0.24573341
-0.015865905
-0.29281475
-0.019263551
-0.34910906
-0.023312774
-0.41659174
-0.028097081
-0.49772335
-0.033726589
-0.59546613
-0.040316405
-0.71337179
-0.048013113
-0.85569733
-0.056996648
-1.0274893
-0.067488433
-1.2347551
-0.07975353
-1.484669
-0.094104194
-1.7858324
-0.11089236
-2.1485557
-0.13048582
-2.5852592
-0.15326641
-3.111011
-0.17964731
-3.7438361
-0.21000082
-4.5054331
-0.24456266
-5.4224456
-0.28336045
-6.5274656
-0.32609241
-7.8600718
-0.37191475
-9.4688821
-0.41908972
-11.413638
-0.46453927
-13.768769
-0.50295361
-16.628416
-0.52601295
-20.106151
-0.52066607
-24.347146
-0.46712983
-29.540072
-35.924347
-1.3208558e-05
-0.003049869
-2.9341234e-05
-0.0043768513
-4.8324444e-05
-0.0058046934
-7.2071072e-05
-0.0075191631
-0.00010519566
-0.0095962025
-0.00018175476
-0.01187683
-0.00029215749
-0.014231872
-0.00042463949
-0.017043086
-0.0005837666
-0.020384239
-0.00077538325
-0.024393499
-0.0010058447
-0.029172851
-0.0012839382
-0.03488935
-0.0016192086
-0.041708683
-0.0020246545
-0.049848564
-0.0025149983
-0.059553544
-0.0031095185
-0.07111964
-0.0038310957
-0.084894013
-0.0047082291
-0.10128734
-0.0057758853
-0.12078762
-0.007076401
-0.14397439
-0.0086602347
-0.17154501
-0.010586743
-0.20434161
-0.012922797
-0.2433991
-0.015741759
-0.28999767
-0.019124071
-0.34572883
-0.023150339
-0.41256743
-0.027902997
-0.49297246
-0.033490146
-0.5898803
-0.040022796
-0.70683963
-0.047645475
-0.84807404
-0.056537308
-1.0185958
-0.066917783
-1.2243728
-0.079050461
-1.4725363
-0.093245482
-1.7716443
-0.10985537
-2.1319666
-0.12924951
-2.5658912
-0.15181212
-3.0884577
-0.17795677
-3.7176923
-0.20807285
-4.4753337
-0.24242034
-5.3881279
-0.28105614
-6.4888551
-0.32373328
-7.8174127
-0.36968827
-9.4229547
-0.41731386
-11.366044
-0.46371094
-13.722454
-0.50386756
-16.588406
-0.52982903
-20.080186
-0.52917986
-24.347782
-0.48302102
-29.586331
-36.044825
-1.2650027e-05
-0.0030373234
-2.7947087e-05
-0.0043616551
-4.5711168e-05
-0.0057870546
-6.798931e-05
-0.0074970149
-0.00010109775
-0.0095632405
-0.00017971591
-0.011798346
-0.00028813826
-0.014123609
-0.00041833701
-0.016913053
-0.00057484075
-0.020227953
-0.00076346226
-0.024205115
-0.00099042756
-0.028946179
-0.0012645371
-0.034615566
-0.0015952232
-0.041378394
-0.0019954916
-0.049448751
-0.0024799908
-0.05906959
-0.0030680822
-0.070532187
-0.0037825079
-0.084180334
-0.0046524405
-0.10041826
-0.0057123736
-0.11972871
-0.007005351
-0.14268261
-0.0085818009
-0.16996995
-0.010501036
-0.20242395
-0.012829534
-0.24107238
-0.015640038
-0.28718908
-0.019011018
-0.34235992
-0.023018093
-0.40856225
-0.027746668
-0.48824554
-0.033295897
-0.58433218
-0.039777677
-0.70035804
-0.047334293
-0.84051646
-0.056143486
-1.0097847
-0.066424119
-1.21409
-0.078438683
-1.4605215
-0.092497299
-1.7575921
-0.1089497
-2.1155346
-0.12817012
-2.5466977
-0.15054214
-3.0660955
-0.17648787
-3.6917459
-0.20641269
-4.4454243
-0.24059372
-5.3539775
-0.27912981
-6.4503458
-0.32182226
-7.7747389
-0.36799334
-9.3768114
-0.41615812
-11.317911
-0.46361216
-13.675089
-0.50563487
-16.546532
-0.53463161
-20.051166
-0.53881548
-24.343565
-0.50020651
-29.625045
-36.153813
-1.2099427e-05
-0.0030252965
-2.6634411e-05
-0.0043472036
-4.3259152e-05
-0.0057705266
-6.4064723e-05
-0.007476299
-9.7863576e-05
-0.0095295738
-0.00017846462
-0.01171787
-0.00028520605
-0.014017031
-0.00041352628
-0.016784911
-0.00056771817
-0.02007398
-0.00075368618
-0.024019381
-0.00097750394
-0.028722657
-0.0012480122
-0.034345387
-0.0015745395
-0.041052267
-0.0019701237
-0.049053629
-0.0024494734
-0.058590787
-0.0030319467
-0.069950362
-0.0037405469
-0.083472477
-0.0046043212
-0.099555364
-0.0056584318
-0.11867563
-0.00694583
-0.14139641
-0.0085175185
-0.16839964
-0.010432618
-0.20051042
-0.012757253
-0.23874951
-0.015563095
-0.28438514
-0.018927382
-0.33899775
-0.022920427
-0.40457111
-0.027629255
-0.48353844
-0.033146657
-0.57881595
-0.039583959
-0.69392099
-0.047082304
-0.83301718
-0.055818555
-1.0010464
-0.066011025
-1.2038953
-0.077921967
-1.4486102
-0.091860371
-1.74366
-0.10817842
-2.0992369
-0.12724838
-2.5276555
-0.14946286
-3.0438914
-0.17524811
-3.6659589
-0.2050243
-4.4156629
-0.2390948
-5.3199386
-0.27758884
-6.4118797
-0.3203699
-7.7319769
-0.36683904
-9.3303701
-0.41564534
-11.269139
-0.46426837
-13.626579
-0.50827572
-16.502685
-0.54046637
-20.018938
-0.5496294
-24.334342
-0.5187194
-29.656065
-36.251113
-1.1814431e-05
-0.003013581
-2.5796026e-05
-0.0043333194
-4.1548377e-05
-0.0057548986
-6.1029119e-05
-0.0074569485
-9.6237324e-05
-0.009494514
-0.00017903202
-0.011635212
-0.00028420535
-0.013912023
-0.00041071831
-0.01665857
-0.00056271088
-0.019922211
-0.00074615131
-0.023836185
-0.00096701487
-0.028502092
-0.0012342016
-0.034078534
-0.0015570092
-0.040729863
-0.0019485077
-0.048662596
-0.0024234236
-0.058116427
-0.0030012264
-0.06937321
-0.003705043
-0.082769421
-0.0045641953
-0.098697079
-0.0056142127
-0.11762665
-0.0068983002
-0.14011354
-0.0084678021
-0.16683155
-0.010381968
-0.19859786
-0.012706539
-0.23642673
-0.015512733
-0.28158088
-0.018873877
-0.33563868
-0.02285771
-0.40058909
-0.02755181
-0.47884594
-0.033043168
-0.57332557
-0.039442758
-0.68752138
-0.046890672
-0.82556801
-0.055563785
-0.99237101
-0.065680059
-1.1937766
-0.077502248
-1.4367875
-0.091339288
-1.729829
-0.10754463
-2.0830517
-0.1264931
-2.5087351
-0.14858077
-3.0218141
-0.17424394
-3.6402924
-0.20391522
-4.3860055
-0.23792877
-5.2859577
-0.27644758
-6.3733903
-0.31938819
-7.6890559
-0.36624446
-9.2835414
-0.4157897
-11.219629
-0.46569588
-13.576804
-0.5118209
-16.45672
-0.54734513
-19.983368
-0.56165274
-24.31994
-0.5386532
-29.679184
-36.336588
-1.1103153e-05
-0.0030025804
-2.4214887e-05
-0.0043203194
-3.8796432e-05
-0.0057404344
-5.6429271e-05
-0.0074394255
-9.3010309e-05
-0.0094580752
-0.00017766503
-0.011550692
-0.00028115973
-0.0138087
-0.00040584197
-0.016534074
-0.0005557503
-0.019772529
-0.00073689976
-0.023655278
-0.00095515551
-0.028284139
-0.0012194936
-0.033814533
-0.001539122
-0.040410642
-0.0019272027
-0.048274987
-0.0023985114
-0.057645677
-0.0029726232
-0.068799761
-0.0036729353
-0.082069867
-0.0045289686
-0.097841937
-0.0055768084
-0.11657985
-0.0068599218
-0.13883164
-0.0084302507
-0.16526263
-0.010346759
-0.19668294
-0.012675139
-0.23410015
-0.015485633
-0.27877232
-0.018847717
-0.33227868
-0.022828397
-0.39661029
-0.027512312
-0.47416367
-0.032983433
-0.56785547
-0.039352102
-0.68115271
-0.046757828
-0.81816101
-0.055377515
-0.98374895
-0.065430172
-1.1837215
-0.077178698
-1.4250383
-0.090932942
-1.7160806
-0.10704685
-2.0669578
-0.12590161
-2.4899089
-0.14789545
-2.9998307
-0.17347373
-3.6147094
-0.20309078
-4.3564017
-0.23710079
-5.2519814
-0.27570883
-6.3348127
-0.31888806
-7.6458968
-0.36622049
-9.2362362
-0.41660933
-11.169277
-0.46791867
-13.525637
-0.51629468
-16.408494
-0.55532747
-19.944293
-0.57493485
-24.300199
-0.56001561
-29.694235
-36.410046
-1.0891949e-05
-0.0029918122
-2.3646547e-05
-0.004307687
-3.7629173e-05
-0.005726593
-5.3970621e-05
-0.0074232314
-9.253621e-05
-0.0094196651
-0.00017806866
-0.011465305
-0.00028033509
-0.013706606
-0.00040367976
-0.01641091
-0.0005519584
-0.01962448
-0.0007313196
-0.023476167
-0.00094748286
-0.028068281
-0.0012094973
-0.033552859
-0.0015265792
-0.040093972
-0.0019119324
-0.04789011
-0.0023804509
-0.057177728
-0.0029519086
-0.068228971
-0.0036499488
-0.081372607
-0.0045045491
-0.096988219
-0.0055519309
-0.11553353
-0.0068365775
-0.13754824
-0.008410442
-0.1636902
-0.010332955
-0.19476204
-0.01266892
-0.23176602
-0.015488251
-0.27595492
-0.018854944
-0.32891405
-0.022838907
-0.39262811
-0.02751694
-0.4694871
-0.032973637
-0.56239954
-0.039317979
-0.67480806
-0.046689821
-0.81078757
-0.055266623
-0.97516954
-0.065268199
-1.1737173
-0.076958772
-1.4133472
-0.090649504
-1.7023958
-0.10669612
-2.0509309
-0.1254838
-2.4711495
-0.14741792
-2.9779062
-0.17295429
-3.5891667
-0.20256185
-4.326807
-0.23662743
-5.2179509
-0.27539027
-6.2960816
-0.31888709
-7.6024204
-0.3667871
-9.1883631
-0.41812744
-11.117974
-0.47096096
-13.472964
-0.52173023
-16.357881
-0.56442278
-19.901569
-0.58953391
-24.274912
-0.58288612
-29.70103
-36.471275
-1.0584026e-05
-0.002981311
-2.2925451e-05
-0.0042954416
-3.6406066e-05
-0.0057132197
-5.1527638e-05
-0.007408213
-9.224725e-05
-0.0093790842
-0.00017585139
-0.011381835
-0.00027719679
-0.013605434
-0.00039943818
-0.016288856
-0.00054642287
-0.019477725
-0.00072428856
-0.023298548
-0.00093874921
-0.027854128
-0.0011989095
-0.033293043
-0.0015139897
-0.039779306
-0.0018972907
-0.047507293
-0.0023638979
-0.056711694
-0.0029337441
-0.067659808
-0.0036308294
-0.08067628
-0.0044855838
-0.096134369
-0.0055348782
-0.11448529
-0.006823432
-0.13626093
-0.0084039799
-0.16211107
-0.010335931
-0.19283173
-0.012683938
-0.22941981
-0.01551598
-0.27312488
-0.018892349
-0.32553969
-0.02288399
-0.38863833
-0.02756148
-0.46481115
-0.033009742
-0.55695211
-0.039336731
-0.6684808
-0.046683037
-0.80343963
-0.055227442
-0.96662242
-0.065191147
-1.1637509
-0.076839781
-1.4016979
-0.090486368
-1.6887551
-0.10648966
-2.0349474
-0.12523916
-2.4524284
-0.14714875
-2.9560058
-0.1726814
-3.5636262
-0.20233221
-4.2971687
-0.23650904
-5.1838105
-0.27549794
-6.2571255
-0.3193924
-7.5585468
-0.36795698
-9.1398261
-0.42035884
-11.065611
-0.47484368
-13.418656
-0.52815356
-16.304731
-0.57469803
-19.855012
-0.60548538
-24.243908
-0.60733377
-29.699345
-36.520075
-1.0061333e-05
-0.0029713538
-2.1836652e-05
-0.0042837725
-3.4738518e-05
-0.0057004482
-4.868085e-05
-0.0073944082
-9.1759833e-05
-0.0093361548
-0.00017406089
-0.011299674
-0.00027447384
-0.013505194
-0.00039580237
-0.016167709
-0.00054159953
-0.019332161
-0.00071827588
-0.023122126
-0.00093134686
-0.027641368
-0.0011900579
-0.033034679
-0.0015036846
-0.039466103
-0.0018856429
-0.047125821
-0.0023511827
-0.056246739
-0.0029204854
-0.067091161
-0.0036180198
-0.079979524
-0.0044745638
-0.095278742
-0.0055277383
-0.1134332
-0.0068232034
-0.13496674
-0.0084136549
-0.16052207
-0.010358786
-0.19088827
-0.012723168
-0.22705725
-0.015572262
-0.27027777
-0.018962835
-0.32215106
-0.022966554
-0.38463637
-0.027649032
-0.46013004
-0.033094375
-0.55150737
-0.039411332
-0.66216328
-0.046740861
-0.7961082
-0.055263689
-0.95809672
-0.065202748
-1.1538092
-0.076826054
-1.3900743
-0.09044879
-1.6751385
-0.10643275
-2.018983
-0.12517527
-2.4337133
-0.14709313
-2.9340957
-0.17266719
-3.5380426
-0.20240926
-4.2674391
-0.23676007
-5.149498
-0.27604487
-6.2178743
-0.32042287
-7.5141898
-0.36974856
-9.0905265
-0.4233268
-11.012074
-0.47959412
-13.362573
-0.53560102
-16.248889
-0.58616054
-19.804461
-0.62284851
-24.206969
-0.63339324
-29.688979
-36.556187
-9.8123525e-06
-0.0029616469
-2.1302899e-05
-0.0042723987
-3.3968607e-05
-0.0056879052
-4.7196759e-05
-0.0073812982
-9.2972868e-05
-0.0092905236
-0.00017541379
-0.011217373
-0.00027509304
-0.013405694
-0.00039563554
-0.016047359
-0.00054050773
-0.019187523
-0.00071621662
-0.02294667
-0.00092826506
-0.027429635
-0.0011860037
-0.032777295
-0.0014987332
-0.039153795
-0.0018800536
-0.046744996
-0.0023454194
-0.055781944
-0.0029153513
-0.066521904
-0.0036147326
-0.079280938
-0.0044749716
-0.094419429
-0.0055343925
-0.11237487
-0.0068391355
-0.13366326
-0.0084427755
-0.15891988
-0.010405109
-0.18892759
-0.012790142
-0.22467405
-0.015659421
-0.26741048
-0.019070536
-0.31874192
-0.023090597
-0.38061812
-0.02778289
-0.45543916
-0.033231731
-0.54605915
-0.039545438
-0.655849
-0.046867378
-0.7887843
-0.055379576
-0.94958155
-0.065307922
-1.1438781
-0.076923
-1.3784588
-0.090542857
-1.6615249
-0.10653402
-2.0030114
-0.12529607
-2.4149785
-0.14726078
-2.9121382
-0.17292008
-3.5123723
-0.20280652
-4.2375656
-0.23739253
-5.1149514
-0.27704634
-6.178255
-0.3219911
-7.4692664
-0.37218174
-9.0403607
-0.42705682
-10.957239
-0.48524765
-13.304569
-0.54410421
-16.190198
-0.59885868
-19.749731
-0.64167258
-24.163889
-0.66116999
-29.669671
-36.579363
-9.3190187e-06
-0.0029524495
-2.0235365e-05
-0.0042616064
-3.2502672e-05
-0.005675779
-4.5116188e-05
-0.0073688318
-9.3420723e-05
-0.009242373
-0.00017547679
-0.011135464
-0.00027452048
-0.01330683
-0.00039446092
-0.015927607
-0.00053867372
-0.019043549
-0.00071377812
-0.022771826
-0.00092522431
-0.027218505
-0.0011824465
-0.032520428
-0.0014949046
-0.038841766
-0.0018762831
-0.046364112
-0.0023424039
-0.055316407
-0.0029140807
-0.065950901
-0.0036168062
-0.078579014
-0.0044825712
-0.093554608
-0.0055506729
-0.11130788
-0.0068676513
-0.13234757
-0.008487964
-0.15730105
-0.010471376
-0.18694586
-0.012881381
-0.22226588
-0.015775205
-0.26451862
-0.019212235
-0.3153068
-0.023252534
-0.37657948
-0.02796033
-0.45073257
-0.03341827
-0.54060157
-0.039736461
-0.64952996
-0.047059605
-0.78145897
-0.055573001
-0.94106514
-0.065504915
-1.1339437
-0.077129195
-1.3668347
-0.090767382
-1.6478935
-0.10679068
-1.9870074
-0.12560555
-2.3961901
-0.14765454
-2.8900929
-0.17344201
-3.4865713
-0.20352787
-4.2074931
-0.23841214
-5.0801085
-0.27850942
-6.1381929
-0.32411336
-7.4236839
-0.37527273
-8.9892264
-0.43156756
-10.900984
-0.49182655
-13.244499
-0.55370137
-16.128485
-0.61284647
-19.690617
-0.6620131
-24.114468
-0.69066835
-29.641207
-36.589312
-9.2092814e-06
-0.0029433264
-1.9834703e-05
-0.0042510812
-3.1880952e-05
-0.0056638451
-4.4580353e-05
-0.0073562423
-9.5845245e-05
-0.0091912486
-0.00017801145
-0.011053437
-0.00027677903
-0.013208241
-0.00039650499
-0.015808074
-0.00054037443
-0.018899917
-0.00071516529
-0.022597291
-0.00092633805
-0.027007652
-0.0011834769
-0.03226365
-0.0014961578
-0.038529512
-0.0018783314
-0.045982438
-0.0023460939
-0.05484922
-0.0029207488
-0.065376938
-0.0036283783
-0.077872197
-0.0045017422
-0.092682198
-0.0055807287
-0.11023001
-0.0069132799
-0.13101631
-0.008553822
-0.15566198
-0.010562396
-0.18493896
-0.013001421
-0.21982871
-0.015924624
-0.2615974
-0.019391849
-0.3118415
-0.023457373
-0.37251569
-0.028185364
-0.44600584
-0.033658702
-0.53512863
-0.039988691
-0.64319911
-0.047322741
-0.77412266
-0.055849089
-0.93253566
-0.065799349
-1.1239909
-0.077450849
-1.3551835
-0.091129706
-1.6342217
-0.10721116
-1.9709457
-0.12611231
-2.3773135
-0.14828204
-2.867926
-0.17424734
-3.4605916
-0.20458468
-4.1771696
-0.23983305
-5.0449031
-0.28045265
-6.0976092
-0.32680821
-7.3773499
-0.37904442
-8.9370141
-0.43688578
-10.843183
-0.49936231
-13.182213
-0.56442845
-16.063573
-0.628152
-19.626923
-0.68393007
-24.058461
-0.72202486
-29.603301
-36.585764
-9.0602327e-06
-0.0029343692
-1.9323948e-05
-0.0042409246
-3.081574e-05
-0.0056524835
-4.390024e-05
-0.0073432966
-9.9210068e-05
-0.0091360862
-0.00018114303
-0.010971647
-0.0002794963
-0.013110067
-0.00039892584
-0.015688833
-0.00054245225
-0.018756631
-0.00071707201
-0.022422935
-0.00092823016
-0.026796814
-0.0011856739
-0.032006567
-0.0014991463
-0.038216471
-0.0018828133
-0.045599271
-0.0023532644
-0.054379364
-0.0029321962
-0.064798694
-0.0036463927
-0.077158819
-0.0045294312
-0.091800124
-0.0056221593
-0.10913841
-0.0069731884
-0.12966659
-0.0086378813
-0.15399879
-0.010676048
-0.18290249
-0.013148551
-0.21735804
-0.016105339
-0.25864254
-0.019606833
-0.30834184
-0.023702452
-0.36842167
-0.028455946
-0.44125342
-0.033950712
-0.52963401
-0.040300306
-0.6368484
-0.047655044
-0.7667655
-0.056206556
-0.92398108
-0.066190391
-1.1140049
-0.077887845
-1.343487
-0.091630078
-1.6204872
-0.1077982
-1.9547972
-0.12681722
-2.3583177
-0.14915052
-2.8455926
-0.17533603
-3.4343897
-0.20598556
-4.1465349
-0.24166594
-5.0092677
-0.28288766
-6.0564238
-0.33008701
-7.3301721
-0.38351507
-8.8836087
-0.44303441
-10.783704
-0.50788485
-13.117555
-0.57632123
-15.995286
-0.6448343
-19.558436
-0.70745277
-23.99564
-0.75525874
-29.555683
-36.568413
-8.8227149e-06
-0.002925651
-1.8605222e-05
-0.0042312574
-2.9218078e-05
-0.0056419936
-4.3083591e-05
-0.0073295524
-0.00010309203
-0.0090762205
-0.00018486205
-0.010890021
-0.00028291511
-0.013012196
-0.0004022229
-0.015569721
-0.00054565146
-0.018613442
-0.00072037946
-0.022248468
-0.00093190674
-0.026585608
-0.0011901054
-0.031748731
-0.0015050284
-0.03790198
-0.0018911007
-0.045213708
-0.0023653443
-0.053905711
-0.0029499683
-0.064214774
-0.0036725525
-0.076437064
-0.004567488
-0.090906159
-0.0056767887
-0.10803025
-0.0070498335
-0.12829485
-0.0087423377
-0.15230777
-0.010814739
-0.1808318
-0.013323605
-0.214851
-0.016320221
-0.25564792
-0.019859578
-0.30480435
-0.023989844
-0.36429305
-0.028773964
-0.4364704
-0.034296641
-0.52411149
-0.040673831
-0.63047006
-0.04805939
-0.75937743
-0.056648769
-0.91538855
-0.066681876
-1.1039697
-0.078444651
-1.3317254
-0.092273377
-1.6066668
-0.10855613
-1.9385333
-0.12772727
-2.3391684
-0.15026255
-2.823055
-0.17672244
-3.4079119
-0.20773995
-4.1155333
-0.24392122
-4.9731333
-0.28582828
-6.0145535
-0.33397038
-7.2820518
-0.38870492
-8.8288956
-0.45004146
-10.722409
-0.51742491
-13.050368
-0.5894196
-15.923435
-0.66293995
-19.484938
-0.73265431
-23.925747
-0.79046009
-29.498081
-36.536921
-8.9784895e-06
-0.002916788
-1.8551396e-05
-0.0042218036
-2.8323094e-05
-0.0056323582
-4.3870394e-05
-0.0073141493
-0.00010828885
-0.0090119501
-0.00019011168
-0.010808346
-0.00028812041
-0.012914369
-0.00040751768
-0.015450517
-0.00055110954
-0.018470093
-0.00072631417
-0.02207353
-0.00093866434
-0.026373582
-0.0011983115
-0.031489451
-0.0015154965
-0.037585236
-0.0019049591
-0.044824759
-0.0023841861
-0.053427089
-0.0029760432
-0.063623616
-0.0037088837
-0.075705058
-0.0046180836
-0.089997943
-0.0057467619
-0.10690272
-0.0071451186
-0.12689783
-0.0088696926
-0.1505847
-0.01098028
-0.17872294
-0.013530033
-0.21230303
-0.016571496
-0.25260842
-0.020152778
-0.3012248
-0.024321939
-0.36012536
-0.029141995
-0.43165121
-0.034698862
-0.51855453
-0.041111726
-0.62405584
-0.0485386
-0.751948
-0.057179133
-0.9067451
-0.067277632
-1.0938696
-0.079125919
-1.3198793
-0.093065091
-1.5927365
-0.10949331
-1.922124
-0.12884975
-2.3198314
-0.15163013
-2.8002693
-0.17841378
-3.3811087
-0.20986074
-4.0841037
-0.24661513
-4.9364277
-0.2892905
-5.9719151
-0.33847889
-7.2328853
-0.39463904
-8.7727555
-0.45793039
-10.659159
-0.52801731
-12.980483
-0.60376467
-15.847828
-0.68251787
-19.4062
-0.75958355
-23.848516
-0.82769465
-29.430181
-36.490947
-8.8691512e-06
-0.0029080081
-1.8105824e-05
-0.0042126697
-2.6641726e-05
-0.0056239367
-4.3935519e-05
-0.0072969689
-0.00011155472
-0.0089444661
-0.00019336247
-0.010726682
-0.00029140072
-0.012816513
-0.00041118533
-0.015330931
-0.00055543468
-0.018326087
-0.00073168957
-0.021897541
-0.00094560341
-0.026159997
-0.0012074448
-0.031227982
-0.0015277821
-0.037265342
-0.0019216701
-0.044431391
-0.0024072365
-0.052942124
-0.0030078923
-0.063023675
-0.0037530213
-0.074960775
-0.0046790561
-0.089072893
-0.0058301897
-0.10575274
-0.0072575802
-0.12547175
-0.009018205
-0.1488256
-0.011171452
-0.1765714
-0.013766701
-0.20970963
-0.016856805
-0.24952026
-0.02048413
-0.29759928
-0.024697042
-0.35591398
-0.029557849
-0.42679132
-0.035155528
-0.51295676
-0.041612892
-0.61759706
-0.049091702
-0.74446651
-0.057796801
-0.89803698
-0.06797779
-1.0836871
-0.079931741
-1.3079278
-0.094007042
-1.5786708
-0.11060768
-1.9055423
-0.13018967
-2.3002673
-0.1532582
-2.7771928
-0.1804149
-3.3539309
-0.21235377
-4.0521838
-0.24975562
-4.8990765
-0.29329033
-5.9284177
-0.34362707
-7.1825709
-0.40133741
-8.715064
-0.46673147
-10.593807
-0.53969235
-12.90773
-0.61939514
-15.768263
-0.70361845
-19.321984
-0.78829014
-23.763674
-0.8670511
-29.351684
-36.43012
-9.7155107e-06
-0.0028983974
-1.9510958e-05
-0.0042029846
-2.7604554e-05
-0.0056159748
-4.7690179e-05
-0.0072770179
-0.00011486087
-0.0088774424
-0.00019763017
-0.010644062
-0.00029657501
-0.012717754
-0.00041751602
-0.015210187
-0.00056303728
-0.018180814
-0.0007409778
-0.021719872
-0.00095706841
-0.025944237
-0.0012218048
-0.03096362
-0.0015461625
-0.036941432
-0.0019455349
-0.044032541
-0.002438686
-0.052449588
-0.0030498239
-0.06241325
-0.0038093125
-0.074202138
-0.0047547721
-0.088128434
-0.005931468
-0.10457722
-0.0073918482
-0.12401271
-0.00919319
-0.14702581
-0.011393165
-0.17437312
-0.014037854
-0.20706674
-0.017180606
-0.24637939
-0.020858341
-0.29392323
-0.025118985
-0.3516547
-0.0300262
-0.42188481
-0.035671489
-0.50731115
-0.042181766
-0.61108521
-0.049724057
-0.73692156
-0.05850802
-0.88925032
-0.068789133
-1.0734052
-0.080869562
-1.2958506
-0.095106819
-1.564444
-0.11191329
-1.8887543
-0.13175544
-2.2804403
-0.15515619
-2.7537806
-0.18274208
-3.3263224
-0.21523633
-4.0197105
-0.25335986
-4.8610055
-0.29784351
-5.8839713
-0.34943623
-7.131001
-0.40882553