/*--------------------------------*- C++ -*----------------------------------*\
| =========                 |                                                 |
| \\      /  F ield         | OpenFOAM: The Open Source CFD Toolbox           |
|  \\    /   O peration     | Version:  2306                                  |
|   \\  /    A nd           | Website:  www.openfoam.com                      |
|    \\/     M anipulation  |                                                 |
\*---------------------------------------------------------------------------*/
FoamFile
{
    version     2.0;
    format      ascii;
    arch        "LSB;label=32;scalar=64";
    class       volScalarField;
    location    "0.016";
    object      yPlus;
}
// * * * * * * * * * * * * * * * * * * * * * * * * * * * * * * * * * * * * * //

dimensions      [0 0 0 0 0 0 0];

internalField   uniform 0;

boundaryField
{
    upper
    {
        type            calculated;
        value           nonuniform List<scalar> 
150
(
52.961731
52.926136
52.920919
52.917694
52.926014
52.943216
52.969229
53.004752
53.049471
53.10295
53.16428
53.234862
53.315707
53.404161
53.502743
53.610759
53.726829
53.852497
53.986043
54.130411
54.285297
54.448592
54.620975
54.80015
54.987377
55.174963
55.363664
55.555398
55.747639
55.943822
56.144636
56.352698
56.56903
56.794001
57.029928
57.274719
57.52586
57.787803
58.064421
58.354037
58.653838
58.967921
59.296747
59.649004
60.020552
60.421134
60.838744
61.274667
61.72038
62.160912
62.591121
63.001042
63.386586
63.75304
64.12454
64.516547
64.907389
65.327474
65.790384
66.39043
67.192389
68.314597
69.919935
72.240702
75.028166
77.978107
80.940064
83.69386
86.042878
87.789265
88.726838
88.634468
87.065529
83.568406
78.19235
16.573707
21.631122
23.054798
24.761573
26.098912
27.311691
28.377716
29.338851
30.208519
31.002351
31.732254
32.405394
33.028194
33.607475
34.148477
34.65529
35.134066
35.590642
36.036283
36.486174
36.947566
37.335013
37.7036
38.059107
38.401307
38.730505
39.049584
39.360793
39.660869
39.951414
40.234538
40.512898
40.788778
41.061058
41.329878
41.595886
41.859359
42.121035
42.380742
42.638766
42.895504
43.151032
43.405024
43.658837
43.913616
44.169903
44.428196
44.687772
44.947615
45.209146
45.473214
45.738702
46.00473
46.27299
46.543218
46.816783
47.094389
47.374313
47.65557
47.940731
48.230144
48.521937
48.817109
49.115688
49.418414
49.727132
50.043449
50.367239
50.696734
51.032551
51.371433
51.710782
52.052909
52.406662
52.776078
)
;
    }
    lower
    {
        type            calculated;
        value           nonuniform List<scalar> 
150
(
57.711047
57.445415
57.203725
56.966418
56.738078
56.518362
56.306105
56.100722
55.902867
55.71275
55.529876
55.354901
55.186456
55.021624
54.862967
54.710944
54.564091
54.421924
54.281523
54.144007
54.008329
53.870414
53.726661
53.573133
53.414135
53.248704
53.080821
52.913721
52.746312
52.582848
52.427635
52.272586
52.112654
51.94142
51.755902
51.548062
51.314967
51.054858
50.77228
50.475399
50.178438
49.897972
49.604018
49.292083
48.948041
48.573157
48.153693
47.690583
47.172781
46.587651
45.944159
45.273933
44.622187
43.957095
43.243672
42.418274
41.429859
40.261584
38.867226
37.219573
35.263678
32.934447
30.032206
26.320344
21.363792
15.109135
8.2444253
8.2472881
17.998435
28.183188
39.664089
51.441761
62.913923
73.766005
82.835583
38.348149
41.623563
42.669629
43.763295
44.559117
45.24408
45.82008
46.322846
46.766059
47.161641
47.519945
47.846442
48.145593
48.422875
48.681934
48.924128
49.153201
49.370066
49.575778
49.772108
49.960391
50.142038
50.317261
50.487026
50.651838
50.807949
50.95987
51.109408
51.256446
51.401211
51.542457
51.68076
51.820236
51.955277
52.088911
52.220865
52.35274
52.484235
52.615675
52.745881
52.877565
53.009914
53.143612
53.278024
53.411737
53.547064
53.684436
53.821771
53.958392
54.092476
54.223608
54.350994
54.480146
54.614989
54.754237
54.895363
55.038899
55.18373
55.330123
55.47804
55.628181
55.778702
55.930625
56.082594
56.234719
56.386176
56.537139
56.687586
56.838593
56.992598
57.147568
57.300253
57.452088
57.605426
57.76086
)
;
    }
    inlet
    {
        type            calculated;
        value           uniform 0;
    }
    outlet
    {
        type            calculated;
        value           uniform 0;
    }
    back
    {
        type            empty;
    }
    front
    {
        type            empty;
    }
}


// ************************************************************************* //
