/*--------------------------------*- C++ -*----------------------------------*\
| =========                 |                                                 |
| \\      /  F ield         | OpenFOAM: The Open Source CFD Toolbox           |
|  \\    /   O peration     | Version:  2306                                  |
|   \\  /    A nd           | Website:  www.openfoam.com                      |
|    \\/     M anipulation  |                                                 |
\*---------------------------------------------------------------------------*/
FoamFile
{
    version     2.0;
    format      ascii;
    arch        "LSB;label=32;scalar=64";
    class       volSymmTensorField;
    location    "825";
    object      turbulenceProperties:devReff;
}
// * * * * * * * * * * * * * * * * * * * * * * * * * * * * * * * * * * * * * //

dimensions      [0 2 -2 0 0 0 0];

internalField   nonuniform List<symmTensor> 
1340
(
(5.37937e-08 7.83547e-08 -1.08995e-19 -1.24337e-07 -1.41107e-20 7.05434e-08)
(-2.12354e-07 9.58357e-08 5.5125e-20 3.08588e-07 6.39378e-21 -9.62348e-08)
(-2.88001e-09 -4.73497e-09 -2.14058e-19 -1.9882e-08 -2.67798e-20 2.2762e-08)
(-1.05849e-07 2.60437e-08 -3.34988e-20 1.49203e-07 -3.78754e-21 -4.33538e-08)
(4.76664e-08 8.19754e-08 1.61181e-20 -1.18998e-07 1.74041e-21 7.13317e-08)
(-2.10974e-07 9.49117e-08 -2.21446e-19 3.08908e-07 -2.50566e-20 -9.79341e-08)
(-4.07101e-08 -3.78718e-09 -0 3.57388e-08 -1.31777e-22 4.97134e-09)
(-5.34764e-08 -1.42764e-08 -7.23723e-20 6.4518e-08 -8.54497e-21 -1.10416e-08)
(-6.37935e-09 -3.73559e-09 2.03428e-19 -1.64373e-08 2.55177e-20 2.28167e-08)
(-1.06187e-07 2.46411e-08 1.02477e-19 1.49982e-07 1.21099e-20 -4.37957e-08)
(4.13803e-08 8.5114e-08 3.44226e-23 -1.1396e-07 2.0267e-22 7.25802e-08)
(-2.08347e-07 9.34515e-08 1.8243e-19 3.08737e-07 2.04866e-20 -1.00391e-07)
(-6.987e-08 1.85037e-08 -9.23559e-20 7.01168e-08 -1.10934e-20 -2.46742e-10)
(-6.2627e-08 1.35764e-08 1.90982e-21 6.18839e-08 4.69758e-22 7.43065e-10)
(-5.85372e-08 4.27664e-09 1.26071e-20 6.05593e-08 1.50354e-21 -2.02206e-09)
(-4.22644e-08 -6.70963e-09 -0 3.73653e-08 -2.65047e-23 4.89911e-09)
(-5.42718e-08 -1.74311e-08 -3.30459e-22 6.5229e-08 -5.7875e-23 -1.09572e-08)
(-9.89479e-09 -2.85398e-09 1.45744e-21 -1.29206e-08 2.50722e-22 2.28153e-08)
(-1.06485e-07 2.37291e-08 8.56847e-22 1.50706e-07 1.58426e-22 -4.4221e-08)
(3.56179e-08 8.79116e-08 7.5479e-24 -1.09481e-07 6.55834e-24 7.38629e-08)
(-2.05847e-07 9.09633e-08 9.84678e-22 3.08673e-07 1.81241e-22 -1.02826e-07)
(-1.00521e-07 2.47359e-08 6.55341e-21 1.00552e-07 1.03041e-21 -3.03692e-11)
(-9.33476e-08 2.21178e-08 2.78108e-20 9.33804e-08 3.36688e-21 -3.28196e-11)
(-8.74707e-08 2.01589e-08 2.82607e-20 8.74303e-08 2.85833e-21 4.04876e-11)
(-8.18299e-08 1.87679e-08 -9.8339e-20 8.18642e-08 -1.17814e-20 -3.42982e-11)
(-7.60824e-08 1.71262e-08 2.56715e-20 7.60193e-08 3.32418e-21 6.31435e-11)
(-7.06976e-08 1.45071e-08 -3.91729e-20 7.09318e-08 -4.82829e-21 -2.34138e-10)
(-6.3635e-08 9.80068e-09 2.53566e-22 6.29179e-08 3.61287e-22 7.17098e-10)
(-5.94169e-08 4.17398e-10 9.31706e-20 6.13773e-08 1.13277e-20 -1.96038e-09)
(-4.37458e-08 -9.75493e-09 -0 3.89546e-08 -1.89274e-22 4.79124e-09)
(-5.49879e-08 -2.04212e-08 5.3934e-21 6.57904e-08 3.70867e-22 -1.08025e-08)
(-1.33404e-08 -2.04564e-09 -1.85954e-19 -9.38551e-09 -2.3263e-20 2.27259e-08)
(-1.06878e-07 2.31771e-08 -9.35473e-20 1.51413e-07 -1.10696e-20 -4.45345e-08)
(3.05728e-08 9.04955e-08 -6.09911e-21 -1.05588e-07 -6.02339e-22 7.5015e-08)
(-2.03859e-07 8.73934e-08 2.40771e-20 3.08903e-07 2.73424e-21 -1.05044e-07)
(-1.43535e-07 2.30259e-08 5.43496e-20 1.43529e-07 5.65772e-21 5.73441e-12)
(-1.3427e-07 2.32866e-08 -5.01976e-20 1.34265e-07 -6.12775e-21 4.24528e-12)
(-1.25153e-07 2.27076e-08 -1.30757e-20 1.25142e-07 -1.63245e-21 1.09677e-11)
(-1.16344e-07 2.1594e-08 -8.11943e-20 1.16364e-07 -9.45931e-21 -1.98619e-11)
(-1.07805e-07 2.02351e-08 -1.8781e-20 1.07757e-07 -1.81908e-21 4.88909e-11)
(-9.97596e-08 1.86841e-08 1.31665e-20 9.97841e-08 1.64181e-21 -2.45465e-11)
(-9.29569e-08 1.65546e-08 6.71977e-21 9.29818e-08 7.39944e-22 -2.48561e-11)
(-8.73878e-08 1.50639e-08 1.38207e-22 8.73425e-08 6.77881e-23 4.53063e-11)
(-8.20242e-08 1.40976e-08 1.64511e-20 8.20528e-08 1.786e-21 -2.85542e-11)
(-7.65344e-08 1.28307e-08 -4.50506e-20 7.64724e-08 -5.18293e-21 6.19945e-11)
(-7.1335e-08 1.04823e-08 8.55612e-20 7.15506e-08 1.02943e-20 -2.15637e-10)
(-6.4483e-08 5.94725e-09 -5.55051e-20 6.38009e-08 -7.18575e-21 6.82044e-10)
(-6.01428e-08 -3.48621e-09 -8.79579e-20 6.20193e-08 -1.05065e-20 -1.87651e-09)
(-4.5125e-08 -1.29064e-08 -0 4.0482e-08 1.92735e-22 4.64302e-09)
(-5.56135e-08 -2.32371e-08 -5.1327e-21 6.61931e-08 -3.3583e-22 -1.05796e-08)
(-1.66929e-08 -1.27877e-09 1.7651e-19 -5.84856e-09 2.20202e-20 2.25415e-08)
(-1.07323e-07 2.29256e-08 8.83913e-20 1.52058e-07 1.04046e-20 -4.47354e-08)
(2.60955e-08 9.28603e-08 5.80308e-21 -1.02159e-07 5.75351e-22 7.60635e-08)
(-2.02192e-07 8.28353e-08 -2.2655e-20 3.09347e-07 -2.55381e-21 -1.07156e-07)
(-1.97485e-07 -1.17632e-08 -5.87743e-21 1.97468e-07 -9.88495e-22 1.66793e-11)
(-1.89252e-07 -6.61459e-09 -3.17898e-20 1.89236e-07 -3.85975e-21 1.57665e-11)
(-1.80922e-07 -1.84723e-09 -5.67372e-20 1.80908e-07 -5.88758e-21 1.38815e-11)
(-1.72563e-07 2.61731e-09 2.00725e-20 1.72552e-07 2.58911e-21 1.14011e-11)
(-1.64205e-07 6.72278e-09 -5.17877e-21 1.64194e-07 -5.54497e-22 1.09189e-11)
(-1.55841e-07 1.02583e-08 2.59262e-20 1.55832e-07 3.36848e-21 9.44046e-12)
(-1.47443e-07 1.29695e-08 6.69692e-20 1.47435e-07 7.44957e-21 8.46272e-12)
(-1.39003e-07 1.46723e-08 3.69731e-22 1.38996e-07 -1.10703e-22 6.72603e-12)
(-1.3056e-07 1.53791e-08 3.956e-20 1.30554e-07 4.51275e-21 6.21153e-12)
(-1.22197e-07 1.52879e-08 -3.62579e-21 1.22186e-07 -5.81162e-22 1.18394e-11)
(-1.14073e-07 1.4697e-08 3.47333e-21 1.14092e-07 5.52962e-22 -1.86264e-11)
(-1.06144e-07 1.38599e-08 3.5718e-20 1.06093e-07 4.09046e-21 5.09995e-11)
(-9.86246e-08 1.27783e-08 -1.23872e-20 9.86489e-08 -1.61429e-21 -2.43351e-11)
(-9.2236e-08 1.11066e-08 -6.22964e-21 9.22577e-08 -6.80441e-22 -2.1737e-11)
(-8.70085e-08 1.00582e-08 2.06694e-22 8.6963e-08 7.07644e-23 4.55117e-11)
(-8.19553e-08 9.48823e-09 -1.23353e-22 8.19816e-08 -1.00261e-23 -2.62796e-11)
(-7.67573e-08 8.56524e-09 -3.61221e-22 7.67012e-08 -2.12684e-22 5.60856e-11)
(-7.17658e-08 6.45585e-09 -4.66522e-20 7.19623e-08 -5.44008e-21 -1.96505e-10)
(-6.51534e-08 2.0373e-09 5.27883e-20 6.45177e-08 6.50101e-21 6.35683e-10)
(-6.07013e-08 -7.41791e-09 -3.51966e-22 6.2476e-08 -2.00815e-22 -1.77464e-09)
(-4.63856e-08 -1.61446e-08 -0 4.19312e-08 1.18696e-23 4.45431e-09)
(-5.61465e-08 -2.58642e-08 4.87305e-21 6.64383e-08 2.98013e-22 -1.02919e-08)
(-1.99575e-08 -5.36468e-10 -1.79913e-19 -2.30003e-09 -2.22419e-20 2.22575e-08)
(-1.078e-07 2.29476e-08 2.96235e-22 1.52635e-07 3.10479e-22 -4.48349e-08)
(2.20808e-08 9.49807e-08 -1.65046e-20 -9.91106e-08 -2.13023e-21 7.70298e-08)
(-2.00707e-07 7.73229e-08 -1.23906e-22 3.09875e-07 -9.04607e-24 -1.09168e-07)
(-2.38471e-07 -1.1913e-07 5.6407e-21 2.38455e-07 5.44351e-23 1.65106e-11)
(-2.36183e-07 -1.09823e-07 -3.55216e-20 2.36167e-07 -3.72102e-21 1.58988e-11)
(-2.33482e-07 -1.00512e-07 -7.10756e-22 2.33462e-07 7.93614e-22 2.03204e-11)
(-2.3038e-07 -9.12104e-08 3.22539e-20 2.30357e-07 2.91547e-21 2.26459e-11)
(-2.26879e-07 -8.1975e-08 -3.44358e-20 2.26859e-07 -3.90455e-21 2.06659e-11)
(-2.22974e-07 -7.28719e-08 6.28457e-21 2.22953e-07 1.10237e-21 2.10766e-11)
(-2.18667e-07 -6.39792e-08 2.43392e-21 2.18646e-07 1.22159e-22 2.08392e-11)
(-2.13951e-07 -5.54188e-08 -5.83991e-21 2.1393e-07 -2.27083e-22 2.0945e-11)
(-2.08825e-07 -4.73134e-08 4.08002e-20 2.08806e-07 4.96947e-21 1.86033e-11)
(-2.03283e-07 -3.97776e-08 5.7358e-20 2.03265e-07 5.78547e-21 1.78126e-11)
(-1.97339e-07 -3.28936e-08 4.2668e-21 1.97322e-07 6.21593e-23 1.63599e-11)
(-1.91023e-07 -2.66624e-08 1.508e-20 1.91008e-07 1.45821e-21 1.58204e-11)
(-1.84396e-07 -2.10069e-08 -1.6261e-20 1.84382e-07 -1.8975e-21 1.33696e-11)
(-1.77528e-07 -1.57892e-08 -1.8041e-22 1.77516e-07 7.56227e-22 1.26812e-11)
(-1.70504e-07 -1.08649e-08 8.55393e-20 1.70492e-07 9.41641e-21 1.15865e-11)
(-1.63382e-07 -6.18273e-09 1.17318e-22 1.63373e-07 -9.29216e-22 9.56257e-12)
(-1.56182e-07 -1.83389e-09 -4.86891e-20 1.56173e-07 -5.51506e-21 9.13992e-12)
(-1.48894e-07 1.95716e-09 -9.94762e-21 1.48886e-07 -1.07801e-21 7.93016e-12)
(-1.41489e-07 4.93226e-09 -4.57594e-20 1.41482e-07 -5.17026e-21 7.08101e-12)
(-1.33966e-07 6.93132e-09 -1.07599e-20 1.3396e-07 -9.66845e-22 5.41028e-12)
(-1.26369e-07 7.97829e-09 3.6689e-22 1.26364e-07 -1.38433e-22 5.20576e-12)
(-1.18789e-07 8.28524e-09 -5.6412e-20 1.18778e-07 -6.49706e-21 1.04817e-11)
(-1.11383e-07 8.13681e-09 -3.71466e-21 1.11402e-07 -2.30799e-22 -1.95122e-11)
(-1.04096e-07 7.74744e-09 -1.37225e-20 1.04045e-07 -1.58707e-21 5.05914e-11)
(-9.71413e-08 7.0748e-09 -1.0284e-22 9.71674e-08 6.17215e-23 -2.61447e-11)
(-9.12027e-08 5.82467e-09 5.93137e-21 9.12226e-08 4.77491e-22 -1.99789e-11)
(-8.63459e-08 5.18791e-09 -4.81111e-20 8.63018e-08 -5.53997e-21 4.40436e-11)
(-8.16316e-08 4.97918e-09 4.37368e-20 8.16567e-08 5.53719e-21 -2.50965e-11)
(-7.67544e-08 4.36331e-09 4.02292e-20 7.67062e-08 4.88405e-21 4.82718e-11)
(-7.19908e-08 2.4527e-09 7.31885e-20 7.21665e-08 8.40871e-21 -1.7571e-10)
(-6.56414e-08 -1.90941e-09 -8.51284e-20 6.50603e-08 -1.04683e-20 5.81127e-10)
(-6.10892e-08 -1.13625e-08 -1.45521e-22 6.27448e-08 1.90889e-22 -1.65554e-09)
(-4.75192e-08 -1.94493e-08 -0 4.32912e-08 -7.14062e-24 4.22802e-09)
(-5.65874e-08 -2.82863e-08 -4.59676e-21 6.6525e-08 -4.70005e-22 -9.93764e-09)
(-2.31307e-08 2.03373e-10 4.59484e-20 1.25766e-09 5.66601e-21 2.1873e-08)
(-1.08316e-07 2.32069e-08 1.97308e-20 1.5313e-07 2.31441e-21 -4.48141e-08)
(1.84888e-08 9.68618e-08 -1.93441e-20 -9.63503e-08 -2.52921e-21 7.78615e-08)
(-1.9952e-07 7.08362e-08 4.97996e-24 3.10552e-07 1.71593e-23 -1.11032e-07)
(-1.97508e-07 -1.43947e-07 3.8714e-21 2.33064e-07 5.12436e-22 -3.55558e-08)
(-1.78839e-07 -1.95626e-07 4.19814e-21 1.76894e-07 2.65276e-22 1.94537e-09)
(-1.57345e-07 -1.80799e-07 -2.21428e-22 1.43019e-07 -1.03655e-22 1.43251e-08)
(-1.6585e-07 -1.81751e-07 8.90328e-22 1.69226e-07 1.21949e-22 -3.37596e-09)
(-1.60044e-07 -1.89617e-07 1.12558e-21 1.58751e-07 9.74114e-23 1.29315e-09)
(-1.62724e-07 -2.00084e-07 5.02584e-22 1.6322e-07 1.97993e-23 -4.95507e-10)
(-1.62086e-07 -2.08302e-07 2.64399e-22 1.61958e-07 -8.87474e-23 1.28228e-10)
(-1.62211e-07 -2.1558e-07 -3.95739e-21 1.62345e-07 -4.17806e-22 -1.3389e-10)
(-1.62067e-07 -2.22199e-07 -1.55857e-21 1.6206e-07 4.21454e-23 6.99732e-12)
(-1.62292e-07 -2.2806e-07 3.52438e-21 1.62352e-07 3.74005e-22 -6.01408e-11)
(-1.62627e-07 -2.33331e-07 -0 1.62662e-07 -9.93766e-23 -3.5421e-11)
(-1.63207e-07 -2.37874e-07 -1.8728e-22 1.63285e-07 1.63681e-22 -7.76789e-11)
(-1.63885e-07 -2.41732e-07 7.12563e-21 1.6393e-07 6.97758e-22 -4.50232e-11)
(-1.64738e-07 -2.44857e-07 2.1389e-22 1.64752e-07 3.10795e-23 -1.3619e-11)
(-1.6586e-07 -2.4729e-07 7.31177e-21 1.65939e-07 7.10827e-22 -7.92974e-11)
(-1.6705e-07 -2.49056e-07 4.43982e-22 1.671e-07 -8.94561e-23 -4.96763e-11)
(-1.6843e-07 -2.5012e-07 1.4306e-21 1.68481e-07 2.39659e-22 -5.10532e-11)
(-1.6995e-07 -2.50543e-07 5.2714e-21 1.69993e-07 5.24648e-22 -4.28554e-11)
(-1.71625e-07 -2.50325e-07 2.54793e-21 1.71674e-07 2.8352e-22 -4.87915e-11)
(-1.73427e-07 -2.49519e-07 6.83568e-21 1.73479e-07 4.64742e-22 -5.22106e-11)
(-1.75344e-07 -2.48128e-07 -6.05075e-21 1.75399e-07 -9.18782e-22 -5.49483e-11)
(-1.77344e-07 -2.46206e-07 -8.69765e-21 1.77382e-07 -6.41485e-22 -3.75731e-11)
(-1.79459e-07 -2.43754e-07 2.90943e-21 1.79506e-07 4.18007e-22 -4.70807e-11)
(-1.81637e-07 -2.40837e-07 -2.08094e-21 1.81685e-07 -3.8875e-22 -4.78345e-11)
(-1.83867e-07 -2.3747e-07 -5.93561e-21 1.83915e-07 -6.48074e-22 -4.71586e-11)
(-1.86127e-07 -2.33686e-07 -5.06328e-21 1.86166e-07 -1.70605e-22 -3.87299e-11)
(-1.88418e-07 -2.29501e-07 1.00812e-20 1.88462e-07 1.01407e-21 -4.40555e-11)
(-1.90701e-07 -2.24971e-07 -3.40478e-21 1.90746e-07 -4.98139e-22 -4.47863e-11)
(-1.92956e-07 -2.20091e-07 1.2735e-21 1.92997e-07 1.03892e-22 -4.02083e-11)
(-1.95178e-07 -2.14897e-07 -4.41369e-21 1.95222e-07 -3.23378e-22 -4.43737e-11)
(-1.97331e-07 -2.094e-07 6.97942e-21 1.97375e-07 8.40976e-22 -4.44243e-11)
(-1.99398e-07 -2.03623e-07 4.26577e-21 1.99443e-07 3.80578e-22 -4.49762e-11)
(-2.01354e-07 -1.97591e-07 5.0106e-21 2.01399e-07 6.34881e-22 -4.49982e-11)
(-2.0318e-07 -1.91302e-07 1.23053e-20 2.03226e-07 9.78031e-22 -4.57837e-11)
(-2.04847e-07 -1.84793e-07 -9.38785e-21 2.04891e-07 -1.22746e-21 -4.40403e-11)
(-2.06339e-07 -1.78062e-07 -5.1927e-21 2.06385e-07 -3.65822e-22 -4.62548e-11)
(-2.0762e-07 -1.71133e-07 4.39471e-22 2.07659e-07 3.45487e-23 -3.94876e-11)
(-2.08685e-07 -1.64016e-07 -6.02471e-21 2.08728e-07 -6.44663e-22 -4.33194e-11)
(-2.09489e-07 -1.56727e-07 -2.39746e-21 2.09523e-07 -3.04177e-22 -3.37759e-11)
(-2.10028e-07 -1.49267e-07 -9.55328e-21 2.10055e-07 -8.75472e-22 -2.71262e-11)
(-2.10283e-07 -1.41663e-07 3.3086e-21 2.10309e-07 5.43268e-22 -2.59562e-11)
(-2.10229e-07 -1.33911e-07 4.21081e-21 2.10249e-07 2.35531e-22 -2.06057e-11)
(-2.0985e-07 -1.26033e-07 -1.07207e-20 2.09864e-07 -1.04343e-21 -1.35645e-11)
(-2.09137e-07 -1.1802e-07 8.48941e-21 2.09142e-07 1.03306e-21 -5.48687e-12)
(-2.08084e-07 -1.09897e-07 -2.81375e-22 2.08088e-07 -1.71682e-22 -4.21391e-12)
(-2.06673e-07 -1.01679e-07 -8.08378e-27 2.06673e-07 -4.27465e-23 7.47695e-13)
(-2.049e-07 -9.33946e-08 1.72805e-22 2.04894e-07 1.53747e-22 5.77354e-12)
(-2.02761e-07 -8.50906e-08 8.56535e-21 2.02756e-07 5.64599e-22 5.6289e-12)
(-2.00239e-07 -7.68311e-08 -2.96117e-20 2.0023e-07 -3.21457e-21 8.76679e-12)
(-1.97324e-07 -6.87091e-08 1.22168e-23 1.97312e-07 3.05701e-22 1.1721e-11)
(-1.94006e-07 -6.08379e-08 7.23286e-23 1.93996e-07 -1.09771e-22 1.05743e-11)
(-1.90266e-07 -5.33487e-08 -1.13228e-20 1.90255e-07 -1.19988e-21 1.09847e-11)
(-1.86098e-07 -4.63397e-08 4.26386e-22 1.86086e-07 1.85399e-22 1.19401e-11)
(-1.8151e-07 -3.98877e-08 -1.33334e-21 1.81499e-07 -1.24791e-22 1.05121e-11)
(-1.76527e-07 -3.39823e-08 4.37931e-23 1.76516e-07 -2.48159e-23 1.12121e-11)
(-1.71206e-07 -2.85374e-08 -6.31253e-21 1.71196e-07 -6.87357e-22 9.74595e-12)
(-1.65614e-07 -2.34159e-08 5.33975e-23 1.65605e-07 -2.29454e-22 9.39634e-12)
(-1.59823e-07 -1.84965e-08 -3.65293e-20 1.59814e-07 -4.00557e-21 8.84209e-12)
(-1.53881e-07 -1.37566e-08 9.17679e-24 1.53874e-07 5.44803e-22 7.56564e-12)
(-1.47799e-07 -9.31702e-09 4.09531e-20 1.47791e-07 4.55731e-21 7.30125e-12)
(-1.41558e-07 -5.41578e-09 -4.7006e-23 1.41552e-07 -1.63801e-23 6.24365e-12)
(-1.3513e-07 -2.30749e-09 4.37269e-20 1.35124e-07 4.91643e-21 5.77924e-12)
(-1.28519e-07 -1.32913e-10 -2.66436e-21 1.28515e-07 -7.38707e-22 4.45274e-12)
(-1.21775e-07 1.1515e-09 -3.63442e-20 1.21771e-07 -4.12777e-21 4.47886e-12)
(-1.14992e-07 1.76395e-09 -5.21045e-22 1.14983e-07 1.02753e-22 9.1791e-12)
(-1.08322e-07 1.97423e-09 -4.23634e-23 1.08342e-07 3.73551e-23 -1.94818e-11)
(-1.01702e-07 1.95283e-09 1.32717e-20 1.01651e-07 1.57917e-21 5.03743e-11)
(-9.534e-08 1.62736e-09 1.1361e-20 9.53672e-08 1.2706e-21 -2.72442e-11)
(-8.98805e-08 7.56854e-10 1.10194e-22 8.98982e-08 -2.36077e-23 -1.77307e-11)
(-8.54177e-08 4.97291e-10 -3.34151e-22 8.53746e-08 -5.14172e-23 4.31418e-11)
(-8.1066e-08 6.10083e-10 2.18214e-22 8.10893e-08 -1.06882e-22 -2.32754e-11)
(-7.6533e-08 2.56852e-10 -3.81608e-20 7.64925e-08 -4.73367e-21 4.0526e-11)
(-7.20131e-08 -1.50374e-09 -5.90188e-20 7.21654e-08 -6.69532e-21 -1.52294e-10)
(-6.59457e-08 -5.87397e-09 8.40402e-20 6.54248e-08 1.03463e-20 5.20875e-10)
(-6.13072e-08 -1.53059e-08 4.04705e-20 6.2828e-08 4.66124e-21 -1.5208e-09)
(-4.85258e-08 -2.27964e-08 -0 4.45573e-08 -1.16429e-22 3.96851e-09)
(-5.69446e-08 -3.04896e-08 -1.33599e-20 6.64615e-08 -1.42199e-21 -9.51698e-09)
(-2.621e-08 9.80298e-10 1.19113e-19 4.82873e-09 1.45693e-20 2.13813e-08)
(-1.08884e-07 2.36448e-08 -9.16345e-20 1.53508e-07 -1.1272e-20 -4.46242e-08)
(1.53365e-08 9.85725e-08 4.82951e-21 -9.38466e-08 7.73503e-22 7.85101e-08)
(-1.98727e-07 6.3379e-08 4.87899e-24 3.11402e-07 -4.33905e-24 -1.12675e-07)
(-1.83785e-07 -1.6087e-07 -3.02076e-22 2.17379e-07 -1.99416e-23 -3.3594e-08)
(-1.3575e-07 -1.64133e-07 4.86263e-22 1.33869e-07 4.48927e-23 1.88083e-09)
(-1.22268e-07 -1.56993e-07 -5.60028e-22 1.11322e-07 -6.86077e-23 1.09459e-08)
(-1.34882e-07 -1.66165e-07 -2.0489e-22 1.37491e-07 -7.41182e-24 -2.60852e-09)
(-1.3185e-07 -1.74295e-07 1.55217e-24 1.30837e-07 6.41693e-24 1.0128e-09)
(-1.33175e-07 -1.8137e-07 4.4549e-25 1.33552e-07 -9.36109e-23 -3.77112e-10)
(-1.32437e-07 -1.87427e-07 -4.00063e-21 1.32315e-07 -3.45203e-22 1.22364e-10)
(-1.32566e-07 -1.93077e-07 1.61517e-21 1.32641e-07 2.49846e-22 -7.57171e-11)
(-1.32573e-07 -1.98234e-07 1.55446e-22 1.32578e-07 -8.52824e-23 -5.14802e-12)
(-1.3283e-07 -2.02879e-07 -2.56008e-21 1.32861e-07 -2.51762e-22 -3.03251e-11)
(-1.33206e-07 -2.07007e-07 -0 1.33228e-07 -5.42996e-23 -2.15626e-11)
(-1.33744e-07 -2.10576e-07 -4.87591e-21 1.33774e-07 -5.23616e-22 -2.99591e-11)
(-1.34417e-07 -2.13601e-07 -1.98366e-21 1.34441e-07 -8.12749e-23 -2.43842e-11)
(-1.35231e-07 -2.16078e-07 4.11672e-25 1.35244e-07 -6.27608e-23 -1.32562e-11)
(-1.3624e-07 -2.18009e-07 -4.99203e-21 1.36291e-07 -3.8368e-22 -5.06734e-11)
(-1.37327e-07 -2.1941e-07 4.54675e-21 1.3735e-07 6.51641e-22 -2.30009e-11)
(-1.38574e-07 -2.20273e-07 4.90062e-21 1.38592e-07 3.04027e-22 -1.8455e-11)
(-1.39981e-07 -2.20631e-07 -3.72684e-21 1.40022e-07 -5.21292e-22 -4.0126e-11)
(-1.4148e-07 -2.20511e-07 -3.02871e-21 1.41509e-07 -2.55849e-22 -2.85043e-11)
(-1.43112e-07 -2.19907e-07 -1.52509e-21 1.43142e-07 -9.43661e-23 -3.01227e-11)
(-1.44855e-07 -2.18861e-07 -8.50378e-22 1.44888e-07 9.88302e-23 -3.38321e-11)
(-1.46694e-07 -2.17388e-07 7.56533e-21 1.46727e-07 7.48252e-22 -3.35509e-11)
(-1.48613e-07 -2.15523e-07 5.217e-24 1.48638e-07 -7.90613e-23 -2.48915e-11)
(-1.5063e-07 -2.13272e-07 3.28241e-21 1.50665e-07 3.96377e-22 -3.54492e-11)
(-1.52692e-07 -2.10678e-07 3.80973e-21 1.52719e-07 3.1512e-22 -2.70092e-11)
(-1.54815e-07 -2.07745e-07 4.84538e-22 1.54842e-07 -9.09284e-23 -2.68377e-11)
(-1.56979e-07 -2.04514e-07 -3.05522e-21 1.5701e-07 -3.27396e-22 -3.03991e-11)
(-1.59159e-07 -2.00987e-07 -1.63051e-21 1.59184e-07 -1.05506e-22 -2.51244e-11)
(-1.61348e-07 -1.97187e-07 4.12896e-24 1.61369e-07 4.37286e-23 -2.15167e-11)
(-1.63535e-07 -1.93127e-07 8.90266e-22 1.63557e-07 8.00989e-23 -2.25731e-11)
(-1.65694e-07 -1.88817e-07 2.33511e-23 1.65713e-07 8.36265e-23 -1.93655e-11)
(-1.67815e-07 -1.84275e-07 6.11177e-21 1.67835e-07 6.15182e-22 -1.97981e-11)
(-1.69868e-07 -1.79513e-07 1.02639e-23 1.6988e-07 -9.42923e-23 -1.25844e-11)
(-1.71853e-07 -1.74528e-07 4.48365e-23 1.71868e-07 1.92686e-22 -1.49322e-11)
(-1.73736e-07 -1.69343e-07 1.05317e-20 1.73748e-07 1.10594e-21 -1.289e-11)
(-1.75499e-07 -1.63954e-07 3.20566e-21 1.75509e-07 6.981e-23 -9.82529e-12)
(-1.77126e-07 -1.58378e-07 -5.85589e-21 1.77135e-07 -5.79986e-22 -8.24457e-12)
(-1.78598e-07 -1.52614e-07 3.79152e-21 1.78608e-07 4.61404e-22 -9.60162e-12)
(-1.79889e-07 -1.46666e-07 -1.12504e-23 1.79897e-07 -1.21429e-22 -8.37971e-12)
(-1.80978e-07 -1.40545e-07 -4.51027e-21 1.80981e-07 -5.199e-22 -3.68952e-12)
(-1.81855e-07 -1.34243e-07 -3.99675e-21 1.81858e-07 -3.02963e-22 -3.26831e-12)
(-1.82499e-07 -1.27771e-07 3.60399e-21 1.82505e-07 5.04626e-22 -5.80275e-12)
(-1.82884e-07 -1.2113e-07 5.78833e-21 1.82884e-07 5.71082e-22 -3.58482e-13)
(-1.83006e-07 -1.14309e-07 3.08215e-21 1.83003e-07 5.57791e-22 2.90491e-12)
(-1.82849e-07 -1.07337e-07 2.46056e-20 1.82847e-07 2.50693e-21 1.96425e-12)
(-1.82394e-07 -1.00205e-07 2.8157e-24 1.82387e-07 -3.09401e-22 6.30426e-12)
(-1.81631e-07 -9.29552e-08 1.75721e-23 1.81624e-07 -7.03892e-23 7.70729e-12)
(-1.80546e-07 -8.5626e-08 -8.4746e-21 1.80537e-07 -6.67451e-22 8.93259e-12)
(-1.79117e-07 -7.82815e-08 1.85611e-20 1.79106e-07 2.01962e-21 1.13997e-11)
(-1.77326e-07 -7.10207e-08 3.14215e-22 1.77313e-07 -3.83729e-22 1.33478e-11)
(-1.75153e-07 -6.39507e-08 -2.25363e-20 1.7514e-07 -2.40033e-21 1.27569e-11)
(-1.72572e-07 -5.71923e-08 8.33306e-23 1.72558e-07 -3.41891e-23 1.38714e-11)
(-1.69572e-07 -5.08426e-08 -2.61147e-20 1.69556e-07 -2.78304e-21 1.5444e-11)
(-1.66157e-07 -4.4957e-08 1.2834e-21 1.66143e-07 4.39522e-22 1.37016e-11)
(-1.62348e-07 -3.95111e-08 8.529e-21 1.62333e-07 8.88445e-22 1.43176e-11)
(-1.58196e-07 -3.44099e-08 -5.01585e-21 1.58183e-07 -7.18134e-22 1.31425e-11)
(-1.53761e-07 -2.95223e-08 -1.44636e-20 1.53748e-07 -1.56098e-21 1.35521e-11)
(-1.49105e-07 -2.47448e-08 -3.20103e-22 1.49093e-07 3.45838e-23 1.23804e-11)
(-1.44262e-07 -2.00872e-08 8.57778e-24 1.44252e-07 -5.97682e-24 1.06776e-11)
(-1.3923e-07 -1.56954e-08 3.32706e-22 1.39219e-07 6.14834e-23 1.08611e-11)
(-1.33985e-07 -1.18175e-08 -3.16847e-23 1.33975e-07 -2.44486e-22 9.66454e-12)
(-1.28497e-07 -8.70035e-09 -4.15147e-20 1.28489e-07 -4.59939e-21 8.80051e-12)
(-1.22775e-07 -6.46374e-09 1.47773e-20 1.22768e-07 2.08945e-21 7.08278e-12)
(-1.16872e-07 -5.04143e-09 3.45143e-20 1.16864e-07 4.12871e-21 7.39284e-12)
(-1.10883e-07 -4.21599e-09 5.13542e-20 1.10872e-07 5.75095e-21 1.10797e-11)
(-1.04955e-07 -3.73174e-09 -1.16988e-22 1.04972e-07 -3.86215e-22 -1.71433e-11)
(-9.90097e-08 -3.46615e-09 -3.08736e-20 9.89575e-08 -3.63416e-21 5.21806e-11)
(-9.32589e-08 -3.50952e-09 -1.07676e-20 9.32855e-08 -1.20988e-21 -2.66607e-11)
(-8.82991e-08 -4.04559e-09 -1.99263e-20 8.83131e-08 -2.13606e-21 -1.40286e-11)
(-8.42468e-08 -3.96604e-09 3.10894e-20 8.42029e-08 3.72402e-21 4.3802e-11)
(-8.02762e-08 -3.57642e-09 -9.68158e-21 8.02967e-08 -1.14483e-21 -2.04538e-11)
(-7.61042e-08 -3.72053e-09 3.72501e-20 7.60711e-08 4.79473e-21 3.31276e-11)
(-7.18405e-08 -5.38627e-09 1.01951e-19 7.19679e-08 1.21855e-20 -1.27405e-10)
(-6.60667e-08 -9.83531e-09 4.64687e-20 6.56098e-08 5.28965e-21 4.56889e-10)
(-6.13583e-08 -1.92294e-08 1.64643e-22 6.27317e-08 -9.17417e-23 -1.37342e-09)
(-4.94056e-08 -2.61525e-08 -0 4.57312e-08 3.3139e-23 3.67441e-09)
(-5.72327e-08 -3.2465e-08 1.26428e-20 6.62561e-08 1.53445e-21 -9.02337e-09)
(-2.91966e-08 1.85127e-09 4.08872e-22 8.45277e-09 1.92853e-22 2.07438e-08)
(-1.09624e-07 2.41696e-08 8.69499e-20 1.53861e-07 1.05605e-20 -4.42371e-08)
(1.27268e-08 1.00211e-07 4.94238e-20 -9.15777e-08 6.25438e-21 7.88509e-08)
(-1.98633e-07 5.49238e-08 4.85304e-24 3.12571e-07 -4.41469e-23 -1.13939e-07)
(-1.37482e-07 -1.33335e-07 1.24435e-21 1.63083e-07 1.45577e-22 -2.56018e-08)
(-1.07798e-07 -1.46142e-07 1.32148e-21 1.05998e-07 1.08517e-22 1.80059e-09)
(-1.00421e-07 -1.45152e-07 -6.86556e-23 9.15865e-08 -5.31358e-23 8.83465e-09)
(-1.1155e-07 -1.53543e-07 -1.03008e-21 1.13676e-07 -9.94265e-23 -2.12557e-09)
(-1.08575e-07 -1.58821e-07 1.22158e-22 1.07801e-07 4.1891e-23 7.74415e-10)
(-1.09442e-07 -1.63848e-07 4.12234e-22 1.09772e-07 4.43522e-23 -3.30746e-10)
(-1.08994e-07 -1.68484e-07 -5.3225e-24 1.08969e-07 -1.10817e-23 2.56129e-11)
(-1.09141e-07 -1.72826e-07 1.5114e-24 1.09218e-07 -2.94674e-24 -7.69217e-11)
(-1.09303e-07 -1.76749e-07 -5.42703e-25 1.0938e-07 7.34203e-25 -7.71191e-11)
(-1.09581e-07 -1.80318e-07 -5.26208e-24 1.09653e-07 -3.36484e-24 -7.18633e-11)
(-1.09948e-07 -1.83442e-07 -0 1.09984e-07 2.55684e-24 -3.58756e-11)
(-1.10517e-07 -1.86152e-07 -8.38643e-24 1.10599e-07 -8.271e-24 -8.15236e-11)
(-1.11155e-07 -1.88456e-07 5.30946e-25 1.11226e-07 -1.69831e-24 -7.10644e-11)
(-1.11924e-07 -1.90327e-07 1.42277e-24 1.11994e-07 2.91588e-23 -6.9602e-11)
(-1.12816e-07 -1.91788e-07 1.16075e-21 1.12885e-07 8.95556e-23 -6.89621e-11)
(-1.13838e-07 -1.92824e-07 -9.67008e-22 1.13915e-07 -1.22098e-22 -7.67018e-11)
(-1.1494e-07 -1.93477e-07 9.49558e-24 1.14987e-07 2.99688e-23 -4.77505e-11)
(-1.1623e-07 -1.93711e-07 -1.0257e-23 1.16323e-07 5.88731e-24 -9.25946e-11)
(-1.17564e-07 -1.93607e-07 -9.26637e-24 1.17636e-07 1.64853e-23 -7.18679e-11)
(-1.19014e-07 -1.93108e-07 1.46757e-21 1.19077e-07 1.65874e-22 -6.26585e-11)
(-1.20576e-07 -1.92283e-07 7.92077e-22 1.20643e-07 4.616e-23 -6.6856e-11)
(-1.22238e-07 -1.9112e-07 2.49767e-23 1.22318e-07 -9.1469e-24 -7.95221e-11)
(-1.23968e-07 -1.89664e-07 -8.35947e-25 1.24044e-07 3.44874e-24 -7.61496e-11)
(-1.2576e-07 -1.87909e-07 9.38524e-24 1.2582e-07 2.28293e-24 -5.94711e-11)
(-1.2765e-07 -1.85876e-07 6.89518e-24 1.27723e-07 -7.50955e-23 -7.27983e-11)
(-1.29582e-07 -1.83603e-07 -4.66975e-21 1.29653e-07 -4.62197e-22 -7.16585e-11)
(-1.31561e-07 -1.81078e-07 5.89228e-22 1.31629e-07 1.38466e-22 -6.887e-11)
(-1.33575e-07 -1.78329e-07 -6.41123e-24 1.3364e-07 -1.29465e-23 -6.49481e-11)
(-1.35621e-07 -1.75361e-07 -6.22091e-23 1.35686e-07 -2.18844e-23 -6.50579e-11)
(-1.3768e-07 -1.72187e-07 -8.61096e-22 1.37745e-07 -9.14066e-23 -6.41235e-11)
(-1.39741e-07 -1.68814e-07 3.00104e-24 1.39803e-07 1.86251e-24 -6.18839e-11)
(-1.41794e-07 -1.65254e-07 2.30727e-23 1.41857e-07 6.25172e-23 -6.27853e-11)
(-1.43813e-07 -1.61511e-07 3.39425e-21 1.43867e-07 3.49647e-22 -5.46235e-11)
(-1.458e-07 -1.57583e-07 5.51995e-24 1.45853e-07 -3.74265e-23 -5.34099e-11)
(-1.47734e-07 -1.53482e-07 3.06456e-23 1.47788e-07 -2.81476e-23 -5.41371e-11)
(-1.49591e-07 -1.49212e-07 -3.05904e-21 1.4964e-07 -2.26951e-22 -4.89459e-11)
(-1.51363e-07 -1.44767e-07 5.56005e-21 1.51408e-07 5.55842e-22 -4.52116e-11)
(-1.53031e-07 -1.40151e-07 -3.62846e-21 1.53074e-07 -4.46046e-22 -4.26503e-11)
(-1.5458e-07 -1.3536e-07 -2.23646e-24 1.54622e-07 9.93272e-23 -4.20476e-11)
(-1.55985e-07 -1.30395e-07 4.25914e-21 1.5602e-07 4.81148e-22 -3.54486e-11)
(-1.57239e-07 -1.25248e-07 3.78792e-21 1.57273e-07 3.28598e-22 -3.42004e-11)
(-1.58322e-07 -1.1992e-07 2.33533e-23 1.58355e-07 -3.69688e-23 -3.35414e-11)
(-1.59211e-07 -1.14396e-07 1.71799e-23 1.59238e-07 -3.75198e-23 -2.69003e-11)
(-1.59904e-07 -1.08679e-07 -2.82934e-21 1.59932e-07 -4.27287e-22 -2.82344e-11)
(-1.60374e-07 -1.02777e-07 -1.24999e-20 1.604e-07 -1.25925e-21 -2.55992e-11)
(-1.60606e-07 -9.66827e-08 2.47641e-24 1.60626e-07 1.19277e-22 -2.00507e-11)
(-1.6059e-07 -9.04388e-08 1.55142e-23 1.60611e-07 2.62163e-23 -2.02066e-11)
(-1.603e-07 -8.40759e-08 -7.29458e-23 1.60318e-07 -5.25363e-23 -1.784e-11)
(-1.59713e-07 -7.76676e-08 -4.70226e-21 1.59728e-07 -5.10748e-22 -1.51891e-11)
(-1.58805e-07 -7.1301e-08 -2.95489e-22 1.58819e-07 2.40177e-23 -1.37317e-11)
(-1.57545e-07 -6.50865e-08 -1.73595e-22 1.57556e-07 5.23806e-23 -1.11671e-11)
(-1.55909e-07 -5.9128e-08 1.03513e-20 1.55918e-07 1.07041e-21 -9.2487e-12)
(-1.53879e-07 -5.35174e-08 -3.95605e-21 1.53887e-07 -5.16761e-22 -7.87994e-12)
(-1.51456e-07 -4.82874e-08 -1.46954e-23 1.51463e-07 -4.13197e-23 -7.22327e-12)
(-1.48657e-07 -4.33903e-08 -8.06262e-21 1.48662e-07 -7.85066e-22 -4.42112e-12)
(-1.45531e-07 -3.87329e-08 1.0295e-20 1.45535e-07 1.29098e-21 -4.40485e-12)
(-1.42128e-07 -3.41843e-08 1.36235e-20 1.42131e-07 1.65485e-21 -3.14568e-12)
(-1.38495e-07 -2.96607e-08 3.70728e-20 1.38497e-07 3.99719e-21 -2.01019e-12)
(-1.34654e-07 -2.52037e-08 -1.02795e-22 1.34656e-07 -4.59455e-22 -1.94902e-12)
(-1.30592e-07 -2.09816e-08 -3.30692e-20 1.30593e-07 -3.6485e-21 -6.81618e-13)
(-1.26277e-07 -1.72455e-08 8.77631e-21 1.26278e-07 1.18539e-21 -6.96281e-13)
(-1.21679e-07 -1.42326e-08 -3.46244e-22 1.2168e-07 -2.1347e-22 -4.62014e-13)
(-1.16808e-07 -1.20393e-08 -1.85526e-20 1.16808e-07 -2.33794e-21 5.12594e-13)
(-1.11723e-07 -1.0569e-08 -4.77608e-20 1.11723e-07 -5.53186e-21 6.68413e-13)
(-1.06517e-07 -9.62374e-09 -4.39647e-20 1.06512e-07 -4.71644e-21 4.70382e-12)
(-1.01323e-07 -8.94369e-09 2.42346e-20 1.01343e-07 2.97965e-21 -1.96052e-11)
(-9.60552e-08 -8.47538e-09 -1.9705e-21 9.60067e-08 -3.02285e-22 4.84927e-11)
(-9.09279e-08 -8.29974e-09 1.02393e-20 9.09586e-08 1.17953e-21 -3.06458e-11)
(-8.64817e-08 -8.54492e-09 -2.87235e-21 8.64948e-08 -3.75833e-22 -1.31619e-11)
(-8.28507e-08 -8.16976e-09 1.15364e-22 8.28076e-08 3.34162e-23 4.31198e-11)
(-7.92781e-08 -7.55356e-09 2.39422e-23 7.92985e-08 -1.48389e-22 -2.03737e-11)
(-7.54793e-08 -7.54553e-09 -4.23621e-20 7.54542e-08 -5.17096e-21 2.50996e-11)
(-7.14802e-08 -9.17885e-09 -4.01514e-20 7.1583e-08 -4.65325e-21 -1.02766e-10)
(-6.60107e-08 -1.37783e-08 2.19781e-22 6.56208e-08 1.46897e-22 3.89955e-10)
(-6.12512e-08 -2.31243e-08 1.86436e-23 6.24655e-08 5.98206e-24 -1.21433e-09)
(-5.01693e-08 -2.94822e-08 -0 4.68195e-08 -1.75032e-23 3.34981e-09)
(-5.74746e-08 -3.42287e-08 -1.24317e-20 6.59151e-08 -1.53532e-21 -8.4405e-09)
(-3.20934e-08 2.93442e-09 1.56034e-22 1.21597e-08 -5.78171e-23 1.99336e-08)
(-1.10478e-07 2.46257e-08 -5.22388e-20 1.54014e-07 -6.35395e-21 -4.3536e-08)
(1.08411e-08 1.01994e-07 -4.69111e-20 -8.96955e-08 -5.95585e-21 7.88544e-08)
(-1.99116e-07 4.5675e-08 6.36899e-22 3.14017e-07 1.61125e-22 -1.14901e-07)
(-1.11773e-07 -1.21695e-07 -1.15993e-21 1.32803e-07 -1.17796e-22 -2.10309e-08)
(-8.90977e-08 -1.35592e-07 2.5308e-24 8.71723e-08 3.07707e-23 1.92541e-09)
(-8.35842e-08 -1.34378e-07 -2.99991e-25 7.62407e-08 2.41197e-23 7.34347e-09)
(-9.24338e-08 -1.40291e-07 9.81763e-22 9.40337e-08 9.33184e-23 -1.5999e-09)
(-8.99156e-08 -1.43872e-07 -1.15428e-22 8.91716e-08 -3.80498e-23 7.44006e-10)
(-9.07331e-08 -1.47675e-07 -3.91702e-22 9.08786e-08 -3.14474e-23 -1.45511e-10)
(-9.04959e-08 -1.51162e-07 -1.25995e-24 9.03612e-08 5.51166e-24 1.34688e-10)
(-9.07146e-08 -1.544e-07 -8.5823e-26 9.06646e-08 4.4213e-24 5.00364e-11)
(-9.09158e-08 -1.5733e-07 3.94671e-22 9.08392e-08 8.30444e-23 7.66024e-11)
(-9.12545e-08 -1.59961e-07 2.38463e-21 9.11923e-08 2.30549e-22 6.22232e-11)
(-9.16506e-08 -1.62281e-07 -0 9.15631e-08 -1.57434e-23 8.75488e-11)
(-9.21955e-08 -1.64283e-07 1.28533e-21 9.21306e-08 9.09521e-23 6.49095e-11)
(-9.28157e-08 -1.65971e-07 -1.85518e-21 9.27473e-08 -2.35063e-22 6.84017e-11)
(-9.35333e-08 -1.67339e-07 -1.49034e-21 9.34578e-08 -7.60757e-23 7.55332e-11)
(-9.43645e-08 -1.68388e-07 2.31495e-21 9.42935e-08 2.70329e-22 7.103e-11)
(-9.53005e-08 -1.69128e-07 9.29025e-22 9.52386e-08 5.21002e-23 6.18998e-11)
(-9.63027e-08 -1.6957e-07 1.97337e-24 9.62175e-08 4.95313e-23 8.52057e-11)
(-9.745e-08 -1.69705e-07 3.39519e-21 9.73905e-08 3.93345e-22 5.95021e-11)
(-9.86606e-08 -1.69566e-07 2.74183e-21 9.85958e-08 1.91401e-22 6.4797e-11)