/*--------------------------------*- C++ -*----------------------------------*\
| =========                 |                                                 |
| \\      /  F ield         | OpenFOAM: The Open Source CFD Toolbox           |
|  \\    /   O peration     | Version:  2306                                  |
|   \\  /    A nd           | Website:  www.openfoam.com                      |
|    \\/     M anipulation  |                                                 |
\*---------------------------------------------------------------------------*/
FoamFile
{
    version     2.0;
    format      ascii;
    arch        "LSB;label=32;scalar=64";
    class       volVectorField;
    location    "850";
    object      momentError;
}
// * * * * * * * * * * * * * * * * * * * * * * * * * * * * * * * * * * * * * //

dimensions      [0 1 -2 0 0 0 0];

internalField   nonuniform List<vector> 
1340
(
(-9.35018e-08 4.33683e-07 -7.39662e-16)
(-3.10882e-09 8.2723e-07 -1.09304e-16)
(7.0272e-10 8.86657e-07 -7.61666e-16)
(1.24334e-07 7.23865e-07 3.80758e-15)
(1.14032e-07 7.85363e-07 -5.74739e-17)
(3.93931e-08 8.92907e-07 1.22431e-15)
(1.88059e-07 7.41696e-07 -8.403e-16)
(2.32882e-07 7.58782e-07 3.98106e-15)
(1.74129e-07 8.41837e-07 3.2788e-16)
(6.02647e-08 9.19505e-07 -1.89477e-15)
(1.6488e-07 8.88071e-07 -1.92696e-15)
(1.99052e-07 8.20362e-07 -1.60869e-15)
(2.51573e-07 7.73412e-07 -1.14752e-15)
(2.7571e-07 7.96555e-07 -1.40695e-15)
(1.94248e-07 8.36496e-07 -3.27568e-16)
(8.00693e-08 9.22858e-07 -1.06215e-15)
(1.87808e-07 1.11552e-06 -6.14266e-16)
(2.00119e-07 9.80271e-07 4.86059e-17)
(2.1958e-07 9.04482e-07 -4.69377e-15)
(2.52972e-07 8.53599e-07 -2.57509e-15)
(2.80179e-07 8.12303e-07 1.25474e-15)
(2.76122e-07 8.08121e-07 -1.57595e-15)
(2.0807e-07 8.36487e-07 -8.49853e-16)
(9.19014e-08 9.13145e-07 2.6612e-15)
(3.52668e-07 1.7272e-06 -3.26937e-15)
(2.94236e-07 1.5461e-06 -4.23872e-15)
(2.368e-07 1.34174e-06 -2.67336e-15)
(2.24098e-07 1.11659e-06 -6.48506e-18)
(2.69939e-07 9.90852e-07 -1.54766e-16)
(2.65131e-07 9.33801e-07 1.87989e-15)
(2.80423e-07 8.69695e-07 8.19435e-16)
(2.81644e-07 8.22622e-07 -2.12806e-16)
(2.78583e-07 8.17148e-07 7.75839e-16)
(2.09885e-07 8.24568e-07 5.70466e-17)
(9.86905e-08 8.94324e-07 -6.44686e-16)
(7.85337e-07 2.12098e-06 -8.15368e-16)
(6.66846e-07 1.89737e-06 1.23721e-15)
(5.43982e-07 1.75853e-06 3.37327e-16)
(4.50787e-07 1.63256e-06 -3.97566e-16)
(3.69659e-07 1.49007e-06 -1.53646e-15)
(3.11329e-07 1.30411e-06 -2.70432e-15)
(2.79369e-07 1.13492e-06 -5.42606e-16)
(3.20499e-07 9.98475e-07 1.41887e-16)
(2.86398e-07 9.18822e-07 1.94725e-15)
(2.87146e-07 8.7786e-07 4.49707e-16)
(2.87821e-07 8.2975e-07 -1.01406e-15)
(2.72208e-07 8.15834e-07 1.32281e-15)
(2.06463e-07 8.08156e-07 5.05554e-16)
(1.01138e-07 8.68111e-07 8.89299e-16)
(2.15233e-06 2.50301e-06 -1.04906e-15)
(1.78674e-06 2.37531e-06 2.93819e-16)
(1.47174e-06 2.26645e-06 1.17442e-16)
(1.15863e-06 2.10826e-06 -1.09926e-16)
(9.2843e-07 1.93329e-06 -4.53051e-16)
(7.76136e-07 1.76781e-06 2.17503e-15)
(6.59315e-07 1.63878e-06 2.6753e-16)
(5.69991e-07 1.55032e-06 9.03932e-16)
(4.71436e-07 1.41446e-06 -1.61447e-16)
(4.01939e-07 1.25368e-06 1.19923e-15)
(3.60786e-07 1.09602e-06 5.01645e-16)
(3.41121e-07 9.89096e-07 -1.66792e-16)
(3.18615e-07 9.10533e-07 -1.35732e-15)
(3.05472e-07 8.69309e-07 -3.62284e-16)
(2.91143e-07 8.2524e-07 5.21662e-16)
(2.65778e-07 8.07263e-07 -8.03854e-16)
(2.00042e-07 7.85077e-07 1.34952e-16)
(1.01158e-07 8.37521e-07 2.69295e-16)
(4.96205e-06 1.6583e-06 -9.97611e-16)
(4.45417e-06 1.76484e-06 -1.96763e-16)
(3.8455e-06 1.88795e-06 1.45625e-16)
(3.36644e-06 1.99833e-06 1.44021e-15)
(2.80084e-06 2.02049e-06 -1.2886e-16)
(2.36323e-06 2.00957e-06 -8.38469e-16)
(1.95789e-06 2.03085e-06 1.59349e-15)
(1.61796e-06 1.92808e-06 5.30195e-16)
(1.32175e-06 1.85538e-06 1.06274e-16)
(1.09183e-06 1.74119e-06 3.03784e-16)
(9.04897e-07 1.6014e-06 -4.85144e-16)
(7.96721e-07 1.51444e-06 -6.72413e-17)
(6.78322e-07 1.42532e-06 -1.9069e-15)
(5.72109e-07 1.31678e-06 -2.87818e-16)
(4.88012e-07 1.1867e-06 2.21566e-16)
(4.29438e-07 1.05867e-06 -4.57907e-16)
(3.8958e-07 9.5581e-07 6.36185e-17)
(3.51501e-07 8.83185e-07 -4.45177e-16)
(3.24658e-07 8.54785e-07 -1.88455e-16)
(2.96483e-07 8.12508e-07 2.8291e-17)
(2.60278e-07 7.90407e-07 -1.03147e-15)
(1.92865e-07 7.58998e-07 -1.56654e-16)
(9.96162e-08 8.03086e-07 -1.50212e-15)
(7.9558e-06 -9.82549e-07 1.20367e-16)
(7.58387e-06 -5.64549e-07 -2.11521e-16)
(7.17404e-06 -1.95195e-07 5.66138e-17)
(6.73788e-06 1.27671e-07 -1.62226e-16)
(6.26495e-06 3.82862e-07 -6.50231e-16)
(5.80781e-06 6.374e-07 2.20259e-16)
(5.30402e-06 7.97888e-07 1.53085e-16)
(4.82531e-06 9.6063e-07 -1.10366e-15)
(4.32537e-06 1.10297e-06 -2.67573e-16)
(3.86613e-06 1.26617e-06 -3.24918e-16)
(3.37838e-06 1.41733e-06 -4.48939e-16)
(2.91396e-06 1.48363e-06 -4.23394e-17)
(2.52011e-06 1.57846e-06 1.17028e-15)
(2.1135e-06 1.59297e-06 6.60856e-16)
(1.76085e-06 1.63042e-06 -2.06317e-16)
(1.48006e-06 1.58462e-06 2.76169e-16)
(1.21398e-06 1.50643e-06 2.98703e-17)
(1.04574e-06 1.426e-06 -8.30268e-17)
(9.10826e-07 1.36273e-06 -3.35768e-17)
(7.87588e-07 1.29896e-06 1.08009e-15)
(6.66954e-07 1.21244e-06 1.17893e-15)
(5.71361e-07 1.10452e-06 4.4184e-17)
(4.97336e-07 9.93658e-07 4.83617e-16)
(4.37637e-07 9.15046e-07 -7.6616e-17)
(3.87456e-07 8.52827e-07 9.60668e-16)
(3.45497e-07 8.26172e-07 6.34036e-16)
(3.04362e-07 7.90246e-07 1.15784e-16)
(2.55989e-07 7.67722e-07 2.16756e-16)
(1.86111e-07 7.27744e-07 1.02915e-15)
(9.67505e-08 7.6688e-07 4.72832e-16)
(5.67883e-06 -3.46541e-06 -1.74714e-17)
(6.07634e-06 -3.64506e-06 -1.88724e-18)
(6.42923e-06 -3.66544e-06 -2.15056e-18)
(6.75282e-06 -3.64897e-06 1.58935e-17)
(7.01895e-06 -3.56564e-06 2.53917e-17)
(7.23849e-06 -3.45437e-06 1.1745e-16)
(7.40104e-06 -3.2456e-06 2.50335e-17)
(7.50347e-06 -3.01401e-06 4.81499e-17)
(7.5442e-06 -2.72669e-06 5.10625e-18)
(7.51232e-06 -2.4353e-06 -2.01818e-16)
(7.42327e-06 -2.1153e-06 -7.92452e-17)
(7.2624e-06 -1.76921e-06 -2.45074e-16)
(7.04775e-06 -1.41124e-06 -2.00376e-16)
(6.77306e-06 -1.07526e-06 -3.52512e-16)
(6.46304e-06 -7.46939e-07 1.52843e-16)
(6.11672e-06 -4.80885e-07 -3.58815e-16)
(5.74654e-06 -2.0661e-07 -4.20558e-17)
(5.37341e-06 4.76492e-09 4.86966e-16)
(4.95416e-06 1.98876e-07 -1.47108e-16)
(4.58761e-06 3.77505e-07 6.30364e-16)
(4.15897e-06 5.65665e-07 -9.12751e-17)
(3.80237e-06 7.18823e-07 -2.34212e-17)
(3.36069e-06 8.80175e-07 1.39112e-16)
(3.00078e-06 1.01918e-06 8.24783e-17)
(2.60703e-06 1.11217e-06 -4.60904e-16)
(2.24724e-06 1.21051e-06 -7.79492e-16)
(1.91847e-06 1.25727e-06 1.73673e-16)
(1.61039e-06 1.29788e-06 -5.15302e-16)
(1.36283e-06 1.28107e-06 -1.48761e-16)
(1.17356e-06 1.23191e-06 3.54886e-17)
(1.02586e-06 1.20016e-06 3.79424e-17)
(8.82726e-07 1.15076e-06 8.91031e-16)
(7.5322e-07 1.08973e-06 -3.64326e-16)
(6.46532e-07 1.01565e-06 5.1984e-16)
(5.60478e-07 9.30161e-07 -6.75766e-16)
(4.85295e-07 8.57805e-07 2.24067e-16)
(4.22087e-07 8.06437e-07 -6.80934e-16)
(3.67481e-07 7.94135e-07 1.0484e-15)
(3.1214e-07 7.61626e-07 9.38499e-16)
(2.53088e-07 7.38075e-07 -1.81504e-17)
(1.79997e-07 6.95381e-07 -1.36187e-16)
(9.30335e-08 7.29141e-07 8.39012e-17)
(-3.55609e-05 2.23886e-05 -1.75115e-17)
(-2.32942e-05 2.04477e-05 1.36802e-17)
(-3.29278e-05 1.28915e-05 -3.83356e-17)
(-1.65338e-05 1.37184e-05 -5.971e-18)
(-3.28767e-05 9.39834e-06 2.98053e-17)
(-2.48779e-05 1.14943e-05 -1.7961e-17)
(-2.40691e-05 1.05952e-05 -4.17212e-17)
(-1.03548e-05 1.17188e-05 1.16905e-17)
(2.47669e-06 1.33908e-05 1.53998e-17)
(1.27174e-05 1.54666e-05 -4.60348e-17)
(2.03969e-05 1.76054e-05 -3.38482e-17)
(2.45467e-05 1.8894e-05 -6.71942e-18)
(2.45358e-05 1.92731e-05 -1.59016e-17)
(1.8985e-05 1.85396e-05 4.95165e-17)
(7.90979e-06 1.67524e-05 5.15883e-17)
(-7.01774e-06 1.41025e-05 -8.08653e-17)
(-2.26367e-05 1.0797e-05 -1.41932e-16)
(-3.55972e-05 7.2497e-06 -2.56433e-17)
(-4.23194e-05 3.25131e-06 3.23782e-17)
(-1.48915e-05 1.73975e-06 -2.36324e-17)
(0.000150658 3.43517e-05 2.10242e-17)
(0.000214294 8.27951e-05 -4.92915e-17)
(-0.000342994 -4.20222e-05 1.20965e-16)
(-0.00011879 -2.93981e-05 -9.95881e-17)
(4.67361e-05 7.44783e-06 -1.44302e-16)
(-2.18448e-07 2.23025e-06 -1.32778e-17)
(-4.02839e-07 1.99011e-06 -1.71584e-18)
(2.6184e-06 1.66983e-06 -8.0879e-17)
(2.23804e-06 7.49121e-07 -8.39611e-18)
(2.52798e-06 1.38606e-07 -3.13472e-17)
(3.03503e-06 -3.3499e-07 1.78896e-17)
(3.36998e-06 -6.36789e-07 1.37511e-16)
(3.7072e-06 -9.15338e-07 1.38777e-17)
(3.93756e-06 -1.15832e-06 6.30448e-17)
(4.25276e-06 -1.45822e-06 -3.02486e-17)
(4.49405e-06 -1.80916e-06 1.26813e-17)
(4.84111e-06 -2.00209e-06 2.63329e-17)
(5.05341e-06 -2.22122e-06 1.45756e-17)
(5.33464e-06 -2.5511e-06 -1.31075e-18)
(5.54001e-06 -2.67434e-06 4.9858e-21)
(5.78048e-06 -2.78886e-06 4.25176e-17)
(5.93746e-06 -2.82238e-06 2.75593e-17)
(6.12034e-06 -2.81922e-06 6.34782e-17)
(6.22169e-06 -2.74057e-06 2.43417e-17)
(6.32278e-06 -2.64106e-06 6.31989e-17)
(6.34533e-06 -2.49833e-06 -9.21364e-17)
(6.35176e-06 -2.33749e-06 -3.25753e-16)
(6.2905e-06 -2.13569e-06 2.58579e-16)
(6.20518e-06 -1.91639e-06 -3.07496e-17)
(6.05268e-06 -1.65256e-06 1.10982e-16)
(5.87195e-06 -1.39682e-06 1.0452e-16)
(5.64985e-06 -1.13339e-06 5.71933e-17)
(5.39662e-06 -8.8453e-07 1.23008e-16)
(5.14014e-06 -6.53418e-07 3.4498e-17)
(4.83872e-06 -4.36762e-07 -1.65829e-16)
(4.56663e-06 -2.53481e-07 -9.43912e-17)
(4.2515e-06 -6.94236e-08 2.33119e-16)
(3.96031e-06 9.24651e-08 2.15781e-17)
(3.6268e-06 2.79147e-07 2.08554e-16)
(3.32672e-06 4.36783e-07 -5.03759e-17)
(2.9845e-06 5.85476e-07 -2.16215e-16)
(2.66435e-06 7.09636e-07 -6.23672e-16)
(2.34838e-06 8.1422e-07 -5.69443e-16)
(2.04572e-06 9.33742e-07 4.37402e-16)
(1.76901e-06 9.92676e-07 -3.18396e-16)
(1.49623e-06 1.02123e-06 1.5453e-16)
(1.29925e-06 1.01413e-06 -2.87186e-16)
(1.13361e-06 1.00671e-06 -2.06874e-16)
(9.80668e-07 9.90775e-07 -5.60397e-16)
(8.43235e-07 9.62564e-07 -5.06379e-16)
(7.19808e-07 9.11993e-07 -9.13035e-16)
(6.17412e-07 8.44162e-07 4.0767e-16)
(5.30038e-07 7.97353e-07 -2.69271e-16)
(4.53275e-07 7.6053e-07 7.43576e-16)
(3.86722e-07 7.49633e-07 2.62327e-16)
(3.19599e-07 7.25054e-07 -5.61152e-17)
(2.52003e-07 7.04378e-07 1.63644e-16)
(1.74715e-07 6.58797e-07 -2.78213e-16)
(8.9436e-08 6.90995e-07 -1.26747e-16)
(-3.61295e-05 2.67725e-05 1.5471e-17)
(-3.35293e-05 2.21751e-05 -1.68927e-17)
(-2.20435e-05 1.29751e-05 -3.54637e-17)
(-1.79341e-05 1.17794e-05 3.16294e-18)
(-1.68994e-05 1.07676e-05 1.7777e-17)
(-1.81702e-05 1.04361e-05 -6.07652e-18)
(-1.90643e-05 9.9672e-06 -4.20724e-18)
(-1.71908e-05 9.44122e-06 -8.26936e-18)
(-1.4233e-05 8.97474e-06 -3.43192e-18)
(-9.22535e-06 9.71281e-06 -1.66271e-17)
(5.27906e-07 1.23552e-05 -2.33099e-17)
(2.03502e-06 1.32282e-05 1.3982e-17)
(6.38119e-06 1.51296e-05 -8.29165e-18)
(8.12956e-06 1.581e-05 -4.66525e-18)
(8.53116e-06 1.59917e-05 1.17079e-17)
(6.01899e-06 1.53627e-05 -4.29144e-17)
(8.50536e-07 1.40004e-05 2.0843e-17)
(-5.77882e-06 1.19475e-05 3.46108e-17)
(-9.91925e-06 9.59792e-06 -4.05519e-17)
(1.03245e-05 1.24552e-05 -4.16971e-17)
(3.32285e-05 2.27835e-05 -4.42425e-17)
(-0.000164157 -1.80216e-05 6.13401e-18)
(-7.54549e-05 -4.04878e-05 3.61487e-17)
(8.88864e-05 4.2112e-06 -5.43162e-17)
(6.10137e-05 6.5622e-06 1.90516e-17)
(7.1037e-06 2.4944e-06 -1.87366e-17)
(4.80981e-06 3.45316e-06 2.28568e-18)
(6.39152e-06 3.79882e-06 -3.89764e-17)
(4.76746e-06 3.13593e-06 1.40016e-17)
(4.05599e-06 2.26106e-06 -1.9551e-17)
(3.9172e-06 1.45572e-06 5.31454e-17)
(3.95262e-06 8.23773e-07 2.50419e-17)
(4.07669e-06 3.8905e-07 -1.93724e-17)
(4.15595e-06 3.55663e-08 -2.47803e-17)
(4.23582e-06 -2.94296e-07 -2.88731e-17)
(4.29257e-06 -6.28438e-07 1.78011e-17)
(4.4006e-06 -9.96477e-07 1.95953e-17)
(4.45338e-06 -1.34081e-06 7.67912e-19)
(4.57893e-06 -1.57181e-06 -1.74155e-17)
(4.67199e-06 -1.81455e-06 1.97818e-18)
(4.78932e-06 -1.9789e-06 -2.24311e-17)
(4.87679e-06 -2.11726e-06 -1.62094e-17)
(4.9775e-06 -2.18359e-06 -1.03033e-17)
(5.04203e-06 -2.23341e-06 -6.21851e-18)
(5.10627e-06 -2.22275e-06 -2.56733e-17)
(5.13244e-06 -2.19171e-06 -1.32901e-17)
(5.15038e-06 -2.10737e-06 1.08771e-16)
(5.1299e-06 -2.00588e-06 1.79307e-16)
(5.09276e-06 -1.85977e-06 1.10018e-16)
(5.01811e-06 -1.70575e-06 5.36236e-17)
(4.91894e-06 -1.51512e-06 -3.6545e-18)
(4.7894e-06 -1.32043e-06 4.34596e-17)
(4.63504e-06 -1.11433e-06 -6.80884e-18)
(4.46236e-06 -9.15364e-07 1.1228e-17)
(4.27173e-06 -7.25454e-07 8.73654e-17)
(4.06897e-06 -5.49312e-07 2.77099e-16)
(3.85724e-06 -3.92534e-07 -4.87247e-16)
(3.63112e-06 -2.21052e-07 7.24748e-17)
(3.40454e-06 -6.509e-08 -1.72208e-16)
(3.14453e-06 9.37872e-08 5.16997e-16)
(2.8944e-06 2.29147e-07 -4.47541e-19)
(2.62454e-06 3.68954e-07 4.14218e-16)
(2.37472e-06 5.0325e-07 6.9729e-16)
(2.11111e-06 6.08933e-07 -3.7781e-16)
(1.84661e-06 7.02543e-07 3.91972e-16)
(1.59976e-06 7.5689e-07 -2.33575e-16)
(1.40309e-06 7.83586e-07 -3.25909e-16)
(1.23461e-06 8.06303e-07 -1.76891e-16)
(1.07815e-06 8.1357e-07 1.11423e-16)
(9.25116e-07 8.11024e-07 8.70957e-16)
(7.9216e-07 7.9228e-07 9.3304e-16)
(6.72115e-07 7.58355e-07 -4.54344e-17)
(5.64256e-07 7.22605e-07 -3.1135e-16)
(4.77022e-07 6.98837e-07 -5.7795e-17)
(4.02021e-07 7.04887e-07 -1.41476e-15)
(3.26191e-07 6.84508e-07 1.53368e-17)
(2.52016e-07 6.65087e-07 -5.91439e-16)
(1.70901e-07 6.21713e-07 -1.24628e-16)
(8.60173e-08 6.51736e-07 1.8108e-16)
(-2.92366e-05 2.50556e-05 -8.97753e-18)
(-2.24906e-05 1.98711e-05 -8.12154e-18)
(-1.42589e-05 1.12748e-05 7.41558e-18)
(-1.19639e-05 9.93808e-06 -8.07599e-19)
(-1.07834e-05 8.00864e-06 -1.58421e-17)
(-1.06537e-05 7.12635e-06 1.07037e-17)
(-1.14072e-05 6.41287e-06 6.22131e-18)
(-1.08764e-05 5.32457e-06 -1.51458e-17)
(-7.99243e-06 2.62914e-06 5.96286e-18)
(-4.29355e-05 1.25595e-05 -9.28613e-18)
(1.28098e-05 8.6313e-06 9.16655e-18)
(-1.91807e-05 3.74918e-06 -9.332e-18)
(-9.65936e-07 8.79085e-06 -2.78503e-17)
(-9.42983e-06 7.57168e-06 3.89452e-18)
(-5.8909e-06 8.74415e-06 1.10949e-17)
(-3.52578e-06 9.1252e-06 -1.17584e-18)
(-6.27723e-07 9.3647e-06 2.23331e-17)
(1.28235e-06 9.18591e-06 -5.00816e-17)
(2.2739e-06 8.89926e-06 -2.77263e-17)
(3.49792e-06 9.49328e-06 1.99453e-18)
(-1.46238e-05 4.32848e-06 -1.53143e-18)
(-4.05023e-05 -9.5064e-06 2.2168e-17)
(7.64758e-06 4.30023e-06 -7.51377e-17)
(6.44677e-06 3.43101e-06 1.34964e-16)
(1.99341e-05 2.88612e-06 1.85138e-17)
(1.60851e-05 4.45008e-06 1.35543e-17)
(5.51543e-06 2.3167e-06 2.36722e-17)
(7.33971e-06 2.46534e-06 4.78768e-17)
(7.39437e-06 2.28446e-06 1.16045e-17)
(6.57057e-06 1.66737e-06 2.33193e-17)
(5.7551e-06 9.79254e-07 -1.57452e-17)
(5.17817e-06 3.94461e-07 -5.03634e-17)
(4.84128e-06 -9.73885e-09 2.22749e-18)
(4.67016e-06 -2.90519e-07 1.27149e-17)
(4.51803e-06 -5.0473e-07 3.98966e-17)
(4.40326e-06 -7.18489e-07 -2.15369e-17)
(4.27396e-06 -9.24141e-07 2.14258e-18)
(4.205e-06 -1.14709e-06 -2.09671e-17)
(4.1286e-06 -1.3429e-06 1.0858e-17)
(4.09478e-06 -1.51313e-06 -2.58036e-19)
(4.06246e-06 -1.63523e-06 -9.49255e-18)
(4.06153e-06 -1.73505e-06 -6.48356e-18)
(4.05724e-06 -1.79318e-06 3.98048e-19)
(4.07283e-06 -1.83618e-06 -8.84528e-18)
(4.08137e-06 -1.84549e-06 -5.07791e-18)
(4.09941e-06 -1.8452e-06 5.07604e-17)
(4.10586e-06 -1.81198e-06 2.68516e-17)
(4.10953e-06 -1.76437e-06 -6.16951e-17)
(4.0971e-06 -1.68556e-06 3.2864e-17)
(4.07206e-06 -1.58518e-06 1.40202e-17)
(4.0287e-06 -1.4595e-06 6.48571e-17)
(3.96463e-06 -1.3235e-06 -1.51652e-16)
(3.88396e-06 -1.17188e-06 9.97288e-18)
(3.78071e-06 -1.0145e-06 1.50209e-17)
(3.66356e-06 -8.61857e-07 7.30426e-17)
(3.52877e-06 -7.12558e-07 -8.39775e-17)
(3.3848e-06 -5.68619e-07 1.70406e-16)
(3.23055e-06 -4.27611e-07 6.88838e-17)
(3.05611e-06 -2.87613e-07 -1.00134e-16)
(2.8783e-06 -1.54518e-07 1.41113e-16)
(2.67933e-06 -1.31862e-08 3.42889e-17)
(2.49049e-06 1.1589e-07 5.54325e-16)
(2.27538e-06 2.38535e-07 -1.17229e-18)
(2.06538e-06 3.54977e-07 -3.24975e-16)
(1.84496e-06 4.47475e-07 5.01667e-16)
(1.6309e-06 5.25512e-07 3.67919e-18)
(1.4554e-06 5.6442e-07 -2.66867e-16)
(1.29603e-06 6.01138e-07 1.79639e-16)
(1.14251e-06 6.30622e-07 -5.48699e-17)
(9.92073e-07 6.57145e-07 3.90355e-16)
(8.45419e-07 6.63523e-07 2.1399e-17)
(7.06255e-07 6.42823e-07 -3.20068e-17)
(5.90898e-07 6.41175e-07 2.9037e-16)
(4.92624e-07 6.42334e-07 -1.81354e-18)
(4.10599e-07 6.50456e-07 -6.68032e-17)
(3.30617e-07 6.38322e-07 -1.09654e-16)
(2.51258e-07 6.23631e-07 -3.59857e-16)
(1.67452e-07 5.80542e-07 2.32566e-16)
(8.24375e-08 6.12219e-07 -3.41119e-16)
(-1.55881e-05 1.78879e-05 8.71041e-18)
(-9.06454e-06 1.3112e-05 4.41154e-18)
(-3.97456e-06 6.31591e-06 -1.27147e-17)
(-3.38523e-06 4.81355e-06 -1.3006e-17)
(-2.63755e-06 2.77424e-06 1.70481e-17)
(-2.08075e-06 1.80858e-06 -1.03028e-17)
(-1.02346e-06 1.3546e-06 6.75785e-18)
(1.57189e-05 9.42609e-07 2.27004e-17)
(0.000227611 6.55008e-07 -5.35701e-18)
(-0.000192412 -2.93698e-06 4.02375e-18)
(-3.45898e-06 1.46535e-05 -2.04485e-18)
(-8.75565e-05 -1.71148e-05 3.06644e-18)
(3.80373e-05 6.53225e-06 1.72372e-17)
(-3.57845e-05 -3.18404e-06 -6.90666e-18)
(-1.50021e-05 7.21129e-07 -4.67226e-17)
(-1.84832e-05 9.71106e-07 -1.85649e-17)
(-1.41702e-05 1.86455e-06 -1.9842e-17)
(-9.46913e-06 2.51104e-06 1.89728e-18)
(-4.12502e-06 3.01186e-06 1.64513e-17)
(1.13943e-06 3.06421e-06 -7.02433e-18)
(1.24845e-05 3.08039e-06 2.54436e-17)
(4.45588e-05 9.43e-06 -4.14434e-17)
(8.22834e-06 5.82738e-06 7.03396e-17)
(-3.00406e-05 -6.32378e-06 -6.20305e-17)
(2.02765e-06 -1.42173e-06 -6.61775e-17)
(1.47363e-05 9.15599e-07 -2.12783e-17)
(3.90854e-06 -5.28323e-07 -7.68604e-18)
(3.03867e-06 -9.34277e-07 -6.10707e-18)
(5.27918e-06 -7.5569e-07 3.54608e-18)
(6.29014e-06 -7.89748e-07 -1.50709e-17)
(6.34131e-06 -9.8376e-07 -3.93133e-18)
(5.81587e-06 -1.2474e-06 3.74116e-17)
(5.22549e-06 -1.44994e-06 2.17168e-17)
(4.79135e-06 -1.5391e-06 5.65969e-18)
(4.50476e-06 -1.53452e-06 -7.04259e-17)
(4.29428e-06 -1.50788e-06 2.32013e-18)
(4.11833e-06 -1.5041e-06 -1.25221e-19)
(3.95939e-06 -1.53422e-06 2.11018e-18)
(3.82094e-06 -1.57099e-06 1.07938e-17)
(3.70328e-06 -1.60708e-06 2.22269e-18)
(3.60624e-06 -1.62117e-06 -7.26933e-18)
(3.5284e-06 -1.63298e-06 -6.64452e-18)
(3.46897e-06 -1.6258e-06 -1.58086e-17)
(3.42434e-06 -1.62452e-06 -3.74443e-18)
(3.39474e-06 -1.60644e-06 -2.92452e-18)
(3.37467e-06 -1.58843e-06 -1.62897e-17)
(3.36355e-06 -1.55452e-06 8.55831e-18)
(3.35438e-06 -1.51782e-06 -1.95214e-17)
(3.34612e-06 -1.46141e-06 -1.19937e-16)
(3.33171e-06 -1.40212e-06 8.39569e-17)
(3.31011e-06 -1.32232e-06 3.13561e-17)
(3.27639e-06 -1.22969e-06 -1.21251e-18)
(3.23046e-06 -1.12414e-06 1.51428e-17)
(3.17007e-06 -1.0141e-06 2.37746e-17)
(3.0963e-06 -8.96893e-07 -3.12983e-16)
(3.0102e-06 -7.79601e-07 -7.30056e-19)
(2.91229e-06 -6.63909e-07 5.12746e-17)
(2.80381e-06 -5.45571e-07 -2.57899e-17)
(2.68488e-06 -4.27004e-07 1.44209e-16)
(2.55546e-06 -3.06214e-07 -6.93683e-16)
(2.42042e-06 -1.878e-07 2.00758e-16)
(2.26749e-06 -6.63975e-08 1.2048e-16)
(2.11431e-06 4.76571e-08 -8.05138e-16)
(1.94525e-06 1.52515e-07 3.44096e-16)
(1.77139e-06 2.47155e-07 -3.09713e-16)
(1.59723e-06 3.27278e-07 8.08312e-17)
(1.44396e-06 3.75347e-07 -1.95273e-16)
(1.30656e-06 4.17612e-07 2.04209e-16)
(1.16712e-06 4.59572e-07 1.47462e-16)
(1.02075e-06 4.93722e-07 -2.18771e-16)
(8.72636e-07 5.14119e-07 -3.43039e-16)
(7.35264e-07 5.33416e-07 -2.10696e-17)
(6.16939e-07 5.47967e-07 -4.79778e-16)
(5.08083e-07 5.65112e-07 -8.80617e-17)
(4.18744e-07 5.97052e-07 1.054e-15)
(3.3233e-07 5.90207e-07 -2.66504e-16)
(2.48825e-07 5.77426e-07 8.22864e-16)
(1.62839e-07 5.39789e-07 -6.15664e-16)
(7.75367e-08 5.71871e-07 2.54884e-16)
(1.13051e-06 6.66535e-06 -7.3205e-18)
(5.6544e-06 3.67494e-06 1.28217e-18)
(6.07032e-06 5.18836e-07 -1.95508e-18)
(5.36304e-06 -2.48627e-07 -5.79602e-18)
(5.0672e-06 -1.9276e-06 -1.81558e-17)
(4.9372e-06 -2.80937e-06 8.15808e-18)
(4.75601e-06 -3.0521e-06 2.43826e-18)
(3.76155e-06 -3.0425e-06 -1.87066e-17)
(-2.34686e-05 -4.09322e-06 3.65419e-18)
(2.28869e-06 -1.19581e-05 1.28726e-18)
(2.68282e-06 -4.77021e-06 2.86499e-18)
(2.25074e-05 -3.06564e-06 -1.32624e-18)
(-9.50684e-06 -1.85405e-06 -9.71939e-18)
(5.3692e-06 -1.75774e-06 -4.17474e-18)
(-1.95869e-05 -4.83031e-06 8.25355e-18)
(-1.49866e-05 -2.46414e-06 1.51333e-17)
(-2.10686e-05 -3.28628e-06 3.81655e-18)
(-1.86335e-05 -2.70738e-06 1.18448e-17)
(-1.45534e-05 -2.3663e-06 -2.26647e-17)
(-7.70844e-06 -1.74455e-06 6.80691e-18)
(9.38806e-07 -5.06279e-07 1.30009e-17)
(3.38292e-06 -3.8882e-07 2.73918e-17)
(5.51779e-06 -3.80567e-06 -2.71621e-17)
(1.0157e-05 -4.05698e-06 -6.04772e-17)
(2.07865e-05 -1.36976e-06 4.27799e-17)
(2.33685e-05 2.96861e-07 2.02239e-17)
(1.13929e-05 -7.48053e-07 1.94495e-18)
(3.6082e-06 -1.89572e-06 -2.86959e-18)
(2.00674e-06 -2.30372e-06 4.90212e-18)
(2.81818e-06 -2.42691e-06 1.61385e-17)
(4.14343e-06 -2.4851e-06 -3.42504e-19)
(4.82005e-06 -2.55934e-06 -2.45272e-17)
(4.79702e-06 -2.59615e-06 -3.44364e-17)
(4.46909e-06 -2.55892e-06 -2.31355e-17)
(4.14902e-06 -2.43235e-06 5.31904e-17)
(3.88955e-06 -2.27276e-06 1.68628e-17)
(3.6991e-06 -2.11438e-06 -8.39688e-18)
(3.54788e-06 -1.99374e-06 -1.29455e-18)
(3.41556e-06 -1.8982e-06 1.11972e-18)
(3.29578e-06 -1.82729e-06 -5.73184e-18)
(3.18309e-06 -1.75541e-06 -6.02663e-18)
(3.08316e-06 -1.68474e-06 3.91246e-18)
(2.99449e-06 -1.60603e-06 1.86975e-18)
(2.92076e-06 -1.53416e-06 1.91105e-18)
(2.85849e-06 -1.46337e-06 -9.19991e-18)
(2.80736e-06 -1.41074e-06 -6.20427e-18)
(2.76463e-06 -1.35642e-06 5.53134e-17)
(2.72766e-06 -1.31495e-06 -8.49106e-18)
(2.69524e-06 -1.26759e-06 7.27752e-18)
(2.66384e-06 -1.21978e-06 -7.25773e-17)
(2.63291e-06 -1.16047e-06 -4.06287e-18)
(2.59789e-06 -1.09979e-06 -2.32877e-17)
(2.56042e-06 -1.02528e-06 7.36008e-17)
(2.51681e-06 -9.43514e-07 3.76534e-18)
(2.46832e-06 -8.57812e-07 -2.01351e-16)
(2.41282e-06 -7.68028e-07 9.98184e-17)
(2.3511e-06 -6.74812e-07 -1.07637e-17)
(2.28321e-06 -5.79263e-07 -1.40938e-16)
(2.20668e-06 -4.8142e-07 1.39832e-16)
(2.12343e-06 -3.80328e-07 1.96054e-16)
(2.03053e-06 -2.78e-07 2.22777e-16)
(1.92986e-06 -1.74609e-07 -6.48526e-17)
(1.81865e-06 -7.57647e-08 2.0169e-16)
(1.69777e-06 1.6804e-08 -3.05805e-16)
(1.5696e-06 1.02413e-07 3.08945e-17)
(1.43512e-06 1.81012e-07 -1.28289e-16)
(1.31805e-06 2.2634e-07 4.28151e-16)
(1.20453e-06 2.67676e-07 1.15588e-17)
(1.09291e-06 3.0466e-07 1.74912e-18)
(9.72649e-07 3.48289e-07 -3.62057e-16)
(8.46279e-07 3.85251e-07 1.26634e-16)
(7.28958e-07 4.08e-07 8.95281e-17)
(6.10773e-07 4.49793e-07 5.12767e-16)
(5.14633e-07 4.8738e-07 1.1585e-16)
(4.13972e-07 5.2698e-07 -1.08906e-15)
(3.22057e-07 5.32747e-07 -2.84458e-16)
(2.38176e-07 5.28478e-07 -1.41966e-16)
(1.52951e-07 4.94709e-07 1.9399e-16)
(7.08528e-08 5.32498e-07 3.55136e-16)
(1.43903e-05 -3.95689e-06 -4.31912e-18)
(1.51714e-05 -5.22809e-06 -3.26212e-18)
(1.06579e-05 -5.09916e-06 9.2643e-18)
(9.33255e-06 -4.83788e-06 2.76987e-18)
(8.37766e-06 -5.61082e-06 -5.17836e-18)
(7.60916e-06 -6.10884e-06 -1.67395e-17)
(7.05618e-06 -6.26695e-06 -7.5953e-18)
(6.99846e-06 -6.0821e-06 1.33023e-17)
(8.42567e-06 -5.82869e-06 -8.53146e-18)
(1.19861e-06 -4.96355e-06 -1.11045e-17)
(7.1273e-06 -4.75231e-06 4.241e-18)
(0.000102008 -4.91949e-06 9.34458e-20)
(-7.71606e-05 -4.91346e-06 8.4233e-18)
(1.22424e-05 2.62229e-06 -4.33304e-18)
(-4.02672e-05 -1.22297e-05 -1.52271e-18)
(2.1105e-05 -5.2073e-07 1.99285e-17)
(-2.42425e-05 -6.64771e-06 3.48953e-17)
(-1.30406e-05 -4.47051e-06 -1.08185e-17)
(-1.67911e-05 -4.87413e-06 3.77947e-18)
(-1.36745e-05 -4.36407e-06 1.15127e-17)
(-9.64865e-06 -3.91263e-06 2.06495e-18)
(-3.88465e-06 -3.61714e-06 3.76932e-18)
(2.35203e-06 -3.35643e-06 5.94151e-18)
(7.5943e-06 -3.10396e-06 5.68109e-17)
(1.32844e-05 -1.85528e-06 2.01904e-17)
(1.72253e-05 -7.03314e-07 -4.374e-19)
(1.44377e-05 -6.497e-07 9.064e-18)
(8.94603e-06 -1.15325e-06 1.20113e-18)
(4.40807e-06 -1.68634e-06 1.41973e-17)
(1.72229e-06 -2.12184e-06 -1.93275e-18)
(1.18246e-06 -2.37708e-06 -2.46176e-17)
(1.82088e-06 -2.48399e-06 -2.72973e-17)
(2.50187e-06 -2.49614e-06 1.8165e-17)
(2.65864e-06 -2.50919e-06 8.53089e-18)
(2.874e-06 -2.42431e-06 -2.91674e-18)
(2.70711e-06 -2.29357e-06 -3.01201e-18)
(2.59673e-06 -2.11316e-06 8.39869e-18)
(2.47834e-06 -1.96035e-06 8.83915e-18)
(2.39153e-06 -1.84115e-06 -8.44741e-18)
(2.31456e-06 -1.75394e-06 8.77022e-18)
(2.2457e-06 -1.66893e-06 1.29255e-17)
(2.18069e-06 -1.58338e-06 6.61122e-18)
(2.11693e-06 -1.49322e-06 -4.98461e-18)
(2.054e-06 -1.4138e-06 -1.87308e-18)
(1.9936e-06 -1.33857e-06 -6.03823e-18)
(1.93678e-06 -1.27318e-06 1.63858e-17)
(1.88564e-06 -1.20882e-06 3.21944e-17)
(1.83792e-06 -1.14981e-06 -1.61346e-17)
(1.79675e-06 -1.09028e-06 1.66029e-17)
(1.75813e-06 -1.03904e-06 2.05211e-17)
(1.72604e-06 -9.80724e-07 2.91292e-17)
(1.69557e-06 -9.17225e-07 3.75346e-17)
(1.67026e-06 -8.47733e-07 -1.41534e-18)
(1.644e-06 -7.77581e-07 2.11189e-17)
(1.62012e-06 -7.0453e-07 8.46237e-17)
(1.59418e-06 -6.32386e-07 -2.88218e-17)
(1.56703e-06 -5.58506e-07 -9.74017e-18)
(1.53681e-06 -4.8265e-07 1.52077e-16)
(1.50259e-06 -4.05532e-07 5.02409e-19)
(1.46495e-06 -3.26659e-07 1.2292e-16)
(1.41978e-06 -2.4713e-07 -3.38057e-16)
(1.37044e-06 -1.66647e-07 -1.05922e-16)
(1.31091e-06 -9.00782e-08 -2.16665e-17)
(1.2464e-06 -1.77043e-08 -2.08691e-16)
(1.17279e-06 5.05188e-08 9.67899e-17)
(1.09517e-06 1.14011e-07 6.35257e-17)
(1.0297e-06 1.54276e-07 -5.86235e-18)
(9.56157e-07 1.88047e-07 -1.60237e-16)
(8.91289e-07 2.27228e-07 -8.82238e-17)
(8.11089e-07 2.56972e-07 8.91937e-17)
(7.28825e-07 2.89261e-07 -5.30538e-17)
(6.42052e-07 3.263e-07 -4.10599e-17)
(5.6063e-07 3.66604e-07 5.36258e-16)
(4.70976e-07 4.07951e-07 7.81894e-17)
(3.84704e-07 4.5635e-07 3.72243e-16)
(2.99203e-07 4.73254e-07 4.27196e-16)
(2.21878e-07 4.79424e-07 6.33064e-17)
(1.44798e-07 4.51489e-07 2.74053e-16)
(6.80071e-08 4.92747e-07 8.45756e-17)
(1.67515e-05 -1.36244e-05 -2.50626e-19)
(1.4019e-05 -1.33612e-05 -1.18084e-18)
(8.11837e-06 -1.05802e-05 -1.29208e-18)
(7.05188e-06 -9.1189e-06 -1.61016e-18)
(6.16864e-06 -8.66129e-06 7.39514e-18)
(5.42029e-06 -8.37129e-06 1.50578e-17)
(4.85446e-06 -8.21914e-06 1.04075e-17)
(4.51685e-06 -7.93315e-06 -4.59867e-18)
(4.14916e-06 -7.4721e-06 5.16864e-18)
(3.27545e-06 -6.9895e-06 1.59291e-17)
(3.39329e-06 -6.1471e-06 -5.8982e-18)
(-5.47749e-06 -5.7466e-06 2.18654e-18)
(3.69027e-06 -7.72977e-06 6.87003e-18)
(4.07949e-06 -5.40703e-06 5.05364e-18)
(7.05297e-06 -3.82577e-06 6.26273e-19)
(6.09054e-06 -4.32164e-06 2.23344e-18)
(4.8794e-07 -4.27924e-06 -8.97116e-18)
(-3.25459e-06 -4.19859e-06 9.39091e-18)
(-7.89758e-06 -4.38391e-06 9.47055e-18)
(-1.00022e-05 -4.43512e-06 -9.5448e-18)
(-1.04272e-05 -4.45923e-06 -9.62087e-19)
(-8.44945e-06 -4.27636e-06 3.42016e-18)
(-4.714e-06 -3.97867e-06 -9.63776e-18)
(-4.363e-07 -3.70474e-06 -3.93216e-17)
(4.54716e-06 -3.11632e-06 -3.34733e-17)
(9.81034e-06 -2.3073e-06 1.88587e-17)
(1.26911e-05 -1.73746e-06 -1.38514e-19)
(1.24017e-05 -1.54836e-06 3.41004e-18)
(9.95274e-06 -1.63591e-06 -2.71281e-17)
(6.32517e-06 -1.91365e-06 -3.44513e-17)
(3.15509e-06 -2.21778e-06 -1.58428e-18)
(1.78954e-06 -2.2396e-06 4.50874e-17)
(1.62185e-06 -1.7716e-06 -1.78426e-17)
(-1.20596e-06 -2.73942e-06 -1.29085e-17)
(2.78503e-06 -2.69513e-06 -2.48538e-18)
(1.55191e-06 -2.71633e-06 6.1356e-18)
(1.96453e-06 -2.44897e-06 -7.88357e-18)
(1.91213e-06 -2.27292e-06 -4.54498e-19)
(1.88353e-06 -2.08715e-06 5.0186e-18)
(1.82244e-06 -1.9567e-06 -2.26548e-19)
(1.77996e-06 -1.85518e-06 6.24633e-18)
(1.73485e-06 -1.77315e-06 -3.38725e-19)
(1.68702e-06 -1.68879e-06 3.30685e-18)
(1.63709e-06 -1.59816e-06 -4.79895e-19)
(1.58751e-06 -1.49691e-06 6.10526e-18)
(1.53836e-06 -1.39739e-06 -2.2599e-19)
(1.4936e-06 -1.29891e-06 -1.81396e-17)
(1.45117e-06 -1.21265e-06 -1.18396e-17)
(1.41516e-06 -1.12557e-06 -4.06856e-18)
(1.38281e-06 -1.04073e-06 2.26866e-17)
(1.3592e-06 -9.52251e-07 5.45062e-17)
(1.33799e-06 -8.73525e-07 -2.83222e-18)
(1.32342e-06 -7.92197e-07 -3.15051e-17)
(1.30909e-06 -7.18464e-07 2.11631e-17)
(1.29966e-06 -6.4445e-07 4.56264e-17)
(1.28912e-06 -5.74154e-07 -5.9171e-17)
(1.28182e-06 -5.024e-07 9.77891e-17)
(1.27211e-06 -4.33672e-07 5.16426e-17)
(1.26184e-06 -3.63232e-07 1.26367e-17)
(1.24793e-06 -2.9281e-07 1.82656e-16)
(1.22912e-06 -2.21351e-07 7.42594e-17)
(1.20547e-06 -1.50399e-07 -1.63562e-16)
(1.17211e-06 -8.28687e-08 1.63341e-16)
(1.13402e-06 -1.88664e-08 1.11085e-16)
(1.08495e-06 4.19387e-08 -1.69018e-16)
(1.03328e-06 1.00509e-07 2.13736e-17)
(9.72485e-07 1.31937e-07 -6.06085e-17)
(9.27426e-07 1.71752e-07 -1.39932e-16)
(8.78236e-07 1.94887e-07 -6.27143e-17)
(8.16533e-07 2.25248e-07 3.12428e-17)
(7.54766e-07 2.57062e-07 8.91033e-17)
(6.7725e-07 2.85594e-07 -9.96265e-17)
(6.00111e-07 3.30088e-07 -4.09946e-16)
(5.10059e-07 3.73882e-07 -1.06302e-16)
(4.21924e-07 4.23822e-07 1.96599e-16)
(3.26185e-07 4.46348e-07 -2.16243e-16)
(2.4158e-07 4.52194e-07 -3.47907e-16)
(1.58582e-07 4.20062e-07 -2.05662e-16)
(7.59834e-08 4.52719e-07 -3.34944e-16)
(7.16313e-06 -1.2356e-05 1.08094e-18)
(3.84377e-06 -1.20518e-05 5.43612e-18)
(8.49721e-07 -9.67057e-06 -6.39445e-19)
(6.62686e-07 -8.21642e-06 -2.31903e-18)
(4.21878e-07 -7.3103e-06 -4.47251e-18)
(2.27946e-07 -6.60053e-06 -5.83448e-18)
(1.21646e-07 -6.23631e-06 -5.50392e-18)
(1.29226e-07 -6.00364e-06 -4.19306e-18)
(2.49806e-07 -5.74551e-06 -2.30855e-18)
(2.56398e-07 -5.32472e-06 8.95886e-19)
(6.61376e-07 -4.78607e-06 1.00326e-17)
(2.2508e-06 -4.29423e-06 5.95599e-19)
(-1.10553e-06 -3.65346e-06 -5.61091e-19)
(8.61213e-07 -3.17555e-06 -8.5093e-18)
(7.21523e-07 -3.23024e-06 4.50311e-19)
(2.56431e-06 -2.75446e-06 -1.84394e-18)
(2.12218e-06 -2.59078e-06 -1.32335e-17)
(2.14237e-06 -2.34945e-06 -3.80933e-18)
(8.33756e-08 -2.34588e-06 -6.20785e-19)
(-2.18e-06 -2.42258e-06 6.34963e-18)
(-4.39804e-06 -2.63294e-06 5.09653e-18)
(-5.65574e-06 -2.86251e-06 -5.21093e-18)
(-5.52792e-06 -3.10015e-06 -9.70963e-18)
(-3.9149e-06 -3.17824e-06 -9.84442e-18)
(-9.88257e-07 -3.07403e-06 2.48248e-17)
(2.79174e-06 -2.68517e-06 3.36769e-18)
(6.33817e-06 -2.21238e-06 -2.65459e-17)
(8.7481e-06 -1.80405e-06 -8.65329e-18)
(9.60225e-06 -1.51812e-06 4.22236e-18)
(9.02855e-06 -1.32857e-06 2.2171e-17)
(9.01839e-06 -8.45704e-07 3.34201e-17)
(1.50367e-05 1.1261e-06 -1.69478e-17)
(1.71026e-05 1.97716e-06 8.29821e-18)
(-5.69454e-05 -1.4583e-05 2.63878e-17)
(3.20596e-05 4.37897e-07 1.49507e-17)