/*--------------------------------*- C++ -*----------------------------------*\
| =========                 |                                                 |
| \\      /  F ield         | OpenFOAM: The Open Source CFD Toolbox           |
|  \\    /   O peration     | Version:  2306                                  |
|   \\  /    A nd           | Website:  www.openfoam.com                      |
|    \\/     M anipulation  |                                                 |
\*---------------------------------------------------------------------------*/
FoamFile
{
    version     2.0;
    format      ascii;
    arch        "LSB;label=32;scalar=64";
    class       volSymmTensorField;
    location    "850";
    object      turbulenceProperties:devReff;
}
// * * * * * * * * * * * * * * * * * * * * * * * * * * * * * * * * * * * * * //

dimensions      [0 2 -2 0 0 0 0];

internalField   nonuniform List<symmTensor> 
1340
(
(1.51568e-07 3.94319e-08 -6.5253e-20 -2.16656e-07 -6.69224e-21 6.50879e-08)
(-1.07023e-07 -3.13007e-08 -6.43282e-20 1.62262e-07 -8.10173e-21 -5.52388e-08)
(1.5554e-07 4.35079e-08 3.39364e-20 -2.19593e-07 3.37365e-21 6.40528e-08)
(1.0221e-07 6.49889e-08 3.4538e-19 -1.47565e-07 3.8311e-20 4.53554e-08)
(-9.25693e-08 -3.37645e-08 8.53844e-23 1.52867e-07 -2.99042e-22 -6.02982e-08)
(1.43136e-07 5.17129e-08 -7.5952e-22 -2.14832e-07 1.79413e-22 7.16961e-08)
(-1.62352e-08 2.84923e-08 -1.75616e-19 4.88113e-08 -2.08148e-20 -3.25761e-08)
(9.9609e-08 6.0755e-08 5.64175e-21 -1.46633e-07 1.17726e-21 4.70242e-08)
(-8.39661e-08 -3.49504e-08 7.68616e-20 1.46637e-07 9.50337e-21 -6.26705e-08)
(1.37846e-07 5.57718e-08 -1.54177e-19 -2.13123e-07 -1.58505e-20 7.52768e-08)
(2.98855e-08 4.90591e-08 -4.19252e-19 -1.51924e-08 -4.85475e-20 -1.46931e-08)
(7.13494e-08 5.93795e-08 -2.29483e-19 -9.37005e-08 -2.54224e-20 2.23511e-08)
(-1.42973e-08 2.81719e-08 7.75136e-20 4.7217e-08 9.12895e-21 -3.29198e-08)
(9.9605e-08 5.573e-08 -1.14383e-19 -1.46909e-07 -1.2715e-20 4.73038e-08)
(-7.94145e-08 -3.48021e-08 -3.23855e-19 1.42545e-07 -4.00646e-20 -6.31301e-08)
(1.3792e-07 5.75354e-08 1.48008e-19 -2.13981e-07 1.48771e-20 7.60611e-08)
(5.94311e-08 6.01895e-08 6.19689e-20 -5.3391e-08 7.13148e-21 -6.04007e-09)
(6.91775e-08 6.19027e-08 -1.65701e-20 -7.87268e-08 -1.9678e-21 9.54933e-09)
(3.04715e-08 4.65704e-08 1.61284e-21 -1.5553e-08 -2.95638e-22 -1.49185e-08)
(7.20501e-08 5.44424e-08 7.68316e-22 -9.45513e-08 -1.15872e-22 2.25011e-08)
(-1.25731e-08 2.78112e-08 5.4535e-20 4.57294e-08 6.55779e-21 -3.31563e-08)
(9.95121e-08 5.08401e-08 -5.77898e-21 -1.47123e-07 -8.98146e-22 4.7611e-08)
(-7.51757e-08 -3.46442e-08 1.95204e-22 1.38945e-07 -1.68208e-23 -6.37697e-08)
(1.37724e-07 5.91185e-08 -5.62022e-22 -2.14801e-07 1.33585e-22 7.70767e-08)
(9.50688e-08 6.72715e-08 -1.39452e-19 -9.63939e-08 -1.61978e-20 1.32506e-09)
(8.18307e-08 6.34802e-08 -1.77821e-19 -7.95627e-08 -2.02186e-20 -2.26794e-09)
(7.925e-08 6.27941e-08 -2.22728e-19 -8.29864e-08 -2.48417e-20 3.73636e-09)
(5.91373e-08 5.58369e-08 -9.05326e-20 -5.29942e-08 -9.834e-21 -6.1431e-09)
(6.94243e-08 5.70207e-08 1.0061e-20 -7.91537e-08 1.47871e-21 9.72943e-09)
(3.09e-08 4.40099e-08 1.70521e-19 -1.58166e-08 1.96321e-20 -1.50833e-08)
(7.236e-08 4.96649e-08 3.53624e-20 -9.51027e-08 3.71622e-21 2.27427e-08)
(-1.07619e-08 2.72034e-08 -1.22266e-19 4.42428e-08 -1.42992e-20 -3.34809e-08)
(9.89004e-08 4.64133e-08 1.0973e-19 -1.4712e-07 1.20871e-20 4.82198e-08)
(-7.07626e-08 -3.48335e-08 1.81484e-22 1.35623e-07 -1.13087e-22 -6.48604e-08)
(1.36402e-07 6.05839e-08 2.78032e-22 -2.15181e-07 -6.18801e-23 7.87789e-08)
(1.20992e-07 6.0422e-08 -3.29546e-20 -1.20839e-07 -3.1542e-21 -1.52733e-10)
(1.10596e-07 6.1644e-08 1.63746e-19 -1.11118e-07 1.80378e-20 5.22292e-10)
(9.99467e-08 6.10953e-08 1.90363e-20 -9.90758e-08 1.88846e-21 -8.70912e-10)
(9.33357e-08 6.06385e-08 1.09703e-19 -9.47466e-08 1.20823e-20 1.41088e-09)
(8.04696e-08 5.76667e-08 4.45302e-22 -7.81604e-08 -3.36694e-22 -2.30925e-09)
(7.85427e-08 5.72264e-08 9.6426e-22 -8.23972e-08 -6.31059e-23 3.85457e-09)
(5.86272e-08 5.14843e-08 7.58643e-20 -5.23919e-08 8.51413e-21 -6.23525e-09)
(6.94022e-08 5.21825e-08 -9.58466e-21 -7.92873e-08 -1.18421e-21 9.88513e-09)
(3.12363e-08 4.1351e-08 -7.9249e-22 -1.59987e-08 2.03979e-22 -1.52376e-08)
(7.24706e-08 4.50342e-08 -1.61986e-22 -9.54522e-08 5.44604e-23 2.29816e-08)
(-9.01484e-09 2.63678e-08 3.51007e-22 4.28465e-08 -6.85473e-23 -3.38316e-08)
(9.82176e-08 4.23032e-08 -5.96624e-22 -1.47112e-07 1.58002e-22 4.8894e-08)
(-6.68494e-08 -3.52079e-08 2.79626e-19 1.32884e-07 3.49042e-20 -6.60347e-08)
(1.34995e-07 6.14709e-08 7.50858e-20 -2.15539e-07 7.63314e-21 8.05437e-08)
(1.68219e-07 3.34078e-08 -9.0633e-20 -1.68211e-07 -9.34993e-21 -7.96688e-12)
(1.54588e-07 4.05693e-08 6.70792e-20 -1.5459e-07 7.46115e-21 2.22609e-12)
(1.4139e-07 4.58675e-08 3.38681e-20 -1.41368e-07 3.36554e-21 -2.2569e-11)
(1.28823e-07 4.94553e-08 -1.25779e-20 -1.2887e-07 -1.48988e-21 4.73227e-11)
(1.16586e-07 5.21363e-08 1.82046e-22 -1.16413e-07 -2.15752e-23 -1.73194e-10)
(1.07136e-07 5.39835e-08 -6.18772e-22 -1.07671e-07 1.1621e-22 5.35343e-10)
(9.71143e-08 5.4117e-08 -6.97202e-23 -9.62058e-08 -2.83063e-22 -9.08514e-10)
(9.12168e-08 5.41807e-08 -1.1956e-19 -9.26672e-08 -1.32312e-20 1.45042e-09)
(7.88007e-08 5.19736e-08 -5.71172e-20 -7.64269e-08 -5.96844e-21 -2.37381e-09)
(7.75294e-08 5.17399e-08 7.15461e-20 -8.14576e-08 8.05527e-21 3.92825e-09)
(5.79217e-08 4.71483e-08 -7.2213e-20 -5.15896e-08 -8.26868e-21 -6.33204e-09)
(6.91484e-08 4.74002e-08 2.89903e-23 -7.91444e-08 -7.41411e-23 9.99598e-09)
(3.14577e-08 3.86174e-08 -1.54216e-19 -1.60789e-08 -1.77897e-20 -1.53788e-08)
(7.2446e-08 4.05254e-08 -3.19509e-20 -9.56183e-08 -3.37575e-21 2.31723e-08)
(-7.4583e-09 2.53668e-08 6.32656e-20 4.16133e-08 7.40974e-21 -3.4155e-08)
(9.76336e-08 3.83695e-08 -9.95011e-20 -1.47147e-07 -1.09858e-20 4.95138e-08)
(-6.3625e-08 -3.56386e-08 -2.36008e-19 1.3076e-07 -2.93373e-20 -6.71352e-08)
(1.34055e-07 6.16934e-08 -9.59624e-20 -2.16245e-07 -9.53812e-21 8.219e-08)
(2.13478e-07 -3.87801e-08 -8.44697e-20 -2.13454e-07 -8.56017e-21 -2.42818e-11)
(2.03146e-07 -2.31964e-08 -1.27383e-20 -2.03121e-07 -9.68456e-22 -2.46664e-11)
(1.9216e-07 -9.15693e-09 -1.3212e-20 -1.92134e-07 -1.33472e-21 -2.60892e-11)
(1.80706e-07 3.33814e-09 -2.05104e-20 -1.80682e-07 -1.98726e-21 -2.45864e-11)
(1.68959e-07 1.42763e-08 -4.02211e-21 -1.68937e-07 -1.46415e-22 -2.23617e-11)
(1.57101e-07 2.35747e-08 5.73315e-20 -1.57076e-07 6.14e-21 -2.50034e-11)
(1.45337e-07 3.11593e-08 6.59896e-20 -1.45327e-07 6.89383e-21 -1.00026e-11)
(1.33773e-07 3.6983e-08 -1.36744e-22 -1.33731e-07 -8.95282e-23 -4.22686e-11)
(1.22663e-07 4.11556e-08 2.85212e-20 -1.22704e-07 3.13972e-21 4.17464e-11)
(1.11652e-07 4.44001e-08 1.83621e-20 -1.11454e-07 1.91366e-21 -1.98594e-10)
(1.03181e-07 4.67463e-08 -4.25134e-23 -1.03722e-07 -6.54309e-23 5.40233e-10)
(9.38343e-08 4.74746e-08 -4.58187e-24 -9.28891e-08 2.25112e-23 -9.45238e-10)
(8.86715e-08 4.79808e-08 7.04148e-22 -9.01489e-08 -5.70045e-24 1.47736e-09)
(7.67808e-08 4.6471e-08 5.48417e-20 -7.43491e-08 5.8884e-21 -2.43169e-09)
(7.61698e-08 4.63986e-08 -6.81645e-20 -8.01517e-08 -7.62347e-21 3.98187e-09)
(5.6975e-08 4.28805e-08 6.87376e-20 -5.05624e-08 7.8398e-21 -6.41254e-09)
(6.86274e-08 4.27148e-08 2.2897e-24 -7.87035e-08 8.14482e-23 1.0076e-08)
(3.15205e-08 3.58477e-08 1.47343e-19 -1.60303e-08 1.68475e-20 -1.54902e-08)
(7.22493e-08 3.61476e-08 3.07989e-20 -9.55713e-08 3.14945e-21 2.3322e-08)
(-6.12776e-09 2.42357e-08 -6.01947e-20 4.05706e-08 -7.13908e-21 -3.44428e-08)
(9.70791e-08 3.45877e-08 2.46829e-22 -1.47171e-07 6.65655e-23 5.00921e-08)
(-6.09608e-08 -3.61286e-08 4.01475e-19 1.29137e-07 4.97558e-20 -6.81758e-08)
(1.33356e-07 6.12908e-08 4.1313e-22 -2.1704e-07 -1.7138e-22 8.36839e-08)
(2.13814e-07 -1.72825e-07 -1.85681e-20 -2.1385e-07 -1.82407e-21 3.52483e-11)
(2.14603e-07 -1.52861e-07 -4.23951e-20 -2.14626e-07 -3.90399e-21 2.35611e-11)
(2.13925e-07 -1.33171e-07 1.96299e-20 -2.1394e-07 1.90411e-21 1.47225e-11)
(2.11817e-07 -1.13933e-07 -3.69962e-20 -2.11822e-07 -3.73415e-21 4.86713e-12)
(2.08348e-07 -9.53294e-08 -1.2366e-20 -2.08346e-07 -8.98348e-22 -1.84021e-12)
(2.03605e-07 -7.75264e-08 4.53952e-20 -2.03597e-07 4.56574e-21 -7.94994e-12)
(1.977e-07 -6.06738e-08 4.7289e-21 -1.97687e-07 3.23859e-22 -1.27671e-11)
(1.90759e-07 -4.49013e-08 4.54014e-22 -1.90742e-07 -1.81038e-22 -1.65737e-11)
(1.82924e-07 -3.03086e-08 -1.39914e-20 -1.82906e-07 -1.48956e-21 -1.88719e-11)
(1.74342e-07 -1.69619e-08 -1.02757e-20 -1.74322e-07 -1.01291e-21 -2.03088e-11)
(1.65164e-07 -4.90029e-09 1.17495e-22 -1.65143e-07 1.14765e-23 -2.11867e-11)
(1.55544e-07 5.845e-09 1.43739e-23 -1.55525e-07 -1.59135e-23 -1.89697e-11)
(1.4564e-07 1.51571e-08 -3.33862e-22 -1.45615e-07 2.9641e-23 -2.48763e-11)
(1.35658e-07 2.29322e-08 -1.06019e-20 -1.35652e-07 -1.00694e-21 -6.43939e-12)
(1.25683e-07 2.90744e-08 9.14264e-23 -1.25636e-07 -5.36187e-23 -4.69576e-11)
(1.16011e-07 3.36468e-08 -2.73497e-20 -1.16061e-07 -2.93295e-21 4.94053e-11)
(1.06237e-07 3.72956e-08 -1.75518e-20 -1.06027e-07 -1.83762e-21 -2.09842e-10)
(9.87615e-08 4.0014e-08 -4.05063e-23 -9.93146e-08 3.98659e-23 5.53142e-10)
(9.01264e-08 4.12425e-08 -4.38559e-24 -8.91605e-08 2.89568e-22 -9.65877e-10)
(8.57099e-08 4.21115e-08 1.07928e-19 -8.72149e-08 1.20221e-20 1.50492e-09)
(7.44101e-08 4.12227e-08 2.82637e-20 -7.19404e-08 3.23774e-21 -2.46972e-09)
(7.44595e-08 4.1262e-08 1.11235e-19 -7.84854e-08 1.2241e-20 4.02592e-09)
(5.57765e-08 3.87293e-08 -6.55353e-20 -4.93118e-08 -7.53451e-21 -6.46465e-09)
(6.78287e-08 3.81676e-08 3.83063e-23 -7.79622e-08 -2.30334e-23 1.01335e-08)
(3.14077e-08 3.30748e-08 -1.00437e-19 -1.5841e-08 -1.12938e-20 -1.55667e-08)
(7.18639e-08 3.19191e-08 8.46902e-20 -9.53034e-08 9.66399e-21 2.34395e-08)
(-5.01288e-09 2.29943e-08 1.46365e-19 3.97069e-08 1.70335e-20 -3.46941e-08)
(9.65034e-08 3.09528e-08 -8.76433e-24 -1.47156e-07 -1.09948e-22 5.06527e-08)
(-5.88537e-08 -3.67106e-08 -2.60971e-22 1.281e-07 5.92095e-23 -6.9246e-08)
(1.32838e-07 6.03707e-08 2.15837e-20 -2.17988e-07 2.19591e-21 8.51508e-08)
(8.04319e-08 -3.20341e-07 1.57346e-20 -8.04866e-08 1.42347e-21 5.47306e-11)
(9.1935e-08 -3.11631e-07 5.95151e-22 -9.20049e-08 6.00262e-23 6.9819e-11)
(1.03196e-07 -3.02024e-07 9.76756e-22 -1.03276e-07 1.19043e-22 8.03273e-11)
(1.14113e-07 -2.91491e-07 4.67578e-20 -1.142e-07 4.31196e-21 8.64624e-11)
(1.24581e-07 -2.80019e-07 2.10219e-20 -1.24672e-07 1.9625e-21 9.08953e-11)
(1.34487e-07 -2.67623e-07 3.31068e-20 -1.34577e-07 3.04492e-21 9.01407e-11)
(1.43725e-07 -2.5434e-07 1.03516e-20 -1.43809e-07 9.50516e-22 8.47146e-11)
(1.52195e-07 -2.40219e-07 1.8868e-20 -1.52279e-07 1.70879e-21 8.44358e-11)
(1.59782e-07 -2.25352e-07 -1.08786e-20 -1.59855e-07 -1.25834e-21 7.31432e-11)
(1.66408e-07 -2.09828e-07 -6.5265e-20 -1.66476e-07 -6.06891e-21 6.76656e-11)
(1.71981e-07 -1.93763e-07 1.2523e-20 -1.72041e-07 1.26023e-21 5.94126e-11)
(1.76431e-07 -1.77283e-07 -1.71949e-20 -1.7648e-07 -1.70154e-21 4.96221e-11)
(1.79706e-07 -1.60532e-07 8.30179e-23 -1.79747e-07 3.02083e-23 4.13765e-11)
(1.81768e-07 -1.4366e-07 1.16198e-22 -1.818e-07 -6.22154e-23 3.18941e-11)
(1.82605e-07 -1.26825e-07 -2.40269e-23 -1.82631e-07 9.76116e-24 2.56834e-11)
(1.82213e-07 -1.10184e-07 1.16714e-22 -1.8223e-07 -2.72625e-23 1.65542e-11)
(1.80625e-07 -9.38956e-08 4.09059e-23 -1.80635e-07 -3.30692e-23 1.02127e-11)
(1.77885e-07 -7.81145e-08 -1.53789e-22 -1.7789e-07 -4.87234e-23 4.63943e-12)
(1.74061e-07 -6.29899e-08 -2.36936e-20 -1.7406e-07 -2.19989e-21 -1.25839e-12)
(1.69242e-07 -4.8647e-08 4.79185e-20 -1.69237e-07 4.96367e-21 -4.74556e-12)
(1.63526e-07 -3.52061e-08 -3.97815e-21 -1.63518e-07 -5.75887e-22 -8.41787e-12)
(1.57027e-07 -2.27411e-08 9.90048e-21 -1.57016e-07 1.03193e-21 -1.05906e-11)
(1.49862e-07 -1.1316e-08 4.12331e-23 -1.49849e-07 -4.77653e-23 -1.29109e-11)
(1.42161e-07 -9.77781e-10 -6.33303e-22 -1.4215e-07 -2.12989e-22 -1.06781e-11)
(1.34054e-07 8.13653e-09 -5.154e-20 -1.34034e-07 -5.6006e-21 -1.9546e-11)
(1.25741e-07 1.58986e-08 -5.03146e-20 -1.25743e-07 -5.12131e-21 2.13042e-12)
(1.17278e-07 2.21726e-08 3.64609e-20 -1.17231e-07 3.98484e-21 -4.68587e-11)
(1.08999e-07 2.69726e-08 -2.89121e-20 -1.0906e-07 -3.19627e-21 6.07521e-11)
(1.00444e-07 3.08754e-08 1.66963e-20 -1.00229e-07 1.8562e-21 -2.14908e-10)
(9.39609e-08 3.38412e-08 -1.27177e-22 -9.4527e-08 -3.20911e-23 5.6608e-10)
(8.60597e-08 3.54741e-08 -6.16996e-23 -8.50825e-08 -7.43123e-23 -9.77136e-10)
(8.2387e-08 3.66242e-08 -3.89226e-20 -8.39138e-08 -4.36233e-21 1.52684e-09)
(7.17295e-08 3.6277e-08 -7.65864e-20 -6.92368e-08 -8.62263e-21 -2.49266e-09)
(7.2429e-08 3.63773e-08 -1.06113e-19 -7.64851e-08 -1.15415e-20 4.05607e-09)
(5.43411e-08 3.47334e-08 2.84795e-20 -4.78479e-08 3.35005e-21 -6.49317e-09)
(6.67692e-08 3.37923e-08 1.55564e-20 -7.69342e-08 1.84462e-21 1.01651e-08)
(3.11255e-08 3.03294e-08 7.67449e-20 -1.55217e-08 8.72415e-21 -1.56038e-08)
(7.13111e-08 2.78479e-08 5.28052e-20 -9.48361e-08 5.88931e-21 2.3525e-08)
(-4.10841e-09 2.16622e-08 -1.90615e-22 3.90076e-08 -2.4267e-23 -3.48992e-08)
(9.59294e-08 2.74326e-08 -8.55328e-24 -1.47112e-07 -5.47217e-24 5.11823e-08)
(-5.72139e-08 -3.73434e-08 -1.03285e-22 1.27463e-07 -2.76752e-23 -7.0249e-08)
(1.32549e-07 5.89469e-08 -2.06137e-20 -2.191e-07 -2.05964e-21 8.65514e-08)
(-9.69828e-08 -6.08469e-08 -1.17027e-21 8.87146e-08 -4.87077e-23 8.26821e-09)
(-1.00201e-07 -2.49054e-08 1.80518e-22 9.29785e-08 -3.73791e-23 7.2225e-09)
(-9.98189e-08 -9.73147e-08 6.32465e-22 1.00819e-07 7.91646e-23 -1.00042e-09)
(-7.06933e-08 -4.00889e-07 -7.10218e-22 7.263e-08 -2.55802e-23 -1.93665e-09)
(-5.93607e-07 -1.16786e-05 -1.19231e-20 5.97224e-07 -2.08663e-21 -3.6178e-09)
(-4.25246e-06 -2.40121e-05 9.13027e-20 4.22104e-06 6.22786e-21 3.14151e-08)
(-0.000545647 0.00200835 1.90707e-18 0.000544654 2.8689e-19 9.92597e-07)
(-0.0045133 0.0259549 -6.69138e-18 0.00451668 -5.08088e-19 -3.3798e-06)
(-0.0163152 0.100544 3.84989e-18 0.0163253 -2.53293e-19 -1.01213e-05)
(-0.0366405 0.22239 3.09966e-17 0.0366396 2.82711e-18 8.60097e-07)
(-0.0607041 0.352055 7.15797e-18 0.0606933 1.06124e-18 1.07756e-05)
(-0.0810719 0.442222 2.4985e-17 0.0810629 2.91908e-18 8.97971e-06)
(-0.0905284 0.456555 -3.96156e-17 0.0905187 -1.59525e-18 9.75263e-06)
(-0.0840502 0.378227 -1.26493e-16 0.0840401 -1.28584e-17 1.01205e-05)
(-0.0605264 0.215346 4.05446e-17 0.0605239 -1.88789e-18 2.54579e-06)
(-0.0237355 0.00121865 2.60701e-16 0.023737 2.4036e-17 -1.55186e-06)
(0.0183311 -0.214455 3.57522e-17 -0.0183388 7.50295e-18 7.76771e-06)
(0.0546629 -0.373389 -5.22383e-17 -0.0546668 -4.66494e-18 3.88562e-06)
(0.0725539 -0.42168 7.84034e-18 -0.0725397 -1.05435e-18 -1.41788e-05)
(0.0648708 -0.343967 7.54642e-17 -0.0648494 7.49048e-18 -2.14144e-05)
(0.0384742 -0.191736 -2.87588e-17 -0.0384657 -3.16133e-18 -8.51869e-06)
(0.012982 -0.0623152 5.33448e-17 -0.0129825 5.60574e-18 5.46881e-07)
(0.00171814 -0.00845954 -2.63275e-17 -0.00171798 -2.50627e-18 -1.58806e-07)
(4.74445e-06 -7.28076e-05 1.40691e-18 -4.76762e-06 1.04459e-19 2.31704e-08)
(-5.85311e-06 6.54806e-06 2.58184e-19 5.83014e-06 2.73271e-20 2.29745e-08)
(-8.68936e-08 -9.62645e-09 1.02874e-21 8.671e-08 1.3589e-22 1.83603e-10)
(-2.66459e-08 -2.06217e-07 1.60204e-21 2.67482e-08 6.16803e-23 -1.02327e-10)
(-2.39434e-09 -2.58227e-07 1.21746e-20 2.48321e-09 1.13493e-21 -8.88764e-11)
(-2.05264e-09 -2.33347e-07 -7.88073e-22 2.0553e-09 -5.08517e-25 -2.66014e-12)
(-4.26393e-09 -2.14759e-07 3.92626e-21 4.24458e-09 4.02384e-22 1.93483e-11)
(-2.67996e-09 -3.15829e-07 -1.36004e-20 2.66023e-09 -1.11527e-21 1.97321e-11)
(6.00873e-09 -3.44001e-07 -2.18695e-20 -6.01554e-09 -2.09919e-21 6.81511e-12)
(1.43991e-08 -3.08371e-07 1.87265e-21 -1.44087e-08 1.08868e-22 9.61295e-12)
(2.257e-08 -2.92252e-07 -8.39434e-21 -2.25806e-08 -8.14448e-22 1.0591e-11)
(3.17786e-08 -2.89065e-07 1.78678e-20 -3.1792e-08 1.63382e-21 1.334e-11)
(4.1407e-08 -2.857e-07 -5.58033e-21 -4.14242e-08 -4.35899e-22 1.72889e-11)
(5.09855e-08 -2.80187e-07 -1.55943e-20 -5.10076e-08 -1.44256e-21 2.20886e-11)
(6.05608e-08 -2.73987e-07 -1.39606e-20 -6.05863e-08 -1.33575e-21 2.55471e-11)
(7.01556e-08 -2.674e-07 1.28895e-20 -7.01894e-08 1.19142e-21 3.37063e-11)
(7.96594e-08 -2.60157e-07 1.66723e-25 -7.96982e-08 -4.60711e-24 3.88322e-11)
(8.89769e-08 -2.52136e-07 -2.48383e-23 -8.9022e-08 3.40731e-23 4.50781e-11)
(9.80238e-08 -2.43329e-07 -1.55307e-23 -9.8073e-08 2.4137e-23 4.92055e-11)
(1.06719e-07 -2.33728e-07 -2.20663e-23 -1.06774e-07 1.66721e-23 5.51973e-11)
(1.14963e-07 -2.23339e-07 -1.17186e-23 -1.15017e-07 6.75244e-24 5.4647e-11)
(1.22676e-07 -2.12183e-07 -6.40861e-22 -1.22734e-07 -7.28672e-23 5.83232e-11)
(1.29761e-07 -2.00315e-07 -1.76038e-20 -1.29816e-07 -1.68096e-21 5.58274e-11)
(1.36141e-07 -1.87803e-07 1.12252e-22 -1.36194e-07 1.07953e-22 5.34572e-11)
(1.41737e-07 -1.74729e-07 4.96443e-20 -1.41787e-07 4.7869e-21 5.06811e-11)
(1.46473e-07 -1.61182e-07 6.17877e-23 -1.46519e-07 -1.00979e-22 4.57219e-11)
(1.50291e-07 -1.4727e-07 1.25833e-20 -1.50332e-07 1.2068e-21 4.08336e-11)
(1.53141e-07 -1.33114e-07 -3.20846e-21 -1.53175e-07 -3.20939e-22 3.41075e-11)
(1.54989e-07 -1.18841e-07 2.14781e-20 -1.55019e-07 2.15399e-21 2.9237e-11)
(1.55814e-07 -1.04577e-07 1.56341e-23 -1.55836e-07 -7.04878e-23 2.24188e-11)
(1.55615e-07 -9.04625e-08 5.28383e-24 -1.55632e-07 -2.28696e-23 1.69039e-11)
(1.54409e-07 -7.6632e-08 1.72695e-23 -1.54421e-07 8.68366e-23 1.22977e-11)
(1.52228e-07 -6.32226e-08 2.26613e-20 -1.52235e-07 2.10466e-21 6.61237e-12)
(1.49127e-07 -5.03563e-08 -5.0257e-20 -1.49129e-07 -5.12487e-21 2.40293e-12)
(1.45172e-07 -3.81503e-08 1.2702e-20 -1.45172e-07 1.46777e-21 -4.42704e-13)
(1.40442e-07 -2.66913e-08 -7.12309e-23 -1.40438e-07 -1.33473e-23 -3.37857e-12)
(1.35023e-07 -1.6048e-08 1.84446e-22 -1.35016e-07 -1.3029e-22 -7.08181e-12)
(1.29022e-07 -6.28149e-09 -2.83924e-20 -1.29018e-07 -3.00019e-21 -4.21719e-12)
(1.22536e-07 2.46369e-09 3.05128e-22 -1.2252e-07 4.19648e-23 -1.60469e-11)
(1.15756e-07 1.00425e-08 9.49556e-21 -1.15765e-07 8.90311e-22 8.94289e-12)
(1.08706e-07 1.62833e-08 -2.37074e-22 -1.08659e-07 3.15983e-23 -4.75439e-11)
(1.0175e-07 2.11583e-08 2.47442e-22 -1.0182e-07 -7.61912e-23 7.03728e-11)
(9.43771e-08 2.51749e-08 -1.59709e-20 -9.41575e-08 -1.81174e-21 -2.19623e-10)
(8.8864e-08 2.82712e-08 -3.66532e-20 -8.9438e-08 -4.00817e-21 5.7398e-10)
(8.17055e-08 3.02103e-08 -2.39193e-20 -8.07217e-08 -2.49709e-21 -9.83787e-10)
(7.87606e-08 3.15642e-08 1.19434e-20 -8.03005e-08 1.47882e-21 1.53997e-09)
(6.87812e-08 3.16742e-08 5.69099e-20 -6.62758e-08 6.29627e-21 -2.50538e-09)
(7.01129e-08 3.17859e-08 5.11006e-20 -7.41801e-08 5.44799e-21 4.06719e-09)
(5.26926e-08 3.09313e-08 -7.21123e-23 -4.61947e-08 -1.82972e-22 -6.49784e-09)
(6.54644e-08 2.96179e-08 -6.78602e-20 -7.56289e-08 -7.58929e-21 1.01644e-08)
(3.0663e-08 2.7646e-08 -1.4617e-22 -1.50563e-08 6.89021e-23 -1.56067e-08)
(7.05969e-08 2.39343e-08 -5.10058e-20 -9.41528e-08 -5.52543e-21 2.35558e-08)
(-3.44398e-09 2.02758e-08 3.89157e-20 3.85e-08 4.61494e-21 -3.5056e-08)
(9.538e-08 2.39727e-08 -2.08496e-22 -1.47031e-07 -2.11997e-23 5.16512e-08)
(-5.60842e-08 -3.79846e-08 -1.60233e-19 1.27296e-07 -1.98382e-20 -7.12119e-08)
(1.32583e-07 5.70311e-08 1.96362e-20 -2.20406e-07 2.00188e-21 8.78228e-08)
(-1.2696e-07 -1.38105e-07 -2.59603e-24 1.15922e-07 -8.31198e-23 1.10383e-08)
(-8.02255e-08 -5.81769e-08 1.82957e-21 7.42212e-08 1.54691e-22 6.00429e-09)
(-8.94912e-08 -1.97449e-08 6.85257e-22 9.02216e-08 1.14949e-22 -7.30399e-10)
(-8.57619e-08 -4.75655e-08 -5.6342e-22 8.72885e-08 -2.49126e-23 -1.52659e-09)
(-6.09976e-08 -2.65872e-07 -5.75815e-22 6.10739e-08 -6.44625e-23 -7.63075e-11)
(-2.57262e-08 -6.40252e-07 2.81818e-24 2.55982e-08 -8.86067e-24 1.28071e-10)
(-7.29692e-06 -0.000151935 2.21509e-22 7.28893e-06 -5.67685e-21 7.99927e-09)
(-0.000152691 0.000221324 1.0406e-18 0.000152294 1.10215e-19 3.96942e-07)
(-0.00201604 0.0103744 -3.32694e-18 0.00201592 -3.48874e-19 1.20641e-07)
(-0.00959434 0.0569818 1.91616e-17 0.00960136 1.75608e-18 -7.01917e-06)
(-0.0255862 0.153193 -1.00621e-17 0.025592 -4.40335e-19 -5.84411e-06)
(-0.047399 0.274129 2.31369e-19 0.0473924 -7.99454e-19 6.60624e-06)
(-0.0683693 0.374767 5.58525e-17 0.0683591 5.18523e-18 1.02527e-05)
(-0.0810373 0.414633 -1.98555e-18 0.0810279 1.34947e-18 9.34663e-06)
(-0.0796132 0.370339 -6.30277e-17 0.0796043 -5.71168e-18 8.88499e-06)
(-0.0618275 0.241987 -1.13219e-18 0.0618243 1.59254e-19 3.26915e-06)
(-0.0301942 0.0552469 -7.20864e-17 0.0301951 -8.11967e-18 -9.26495e-07)
(0.00847119 -0.145871 8.03955e-17 -0.00847719 5.89948e-18 6.00105e-06)
(0.0442035 -0.307629 5.32733e-17 -0.0442083 5.58931e-18 4.83339e-06)
(0.0648612 -0.376049 3.58115e-17 -0.0648518 2.67357e-18 -9.46673e-06)
(0.0620378 -0.326543 1.00335e-16 -0.0620201 1.18029e-17 -1.77258e-05)
(0.0396512 -0.195508 -1.39924e-16 -0.0396407 -1.3784e-17 -1.05509e-05)
(0.0149705 -0.070633 7.57571e-17 -0.0149694 7.17461e-18 -1.12424e-06)
(0.00239205 -0.0112622 -3.08782e-17 -0.00239192 -2.63014e-18 -1.34268e-07)
(3.05865e-05 -0.000219545 2.5583e-21 -3.06272e-05 -2.70389e-20 4.06536e-08)
(-1.10275e-05 1.48181e-05 2.13852e-22 1.09854e-05 2.56735e-21 4.20967e-08)
(-8.8571e-08 5.88856e-08 -2.91976e-21 8.83552e-08 -2.35018e-22 2.15777e-10)
(-2.89976e-08 -1.45181e-07 -4.87327e-21 2.9061e-08 -4.82019e-22 -6.33888e-11)
(-5.63067e-10 -2.18385e-07 6.08629e-22 6.33127e-10 3.05435e-23 -7.00607e-11)
(1.36589e-09 -2.02245e-07 -1.22261e-21 -1.37278e-09 -1.15428e-22 6.88932e-12)
(-1.3509e-09 -1.76617e-07 5.18704e-22 1.31676e-09 3.6363e-24 3.41332e-11)
(2.48539e-10 -2.46849e-07 9.80216e-21 -2.93815e-10 9.26386e-22 4.52762e-11)
(8.32563e-09 -2.98223e-07 3.30766e-24 -8.36805e-09 -1.89645e-24 4.24133e-11)
(1.54022e-08 -2.65393e-07 1.49898e-20 -1.5442e-08 1.46148e-21 3.98017e-11)
(2.1662e-08 -2.45091e-07 -1.30709e-20 -2.17012e-08 -1.1915e-21 3.9161e-11)
(2.90606e-08 -2.40731e-07 3.43883e-21 -2.91037e-08 2.86333e-22 4.31228e-11)
(3.70996e-08 -2.38364e-07 -4.02395e-24 -3.71435e-08 -2.89698e-23 4.38944e-11)
(4.5119e-08 -2.34032e-07 1.72017e-20 -4.51591e-08 1.63594e-21 4.01084e-11)
(5.31035e-08 -2.28874e-07 -4.71265e-21 -5.31474e-08 -4.17143e-22 4.39401e-11)
(6.10966e-08 -2.2343e-07 6.0942e-21 -6.11377e-08 5.7138e-22 4.1075e-11)
(6.90272e-08 -2.17424e-07 3.19753e-21 -6.90692e-08 3.4001e-22 4.20472e-11)
(7.67915e-08 -2.10688e-07 -4.69834e-24 -7.68328e-08 2.98928e-23 4.13916e-11)
(8.43306e-08 -2.03242e-07 1.7368e-20 -8.43715e-08 1.69244e-21 4.08709e-11)
(9.15859e-08 -1.95118e-07 -3.26519e-24 -9.16261e-08 -3.52769e-24 4.02634e-11)
(9.84851e-08 -1.86324e-07 5.81993e-22 -9.85248e-08 9.98456e-23 3.97026e-11)
(1.0495e-07 -1.76874e-07 1.26326e-20 -1.04988e-07 1.21858e-21 3.82932e-11)
(1.10909e-07 -1.66818e-07 2.02446e-23 -1.10946e-07 -8.0653e-23 3.65739e-11)
(1.16293e-07 -1.56213e-07 -8.20963e-23 -1.16327e-07 1.00161e-22 3.38258e-11)
(1.21034e-07 -1.4512e-07 2.64827e-20 -1.21065e-07 2.60131e-21 3.11341e-11)
(1.25071e-07 -1.33622e-07 -1.19507e-20 -1.25099e-07 -1.2506e-21 2.7615e-11)
(1.28351e-07 -1.21812e-07 2.54974e-23 -1.28375e-07 -7.11859e-23 2.37585e-11)
(1.30832e-07 -1.09789e-07 -2.05364e-20 -1.30852e-07 -2.01705e-21 2.03013e-11)
(1.32477e-07 -9.76579e-08 1.32613e-23 -1.32492e-07 5.85262e-23 1.49209e-11)
(1.3327e-07 -8.55314e-08 4.51315e-24 -1.33281e-07 4.29665e-23 1.11123e-11)
(1.33203e-07 -7.35269e-08 2.0989e-20 -1.3321e-07 2.16211e-21 7.18255e-12)
(1.32288e-07 -6.17624e-08 2.74695e-21 -1.32291e-07 2.77691e-22 3.50066e-12)
(1.30548e-07 -5.03558e-08 4.39304e-21 -1.30547e-07 3.58722e-22 -5.55888e-13)
(1.28025e-07 -3.94109e-08 -8.39356e-21 -1.28022e-07 -9.6412e-22 -2.95823e-12)
(1.24767e-07 -2.9021e-08 -2.27011e-20 -1.24762e-07 -2.13395e-21 -5.1343e-12)
(1.20835e-07 -1.92514e-08 6.76042e-20 -1.20826e-07 7.27032e-21 -8.88561e-12)
(1.1631e-07 -1.01757e-08 2.76589e-20 -1.16305e-07 2.83534e-21 -4.93511e-12)
(1.11259e-07 -1.92844e-09 4.67722e-20 -1.1124e-07 4.98921e-21 -1.90003e-11)
(1.05862e-07 5.32896e-09 5.41577e-20 -1.05872e-07 5.5911e-21 1.03373e-11)
(1.00108e-07 1.13969e-08 -4.19555e-20 -1.00055e-07 -4.50346e-21 -5.29181e-11)
(9.43865e-08 1.62162e-08 5.80531e-20 -9.4461e-08 6.35033e-21 7.44411e-11)
(8.81376e-08 2.02216e-08 -1.50384e-20 -8.79122e-08 -1.79855e-21 -2.25346e-10)
(8.35572e-08 2.33388e-08 -3.09122e-23 -8.41319e-08 7.42646e-23 5.7467e-10)
(7.71353e-08 2.54869e-08 1.25787e-20 -7.61487e-08 1.32623e-21 -9.86616e-10)
(7.48922e-08 2.69741e-08 -1.05304e-20 -7.6432e-08 -1.09313e-21 1.53986e-09)
(6.56124e-08 2.74585e-08 4.4701e-20 -6.31073e-08 5.08287e-21 -2.5051e-09)
(6.75559e-08 2.75242e-08 3.40197e-20 -7.16144e-08 3.75439e-21 4.05846e-09)
(5.08468e-08 2.73634e-08 -5.692e-24 -4.43714e-08 5.21546e-24 -6.47546e-09)
(6.39512e-08 2.56656e-08 4.36519e-20 -7.40699e-08 4.85346e-21 1.01187e-08)
(3.00086e-08 2.50755e-08 9.79824e-24 -1.44592e-08 -2.28439e-22 -1.55494e-08)
(6.97811e-08 2.01622e-08 -1.47621e-19 -9.3299e-08 -1.66043e-20 2.35179e-08)
(-3.07381e-09 1.88921e-08 -3.7187e-20 3.81847e-08 -4.27622e-21 -3.51108e-08)
(9.49544e-08 2.05257e-08 -9.52455e-20 -1.46934e-07 -1.03344e-20 5.19794e-08)
(-5.5428e-08 -3.85237e-08 1.61421e-19 1.27415e-07 2.00059e-20 -7.19872e-08)
(1.33146e-07 5.46581e-08 -1.8742e-20 -2.22036e-07 -1.88471e-21 8.88899e-08)
(-1.14055e-07 -1.46307e-07 -7.41543e-25 1.04093e-07 2.72115e-23 9.96264e-09)
(-1.05352e-07 -1.25242e-07 3.64849e-24 9.71034e-08 2.3922e-23 8.24857e-09)
(-7.18552e-08 -5.67471e-08 -6.59284e-22 7.24705e-08 -8.71967e-23 -6.15367e-10)
(-7.48748e-08 -1.95174e-08 9.51991e-22 7.61958e-08 7.37479e-23 -1.32101e-09)
(-7.23012e-08 -1.62395e-08 1.75734e-22 7.23433e-08 5.07594e-23 -4.20685e-11)
(-5.57005e-08 -1.55528e-07 -7.83481e-22 5.54915e-08 -7.75821e-23 2.09005e-10)
(-2.24256e-08 -4.79841e-07 5.02053e-22 2.25794e-08 3.41498e-23 -1.53844e-10)
(-2.82137e-07 -4.68832e-05 2.28198e-22 2.96896e-07 4.56696e-22 -1.47595e-08)
(-1.85743e-05 -7.36943e-05 -2.49349e-22 1.85058e-05 6.31789e-22 6.84833e-08)
(-0.000711852 0.00298019 1.94713e-20 0.000711054 6.93313e-21 7.97979e-07)
(-0.00498871 0.02809 -3.26083e-20 0.00499206 -1.21001e-19 -3.35496e-06)
(-0.0165823 0.0974726 1.44212e-17 0.0165912 1.41697e-18 -8.89408e-06)
(-0.0353495 0.203524 2.23219e-19 0.0353492 2.47082e-19 3.22054e-07)
(-0.0560367 0.308266 -1.31948e-18 0.0560279 -6.34796e-19 8.74925e-06)
(-0.0711948 0.368627 4.07138e-17 0.0711871 4.11065e-18 7.66101e-06)
(-0.074305 0.354838 2.96978e-18 0.074298 6.50135e-19 7.0033e-06)
(-0.0619836 0.259255 3.08584e-17 0.0619796 2.18018e-18 4.01178e-06)
(-0.0354035 0.0995898 5.81756e-17 0.0354024 6.00937e-18 1.01218e-06)
(-0.000255781 -0.08578 3.13056e-20 0.00024932 1.16155e-18 6.46111e-06)
(0.0344103 -0.24719 -3.84692e-17 -0.0344193 -3.02259e-18 8.98824e-06)
(0.0571293 -0.331643 -4.40714e-17 -0.0571292 -6.58732e-18 -1.38868e-07)
(0.0586102 -0.307351 1.74383e-16 -0.0586001 1.79186e-17 -1.00748e-05)
(0.0401995 -0.197165 -1.34186e-16 -0.040193 -1.16767e-17 -6.51493e-06)
(0.0166397 -0.0779135 4.93574e-19 -0.0166399 -4.71944e-19 2.03352e-07)
(0.00310572 -0.0143515 -8.395e-18 -0.00310581 -7.79677e-19 8.31447e-08)
(8.67362e-05 -0.000502523 -1.39763e-21 -8.67691e-05 -5.86987e-21 3.28474e-08)
(-1.61395e-05 2.1376e-05 -1.33089e-19 1.60928e-05 -1.28846e-20 4.67483e-08)
(-8.71889e-08 1.05222e-07 -4.06329e-24 8.7105e-08 1.62879e-23 8.39817e-11)
(-2.81702e-08 -9.37792e-08 -2.75593e-21 2.83616e-08 -2.63781e-22 -1.91375e-10)
(3.65639e-09 -1.81486e-07 -1.97429e-24 -3.46807e-09 -1.77311e-23 -1.88323e-10)
(5.62231e-09 -1.72553e-07 6.79074e-25 -5.5538e-09 -5.11715e-24 -6.85124e-11)
(6.43114e-10 -1.4676e-07 -1.31699e-22 -6.36255e-10 -8.05518e-24 -6.85879e-12)
(5.98722e-10 -1.72819e-07 -1.65915e-21 -5.92507e-10 -1.05833e-22 -6.21499e-12)
(7.8063e-09 -2.4198e-07 -2.09659e-20 -7.78688e-09 -2.06952e-21 -1.94249e-11)
(1.51053e-08 -2.26432e-07 1.3468e-20 -1.50932e-08 1.24267e-21 -1.21494e-11)
(2.04064e-08 -2.06246e-07 -3.29272e-21 -2.04131e-08 -2.80644e-22 6.63353e-12)
(2.63773e-08 -2.01116e-07 1.1823e-24 -2.63995e-08 -1.4536e-23 2.21604e-11)
(3.30684e-08 -1.99634e-07 -3.72997e-21 -3.31021e-08 -3.42404e-22 3.37284e-11)
(3.97777e-08 -1.96173e-07 -7.21769e-21 -3.98182e-08 -7.03933e-22 4.04997e-11)
(4.63902e-08 -1.91487e-07 -5.03792e-25 -4.64365e-08 -8.95776e-24 4.62884e-11)
(5.30284e-08 -1.86649e-07 -7.50423e-24 -5.30779e-08 2.97416e-23 4.95226e-11)
(5.96657e-08 -1.81556e-07 1.07002e-20 -5.97209e-08 1.05636e-21 5.52001e-11)
(6.61814e-08 -1.7589e-07 -1.3588e-20 -6.62362e-08 -1.30078e-21 5.48032e-11)
(7.25057e-08 -1.69565e-07 -3.32167e-21 -7.25616e-08 -3.13093e-22 5.59062e-11)
(7.8592e-08 -1.62626e-07 -4.56006e-24 -7.8649e-08 1.71305e-23 5.70445e-11)
(8.4386e-08 -1.5511e-07 -8.58263e-24 -8.44413e-08 9.95271e-24 5.52486e-11)
(8.98319e-08 -1.47042e-07 1.63739e-23 -8.98865e-08 -4.89121e-23 5.45784e-11)
(9.48659e-08 -1.38462e-07 -1.87591e-23 -9.49176e-08 -3.75951e-23 5.17678e-11)
(9.943e-08 -1.29407e-07 -2.52645e-20 -9.94803e-08 -2.40309e-21 5.02938e-11)
(1.03465e-07 -1.19944e-07 3.10831e-20 -1.03511e-07 3.16278e-21 4.60006e-11)
(1.06921e-07 -1.10138e-07 2.93973e-21 -1.06964e-07 1.9779e-22 4.28986e-11)
(1.09753e-07 -1.0007e-07 1.82354e-23 -1.09793e-07 -7.02895e-24 4.02112e-11)
(1.11917e-07 -8.98232e-08 1.78327e-23 -1.11952e-07 -7.42622e-24 3.48059e-11)
(1.13388e-07 -7.94854e-08 3.82852e-24 -1.1342e-07 -8.15156e-23 3.13645e-11)
(1.14144e-07 -6.91557e-08 -2.01423e-20 -1.14171e-07 -2.01513e-21 2.69591e-11)
(1.14179e-07 -5.89376e-08 -2.65237e-21 -1.14201e-07 -1.9306e-22 2.24387e-11)
(1.13496e-07 -4.89297e-08 1.27685e-21 -1.13514e-07 1.95609e-22 1.8199e-11)
(1.12117e-07 -3.92345e-08 2.29621e-20 -1.12132e-07 2.41351e-21 1.49869e-11)
(1.10065e-07 -2.99314e-08 8.5916e-21 -1.10076e-07 5.41403e-22 1.10858e-11)
(1.0738e-07 -2.10896e-08 -9.18292e-20 -1.07386e-07 -9.66658e-21 6.22584e-12)
(1.04119e-07 -1.27826e-08 -1.61928e-20 -1.04129e-07 -1.43405e-21 1.00201e-11)
(1.00319e-07 -5.12632e-09 1.84197e-20 -1.0031e-07 1.79675e-21 -9.1003e-12)
(9.61547e-08 1.69654e-09 -8.87771e-20 -9.61784e-08 -9.40593e-21 2.36901e-11)
(9.15749e-08 7.48587e-09 3.15349e-20 -9.1529e-08 3.54187e-21 -4.58779e-11)
(8.69872e-08 1.21281e-08 -1.60612e-20 -8.70723e-08 -1.71177e-21 8.51698e-11)