/*--------------------------------*- C++ -*----------------------------------*\
| =========                 |                                                 |
| \\      /  F ield         | OpenFOAM: The Open Source CFD Toolbox           |
|  \\    /   O peration     | Version:  2306                                  |
|   \\  /    A nd           | Website:  www.openfoam.com                      |
|    \\/     M anipulation  |                                                 |
\*---------------------------------------------------------------------------*/
FoamFile
{
    version     2.0;
    format      ascii;
    arch        "LSB;label=32;scalar=64";
    class       volScalarField;
    location    "850";
    object      turbulenceProperties:nut;
}
// * * * * * * * * * * * * * * * * * * * * * * * * * * * * * * * * * * * * * //

dimensions      [0 2 -1 0 0 0 0];

internalField   nonuniform List<scalar> 
1340
(
6.10199e-06
6.10274e-06
6.10233e-06
6.08333e-06
6.10338e-06
6.10276e-06
6.08133e-06
6.08325e-06
6.10405e-06
6.10328e-06
6.07231e-06
6.07456e-06
6.08121e-06
6.08314e-06
6.10476e-06
6.10389e-06
6.07744e-06
6.07309e-06
6.07228e-06
6.07449e-06
6.0811e-06
6.08301e-06
6.1055e-06
6.10459e-06
6.09024e-06
6.08641e-06
6.08221e-06
6.07784e-06
6.07333e-06
6.07225e-06
6.07442e-06
6.08099e-06
6.08286e-06
6.10627e-06
6.10539e-06
6.09963e-06
6.09674e-06
6.0941e-06
6.09085e-06
6.08698e-06
6.0827e-06
6.07828e-06
6.0736e-06
6.07224e-06
6.07433e-06
6.08087e-06
6.08268e-06
6.10707e-06
6.10629e-06
6.11213e-06
6.11002e-06
6.10728e-06
6.1039e-06
6.10039e-06
6.09744e-06
6.09477e-06
6.09149e-06
6.08759e-06
6.08323e-06
6.07874e-06
6.07391e-06
6.07224e-06
6.07423e-06
6.08075e-06
6.08246e-06
6.10788e-06
6.10729e-06
6.11858e-06
6.11782e-06
6.1169e-06
6.11583e-06
6.11457e-06
6.11301e-06
6.11092e-06
6.10818e-06
6.10477e-06
6.10119e-06
6.09818e-06
6.09548e-06
6.09218e-06
6.08824e-06
6.0838e-06
6.07923e-06
6.07425e-06
6.07227e-06
6.07412e-06
6.08063e-06
6.08222e-06
6.10871e-06
6.10839e-06
6.12113e-06
6.12111e-06
6.12108e-06
6.121e-06
6.12082e-06
6.12052e-06
6.12009e-06
6.1195e-06
6.11874e-06
6.11782e-06
6.11674e-06
6.11549e-06
6.11393e-06
6.11186e-06
6.10913e-06
6.10569e-06
6.10205e-06
6.09897e-06
6.09623e-06
6.09291e-06
6.08893e-06
6.08441e-06
6.07976e-06
6.07463e-06
6.07232e-06
6.07401e-06
6.0805e-06
6.08195e-06
6.10955e-06
6.10959e-06
6.12269e-06
6.12346e-06
6.12327e-06
6.12302e-06
6.1228e-06
6.12253e-06
6.1223e-06
6.12218e-06
6.12212e-06
6.1221e-06
6.12208e-06
6.12206e-06
6.12203e-06
6.12201e-06
6.12198e-06
6.12191e-06
6.12175e-06
6.12146e-06
6.12104e-06
6.12046e-06
6.11971e-06
6.11879e-06
6.11771e-06
6.11645e-06
6.1149e-06
6.11285e-06
6.11013e-06
6.10667e-06
6.10296e-06
6.09981e-06
6.09703e-06
6.09369e-06
6.08966e-06
6.08506e-06
6.08033e-06
6.07505e-06
6.0724e-06
6.07388e-06
6.08036e-06
6.08164e-06
6.11039e-06
6.11089e-06
7.36935e-09
3.31802e-11
0
0
0.00014125
0.000451854
0.016106
0.0551899
0.112661
0.176085
0.235508
0.285617
0.324074
0.350414
0.365812
0.372617
0.373749
0.362752
0.330897
0.272108
0.188977
0.099707
0.0326457
0.00160732
0.000465393
0
0
0
1.6949e-09
3.93204e-07
6.16953e-06
8.00948e-06
6.45052e-06
5.90345e-06
6.03164e-06
6.1412e-06
6.14174e-06
6.12805e-06
6.12592e-06
6.12557e-06
6.12416e-06
6.12341e-06
6.12337e-06
6.12336e-06
6.12322e-06
6.12309e-06
6.12304e-06
6.12303e-06
6.12301e-06
6.12298e-06
6.12296e-06
6.12293e-06
6.12287e-06
6.12272e-06
6.12245e-06
6.12204e-06
6.12147e-06
6.12072e-06
6.1198e-06
6.11872e-06
6.11746e-06
6.11593e-06
6.11389e-06
6.11119e-06
6.10772e-06
6.10393e-06
6.1007e-06
6.09788e-06
6.09452e-06
6.09045e-06
6.08577e-06
6.08094e-06
6.07552e-06
6.07251e-06
6.07375e-06
6.08021e-06
6.08131e-06
6.11122e-06
6.11229e-06
6.44304e-06
2.23495e-08
1.01487e-10
0
0
1.43421e-09
0.00209016
0.00821388
0.0366815
0.0875572
0.150375
0.213176
0.268278
0.311928
0.342838
0.36158
0.370722
0.372993
0.364361
0.336088
0.281242
0.201187
0.112195
0.0399994
0.00371269
0.00102968
0
0
0
2.90807e-10
5.74669e-08
5.10802e-06
8.72032e-06
6.96832e-06
5.98156e-06
5.99198e-06
6.12051e-06
6.13245e-06
6.11858e-06
6.12141e-06
6.12678e-06
6.12671e-06
6.12486e-06
6.12407e-06
6.12408e-06
6.12413e-06
6.12408e-06
6.12403e-06
6.12401e-06
6.12398e-06
6.12395e-06
6.12393e-06
6.12387e-06
6.12374e-06
6.12348e-06
6.12309e-06
6.12253e-06
6.12179e-06
6.12088e-06
6.11979e-06
6.11853e-06
6.117e-06
6.11499e-06
6.11231e-06
6.10883e-06
6.10497e-06
6.10165e-06
6.09878e-06
6.0954e-06
6.09129e-06
6.08652e-06
6.0816e-06
6.07603e-06
6.07266e-06
6.07362e-06
6.08006e-06
6.08097e-06
6.11204e-06
6.11378e-06
8.08608e-06
6.46964e-06
7.92013e-08
3.70941e-10
0
0
0
0.000622638
0.00228721
0.0211196
0.0633246
0.122975
0.187858
0.247785
0.297031
0.333186
0.356236
0.368287
0.371875
0.365531
0.340758
0.289974
0.213213
0.124018
0.0476643
0.00675482
0.00181844
0
0
0
1.5928e-12
6.16421e-11
2.7838e-06
8.24543e-06
7.30227e-06
6.07808e-06
5.99574e-06
6.16681e-06
6.18333e-06
6.13365e-06
6.11466e-06
6.12071e-06
6.12664e-06
6.12689e-06
6.12557e-06
6.12502e-06
6.12503e-06
6.12509e-06
6.12507e-06
6.12503e-06
6.125e-06
6.12497e-06
6.12492e-06
6.12481e-06
6.12457e-06
6.12419e-06
6.12364e-06
6.12292e-06
6.12201e-06
6.12092e-06
6.11965e-06
6.11813e-06
6.11615e-06
6.1135e-06
6.11001e-06
6.10608e-06
6.10267e-06
6.09974e-06
6.09633e-06
6.09218e-06
6.08733e-06
6.0823e-06
6.0766e-06
6.07286e-06
6.07348e-06
6.07989e-06
6.08063e-06
6.11283e-06
6.11537e-06
6.25764e-06
7.8364e-06
6.35401e-06
4.82164e-07
2.24791e-09
0
0
0
8.68379e-06
4.83506e-05
0.0107523
0.0420676
0.0955797
0.160486
0.22465
0.279759
0.321736
0.34965
0.364945
0.369949
0.365756
0.344415
0.297742
0.224276
0.135233
0.0555285
0.0102253
0.00270051
0
0
0
8.77984e-17
7.93281e-09
1.93671e-06
7.90753e-06
7.69575e-06
6.00502e-06
5.67782e-06
5.98231e-06
6.18131e-06
6.18061e-06
6.13512e-06
6.11897e-06
6.12257e-06
6.12672e-06
6.12712e-06
6.12638e-06
6.12608e-06
6.12611e-06
6.12615e-06
6.12612e-06
6.12608e-06
6.12603e-06
6.12593e-06
6.12571e-06
6.12535e-06
6.12482e-06
6.1241e-06
6.12319e-06
6.1221e-06
6.12084e-06
6.11933e-06
6.11737e-06
6.11474e-06
6.11125e-06
6.10726e-06
6.10375e-06
6.10076e-06
6.09732e-06
6.09314e-06
6.0882e-06
6.08306e-06
6.07721e-06
6.0731e-06
6.07335e-06
6.07971e-06
6.08027e-06
6.11357e-06
6.11701e-06
6.02122e-06
6.24326e-06
7.46139e-06
6.45694e-06
1.82779e-06
8.38456e-09
4.35121e-16
0
0
1.88798e-12
0.000971681
0.00364187
0.0244308
0.0682996
0.129656
0.196605
0.258184
0.307621
0.34215
0.362036
0.369473
0.36709
0.348901
0.306464
0.236552
0.148149
0.0650947
0.0135466
0.00395296
0.000114494
0
0
0
3.10487e-09
7.00005e-07
6.87725e-06
9.73168e-06
7.6034e-06
6.04596e-06
5.79178e-06
6.00583e-06
6.15306e-06
6.16332e-06
6.13554e-06
6.1236e-06
6.12506e-06
6.12758e-06
6.12784e-06
6.1274e-06
6.12723e-06
6.12724e-06
6.12724e-06
6.1272e-06
6.1271e-06
6.1269e-06
6.12656e-06
6.12605e-06
6.12535e-06
6.12445e-06
6.12336e-06
6.12209e-06
6.12058e-06
6.11865e-06
6.11606e-06
6.11258e-06
6.10852e-06
6.10491e-06
6.10185e-06
6.09838e-06
6.09416e-06
6.08914e-06
6.08388e-06
6.07789e-06
6.07341e-06
6.07323e-06
6.07951e-06
6.07992e-06
6.11431e-06
6.11879e-06
6.1336e-06
6.06792e-06
6.20584e-06
6.77388e-06
6.64265e-06
4.56515e-06
1.74164e-07
8.40323e-10
2.27808e-18
0
0
0.000158442
0.000575625
0.009923
0.0352135
0.0805913
0.140519
0.205015
0.26425
0.311543
0.343842
0.361343
0.364861
0.354174
0.322606
0.265227
0.186309
0.102711
0.0405656
0.00590342
0.00197118
1.5659e-05
0
0
5.93472e-13
1.98209e-09
2.66564e-07
4.53701e-06
8.41393e-06
7.63691e-06
6.28205e-06
5.87975e-06
5.99717e-06
6.13265e-06
6.15579e-06
6.13562e-06
6.12546e-06
6.12671e-06
6.12889e-06
6.12911e-06
6.12876e-06
6.12863e-06
6.12863e-06
6.12859e-06
6.12842e-06
6.1281e-06
6.12761e-06
6.12693e-06
6.12604e-06
6.12495e-06
6.12366e-06
6.12216e-06
6.12025e-06
6.1177e-06
6.11423e-06
6.1101e-06
6.10636e-06
6.10319e-06
6.09967e-06
6.09541e-06
6.09028e-06
6.08487e-06
6.07872e-06
6.07381e-06
6.07309e-06
6.0793e-06
6.07956e-06
6.11496e-06
6.12068e-06
6.13752e-06
6.13479e-06
6.08131e-06
6.13344e-06
6.39201e-06
7.24027e-06
6.07295e-06
3.0783e-06
1.55029e-09
9.73343e-12
0
0
1.06171e-09
4.7122e-05
0.00231903
0.00858717
0.031598
0.0738266
0.131391
0.195286
0.255495
0.304479
0.33842
0.356342
0.358317
0.342491
0.302912
0.238038
0.158252
0.0823188
0.0297255
0.00260568
0.000947681
2.86455e-07
0
0
1.30092e-13
2.03553e-09
3.75975e-07
5.13899e-06
8.51852e-06
7.39034e-06
6.14498e-06
5.89483e-06
6.05271e-06
6.15629e-06
6.15393e-06
6.13246e-06
6.12726e-06
6.12975e-06
6.13108e-06
6.13087e-06
6.13056e-06
6.13042e-06
6.13026e-06
6.12998e-06
6.12953e-06
6.12886e-06
6.12798e-06
6.12688e-06
6.12558e-06
6.12406e-06
6.12217e-06
6.11966e-06
6.11622e-06
6.112e-06
6.1081e-06
6.10479e-06
6.10119e-06
6.09687e-06
6.09163e-06
6.08604e-06
6.0797e-06
6.07433e-06
6.07297e-06
6.07906e-06
6.07922e-06
6.11561e-06
6.12269e-06
6.12701e-06
6.13226e-06
6.12723e-06
6.10677e-06
6.09641e-06
6.28391e-06
6.77784e-06
7.26957e-06
5.28197e-06
9.60997e-07
4.52417e-09
1.59455e-16
0
0
0
3.82066e-05
0.0020258
0.0074223
0.0294701
0.0707354
0.127818
0.191956
0.252953
0.302744
0.33681
0.352897
0.350751
0.32684
0.277281
0.206165
0.127502
0.0595503
0.0163966
0.000835496
0.000336381
0
0
0
2.27651e-13
6.45154e-09
1.40966e-06
7.17793e-06
8.33181e-06
6.70098e-06
5.91671e-06
5.94936e-06
6.11811e-06
6.16228e-06
6.14233e-06
6.12956e-06
6.12997e-06
6.13206e-06
6.13251e-06
6.13242e-06
6.1323e-06
6.13202e-06
6.13155e-06
6.13089e-06
6.13002e-06
6.12892e-06
6.1276e-06
6.12607e-06
6.12419e-06
6.12172e-06
6.11831e-06
6.11404e-06
6.10999e-06
6.10651e-06
6.10282e-06
6.09844e-06
6.09309e-06
6.08731e-06
6.08078e-06
6.07496e-06
6.0729e-06
6.0788e-06
6.07888e-06
6.11617e-06
6.12471e-06
6.12522e-06
6.1278e-06
6.127e-06
6.11777e-06
6.0901e-06
6.16658e-06
6.41612e-06
7.20051e-06
6.78993e-06
4.21767e-06
8.60379e-08
4.17985e-10
0
0
0
0
3.03084e-05
0.00201272
0.0074002
0.0295921
0.0712379
0.12896
0.193894
0.255425
0.304719
0.336661
0.347865
0.33847
0.304601
0.245809
0.170575
0.0946947
0.0381776
0.0066686
0.00197619
1.48681e-11
0
0
0
7.24876e-10
1.38833e-07
4.49274e-06
8.66708e-06
7.56433e-06
6.17161e-06
5.90265e-06
6.06321e-06
6.15913e-06
6.15459e-06
6.13743e-06
6.13394e-06
6.13467e-06
6.1344e-06
6.13399e-06
6.13389e-06
6.13365e-06
6.13307e-06
6.13219e-06
6.13107e-06
6.12974e-06
6.12819e-06
6.12631e-06
6.12388e-06
6.12053e-06
6.11622e-06
6.11202e-06
6.10837e-06
6.10456e-06
6.10012e-06
6.09467e-06
6.0887e-06
6.08195e-06
6.07571e-06
6.07288e-06
6.07851e-06
6.07851e-06
6.1166e-06
6.12673e-06
6.12384e-06
6.12445e-06
6.12547e-06
6.12765e-06
6.11865e-06
6.1058e-06
6.08388e-06
6.25346e-06
6.67078e-06
7.33657e-06
6.03515e-06
1.58042e-06
7.47734e-09
2.56849e-16
0
0
0
0
3.46148e-05
0.00225396
0.00837607
0.0319628
0.0754822
0.134988
0.200993
0.262158
0.308918
0.335918
0.340343
0.321258
0.276306
0.208643
0.131411
0.0629408
0.0192142
3.03359e-05
0.000120741
0
0
0
1.04463e-13
6.34723e-09
1.40429e-06
7.47872e-06
8.1525e-06
6.54429e-06
5.91164e-06
5.99498e-06
6.12882e-06
6.14746e-06
6.1339e-06
6.13348e-06
6.13762e-06
6.13803e-06
6.1366e-06
6.13567e-06
6.13515e-06
6.13443e-06
6.13335e-06
6.132e-06
6.13042e-06
6.12854e-06
6.12616e-06
6.12287e-06
6.11855e-06
6.11422e-06
6.11038e-06
6.10642e-06
6.10191e-06
6.09636e-06
6.0902e-06
6.08324e-06
6.07658e-06
6.07293e-06
6.07819e-06
6.07813e-06
6.11691e-06
6.12873e-06
6.12376e-06
6.12396e-06
6.12421e-06
6.12511e-06
6.12609e-06
6.12434e-06
6.11055e-06
6.08536e-06
6.1253e-06
6.34445e-06
7.07107e-06
6.97445e-06
4.53148e-06
1.1018e-07
5.45188e-10
6.31909e-20
0
0
0
0
0.000108111
0.000173863
0.0101933
0.0365674
0.0836326
0.145891
0.212743
0.271994
0.314088
0.333371
0.328504
0.297508
0.240536
0.166124
0.0912641
0.0350839
0.00533872
0.00157907
0
0
0
0
1.64814e-09
3.68572e-07
5.60694e-06
8.5768e-06
7.08103e-06
6.05336e-06
6.0081e-06
6.1621e-06
6.18143e-06
6.14204e-06
6.12745e-06
6.13342e-06
6.13872e-06
6.13907e-06
6.13784e-06
6.13676e-06
6.1357e-06
6.13439e-06
6.1328e-06
6.13091e-06
6.12856e-06
6.12535e-06
6.12105e-06
6.11661e-06
6.11258e-06
6.10844e-06
6.10385e-06
6.0982e-06
6.09186e-06
6.08466e-06
6.07761e-06
6.07309e-06
6.07785e-06
6.0777e-06
6.11703e-06
6.1307e-06
6.12409e-06
6.12427e-06
6.12446e-06
6.12462e-06
6.1252e-06
6.12591e-06
6.12698e-06
6.11802e-06
6.10192e-06
6.07151e-06
6.20345e-06
6.56185e-06
7.40731e-06
5.74388e-06
2.39317e-06
2.18619e-11
3.11557e-13
0
0
0
0
3.27447e-11
0.000386787
0.00120513
0.0136326
0.0445201
0.0964038
0.161816
0.228557
0.283698
0.318286
0.327199
0.310097
0.265299
0.197214
0.120718
0.054675
0.014695
0.00399597
3.6657e-05
0
0
0
1.11271e-10
1.8057e-08
3.1555e-06
8.23024e-06
7.39745e-06
5.92762e-06
5.75173e-06
6.05583e-06
6.20896e-06
6.18827e-06
6.14675e-06
6.13544e-06
6.1381e-06
6.14002e-06
6.13952e-06
6.13826e-06
6.13685e-06
6.13524e-06
6.13335e-06
6.13103e-06
6.12789e-06
6.12364e-06
6.11913e-06
6.1149e-06
6.11055e-06
6.10586e-06
6.10013e-06
6.09361e-06
6.08617e-06
6.07872e-06
6.07334e-06
6.07754e-06
6.07728e-06
6.11711e-06
6.13259e-06
6.12469e-06
6.12485e-06
6.12504e-06
6.12521e-06
6.12541e-06
6.12564e-06
6.12657e-06
6.12729e-06
6.12605e-06
6.11133e-06
6.08695e-06
6.09272e-06
6.35361e-06
6.92876e-06
7.29572e-06
4.46255e-06
6.29678e-07
2.98139e-09
7.38054e-16
0
0
0
0
7.51914e-08
0.000605857
0.0019519
0.0186666
0.0564599
0.114165
0.182316
0.246889
0.294777
0.317932
0.313733
0.280881
0.221276
0.145976
0.0740724
0.0250851
0.00296974
0.00072417
0
0
0
1.74187e-14
6.53711e-09
1.54172e-06
9.10057e-06
9.72267e-06
6.97342e-06
5.77443e-06
5.81449e-06
6.07176e-06
6.16813e-06
6.16103e-06
6.14524e-06
6.14135e-06
6.14152e-06
6.14104e-06
6.13972e-06
6.13806e-06
6.13614e-06
6.13384e-06
6.13079e-06
6.12661e-06
6.12207e-06
6.11766e-06
6.11307e-06
6.10823e-06
6.1024e-06
6.09572e-06
6.08799e-06
6.08021e-06
6.07385e-06
6.0771e-06
6.07675e-06
6.11656e-06
6.13454e-06
6.12517e-06
6.12535e-06
6.12553e-06
6.12573e-06
6.12593e-06
6.12611e-06
6.12633e-06
6.12688e-06
6.12785e-06
6.12881e-06
6.12195e-06
6.10194e-06
6.07184e-06
6.19621e-06
6.57985e-06
7.41652e-06
6.54312e-06
3.39745e-06
1.98913e-07
9.87086e-10
6.78984e-16
0
0
0
0
6.33026e-07
0.00153039
0.00564442
0.0284708
0.0743047
0.139092
0.210455
0.272567
0.3126
0.322594
0.30157
0.249444
0.173998
0.094443
0.0304913
0.00156267
0.00142969
0.000451303
0.000138473
2.20872e-06
0
1.9659e-12
1.15074e-08
2.29987e-06
8.60065e-06
8.35523e-06
6.68987e-06
6.06192e-06
6.0501e-06
6.12656e-06
6.15036e-06
6.14776e-06
6.14424e-06
6.14293e-06
6.14181e-06
6.14023e-06
6.1383e-06
6.136e-06
6.13303e-06
6.12893e-06
6.12439e-06
6.11982e-06
6.11501e-06
6.11002e-06
6.10415e-06
6.09729e-06
6.08942e-06
6.08118e-06
6.07426e-06
6.07703e-06
6.07642e-06
6.11716e-06
6.13597e-06
6.1257e-06
6.12592e-06
6.12615e-06
6.1264e-06
6.12665e-06
6.12691e-06
6.12716e-06
6.12744e-06
6.12775e-06
6.12873e-06
6.12976e-06
6.13047e-06
6.11578e-06
6.09533e-06
6.07923e-06
6.30969e-06
6.84491e-06
7.41323e-06
6.3103e-06
3.26359e-06
1.46039e-07
5.58276e-10
0
0
0
0
0
3.09308e-05
0.00173156
0.00594121
0.0276416
0.0690097
0.125971
0.188265
0.242908
0.278904
0.288039
0.267681
0.219459
0.153478
0.0897018
0.0436383
0.0175844
0.00562541
0.00106574
0.000235767
0
0
2.28567e-09
4.70032e-07
3.83909e-06
6.32627e-06
6.511e-06
6.24301e-06
6.14144e-06
6.13992e-06
6.14848e-06
6.14968e-06
6.14834e-06
6.14689e-06
6.14528e-06
6.14334e-06
6.14102e-06
6.13813e-06
6.1342e-06
6.12975e-06
6.12502e-06
6.11978e-06
6.11443e-06
6.10828e-06
6.10127e-06
6.09282e-06
6.08429e-06
6.07561e-06
6.077e-06
6.07569e-06
6.11447e-06
6.13951e-06
)
;

boundaryField
{
    inlet
    {
        type            freestream;
        freestreamValue uniform 1e-05;
        value           nonuniform List<scalar> 
27
(
6.10199e-06
6.10233e-06
6.10276e-06
6.10328e-06
6.10389e-06
6.10459e-06
6.10539e-06
6.10629e-06
6.10729e-06
6.10839e-06
6.10959e-06
6.11089e-06
6.11229e-06
6.11378e-06
6.11537e-06
6.11701e-06
6.11879e-06
6.12068e-06
6.12269e-06
6.12471e-06
6.12673e-06
6.12873e-06
6.1307e-06
6.13259e-06
6.13454e-06
6.13597e-06
6.13951e-06
)
;
    }
    outlet
    {
        type            freestream;
        freestreamValue uniform 1e-05;
        value           nonuniform List<scalar> 
78
(
6.1257e-06
6.12592e-06
6.12615e-06
6.1264e-06
6.12665e-06
6.12691e-06
6.12716e-06
6.12744e-06
6.12775e-06
6.12873e-06
6.12976e-06
6.13047e-06
6.11578e-06
6.09533e-06
6.07923e-06
6.30969e-06
6.84491e-06
7.41323e-06
6.3103e-06
3.26359e-06
1.46039e-07
5.58276e-10
0
0
0
0
0
3.09308e-05
0.00173156
0.00594121
0.0276416
0.0690097
0.125971
0.188265
0.242908
0.278904
0.288039
0.267681
0.219459
0.153478
0.0897018
0.0436383
0.0175844
0.00562541
0.00106574
0.000235767
0
0
2.28567e-09
4.70032e-07
3.83909e-06
6.32627e-06
6.511e-06
6.24301e-06
6.14144e-06
6.13992e-06
6.14848e-06
6.14968e-06
6.14834e-06
6.14689e-06
6.14528e-06
6.14334e-06
6.14102e-06
6.13813e-06
6.1342e-06
6.12975e-06
6.12502e-06
6.11978e-06
6.11443e-06
6.10828e-06
6.10127e-06
6.09282e-06
6.08429e-06
6.07561e-06
6.077e-06
6.07569e-06
6.11447e-06
6.13951e-06
)
;
    }
    walls
    {
        type            nutUSpaldingWallFunction;
        value           nonuniform List<scalar> 0();
    }
    frontAndBack
    {
        type            empty;
    }
    procBoundary7to3
    {
        type            processor;
        value           nonuniform List<scalar> 
16
(
5.9126e-06
7.99282e-06
6.30097e-06
6.00832e-06
6.1245e-06
6.14373e-06
6.1309e-06
6.1262e-06
6.1245e-06
6.1245e-06
6.1237e-06
6.12355e-06
6.12391e-06
6.12452e-06
6.12499e-06
6.12549e-06
)
;
    }
    procBoundary7to6
    {
        type            processor;
        value           nonuniform List<scalar> 
91
(
6.10177e-06
6.10214e-06
6.10214e-06
6.08339e-06
6.08339e-06
6.08144e-06
6.08144e-06
6.07236e-06
6.07461e-06
6.07461e-06
6.07706e-06
6.07287e-06
6.07287e-06
6.08966e-06
6.08588e-06
6.08175e-06
6.08175e-06
6.09892e-06
6.09609e-06
6.09346e-06
6.09346e-06
6.1113e-06
6.10917e-06
6.10642e-06
6.10307e-06
6.10307e-06
6.11772e-06
6.11695e-06
6.11603e-06
6.11496e-06
6.11371e-06
6.11371e-06
6.12027e-06
6.12025e-06
6.12022e-06
6.12013e-06
6.11994e-06
6.11963e-06
6.11918e-06
6.11918e-06
6.12362e-06
6.123e-06
6.12242e-06
6.122e-06
6.1217e-06
6.12149e-06
6.12136e-06
6.12127e-06
6.12122e-06
6.12119e-06
6.12118e-06
6.12116e-06
6.12116e-06
3.82503e-17
0
0
0.00119939
0.0046903
0.0287819
0.0763065
0.137208
0.199166
0.254602
0.29995
0.333765
0.356179
0.368979
0.374736
0.374525
0.360827
0.3252
0.26251
0.176663
0.0878326
0.026413
0.000115564
3.86664e-05
0
0
0
4.41112e-09
1.06742e-06
6.91917e-06
7.65574e-06
6.29978e-06
5.96299e-06
6.08767e-06
6.14846e-06
6.13464e-06
6.12304e-06
6.12304e-06
)
;
    }
}


// ************************************************************************* //
