/*--------------------------------*- C++ -*----------------------------------*\
| =========                 |                                                 |
| \\      /  F ield         | OpenFOAM: The Open Source CFD Toolbox           |
|  \\    /   O peration     | Version:  2306                                  |
|   \\  /    A nd           | Website:  www.openfoam.com                      |
|    \\/     M anipulation  |                                                 |
\*---------------------------------------------------------------------------*/
FoamFile
{
    version     2.0;
    format      ascii;
    arch        "LSB;label=32;scalar=64";
    class       volScalarField;
    location    "850";
    object      turbulenceProperties:I;
}
// * * * * * * * * * * * * * * * * * * * * * * * * * * * * * * * * * * * * * //

dimensions      [0 0 0 0 0 0 0];

internalField   nonuniform List<scalar> 
1340
(
3.02095e-05
2.6468e-05
3.04409e-05
2.60157e-05
2.60488e-05
3.04458e-05
1.6809e-05
2.58545e-05
2.57678e-05
3.05166e-05
1.58701e-05
2.15151e-05
1.67317e-05
2.57262e-05
2.55262e-05
3.06279e-05
1.89125e-05
2.05118e-05
1.56333e-05
2.13214e-05
1.66515e-05
2.56106e-05
2.53292e-05
3.0741e-05
2.24272e-05
2.10249e-05
2.10376e-05
1.85359e-05
2.02301e-05
1.53805e-05
2.11307e-05
1.65735e-05
2.55118e-05
2.51869e-05
3.08472e-05
2.40793e-05
2.33383e-05
2.24036e-05
2.19434e-05
2.05574e-05
2.06508e-05
1.81451e-05
1.99412e-05
1.5115e-05
2.09475e-05
1.64972e-05
2.54326e-05
2.5097e-05
3.09447e-05
2.7089e-05
2.61617e-05
2.52408e-05
2.43342e-05
2.34133e-05
2.2733e-05
2.18333e-05
2.14408e-05
2.00738e-05
2.025e-05
1.77419e-05
1.96464e-05
1.4838e-05
2.07703e-05
1.64231e-05
2.53684e-05
2.50479e-05
3.10466e-05
3.0466e-05
2.9577e-05
2.86931e-05
2.78169e-05
2.69501e-05
2.60938e-05
2.52501e-05
2.44077e-05
2.35795e-05
2.27231e-05
2.21051e-05
2.12417e-05
2.09179e-05
1.95728e-05
1.98342e-05
1.73251e-05
1.93441e-05
1.45495e-05
2.05956e-05
1.63526e-05
2.53143e-05
2.50311e-05
3.11378e-05
3.4381e-05
3.36457e-05
3.28939e-05
3.21279e-05
3.13513e-05
3.05668e-05
2.97777e-05
2.89866e-05
2.81959e-05
2.74076e-05
2.66233e-05
2.5845e-05
2.50735e-05
2.43127e-05
2.35486e-05
2.27997e-05
2.20093e-05
2.1455e-05
2.06293e-05
2.03754e-05
1.90548e-05
1.94037e-05
1.68956e-05
1.90342e-05
1.42507e-05
2.04218e-05
1.62855e-05
2.52679e-05
2.50561e-05
3.12279e-05
3.79239e-05
3.75974e-05
3.72466e-05
3.68696e-05
3.64648e-05
3.60309e-05
3.5568e-05
3.5076e-05
3.45558e-05
3.40088e-05
3.34363e-05
3.28399e-05
3.22221e-05
3.15849e-05
3.09314e-05
3.02635e-05
2.95843e-05
2.88965e-05
2.8203e-05
2.75061e-05
2.6808e-05
2.61103e-05
2.54143e-05
2.47219e-05
2.40331e-05
2.33539e-05
2.26676e-05
2.19982e-05
2.12751e-05
2.07857e-05
1.9999e-05
1.98152e-05
1.85222e-05
1.89599e-05
1.6455e-05
1.87172e-05
1.3944e-05
2.02493e-05
1.62201e-05
2.52283e-05
2.51035e-05
3.13167e-05
5.1864e-06
1.2737e-06
0
0
0.000196585
0.000281924
0.00262894
0.00938083
0.0185802
0.0279846
0.0358394
0.0410285
0.0426424
0.0396664
0.0305655
0.0100174
0.0299878
0.0390899
0.0406631
0.0358174
0.0261289
0.0146474
0.00534554
0.000488942
0.000168587
0
0
0
5.1665e-06
1.90022e-05
3.72053e-05
3.93865e-05
3.68693e-05
3.56921e-05
3.55948e-05
3.54978e-05
3.52447e-05
3.49659e-05
3.46922e-05
3.44033e-05
3.40905e-05
3.37536e-05
3.33914e-05
3.30024e-05
3.25865e-05
3.2144e-05
3.16766e-05
3.11855e-05
3.06721e-05
3.01384e-05
2.95865e-05
2.90192e-05
2.84382e-05
2.78463e-05
2.72461e-05
2.66399e-05
2.60301e-05
2.54188e-05
2.48068e-05
2.41951e-05
2.35855e-05
2.29771e-05
2.2378e-05
2.17684e-05
2.11785e-05
2.05235e-05
2.00999e-05
1.93533e-05
1.92398e-05
1.79768e-05
1.85042e-05
1.60059e-05
1.83929e-05
1.36312e-05
2.00745e-05
1.61588e-05
2.51926e-05
2.51764e-05
3.14048e-05
2.86606e-05
6.36982e-06
1.61108e-06
0
0
8.24085e-06
0.00070862
0.000943127
0.00592434
0.0139242
0.0230591
0.0313257
0.0373483
0.0401437
0.0387615
0.0319606
0.0161717
0.0245804
0.0353963
0.0384068
0.0349535
0.0264329
0.015614
0.0061727
0.000852971
0.000245424
0
0
0
3.09398e-06
1.08103e-05
3.23809e-05
3.67733e-05
3.43612e-05
3.27209e-05
3.24773e-05
3.24335e-05
3.22327e-05
3.19874e-05
3.1751e-05
3.15006e-05
3.12213e-05
3.0916e-05
3.05873e-05
3.02348e-05
2.98578e-05
2.94573e-05
2.9035e-05
2.85921e-05
2.81304e-05
2.76523e-05
2.71601e-05
2.66555e-05
2.61414e-05
2.56199e-05
2.50934e-05
2.45639e-05
2.40332e-05
2.35021e-05
2.29706e-05
2.24407e-05
2.19102e-05
2.13894e-05
2.08552e-05
2.03442e-05
1.97582e-05
1.94009e-05
1.86954e-05
1.86516e-05
1.74216e-05
1.80387e-05
1.55501e-05
1.80621e-05
1.33127e-05
1.98993e-05
1.60952e-05
2.51585e-05
2.5251e-05
3.14977e-05
2.88546e-05
2.67845e-05
8.46787e-06
2.04946e-06
0
0
0
0.000391111
0.000500199
0.00318311
0.00974549
0.0182835
0.0267658
0.0335275
0.0374226
0.0374978
0.0326846
0.0207849
0.0187346
0.0316444
0.0360674
0.033961
0.0265934
0.0164202
0.00697197
0.0012937
0.000295895
0
0
0
7.77265e-07
1.78691e-06
2.51832e-05
3.305e-05
3.1817e-05
3.00566e-05
2.96979e-05
2.97145e-05
2.95509e-05
2.92936e-05
2.90559e-05
2.88296e-05
2.85824e-05
2.83058e-05
2.80043e-05
2.76809e-05
2.73364e-05
2.69721e-05
2.65888e-05
2.61887e-05
2.5774e-05
2.53472e-05
2.49101e-05
2.44652e-05
2.40147e-05
2.35608e-05
2.31054e-05
2.26502e-05
2.21952e-05
2.17406e-05
2.12876e-05
2.08327e-05
2.03888e-05
1.9929e-05
1.94959e-05
1.89801e-05
1.86894e-05
1.80267e-05
1.80513e-05
1.68582e-05
1.75628e-05
1.50896e-05
1.77255e-05
1.29905e-05
1.97149e-05
1.60275e-05
2.51359e-05
2.53289e-05
3.15956e-05
2.53707e-05
2.67124e-05
2.55026e-05
1.25671e-05
2.93592e-06
0
0
0
7.42507e-05
0.000116803
0.00128066
0.00623882
0.0138281
0.0222588
0.0296323
0.0345457
0.0359558
0.0328657
0.0237215
0.0120793
0.0279088
0.0337082
0.0328692
0.0265885
0.0170643
0.00769318
0.00171232
0.000346971
0
0
0
6.42961e-08
5.59085e-06
2.07603e-05
2.95744e-05
2.9451e-05
2.74775e-05
2.68501e-05
2.70061e-05
2.70591e-05
2.6882e-05
2.66358e-05
2.6401e-05
2.61669e-05
2.59129e-05
2.56337e-05
2.53334e-05
2.50154e-05
2.46808e-05
2.43317e-05
2.39701e-05
2.35988e-05
2.32195e-05
2.28348e-05
2.24473e-05
2.20586e-05
2.16708e-05
2.1285e-05
2.09017e-05
2.05199e-05
2.01403e-05
1.97586e-05
1.93892e-05
1.90024e-05
1.86457e-05
1.81995e-05
1.7976e-05
1.73559e-05
1.74486e-05
1.62914e-05
1.70861e-05
1.46234e-05
1.73893e-05
1.26418e-05
1.95416e-05
1.59317e-05
2.51126e-05
2.54189e-05
3.17269e-05
2.37083e-05
2.36376e-05
2.50217e-05
2.3915e-05
1.64535e-05
3.80784e-06
5.53518e-08
0
0
1.37379e-06
0.000462251
0.000491256
0.00340149
0.00960866
0.0175346
0.0253117
0.0312576
0.0341054
0.0328095
0.0261454
0.00972016
0.0236427
0.0311559
0.0317573
0.0266843
0.0179137
0.00866027
0.00220438
0.000331835
0.000104276
0
0
0
4.30941e-06
1.49558e-05
2.5706e-05
2.82006e-05
2.65089e-05
2.4865e-05
2.44076e-05
2.44593e-05
2.44434e-05
2.42753e-05
2.40484e-05
2.38172e-05
2.35794e-05
2.33249e-05
2.30513e-05
2.27622e-05
2.24616e-05
2.21502e-05
2.18315e-05
2.15077e-05
2.11808e-05
2.08539e-05
2.05284e-05
2.02068e-05
1.98888e-05
1.95762e-05
1.92669e-05
1.89606e-05
1.86529e-05
1.83582e-05
1.80447e-05
1.77666e-05
1.73917e-05
1.72367e-05
1.66646e-05
1.68218e-05
1.57127e-05
1.65841e-05
1.41638e-05
1.70244e-05
1.2333e-05
1.93356e-05
1.58625e-05
2.50695e-05
2.55003e-05
3.18147e-05
2.22343e-05
2.18942e-05
2.21174e-05
2.24649e-05
2.2013e-05
1.93826e-05
7.81498e-06
1.87507e-06
1.32799e-08
0
0
0.000159294
0.000277127
0.00104835
0.00475093
0.0106675
0.017765
0.0244763
0.0292719
0.0308735
0.0281693
0.0195851
0.0129797
0.0251318
0.0289437
0.0268579
0.0204335
0.0121818
0.00521735
0.000966093
0.000313853
4.61901e-05
0
0
4.76193e-07
3.34873e-06
1.03808e-05
2.04066e-05
2.3912e-05
2.34029e-05
2.21951e-05
2.168e-05
2.1633e-05
2.15997e-05
2.14524e-05
2.1247e-05
2.10324e-05
2.08114e-05
2.05786e-05
2.03343e-05
2.00799e-05
1.98209e-05
1.95597e-05
1.92988e-05
1.904e-05
1.87858e-05
1.85389e-05
1.82987e-05
1.8067e-05
1.78406e-05
1.76196e-05
1.73977e-05
1.71902e-05
1.69628e-05
1.67735e-05
1.64877e-05
1.64045e-05
1.59032e-05
1.61134e-05
1.5099e-05
1.59986e-05
1.37285e-05
1.65388e-05
1.20949e-05
1.88859e-05
1.54896e-05
2.45086e-05
2.48593e-05
3.06738e-05
2.04341e-05
2.02425e-05
2.02903e-05
2.0179e-05
2.01022e-05
2.05977e-05
1.94856e-05
1.56182e-05
2.05945e-06
5.47272e-07
0
0
4.97225e-06
0.00010101
0.000552484
0.000879524
0.00411651
0.00937711
0.0158261
0.0220401
0.026497
0.0278509
0.0249408
0.0159551
0.0144126
0.023803
0.0259882
0.0229313
0.0165317
0.00931077
0.00367761
0.000473488
0.000219136
1.48083e-05
0
0
2.82022e-07
2.90012e-06
9.6997e-06
1.81159e-05
2.07246e-05
2.00932e-05
1.91126e-05
1.87797e-05
1.8765e-05
1.87035e-05
1.85469e-05
1.83589e-05
1.81706e-05
1.79786e-05
1.77798e-05
1.75791e-05
1.73788e-05
1.71843e-05
1.69969e-05
1.68196e-05
1.6655e-05
1.65025e-05
1.63643e-05
1.62347e-05
1.61148e-05
1.5995e-05
1.58909e-05
1.57663e-05
1.56803e-05
1.54974e-05
1.55e-05
1.50784e-05
1.53563e-05
1.44325e-05
1.53989e-05
1.32355e-05
1.61085e-05
1.18335e-05
1.86433e-05
1.55161e-05
2.44651e-05
2.51514e-05
3.08099e-05
1.86125e-05
1.84834e-05
1.86057e-05
1.85127e-05
1.82859e-05
1.82203e-05
1.84807e-05
1.87705e-05
1.68739e-05
1.00131e-05
2.31589e-06
3.29368e-08
0
0
0
9.92173e-05
0.000534105
0.000723017
0.00375022
0.00869176
0.0147602
0.0205636
0.0245688
0.025394
0.021824
0.0114171
0.0162057
0.0227673
0.0231667
0.0191794
0.0128781
0.00658411
0.00210126
0.000118978
0.000137704
0
0
0
2.79416e-07
3.22303e-06
1.12983e-05
1.68021e-05
1.76709e-05
1.67827e-05
1.6171e-05
1.60577e-05
1.6038e-05
1.59318e-05
1.57737e-05
1.5611e-05
1.5455e-05
1.53032e-05
1.51563e-05
1.50224e-05
1.49034e-05
1.48028e-05
1.47232e-05
1.46641e-05
1.46257e-05
1.46018e-05
1.45919e-05
1.45831e-05
1.459e-05
1.45738e-05
1.45955e-05
1.45157e-05
1.46075e-05
1.42661e-05
1.46161e-05
1.37753e-05
1.48217e-05
1.2738e-05
1.57158e-05
1.15193e-05
1.84531e-05
1.54709e-05
2.44936e-05
2.53663e-05
3.09289e-05
1.67391e-05
1.68962e-05
1.68574e-05
1.6707e-05
1.65459e-05
1.64588e-05
1.65428e-05
1.7011e-05
1.66477e-05
1.40851e-05
4.7198e-06
1.19934e-06
0
0
0
0
9.35509e-05
0.000521076
0.000728308
0.00369285
0.00846601
0.0142403
0.0196052
0.0229981
0.023019
0.0183894
0.00483052
0.0174566
0.0214299
0.0201988
0.0155063
0.00943284
0.00419579
0.000908147
0.000246413
1.30456e-06
0
0
0
1.73299e-06
5.55272e-06
1.24155e-05
1.4804e-05
1.45133e-05
1.3782e-05
1.35179e-05
1.3485e-05
1.34203e-05
1.32984e-05
1.31721e-05
1.30613e-05
1.2967e-05
1.28957e-05
1.28495e-05
1.28324e-05
1.28464e-05
1.28898e-05
1.29606e-05
1.30496e-05
1.31554e-05
1.32609e-05
1.33795e-05
1.3469e-05
1.35925e-05
1.36079e-05
1.37807e-05
1.35168e-05
1.39303e-05
1.31709e-05
1.42863e-05
1.22833e-05
1.5358e-05
1.12309e-05
1.82981e-05
1.54048e-05
2.45536e-05
2.54847e-05
3.10391e-05
1.50419e-05
1.52206e-05
1.52028e-05
1.51067e-05
1.50192e-05
1.49149e-05
1.48209e-05
1.48325e-05
1.50525e-05
1.54444e-05
1.45128e-05
9.67176e-06
2.29433e-06
3.32099e-08
0
0
0
0
9.63293e-05
0.000518515
0.000875002
0.00389186
0.00861173
0.0141307
0.0189798
0.0215682
0.0205046
0.0143763
0.00962521
0.0180322
0.0196997
0.0170266
0.011854
0.00629587
0.00218456
3.39698e-05
8.21568e-05
0
0
0
1.74494e-07
2.31739e-06
7.65987e-06
1.13576e-05
1.18565e-05
1.13078e-05
1.09544e-05
1.08944e-05
1.08721e-05
1.08124e-05
1.07537e-05
1.07253e-05
1.07372e-05
1.07889e-05
1.08826e-05
1.10187e-05
1.11907e-05
1.13929e-05
1.16117e-05
1.18434e-05
1.20684e-05
1.22988e-05
1.249e-05
1.27064e-05
1.28064e-05
1.30469e-05
1.28577e-05
1.33219e-05
1.26451e-05
1.38095e-05
1.19017e-05
1.50424e-05
1.10132e-05
1.81713e-05
1.53371e-05
2.46398e-05
2.5509e-05
3.11665e-05
1.34177e-05
1.35941e-05
1.3591e-05
1.35212e-05
1.34624e-05
1.33928e-05
1.33445e-05
1.32576e-05
1.32001e-05
1.32715e-05
1.36878e-05
1.36561e-05
1.19174e-05
4.32551e-06
1.15971e-06
4.31675e-09
0
0
0
0
0.000138694
0.00013081
0.00114875
0.00432521
0.00907855
0.0143266
0.01852
0.0200652
0.0176251
0.00914778
0.0130966
0.0178646
0.0174454
0.0136011
0.00830583
0.0036074
0.0007067
0.000229296
0
0
0
0
1.44498e-06
4.44361e-06
7.98274e-06
9.03118e-06
8.73006e-06
8.30732e-06
8.17466e-06
8.18639e-06
8.23103e-06
8.31517e-06
8.46804e-06
8.69004e-06
8.96705e-06
9.28536e-06
9.63154e-06
9.99422e-06
1.03585e-05
1.0719e-05
1.10589e-05
1.13905e-05
1.16696e-05
1.19605e-05
1.21269e-05
1.24137e-05
1.22882e-05
1.27871e-05
1.21887e-05
1.3382e-05
1.15715e-05
1.47555e-05
1.08276e-05
1.80629e-05
1.52489e-05
2.47326e-05
2.5406e-05
3.13269e-05
1.23091e-05
1.24514e-05
1.24738e-05
1.24165e-05
1.23595e-05
1.23165e-05
1.22926e-05
1.22399e-05
1.21808e-05
1.21031e-05
1.21242e-05
1.22809e-05
1.27089e-05
1.18719e-05
9.222e-06
4.97517e-07
1.99323e-07
0
0
0
0
2.53245e-06
0.000239374
0.000267292
0.00159707
0.00504018
0.00983938
0.0147166
0.0180391
0.0182584
0.0140575
0.00555148
0.0148857
0.0168272
0.0145939
0.0100085
0.00510133
0.00159247
6.59736e-05
5.18991e-05
0
0
0
5.64481e-07
1.07815e-06
3.27883e-06
4.06669e-06
4.50144e-06
4.56377e-06
4.68678e-06
5.10204e-06
5.66369e-06
6.24799e-06
6.83325e-06
7.41453e-06
7.98097e-06
8.5231e-06
9.03927e-06
9.52386e-06
9.98109e-06
1.04007e-05
1.07999e-05
1.1137e-05
1.1471e-05
1.16798e-05
1.19858e-05
1.19137e-05
1.24213e-05
1.19088e-05
1.30883e-05
1.14118e-05
1.45621e-05
1.07982e-05
1.80071e-05
1.51411e-05
2.48462e-05
2.50634e-05
3.16493e-05
1.11162e-05
1.12813e-05
1.12965e-05
1.12382e-05
1.1185e-05
1.11728e-05
1.11808e-05
1.11118e-05
1.10962e-05
1.10733e-05
1.10095e-05
1.09737e-05
1.109e-05
1.13315e-05
1.15001e-05
1.00928e-05
6.08744e-06
1.75417e-06
4.792e-08
0
0
0
0
1.76387e-05
0.000278931
0.000181299
0.00221839
0.00602967
0.0108125
0.0151166
0.017259
0.0157788
0.00896358
0.0109503
0.0153383
0.0147863
0.0111229
0.00634012
0.00241299
0.000283712
0.000189446
0
0
0
8.33257e-08
1.2321e-06
2.82775e-06
6.0647e-06
5.4862e-06
4.64722e-06
4.84186e-06
5.49439e-06
6.18149e-06
6.79654e-06
7.35487e-06
7.88452e-06
8.38865e-06
8.86768e-06
9.31514e-06
9.73721e-06
1.01268e-05
1.04996e-05
1.08186e-05
1.11296e-05
1.1323e-05
1.15952e-05
1.15284e-05
1.20136e-05
1.15395e-05
1.27043e-05
1.10649e-05
1.42586e-05
1.04637e-05
1.78479e-05
1.48518e-05
2.4841e-05
2.44109e-05
3.21753e-05
1.15442e-05
1.16261e-05
1.16198e-05
1.15577e-05
1.14984e-05
1.1458e-05
1.14342e-05
1.13709e-05
1.13289e-05
1.12798e-05
1.1203e-05
1.11348e-05
1.10831e-05
1.1069e-05
1.11463e-05
1.13925e-05
1.09409e-05
9.25124e-06
4.80258e-06
1.53124e-06
5.26184e-08
0
0
0
0
2.98706e-05
0.000388878
0.000590762
0.00318932
0.00736199
0.0120871
0.0157263
0.0165636
0.0131507
0.00535462
0.0135235
0.0149923
0.0124447
0.00785296
0.00322737
0.000381667
0.000253014
0.00017192
7.75312e-05
1.35228e-05
0
1.4837e-07
1.46927e-06
6.52775e-06
9.27273e-06
8.93443e-06
8.34059e-06
8.24272e-06
8.45581e-06
8.75135e-06
9.06058e-06
9.37936e-06
9.70663e-06
1.00329e-05
1.0354e-05
1.06632e-05
1.0968e-05
1.12391e-05
1.15019e-05
1.1668e-05
1.18937e-05
1.18505e-05
1.22672e-05
1.18858e-05
1.29138e-05
1.14777e-05
1.44262e-05
1.0805e-05
1.80244e-05
1.44717e-05
2.50833e-05
2.32635e-05
3.38861e-05
1.06726e-05
1.07085e-05
1.07236e-05
1.07448e-05
1.07588e-05
1.0773e-05
1.08005e-05
1.08335e-05
1.08612e-05
1.0877e-05
1.08922e-05
1.09195e-05
1.09435e-05
1.0969e-05
1.09911e-05
1.11118e-05
1.1321e-05
1.14695e-05
1.09636e-05
9.5317e-06
4.84225e-06
1.44443e-06
0
0
0
0
0
7.53411e-05
0.000357601
0.000672602
0.00294501
0.00641604
0.0101629
0.0128679
0.0131824
0.00991137
0.00534579
0.0112021
0.011892
0.00964448
0.00620922
0.00313666
0.00113874
0.000160965
0.000149594
6.1519e-05
0
0
1.31163e-06
5.14258e-06
8.87718e-06
1.00607e-05
1.00913e-05
9.99248e-06
1.00048e-05
1.00849e-05
1.01862e-05
1.02961e-05
1.04115e-05
1.05298e-05
1.06481e-05
1.07729e-05
1.08853e-05
1.10032e-05
1.10371e-05
1.11099e-05
1.09529e-05
1.12656e-05
1.07924e-05
1.18094e-05
1.01132e-05
1.33452e-05
8.84623e-06
1.70385e-05
1.31718e-05
2.39544e-05
2.32311e-05
3.37691e-05
)
;

boundaryField
{
    inlet
    {
        type            calculated;
        value           nonuniform List<scalar> 
27
(
7.7275e-05
7.73429e-05
7.74506e-05
7.75867e-05
7.77308e-05
7.78801e-05
7.80379e-05
7.82028e-05
7.83741e-05
7.85461e-05
7.87181e-05
7.88871e-05
7.90501e-05
7.92038e-05
7.93446e-05
7.94688e-05
7.9579e-05
7.94048e-05
7.94414e-05
7.9442e-05
7.93891e-05
7.92764e-05
7.90879e-05
7.88143e-05
7.84251e-05
7.80385e-05
7.72941e-05
)
;
    }
    outlet
    {
        type            calculated;
        value           nonuniform List<scalar> 
78
(
9.61468e-06
9.67052e-06
9.69896e-06
9.73571e-06
9.76319e-06
9.79095e-06
9.83668e-06
9.88958e-06
9.93542e-06
9.96582e-06
9.99557e-06
1.00405e-05
1.00839e-05
1.0129e-05
1.0169e-05
1.02969e-05
1.04984e-05
1.06282e-05
1.01543e-05
8.8729e-06
4.58851e-06
1.39971e-06
0
0
0
0
0
7.55174e-05
0.000357193
0.000653255
0.00293184
0.00640463
0.0101565
0.0128717
0.0132037
0.00996292
0.00516852
0.0111433
0.0118601
0.00963103
0.00620776
0.00314136
0.00114599
0.000130695
0.000146103
5.99919e-05
0
0
1.22643e-06
4.85215e-06
8.41418e-06
9.54467e-06
9.56652e-06
9.45716e-06
9.44493e-06
9.48848e-06
9.54483e-06
9.60378e-06
9.66351e-06
9.72382e-06
9.78236e-06
9.85102e-06
9.90558e-06
9.9793e-06
9.94921e-06
1.0005e-05
9.74091e-06
1.01707e-05
9.42814e-06
1.08895e-05
8.27971e-06
1.27767e-05
4.57561e-06
1.67161e-05
1.24648e-05
2.35483e-05
2.32592e-05
3.28543e-05
)
;
    }
    walls
    {
        type            calculated;
        value           nonuniform List<scalar> 0();
    }
    frontAndBack
    {
        type            empty;
    }
    procBoundary7to3
    {
        type            processor;
        value           nonuniform List<scalar> 
16
(
3.42823e-05
3.45162e-05
3.00549e-05
2.77382e-05
2.60851e-05
2.4114e-05
2.18311e-05
1.97134e-05
1.68238e-05
1.68238e-05
1.51016e-05
1.34785e-05
1.23726e-05
1.11314e-05
1.16553e-05
1.05905e-05
)
;
    }
    procBoundary7to6
    {
        type            processor;
        value           nonuniform List<scalar> 
91
(
3.01653e-05
2.69084e-05
2.69084e-05
2.62655e-05
2.62655e-05
1.68751e-05
1.68751e-05
1.60885e-05
2.17074e-05
2.17074e-05
1.92685e-05
2.07818e-05
2.07818e-05
2.28905e-05
2.14745e-05
2.14092e-05
2.14092e-05
2.47232e-05
2.39227e-05
2.29542e-05
2.29542e-05
2.80576e-05
2.70463e-05
2.60471e-05
2.50629e-05
2.50629e-05
3.19367e-05
3.09438e-05
2.99603e-05
2.89891e-05
2.80315e-05
2.80315e-05
3.66135e-05
3.57656e-05
3.49025e-05
3.40266e-05
3.31418e-05
3.22513e-05
3.13584e-05
3.13584e-05
4.11388e-05
4.07395e-05
4.03127e-05
3.98561e-05
3.93682e-05
3.88485e-05
3.8297e-05
3.77139e-05
3.71005e-05
3.6459e-05
3.57903e-05
3.50966e-05
3.50966e-05
4.61224e-08
0
0
0.000579452
0.000546479
0.00511479
0.0135162
0.0235555
0.0329665
0.0403001
0.0446038
0.0449589
0.040221
0.0283516
0.016741
0.0352284
0.0427811
0.0428698
0.036573
0.0256994
0.0136203
0.00457241
0.000117737
5.82851e-05
0
0
0
7.06438e-06
2.66466e-05
4.20874e-05
4.27313e-05
4.01775e-05
3.92072e-05
3.90723e-05
3.88663e-05
3.85499e-05
3.82339e-05
3.82339e-05
)
;
    }
}


// ************************************************************************* //
