/*--------------------------------*- C++ -*----------------------------------*\
| =========                 |                                                 |
| \\      /  F ield         | OpenFOAM: The Open Source CFD Toolbox           |
|  \\    /   O peration     | Version:  2306                                  |
|   \\  /    A nd           | Website:  www.openfoam.com                      |
|    \\/     M anipulation  |                                                 |
\*---------------------------------------------------------------------------*/
FoamFile
{
    version     2.0;
    format      ascii;
    arch        "LSB;label=32;scalar=64";
    class       volScalarField;
    location    "850";
    object      turbulenceProperties:L;
}
// * * * * * * * * * * * * * * * * * * * * * * * * * * * * * * * * * * * * * //

dimensions      [0 1 0 0 0 0 0];

internalField   nonuniform List<scalar> 
1340
(
0.222829
0.255623
0.221222
0.259563
0.259699
0.221257
0.401815
0.261245
0.262508
0.220804
0.425065
0.313719
0.403708
0.262613
0.264975
0.220063
0.356302
0.328734
0.431602
0.316648
0.405695
0.263868
0.267023
0.219318
0.300019
0.320219
0.32022
0.363663
0.333416
0.438798
0.319589
0.407654
0.26496
0.268525
0.218628
0.279127
0.288149
0.300322
0.306783
0.327645
0.326349
0.371623
0.338354
0.446617
0.322471
0.409595
0.265857
0.269486
0.218004
0.24778
0.256676
0.26617
0.27623
0.28725
0.295994
0.308332
0.31413
0.33569
0.332945
0.380206
0.343547
0.455075
0.325313
0.411506
0.266602
0.270021
0.217353
0.220285
0.226924
0.233947
0.241366
0.249196
0.257457
0.26616
0.275463
0.285269
0.296163
0.304581
0.317092
0.322144
0.34444
0.340067
0.389497
0.349036
0.464226
0.328169
0.413348
0.267248
0.270214
0.216781
0.19568
0.199887
0.204395
0.209215
0.214356
0.219825
0.225631
0.231784
0.238291
0.245169
0.252431
0.260088
0.268164
0.276644
0.285725
0.295229
0.305963
0.313994
0.326684
0.33089
0.353968
0.347762
0.39955
0.354845
0.474096
0.331062
0.415128
0.267814
0.269963
0.21622
0.17853
0.179999
0.18161
0.183381
0.185329
0.187472
0.189824
0.192398
0.195206
0.19826
0.201572
0.205153
0.209011
0.213158
0.217599
0.222346
0.227404
0.232781
0.238481
0.24451
0.250878
0.257596
0.264682
0.272141
0.280004
0.288226
0.297047
0.306194
0.316721
0.324295
0.337166
0.340418
0.364319
0.356057
0.410407
0.360986
0.48467
0.333985
0.416885
0.268312
0.269478
0.215671
2.48191
6.97805
0
0
0.0909898
0.185501
0.70634
0.680116
0.706024
0.74182
0.78806
0.851946
0.950053
1.12592
1.54693
4.834
1.61123
1.18103
1.01174
0.919871
0.854698
0.790437
0.702848
0.377532
0.318314
0
0
0
2.97415
0.422173
0.182497
0.173797
0.184214
0.189899
0.190418
0.190932
0.192233
0.193684
0.195135
0.196697
0.198421
0.20032
0.20241
0.204713
0.207242
0.210012
0.213029
0.216303
0.219847
0.223667
0.22777
0.23216
0.236847
0.241833
0.247122
0.252716
0.258619
0.264834
0.271376
0.27826
0.285491
0.293104
0.301021
0.309536
0.318257
0.328523
0.335554
0.348604
0.350779
0.375549
0.364988
0.422088
0.367487
0.495943
0.337
0.418557
0.268771
0.268727
0.215133
0.238201
1.764
8.40308
0
0
1.91729
0.339766
1.00265
0.713724
0.728519
0.763154
0.808356
0.869336
0.959821
1.11409
1.44704
2.95496
1.95158
1.30718
1.08814
0.975662
0.900915
0.835122
0.745652
0.499405
0.481754
0
0
0
5.97351
0.923456
0.209163
0.186871
0.197998
0.207111
0.208608
0.208903
0.210146
0.21168
0.213186
0.214812
0.216658
0.218721
0.220993
0.223491
0.226236
0.229234
0.232492
0.23602
0.239823
0.243902
0.248261
0.252904
0.257829
0.263037
0.268525
0.274293
0.280341
0.28668
0.293331
0.30029
0.307608
0.31516
0.323311
0.331522
0.341456
0.347844
0.361067
0.362025
0.3877
0.374571
0.434635
0.37436
0.507971
0.340076
0.420306
0.269217
0.267966
0.214565
0.23825
0.254648
1.13857
7.58914
0
0
0
0.183501
0.525911
0.76327
0.749872
0.782212
0.826679
0.885365
0.969549
1.10675
1.37999
2.26566
2.53945
1.46339
1.17482
1.03681
0.950645
0.878787
0.786774
0.598686
0.704869
0
0
0
2.36352
9.11349
0.272235
0.207232
0.214096
0.225464
0.228075
0.228002
0.229214
0.231127
0.232938
0.234702
0.236666
0.238908
0.241407
0.244155
0.247159
0.250426
0.253967
0.257779
0.261862
0.266213
0.27083
0.275707
0.280839
0.286218
0.291838
0.297691
0.303794
0.310161
0.316789
0.323749
0.330853
0.338558
0.346163
0.355664
0.361289
0.37466
0.374252
0.400847
0.384892
0.448082
0.381616
0.520738
0.343372
0.422184
0.269542
0.267179
0.21397
0.268403
0.256759
0.267098
0.62649
4.89599
0
0
0
0.0928024
0.0823246
0.964563
0.775909
0.799778
0.843026
0.899921
0.979082
1.10289
1.334
1.95172
3.89736
1.65598
1.27016
1.1012
1.0017
0.923083
0.830817
0.684371
0.892012
0
0
0
0.00140989
2.26817
0.336247
0.231055
0.231703
0.246514
0.252019
0.250688
0.250286
0.251874
0.254105
0.256288
0.258519
0.26099
0.263766
0.266825
0.270151
0.273749
0.277614
0.281742
0.286119
0.290741
0.295593
0.300658
0.305925
0.311378
0.31701
0.322823
0.328842
0.335063
0.341576
0.348137
0.355289
0.362163
0.371131
0.375831
0.389343
0.387372
0.414988
0.395807
0.462553
0.389144
0.535279
0.346535
0.424829
0.269878
0.266272
0.213158
0.286789
0.287838
0.273336
0.284705
0.427084
3.2876
0.000892408
0
0
8.9861
0.241573
0.850997
0.82484
0.819159
0.858995
0.914057
0.98854
1.09998
1.29471
1.74256
4.81138
1.95743
1.3925
1.17533
1.05508
0.964768
0.865434
0.703723
1.36369
0.14571
0
0
0
3.28766
0.505501
0.264368
0.245066
0.257181
0.272338
0.277205
0.276716
0.276959
0.278828
0.281375
0.284037
0.286842
0.289913
0.293293
0.296958
0.300874
0.305049
0.30945
0.314062
0.318867
0.323829
0.328935
0.334151
0.339482
0.344903
0.350453
0.356138
0.36205
0.367912
0.374367
0.380301
0.388583
0.392158
0.4057
0.402003
0.43047
0.407967
0.477755
0.397641
0.548866
0.350352
0.426787
0.270435
0.265457
0.212652
0.30563
0.310313
0.307307
0.30319
0.309246
0.350012
1.12246
7.13943
1.23565e-05
0
0
0.122613
0.238803
1.08588
0.851431
0.871759
0.920788
0.987973
1.08243
1.23127
1.5126
2.30954
3.52542
1.75408
1.36553
1.18529
1.07238
0.976196
0.89219
0.699111
0.718815
0.157013
0
0
0.570419
4.4074
0.803644
0.331446
0.286391
0.29127
0.305232
0.312066
0.31279
0.313345
0.315466
0.318444
0.321629
0.324992
0.328619
0.332516
0.33668
0.341034
0.345546
0.35018
0.354908
0.359686
0.364459
0.369235
0.373972
0.378732
0.383504
0.388432
0.39317
0.398502
0.403071
0.410134
0.412291
0.425359
0.4199
0.448193
0.423103
0.493123
0.409493
0.559877
0.358831
0.437184
0.276721
0.27235
0.22064
0.332252
0.335389
0.334542
0.336437
0.338008
0.331065
0.348335
0.437662
6.50475
0.853558
0
0
3.27033
0.0940865
0.481155
1.11877
0.880619
0.907029
0.96441
1.04221
1.15204
1.3279
1.67179
2.77563
3.0911
1.77375
1.41431
1.23556
1.11907
1.02009
0.926116
0.629285
0.494964
0.558889
0
0
0.119351
4.98578
0.828562
0.373126
0.330563
0.338733
0.354236
0.36022
0.360614
0.361869
0.364879
0.368548
0.372318
0.376255
0.380422
0.384729
0.389128
0.393505
0.397819
0.401995
0.405955
0.409705
0.413171
0.416483
0.419609
0.422789
0.425607
0.429032
0.431454
0.43662
0.43662
0.448894
0.440852
0.469145
0.439808
0.51174
0.420627
0.572485
0.363644
0.436588
0.277302
0.269256
0.219724
0.364467
0.367014
0.364593
0.366399
0.370929
0.372481
0.367919
0.36305
0.401287
0.734344
5.40398
0.000189515
0
0
0
0.0889681
0.434248
1.17476
0.900304
0.936298
1.00458
1.09645
1.22803
1.44461
1.89438
3.81984
2.67039
1.75339
1.43843
1.2687
1.15032
1.03983
0.892711
0.803125
0.281989
0
0
0
0.116198
3.95114
0.630174
0.404646
0.387167
0.4042
0.418348
0.421302
0.421989
0.424827
0.429026
0.433451
0.437795
0.442116
0.446378
0.450339
0.45392
0.456995
0.459465
0.461325
0.462548
0.46333
0.463676
0.463999
0.463833
0.464412
0.463794
0.46642
0.463558
0.474716
0.46343
0.491785
0.457167
0.531981
0.431331
0.58835
0.367534
0.438026
0.277065
0.267051
0.218934
0.404961
0.401196
0.402115
0.405721
0.409633
0.411893
0.410142
0.400181
0.408152
0.480851
2.00607
5.73183
0
0
0
0
0.0881401
0.441742
1.16146
0.917172
0.967411
1.05017
1.16152
1.32433
1.60217
2.24068
8.85252
2.3738
1.71987
1.44864
1.2878
1.15973
1.04286
0.839125
0.916567
7.61809
0
0
0
7.27854
1.61326
0.544442
0.463062
0.46928
0.491206
0.500399
0.501819
0.504365
0.508962
0.513798
0.518137
0.521898
0.524775
0.526662
0.527371
0.526811
0.525057
0.522217
0.518691
0.514562
0.510524
0.506061
0.50277
0.49828
0.497799
0.491631
0.501291
0.48649
0.514607
0.474527
0.551933
0.441577
0.603715
0.370792
0.440072
0.276477
0.265892
0.21822
0.450355
0.445067
0.445588
0.448423
0.451021
0.454155
0.457001
0.456886
0.450895
0.440784
0.466627
0.730496
5.13068
0.000195061
0
0
0
0
0.0887385
0.49665
1.09327
0.939453
1.00766
1.10842
1.2449
1.45039
1.82257
2.85225
4.32298
2.16361
1.68096
1.44503
1.28791
1.14922
1.00575
0.242254
0.191559
0
0
0
0.0283528
5.18927
0.929204
0.599337
0.576282
0.59943
0.617492
0.621028
0.622546
0.626014
0.629413
0.631083
0.630406
0.627406
0.62203
0.61438
0.604984
0.59429
0.58315
0.571805
0.561215
0.550778
0.54243
0.533283
0.529209
0.519533
0.527245
0.508953
0.53626
0.491141
0.569889
0.451043
0.615911
0.373527
0.442189
0.275602
0.265727
0.217401
0.504543
0.497997
0.49811
0.500681
0.502868
0.505476
0.507283
0.510569
0.512852
0.510457
0.496406
0.497334
0.567167
2.12068
5.38695
4.29135e-07
0
0
0
0
0.104971
0.160514
1.0127
0.966936
1.05972
1.1833
1.35296
1.61986
2.15539
4.43547
3.04793
2.00486
1.63616
1.4272
1.26787
1.11371
0.862684
0.786628
0
0
0
0
6.42063
1.80458
0.846552
0.7584
0.778081
0.814445
0.827564
0.826783
0.822386
0.81401
0.799337
0.778997
0.755018
0.729214
0.703084
0.677652
0.653906
0.632002
0.612673
0.594934
0.580805
0.566785
0.559108
0.546281
0.551931
0.530483
0.556594
0.507066
0.586421
0.460016
0.626744
0.375926
0.444931
0.27467
0.266899
0.216376
0.549669
0.543386
0.542413
0.544918
0.547428
0.549342
0.550412
0.55277
0.555424
0.558938
0.558195
0.551769
0.535227
0.569346
0.746598
0.650066
0.0423082
0
0
0
0
8.9093
0.185608
0.514364
0.973813
1.01063
1.12878
1.28089
1.4965
1.86035
2.73755
7.14723
2.51345
1.88013
1.58776
1.39773
1.23011
1.05428
6.91482
0.167426
0
0
0
0.937344
4.10771
2.05403
1.67308
1.50698
1.47812
1.43923
1.3242
1.1943
1.08306
0.990507
0.913061
0.84845
0.794641
0.7494
0.711395
0.678927
0.651653
0.62769
0.608809
0.591206
0.580749
0.566024
0.569528
0.546348
0.569931
0.518678
0.594895
0.466335
0.628737
0.377249
0.448296
0.273522
0.270656
0.214279
0.608224
0.59933
0.598522
0.601631
0.604491
0.605157
0.604729
0.608482
0.60934
0.610575
0.61407
0.616086
0.610147
0.598519
0.590764
0.668977
1.2503
6.36352
0.000589064
0
0
0
0
0.545506
0.248153
1.22707
0.959766
1.07235
1.21924
1.40965
1.69513
2.24051
4.2822
3.45554
2.18984
1.76561
1.52654
1.34393
1.18858
1.19482
0.437061
0
0
0
0.00309032
5.13082
2.45009
1.13228
1.25659
1.45745
1.39377
1.2296
1.09436
0.99601
0.920648
0.858972
0.807522
0.764064
0.727514
0.696124
0.669485
0.645858
0.626951
0.609569
0.599295
0.585337
0.588819
0.565142
0.588442
0.534604
0.613834
0.476487
0.649143
0.380797
0.457246
0.273715
0.278
0.210956
0.585435
0.581315
0.581632
0.58476
0.58778
0.589855
0.591089
0.594382
0.596592
0.599194
0.603297
0.60696
0.609741
0.610754
0.607354
0.596491
0.618676
0.733327
1.78539
6.88681
0.000780583
0
0
0
0
0.254498
0.448617
1.0885
1.01877
1.15825
1.33376
1.57168
1.95907
2.85858
7.2682
2.6767
1.97362
1.63419
1.38719
1.08046
0.466724
0.644318
0.300905
0.225084
0.511338
0
0.0174471
5.54645
1.05662
0.738831
0.765719
0.81325
0.821199
0.800617
0.773901
0.747689
0.722418
0.6982
0.675636
0.654831
0.635986
0.618459
0.603685
0.590036
0.58178
0.570857
0.573032
0.553669
0.571524
0.526142
0.592011
0.471144
0.628918
0.377221
0.469458
0.271193
0.291822
0.200492
0.632669
0.630556
0.629674
0.628435
0.627625
0.626805
0.62522
0.623324
0.621744
0.620851
0.619995
0.618454
0.617078
0.615619
0.614363
0.608149
0.598164
0.59202
0.616402
0.712081
1.83283
6.9565
0
0
0
0
0
0.109635
0.551686
1.00601
1.07091
1.2336
1.43425
1.71218
2.18069
3.35647
6.43932
2.84226
2.17374
1.85304
1.66573
1.59412
1.76464
3.99216
0.814444
0.449352
0
0
5.82961
1.52321
0.763015
0.673333
0.671862
0.67799
0.677069
0.671834
0.665322
0.658379
0.651239
0.644082
0.637095
0.629881
0.623548
0.617038
0.615312
0.611428
0.620307
0.603216
0.629765
0.575676
0.672253
0.509641
0.768525
0.399362
0.515976
0.284316
0.292131
0.201782
)
;

boundaryField
{
    inlet
    {
        type            calculated;
        value           nonuniform List<scalar> 
27
(
0.0874116
0.087354
0.0872484
0.0871089
0.0869612
0.0868091
0.0866483
0.0864802
0.0863056
0.0861313
0.0859578
0.0857884
0.0856264
0.0854756
0.0853398
0.0852231
0.0851237
0.0853277
0.0853014
0.0853131
0.0853839
0.0855214
0.085745
0.0860664
0.0865345
0.0870081
0.0879911
)
;
    }
    outlet
    {
        type            calculated;
        value           nonuniform List<scalar> 
78
(
0.702258
0.698212
0.696172
0.693552
0.691608
0.689656
0.686459
0.682798
0.679658
0.677597
0.675593
0.67258
0.669672
0.66666
0.664017
0.656268
0.645025
0.638872
0.665522
0.764923
1.93281
6.78758
0
0
0
0
0
0.109381
0.552328
1.03583
1.07574
1.2358
1.43512
1.71156
2.17698
3.33871
6.65933
2.85694
2.17942
1.85554
1.66609
1.59174
1.75349
4.91682
0.833912
0.460795
0
0
5.42583
1.61351
0.804968
0.709722
0.7087
0.716349
0.717187
0.714043
0.710005
0.705814
0.70162
0.697443
0.693449
0.688799
0.685192
0.68032
0.682562
0.678919
0.697444
0.668124
0.720838
0.624287
0.820988
0.532305
1.48176
0.407058
0.545234
0.289216
0.291778
0.207399
)
;
    }
    walls
    {
        type            calculated;
        value           nonuniform List<scalar> 0();
    }
    frontAndBack
    {
        type            empty;
    }
    procBoundary7to3
    {
        type            processor;
        value           nonuniform List<scalar> 
16
(
0.199043
0.199268
0.226808
0.24531
0.260739
0.281818
0.310988
0.344117
0.402925
0.402925
0.448579
0.502269
0.546849
0.60739
0.579851
0.637567
)
;
    }
    procBoundary7to6
    {
        type            processor;
        value           nonuniform List<scalar> 
91
(
0.223099
0.251495
0.251495
0.257026
0.257026
0.400212
0.400212
0.419209
0.310866
0.310866
0.349608
0.324368
0.324368
0.293808
0.313382
0.314541
0.314541
0.271687
0.280949
0.292963
0.292963
0.239012
0.248076
0.257734
0.268011
0.268011
0.209893
0.216656
0.223813
0.231373
0.239356
0.239356
0.183527
0.187811
0.192397
0.197302
0.202533
0.2081
0.214014
0.214014
0.164522
0.166045
0.167712
0.169541
0.171548
0.173749
0.176158
0.178788
0.181652
0.18476
0.188127
0.191764
0.191764
0.000508205
0
0
0.239154
0.99082
0.650119
0.655113
0.682408
0.718353
0.765728
0.833006
0.94
1.14281
1.70067
2.93345
1.38159
1.07574
0.942979
0.867861
0.811163
0.74833
0.665099
0.130285
0.152627
0
0
0
1.9382
0.274062
0.161885
0.159964
0.169038
0.172975
0.173563
0.174443
0.175792
0.177162
0.177162
)
;
    }
}


// ************************************************************************* //
