/*--------------------------------*- C++ -*----------------------------------*\
| =========                 |                                                 |
| \\      /  F ield         | OpenFOAM: The Open Source CFD Toolbox           |
|  \\    /   O peration     | Version:  2306                                  |
|   \\  /    A nd           | Website:  www.openfoam.com                      |
|    \\/     M anipulation  |                                                 |
\*---------------------------------------------------------------------------*/
FoamFile
{
    version     2.0;
    format      ascii;
    arch        "LSB;label=32;scalar=64";
    class       volVectorField;
    location    "725";
    object      momentError;
}
// * * * * * * * * * * * * * * * * * * * * * * * * * * * * * * * * * * * * * //

dimensions      [0 1 -2 0 0 0 0];

internalField   nonuniform List<vector> 
1340
(
(-4.68152e-06 8.26358e-05 1.78891e-16)
(2.62829e-06 9.92126e-05 -1.65407e-15)
(1.52153e-05 0.000112086 -1.52309e-15)
(-7.22443e-06 7.91541e-05 -2.4814e-15)
(1.36511e-06 9.29334e-05 6.67454e-16)
(1.32051e-05 0.00010273 -1.48841e-15)
(2.6198e-05 0.000103473 5.51851e-15)
(4.20007e-05 0.000105243 6.91981e-15)
(-7.05179e-06 7.37578e-05 9.9965e-16)
(2.15113e-06 8.54529e-05 4.23554e-15)
(1.3793e-05 9.35288e-05 2.89053e-15)
(2.5735e-05 9.35252e-05 9.58857e-17)
(3.9313e-05 9.50428e-05 -1.09801e-15)
(5.45195e-05 9.58386e-05 -5.33412e-16)
(6.87827e-05 9.22567e-05 4.5636e-14)
(-5.55772e-06 6.92155e-05 -1.44123e-15)
(3.05811e-06 7.80441e-05 3.39093e-15)
(1.4192e-05 8.40633e-05 5.96701e-16)
(2.51926e-05 8.39092e-05 -4.24931e-15)
(3.76875e-05 8.56042e-05 1.4337e-14)
(5.11656e-05 8.62155e-05 -1.98942e-14)
(6.44756e-05 8.39222e-05 2.04623e-15)
(7.63141e-05 7.74868e-05 -6.63956e-15)
(-3.78336e-06 6.41352e-05 -3.25435e-15)
(4.35341e-06 7.10723e-05 -1.74033e-15)
(1.43312e-05 7.57092e-05 -3.88651e-16)
(2.44021e-05 7.56113e-05 -3.99184e-15)
(3.55779e-05 7.68024e-05 -8.10464e-16)
(4.80317e-05 7.76971e-05 1.51752e-14)
(5.97679e-05 7.56262e-05 -5.00754e-14)
(7.16141e-05 6.91544e-05 2.10024e-14)
(7.8955e-05 6.03632e-05 8.43933e-14)
(-2.60153e-06 5.91903e-05 3.46389e-15)
(5.16978e-06 6.47823e-05 -3.22906e-15)
(1.42371e-05 6.82397e-05 1.34766e-15)
(2.32624e-05 6.80286e-05 2.11867e-15)
(3.35498e-05 6.9443e-05 -1.91781e-14)
(4.48486e-05 7.02358e-05 1.62749e-14)
(5.54191e-05 6.7968e-05 4.08656e-14)
(6.54767e-05 6.34297e-05 -2.99583e-14)
(7.38589e-05 5.53908e-05 -4.44596e-15)
(-1.6979e-06 5.4516e-05 2.1654e-15)
(5.56689e-06 5.89508e-05 -1.18255e-15)
(1.38556e-05 6.16768e-05 -3.29421e-15)
(2.2159e-05 6.15891e-05 9.01137e-17)
(3.13686e-05 6.25913e-05 -1.73324e-15)
(4.16929e-05 6.35428e-05 -4.0244e-14)
(5.1633e-05 6.20548e-05 2.88282e-14)
(6.03375e-05 5.75551e-05 9.22017e-15)
(6.77244e-05 5.12633e-05 -7.90316e-14)
(7.38069e-05 4.42287e-05 -7.44453e-15)
(-1.09142e-06 5.00745e-05 -1.74296e-16)
(5.73656e-06 5.38123e-05 7.63604e-16)
(1.33333e-05 5.57921e-05 1.44594e-16)
(2.08464e-05 5.56366e-05 -2.91565e-15)
(2.94148e-05 5.68792e-05 1.8217e-14)
(3.88371e-05 5.77078e-05 1.92679e-14)
(4.76992e-05 5.61421e-05 -4.41291e-14)
(5.60997e-05 5.27966e-05 1.99906e-14)
(6.27812e-05 4.7182e-05 4.86783e-14)
(6.81202e-05 4.05828e-05 -4.44749e-15)
(7.36024e-05 3.38061e-05 -3.35546e-14)
(-6.34536e-07 4.60202e-05 -5.40121e-16)
(5.70612e-06 4.89995e-05 -1.97421e-15)
(1.27275e-05 5.06027e-05 4.58708e-17)
(1.96349e-05 5.06121e-05 -5.94988e-16)
(2.73831e-05 5.14602e-05 -1.24406e-14)
(3.60843e-05 5.24146e-05 3.30502e-14)
(4.45161e-05 5.14195e-05 3.43229e-14)
(5.19439e-05 4.78999e-05 6.43835e-15)
(5.82023e-05 4.30056e-05 9.9406e-15)
(6.34701e-05 3.76605e-05 -1.46258e-14)
(6.84544e-05 3.11306e-05 -1.34927e-14)
(-3.12532e-07 4.2124e-05 -5.33261e-16)
(5.61651e-06 4.47345e-05 -6.71737e-16)
(1.20382e-05 4.59352e-05 -1.89729e-15)
(1.83578e-05 4.58653e-05 -8.62424e-16)
(2.56123e-05 4.69241e-05 -3.00113e-15)
(3.36345e-05 4.76989e-05 -1.89162e-14)
(4.11925e-05 4.6496e-05 -2.82777e-15)
(4.84666e-05 4.38617e-05 -3.49521e-14)
(5.42694e-05 3.94902e-05 7.17322e-15)
(5.87898e-05 3.3907e-05 1.19148e-14)
(6.35334e-05 2.84224e-05 1.52633e-14)
(6.71027e-05 2.08704e-05 -1.17275e-14)
(-4.80494e-08 3.85744e-05 2.34064e-15)
(5.40454e-06 4.07207e-05 1.21245e-15)
(1.13362e-05 4.17526e-05 1.85995e-15)
(1.72262e-05 4.17968e-05 -1.34081e-15)
(2.37998e-05 4.24939e-05 -6.77799e-17)
(3.1287e-05 4.33262e-05 -7.68538e-15)
(3.85219e-05 4.25775e-05 2.15499e-14)
(4.49339e-05 3.97811e-05 8.58336e-15)
(5.04011e-05 3.577e-05 -2.86663e-14)
(5.50537e-05 3.10425e-05 1.26948e-14)
(5.90936e-05 2.53529e-05 -2.54093e-14)
(6.23425e-05 1.84351e-05 3.94095e-14)
(1.61692e-07 3.51761e-05 2.32467e-15)
(5.19597e-06 3.71462e-05 -5.73329e-17)
(1.06478e-05 3.78975e-05 -5.58619e-16)
(1.60244e-05 3.78761e-05 2.12339e-15)
(2.22079e-05 3.87585e-05 -1.62621e-15)
(2.91062e-05 3.94188e-05 -3.50962e-15)
(3.56413e-05 3.84725e-05 1.22894e-14)
(4.19238e-05 3.63574e-05 2.42211e-14)
(4.70977e-05 3.2554e-05 -2.28309e-14)
(5.09847e-05 2.75493e-05 3.38064e-14)
(5.50331e-05 2.21558e-05 -2.07099e-14)
(5.80893e-05 1.56247e-05 -1.10902e-14)
(5.94483e-05 7.46633e-06 6.0688e-14)
(3.44819e-07 3.21143e-05 -5.69124e-16)
(4.96298e-06 3.37292e-05 2.77142e-15)
(1.00004e-05 3.44174e-05 -1.39242e-16)
(1.49526e-05 3.45096e-05 -8.43504e-16)
(2.05553e-05 3.50611e-05 -1.01423e-15)
(2.69759e-05 3.57763e-05 9.09464e-15)
(3.3252e-05 3.51844e-05 5.98029e-15)
(3.8811e-05 3.27535e-05 1.66352e-14)
(4.36863e-05 2.91501e-05 2.14891e-14)
(4.77219e-05 2.46865e-05 -2.66442e-14)
(5.10423e-05 1.89942e-05 4.39628e-14)
(5.37158e-05 1.25373e-05 -4.22423e-14)
(5.55714e-05 5.6117e-06 2.25213e-14)
(4.85769e-07 2.91988e-05 -2.12926e-15)
(4.73702e-06 3.07075e-05 2.37562e-15)
(9.33216e-06 3.12313e-05 1.11258e-15)
(1.38671e-05 3.12415e-05 -2.18346e-15)
(1.91141e-05 3.19406e-05 -1.12736e-14)
(2.50177e-05 3.24766e-05 1.21e-14)
(3.06617e-05 3.16342e-05 -2.27655e-14)
(3.6131e-05 2.9694e-05 -3.11703e-14)
(4.06313e-05 2.62107e-05 5.01678e-15)
(4.40098e-05 2.13573e-05 4.93853e-15)
(4.72639e-05 1.61016e-05 -1.01417e-17)
(4.97605e-05 9.95561e-06 3.80842e-14)
(5.15218e-05 4.08146e-06 -8.7908e-14)
(5.18077e-05 -2.49511e-06 6.75328e-16)
(5.26033e-07 2.65871e-05 1.99338e-16)
(4.43217e-06 2.78916e-05 -1.12804e-15)
(8.66906e-06 2.83803e-05 9.39934e-16)
(1.28977e-05 2.84499e-05 -5.00321e-15)
(1.76334e-05 2.88545e-05 1.16266e-15)
(2.31381e-05 2.9394e-05 -9.50199e-15)
(2.85067e-05 2.88142e-05 9.69282e-15)
(3.32744e-05 2.65726e-05 -1.6252e-14)
(3.74549e-05 2.31757e-05 -1.75315e-14)
(4.0868e-05 1.88464e-05 -3.26527e-14)
(4.34791e-05 1.34116e-05 -6.83999e-14)
(4.56852e-05 7.84762e-06 -3.47146e-15)
(4.75123e-05 2.5025e-06 -1.16523e-14)
(4.7856e-05 -3.24897e-06 -5.7126e-14)
(5.02396e-07 2.41503e-05 1.99539e-16)
(4.10751e-06 2.53931e-05 -7.06188e-17)
(8.01887e-06 2.57637e-05 9.64887e-16)
(1.18912e-05 2.57658e-05 -2.95355e-15)
(1.63399e-05 2.62988e-05 3.05175e-15)
(2.13692e-05 2.66636e-05 -1.8794e-14)
(2.61688e-05 2.58498e-05 -3.90743e-15)
(3.07711e-05 2.40078e-05 6.24148e-15)
(3.45664e-05 2.06808e-05 1.74959e-14)
(3.72813e-05 1.6106e-05 1.23219e-14)
(3.98919e-05 1.13455e-05 -1.79371e-14)
(4.18261e-05 6.35701e-06 5.54748e-16)
(4.35149e-05 1.77006e-06 7.6227e-14)
(4.47246e-05 -2.42789e-06 1.02876e-13)
(4.33895e-07 2.20194e-05 -2.17188e-15)
(3.76938e-06 2.30669e-05 -1.08879e-15)
(7.42407e-06 2.34324e-05 -6.36637e-16)
(1.09959e-05 2.35233e-05 6.07377e-15)
(1.50208e-05 2.37992e-05 -1.55378e-15)
(1.967e-05 2.41731e-05 5.56971e-15)
(2.42039e-05 2.35576e-05 -1.85505e-16)
(2.81459e-05 2.1419e-05 1.45331e-15)
(3.1577e-05 1.82196e-05 1.49727e-14)
(3.43003e-05 1.42774e-05 -8.34343e-15)
(3.62702e-05 9.70718e-06 2.13531e-14)
(3.80853e-05 5.49383e-06 2.96627e-14)
(3.9724e-05 1.97922e-06 -1.39419e-15)
(4.12195e-05 -9.95057e-07 -1.05726e-14)
(4.19993e-05 -2.30029e-06 -4.60958e-14)
(5.59355e-07 2.01373e-05 1.62626e-15)
(3.50249e-06 2.10189e-05 -7.13071e-16)
(6.8322e-06 2.13426e-05 2.41241e-16)
(1.01102e-05 2.13724e-05 2.71538e-15)
(1.3867e-05 2.17617e-05 -1.57423e-15)
(1.80985e-05 2.19704e-05 9.2285e-15)
(2.21022e-05 2.11329e-05 4.80246e-15)
(2.58731e-05 1.93695e-05 1.49891e-14)
(2.88746e-05 1.63406e-05 9.03619e-15)
(3.09884e-05 1.24037e-05 2.04171e-14)
(3.30385e-05 8.70596e-06 -2.97447e-14)
(3.47011e-05 5.31569e-06 -3.7594e-14)
(3.63981e-05 2.65757e-06 -1.30036e-14)
(3.84505e-05 1.21776e-06 2.45144e-14)
(3.96492e-05 3.43188e-07 3.76281e-14)
(4.01855e-07 1.82556e-05 1.01611e-15)
(3.24323e-06 1.93201e-05 1.22341e-15)
(6.26163e-06 1.94946e-05 -1.69787e-16)
(9.30495e-06 1.95676e-05 -5.31551e-16)
(1.26808e-05 1.97414e-05 3.27571e-15)
(1.65961e-05 1.9948e-05 -1.02034e-14)
(2.03437e-05 1.93067e-05 -1.83026e-14)
(2.35111e-05 1.73556e-05 1.46747e-14)
(2.6188e-05 1.45612e-05 -4.01062e-15)
(2.82943e-05 1.13711e-05 -2.8036e-14)
(2.99024e-05 8.01398e-06 5.77794e-15)
(3.16182e-05 5.35368e-06 -1.21575e-15)
(3.36081e-05 3.59507e-06 -3.60148e-14)
(3.57964e-05 2.64598e-06 -4.75598e-14)
(3.82038e-05 2.32684e-06 -1.08495e-14)
(3.41038e-08 1.63929e-05 -8.94422e-16)
(2.77818e-06 1.75386e-05 2.28918e-16)
(5.65853e-06 1.78185e-05 -1.51126e-15)
(8.45692e-06 1.77904e-05 -2.04119e-15)
(1.16236e-05 1.80796e-05 1.70686e-15)
(1.51744e-05 1.81738e-05 7.54871e-15)
(1.84772e-05 1.73965e-05 3.37422e-15)
(2.14955e-05 1.58358e-05 -1.15315e-14)
(2.38256e-05 1.32939e-05 3.91995e-14)
(2.54529e-05 1.0222e-05 -5.41853e-15)
(2.72141e-05 7.66389e-06 -5.14899e-16)
(2.8917e-05 5.59461e-06 4.00607e-14)
(3.10539e-05 4.30311e-06 -8.27325e-16)
(3.38047e-05 3.77589e-06 -3.05223e-15)
(3.62929e-05 3.30538e-06 3.09187e-15)
(3.77366e-05 2.11978e-06 -6.82011e-15)
(-5.76257e-08 1.46037e-05 -3.08397e-16)
(2.33789e-06 1.57431e-05 -8.19985e-16)
(5.05806e-06 1.61223e-05 -2.43741e-16)
(7.66965e-06 1.62554e-05 2.50449e-15)
(1.05476e-05 1.64025e-05 -2.04507e-15)
(1.38229e-05 1.65514e-05 1.80344e-15)
(1.6925e-05 1.59839e-05 9.20594e-15)
(1.94549e-05 1.43271e-05 -2.74557e-14)
(2.15576e-05 1.20544e-05 -1.82156e-14)
(2.32391e-05 9.65973e-06 2.23175e-15)
(2.46826e-05 7.34722e-06 6.96147e-15)
(2.64858e-05 5.73762e-06 4.72724e-15)
(2.88012e-05 4.85328e-06 5.3869e-14)
(3.15496e-05 4.30628e-06 4.28065e-14)
(3.45119e-05 3.72282e-06 -3.90282e-14)
(3.57591e-05 1.81095e-06 7.62366e-15)
(-2.19902e-07 1.3429e-05 -7.69225e-16)
(2.09351e-06 1.40595e-05 -1.91027e-16)
(4.50833e-06 1.46211e-05 -1.25392e-15)
(6.92285e-06 1.47177e-05 5.10693e-15)
(9.6197e-06 1.50134e-05 -3.39583e-15)
(1.25965e-05 1.51092e-05 -3.50652e-15)
(1.53292e-05 1.44578e-05 -1.93292e-14)
(1.77667e-05 1.31865e-05 3.50822e-16)
(1.96156e-05 1.1175e-05 2.01288e-14)
(2.09521e-05 8.87496e-06 1.52515e-14)
(2.25652e-05 7.1516e-06 -1.58965e-14)
(2.43363e-05 5.86528e-06 -5.42749e-14)
(2.66868e-05 5.12576e-06 -3.39493e-14)
(2.96563e-05 4.66645e-06 4.13644e-14)
(3.22174e-05 3.60083e-06 2.0265e-14)
(3.40455e-05 1.75573e-06 -1.04199e-14)
(-1.64513e-06 1.14873e-05 -4.54471e-17)
(-1.94128e-07 1.23768e-05 5.68972e-16)
(1.82256e-06 1.27117e-05 2.70303e-16)
(4.06863e-06 1.31809e-05 -2.04698e-16)
(6.28771e-06 1.34081e-05 7.55503e-16)
(8.70912e-06 1.36076e-05 8.49007e-18)
(1.14635e-05 1.37696e-05 9.92351e-17)
(1.40281e-05 1.33405e-05 9.89871e-15)
(1.60819e-05 1.2019e-05 -5.21975e-15)
(1.77751e-05 1.02597e-05 9.37979e-15)
(1.91994e-05 8.49756e-06 2.16609e-14)
(2.05588e-05 6.88215e-06 -2.1991e-15)
(2.23827e-05 5.8498e-06 6.55858e-15)
(2.47332e-05 5.26604e-06 2.69653e-15)
(2.74766e-05 4.64054e-06 -2.33384e-14)
(3.02732e-05 3.69199e-06 -3.57398e-14)
(3.20111e-05 1.86908e-06 1.78321e-14)
(3.24631e-05 7.07514e-08 3.35283e-14)
(-1.50787e-06 1.05515e-05 8.91141e-17)
(-1.13061e-07 1.11138e-05 5.22658e-16)
(1.70047e-06 1.14943e-05 -2.38413e-16)
(3.68286e-06 1.18875e-05 2.36688e-15)
(5.68095e-06 1.21168e-05 -5.36326e-16)
(7.92885e-06 1.24466e-05 6.30184e-15)
(1.04224e-05 1.25882e-05 2.67612e-15)
(1.26873e-05 1.2117e-05 1.22597e-14)
(1.46888e-05 1.11445e-05 -8.15544e-16)
(1.62119e-05 9.59576e-06 -1.70264e-14)
(1.73674e-05 7.86764e-06 -2.62443e-16)
(1.88676e-05 6.67974e-06 -3.2946e-16)
(2.0618e-05 5.80092e-06 -1.88142e-14)
(2.28931e-05 5.23818e-06 9.16098e-15)
(2.56825e-05 4.72337e-06 6.62893e-15)
(2.80343e-05 3.61064e-06 2.99418e-14)
(3.01222e-05 2.22208e-06 5.82965e-16)
(3.08577e-05 5.3048e-07 -4.10313e-14)
(-1.178e-06 9.63777e-06 6.26259e-16)
(1.96484e-08 1.00901e-05 -7.95692e-16)
(1.5832e-06 1.03395e-05 -9.43988e-17)
(3.35883e-06 1.07459e-05 2.79303e-16)
(5.15575e-06 1.10332e-05 -8.19005e-16)
(7.16748e-06 1.12764e-05 -6.16491e-15)
(9.4557e-06 1.14918e-05 -3.89159e-15)
(1.16043e-05 1.1214e-05 2.01689e-14)
(1.33013e-05 1.02001e-05 1.03477e-14)
(1.4724e-05 8.84968e-06 -2.52386e-15)
(1.59769e-05 7.54923e-06 -2.30846e-14)
(1.72419e-05 6.37807e-06 9.20406e-15)
(1.89875e-05 5.64677e-06 1.95857e-14)
(2.11856e-05 5.17506e-06 -1.57175e-15)
(2.36953e-05 4.55742e-06 8.93523e-15)
(2.63415e-05 3.70683e-06 -5.54876e-14)
(2.81521e-05 2.33013e-06 -3.19203e-14)
(2.93977e-05 7.20513e-07 3.98077e-14)
(-9.94695e-07 8.80523e-06 8.97492e-17)
(9.33681e-08 9.13485e-06 8.10133e-18)
(1.48916e-06 9.37971e-06 3.5106e-16)
(3.05205e-06 9.72003e-06 2.8594e-16)
(4.66486e-06 9.97527e-06 1.52518e-15)
(6.52689e-06 1.0319e-05 -1.41676e-16)
(8.59884e-06 1.05118e-05 -3.49872e-15)
(1.04983e-05 1.0188e-05 1.08101e-14)
(1.21764e-05 9.47079e-06 1.16344e-14)
(1.34679e-05 8.29087e-06 -1.09137e-14)
(1.44951e-05 6.98313e-06 -1.30404e-15)
(1.58718e-05 6.13038e-06 -9.60272e-15)
(1.7501e-05 5.48528e-06 1.98283e-14)
(1.95824e-05 5.01603e-06 -1.7139e-14)
(2.20678e-05 4.55087e-06 -9.77261e-15)
(2.42995e-05 3.58504e-06 1.32636e-15)
(2.64358e-05 2.38152e-06 -1.54976e-14)
(2.77637e-05 6.49083e-07 -1.41373e-14)
(2.82812e-05 -9.67571e-07 -1.92687e-14)
(-8.68996e-07 8.04061e-06 -2.68787e-17)
(1.30121e-07 8.33405e-06 7.68308e-18)
(1.36902e-06 8.48575e-06 5.06142e-17)
(2.77842e-06 8.82024e-06 1.7606e-15)
(4.2501e-06 9.09122e-06 -2.26586e-15)
(5.90274e-06 9.35165e-06 1.12696e-14)
(7.8183e-06 9.58974e-06 -1.20799e-14)
(9.61721e-06 9.43762e-06 -7.33208e-15)
(1.10489e-05 8.67479e-06 -1.60258e-14)
(1.22617e-05 7.6535e-06 7.57863e-15)
(1.3377e-05 6.68178e-06 2.75483e-15)
(1.45343e-05 5.80186e-06 -8.68719e-15)
(1.61261e-05 5.2601e-06 -1.82412e-14)
(1.81079e-05 4.87551e-06 -1.17141e-15)
(2.03176e-05 4.33604e-06 -2.61035e-14)
(2.27186e-05 3.59526e-06 -1.07231e-14)
(2.44704e-05 2.25096e-06 2.19655e-14)
(2.60472e-05 7.85956e-07 6.9747e-14)
(2.68053e-05 -7.47223e-07 3.00626e-14)
(-7.92068e-07 7.35195e-06 2.85448e-16)
(1.27883e-07 7.57608e-06 1.31588e-16)
(1.25624e-06 7.74367e-06 -2.06657e-16)
(2.52231e-06 8.00183e-06 -4.17715e-16)
(3.8428e-06 8.23301e-06 1.59992e-15)
(5.3765e-06 8.56923e-06 2.63371e-15)
(7.11319e-06 8.78114e-06 -1.22223e-14)
(8.70843e-06 8.58356e-06 -1.06743e-14)
(1.01322e-05 8.06821e-06 -3.34734e-15)
(1.12487e-05 7.16896e-06 4.84555e-15)
(1.21638e-05 6.15807e-06 1.28391e-14)
(1.34073e-05 5.53258e-06 -7.31082e-15)
(1.48767e-05 5.03928e-06 4.86203e-15)
(1.67261e-05 4.66025e-06 1.88427e-14)
(1.89027e-05 4.23398e-06 -5.98858e-15)
(2.08566e-05 3.34872e-06 -3.32032e-14)
(2.29187e-05 2.2593e-06 4.78613e-15)
(2.43183e-05 9.36958e-07 -6.95123e-15)
(2.5078e-05 -9.09486e-07 -3.19504e-15)
(-7.3946e-07 6.71472e-06 -4.59421e-17)
(1.11816e-07 6.93264e-06 7.05321e-17)
(1.13019e-06 7.03049e-06 1.05094e-16)
(2.29155e-06 7.2853e-06 -1.59416e-15)
(3.48752e-06 7.53262e-06 2.26882e-15)
(4.86085e-06 7.77857e-06 -1.53328e-15)
(6.45793e-06 8.02837e-06 4.82858e-15)
(7.98992e-06 7.96235e-06 1.12331e-14)
(9.20811e-06 7.38839e-06 -5.66806e-15)
(1.02676e-05 6.60111e-06 -1.41352e-15)
(1.12659e-05 5.86389e-06 -2.01307e-14)
(1.23029e-05 5.18503e-06 8.20079e-15)
(1.37272e-05 4.76528e-06 1.05721e-14)
(1.54659e-05 4.4455e-06 3.48142e-14)
(1.73727e-05 3.94383e-06 4.50038e-15)
(1.94497e-05 3.29883e-06 5.76838e-15)
(2.11283e-05 2.2248e-06 1.64408e-14)
(2.26204e-05 7.79074e-07 -2.14845e-15)
(2.33305e-05 -9.93765e-07 -3.41381e-14)
(-7.02048e-07 6.12905e-06 -8.23063e-17)
(7.74825e-08 6.30561e-06 -1.08995e-16)
(1.01927e-06 6.43017e-06 -1.24396e-16)
(2.0631e-06 6.63482e-06 1.71053e-15)
(3.14991e-06 6.83645e-06 -6.78717e-16)
(4.43115e-06 7.14006e-06 -4.69953e-15)
(5.88405e-06 7.357e-06 -3.75476e-15)
(7.24349e-06 7.23132e-06 1.34377e-15)
(8.4704e-06 6.85894e-06 9.59596e-15)
(9.44779e-06 6.16444e-06 9.11519e-15)
(1.02703e-05 5.36995e-06 1.28252e-14)
(1.13818e-05 4.89314e-06 -1.79571e-14)
(1.26791e-05 4.50465e-06 3.81158e-15)
(1.42917e-05 4.17451e-06 1.18129e-14)
(1.6163e-05 3.82095e-06 5.90811e-15)
(1.78495e-05 3.09768e-06 -4.51104e-15)
(1.96131e-05 2.1846e-06 2.35936e-14)
(2.08422e-05 8.14632e-07 -6.90575e-15)
(2.16872e-05 -8.15187e-07 -1.85736e-15)
(-6.727e-07 5.58079e-06 9.40424e-17)
(4.25749e-08 5.76747e-06 -4.03822e-16)
(8.96665e-07 5.84508e-06 -2.35748e-16)
(1.85724e-06 6.05307e-06 2.1433e-16)
(2.86509e-06 6.2582e-06 -2.25405e-15)
(4.00758e-06 6.48283e-06 5.70297e-15)
(5.36013e-06 6.71601e-06 -2.24942e-15)
(6.66247e-06 6.70377e-06 -2.246e-14)
(7.71573e-06 6.26626e-06 1.0773e-14)
(8.64329e-06 5.65681e-06 5.07738e-15)
(9.53941e-06 5.08499e-06 -8.7214e-15)
(1.04667e-05 4.54188e-06 -1.85859e-15)
(1.17175e-05 4.20698e-06 -2.49085e-14)
(1.32363e-05 3.9462e-06 -2.11777e-14)
(1.48737e-05 3.54108e-06 -3.03922e-14)
(1.66466e-05 3.0251e-06 -2.11664e-14)
(1.80648e-05 2.1061e-06 -6.42489e-15)
(1.92924e-05 9.58171e-07 3.31251e-15)
(1.9976e-05 -6.7911e-07 -1.96694e-15)
(2.06114e-05 -2.01271e-06 1.40836e-14)
(-6.50616e-07 5.07883e-06 3.89726e-16)
(3.98463e-09 5.23725e-06 -2.51352e-16)
(7.91335e-07 5.34889e-06 7.81871e-16)
(1.66585e-06 5.50968e-06 -8.62414e-16)
(2.58097e-06 5.67893e-06 -2.28486e-15)
(3.65192e-06 5.95294e-06 -1.39031e-15)
(4.885e-06 6.15395e-06 3.94066e-15)
(6.04439e-06 6.08251e-06 -4.73365e-15)
(7.10794e-06 5.81116e-06 -1.37205e-14)
(7.97184e-06 5.26595e-06 2.11138e-14)
(8.70966e-06 4.62185e-06 -3.59107e-15)
(9.70195e-06 4.25043e-06 -1.18975e-14)
(1.08454e-05 3.93125e-06 1.06449e-14)
(1.22497e-05 3.66149e-06 1.90478e-14)
(1.38872e-05 3.36584e-06 9.77047e-15)
(1.53312e-05 2.7668e-06 3.01798e-15)
(1.68554e-05 2.06188e-06 3.78381e-14)
(1.77659e-05 9.67529e-07 1.33654e-14)
(1.86309e-05 -1.96678e-07 -1.53879e-14)
(1.93451e-05 -1.09162e-06 1.08722e-14)
(-6.26131e-07 4.61562e-06 5.5731e-16)
(-2.56396e-08 4.78422e-06 -3.09482e-17)
(6.8751e-07 4.857e-06 1.44471e-16)
(1.49847e-06 5.0256e-06 -1.19957e-15)
(2.33468e-06 5.20858e-06 5.16097e-15)
(3.29983e-06 5.40407e-06 -5.31324e-15)
(4.4389e-06 5.62147e-06 -2.98723e-15)
(5.56433e-06 5.63647e-06 1.58754e-14)
(6.47773e-06 5.29232e-06 -1.22088e-14)
(7.30227e-06 4.80478e-06 -4.06955e-15)
(8.10965e-06 4.35129e-06 1.29795e-14)
(8.93329e-06 3.90377e-06 4.36446e-15)
(1.00384e-05 3.62122e-06 -1.37029e-15)
(1.13651e-05 3.39126e-06 3.26909e-15)
(1.27985e-05 3.03141e-06 6.44095e-15)
(1.43755e-05 2.61505e-06 1.24909e-14)
(1.56109e-05 1.88843e-06 -7.52837e-15)
(1.67464e-05 1.00552e-06 1.84305e-15)
(1.74412e-05 1.918e-07 2.04665e-14)
(1.81036e-05 -7.37287e-07 -3.7189e-15)
(-6.00261e-07 4.20236e-06 -3.5257e-16)
(-5.53113e-08 4.34282e-06 1.44064e-16)
(6.05537e-07 4.44548e-06 2.61646e-16)
(1.33696e-06 4.58336e-06 -1.61014e-16)
(2.10196e-06 4.72967e-06 -8.33289e-16)
(3.01046e-06 4.96551e-06 2.95195e-18)
(4.05093e-06 5.14723e-06 -4.14459e-15)
(5.04967e-06 5.09584e-06 6.5736e-15)
(5.97864e-06 4.89087e-06 1.1338e-14)
(6.74317e-06 4.45194e-06 -4.10371e-15)
(7.40804e-06 3.92123e-06 -6.81982e-15)
(8.29346e-06 3.61117e-06 -8.31646e-15)
(9.29599e-06 3.3299e-06 1.08669e-14)
(1.05259e-05 3.07145e-06 -5.67258e-15)
(1.19691e-05 2.81487e-06 -1.06307e-14)
(1.3266e-05 2.30195e-06 2.03192e-15)
(1.46573e-05 1.71617e-06 8.3993e-15)
(1.56657e-05 9.43192e-07 -2.69688e-14)
(1.65919e-05 1.13248e-07 -2.03452e-14)
(1.72165e-05 -6.41111e-07 1.88875e-15)
(-5.76519e-07 3.83299e-06 -6.89597e-17)
(-7.72463e-08 3.97906e-06 1.03296e-16)
(5.21437e-07 4.04683e-06 -2.31797e-16)
(1.19752e-06 4.19127e-06 1.06162e-15)
(1.91205e-06 4.33993e-06 -1.68239e-15)
(2.72275e-06 4.50872e-06 -3.74192e-15)
(3.69544e-06 4.69268e-06 7.94058e-15)
(4.6578e-06 4.71712e-06 -5.26925e-15)
(5.45354e-06 4.43864e-06 4.30739e-15)
(6.18055e-06 4.04269e-06 6.5821e-15)
(6.90472e-06 3.66672e-06 8.73147e-15)
(7.6371e-06 3.27495e-06 -7.97024e-15)
(8.60454e-06 3.01145e-06 -6.3829e-15)
(9.76646e-06 2.78259e-06 4.20543e-15)
(1.10269e-05 2.44765e-06 1.73393e-14)
(1.2449e-05 2.06208e-06 4.64038e-15)
(1.36404e-05 1.41598e-06 -1.93168e-14)
(1.47989e-05 6.77471e-07 -6.00402e-16)
(1.56594e-05 -1.64285e-07 1.34982e-14)
(1.63836e-05 -1.05186e-06 1.19316e-14)
(-5.59311e-07 3.51518e-06 3.97603e-17)
(-9.89337e-08 3.63084e-06 -2.36898e-17)
(4.55275e-07 3.72192e-06 -3.11891e-16)
(1.07195e-06 3.83069e-06 -3.35196e-16)
(1.72288e-06 3.94863e-06 1.59155e-15)
(2.48715e-06 4.15129e-06 -4.389e-16)
(3.37498e-06 4.30198e-06 3.47397e-15)
(4.22929e-06 4.26448e-06 6.66123e-15)
(5.03825e-06 4.09993e-06 -4.72915e-15)
(5.7135e-06 3.73361e-06 -9.44165e-15)
(6.30567e-06 3.27198e-06 -9.15157e-15)
(7.08831e-06 2.99297e-06 6.63309e-16)
(7.9635e-06 2.71314e-06 1.19618e-14)
(9.03224e-06 2.44649e-06 9.45292e-15)
(1.0305e-05 2.16344e-06 -1.68017e-14)
(1.14602e-05 1.64956e-06 -1.23444e-14)
(1.27591e-05 1.07483e-06 -6.15155e-15)
(1.38003e-05 2.94057e-07 1.88118e-14)
(1.47955e-05 -5.76889e-07 1.55434e-14)
(1.54919e-05 -1.67956e-06 -1.09713e-14)
(1.58925e-05 -2.81027e-06 4.51694e-15)
(-5.42408e-07 3.23391e-06 -2.6123e-17)
(-1.13985e-07 3.34903e-06 -1.69494e-17)
(3.91075e-07 3.40355e-06 1.36823e-16)
(9.66815e-07 3.51678e-06 -9.32199e-17)
(1.5634e-06 3.64301e-06 2.61263e-15)
(2.25288e-06 3.77914e-06 -2.78323e-15)
(3.07449e-06 3.93473e-06 1.45103e-15)
(3.90722e-06 3.95348e-06 -3.86298e-15)
(4.5974e-06 3.71339e-06 4.64112e-17)
(5.24098e-06 3.3697e-06 -1.27544e-15)
(5.88498e-06 3.03824e-06 -3.87919e-15)
(6.52284e-06 2.66916e-06 5.88854e-17)
(7.36174e-06 2.39232e-06 5.11235e-15)
(8.35813e-06 2.127e-06 4.88141e-15)
(9.4479e-06 1.74955e-06 9.14062e-15)
(1.0707e-05 1.33529e-06 -8.63877e-15)
(1.17852e-05 6.78507e-07 -8.74163e-15)
(1.28983e-05 -9.07536e-08 -1.02724e-14)
(1.36871e-05 -1.06082e-06 -7.86852e-15)
(1.44511e-05 -2.14879e-06 1.65322e-15)
(1.50681e-05 -3.20926e-06 -3.56275e-15)
(-5.26427e-07 2.9869e-06 1.50605e-16)
(-1.3082e-07 3.07338e-06 6.62473e-17)
(3.4329e-07 3.14465e-06 -4.1959e-16)
(8.6468e-07 3.23274e-06 -1.81455e-15)
(1.41346e-06 3.32692e-06 1.97745e-15)
(2.06607e-06 3.48987e-06 -1.12917e-15)
(2.81642e-06 3.61172e-06 -8.37633e-15)
(3.55328e-06 3.56605e-06 4.92443e-15)
(4.25836e-06 3.42095e-06 -2.17033e-15)
(4.85125e-06 3.09752e-06 -7.44895e-15)
(5.37344e-06 2.67821e-06 9.46031e-15)
(6.05409e-06 2.39632e-06 -2.53104e-14)
(6.79524e-06 2.09402e-06 -4.79972e-16)
(7.70112e-06 1.77963e-06 1.5138e-15)
(8.7824e-06 1.45974e-06 4.1793e-15)
(9.77405e-06 9.23822e-07 2.13883e-14)
(1.09171e-05 3.27849e-07 -3.00038e-15)
(1.18467e-05 -4.95993e-07 8.5057e-15)
(1.27774e-05 -1.47215e-06 6.86469e-15)
(1.34285e-05 -2.51376e-06 -6.02186e-15)
(1.38847e-05 -3.77655e-06 1.13514e-14)
(-5.11495e-07 2.75648e-06 1.25755e-17)
(-1.43017e-07 2.84573e-06 -1.60905e-17)
(2.91236e-07 2.88554e-06 2.72576e-16)
(7.77503e-07 2.97755e-06 -1.17757e-15)
(1.29269e-06 3.07215e-06 -1.23877e-16)
(1.87571e-06 3.17897e-06 5.79482e-15)
(2.58004e-06 3.29668e-06 -1.04747e-15)
(3.29173e-06 3.30273e-06 -2.2866e-15)
(3.89103e-06 3.08598e-06 1.12335e-14)
(4.45183e-06 2.77838e-06 -1.02769e-14)
(5.01568e-06 2.46485e-06 1.69858e-14)
(5.56101e-06 2.09542e-06 5.46184e-15)
(6.26409e-06 1.7897e-06 -2.93269e-14)
(7.09381e-06 1.48287e-06 5.21665e-15)
(7.99784e-06 1.07519e-06 1.27362e-14)
(9.06123e-06 6.30529e-07 7.01572e-15)
(9.96692e-06 -5.05138e-08 -6.02673e-15)
(1.0905e-05 -8.62276e-07 4.13442e-15)
(1.1637e-05 -1.84508e-06 -2.40284e-15)
(1.23153e-05 -3.03084e-06 -1.03496e-14)
(1.2801e-05 -4.26866e-06 9.07944e-15)
(-4.98104e-07 2.54123e-06 5.05851e-17)
(-1.54875e-07 2.60983e-06 -4.7972e-17)
(2.51093e-07 2.66685e-06 2.74508e-16)
(6.97055e-07 2.73245e-06 1.20055e-15)
(1.16839e-06 2.80205e-06 1.92433e-15)
(1.72068e-06 2.93264e-06 -1.06515e-15)
(2.36322e-06 3.02136e-06 5.71116e-15)
(2.99278e-06 2.97154e-06 -5.59117e-17)
(3.60413e-06 2.83423e-06 3.9472e-15)
(4.12005e-06 2.53759e-06 1.19311e-14)
(4.57038e-06 2.13961e-06 -2.77186e-15)
(5.14865e-06 1.84758e-06 1.69771e-14)
(5.7607e-06 1.51751e-06 -4.00647e-17)
(6.50118e-06 1.17188e-06 -1.98492e-14)
(7.39145e-06 8.08099e-07 -5.46184e-16)
(8.19135e-06 2.49829e-07 -8.86021e-15)
(9.12905e-06 -3.73925e-07 -1.78082e-14)
(9.88368e-06 -1.19955e-06 -8.87755e-15)
(1.06122e-05 -2.18698e-06 -4.84083e-15)
(1.11333e-05 -3.31873e-06 6.79216e-15)
(1.15951e-05 -4.51421e-06 5.1055e-15)
(-4.78515e-07 2.32785e-06 6.22449e-17)
(-1.60398e-07 2.40331e-06 -2.78453e-17)
(2.10235e-07 2.43471e-06 -4.01828e-16)
(6.29044e-07 2.50591e-06 -3.99634e-17)
(1.06166e-06 2.5825e-06 -2.16627e-15)
(1.55965e-06 2.6601e-06 -7.29889e-16)
(2.1547e-06 2.74998e-06 8.00834e-16)
(2.76885e-06 2.7398e-06 -2.67734e-15)
(3.28478e-06 2.53569e-06 -5.17435e-15)
(3.77374e-06 2.24668e-06 5.07702e-15)
(4.25858e-06 1.94459e-06 -7.54301e-15)
(4.7101e-06 1.57504e-06 -2.03395e-14)
(5.28557e-06 1.24631e-06 1.51997e-14)
(5.95029e-06 9.06758e-07 1.21882e-14)
(6.67048e-06 4.67576e-07 6.7001e-15)
(7.52773e-06 2.18681e-09 -1.4279e-15)
(8.23438e-06 -6.70535e-07 2.64286e-15)
(8.95914e-06 -1.45712e-06 3.5221e-15)
(9.50375e-06 -2.38967e-06 -6.69496e-15)
(1.00594e-05 -3.43286e-06 -2.83242e-15)
(1.05111e-05 -4.53787e-06 -3.30413e-15)
(1.06887e-05 -5.74743e-06 -6.95448e-15)
(-4.53889e-07 2.12092e-06 5.81871e-17)
(-1.64657e-07 2.18302e-06 3.7315e-17)
(1.81663e-07 2.23202e-06 1.99148e-16)
(5.59673e-07 2.28763e-06 -3.8924e-16)
(9.57948e-07 2.34072e-06 -2.03756e-15)
(1.42936e-06 2.43848e-06 -3.07585e-15)
(1.97024e-06 2.50064e-06 2.19927e-15)
(2.50988e-06 2.43653e-06 -1.15926e-15)
(3.03658e-06 2.30125e-06 4.97711e-16)
(3.4794e-06 2.02424e-06 -5.64066e-15)
(3.86162e-06 1.64877e-06 -6.49699e-15)
(4.34172e-06 1.34961e-06 -1.40659e-14)
(4.82821e-06 1.00863e-06 -8.58717e-15)
(5.41259e-06 6.40916e-07 1.08702e-14)
(6.11063e-06 2.67426e-07 -1.9896e-15)
(6.72441e-06 -2.78709e-07 9.25974e-15)
(7.45851e-06 -8.72575e-07 4.35002e-15)
(8.0298e-06 -1.62918e-06 -1.32251e-14)
(8.5844e-06 -2.50021e-06 -1.35465e-14)
(8.96492e-06 -3.43406e-06 2.39061e-14)
(9.37839e-06 -4.45083e-06 -2.85515e-17)
(9.6209e-06 -5.60944e-06 -6.67308e-15)
(-4.24951e-07 1.91713e-06 3.72464e-18)
(-1.62587e-07 1.98924e-06 2.58355e-17)
(1.50323e-07 2.01988e-06 -4.65261e-17)
(5.01146e-07 2.08178e-06 7.99426e-16)
(8.73255e-07 2.13701e-06 -2.77569e-16)
(1.29162e-06 2.1917e-06 2.68361e-15)
(1.7975e-06 2.24884e-06 -3.6818e-15)
(2.31516e-06 2.22216e-06 3.80849e-15)
(2.75465e-06 2.02793e-06 -1.49666e-15)
(3.16898e-06 1.75968e-06 1.10686e-14)
(3.57665e-06 1.47003e-06 6.09854e-15)
(3.94249e-06 1.11023e-06 5.85794e-15)
(4.39697e-06 7.796e-07 -4.00937e-15)
(4.91202e-06 4.39429e-07 -4.39623e-15)
(5.45994e-06 1.56751e-08 2.47157e-15)
(6.11932e-06 -4.26023e-07 -7.53531e-15)
(6.64842e-06 -1.04198e-06 6.27798e-16)
(7.19725e-06 -1.74726e-06 1.09176e-14)
(7.62584e-06 -2.5526e-06 -4.89669e-16)
(8.08501e-06 -3.42663e-06 -2.00709e-14)
(8.34989e-06 -4.37906e-06 2.90812e-15)
(8.39209e-06 -5.52442e-06 -8.84049e-16)
(-3.95212e-07 1.72763e-06 -7.49853e-17)
(-1.58054e-07 1.78856e-06 9.37868e-17)
(1.29321e-07 1.83694e-06 -2.37483e-16)
(4.47138e-07 1.88193e-06 1.05911e-15)
(7.85462e-07 1.91967e-06 -3.26734e-16)
(1.17941e-06 1.99212e-06 2.2729e-15)
(1.63547e-06 2.02555e-06 3.92995e-15)
(2.08716e-06 1.95353e-06 -1.56847e-15)
(2.53164e-06 1.81786e-06 -5.11629e-15)
(2.90263e-06 1.55872e-06 -3.92249e-15)
(3.21623e-06 1.20702e-06 1.33391e-14)
(3.60401e-06 9.18319e-07 -4.41304e-15)
(3.98221e-06 5.88883e-07 4.04176e-15)
(4.42745e-06 2.40002e-07 -1.12328e-17)
(4.96012e-06 -1.16822e-07 8.65353e-15)
(5.40602e-06 -6.14595e-07 7.76008e-15)
(5.95794e-06 -1.15031e-06 -3.83141e-15)
(6.37756e-06 -1.81096e-06 -1.56868e-15)
(6.80334e-06 -2.55619e-06 6.89171e-16)
(7.09399e-06 -3.3714e-06 7.59832e-15)
(7.35951e-06 -4.30724e-06 -3.42758e-16)
(7.3926e-06 -5.31969e-06 -3.93552e-15)
(-3.6138e-07 1.55146e-06 3.18818e-17)
(-1.47092e-07 1.61862e-06 1.07285e-16)
(1.09894e-07 1.65009e-06 -6.80593e-16)
(4.0485e-07 1.70059e-06 -1.21144e-15)
(7.1137e-07 1.74438e-06 2.96716e-16)
(1.0624e-06 1.7772e-06 1.30538e-15)
(1.48055e-06 1.81e-06 -2.56421e-15)
(1.91538e-06 1.76614e-06 7.17807e-16)
(2.27997e-06 1.57791e-06 9.26351e-16)
(2.62499e-06 1.32445e-06 -2.9527e-15)
(2.95798e-06 1.05362e-06 -4.91301e-15)
(3.24305e-06 7.18618e-07 1.29646e-15)
(3.59459e-06 4.08899e-07 -2.59145e-15)
(3.98066e-06 9.31225e-08 -4.92265e-15)
(4.383e-06 -2.94387e-07 -1.32353e-14)
(4.87225e-06 -6.87749e-07 -7.23717e-15)
(5.24482e-06 -1.21989e-06 -2.16327e-15)
(5.64793e-06 -1.82036e-06 4.18603e-15)
(5.95625e-06 -2.49217e-06 3.42258e-15)
(6.29038e-06 -3.25264e-06 -6.03911e-15)
(6.4204e-06 -4.09554e-06 1.3498e-15)
(6.37097e-06 -5.09154e-06 4.20755e-15)
(-3.27601e-07 1.39572e-06 3.2807e-17)
(-1.36153e-07 1.44995e-06 -5.3576e-17)
(1.00523e-07 1.49388e-06 4.22951e-16)
(3.62547e-07 1.53292e-06 -8.03676e-16)
(6.41984e-07 1.55962e-06 2.38578e-16)
(9.70556e-07 1.60771e-06 -2.90017e-15)
(1.34412e-06 1.61905e-06 -4.64833e-15)
(1.71874e-06 1.53353e-06 2.67061e-15)
(2.08632e-06 1.39669e-06 8.5963e-15)
(2.38778e-06 1.15491e-06 2.93913e-16)
(2.63753e-06 8.34436e-07 2.9959e-15)
(2.94283e-06 5.66071e-07 -9.51112e-15)
(3.226e-06 2.68089e-07 -4.49413e-15)
(3.55676e-06 -4.65956e-08 -1.83774e-16)
(3.94489e-06 -3.54097e-07 1.22157e-14)
(4.2532e-06 -7.7689e-07 2.58172e-15)
(4.64627e-06 -1.21933e-06 -1.55552e-15)
(4.93591e-06 -1.75823e-06 1.07012e-14)
(5.23266e-06 -2.37509e-06 -1.88995e-15)
(5.40784e-06 -3.0603e-06 6.85039e-15)
(5.54452e-06 -3.88711e-06 -5.39127e-15)
(5.55066e-06 -4.64787e-06 -7.67218e-15)
(-2.96373e-07 1.25875e-06 4.80798e-17)
(-1.22684e-07 1.31441e-06 5.0778e-18)
(8.86768e-08 1.34108e-06 2.27994e-16)
(3.29687e-07 1.38246e-06 1.56339e-15)
(5.87331e-07 1.41002e-06 8.67704e-16)
(8.74566e-07 1.42633e-06 -3.25496e-15)
(1.21986e-06 1.43405e-06 4.95498e-15)
(1.57304e-06 1.3768e-06 -4.81655e-15)
(1.86906e-06 1.19739e-06 4.80469e-15)
(2.14528e-06 9.65041e-07 -2.34262e-15)
(2.40898e-06 7.17684e-07 1.10898e-15)
(2.62641e-06 4.1713e-07 6.57532e-15)
(2.89039e-06 1.43145e-07 -1.16074e-14)