/*--------------------------------*- C++ -*----------------------------------*\
| =========                 |                                                 |
| \\      /  F ield         | OpenFOAM: The Open Source CFD Toolbox           |
|  \\    /   O peration     | Version:  2306                                  |
|   \\  /    A nd           | Website:  www.openfoam.com                      |
|    \\/     M anipulation  |                                                 |
\*---------------------------------------------------------------------------*/
FoamFile
{
    version     2.0;
    format      ascii;
    arch        "LSB;label=32;scalar=64";
    class       volScalarField;
    location    "875";
    object      turbulenceProperties:k;
}
// * * * * * * * * * * * * * * * * * * * * * * * * * * * * * * * * * * * * * //

dimensions      [0 2 -2 0 0 0 0];

internalField   nonuniform List<scalar> 
1340
(
0.0199781
0.0232533
0.027418
0.03305
0.0396729
0.0480533
0.0587087
0.0718507
0.0885053
0.109757
0.137256
0.17364
0.222542
0.28991
0.385878
0.526366
0.742769
1.07626
1.66179
2.57324
4.62751
7.73429
18.1068
35.3421
39.1636
37.4705
36.8256
37.502
38.3347
38.5432
38.0314
36.8956
35.0607
32.5504
29.3093
0.0170387
0.0146483
0.0119551
0.00963852
0.00744359
0.00545907
0.00385214
0.00310761
0.00309044
0.0030551
0.00296698
0.00283057
0.00267373
0.0024886
0.00228038
0.00207426
0.0018721
0.00167936
0.00154523
0.0015259
0.00167373
0.00216395
0.00336944
0.0063236
0.0130706
0.0313537
0.0766794
0.227177
0.627114
1.92709
6.17275
12.0696
18.161
23.906
27.9829
28.7977
26.4226
22.518
18.5654
15.3597
12.9028
11.0154
0.00307934
0.00303751
0.00295212
0.00282555
0.00265253
0.00242442
0.00208395
0.00206749
0.00202087
0.0019496
0.00187507
0.00179316
0.00171036
0.00163591
0.00157187
0.0015222
0.00148378
0.00146172
0.00145573
0.00146825
0.00147289
0.00142749
0.00121356
0.00102767
1.87042e-05
0.00145242
0.000328002
0.00124936
4.51845e-05
0.0168267
0.183749
0.652339
1.65154
3.72686
7.34386
12.1181
16.436
18.5586
18.1414
16.2884
14.1315
0.00210019
0.00209761
0.00209204
0.00205481
0.00198873
0.00187779
0.00175895
0.00176259
0.00175374
0.00173914
0.00170901
0.00166416
0.00160825
0.00153845
0.00145868
0.00137045
0.00127564
0.00117557
0.00107121
0.000964481
0.000856297
0.000742622
0.000628484
0.000530987
0.000406741
0.000292893
6.86344e-05
0.00012527
1.59905e-05
0.00427872
0.0217003
0.0449099
0.0252335
0.0120036
0.0383996
0.366837
1.59489
4.33776
8.12681
11.2769
12.6336
0.00174008
0.0017115
0.00166663
0.00161258
0.00154482
0.0013196
0.00131727
0.00130698
0.00128864
0.00126026
0.00122178
0.00117527
0.00112144
0.00106205
0.00100073
0.000939449
0.000880676
0.000827033
0.000780147
0.000741159
0.000708374
0.000673883
0.000630157
0.000580609
0.000507371
0.000424167
0.0001956
2.38702e-05
4.79546e-06
0
0
0.0091277
0.0113453
0.0244848
0.077906
0.0160796
0.0534472
0.332697
1.94779
5.00186
0.00131619
0.00130688
0.00128834
0.00125865
0.0012168
0.00108163
0.00108625
0.00108581
0.00108193
0.0010713
0.00105408
0.00103101
0.00100118
0.00096522
0.000924085
0.000878138
0.000828462
0.000776231
0.000722371
0.00066784
0.000611316
0.000549727
0.000486518
0.000426915
0.000375258
0.00034124
0.000290227
0.000236247
6.17008e-05
1.0682e-05
4.99691e-06
1.73741e-06
0
0
0
0.00379134
0.0371421
0.00633391
0.0901432
0.197477
0.00107183
0.00105829
0.00103858
0.00101258
0.000874973
0.000878815
0.000879429
0.000877203
0.000870216
0.000858117
0.000841196
0.000818955
0.000791589
0.000759855
0.000724295
0.000685798
0.000645553
0.000604702
0.000564203
0.000525406
0.000490232
0.000457473
0.000423997
0.000388666
0.00035546
0.000328315
0.000308512
0.000255942
0.000167674
8.8386e-05
2.6076e-05
5.88992e-06
3.28541e-06
4.14931e-07
0
0
0.000803783
0.0284269
0.021063
0.000867789
0.000858059
0.000843906
0.000824416
0.000725201
0.000730151
0.000733091
0.000734275
0.000732265
0.000726773
0.000718018
0.000705357
0.000688788
0.000668662
0.000644952
0.000618116
0.000588682
0.000557134
0.000524031
0.000490051
0.000454768
0.000417268
0.000379309
0.000343296
0.000311283
0.000286246
0.000268865
0.000256507
0.000231816
0.000194108
0.000148846
9.96428e-05
5.98636e-05
6.54806e-06
3.09455e-06
1.33447e-07
0
0
0.00319992
0.000717763
0.000708798
0.000696783
0.000680834
0.000604943
0.00060971
0.000613184
0.000615353
0.000615274
0.000612634
0.000607494
0.000599288
0.000587942
0.000573561
0.0005561
0.000535805
0.000513034
0.000488153
0.000461704
0.000434109
0.000406
0.00037847
0.000351615
0.000325413
0.000300244
0.00027724
0.000257377
0.000240417
0.000222241
0.000199633
0.000175545
0.00015155
0.000127926
9.27936e-05
6.0277e-05
2.681e-06
1.67009e-06
0
0
0.000598409
0.000590845
0.00058107
0.000522973
0.00052261
0.000520431
0.000515952
0.000509102
0.000499872
0.000488115
0.000473944
0.000457527
0.000439046
0.000418796
0.000397067
0.000374311
0.00035049
0.000325766
0.000301207
0.000278095
0.000257369
0.000239241
0.000222314
0.000204132
0.000183406
0.000162191
0.00014363
0.000129224
0.000117486
0.000105781
7.73015e-05
3.32555e-05
2.90381e-06
0
0.000447079
0.00044483
0.000440705
0.000434675
0.000426558
0.00041638
0.000404203
0.000390105
0.000374293
0.000357003
0.000338495
0.000319189
0.000299522
0.000279884
0.000260905
0.000243078
0.000226594
0.000210603
0.000193316
0.000173776
0.00015332
0.000134846
0.00012005
0.000109302
0.00010131
9.66036e-05
8.50175e-05
4.99525e-05
3.25155e-06
0.00038348
0.000379862
0.000374563
0.000367566
0.000358866
0.00034848
0.00033651
0.000323094
0.000308435
0.000292832
0.000276398
0.000259494
0.000242869
0.000227087
0.00021228
0.000197804
0.000182301
0.000164943
0.000146596
0.000129392
0.000114838
0.000103158
9.36437e-05
8.74479e-05
8.4522e-05
8.15467e-05
5.28176e-05
0.000332569
0.00032923
0.000324496
0.00031832
0.000310669
0.000301599
0.000291193
0.000279567
0.00026698
0.000253625
0.000239756
0.000225827
0.000212257
0.000199134
0.000186046
0.000172072
0.00015661
0.00014029
0.000124743
0.000111251
9.99276e-05
9.02543e-05
8.21955e-05
7.65708e-05
7.44296e-05
7.81769e-05
0.000290059
0.000287006
0.000282763
0.000277277
0.000270553
0.000262623
0.000253552
0.000243537
0.000232707
0.000221212
0.00020939
0.00019766
0.000186104
0.000174429
0.000161977
0.00014829
0.000133828
0.000119877
0.000107554
9.70325e-05
8.79437e-05
8.00079e-05
7.33418e-05
6.84014e-05
6.7344e-05
0.000255968
0.000254151
0.000251344
0.000247488
0.000242558
0.000236567
0.000229555
0.000221626
0.000212927
0.000203554
0.000193689
0.000183692
0.000173636
0.000163318
0.000152288
0.00014021
0.000127416
0.00011491
0.000103659
9.39202e-05
8.54529e-05
7.80863e-05
7.1626e-05
6.67812e-05
6.01292e-05
0.000225361
0.000223622
0.000221006
0.000217491
0.000213055
0.00020771
0.000201509
0.000194588
0.000186982
0.000178789
0.000170306
0.000161618
0.000152589
0.000142894
0.000132294
0.00012103
0.000109879
9.96533e-05
9.06573e-05
8.27589e-05
7.58853e-05
6.98305e-05
6.53515e-05
5.94962e-05
0.000199115
0.000197444
0.000195014
0.000191793
0.000187777
0.000182984
0.000177523
0.000171411
0.000164686
0.00015756
0.000150125
0.000142298
0.000133847
0.000124592
0.000114718
0.000104823
9.55808e-05
8.73105e-05
7.99666e-05
7.35133e-05
6.78743e-05
6.33168e-05
5.97738e-05
0.000177447
0.000176478
0.000174875
0.000172603
0.000169648
0.000166001
0.000161739
0.000156874
0.000151408
0.000145467
0.000139161
0.000132441
0.00012513
0.0001171
0.000108487
9.97539e-05
9.14522e-05
8.38949e-05
7.71058e-05
7.10609e-05
6.58088e-05
6.12201e-05
5.86027e-05
0.000157799
0.000156828
0.000155293
0.000153174
0.000150455
0.000147172
0.000143342
0.000138944
0.000134037
0.00012874
0.000123026
0.000116755
0.000109829
0.000102354
9.46874e-05
8.72768e-05
8.04151e-05
7.41744e-05
6.85514e-05
6.36359e-05
5.92596e-05
5.64485e-05
0.000141174
0.000140675
0.000139708
0.000138242
0.000136261
0.000133766
0.000130789
0.000127294
0.000123287
0.000118878
0.000114061
0.000108726
0.000102793
9.6343e-05
8.96496e-05
8.30746e-05
7.68837e-05
7.11775e-05
6.5983e-05
6.13733e-05
5.7324e-05
5.41391e-05
0.000126201
0.000125664
0.000124706
0.000123307
0.000121456
0.000119185
0.000116443
0.000113209
0.000109578
0.000105556
0.000101055
9.60073e-05
9.04738e-05
8.46633e-05
7.88657e-05
7.33161e-05
6.81282e-05
6.33566e-05
5.90483e-05
5.53046e-05
5.19905e-05
0.000113237
0.000113022
0.000112457
0.00011152
0.000110187
0.000108483
0.000106361
0.000103786
0.000100829
9.75025e-05
9.37405e-05
8.948e-05
8.47627e-05
7.97495e-05
7.467e-05
6.97268e-05
6.50392e-05
6.06776e-05
5.66798e-05
5.31879e-05
4.99701e-05
0.00010165
0.000101382
0.000100801
9.98788e-05
9.86313e-05
9.70204e-05
9.50044e-05
9.26246e-05
8.99032e-05
8.67882e-05
8.322e-05
7.92252e-05
7.49273e-05
7.05059e-05
6.61327e-05
6.19229e-05
5.79553e-05
5.42701e-05
5.0999e-05
4.79712e-05
9.14158e-05
9.13728e-05
9.10648e-05
9.04688e-05
8.95882e-05
8.83936e-05
8.68455e-05
8.4956e-05
8.27557e-05
8.02002e-05
7.72357e-05
7.38768e-05
7.02165e-05
6.63928e-05
6.25499e-05
5.87932e-05
5.5204e-05
5.18253e-05
4.87668e-05
4.59333e-05
8.2211e-05
8.23326e-05
8.22332e-05
8.18916e-05
8.13007e-05
8.04449e-05
7.92799e-05
7.78013e-05
7.60432e-05
7.39716e-05
7.15325e-05
6.87305e-05
6.56347e-05
6.23507e-05
5.89951e-05
5.56642e-05
5.24353e-05
4.9353e-05
4.65086e-05
4.38503e-05
7.41709e-05
7.42277e-05
7.4081e-05
7.37184e-05
7.31327e-05
7.22832e-05
7.11486e-05
6.97658e-05
6.8105e-05
6.61159e-05
6.37959e-05
6.11955e-05
5.8395e-05
5.54853e-05
5.25504e-05
4.96616e-05
4.68645e-05
4.42302e-05
4.17363e-05
6.68054e-05
6.69763e-05
6.69767e-05
6.67931e-05
6.64211e-05
6.58248e-05
6.49766e-05
6.39065e-05
6.25924e-05
6.09872e-05
5.90829e-05
5.69149e-05
5.45426e-05
5.20369e-05
4.94671e-05
4.68966e-05
4.43703e-05
4.19454e-05
3.96072e-05
6.01599e-05
6.04105e-05
6.0521e-05
6.04752e-05
6.02715e-05
5.98762e-05
5.92621e-05
5.84499e-05
5.74255e-05
5.6146e-05
5.45973e-05
5.28042e-05
5.08086e-05
4.86646e-05
4.6429e-05
4.41556e-05
4.18822e-05
3.96621e-05
3.74782e-05
5.44717e-05
5.46612e-05
5.47191e-05
5.4644e-05
5.44075e-05
5.39815e-05
5.33829e-05
5.2598e-05
5.15895e-05
5.03422e-05
4.88712e-05
4.72051e-05
4.53829e-05
4.34494e-05
4.14498e-05
3.94162e-05
3.73892e-05
3.5361e-05
4.91016e-05
4.93458e-05
4.94796e-05
4.95018e-05
4.93884e-05
4.91131e-05
4.86864e-05
4.80981e-05
4.73153e-05
4.63217e-05
4.51246e-05
4.37432e-05
4.22048e-05
4.05428e-05
3.87925e-05
3.69816e-05
3.51413e-05
3.32639e-05
4.42475e-05
4.45266e-05
4.47145e-05
4.48086e-05
4.47894e-05
4.4633e-05
4.43441e-05
4.39145e-05
4.3317e-05
4.25349e-05
4.15693e-05
4.04321e-05
3.91415e-05
3.77209e-05
3.61975e-05
3.45916e-05
3.29278e-05
3.11981e-05
4.01608e-05
4.03857e-05
4.05313e-05
4.05824e-05
4.05169e-05
4.03364e-05
4.00342e-05
3.95874e-05
3.89795e-05
3.82083e-05
3.72791e-05
3.62028e-05
3.4995e-05
3.3675e-05
3.22581e-05
3.07599e-05
2.91739e-05
3.62095e-05
3.64565e-05
3.66365e-05
3.67385e-05
3.67423e-05
3.66455e-05
3.64439e-05
3.61178e-05
3.56524e-05
3.50423e-05
3.42887e-05
3.33965e-05
3.2375e-05
3.12366e-05
2.9991e-05
2.86483e-05
2.72003e-05
3.26329e-05
3.28912e-05
3.30934e-05
3.32309e-05
3.32855e-05
3.32523e-05
3.31292e-05
3.28998e-05
3.25493e-05
3.20715e-05
3.14644e-05
3.0729e-05
2.98688e-05
2.8891e-05
2.78004e-05
2.66019e-05
2.96603e-05
2.98742e-05
3.00345e-05
3.0125e-05
3.01393e-05
3.00762e-05
2.99219e-05
2.96632e-05
2.92931e-05
2.88076e-05
2.82044e-05
2.74832e-05
2.66463e-05
2.5695e-05
2.46294e-05
2.67332e-05
2.69515e-05
2.7125e-05
2.72397e-05
2.7288e-05
2.72696e-05
2.71732e-05
2.69872e-05
2.6704e-05
2.63183e-05
2.58257e-05
2.52229e-05
2.4509e-05
2.36818e-05
2.27381e-05
2.40837e-05
2.43004e-05
2.44797e-05
2.46088e-05
2.46809e-05
2.46952e-05
2.46425e-05
2.45128e-05
2.42989e-05
2.39945e-05
2.35935e-05
2.30912e-05
2.24838e-05
2.17667e-05
2.09339e-05
2.16871e-05
2.18984e-05
2.20774e-05
2.22137e-05
2.23008e-05
2.23378e-05
2.23175e-05
2.22311e-05
2.20718e-05
2.18327e-05
2.15074e-05
2.10898e-05
2.0574e-05
1.99538e-05
1.92217e-05
1.95204e-05
1.97228e-05
1.98975e-05
2.00356e-05
2.01313e-05
2.01835e-05
2.01865e-05
2.01327e-05
2.00158e-05
1.9829e-05
1.95656e-05
1.92187e-05
1.87814e-05
1.82463e-05
1.76046e-05
1.77543e-05
1.79219e-05
1.8058e-05
1.81573e-05
1.82186e-05
1.82373e-05
1.82075e-05
1.81232e-05
1.79779e-05
1.77648e-05
1.74767e-05
1.71064e-05
1.66454e-05
1.60847e-05
1.59749e-05
1.61332e-05
1.62642e-05
1.6363e-05
1.64288e-05
1.64581e-05
1.64456e-05
1.6386e-05
1.62733e-05
1.61008e-05
1.58614e-05
1.55477e-05
1.51513e-05
1.46627e-05
1.43672e-05
1.4515e-05
1.46391e-05
1.4735e-05
1.48021e-05
1.48376e-05
1.48369e-05
1.47955e-05
1.47081e-05
1.45683e-05
1.43692e-05
1.41034e-05
1.37628e-05
1.33382e-05
1.29162e-05
1.30529e-05
1.31687e-05
1.32597e-05
1.33254e-05
1.33638e-05
1.33711e-05
1.33432e-05
1.32753e-05
1.31616e-05
1.29955e-05
1.27702e-05
1.24779e-05
1.21095e-05
1.16074e-05
1.17327e-05
1.18395e-05
1.19246e-05
1.19873e-05
1.20264e-05
1.20385e-05
1.20202e-05
1.19672e-05
1.18743e-05
1.17354e-05
1.15441e-05
1.12933e-05
1.09744e-05
1.05418e-05
1.06395e-05
1.07179e-05
1.07766e-05
1.08145e-05
1.08292e-05
1.08177e-05
1.0776e-05
1.06996e-05
1.0583e-05
1.04204e-05
1.02052e-05
9.92966e-06
9.46867e-06
9.55716e-06
9.62856e-06
9.68247e-06
9.71827e-06
9.734e-06
9.72698e-06
9.69387e-06
9.63052e-06
9.53219e-06
9.39373e-06
9.20906e-06
8.50243e-06
8.58198e-06
8.64628e-06
8.6952e-06
8.72824e-06
8.74383e-06
8.73972e-06
8.71299e-06
8.66003e-06
8.57676e-06
8.45852e-06
8.29998e-06
7.633e-06
7.70412e-06
7.76162e-06
7.80542e-06
7.83532e-06
7.85006e-06
7.84773e-06
7.82575e-06
7.78106e-06
7.71017e-06
7.60896e-06
7.47277e-06
6.85139e-06
6.91466e-06
6.96568e-06
7.00448e-06
7.0311e-06
7.04451e-06
7.0431e-06
7.02469e-06
6.98664e-06
6.92595e-06
6.83911e-06
6.72203e-06
6.20524e-06
6.25022e-06
6.28433e-06
6.30768e-06
6.3195e-06
6.31846e-06
6.30272e-06
6.27002e-06
6.21777e-06
6.14303e-06
6.04231e-06
5.56826e-06
5.60769e-06
5.63741e-06
5.65763e-06
5.66782e-06
5.66682e-06
5.65306e-06
5.62468e-06
5.57948e-06
5.51494e-06
5.42816e-06
4.99676e-06
5.03112e-06
5.05683e-06
5.07416e-06
5.08271e-06
5.08151e-06
5.06926e-06
5.04441e-06
5.00511e-06
4.94924e-06
4.87433e-06
4.48436e-06
4.51416e-06
4.53622e-06
4.55089e-06
4.55787e-06
4.55636e-06
4.54528e-06
4.52334e-06
4.489e-06
4.4405e-06
4.37575e-06
4.02517e-06
4.05087e-06
4.0697e-06
4.08199e-06
4.08752e-06
4.08567e-06
4.07551e-06
4.05599e-06
4.02584e-06
3.98358e-06
3.9275e-06
3.6139e-06
3.636e-06
3.65196e-06
3.66212e-06
3.66633e-06
3.66411e-06
3.65471e-06
3.63722e-06
3.61062e-06
3.5737e-06
3.24574e-06
3.26468e-06
3.2781e-06
3.2864e-06
3.28946e-06
3.28689e-06
3.27809e-06
3.26233e-06
3.23875e-06
3.20638e-06
2.93255e-06
2.94376e-06
2.95042e-06
2.95249e-06
2.9496e-06
2.9413e-06
2.92699e-06
2.90599e-06
2.8775e-06
2.63565e-06
2.64494e-06
2.65018e-06
2.65136e-06
2.64821e-06
2.64034e-06
2.62729e-06
2.60849e-06
2.5833e-06
2.37014e-06
2.37778e-06
2.38182e-06
2.38227e-06
2.37893e-06
2.37146e-06
2.35951e-06
2.34261e-06
2.32026e-06
2.13223e-06
2.13849e-06
2.14153e-06
2.1414e-06
2.13795e-06
2.1309e-06
2.11997e-06
2.10479e-06
2.08495e-06
1.91827e-06
1.92334e-06
1.92558e-06
1.92504e-06
1.92159e-06
1.91501e-06
1.90507e-06
1.89149e-06
1.87392e-06
1.72532e-06
1.72937e-06
1.73094e-06
1.73008e-06
1.72667e-06
1.72057e-06
1.71158e-06
1.69947e-06
1.55172e-06
1.55489e-06
1.55585e-06
1.55467e-06
1.55127e-06
1.54554e-06
1.53734e-06
1.52648e-06
1.39642e-06
1.39879e-06
1.39917e-06
1.39764e-06
1.39417e-06
1.38866e-06
1.38102e-06
1.37114e-06
1.2601e-06
1.25994e-06
1.25805e-06
1.25443e-06
1.24902e-06
1.24174e-06
1.23255e-06
1.13666e-06
1.13599e-06
1.13374e-06
1.12995e-06
1.12453e-06
1.11745e-06
1.10876e-06
1.02798e-06
1.02721e-06
1.02501e-06
1.02157e-06
1.01652e-06
1.00988e-06
1.00212e-06
9.42203e-07
9.41183e-07
9.38763e-07
9.35527e-07
9.3054e-07
9.23923e-07
9.16938e-07
8.72726e-07
8.71307e-07
8.68354e-07
8.64683e-07
8.59184e-07
8.51867e-07
8.07195e-07
8.06028e-07
8.03311e-07
7.99844e-07
7.94629e-07
7.87492e-07
7.42834e-07
7.41145e-07
7.3785e-07
7.3378e-07
7.28231e-07
7.20492e-07
6.8312e-07
6.82225e-07
6.79816e-07
6.76463e-07
6.71878e-07
6.65585e-07
6.18493e-07
6.15406e-07
6.10764e-07
6.05512e-07
5.99436e-07
5.90169e-07
5.76963e-07
5.77204e-07
5.75908e-07
5.72705e-07
5.68983e-07
5.65553e-07
4.90314e-07
4.83733e-07
4.78243e-07
4.71715e-07
4.57539e-07
5.19307e-07
5.22179e-07
5.19072e-07
5.18169e-07
5.27803e-07
4.08661e-07
4.0952e-07
4.1564e-07
4.13111e-07
3.96847e-07
6.19937e-07
6.3725e-07
6.35607e-07
6.43063e-07
6.76846e-07
6.94092e-07
7.14458e-07
7.4361e-07
9.91267e-07
1.04911e-06
1.01152e-06
9.60321e-07
)
;

boundaryField
{
    inlet
    {
        type            calculated;
        value           nonuniform List<scalar> 4(4.37799e-06 4.65851e-06 4.71824e-06 4.77337e-06);
    }
    outlet
    {
        type            calculated;
        value           nonuniform List<scalar> 0();
    }
    walls
    {
        type            calculated;
        value           uniform 0;
    }
    frontAndBack
    {
        type            empty;
    }
    procBoundary5to0
    {
        type            processor;
        value           nonuniform List<scalar> 4(0.000509984 0.000504001 0.000497411 0.000489197);
    }
    procBoundary5to1
    {
        type            processor;
        value           nonuniform List<scalar> 
13
(
0.00288488
0.00215683
0.00215683
0.00172483
0.0014561
0.0014561
0.00115751
0.000979212
0.000979212
0.000799133
0.000660849
0.000568089
0.000568089
)
;
    }
    procBoundary5to4
    {
        type            processor;
        value           nonuniform List<scalar> 
95
(
0.000514657
0.000518555
0.00052157
0.00052157
0.000446723
0.000447599
0.000447599
0.000386287
0.000385603
0.000385603
0.000334552
0.000334552
0.000291966
0.000291966
0.000256863
0.000226292
0.000226292
0.00020006
0.00020006
0.00017782
0.00015825
0.00015825
0.000141238
0.000126349
0.000126349
0.000113127
0.000101625
0.000101625
9.12175e-05
8.18892e-05
7.39309e-05
7.39309e-05
6.6484e-05
5.97838e-05
5.41668e-05
5.41668e-05
4.87618e-05
4.38895e-05
3.98607e-05
3.98607e-05
3.58997e-05
3.23229e-05
2.93985e-05
2.93985e-05
2.64747e-05
2.38328e-05
2.14472e-05
1.92937e-05
1.7563e-05
1.7563e-05
1.57958e-05
1.42013e-05
1.27636e-05
1.14681e-05
1.04279e-05
1.04279e-05
9.36563e-06
8.4098e-06
7.55016e-06
6.7776e-06
6.14932e-06
6.14932e-06
5.51905e-06
4.9536e-06
4.44661e-06
3.99228e-06
3.58532e-06
3.22094e-06
2.91639e-06
2.91639e-06
2.6219e-06
2.3585e-06
2.12241e-06
1.91001e-06
1.71843e-06
1.54601e-06
1.39177e-06
1.25847e-06
1.25847e-06
1.13568e-06
1.02725e-06
9.41712e-07
8.7253e-07
8.06795e-07
7.42895e-07
6.82526e-07
6.20207e-07
5.74924e-07
4.9562e-07
4.9562e-07
5.15131e-07
4.06094e-07
6.04609e-07
6.51196e-07
9.89338e-07
)
;
    }
    procBoundary5to6
    {
        type            processor;
        value           nonuniform List<scalar> 
86
(
25.414
9.51836
12.1066
12.4506
8.10644
1.85189
0.126025
0.00839899
0.000901597
0
0
2.54002e-06
3.87392e-05
8.1999e-05
7.50783e-05
6.02719e-05
5.27487e-05
5.12976e-05
5.16525e-05
5.13069e-05
4.98781e-05
4.78595e-05
4.5696e-05
4.35664e-05
4.14913e-05
3.94389e-05
3.73953e-05
3.53616e-05
3.33421e-05
3.13508e-05
2.93979e-05
2.74884e-05
2.56326e-05
2.52864e-05
2.52864e-05
2.344e-05
2.16672e-05
1.99741e-05
1.83655e-05
1.6844e-05
1.54117e-05
1.40698e-05
1.28177e-05
1.16544e-05
1.05777e-05
9.58477e-06
8.97135e-06
8.97135e-06
8.09513e-06
7.29639e-06
6.57021e-06
5.91165e-06
5.31576e-06
4.77755e-06
4.29236e-06
3.8556e-06
3.52501e-06
3.52501e-06
3.16403e-06
2.84054e-06
2.55093e-06
2.29181e-06
2.05991e-06
1.85194e-06
1.68397e-06
1.68397e-06
1.51277e-06
1.35884e-06
1.22133e-06
1.09834e-06
9.92782e-07
9.08603e-07
8.44561e-07
8.44561e-07
7.80181e-07
7.12716e-07
6.58285e-07
5.81993e-07
5.57605e-07
4.51036e-07
5.17641e-07
4.03076e-07
6.96361e-07
6.96361e-07
7.47002e-07
1.26412e-06
)
;
    }
}


// ************************************************************************* //
