/*--------------------------------*- C++ -*----------------------------------*\
| =========                 |                                                 |
| \\      /  F ield         | OpenFOAM: The Open Source CFD Toolbox           |
|  \\    /   O peration     | Version:  2306                                  |
|   \\  /    A nd           | Website:  www.openfoam.com                      |
|    \\/     M anipulation  |                                                 |
\*---------------------------------------------------------------------------*/
FoamFile
{
    version     2.0;
    format      ascii;
    arch        "LSB;label=32;scalar=64";
    class       volScalarField;
    location    "725";
    object      turbulenceProperties:nuEff;
}
// * * * * * * * * * * * * * * * * * * * * * * * * * * * * * * * * * * * * * //

dimensions      [0 2 -1 0 0 0 0];

internalField   nonuniform List<scalar> 
1340
(
1.6102e-05
1.61027e-05
1.61023e-05
1.60833e-05
1.61034e-05
1.61028e-05
1.60813e-05
1.60832e-05
1.6104e-05
1.61033e-05
1.60723e-05
1.60746e-05
1.60812e-05
1.60831e-05
1.61048e-05
1.61039e-05
1.60774e-05
1.60731e-05
1.60723e-05
1.60745e-05
1.60811e-05
1.6083e-05
1.61055e-05
1.61046e-05
1.60902e-05
1.60864e-05
1.60822e-05
1.60778e-05
1.60733e-05
1.60723e-05
1.60744e-05
1.6081e-05
1.60829e-05
1.61063e-05
1.61054e-05
1.60996e-05
1.60967e-05
1.60941e-05
1.60908e-05
1.6087e-05
1.60827e-05
1.60783e-05
1.60736e-05
1.60722e-05
1.60743e-05
1.60809e-05
1.60827e-05
1.61071e-05
1.61063e-05
1.61121e-05
1.611e-05
1.61073e-05
1.61039e-05
1.61004e-05
1.60974e-05
1.60948e-05
1.60915e-05
1.60876e-05
1.60832e-05
1.60787e-05
1.60739e-05
1.60722e-05
1.60742e-05
1.60808e-05
1.60825e-05
1.61079e-05
1.61073e-05
1.61186e-05
1.61178e-05
1.61169e-05
1.61158e-05
1.61146e-05
1.6113e-05
1.61109e-05
1.61082e-05
1.61048e-05
1.61012e-05
1.60982e-05
1.60955e-05
1.60922e-05
1.60882e-05
1.60838e-05
1.60792e-05
1.60743e-05
1.60723e-05
1.60741e-05
1.60806e-05
1.60822e-05
1.61087e-05
1.61084e-05
1.61211e-05
1.61211e-05
1.61211e-05
1.6121e-05
1.61208e-05
1.61205e-05
1.61201e-05
1.61195e-05
1.61187e-05
1.61178e-05
1.61167e-05
1.61155e-05
1.61139e-05
1.61119e-05
1.61091e-05
1.61057e-05
1.6102e-05
1.6099e-05
1.60962e-05
1.60929e-05
1.60889e-05
1.60844e-05
1.60798e-05
1.60746e-05
1.60723e-05
1.6074e-05
1.60805e-05
1.60819e-05
1.61096e-05
1.61096e-05
1.61227e-05
1.61235e-05
1.61233e-05
1.6123e-05
1.61228e-05
1.61225e-05
1.61223e-05
1.61222e-05
1.61221e-05
1.61221e-05
1.61221e-05
1.61221e-05
1.6122e-05
1.6122e-05
1.6122e-05
1.61219e-05
1.61217e-05
1.61215e-05
1.6121e-05
1.61205e-05
1.61197e-05
1.61188e-05
1.61177e-05
1.61164e-05
1.61149e-05
1.61129e-05
1.61101e-05
1.61067e-05
1.6103e-05
1.60998e-05
1.6097e-05
1.60937e-05
1.60897e-05
1.60851e-05
1.60803e-05
1.60751e-05
1.60724e-05
1.60739e-05
1.60804e-05
1.60816e-05
1.61104e-05
1.61109e-05
1.0003e-05
1e-05
1e-05
1e-05
0.000156151
0.000477209
0.0161229
0.0552029
0.112672
0.176096
0.235519
0.285627
0.324084
0.350424
0.365822
0.372627
0.373759
0.362762
0.330907
0.27212
0.189015
0.0998213
0.0333382
0.00209375
0.000584217
1e-05
1e-05
1e-05
1.00017e-05
1.0408e-05
1.62221e-05
1.80217e-05
1.64551e-05
1.59049e-05
1.6032e-05
1.61413e-05
1.61418e-05
1.6128e-05
1.61259e-05
1.61256e-05
1.61242e-05
1.61234e-05
1.61234e-05
1.61234e-05
1.61232e-05
1.61231e-05
1.6123e-05
1.6123e-05
1.6123e-05
1.6123e-05
1.6123e-05
1.61229e-05
1.61229e-05
1.61227e-05
1.61224e-05
1.6122e-05
1.61215e-05
1.61207e-05
1.61198e-05
1.61187e-05
1.61175e-05
1.61159e-05
1.61139e-05
1.61112e-05
1.61077e-05
1.61039e-05
1.61007e-05
1.60979e-05
1.60945e-05
1.60905e-05
1.60858e-05
1.60809e-05
1.60755e-05
1.60725e-05
1.60737e-05
1.60802e-05
1.60813e-05
1.61112e-05
1.61123e-05
1.6349e-05
1.00048e-05
1e-05
1e-05
1e-05
1.00016e-05
0.00210079
0.00822625
0.0366934
0.0875719
0.150387
0.213188
0.268289
0.311939
0.342848
0.36159
0.370731
0.373003
0.36437
0.336098
0.281269
0.201234
0.112203
0.0400218
0.00370357
0.00103462
1e-05
1e-05
1e-05
1.00003e-05
1.00608e-05
1.51304e-05
1.87325e-05
1.69732e-05
1.59832e-05
1.59926e-05
1.61208e-05
1.61325e-05
1.61186e-05
1.61214e-05
1.61268e-05
1.61267e-05
1.61249e-05
1.61241e-05
1.61241e-05
1.61241e-05
1.61241e-05
1.6124e-05
1.6124e-05
1.6124e-05
1.6124e-05
1.61239e-05
1.61239e-05
1.61237e-05
1.61235e-05
1.61231e-05
1.61225e-05
1.61218e-05
1.61209e-05
1.61198e-05
1.61185e-05
1.6117e-05
1.6115e-05
1.61123e-05
1.61088e-05
1.6105e-05
1.61017e-05
1.60988e-05
1.60954e-05
1.60913e-05
1.60865e-05
1.60816e-05
1.6076e-05
1.60727e-05
1.60736e-05
1.60801e-05
1.6081e-05
1.6112e-05
1.61138e-05
1.797e-05
1.6265e-05
1.00605e-05
1.00003e-05
1e-05
1e-05
1e-05
0.0006344
0.00230465
0.021226
0.0633427
0.122997
0.187872
0.247798
0.297042
0.333197
0.356247
0.368297
0.371885
0.365541
0.340774
0.289987
0.213191
0.124027
0.0476398
0.00673934
0.00182246
1e-05
1e-05
1e-05
1e-05
1.00001e-05
1.27844e-05
1.82483e-05
1.73037e-05
1.60785e-05
1.5996e-05
1.61669e-05
1.61834e-05
1.61337e-05
1.61147e-05
1.61207e-05
1.61266e-05
1.61269e-05
1.61256e-05
1.6125e-05
1.6125e-05
1.61251e-05
1.61251e-05
1.6125e-05
1.6125e-05
1.6125e-05
1.61249e-05
1.61248e-05
1.61246e-05
1.61242e-05
1.61236e-05
1.61229e-05
1.6122e-05
1.61209e-05
1.61197e-05
1.61181e-05
1.61162e-05
1.61135e-05
1.611e-05
1.61061e-05
1.61027e-05
1.60997e-05
1.60963e-05
1.60922e-05
1.60873e-05
1.60823e-05
1.60766e-05
1.60729e-05
1.60735e-05
1.60799e-05
1.60806e-05
1.61128e-05
1.61154e-05
1.62273e-05
1.77573e-05
1.62113e-05
1.04635e-05
1.00022e-05
1e-05
1e-05
1e-05
1.1143e-05
0.00263517
0.0102456
0.0421355
0.0955727
0.160497
0.22466
0.27977
0.321747
0.34966
0.364955
0.369959
0.365767
0.34443
0.29777
0.224303
0.135237
0.0555254
0.0102291
0.002709
1e-05
1e-05
1e-05
1e-05
1.00079e-05
1.1937e-05
1.79068e-05
1.76955e-05
1.60049e-05
1.56778e-05
1.59825e-05
1.61814e-05
1.61807e-05
1.61352e-05
1.6119e-05
1.61226e-05
1.61267e-05
1.61271e-05
1.61264e-05
1.61261e-05
1.61261e-05
1.61261e-05
1.61261e-05
1.61261e-05
1.6126e-05
1.61259e-05
1.61257e-05
1.61253e-05
1.61248e-05
1.61241e-05
1.61232e-05
1.61221e-05
1.61208e-05
1.61193e-05
1.61174e-05
1.61147e-05
1.61113e-05
1.61073e-05
1.61037e-05
1.61008e-05
1.60973e-05
1.60931e-05
1.60882e-05
1.60831e-05
1.60772e-05
1.60731e-05
1.60734e-05
1.60797e-05
1.60803e-05
1.61136e-05
1.6117e-05
1.60107e-05
1.62235e-05
1.7441e-05
1.64382e-05
1.18308e-05
1.00084e-05
1e-05
1e-05
1e-05
1e-05
0.000959251
0.00358155
0.0244758
0.068302
0.129669
0.196616
0.258195
0.307632
0.342161
0.362046
0.369483
0.367102
0.348913
0.306476
0.236556
0.148149
0.0650979
0.0135531
0.00396211
0.000124453
1e-05
1e-05
1e-05
1.00031e-05
1.07e-05
1.68764e-05
1.973e-05
1.76036e-05
1.60479e-05
1.57927e-05
1.60065e-05
1.61534e-05
1.61635e-05
1.61356e-05
1.61237e-05
1.61251e-05
1.61276e-05
1.61278e-05
1.61274e-05
1.61272e-05
1.61272e-05
1.61272e-05
1.61272e-05
1.61271e-05
1.61269e-05
1.61266e-05
1.6126e-05
1.61253e-05
1.61244e-05
1.61234e-05
1.61221e-05
1.61206e-05
1.61187e-05
1.61161e-05
1.61126e-05
1.61085e-05
1.61049e-05
1.61019e-05
1.60984e-05
1.60942e-05
1.60891e-05
1.60839e-05
1.60779e-05
1.60734e-05
1.60732e-05
1.60795e-05
1.60799e-05
1.61143e-05
1.61188e-05
1.61315e-05
1.60639e-05
1.62001e-05
1.67683e-05
1.66425e-05
1.45704e-05
1.01753e-05
1.00008e-05
1e-05
1e-05
1e-05
1.30867e-05
0.00248494
0.0094963
0.0352655
0.0805782
0.140526
0.205024
0.264261
0.311554
0.343852
0.361354
0.364871
0.354184
0.322613
0.265232
0.186314
0.102717
0.0405726
0.00591191
0.00198079
2.56737e-05
1e-05
1e-05
1e-05
1.0002e-05
1.02645e-05
1.45409e-05
1.84516e-05
1.76497e-05
1.62888e-05
1.58828e-05
1.59988e-05
1.61334e-05
1.61561e-05
1.61358e-05
1.61255e-05
1.61267e-05
1.61289e-05
1.61291e-05
1.61288e-05
1.61286e-05
1.61286e-05
1.61286e-05
1.61284e-05
1.61281e-05
1.61276e-05
1.61269e-05
1.6126e-05
1.61249e-05
1.61237e-05
1.61222e-05
1.61202e-05
1.61177e-05
1.61142e-05
1.61101e-05
1.61064e-05
1.61032e-05
1.60997e-05
1.60954e-05
1.60903e-05
1.60849e-05
1.60787e-05
1.60738e-05
1.60731e-05
1.60793e-05
1.60796e-05
1.6115e-05
1.61207e-05
1.61375e-05
1.61337e-05
1.60798e-05
1.6132e-05
1.63916e-05
1.72419e-05
1.6079e-05
1.31055e-05
1.00028e-05
1e-05
1e-05
1e-05
1e-05
5.25208e-05
0.00232286
0.00856944
0.0315999
0.0738324
0.1314
0.195296
0.255505
0.30449
0.338431
0.356352
0.358327
0.342499
0.30292
0.238045
0.158259
0.0823264
0.0297342
0.00261646
0.00096326
1e-05
1e-05
1e-05
1e-05
1.00023e-05
1.04444e-05
1.52115e-05
1.85709e-05
1.74075e-05
1.61485e-05
1.58956e-05
1.60529e-05
1.61564e-05
1.61539e-05
1.61325e-05
1.61273e-05
1.61298e-05
1.61311e-05
1.61309e-05
1.61306e-05
1.61304e-05
1.61303e-05
1.613e-05
1.61295e-05
1.61289e-05
1.6128e-05
1.61269e-05
1.61256e-05
1.61241e-05
1.61222e-05
1.61197e-05
1.61162e-05
1.6112e-05
1.61081e-05
1.61048e-05
1.61012e-05
1.60969e-05
1.60916e-05
1.6086e-05
1.60797e-05
1.60743e-05
1.6073e-05
1.60791e-05
1.60792e-05
1.61156e-05
1.61227e-05
1.61271e-05
1.61321e-05
1.61267e-05
1.61062e-05
1.60963e-05
1.62842e-05
1.67795e-05
1.72802e-05
1.53406e-05
1.10666e-05
1.0005e-05
1e-05
1e-05
1e-05
1e-05
4.79067e-05
0.00203495
0.00742897
0.0294792
0.0707452
0.127829
0.191966
0.252964
0.302754
0.33682
0.352907
0.350761
0.326849
0.277289
0.206174
0.127512
0.0595805
0.0166704
0.00469945
0.000130806
1e-05
1e-05
1e-05
1e-05
1.00066e-05
1.1434e-05
1.71558e-05
1.82812e-05
1.66874e-05
1.59094e-05
1.59463e-05
1.61168e-05
1.61618e-05
1.61421e-05
1.61295e-05
1.61299e-05
1.6132e-05
1.61325e-05
1.61324e-05
1.61323e-05
1.6132e-05
1.61315e-05
1.61309e-05
1.613e-05
1.61289e-05
1.61276e-05
1.61261e-05
1.61242e-05
1.61217e-05
1.61183e-05
1.6114e-05
1.611e-05
1.61065e-05
1.61028e-05
1.60984e-05
1.60931e-05
1.60873e-05
1.60808e-05
1.6075e-05
1.60729e-05
1.60788e-05
1.60789e-05
1.61162e-05
1.61247e-05
1.61252e-05
1.61277e-05
1.61268e-05
1.61177e-05
1.60902e-05
1.61672e-05
1.64194e-05
1.72188e-05
1.68219e-05
1.42171e-05
1.00885e-05
1.00004e-05
1e-05
1e-05
1e-05
1e-05
4.02726e-05
0.00202258
0.00740965
0.0296021
0.0712485
0.128973
0.193905
0.255437
0.30473
0.336671
0.347875
0.33848
0.30461
0.245819
0.170587
0.0946971
0.0376105
0.00638747
0.00191312
1.00776e-05
1e-05
1e-05
1e-05
1.00006e-05
1.01054e-05
1.41973e-05
1.85984e-05
1.7512e-05
1.61585e-05
1.58969e-05
1.60611e-05
1.61583e-05
1.61543e-05
1.61373e-05
1.61339e-05
1.61347e-05
1.61344e-05
1.6134e-05
1.61339e-05
1.61337e-05
1.61331e-05
1.61322e-05
1.61311e-05
1.61297e-05
1.61282e-05
1.61263e-05
1.61239e-05
1.61205e-05
1.61162e-05
1.6112e-05
1.61084e-05
1.61046e-05
1.61001e-05
1.60947e-05
1.60887e-05
1.6082e-05
1.60757e-05
1.60729e-05
1.60785e-05
1.60785e-05
1.61166e-05
1.61267e-05
1.61239e-05
1.61244e-05
1.61254e-05
1.61276e-05
1.61187e-05
1.6106e-05
1.60847e-05
1.62571e-05
1.66828e-05
1.73471e-05
1.6074e-05
1.17197e-05
1.00081e-05
1e-05
1e-05
1e-05
1e-05
1e-05
4.46083e-05
0.00226518
0.00839129
0.0320542
0.075497
0.135012
0.201006
0.26217
0.308929
0.335928
0.340353
0.321268
0.276319
0.208676
0.131534
0.0629086
0.0189967
0.000577476
0.000267308
1e-05
1e-05
1e-05
1e-05
1e-05
1.15751e-05
1.73319e-05
1.81473e-05
1.65348e-05
1.59093e-05
1.59937e-05
1.61284e-05
1.61473e-05
1.61338e-05
1.61334e-05
1.61376e-05
1.6138e-05
1.61366e-05
1.61357e-05
1.61351e-05
1.61344e-05
1.61334e-05
1.6132e-05
1.61304e-05
1.61285e-05
1.61262e-05
1.61229e-05
1.61185e-05
1.61142e-05
1.61104e-05
1.61064e-05
1.61019e-05
1.60964e-05
1.60902e-05
1.60832e-05
1.60766e-05
1.60729e-05
1.60782e-05
1.60781e-05
1.61169e-05
1.61287e-05
1.61238e-05
1.6124e-05
1.61242e-05
1.61251e-05
1.61261e-05
1.61244e-05
1.61107e-05
1.60861e-05
1.6127e-05
1.63463e-05
1.70786e-05
1.70035e-05
1.45519e-05
1.01105e-05
1.00005e-05
1e-05
1e-05
1e-05
1e-05
1e-05
6.24756e-05
0.00259971
0.00966251
0.036689
0.0835803
0.145897
0.212748
0.272001
0.314097
0.333381
0.328514
0.29752
0.240532
0.16609
0.0912125
0.0355629
0.0057073
0.00166786
1.05583e-05
1e-05
1e-05
1e-05
1.00016e-05
1.03506e-05
1.55997e-05
1.85655e-05
1.70806e-05
1.6052e-05
1.6008e-05
1.61619e-05
1.61814e-05
1.6142e-05
1.61274e-05
1.61334e-05
1.61387e-05
1.61391e-05
1.61378e-05
1.61368e-05
1.61357e-05
1.61344e-05
1.61328e-05
1.61309e-05
1.61286e-05
1.61253e-05
1.6121e-05
1.61166e-05
1.61126e-05
1.61084e-05
1.61038e-05
1.60982e-05
1.60919e-05
1.60847e-05
1.60776e-05
1.60731e-05
1.60778e-05
1.60777e-05
1.6117e-05
1.61307e-05
1.61241e-05
1.61243e-05
1.61245e-05
1.61246e-05
1.61252e-05
1.61259e-05
1.6127e-05
1.61182e-05
1.61024e-05
1.60722e-05
1.6206e-05
1.65728e-05
1.74153e-05
1.57466e-05
1.23903e-05
1e-05
1e-05
1e-05
1e-05
1e-05
1e-05
1e-05
0.000151463
0.000229218
0.0132543
0.0446619
0.0963818
0.161824
0.228567
0.283707
0.318297
0.327211
0.310109
0.265303
0.197238
0.120719
0.054685
0.014501
0.000892491
0.000287949
1e-05
1e-05
1e-05
1.00001e-05
1.00167e-05
1.3147e-05
1.82402e-05
1.73808e-05
1.59277e-05
1.575e-05
1.60556e-05
1.62088e-05
1.61882e-05
1.61467e-05
1.61354e-05
1.61381e-05
1.614e-05
1.61395e-05
1.61383e-05
1.61368e-05
1.61352e-05
1.61334e-05
1.6131e-05
1.61279e-05
1.61236e-05
1.61191e-05
1.61149e-05
1.61106e-05
1.61059e-05
1.61001e-05
1.60936e-05
1.60862e-05
1.60787e-05
1.60733e-05
1.60775e-05
1.60773e-05
1.61171e-05
1.61326e-05
1.61247e-05
1.61249e-05
1.61251e-05
1.61252e-05
1.61254e-05
1.61257e-05
1.61266e-05
1.61273e-05
1.61261e-05
1.61115e-05
1.60874e-05
1.60942e-05
1.63552e-05
1.69298e-05
1.72957e-05
1.44614e-05
1.06289e-05
1.0003e-05
1e-05
1e-05
1e-05
1e-05
1e-05
1.00001e-05
0.000609969
0.00195539
0.0186883
0.0564728
0.114177
0.182328
0.246899
0.294787
0.317942
0.31374
0.28088
0.221261
0.14599
0.0740701
0.0255829
0.00323325
0.000754786
1e-05
1e-05
1e-05
1e-05
1.00069e-05
1.16344e-05
1.88046e-05
1.97469e-05
1.69555e-05
1.5774e-05
1.58135e-05
1.60716e-05
1.61681e-05
1.6161e-05
1.61452e-05
1.61413e-05
1.61415e-05
1.6141e-05
1.61397e-05
1.61381e-05
1.61361e-05
1.61338e-05
1.61308e-05
1.61266e-05
1.61221e-05
1.61177e-05
1.61131e-05
1.61082e-05
1.61024e-05
1.60957e-05
1.6088e-05
1.60802e-05
1.60739e-05
1.60771e-05
1.60767e-05
1.61166e-05
1.61345e-05
1.61252e-05
1.61254e-05
1.61255e-05
1.61257e-05
1.61259e-05
1.61261e-05
1.61263e-05
1.61269e-05
1.61279e-05
1.61289e-05
1.61221e-05
1.61023e-05
1.60722e-05
1.61965e-05
1.65798e-05
1.7416e-05
1.65425e-05
1.33965e-05
1.01987e-05
1.0001e-05
1e-05
1e-05
1e-05
1e-05
1e-05
1.06248e-05
0.00154122
0.00565741
0.0284843
0.074316
0.139103
0.210465
0.272578
0.312609
0.322603
0.301591
0.249468
0.173997
0.094393
0.0310315
0.00928915
0.00106582
0.000458897
0.000147295
1.21451e-05
1e-05
1e-05
1e-05
1.2599e-05
1.84713e-05
1.83696e-05
1.66864e-05
1.6062e-05
1.605e-05
1.61266e-05
1.61504e-05
1.61478e-05
1.61442e-05
1.61429e-05
1.61418e-05
1.61402e-05
1.61383e-05
1.6136e-05
1.6133e-05
1.61289e-05
1.61244e-05
1.61198e-05
1.6115e-05
1.611e-05
1.61041e-05
1.60973e-05
1.60894e-05
1.60812e-05
1.60743e-05
1.6077e-05
1.60764e-05
1.61172e-05
1.6136e-05
1.61257e-05
1.61259e-05
1.61262e-05
1.61264e-05
1.61266e-05
1.61269e-05
1.61272e-05
1.61274e-05
1.61277e-05
1.61287e-05
1.61298e-05
1.61305e-05
1.61159e-05
1.60954e-05
1.60792e-05
1.63096e-05
1.68447e-05
1.7413e-05
1.63106e-05
1.32677e-05
1.01523e-05
1.00006e-05
1e-05
1e-05
1e-05
1e-05
1e-05
4.09738e-05
0.00174169
0.00595158
0.0276521
0.0690198
0.125981
0.188274
0.242917
0.278914
0.288052
0.267691
0.219488
0.153558
0.0889402
0.0431377
0.0175017
0.00559791
0.00106753
0.000243817
1e-05
1e-05
1.00024e-05
1.04763e-05
1.3846e-05
1.63281e-05
1.65117e-05
1.62431e-05
1.61415e-05
1.61399e-05
1.61485e-05
1.61497e-05
1.61483e-05
1.61469e-05
1.61453e-05
1.61433e-05
1.6141e-05
1.61381e-05
1.61342e-05
1.61297e-05
1.6125e-05
1.61198e-05
1.61144e-05
1.61083e-05
1.61013e-05
1.60928e-05
1.60843e-05
1.60756e-05
1.6077e-05
1.60757e-05
1.61145e-05
1.61395e-05
)
;

boundaryField
{
    inlet
    {
        type            calculated;
        value           nonuniform List<scalar> 
27
(
1.6102e-05
1.61023e-05
1.61028e-05
1.61033e-05
1.61039e-05
1.61046e-05
1.61054e-05
1.61063e-05
1.61073e-05
1.61084e-05
1.61096e-05
1.61109e-05
1.61123e-05
1.61138e-05
1.61154e-05
1.6117e-05
1.61188e-05
1.61207e-05
1.61227e-05
1.61247e-05
1.61267e-05
1.61287e-05
1.61307e-05
1.61326e-05
1.61345e-05
1.6136e-05
1.61395e-05
)
;
    }
    outlet
    {
        type            calculated;
        value           nonuniform List<scalar> 
78
(
1.61257e-05
1.61259e-05
1.61262e-05
1.61264e-05
1.61266e-05
1.61269e-05
1.61272e-05
1.61274e-05
1.61277e-05
1.61287e-05
1.61298e-05
1.61305e-05
1.61159e-05
1.60954e-05
1.60792e-05
1.63096e-05
1.68447e-05
1.7413e-05
1.63106e-05
1.32677e-05
1.01523e-05
1.00006e-05
1e-05
1e-05
1e-05
1e-05
1e-05
4.09738e-05
0.00174169
0.00595158
0.0276521
0.0690198
0.125981
0.188274
0.242917
0.278914
0.288052
0.267691
0.219488
0.153558
0.0889402
0.0431377
0.0175017
0.00559791
0.00106753
0.000243817
1e-05
1e-05
1.00024e-05
1.04763e-05
1.3846e-05
1.63281e-05
1.65117e-05
1.62431e-05
1.61415e-05
1.61399e-05
1.61485e-05
1.61497e-05
1.61483e-05
1.61469e-05
1.61453e-05
1.61433e-05
1.6141e-05
1.61381e-05
1.61342e-05
1.61297e-05
1.6125e-05
1.61198e-05
1.61144e-05
1.61083e-05
1.61013e-05
1.60928e-05
1.60843e-05
1.60756e-05
1.6077e-05
1.60757e-05
1.61145e-05
1.61395e-05
)
;
    }
    walls
    {
        type            calculated;
        value           nonuniform List<scalar> 0();
    }
    frontAndBack
    {
        type            empty;
    }
    procBoundary7to3
    {
        type            processor;
        value           nonuniform List<scalar> 
16
(
1.57363e-05
1.79205e-05
1.62645e-05
1.59995e-05
1.61238e-05
1.61442e-05
1.61313e-05
1.61263e-05
1.61245e-05
1.61245e-05
1.61237e-05
1.61235e-05
1.61239e-05
1.61245e-05
1.6125e-05
1.61255e-05
)
;
    }
    procBoundary7to6
    {
        type            processor;
        value           nonuniform List<scalar> 
91
(
1.61018e-05
1.61021e-05
1.61021e-05
1.60834e-05
1.60834e-05
1.60814e-05
1.60814e-05
1.60724e-05
1.60746e-05
1.60746e-05
1.60771e-05
1.60729e-05
1.60729e-05
1.60897e-05
1.60859e-05
1.60817e-05
1.60817e-05
1.60989e-05
1.60961e-05
1.60935e-05
1.60935e-05
1.61113e-05
1.61092e-05
1.61064e-05
1.61031e-05
1.61031e-05
1.61177e-05
1.6117e-05
1.6116e-05
1.6115e-05
1.61137e-05
1.61137e-05
1.61203e-05
1.61202e-05
1.61202e-05
1.61201e-05
1.61199e-05
1.61196e-05
1.61192e-05
1.61192e-05
1.61236e-05
1.6123e-05
1.61224e-05
1.6122e-05
1.61217e-05
1.61215e-05
1.61214e-05
1.61213e-05
1.61212e-05
1.61212e-05
1.61212e-05
1.61212e-05
1.61212e-05
1e-05
1e-05
1e-05
0.00122832
0.00476838
0.0288206
0.0763278
0.137223
0.199177
0.254613
0.299959
0.333774
0.356189
0.368988
0.374745
0.374534
0.360837
0.325211
0.262523
0.17668
0.0878137
0.0254026
0.00052135
0.000171826
1e-05
1e-05
1e-05
1.00041e-05
1.09839e-05
1.68822e-05
1.7641e-05
1.62915e-05
1.59604e-05
1.60866e-05
1.6148e-05
1.61345e-05
1.6123e-05
1.6123e-05
)
;
    }
}


// ************************************************************************* //
