/*--------------------------------*- C++ -*----------------------------------*\
| =========                 |                                                 |
| \\      /  F ield         | OpenFOAM: The Open Source CFD Toolbox           |
|  \\    /   O peration     | Version:  2306                                  |
|   \\  /    A nd           | Website:  www.openfoam.com                      |
|    \\/     M anipulation  |                                                 |
\*---------------------------------------------------------------------------*/
FoamFile
{
    version     2.0;
    format      ascii;
    arch        "LSB;label=32;scalar=64";
    class       volScalarField;
    location    "725";
    object      turbulenceProperties:nut;
}
// * * * * * * * * * * * * * * * * * * * * * * * * * * * * * * * * * * * * * //

dimensions      [0 2 -1 0 0 0 0];

internalField   nonuniform List<scalar> 
1340
(
6.10199e-06
6.10274e-06
6.10233e-06
6.08333e-06
6.10338e-06
6.10276e-06
6.08133e-06
6.08325e-06
6.10405e-06
6.10328e-06
6.07231e-06
6.07456e-06
6.08121e-06
6.08314e-06
6.10476e-06
6.10389e-06
6.07744e-06
6.07309e-06
6.07228e-06
6.07449e-06
6.0811e-06
6.08301e-06
6.1055e-06
6.10459e-06
6.09024e-06
6.08641e-06
6.08221e-06
6.07784e-06
6.07333e-06
6.07225e-06
6.07442e-06
6.08099e-06
6.08286e-06
6.10627e-06
6.10539e-06
6.09963e-06
6.09674e-06
6.0941e-06
6.09085e-06
6.08698e-06
6.0827e-06
6.07828e-06
6.0736e-06
6.07224e-06
6.07433e-06
6.08087e-06
6.08268e-06
6.10707e-06
6.10629e-06
6.11213e-06
6.11002e-06
6.10728e-06
6.1039e-06
6.10039e-06
6.09744e-06
6.09477e-06
6.09149e-06
6.08759e-06
6.08323e-06
6.07874e-06
6.07391e-06
6.07224e-06
6.07423e-06
6.08075e-06
6.08246e-06
6.10788e-06
6.10729e-06
6.11858e-06
6.11782e-06
6.1169e-06
6.11583e-06
6.11457e-06
6.11301e-06
6.11092e-06
6.10818e-06
6.10477e-06
6.10119e-06
6.09818e-06
6.09548e-06
6.09218e-06
6.08824e-06
6.0838e-06
6.07923e-06
6.07425e-06
6.07227e-06
6.07412e-06
6.08063e-06
6.08222e-06
6.10871e-06
6.10839e-06
6.12113e-06
6.12111e-06
6.12108e-06
6.121e-06
6.12082e-06
6.12052e-06
6.12009e-06
6.1195e-06
6.11874e-06
6.11782e-06
6.11674e-06
6.11549e-06
6.11393e-06
6.11186e-06
6.10913e-06
6.10569e-06
6.10205e-06
6.09897e-06
6.09623e-06
6.09291e-06
6.08893e-06
6.08441e-06
6.07976e-06
6.07463e-06
6.07232e-06
6.07401e-06
6.0805e-06
6.08195e-06
6.10955e-06
6.10959e-06
6.12266e-06
6.12345e-06
6.12326e-06
6.12302e-06
6.1228e-06
6.12253e-06
6.1223e-06
6.12218e-06
6.12212e-06
6.1221e-06
6.12208e-06
6.12206e-06
6.12203e-06
6.12201e-06
6.12198e-06
6.12191e-06
6.12175e-06
6.12146e-06
6.12104e-06
6.12046e-06
6.11971e-06
6.11879e-06
6.11771e-06
6.11645e-06
6.1149e-06
6.11285e-06
6.11013e-06
6.10667e-06
6.10296e-06
6.09981e-06
6.09703e-06
6.09369e-06
6.08966e-06
6.08506e-06
6.08033e-06
6.07505e-06
6.0724e-06
6.07388e-06
6.08036e-06
6.08164e-06
6.11039e-06
6.11089e-06
3.01145e-09
1.32086e-11
0
0
0.000146151
0.000467209
0.0161129
0.0551929
0.112662
0.176086
0.235509
0.285617
0.324074
0.350414
0.365812
0.372617
0.373749
0.362752
0.330897
0.27211
0.189005
0.0998113
0.0333282
0.00208375
0.000574217
0
0
0
1.7237e-09
4.08044e-07
6.22208e-06
8.02174e-06
6.45505e-06
5.90489e-06
6.03203e-06
6.1413e-06
6.14175e-06
6.12804e-06
6.12592e-06
6.12557e-06
6.12416e-06
6.12341e-06
6.12337e-06
6.12336e-06
6.12322e-06
6.12309e-06
6.12304e-06
6.12303e-06
6.12301e-06
6.12298e-06
6.12296e-06
6.12293e-06
6.12287e-06
6.12272e-06
6.12245e-06
6.12204e-06
6.12147e-06
6.12072e-06
6.1198e-06
6.11872e-06
6.11746e-06
6.11593e-06
6.11389e-06
6.11119e-06
6.10772e-06
6.10393e-06
6.1007e-06
6.09788e-06
6.09452e-06
6.09045e-06
6.08577e-06
6.08094e-06
6.07552e-06
6.07251e-06
6.07375e-06
6.08021e-06
6.08131e-06
6.11122e-06
6.11229e-06
6.34901e-06
4.8341e-09
2.34276e-11
0
0
1.63691e-09
0.00209079
0.00821625
0.0366834
0.0875619
0.150377
0.213178
0.268279
0.311929
0.342838
0.36158
0.370721
0.372993
0.36436
0.336088
0.281259
0.201224
0.112193
0.0400118
0.00369357
0.00102462
0
0
0
3.06722e-10
6.08497e-08
5.13041e-06
8.73251e-06
6.97324e-06
5.9832e-06
5.99262e-06
6.12076e-06
6.13253e-06
6.1186e-06
6.12142e-06
6.12679e-06
6.12671e-06
6.12486e-06
6.12407e-06
6.12408e-06
6.12413e-06
6.12408e-06
6.12403e-06
6.12401e-06
6.12398e-06
6.12395e-06
6.12393e-06
6.12387e-06
6.12374e-06
6.12348e-06
6.12309e-06
6.12253e-06
6.12179e-06
6.12088e-06
6.11979e-06
6.11853e-06
6.117e-06
6.11499e-06
6.11231e-06
6.10883e-06
6.10497e-06
6.10165e-06
6.09878e-06
6.0954e-06
6.09129e-06
6.08652e-06
6.08159e-06
6.07603e-06
6.07266e-06
6.07362e-06
6.08006e-06
6.08097e-06
6.11204e-06
6.11378e-06
7.97003e-06
6.26497e-06
6.04593e-08
2.86363e-10
0
0
0
0.0006244
0.00229465
0.021216
0.0633327
0.122987
0.187862
0.247788
0.297032
0.333187
0.356237
0.368287
0.371875
0.365531
0.340764
0.289977
0.213181
0.124017
0.0476298
0.00672934
0.00181246
0
0
0
1.70322e-12
6.64901e-11
2.78437e-06
8.24834e-06
7.30374e-06
6.0785e-06
5.99598e-06
6.16693e-06
6.18339e-06
6.13368e-06
6.11467e-06
6.12072e-06
6.12664e-06
6.12689e-06
6.12557e-06
6.12502e-06
6.12503e-06
6.12509e-06
6.12507e-06
6.12503e-06
6.125e-06
6.12497e-06
6.12492e-06
6.12481e-06
6.12457e-06
6.12419e-06
6.12364e-06
6.12292e-06
6.12201e-06
6.12092e-06
6.11965e-06
6.11813e-06
6.11615e-06
6.1135e-06
6.11001e-06
6.10608e-06
6.10267e-06
6.09974e-06
6.09633e-06
6.09218e-06
6.08733e-06
6.0823e-06
6.0766e-06
6.07286e-06
6.07348e-06
6.07989e-06
6.08063e-06
6.11283e-06
6.11537e-06
6.22729e-06
7.7573e-06
6.21132e-06
4.63534e-07
2.16384e-09
0
0
0
1.14298e-06
0.00262517
0.0102356
0.0421255
0.0955627
0.160487
0.22465
0.27976
0.321737
0.34965
0.364945
0.369949
0.365757
0.34442
0.29776
0.224293
0.135227
0.0555154
0.0102191
0.002699
0
0
0
9.47036e-17
7.93413e-09
1.93699e-06
7.90683e-06
7.6955e-06
6.00487e-06
5.67782e-06
5.98248e-06
6.18144e-06
6.1807e-06
6.13515e-06
6.11898e-06
6.12258e-06
6.12673e-06
6.12713e-06
6.12638e-06
6.12608e-06
6.12612e-06
6.12615e-06
6.12612e-06
6.12608e-06
6.12603e-06
6.12593e-06
6.12571e-06
6.12535e-06
6.12482e-06
6.1241e-06
6.12319e-06
6.1221e-06
6.12084e-06
6.11933e-06
6.11737e-06
6.11474e-06
6.11125e-06
6.10726e-06
6.10375e-06
6.10076e-06
6.09732e-06
6.09314e-06
6.0882e-06
6.08306e-06
6.07721e-06
6.0731e-06
6.07335e-06
6.07971e-06
6.08027e-06
6.11357e-06
6.11701e-06
6.01069e-06
6.22351e-06
7.44096e-06
6.43816e-06
1.83077e-06
8.39877e-09
4.38092e-16
0
0
0
0.000949251
0.00357155
0.0244658
0.068292
0.129659
0.196606
0.258185
0.307622
0.342151
0.362036
0.369473
0.367092
0.348903
0.306466
0.236546
0.148139
0.0650879
0.0135431
0.00395211
0.000114453
0
0
0
3.10504e-09
7.00028e-07
6.87643e-06
9.72996e-06
7.60358e-06
6.04791e-06
5.79273e-06
6.00646e-06
6.15336e-06
6.16351e-06
6.13564e-06
6.12365e-06
6.12509e-06
6.12759e-06
6.12785e-06
6.1274e-06
6.12723e-06
6.12724e-06
6.12724e-06
6.1272e-06
6.1271e-06
6.1269e-06
6.12656e-06
6.12605e-06
6.12535e-06
6.12445e-06
6.12336e-06
6.12209e-06
6.12058e-06
6.11865e-06
6.11606e-06
6.11258e-06
6.10852e-06
6.10491e-06
6.10185e-06
6.09838e-06
6.09416e-06
6.08914e-06
6.08388e-06
6.07789e-06
6.07341e-06
6.07323e-06
6.07951e-06
6.07992e-06
6.11431e-06
6.11879e-06
6.13155e-06
6.0639e-06
6.20015e-06
6.76827e-06
6.64254e-06
4.57038e-06
1.75343e-07
8.46166e-10
4.11922e-18
0
0
3.08668e-06
0.00247494
0.0094863
0.0352555
0.0805682
0.140516
0.205014
0.264251
0.311544
0.343842
0.361344
0.364861
0.354174
0.322603
0.265222
0.186304
0.102707
0.0405626
0.00590191
0.00197079
1.56737e-05
0
0
5.93492e-13
1.97042e-09
2.64497e-07
4.54093e-06
8.45164e-06
7.64967e-06
6.28877e-06
5.88284e-06
5.99883e-06
6.13338e-06
6.15612e-06
6.13578e-06
6.12553e-06
6.12675e-06
6.1289e-06
6.12912e-06
6.12876e-06
6.12863e-06
6.12863e-06
6.12859e-06
6.12842e-06
6.1281e-06
6.12761e-06
6.12693e-06
6.12604e-06
6.12495e-06
6.12366e-06
6.12216e-06
6.12025e-06
6.1177e-06
6.11423e-06
6.1101e-06
6.10636e-06
6.10319e-06
6.09967e-06
6.09541e-06
6.09028e-06
6.08487e-06
6.07872e-06
6.07381e-06
6.07309e-06
6.0793e-06
6.07956e-06
6.11496e-06
6.12068e-06
6.13746e-06
6.13366e-06
6.07981e-06
6.13196e-06
6.39156e-06
7.24192e-06
6.079e-06
3.10552e-06
2.80273e-09
1.67239e-11
0
0
0
4.25208e-05
0.00231286
0.00855944
0.0315899
0.0738224
0.13139
0.195286
0.255495
0.30448
0.338421
0.356342
0.358317
0.342489
0.30291
0.238035
0.158249
0.0823164
0.0297242
0.00260646
0.00095326
0
0
0
1.29072e-13
2.33487e-09
4.44406e-07
5.21149e-06
8.57086e-06
7.40749e-06
6.14846e-06
5.89556e-06
6.05293e-06
6.15636e-06
6.15394e-06
6.13248e-06
6.12727e-06
6.12975e-06
6.13108e-06
6.13088e-06
6.13056e-06
6.13042e-06
6.13026e-06
6.12998e-06
6.12953e-06
6.12887e-06
6.12798e-06
6.12688e-06
6.12558e-06
6.12406e-06
6.12217e-06
6.11966e-06
6.11622e-06
6.112e-06
6.1081e-06
6.10479e-06
6.10119e-06
6.09687e-06
6.09163e-06
6.08604e-06
6.0797e-06
6.07433e-06
6.07297e-06
6.07907e-06
6.07922e-06
6.11561e-06
6.12269e-06
6.12714e-06
6.13206e-06
6.1267e-06
6.10623e-06
6.09628e-06
6.28424e-06
6.77953e-06
7.28019e-06
5.34059e-06
1.06662e-06
5.01878e-09
1.64032e-16
0
0
0
3.79067e-05
0.00202495
0.00741897
0.0294692
0.0707352
0.127819
0.191956
0.252954
0.302744
0.33681
0.352897
0.350751
0.326839
0.277279
0.206164
0.127502
0.0595705
0.0166604
0.00468945
0.000120806
0
0
0
2.698e-13
6.56499e-09
1.43397e-06
7.1558e-06
8.28119e-06
6.68743e-06
5.90937e-06
5.94631e-06
6.11678e-06
6.16178e-06
6.14213e-06
6.12949e-06
6.12995e-06
6.13205e-06
6.13251e-06
6.13242e-06
6.1323e-06
6.13202e-06
6.13155e-06
6.13089e-06
6.13002e-06
6.12892e-06
6.1276e-06
6.12607e-06
6.12419e-06
6.12172e-06
6.11831e-06
6.11404e-06
6.10999e-06
6.10651e-06
6.10282e-06
6.09844e-06
6.09309e-06
6.08731e-06
6.08078e-06
6.07496e-06
6.0729e-06
6.0788e-06
6.07888e-06
6.11617e-06
6.12471e-06
6.12521e-06
6.12768e-06
6.12681e-06
6.11767e-06
6.0902e-06
6.16719e-06
6.41942e-06
7.21878e-06
6.8219e-06
4.2171e-06
8.84952e-08
4.31343e-10
0
0
0
0
3.02726e-05
0.00201258
0.00739965
0.0295921
0.0712385
0.128963
0.193895
0.255427
0.30472
0.336661
0.347865
0.33847
0.3046
0.245809
0.170577
0.0946871
0.0376005
0.00637747
0.00190312
7.76405e-08
0
0
0
5.83296e-10
1.05405e-07
4.19726e-06
8.5984e-06
7.512e-06
6.15852e-06
5.89688e-06
6.06113e-06
6.15828e-06
6.15428e-06
6.13731e-06
6.1339e-06
6.13465e-06
6.1344e-06
6.13398e-06
6.13389e-06
6.13365e-06
6.13307e-06
6.13219e-06
6.13107e-06
6.12974e-06
6.12819e-06
6.12631e-06
6.12388e-06
6.12053e-06
6.11622e-06
6.11202e-06
6.10837e-06
6.10456e-06
6.10012e-06
6.09467e-06
6.0887e-06
6.08195e-06
6.07571e-06
6.07288e-06
6.07851e-06
6.07851e-06
6.1166e-06
6.12673e-06
6.12385e-06
6.12444e-06
6.12542e-06
6.12759e-06
6.11866e-06
6.10595e-06
6.08465e-06
6.2571e-06
6.68278e-06
7.34707e-06
6.07403e-06
1.71975e-06
8.1449e-09
2.57525e-16
0
0
0
0
3.46083e-05
0.00225518
0.00838129
0.0320442
0.075487
0.135002
0.200996
0.26216
0.308919
0.335918
0.340343
0.321258
0.276309
0.208666
0.131524
0.0628986
0.0189867
0.000567476
0.000257308
0
0
0
1.71087e-13
7.51346e-14
1.5751e-06
7.33191e-06
8.14734e-06
6.53476e-06
5.90932e-06
5.99373e-06
6.12838e-06
6.14726e-06
6.13383e-06
6.13345e-06
6.13761e-06
6.13803e-06
6.1366e-06
6.13567e-06
6.13515e-06
6.13443e-06
6.13335e-06
6.132e-06
6.13042e-06
6.12854e-06
6.12616e-06
6.12287e-06
6.11855e-06
6.11422e-06
6.11038e-06
6.10642e-06
6.10191e-06
6.09636e-06
6.0902e-06
6.08324e-06
6.07658e-06
6.07293e-06
6.07819e-06
6.07813e-06
6.11691e-06
6.12873e-06
6.12376e-06
6.12397e-06
6.1242e-06
6.1251e-06
6.12609e-06
6.12438e-06
6.11075e-06
6.0861e-06
6.12697e-06
6.3463e-06
7.07863e-06
7.00354e-06
4.55187e-06
1.10469e-07
5.46499e-10
5.92747e-20
0
0
0
0
5.24756e-05
0.00258971
0.00965251
0.036679
0.0835703
0.145887
0.212738
0.271991
0.314087
0.333371
0.328504
0.29751
0.240522
0.16608
0.0912025
0.0355529
0.0056973
0.00165786
5.58266e-07
0
0
5.6941e-20
1.6135e-09
3.50607e-07
5.59968e-06
8.56555e-06
7.08064e-06
6.05202e-06
6.00796e-06
6.16188e-06
6.18137e-06
6.14201e-06
6.12744e-06
6.13341e-06
6.13872e-06
6.13907e-06
6.13784e-06
6.13676e-06
6.1357e-06
6.13439e-06
6.1328e-06
6.13091e-06
6.12856e-06
6.12535e-06
6.12105e-06
6.11661e-06
6.11258e-06
6.10844e-06
6.10385e-06
6.0982e-06
6.09186e-06
6.08466e-06
6.07761e-06
6.07309e-06
6.07785e-06
6.0777e-06
6.11703e-06
6.1307e-06
6.1241e-06
6.12429e-06
6.12448e-06
6.12463e-06
6.12522e-06
6.12593e-06
6.12704e-06
6.11819e-06
6.10236e-06
6.0722e-06
6.20599e-06
6.57283e-06
7.41527e-06
5.74662e-06
2.3903e-06
2.0507e-11
2.97442e-13
0
0
0
0
0
0.000141463
0.000219218
0.0132443
0.0446519
0.0963718
0.161814
0.228557
0.283697
0.318287
0.327201
0.310099
0.265293
0.197228
0.120709
0.054675
0.014491
0.000882491
0.000277949
0
0
0
1.03569e-10
1.66987e-08
3.147e-06
8.24017e-06
7.38084e-06
5.92766e-06
5.74998e-06
6.05564e-06
6.2088e-06
6.18824e-06
6.14674e-06
6.13544e-06
6.1381e-06
6.14002e-06
6.13952e-06
6.13826e-06
6.13685e-06
6.13524e-06
6.13335e-06
6.13103e-06
6.12789e-06
6.12364e-06
6.11913e-06
6.1149e-06
6.11055e-06
6.10586e-06
6.10013e-06
6.09361e-06
6.08617e-06
6.07872e-06
6.07334e-06
6.07754e-06
6.07728e-06
6.11711e-06
6.13259e-06
6.1247e-06
6.12487e-06
6.12506e-06
6.12522e-06
6.12543e-06
6.12565e-06
6.12659e-06
6.12733e-06
6.12615e-06
6.11149e-06
6.08744e-06
6.09423e-06
6.35523e-06
6.92977e-06
7.29567e-06
4.46145e-06
6.28898e-07
2.97775e-09
7.37382e-16
0
0
0
0
9.3489e-11
0.000599969
0.00194539
0.0186783
0.0564628
0.114167
0.182318
0.246889
0.294777
0.317932
0.31373
0.28087
0.221251
0.14598
0.0740601
0.0255729
0.00322325
0.000744786
0
0
0
1.61066e-14
6.8787e-09
1.63445e-06
8.80456e-06
9.74693e-06
6.95553e-06
5.77403e-06
5.81349e-06
6.07163e-06
6.16807e-06
6.16101e-06
6.14523e-06
6.14134e-06
6.14152e-06
6.14104e-06
6.13972e-06
6.13806e-06
6.13614e-06
6.13384e-06
6.13079e-06
6.12661e-06
6.12207e-06
6.11766e-06
6.11307e-06
6.10823e-06
6.1024e-06
6.09572e-06
6.08799e-06
6.08021e-06
6.07385e-06
6.0771e-06
6.07675e-06
6.11656e-06
6.13454e-06
6.12518e-06
6.12536e-06
6.12555e-06
6.12574e-06
6.12594e-06
6.12612e-06
6.12634e-06
6.1269e-06
6.12788e-06
6.12885e-06
6.12208e-06
6.10232e-06
6.07223e-06
6.19649e-06
6.57981e-06
7.416e-06
6.54246e-06
3.39654e-06
1.98734e-07
9.86323e-10
7.0808e-16
0
0
0
0
6.248e-07
0.00153122
0.00564741
0.0284743
0.074306
0.139093
0.210455
0.272568
0.312599
0.322593
0.301581
0.249458
0.173987
0.094383
0.0310215
0.00927915
0.00105582
0.000448897
0.000137295
2.14508e-06
0
4.85971e-12
3.17526e-12
2.59901e-06
8.4713e-06
8.36958e-06
6.6864e-06
6.06203e-06
6.04998e-06
6.12655e-06
6.15036e-06
6.14776e-06
6.14424e-06
6.14293e-06
6.14181e-06
6.14023e-06
6.1383e-06
6.136e-06
6.13303e-06
6.12893e-06
6.12439e-06
6.11982e-06
6.11501e-06
6.11002e-06
6.10415e-06
6.09729e-06
6.08942e-06
6.08118e-06
6.07426e-06
6.07703e-06
6.07642e-06
6.11716e-06
6.13597e-06
6.12571e-06
6.12593e-06
6.12616e-06
6.1264e-06
6.12665e-06
6.12691e-06
6.12716e-06
6.12744e-06
6.12775e-06
6.12874e-06
6.12979e-06
6.13054e-06
6.11587e-06
6.09541e-06
6.07925e-06
6.30961e-06
6.84472e-06
7.41302e-06
6.31058e-06
3.26766e-06
1.52251e-07
5.82196e-10
0
0
0
0
0
3.09738e-05
0.00173169
0.00594158
0.0276421
0.0690098
0.125971
0.188264
0.242907
0.278904
0.288042
0.267681
0.219478
0.153548
0.0889302
0.0431277
0.0174917
0.00558791
0.00105753
0.000233817
0
3.92709e-18
2.37209e-09
4.76256e-07
3.84605e-06
6.3281e-06
6.51168e-06
6.24312e-06
6.14148e-06
6.13993e-06
6.14848e-06
6.14968e-06
6.14834e-06
6.14689e-06
6.14528e-06
6.14334e-06
6.14102e-06
6.13813e-06
6.1342e-06
6.12975e-06
6.12502e-06
6.11978e-06
6.11443e-06
6.10828e-06
6.10127e-06
6.09282e-06
6.08429e-06
6.07561e-06
6.077e-06
6.07569e-06
6.11447e-06
6.13951e-06
)
;

boundaryField
{
    inlet
    {
        type            freestream;
        freestreamValue uniform 1e-05;
        value           nonuniform List<scalar> 
27
(
6.10199e-06
6.10233e-06
6.10276e-06
6.10328e-06
6.10389e-06
6.10459e-06
6.10539e-06
6.10629e-06
6.10729e-06
6.10839e-06
6.10959e-06
6.11089e-06
6.11229e-06
6.11378e-06
6.11537e-06
6.11701e-06
6.11879e-06
6.12068e-06
6.12269e-06
6.12471e-06
6.12673e-06
6.12873e-06
6.1307e-06
6.13259e-06
6.13454e-06
6.13597e-06
6.13951e-06
)
;
    }
    outlet
    {
        type            freestream;
        freestreamValue uniform 1e-05;
        value           nonuniform List<scalar> 
78
(
6.12571e-06
6.12593e-06
6.12616e-06
6.1264e-06
6.12665e-06
6.12691e-06
6.12716e-06
6.12744e-06
6.12775e-06
6.12874e-06
6.12979e-06
6.13054e-06
6.11587e-06
6.09541e-06
6.07925e-06
6.30961e-06
6.84472e-06
7.41302e-06
6.31058e-06
3.26766e-06
1.52251e-07
5.82196e-10
0
0
0
0
0
3.09738e-05
0.00173169
0.00594158
0.0276421
0.0690098
0.125971
0.188264
0.242907
0.278904
0.288042
0.267681
0.219478
0.153548
0.0889302
0.0431277
0.0174917
0.00558791
0.00105753
0.000233817
0
3.92709e-18
2.37209e-09
4.76256e-07
3.84605e-06
6.3281e-06
6.51168e-06
6.24312e-06
6.14148e-06
6.13993e-06
6.14848e-06
6.14968e-06
6.14834e-06
6.14689e-06
6.14528e-06
6.14334e-06
6.14102e-06
6.13813e-06
6.1342e-06
6.12975e-06
6.12502e-06
6.11978e-06
6.11443e-06
6.10828e-06
6.10127e-06
6.09282e-06
6.08429e-06
6.07561e-06
6.077e-06
6.07569e-06
6.11447e-06
6.13951e-06
)
;
    }
    walls
    {
        type            nutUSpaldingWallFunction;
        value           nonuniform List<scalar> 0();
    }
    frontAndBack
    {
        type            empty;
    }
    procBoundary7to3
    {
        type            processor;
        value           nonuniform List<scalar> 
16
(
5.73632e-06
7.92046e-06
6.26453e-06
5.99947e-06
6.12377e-06
6.14416e-06
6.13134e-06
6.12635e-06
6.12454e-06
6.12454e-06
6.1237e-06
6.12355e-06
6.12392e-06
6.12454e-06
6.12501e-06
6.1255e-06
)
;
    }
    procBoundary7to6
    {
        type            processor;
        value           nonuniform List<scalar> 
91
(
6.10177e-06
6.10214e-06
6.10214e-06
6.08339e-06
6.08339e-06
6.08144e-06
6.08144e-06
6.07236e-06
6.07461e-06
6.07461e-06
6.07706e-06
6.07287e-06
6.07287e-06
6.08966e-06
6.08588e-06
6.08175e-06
6.08175e-06
6.09892e-06
6.09609e-06
6.09346e-06
6.09346e-06
6.1113e-06
6.10917e-06
6.10642e-06
6.10307e-06
6.10307e-06
6.11772e-06
6.11695e-06
6.11603e-06
6.11496e-06
6.11371e-06
6.11371e-06
6.12027e-06
6.12025e-06
6.12022e-06
6.12013e-06
6.11994e-06
6.11963e-06
6.11918e-06
6.11918e-06
6.12361e-06
6.123e-06
6.12242e-06
6.122e-06
6.1217e-06
6.12149e-06
6.12136e-06
6.12127e-06
6.12122e-06
6.12119e-06
6.12118e-06
6.12116e-06
6.12116e-06
4.55371e-17
0
2.85644e-11
0.00121832
0.00475838
0.0288106
0.0763178
0.137213
0.199167
0.254603
0.299949
0.333764
0.356179
0.368978
0.374735
0.374524
0.360827
0.325201
0.262513
0.17667
0.0878037
0.0253926
0.00051135
0.000161826
0
0
0
4.08908e-09
9.83882e-07
6.88219e-06
7.64103e-06
6.29153e-06
5.96037e-06
6.08665e-06
6.14803e-06
6.13447e-06
6.12297e-06
6.12297e-06
)
;
    }
}


// ************************************************************************* //
