/*--------------------------------*- C++ -*----------------------------------*\
| =========                 |                                                 |
| \\      /  F ield         | OpenFOAM: The Open Source CFD Toolbox           |
|  \\    /   O peration     | Version:  2306                                  |
|   \\  /    A nd           | Website:  www.openfoam.com                      |
|    \\/     M anipulation  |                                                 |
\*---------------------------------------------------------------------------*/
FoamFile
{
    version     2.0;
    format      ascii;
    arch        "LSB;label=32;scalar=64";
    class       volScalarField;
    location    "725";
    object      turbulenceProperties:epsilon;
}
// * * * * * * * * * * * * * * * * * * * * * * * * * * * * * * * * * * * * * //

dimensions      [0 2 -3 0 0 0 0];

internalField   nonuniform List<scalar> 
1340
(
6.71412e-10
3.87686e-10
6.91143e-10
3.64615e-10
3.63916e-10
6.90708e-10
6.34846e-11
3.55314e-10
3.48588e-10
6.96395e-10
5.06888e-11
1.70845e-10
6.23022e-11
3.47967e-10
3.35788e-10
7.05828e-10
1.02683e-10
1.41703e-10
4.76865e-11
1.64611e-10
6.10905e-11
3.41396e-10
3.25606e-10
7.15467e-10
2.04284e-10
1.57406e-10
1.57398e-10
9.46179e-11
1.3391e-10
4.46343e-11
1.58635e-10
5.99243e-11
3.35802e-10
3.18386e-10
7.2455e-10
2.72685e-10
2.40096e-10
2.03468e-10
1.86855e-10
1.43614e-10
1.45904e-10
8.67677e-11
1.26262e-10
4.15894e-11
1.53039e-10
5.87963e-11
3.31291e-10
3.13869e-10
7.32889e-10
4.3919e-10
3.81389e-10
3.2981e-10
2.84316e-10
2.43126e-10
2.15639e-10
1.83134e-10
1.69978e-10
1.30335e-10
1.34681e-10
7.91942e-11
1.18799e-10
3.85824e-11
1.47759e-10
5.77117e-11
3.27601e-10
3.11391e-10
7.41717e-10
7.03079e-10
6.24336e-10
5.52667e-10
4.87785e-10
4.29304e-10
3.76792e-10
3.29867e-10
2.87505e-10
2.4996e-10
2.15153e-10
1.9233e-10
1.63721e-10
1.53686e-10
1.17586e-10
1.23748e-10
7.19041e-11
1.11501e-10
3.56286e-11
1.42683e-10
5.66898e-11
3.24448e-10
3.10504e-10
7.49586e-10
1.12919e-09
1.03707e-09
9.48577e-10
8.64124e-10
7.84172e-10
7.08991e-10
6.38777e-10
5.73606e-10
5.13463e-10
4.58222e-10
4.07723e-10
3.61785e-10
3.20128e-10
2.82636e-10
2.48375e-10
2.17897e-10
1.88885e-10
1.70284e-10
1.45324e-10
1.3807e-10
1.05428e-10
1.13154e-10
6.49357e-11
1.04376e-10
3.27528e-11
1.37761e-10
5.57237e-11
3.21712e-10
3.11664e-10
7.574e-10
1.62965e-09
1.57713e-09
1.5219e-09
1.46397e-09
1.40336e-09
1.34029e-09
1.2751e-09
1.20822e-09
1.14017e-09
1.07153e-09
1.00283e-09
9.34629e-10
8.67503e-10
8.01946e-10
7.3846e-10
6.77382e-10
6.19095e-10
5.63851e-10
5.11845e-10
4.63191e-10
4.17922e-10
3.75995e-10
3.3732e-10
3.01824e-10
2.6932e-10
2.39875e-10
2.1262e-10
1.88323e-10
1.645e-10
1.49658e-10
1.28078e-10
1.23249e-10
9.39486e-11
1.02972e-10
5.83322e-11
9.7454e-11
2.99865e-11
1.33e-10
5.47901e-11
3.1933e-10
3.13918e-10
7.65144e-10
1.06597e-13
1.91726e-16
0
0
4.48979e-07
6.51946e-07
0.000134323
0.00628575
0.0460398
0.144232
0.270938
0.353826
0.334217
0.21419
0.0683877
0.000758004
0.0619725
0.196276
0.276621
0.225122
0.101189
0.0203336
0.00116445
2.12251e-06
9.79173e-08
0
0
0
2.48485e-13
8.95088e-11
1.50614e-09
1.86481e-09
1.44339e-09
1.27101e-09
1.2583e-09
1.24595e-09
1.21255e-09
1.17646e-09
1.14183e-09
1.10601e-09
1.06805e-09
1.02812e-09
9.86306e-10
9.4268e-10
8.97491e-10
8.51078e-10
8.0388e-10
7.56301e-10
7.08711e-10
6.61521e-10
6.15132e-10
5.6991e-10
5.26116e-10
4.84051e-10
4.43926e-10
4.05902e-10
3.70093e-10
3.36552e-10
3.05253e-10
2.76143e-10
2.4921e-10
2.24305e-10
2.01619e-10
1.80329e-10
1.61354e-10
1.42107e-10
1.3056e-10
1.12078e-10
1.0932e-10
8.32049e-11
9.32584e-11
5.21378e-11
9.07388e-11
2.73513e-11
1.28304e-10
5.39193e-11
3.17151e-10
3.17444e-10
7.72848e-10
5.08829e-10
1.36791e-13
3.07113e-16
0
0
1.76796e-12
5.48393e-06
4.38826e-06
0.00152175
0.0190649
0.0802012
0.18151
0.270455
0.286082
0.209251
0.0862534
0.00534545
0.0286197
0.132541
0.216627
0.196403
0.0989077
0.0232293
0.00165677
6.54569e-06
1.61575e-07
0
0
0
2.67817e-14
7.72126e-12
8.64028e-10
1.41323e-09
1.08838e-09
8.98877e-10
8.7328e-10
8.69271e-10
8.4897e-10
8.24515e-10
8.01475e-10
7.77533e-10
7.51364e-10
7.23415e-10
6.94116e-10
6.63598e-10
6.31981e-10
5.99565e-10
5.66657e-10
5.3353e-10
5.00487e-10
4.67834e-10
4.35838e-10
4.04701e-10
3.74653e-10
3.45852e-10
3.18431e-10
2.92479e-10
2.68042e-10
2.45107e-10
2.23619e-10
2.03597e-10
1.84901e-10
1.67802e-10
1.51506e-10
1.3704e-10
1.2177e-10
1.13065e-10
9.73872e-11
9.63569e-11
7.32544e-11
8.40745e-11
4.63729e-11
8.42564e-11
2.48508e-11
1.23724e-10
5.30273e-11
3.15056e-10
3.21068e-10
7.81073e-10
5.21038e-10
3.82658e-10
2.06299e-12
3.69282e-15
0
0
0
1.71537e-06
1.25546e-06
0.000223081
0.00642604
0.0397464
0.113567
0.198077
0.237256
0.197218
0.0997214
0.0151647
0.00989399
0.0851988
0.16617
0.168798
0.0949268
0.025586
0.00225911
1.91174e-05
1.94299e-07
0
0
0
5.66282e-17
2.52552e-15
3.11321e-10
9.25233e-10
7.99508e-10
6.40433e-10
6.11155e-10
6.12852e-10
6.00086e-10
5.80194e-10
5.62265e-10
5.45583e-10
5.27722e-10
5.08198e-10
4.87477e-10
4.65898e-10
4.43659e-10
4.20954e-10
3.97968e-10
3.74943e-10
3.521e-10
3.29644e-10
3.07733e-10
2.8653e-10
2.66151e-10
2.46702e-10
2.2824e-10
2.10809e-10
1.94371e-10
1.78894e-10
1.64384e-10
1.50695e-10
1.3816e-10
1.26002e-10
1.15285e-10
1.03448e-10
9.71512e-11
8.40042e-11
8.43688e-11
6.41061e-11
7.54133e-11
4.10519e-11
7.80287e-11
2.25017e-11
1.19042e-10
5.20902e-11
3.13536e-10
3.24872e-10
7.89809e-10
3.18183e-10
3.85926e-10
3.1849e-10
1.59204e-11
2.50429e-14
0
0
0
2.73156e-09
4.82312e-06
1.094e-05
0.00164564
0.0170711
0.0654713
0.138291
0.19062
0.180078
0.107984
0.0267963
0.00175613
0.0520556
0.12558
0.143607
0.0896433
0.0272489
0.00287398
3.89607e-05
2.48792e-07
0
0
0
7.87333e-22
4.08084e-13
1.41362e-10
5.94927e-10
5.86267e-10
4.4782e-10
4.08998e-10
4.18677e-10
4.22113e-10
4.11563e-10
3.97134e-10
3.83717e-10
3.70657e-10
3.5683e-10
3.42048e-10
3.26626e-10
3.10836e-10
2.94816e-10
2.7874e-10
2.62759e-10
2.47046e-10
2.31708e-10
2.16864e-10
2.02615e-10
1.89017e-10
1.7612e-10
1.63933e-10
1.52438e-10
1.41579e-10
1.31351e-10
1.21614e-10
1.12701e-10
1.03893e-10
9.62234e-11
8.72517e-11
8.29654e-11
7.20318e-11
7.35064e-11
5.58052e-11
6.74325e-11
3.61506e-11
7.21637e-11
2.0154e-11
1.14754e-10
5.08048e-11
3.11978e-10
3.2932e-10
8.01926e-10
2.44154e-10
2.40597e-10
3.00574e-10
2.51948e-10
5.49619e-11
8.7526e-14
4.83795e-22
0
0
0
2.1077e-06
7.22232e-07
0.000252412
0.00566044
0.032028
0.0870948
0.144179
0.159076
0.114036
0.0411696
0.000752723
0.0269582
0.0903701
0.120671
0.0854522
0.0300231
0.003933
8.10613e-05
1.42954e-07
4.13314e-08
0
0
0
1.28361e-13
3.51865e-11
3.41746e-10
4.8695e-10
3.85703e-10
3.0085e-10
2.79671e-10
2.821e-10
2.81459e-10
2.74011e-10
2.64152e-10
2.5436e-10
2.44559e-10
2.34365e-10
2.23747e-10
2.12904e-10
2.02034e-10
1.91199e-10
1.80552e-10
1.70179e-10
1.60151e-10
1.50557e-10
1.41424e-10
1.32798e-10
1.24649e-10
1.16994e-10
1.09756e-10
1.02913e-10
9.63523e-11
9.03548e-11
8.42802e-11
7.9139e-11
7.26019e-11
6.99877e-11
6.10985e-11
6.33756e-11
4.81993e-11
5.97452e-11
3.1764e-11
6.61906e-11
1.82309e-11
1.09834e-10
4.98786e-11
3.09415e-10
3.33387e-10
8.09595e-10
1.89559e-10
1.78161e-10
1.8543e-10
1.97012e-10
1.81917e-10
1.0987e-10
2.25897e-12
3.9017e-15
1.61141e-24
0
0
4.08517e-09
2.02824e-06
5.37588e-06
0.000665538
0.00724879
0.0308783
0.0723548
0.107531
0.105252
0.0621237
0.0132653
0.00251593
0.0375457
0.077252
0.0756198
0.0391189
0.0095448
0.000842716
6.8874e-06
2.29531e-07
3.34235e-09
0
0
6.57279e-18
4.40459e-14
7.34578e-12
1.36672e-10
2.55504e-10
2.34958e-10
1.9123e-10
1.74305e-10
1.72813e-10
1.71768e-10
1.6722e-10
1.61018e-10
1.54717e-10
1.48413e-10
1.41972e-10
1.35432e-10
1.28855e-10
1.22399e-10
1.1613e-10
1.10104e-10
1.04352e-10
9.89172e-11
9.38355e-11
8.9073e-11
8.46444e-11
8.04679e-11
7.65352e-11
7.27236e-11
6.92798e-11
6.56439e-11
6.27156e-11
5.85033e-11
5.72864e-11
5.05625e-11
5.32421e-11
4.10158e-11
5.16438e-11
2.79854e-11
5.88538e-11
1.68382e-11
9.98139e-11
4.52999e-11
2.82241e-10
3.00898e-10
6.98583e-10
1.35675e-10
1.30677e-10
1.31994e-10
1.29132e-10
1.27114e-10
1.39685e-10
1.12503e-10
4.64939e-11
1.18849e-14
2.97073e-17
0
0
0
5.29912e-08
1.85662e-06
3.22377e-06
0.000419587
0.00475583
0.0209768
0.0504986
0.0757458
0.0726266
0.0396939
0.00609836
0.00403157
0.0324691
0.055573
0.0462987
0.0202163
0.0041211
0.000285616
9.02765e-07
1.1426e-07
0
0
0
6.64155e-19
2.92462e-14
7.06494e-12
8.61807e-11
1.44471e-10
1.28043e-10
1.05223e-10
9.81512e-11
9.78397e-11
9.65764e-11
9.34267e-11
8.97439e-11
8.61594e-11
8.26112e-11
7.9051e-11
7.55701e-11
7.221e-11
6.90505e-11
6.61034e-11
6.33991e-11
6.09606e-11
5.87586e-11
5.68111e-11
5.50246e-11
5.34027e-11
5.18132e-11
5.04534e-11
4.88603e-11
4.77708e-11
4.55477e-11
4.55462e-11
4.07639e-11
4.38193e-11
3.41652e-11
4.42332e-11
2.41295e-11
5.28658e-11
1.5403e-11
9.46338e-11
4.55477e-11
2.79881e-10
3.1497e-10
7.10315e-10
9.37568e-11
9.12251e-11
9.37001e-11
9.18531e-11
8.74445e-11
8.61585e-11
9.10469e-11
9.68054e-11
6.42635e-11
8.1312e-12
1.258e-14
5.53747e-23
0
0
0
5.79693e-08
1.8698e-06
1.71696e-06
0.000311655
0.00368422
0.0164033
0.0391505
0.0569338
0.0509689
0.0237336
0.00165129
0.00678889
0.029552
0.0398377
0.0270582
0.00947032
0.00144551
5.64255e-05
6.30558e-08
1.84693e-08
0
0
0
8.39445e-19
4.506e-14
1.24346e-11
6.2335e-11
7.55743e-11
6.22792e-11
5.38846e-11
5.24422e-11
5.21922e-11
5.08393e-11
4.88714e-11
4.69014e-11
4.50676e-11
4.33322e-11
4.17011e-11
4.02531e-11
3.89975e-11
3.79583e-11
3.71483e-11
3.65526e-11
3.61673e-11
3.59233e-11
3.58157e-11
3.57156e-11
3.57661e-11
3.55873e-11
3.57763e-11
3.4976e-11
3.58464e-11
3.25919e-11
3.5884e-11
2.82947e-11
3.7888e-11
2.06612e-11
4.781e-11
1.38072e-11
9.06904e-11
4.49525e-11
2.80839e-10
3.25502e-10
7.20635e-10
6.16081e-11
6.39596e-11
6.33705e-11
6.11345e-11
5.88116e-11
5.7572e-11
5.87328e-11
6.55867e-11
6.04059e-11
3.08994e-11
2.8663e-13
6.21676e-16
0
0
0
0
4.94942e-08
1.71312e-06
1.78155e-06
0.000292966
0.00330206
0.0141065
0.0320393
0.0433413
0.0343521
0.0121101
5.48284e-05
0.00976967
0.0258402
0.0269796
0.0144362
0.00375494
0.000370656
4.57609e-06
8.42378e-08
8.43473e-12
0
0
0
2.20435e-15
4.15386e-13
1.74713e-11
3.70934e-11
3.45243e-11
2.83853e-11
2.63263e-11
2.60808e-11
2.55857e-11
2.46749e-11
2.37557e-11
2.29693e-11
2.23146e-11
2.18291e-11
2.15178e-11
2.14023e-11
2.14933e-11
2.17821e-11
2.22597e-11
2.28709e-11
2.36137e-11
2.43695e-11
2.52403e-11
2.59072e-11
2.68532e-11
2.6956e-11
2.83335e-11
2.62107e-11
2.95487e-11
2.35992e-11
3.26404e-11
1.78314e-11
4.35251e-11
1.24541e-11
8.75443e-11
4.4122e-11
2.83238e-10
3.31217e-10
7.30126e-10
4.02901e-11
4.22356e-11
4.20244e-11
4.09662e-11
4.0021e-11
3.89193e-11
3.79522e-11
3.80672e-11
4.03654e-11
4.45826e-11
3.51223e-11
7.22747e-12
1.27032e-14
5.93555e-23
0
0
0
0
5.38643e-08
1.5066e-06
3.29281e-06
0.000336228
0.00333735
0.0130376
0.0270461
0.0325718
0.0213737
0.00458182
0.000903048
0.0121041
0.0211367
0.0166664
0.0066042
0.00114286
5.48014e-05
1.3477e-08
3.19193e-08
0
0
0
1.66947e-19
3.38669e-20
2.92329e-12
1.27887e-11
1.54282e-11
1.28561e-11
1.13588e-11
1.11118e-11
1.10182e-11
1.07783e-11
1.05462e-11
1.0435e-11
1.04803e-11
1.06823e-11
1.10564e-11
1.16176e-11
1.23565e-11
1.32704e-11
1.43141e-11
1.54844e-11
1.66867e-11
1.7988e-11
1.9121e-11
2.04667e-11
2.11035e-11
2.27196e-11
2.14182e-11
2.4667e-11
2.00121e-11
2.84429e-11
1.56879e-11
3.99848e-11
1.14964e-11
8.50079e-11
4.32831e-11
2.86847e-10
3.32042e-10
7.41206e-10
2.55533e-11
2.69211e-11
2.68886e-11
2.63388e-11
2.58814e-11
2.53489e-11
2.49856e-11
2.43451e-11
2.39272e-11
2.44331e-11
2.75861e-11
2.74307e-11
1.59926e-11
2.03171e-13
5.46326e-16
5.57563e-27
0
0
0
0
7.1611e-08
1.09747e-06
7.62855e-06
0.000448864
0.00370802
0.0126701
0.0229884
0.0233804
0.0114853
0.000765797
0.0032862
0.0130394
0.0155349
0.00883748
0.00235166
0.00022756
2.34601e-06
8.64039e-08
6.75834e-11
0
0
4.04881e-27
1.47341e-15
2.44651e-13
3.20291e-12
5.17736e-12
4.56363e-12
3.75562e-12
3.5222e-12
3.54034e-12
3.61752e-12
3.76753e-12
4.05165e-12
4.49236e-12
5.09161e-12
5.85207e-12
6.7723e-12
7.84815e-12
9.05228e-12
1.03744e-11
1.17473e-11
1.32126e-11
1.45461e-11
1.60395e-11
1.69384e-11
1.85858e-11
1.78356e-11
2.08995e-11
1.72438e-11
2.50346e-11
1.3992e-11
3.69551e-11
1.07217e-11
8.28587e-11
4.22256e-11
2.90762e-10
3.26247e-10
7.55358e-10
1.81157e-11
1.89679e-11
1.91046e-11
1.87582e-11
1.8418e-11
1.81638e-11
1.80237e-11
1.77172e-11
1.73798e-11
1.69436e-11
1.70609e-11
1.79617e-11
2.0509e-11
1.57069e-11
5.60371e-12
1.15112e-17
1.77818e-19
0
0
0
0
0
1.49341e-07
3.67668e-08
2.18959e-05
0.000678663
0.00441375
0.0125923
0.0190447
0.0152504
0.00459301
0.000107395
0.0059773
0.0119543
0.00965589
0.00368711
0.000571082
2.02617e-05
4.90983e-11
2.88179e-08
0
0
0
2.31696e-17
5.76635e-16
9.0383e-14
2.1386e-13
3.21355e-13
3.42227e-13
3.80596e-13
5.34082e-13
8.10399e-13
1.19994e-12
1.71635e-12
2.37835e-12
3.1913e-12
4.1488e-12
5.24611e-12
6.46112e-12
7.7893e-12
9.17811e-12
1.06625e-11
1.20483e-11
1.35487e-11
1.4551e-11
1.61251e-11
1.57312e-11
1.85756e-11
1.56854e-11
2.2867e-11
1.32116e-11
3.49927e-11
1.05865e-11
8.17026e-11
4.09717e-11
2.95674e-10
3.08506e-10
7.85384e-10
1.208e-11
1.28127e-11
1.28837e-11
1.26208e-11
1.23848e-11
1.23318e-11
1.2368e-11
1.20662e-11
1.19988e-11
1.1901e-11
1.16308e-11
1.14824e-11
1.1967e-11
1.30128e-11
1.37792e-11
8.22289e-12
9.63367e-13
3.53541e-15
2.94349e-22
0
0
0
0
2.92906e-14
4.6685e-07
2.61561e-08
6.1362e-05
0.0010889
0.00538693
0.0122779
0.0145809
0.0081318
0.000764584
0.00173263
0.00770891
0.0089179
0.0045826
0.000996514
6.45071e-05
1.11596e-07
8.58738e-08
0
0
0
3.65188e-21
1.00327e-15
5.14572e-14
1.01685e-12
7.0227e-13
3.65566e-13
4.3348e-13
7.18331e-13
1.14973e-12
1.67896e-12
2.3013e-12
3.03775e-12
3.89012e-12
4.85457e-12
5.90702e-12
7.04741e-12
8.2384e-12
9.5122e-12
1.07129e-11
1.19883e-11
1.28316e-11
1.40997e-11
1.37685e-11
1.62251e-11
1.38028e-11
2.02614e-11
1.16549e-11
3.21047e-11
9.31647e-12
7.87005e-11
3.78564e-11
2.94839e-10
2.77174e-10
8.36071e-10
1.40856e-11
1.44878e-11
1.44577e-11
1.41516e-11
1.38637e-11
1.36704e-11
1.35571e-11
1.32593e-11
1.30639e-11
1.28385e-11
1.2492e-11
1.21915e-11
1.19675e-11
1.19017e-11
1.22198e-11
1.3284e-11
1.13433e-11
5.78374e-12
3.31139e-13
1.79208e-15
4.44959e-22
0
0
0
0
5.55582e-10
7.08536e-07
1.0253e-06
0.000171407
0.00182363
0.00680283
0.012221
0.010998
0.00365978
9.62368e-05
0.00427436
0.00818428
0.00590849
0.00181867
0.000169326
3.82289e-06
1.00289e-07
9.02562e-08
1.09961e-08
2.50455e-11
0
2.00388e-19
2.03828e-19
1.60084e-12
5.67209e-12
4.97697e-12
3.80207e-12
3.63468e-12
4.02292e-12
4.61164e-12
5.29487e-12
6.07598e-12
6.96423e-12
7.94268e-12
9.00168e-12
1.01173e-11
1.13142e-11
1.24633e-11
1.36572e-11
1.44488e-11
1.55865e-11
1.53505e-11
1.7613e-11
1.55118e-11
2.15972e-11
1.34715e-11
3.35867e-11
1.05745e-11
8.17282e-11
3.40679e-11
3.0596e-10
2.28277e-10
1.02478e-09
1.03327e-11
1.04698e-11
1.05271e-11
1.06099e-11
1.06647e-11
1.07207e-11
1.08299e-11
1.09623e-11
1.10743e-11
1.11383e-11
1.12002e-11
1.13126e-11
1.14125e-11
1.15192e-11
1.1612e-11
1.21206e-11
1.30313e-11
1.36907e-11
1.14852e-11
6.54059e-12
3.47549e-13
1.3908e-15
0
0
0
0
0
2.1061e-08
4.48497e-07
1.63807e-06
0.000128461
0.00113533
0.00377917
0.00621158
0.00507036
0.0013675
0.000111193
0.00235117
0.00378757
0.00245413
0.000743563
0.000101739
4.46267e-06
5.56906e-09
2.18581e-08
2.75019e-09
0
1.80252e-25
1.11327e-15
4.82744e-13
4.90154e-12
8.06889e-12
8.15452e-12
7.84058e-12
7.87564e-12
8.12396e-12
8.44758e-12
8.80984e-12
9.20263e-12
9.61859e-12
1.00476e-11
1.05158e-11
1.09495e-11
1.14188e-11
1.15471e-11
1.1843e-11
1.11786e-11
1.25003e-11
1.05208e-11
1.50688e-11
8.10088e-12
2.45312e-11
4.74038e-12
6.50561e-11
2.33449e-11
2.53262e-10
2.27306e-10
9.98835e-10
)
;

boundaryField
{
    inlet
    {
        type            calculated;
        value           nonuniform List<scalar> 
27
(
2.83534e-08
2.84283e-08
2.85663e-08
2.87499e-08
2.89459e-08
2.91495e-08
2.93667e-08
2.95959e-08
2.98363e-08
3.00789e-08
3.03229e-08
3.05634e-08
3.07957e-08
3.10141e-08
3.12124e-08
3.13842e-08
3.15315e-08
3.12315e-08
3.12707e-08
3.12542e-08
3.11511e-08
3.09518e-08
3.06308e-08
3.01764e-08
2.95292e-08
2.88919e-08
2.76231e-08
)
;
    }
    outlet
    {
        type            calculated;
        value           nonuniform List<scalar> 
78
(
6.8066e-12
6.96366e-12
7.04419e-12
7.15079e-12
7.23139e-12
7.31369e-12
7.45095e-12
7.61212e-12
7.75383e-12
7.84876e-12
7.94253e-12
8.08617e-12
8.22667e-12
8.37497e-12
8.50797e-12
8.93676e-12
9.63624e-12
1.0094e-11
8.45053e-12
4.91101e-12
2.80213e-13
1.22631e-15
0
0
0
0
0
2.12574e-08
4.46416e-07
1.45746e-06
0.000126171
0.00112727
0.00377007
0.00622057
0.00510501
0.00139683
9.72107e-05
0.00230322
0.00374827
0.00244091
0.000742912
0.000102349
4.57726e-06
2.42071e-09
1.98873e-08
2.48702e-09
0
1.3831e-25
8.50974e-16
3.82571e-13
3.95609e-12
6.53624e-12
6.58595e-12
6.29056e-12
6.25505e-12
6.36592e-12
6.51257e-12
6.66877e-12
6.82966e-12
6.99476e-12
7.15729e-12
7.35249e-12
7.50847e-12
7.72581e-12
7.62449e-12
7.78919e-12
6.9933e-12
8.30449e-12
6.12766e-12
1.08945e-11
3.63959e-12
2.0612e-11
3.39297e-13
6.02737e-11
1.87224e-11
2.36529e-10
2.28407e-10
8.94958e-10
)
;
    }
    walls
    {
        type            calculated;
        value           nonuniform List<scalar> 0();
    }
    frontAndBack
    {
        type            empty;
    }
    procBoundary7to3
    {
        type            processor;
        value           nonuniform List<scalar> 
16
(
1.02094e-09
1.0681e-09
6.23609e-10
4.56463e-10
3.58324e-10
2.62451e-10
1.76834e-10
1.17974e-10
6.28533e-11
6.28533e-11
4.09421e-11
2.60283e-11
1.84945e-11
1.21453e-11
1.46372e-11
1.00216e-11
)
;
    }
    procBoundary7to6
    {
        type            processor;
        value           nonuniform List<scalar> 
91
(
6.68172e-10
4.13774e-10
4.13774e-10
3.79222e-10
3.79222e-10
6.45078e-11
6.45078e-11
5.35812e-11
1.77204e-10
1.77204e-10
1.10776e-10
1.49488e-10
1.49488e-10
2.22112e-10
1.71599e-10
1.69076e-10
1.69076e-10
3.03803e-10
2.65672e-10
2.24695e-10
2.24695e-10
5.07269e-10
4.3709e-10
3.75155e-10
3.20828e-10
3.20828e-10
8.53e-10
7.51366e-10
6.59771e-10
5.77667e-10
5.04367e-10
5.04367e-10
1.45931e-09
1.33065e-09
1.20824e-09
1.09251e-09
9.83939e-10
8.82798e-10
7.89181e-10
7.89181e-10
2.25975e-09
2.17795e-09
2.09264e-09
2.0038e-09
1.91162e-09
1.81659e-09
1.71926e-09
1.6203e-09
1.52048e-09
1.42074e-09
1.32174e-09
1.22428e-09
1.22428e-09
2.03498e-22
0
1.40299e-14
4.28859e-06
8.68827e-07
0.00106872
0.0193
0.0952928
0.237344
0.38404
0.448374
0.380978
0.211935
0.0480439
0.00568426
0.115345
0.280639
0.347962
0.255114
0.10189
0.0172814
0.000724087
2.79184e-07
2.47249e-08
0
0
0
8.792e-13
3.33131e-10
2.41911e-09
2.57421e-09
2.02844e-09
1.84592e-09
1.82347e-09
1.78813e-09
1.7337e-09
1.68057e-09
1.68057e-09
)
;
    }
}


// ************************************************************************* //
