/*--------------------------------*- C++ -*----------------------------------*\
| =========                 |                                                 |
| \\      /  F ield         | OpenFOAM: The Open Source CFD Toolbox           |
|  \\    /   O peration     | Version:  2306                                  |
|   \\  /    A nd           | Website:  www.openfoam.com                      |
|    \\/     M anipulation  |                                                 |
\*---------------------------------------------------------------------------*/
FoamFile
{
    version     2.0;
    format      ascii;
    arch        "LSB;label=32;scalar=64";
    class       volScalarField;
    location    "725";
    object      turbulenceProperties:L;
}
// * * * * * * * * * * * * * * * * * * * * * * * * * * * * * * * * * * * * * //

dimensions      [0 1 0 0 0 0 0];

internalField   nonuniform List<scalar> 
1340
(
0.222829
0.255623
0.221222
0.259563
0.259699
0.221257
0.401815
0.261245
0.262508
0.220804
0.425065
0.313719
0.403708
0.262613
0.264975
0.220063
0.356302
0.328734
0.431602
0.316648
0.405695
0.263868
0.267023
0.219318
0.300018
0.320219
0.32022
0.363663
0.333416
0.438798
0.319589
0.407654
0.26496
0.268525
0.218628
0.279127
0.288149
0.300322
0.306783
0.327645
0.326349
0.371623
0.338354
0.446617
0.322471
0.409595
0.265857
0.269486
0.218004
0.24778
0.256676
0.266169
0.27623
0.287249
0.295994
0.308332
0.31413
0.335689
0.332945
0.380206
0.343547
0.455075
0.325313
0.411506
0.266602
0.270021
0.217353
0.220285
0.226924
0.233947
0.241366
0.249196
0.257457
0.26616
0.275463
0.285268
0.296163
0.304581
0.317092
0.322143
0.34444
0.340067
0.389497
0.349036
0.464226
0.328169
0.413348
0.267247
0.270214
0.216781
0.19568
0.199888
0.204395
0.209216
0.214356
0.219825
0.225632
0.231784
0.238292
0.245169
0.252431
0.260088
0.268164
0.276644
0.285725
0.295229
0.305963
0.313994
0.326684
0.33089
0.353968
0.347762
0.39955
0.354845
0.474096
0.331062
0.415128
0.267814
0.269963
0.21622
0.178532
0.180001
0.181612
0.183382
0.185331
0.187474
0.189825
0.192399
0.195208
0.198261
0.201573
0.205154
0.209012
0.213159
0.217599
0.222347
0.227405
0.232781
0.238481
0.24451
0.250878
0.257597
0.264682
0.272141
0.280004
0.288226
0.297047
0.306194
0.316721
0.324295
0.337166
0.340418
0.364318
0.356057
0.410407
0.360986
0.48467
0.333985
0.416885
0.268311
0.269478
0.215671
3.44832
4.52124
0
0
0.0921146
0.188575
0.706504
0.680136
0.706029
0.741822
0.788061
0.851947
0.950054
1.12592
1.54693
4.83394
1.61123
1.18104
1.01174
0.91987
0.85476
0.790867
0.710152
0.429742
0.353164
0
0
0
2.95574
0.416659
0.182127
0.173742
0.184186
0.189891
0.190418
0.190934
0.192236
0.193687
0.195138
0.196699
0.198424
0.200322
0.202413
0.204715
0.207245
0.210014
0.213031
0.216305
0.219848
0.223668
0.227771
0.232161
0.236848
0.241834
0.247122
0.252716
0.258619
0.264834
0.271376
0.27826
0.285491
0.293104
0.301021
0.309536
0.318257
0.328523
0.335554
0.348604
0.350779
0.375549
0.364987
0.422088
0.367487
0.495943
0.337
0.418558
0.268771
0.268727
0.215133
0.238966
3.10636
5.56229
0
0
1.82482
0.339817
1.00278
0.713737
0.728535
0.763157
0.808358
0.869338
0.959824
1.11409
1.44704
2.95503
1.95156
1.30717
1.08814
0.975698
0.901001
0.835099
0.745758
0.498162
0.480518
0
0
0
5.86853
0.904138
0.208933
0.186821
0.19797
0.207102
0.208607
0.208905
0.210149
0.211683
0.21319
0.214815
0.216661
0.218723
0.220995
0.223494
0.226238
0.229236
0.232494
0.236021
0.239824
0.243903
0.248262
0.252905
0.25783
0.263038
0.268526
0.274293
0.280342
0.286681
0.293331
0.30029
0.307608
0.31516
0.32331
0.331522
0.341456
0.347844
0.361067
0.362025
0.3877
0.374571
0.434635
0.37436
0.507971
0.340076
0.420306
0.269216
0.267966
0.214565
0.238918
0.256557
1.25785
7.91204
0
0
0
0.183762
0.526768
0.764986
0.749908
0.782243
0.826684
0.885368
0.969552
1.10676
1.38
2.26571
2.53938
1.46338
1.17483
1.03682
0.950575
0.878784
0.786497
0.597578
0.703681
0
0
0
2.47555
9.08174
0.272226
0.207222
0.214091
0.225465
0.228078
0.228005
0.229217
0.231131
0.232941
0.234705
0.236669
0.238911
0.241409
0.244157
0.247161
0.250428
0.253968
0.257781
0.261864
0.266214
0.270831
0.275707
0.28084
0.286218
0.291838
0.297692
0.303794
0.310161
0.316789
0.323749
0.330853
0.338558
0.346163
0.355663
0.361289
0.37466
0.374252
0.400847
0.384891
0.448082
0.381616
0.520738
0.343372
0.422184
0.269542
0.267179
0.21397
0.268644
0.257307
0.268569
0.635279
4.95827
0
0
0
0.164921
0.416213
0.94103
0.776422
0.799694
0.843022
0.899919
0.979083
1.10289
1.33401
1.95175
3.89708
1.65596
1.27016
1.10123
1.00174
0.923069
0.830733
0.684189
0.891704
0
0
0
0.00149222
2.26807
0.336239
0.231065
0.231709
0.24652
0.252023
0.250691
0.250289
0.251877
0.254108
0.256291
0.258521
0.260992
0.263768
0.266827
0.270153
0.27375
0.277615
0.281743
0.28612
0.290741
0.295594
0.300658
0.305925
0.311378
0.31701
0.322823
0.328842
0.335063
0.341576
0.348137
0.355289
0.362163
0.371131
0.375831
0.389343
0.387372
0.414988
0.395807
0.462553
0.389144
0.53528
0.346535
0.424829
0.269878
0.266272
0.213158
0.286891
0.288084
0.273553
0.28494
0.426909
3.28582
0.000897115
0
0
0
0.238777
0.842846
0.825399
0.819101
0.858998
0.914055
0.988542
1.09998
1.29472
1.74258
4.81173
1.9574
1.3925
1.17532
1.05506
0.964743
0.8654
0.703652
1.36332
0.145694
0
0
0
3.28761
0.505502
0.26438
0.245079
0.257183
0.27232
0.277198
0.276712
0.276959
0.278829
0.281377
0.284039
0.286844
0.289915
0.293295
0.29696
0.300875
0.30505
0.309451
0.314063
0.318867
0.323829
0.328935
0.334151
0.339483
0.344903
0.350453
0.356138
0.36205
0.367912
0.374367
0.380301
0.388583
0.392158
0.4057
0.402003
0.430471
0.407967
0.477755
0.397641
0.548867
0.350352
0.426787
0.270435
0.265457
0.212652
0.305711
0.31044
0.307448
0.303305
0.309291
0.349945
1.11983
7.13239
1.92648e-05
0
0
0.142613
0.494508
1.06165
0.851921
0.871623
0.920775
0.987968
1.08243
1.23127
1.51261
2.30958
3.52528
1.75406
1.36551
1.18528
1.07237
0.976181
0.892168
0.699042
0.718718
0.156993
0
0
0.570439
4.41651
0.805906
0.331372
0.286122
0.291164
0.305156
0.312028
0.312771
0.313338
0.315464
0.318443
0.32163
0.324993
0.328619
0.332517
0.336681
0.341035
0.345547
0.35018
0.354909
0.359686
0.364459
0.369235
0.373972
0.378732
0.383505
0.388432
0.39317
0.398502
0.403071
0.410134
0.412291
0.425359
0.4199
0.448193
0.423103
0.493123
0.409493
0.559878
0.358831
0.437184
0.276721
0.27235
0.22064
0.332374
0.335504
0.334624
0.336502
0.338047
0.331067
0.34826
0.43655
5.59342
1.26401
0
0
0
0.0936144
0.480522
1.1169
0.880498
0.907
0.964403
1.04221
1.15205
1.32791
1.6718
2.77568
3.09104
1.77374
1.4143
1.23555
1.11906
1.02008
0.926104
0.629396
0.496411
0
0
0
0.118651
4.76212
0.780807
0.371791
0.330138
0.338557
0.354188
0.36021
0.360612
0.361869
0.364879
0.368548
0.372318
0.376255
0.380423
0.384729
0.389128
0.393505
0.397819
0.401995
0.405955
0.409705
0.413171
0.416483
0.419609
0.422789
0.425607
0.429032
0.431454
0.43662
0.43662
0.448894
0.440852
0.469145
0.439808
0.51174
0.420627
0.572485
0.363644
0.436588
0.277302
0.269256
0.219724
0.364535
0.367043
0.36459
0.366392
0.370917
0.372459
0.367874
0.3629
0.400127
0.708957
5.24535
0.000193568
0
0
0
0.0889579
0.434159
1.17447
0.900286
0.936295
1.00458
1.09645
1.22804
1.44462
1.89439
3.81991
2.67037
1.75338
1.43842
1.26869
1.15032
1.04002
0.899846
1.90188
0.183425
0
0
0
0.131968
3.92713
0.62667
0.404931
0.387671
0.404393
0.418477
0.421355
0.422012
0.424836
0.42903
0.433452
0.437796
0.442117
0.446378
0.450339
0.45392
0.456995
0.459466
0.461325
0.462548
0.46333
0.463676
0.463999
0.463833
0.464412
0.463794
0.46642
0.463558
0.474716
0.46343
0.491785
0.457167
0.531981
0.431331
0.58835
0.367534
0.438026
0.277065
0.267051
0.218934
0.40488
0.401109
0.402037
0.405655
0.409577
0.411836
0.410047
0.399907
0.407664
0.480825
1.98538
5.79093
0
0
0
0
0.0881434
0.441729
1.1614
0.917172
0.967414
1.05019
1.16152
1.32433
1.60217
2.24069
8.85277
2.37379
1.71987
1.44864
1.28781
1.15968
1.03496
0.820607
0.899523
0.865306
0
0
0
7.36184
1.78371
0.554502
0.463836
0.470009
0.491459
0.50052
0.501862
0.504382
0.508968
0.513801
0.518138
0.521898
0.524775
0.526662
0.527371
0.526812
0.525057
0.522217
0.518691
0.514562
0.510525
0.506062
0.502771
0.49828
0.497799
0.491631
0.501291
0.48649
0.514607
0.474527
0.551933
0.441576
0.603715
0.370792
0.440072
0.276476
0.265892
0.21822
0.450227
0.444951
0.44551
0.448361
0.450976
0.454121
0.456965
0.456804
0.450689
0.44063
0.465892
0.71097
5.00567
0.00019547
0
0
0
0
0.0887388
0.496786
1.09361
0.940645
1.00769
1.10848
1.24491
1.4504
1.82258
2.85226
4.32297
2.16362
1.68097
1.44511
1.28846
1.14883
0.999795
0.574736
0.25942
0
0
0
0.0410437
0.0134031
0.895276
0.602019
0.576363
0.599639
0.617553
0.62106
0.622557
0.626018
0.629414
0.631083
0.630406
0.627406
0.62203
0.61438
0.604984
0.594291
0.58315
0.571805
0.561215
0.550778
0.54243
0.533283
0.529209
0.519533
0.527245
0.508953
0.53626
0.491141
0.569889
0.451043
0.615911
0.373527
0.442189
0.275602
0.265727
0.217401
0.504502
0.497969
0.49812
0.5007
0.502898
0.505516
0.507328
0.510604
0.512866
0.510464
0.496322
0.496895
0.566534
2.11882
5.39142
4.09038e-07
0
0
0
0
0.0921508
0.596513
0.985467
0.968404
1.05932
1.18328
1.35294
1.61985
2.15539
4.43547
3.04793
2.00486
1.63611
1.42702
1.26746
1.12113
0.891133
0.805984
0.436462
0
0
3.22979e-07
6.4101
1.83668
0.846838
0.758616
0.778095
0.814491
0.827571
0.826791
0.822388
0.814011
0.799337
0.778997
0.755018
0.729214
0.703084
0.677653
0.653907
0.632003
0.612674
0.594934
0.580805
0.566785
0.559108
0.546281
0.551931
0.530483
0.556594
0.507066
0.586421
0.460016
0.626744
0.375926
0.444931
0.27467
0.266899
0.216376
0.5498
0.543519
0.542544
0.545032
0.547531
0.549438
0.550503
0.552857
0.555501
0.559003
0.558212
0.551617
0.535156
0.569336
0.746942
0.619989
0.0408576
0
0
0
0
0
0.118964
0.223897
0.959848
1.01214
1.12858
1.28088
1.49649
1.86035
2.73755
7.14722
2.51346
1.88012
1.58782
1.39767
1.2301
1.04695
3.25424
0.281176
0
0
0
0.889879
4.00329
2.05563
1.67272
1.50777
1.47814
1.43935
1.32422
1.19431
1.08307
0.990513
0.913065
0.848453
0.794644
0.749403
0.711397
0.678929
0.651655
0.62769
0.60881
0.591206
0.580749
0.566024
0.569528
0.546348
0.569931
0.518677
0.594895
0.466335
0.628736
0.377249
0.448296
0.273522
0.270656
0.214279
0.608401
0.599513
0.598686
0.601779
0.604625
0.605274
0.604832
0.608578
0.609429
0.610656
0.614138
0.616122
0.610176
0.598558
0.590818
0.669078
1.25095
6.36457
0.000588572
0
0
0
0
6.43422
0.246951
1.22504
0.960065
1.07238
1.21925
1.40966
1.69513
2.24051
4.2822
3.45552
2.18979
1.76551
1.52656
1.34382
1.20007
1.24475
0.443213
0
0
0
0.00291393
5.18196
2.40732
1.13996
1.25595
1.45828
1.39378
1.22966
1.09437
0.996019
0.920655
0.858978
0.807527
0.764068
0.727517
0.696127
0.669487
0.645859
0.626952
0.609569
0.599295
0.585338
0.588819
0.565142
0.588441
0.534604
0.613833
0.476487
0.649142
0.380797
0.457246
0.273715
0.278
0.210956
0.585488
0.581383
0.581686
0.584805
0.587818
0.589884
0.591113
0.594404
0.596615
0.599217
0.603319
0.606975
0.609753
0.610768
0.607374
0.596518
0.618709
0.733409
1.78605
6.88655
0.00080546
0
0
0
0
0.255656
0.448737
1.0888
1.01884
1.15826
1.33376
1.57169
1.95907
2.85857
7.26823
2.67675
1.97367
1.63414
1.38677
1.08978
1.13712
0.553667
0.300113
0.224408
0.515972
0
0.0343912
0.0362509
1.01821
0.741189
0.765436
0.813347
0.821194
0.800622
0.773903
0.747691
0.72242
0.698202
0.675638
0.654833
0.635988
0.61846
0.603686
0.590037
0.58178
0.570857
0.573032
0.553669
0.571524
0.526142
0.59201
0.471143
0.628918
0.37722
0.469458
0.271193
0.291822
0.200491
0.632628
0.630547
0.629688
0.628457
0.627649
0.626828
0.625243
0.623347
0.621767
0.620873
0.620015
0.618471
0.617093
0.615631
0.614376
0.608162
0.598179
0.592033
0.616403
0.711834
1.8054
6.98631
0
0
0
0
0
0.109631
0.551706
1.00604
1.07092
1.2336
1.43425
1.71217
2.18068
3.35647
6.43939
2.84227
2.17383
1.85345
1.65856
1.58478
1.75994
3.97891
0.81131
0.447666
0
3.74295e-06
5.86507
1.5162
0.762633
0.673286
0.671845
0.677988
0.677069
0.671834
0.665322
0.658379
0.65124
0.644083
0.637096
0.629882
0.623549
0.617039
0.615313
0.611429
0.620307
0.603216
0.629766
0.575676
0.672253
0.50964
0.768525
0.399362
0.515976
0.284316
0.292131
0.201782
)
;

boundaryField
{
    inlet
    {
        type            calculated;
        value           nonuniform List<scalar> 
27
(
0.0874116
0.087354
0.0872484
0.0871089
0.0869612
0.0868091
0.0866483
0.0864801
0.0863056
0.0861313
0.0859578
0.0857884
0.0856264
0.0854756
0.0853398
0.0852231
0.0851237
0.0853277
0.0853014
0.0853131
0.0853839
0.0855214
0.085745
0.0860664
0.0865345
0.0870081
0.0879911
)
;
    }
    outlet
    {
        type            calculated;
        value           nonuniform List<scalar> 
78
(
0.702178
0.698188
0.696185
0.693578
0.691638
0.689686
0.686489
0.682829
0.679689
0.677627
0.675621
0.672603
0.669692
0.666678
0.664035
0.656285
0.645043
0.638889
0.665526
0.76466
1.90396
6.82664
0
0
0
0
0
0.109377
0.552348
1.03586
1.07575
1.2358
1.43512
1.71155
2.17697
3.3387
6.6594
2.85695
2.17951
1.85596
1.65892
1.58241
1.74882
4.90032
0.830704
0.459065
0
3.06863e-06
5.47412
1.6061
0.804565
0.709673
0.708683
0.716346
0.717186
0.714043
0.710005
0.705815
0.701621
0.697444
0.69345
0.688801
0.685193
0.680321
0.682562
0.67892
0.697445
0.668124
0.720838
0.624287
0.820988
0.532305
1.48177
0.407057
0.545234
0.289216
0.291778
0.207399
)
;
    }
    walls
    {
        type            calculated;
        value           nonuniform List<scalar> 0();
    }
    frontAndBack
    {
        type            empty;
    }
    procBoundary7to3
    {
        type            processor;
        value           nonuniform List<scalar> 
16
(
0.200522
0.199628
0.227069
0.245342
0.260718
0.281837
0.311068
0.344186
0.402859
0.402859
0.448423
0.502184
0.546963
0.607581
0.579895
0.637479
)
;
    }
    procBoundary7to6
    {
        type            processor;
        value           nonuniform List<scalar> 
91
(
0.223099
0.251495
0.251495
0.257026
0.257026
0.400212
0.400212
0.419209
0.310866
0.310866
0.349608
0.324368
0.324368
0.293808
0.313382
0.314541
0.314541
0.271686
0.280948
0.292962
0.292962
0.239012
0.248075
0.257734
0.26801
0.26801
0.209893
0.216656
0.223813
0.231373
0.239356
0.239356
0.183527
0.187811
0.192398
0.197302
0.202533
0.2081
0.214014
0.214014
0.164523
0.166046
0.167713
0.169542
0.171549
0.17375
0.176158
0.178789
0.181653
0.184761
0.188128
0.191765
0.191765
0.000579358
0
8.34369
0.241035
0.99801
0.65046
0.655168
0.682423
0.718358
0.76573
0.833006
0.939999
1.14281
1.70064
2.93357
1.3816
1.07574
0.942983
0.867866
0.81117
0.748191
0.652162
0.249289
0.202406
0
0
0
1.99384
0.281681
0.162088
0.160034
0.169093
0.172996
0.173572
0.174448
0.175796
0.177164
0.177164
)
;
    }
}


// ************************************************************************* //
