/*--------------------------------*- C++ -*----------------------------------*\
| =========                 |                                                 |
| \\      /  F ield         | OpenFOAM: The Open Source CFD Toolbox           |
|  \\    /   O peration     | Version:  2306                                  |
|   \\  /    A nd           | Website:  www.openfoam.com                      |
|    \\/     M anipulation  |                                                 |
\*---------------------------------------------------------------------------*/
FoamFile
{
    version     2.0;
    format      ascii;
    arch        "LSB;label=32;scalar=64";
    class       volSymmTensorField;
    location    "725";
    object      turbulenceProperties:R;
}
// * * * * * * * * * * * * * * * * * * * * * * * * * * * * * * * * * * * * * //

dimensions      [0 2 -2 0 0 0 0];

internalField   nonuniform List<symmTensor> 
1340
(
(6.83709e-07 1.49429e-08 -2.47282e-20 5.44167e-07 -2.53608e-21 6.50936e-07)
(4.35332e-07 -1.18627e-08 -2.43796e-20 5.37387e-07 -3.07046e-21 4.54957e-07)
(6.94352e-07 1.64882e-08 1.28609e-20 5.52187e-07 1.27852e-21 6.59681e-07)
(5.00161e-07 2.45812e-08 1.30636e-19 4.05686e-07 1.44907e-20 4.78656e-07)
(4.25988e-07 -1.27972e-08 3.23602e-23 5.19011e-07 -1.13339e-22 4.38219e-07)
(6.89454e-07 1.95985e-08 -2.87848e-22 5.53788e-07 6.79952e-23 6.62379e-07)
(1.8643e-07 1.07747e-08 -6.64112e-20 2.11028e-07 -7.87134e-21 1.80251e-07)
(4.93253e-07 2.29796e-08 2.13391e-21 4.00115e-07 4.45278e-22 4.73363e-07)
(4.19432e-07 -1.32476e-08 2.91335e-20 5.06839e-07 3.60214e-21 4.27504e-07)
(6.90062e-07 2.1138e-08 -5.84343e-20 5.57042e-07 -6.00747e-21 6.66348e-07)
(1.83361e-07 1.85351e-08 -1.58399e-19 1.6633e-07 -1.83418e-20 1.66519e-07)
(3.42864e-07 2.24394e-08 -8.67214e-20 2.80492e-07 -9.6071e-21 3.24348e-07)
(1.85362e-07 1.06534e-08 2.93123e-20 2.08624e-07 3.45217e-21 1.78319e-07)
(4.88516e-07 2.10788e-08 -4.3263e-20 3.95277e-07 -4.80919e-21 4.68734e-07)
(4.12793e-07 -1.31923e-08 -1.22762e-19 4.9693e-07 -1.51871e-20 4.18966e-07)
(6.94399e-07 2.18077e-08 5.60998e-20 5.61017e-07 5.6389e-21 6.70953e-07)
(2.67372e-07 2.27522e-08 2.34249e-20 2.24724e-07 2.69577e-21 2.42623e-07)
(3.13837e-07 2.33894e-08 -6.26088e-21 2.57952e-07 -7.43515e-22 2.91307e-07)
(1.78409e-07 1.75948e-08 6.09336e-22 1.6102e-07 -1.11692e-22 1.6126e-07)
(3.37312e-07 2.05736e-08 2.90338e-22 2.74354e-07 -4.37865e-23 3.18587e-07)
(1.84149e-07 1.05169e-08 2.06225e-20 2.06197e-07 2.47984e-21 1.76366e-07)
(4.84203e-07 1.92291e-08 -2.18576e-21 3.90919e-07 -3.39701e-22 4.64572e-07)
(4.07632e-07 -1.31334e-08 7.39972e-23 4.88804e-07 -6.37595e-24 4.11956e-07)
(6.98699e-07 2.24094e-08 -2.13039e-22 5.65072e-07 5.06364e-23 6.7571e-07)
(3.81428e-07 2.54626e-08 -5.27831e-20 3.08958e-07 -6.13096e-21 3.45945e-07)
(3.34189e-07 2.40182e-08 -6.72799e-20 2.73124e-07 -7.64986e-21 3.02369e-07)
(3.3319e-07 2.37484e-08 -8.42347e-20 2.71833e-07 -9.39499e-21 3.04631e-07)
(2.57448e-07 2.11078e-08 -3.42237e-20 2.15059e-07 -3.71751e-21 2.3277e-07)
(3.05909e-07 2.15453e-08 3.80157e-21 2.49768e-07 5.58728e-22 2.83353e-07)
(1.73141e-07 1.66274e-08 6.44246e-20 1.55491e-07 7.41718e-21 1.55768e-07)
(3.31748e-07 1.8768e-08 1.33632e-20 2.68465e-07 1.40434e-21 3.12998e-07)
(1.83023e-07 1.02869e-08 -4.62347e-20 2.03823e-07 -5.40722e-21 1.74432e-07)
(4.80297e-07 1.75544e-08 4.1502e-20 3.87247e-07 4.57159e-21 4.61129e-07)
(4.0444e-07 -1.32062e-08 6.88023e-23 4.82686e-07 -4.28731e-23 4.06678e-07)
(7.02294e-07 2.29667e-08 1.05399e-22 5.69012e-07 -2.3458e-23 6.80449e-07)
(4.44954e-07 2.28919e-08 -1.24854e-20 3.53332e-07 -1.19503e-21 3.99056e-07)
(4.16393e-07 2.3348e-08 6.20197e-20 3.32417e-07 6.83191e-21 3.74702e-07)
(3.826e-07 2.3134e-08 7.20819e-21 3.07239e-07 7.15078e-22 3.44425e-07)
(3.6571e-07 2.29534e-08 4.15256e-20 2.94515e-07 4.57348e-21 3.30914e-07)
(3.20087e-07 2.18199e-08 1.68489e-22 2.60064e-07 -1.27394e-22 2.88765e-07)
(3.21643e-07 2.16438e-08 3.64688e-22 2.60773e-07 -2.38667e-23 2.93395e-07)
(2.47293e-07 1.94632e-08 2.868e-20 2.05323e-07 3.21871e-21 2.22772e-07)
(2.97797e-07 1.97178e-08 -3.62168e-21 2.41613e-07 -4.47469e-22 2.75308e-07)
(1.67663e-07 1.56228e-08 -2.99402e-22 1.49817e-07 7.70632e-23 1.50105e-07)
(3.26372e-07 1.7018e-08 -6.12116e-23 2.62915e-07 2.05797e-23 3.0767e-07)
(1.81914e-07 9.9708e-09 1.32728e-22 2.01525e-07 -2.59199e-23 1.7253e-07)
(4.77054e-07 1.59996e-08 -2.25648e-22 3.84267e-07 5.97567e-23 4.58399e-07)
(4.02852e-07 -1.33493e-08 1.06022e-19 4.78582e-07 1.32341e-20 4.03161e-07)
(7.05499e-07 2.33051e-08 2.84669e-20 5.72603e-07 2.89391e-21 6.84855e-07)
(5.70338e-07 1.26732e-08 -3.43816e-20 4.42714e-07 -3.54689e-21 5.06522e-07)
(5.30647e-07 1.53866e-08 2.5441e-20 4.13385e-07 2.82977e-21 4.72017e-07)
(4.92548e-07 1.73912e-08 1.28415e-20 3.85337e-07 1.27609e-21 4.38929e-07)
(4.56367e-07 1.87451e-08 -4.76742e-21 3.58693e-07 -5.64712e-22 4.07557e-07)
(4.21036e-07 1.97542e-08 6.89744e-23 3.32753e-07 -8.17469e-24 3.76796e-07)
(3.95499e-07 2.0448e-08 -2.34373e-22 3.14134e-07 4.40168e-23 3.55121e-07)
(3.6385e-07 2.0493e-08 -2.64009e-23 2.90644e-07 -1.07187e-22 3.26731e-07)
(3.49637e-07 2.05103e-08 -4.52598e-20 2.80027e-07 -5.00871e-21 3.15656e-07)
(3.05742e-07 1.96669e-08 -2.16133e-20 2.47003e-07 -2.25848e-21 2.75025e-07)
(3.09809e-07 1.95698e-08 2.70612e-20 2.49675e-07 3.04678e-21 2.81971e-07)
(2.36978e-07 1.78249e-08 -2.73009e-20 1.95576e-07 -3.12606e-21 2.12686e-07)
(2.89554e-07 1.79113e-08 1.09544e-23 2.33518e-07 -2.80153e-23 2.67202e-07)
(1.62007e-07 1.459e-08 -5.82643e-20 1.44047e-07 -6.72112e-21 1.44311e-07)
(3.2116e-07 1.5314e-08 -1.20738e-20 2.57651e-07 -1.27565e-21 3.0254e-07)
(1.80785e-07 9.59219e-09 2.39231e-20 1.99341e-07 2.80191e-21 1.7069e-07)
(4.74375e-07 1.45115e-08 -3.76318e-20 3.81797e-07 -4.1549e-21 4.56175e-07)
(4.0238e-07 -1.35137e-08 -8.94908e-20 4.76088e-07 -1.11243e-20 4.01049e-07)
(7.09078e-07 2.33918e-08 -3.63854e-20 5.76257e-07 -3.61651e-21 6.89412e-07)
(7.21922e-07 -1.47211e-08 -3.20645e-20 5.59859e-07 -3.24942e-21 6.40877e-07)
(6.81039e-07 -8.80485e-09 -4.83507e-21 5.26833e-07 -3.67603e-22 6.03922e-07)
(6.41141e-07 -3.47555e-09 -5.0144e-21 4.95289e-07 -5.06572e-22 5.682e-07)
(6.02392e-07 1.26664e-09 -7.78355e-21 4.65248e-07 -7.54151e-22 5.33806e-07)
(5.64904e-07 5.41693e-09 -1.52616e-21 4.36691e-07 -5.55611e-23 5.00785e-07)
(5.28767e-07 8.94376e-09 2.17506e-20 4.09573e-07 2.32941e-21 4.69156e-07)
(4.94105e-07 1.18187e-08 2.503e-20 3.83855e-07 2.61485e-21 4.38974e-07)
(4.60548e-07 1.40238e-08 -5.1851e-23 3.59111e-07 -3.39471e-23 4.09805e-07)
(4.28621e-07 1.56006e-08 1.08114e-20 3.35611e-07 1.19016e-21 3.8214e-07)
(3.96828e-07 1.68244e-08 6.95791e-21 3.12287e-07 7.2514e-22 3.54445e-07)
(3.74275e-07 1.7708e-08 -1.61046e-23 2.95897e-07 -2.47853e-23 3.35393e-07)
(3.4479e-07 1.7979e-08 -1.73519e-24 2.74076e-07 8.52507e-24 3.08896e-07)
(3.33195e-07 1.81645e-08 2.66568e-22 2.65497e-07 -2.15767e-24 3.00185e-07)
(2.91138e-07 1.75859e-08 2.07536e-20 2.33946e-07 2.22834e-21 2.61162e-07)
(2.97671e-07 1.75506e-08 -2.57837e-20 2.38541e-07 -2.88362e-21 2.70365e-07)
(2.26483e-07 1.62122e-08 2.59883e-20 1.85825e-07 2.96407e-21 2.02517e-07)
(2.81138e-07 1.61414e-08 8.65249e-25 2.25464e-07 3.07776e-23 2.59013e-07)
(1.56169e-07 1.35436e-08 5.56677e-20 1.38204e-07 6.36514e-21 1.38408e-07)
(3.15995e-07 1.36595e-08 1.16384e-20 2.52579e-07 1.19012e-21 2.97506e-07)
(1.79656e-07 9.16432e-09 -2.27616e-20 1.97314e-07 -2.69953e-21 1.68949e-07)
(4.72054e-07 1.30809e-08 9.33483e-23 3.79679e-07 2.51734e-23 4.54283e-07)
(4.02781e-07 -1.37006e-08 1.52246e-19 4.74869e-07 1.88683e-20 4.00045e-07)
(7.12302e-07 2.32418e-08 1.56661e-22 5.7943e-07 -6.4987e-23 6.93466e-07)
(8.93384e-07 -6.56212e-08 -7.05025e-21 7.31004e-07 -6.92593e-22 8.12214e-07)
(8.5985e-07 -5.80408e-08 -1.60972e-20 6.96876e-07 -1.48233e-21 7.78376e-07)
(8.25643e-07 -5.05645e-08 7.45335e-21 6.63186e-07 7.22977e-22 7.44423e-07)
(7.90931e-07 -4.32594e-08 -1.40471e-20 6.3008e-07 -1.41782e-21 7.10508e-07)
(7.55945e-07 -3.61952e-08 -4.69518e-21 5.97734e-07 -3.41098e-22 6.76839e-07)
(7.20879e-07 -2.94348e-08 1.72353e-20 5.66276e-07 1.73349e-21 6.43573e-07)
(6.85935e-07 -2.30354e-08 1.79536e-21 5.35825e-07 1.22959e-22 6.10872e-07)
(6.51295e-07 -1.70462e-08 1.72349e-22 5.06465e-07 -6.8724e-23 5.7887e-07)
(6.17127e-07 -1.15054e-08 -5.31118e-21 4.78256e-07 -5.65441e-22 5.47681e-07)
(5.83562e-07 -6.43838e-09 -3.90033e-21 4.5122e-07 -3.84471e-22 5.1738e-07)
(5.50729e-07 -1.85993e-09 4.45912e-23 4.25369e-07 4.35516e-24 4.88037e-07)
(5.18754e-07 2.21793e-09 5.45434e-24 4.00711e-07 -6.03856e-24 4.59722e-07)
(4.8771e-07 5.75081e-09 -1.26667e-22 3.77202e-07 1.12457e-23 4.32442e-07)
(4.57799e-07 8.69899e-09 -4.02173e-21 3.5488e-07 -3.81971e-22 4.06336e-07)
(4.28577e-07 1.10259e-08 3.46702e-23 3.33268e-07 -2.03332e-23 3.80895e-07)
(4.00756e-07 1.27555e-08 -1.03683e-20 3.12777e-07 -1.11189e-21 3.56794e-07)
(3.72434e-07 1.41335e-08 -6.65145e-21 2.91994e-07 -6.96388e-22 3.32095e-07)
(3.52808e-07 1.51589e-08 -1.53455e-23 2.77768e-07 1.51022e-23 3.15603e-07)
(3.25496e-07 1.562e-08 -1.66098e-24 2.57593e-07 1.09666e-22 2.90996e-07)
(3.16446e-07 1.59437e-08 4.08626e-20 2.50975e-07 4.55166e-21 2.84565e-07)
(2.76325e-07 1.56009e-08 1.06965e-20 2.20937e-07 1.22534e-21 2.47229e-07)
(2.8526e-07 1.56085e-08 4.20779e-20 2.27404e-07 4.63054e-21 2.58616e-07)
(2.15847e-07 1.46435e-08 -2.47789e-20 1.76113e-07 -2.8488e-21 1.92314e-07)
(2.7255e-07 1.44236e-08 1.44756e-23 2.17455e-07 -8.70416e-24 2.50747e-07)
(1.50182e-07 1.2496e-08 -3.79463e-20 1.32331e-07 -4.26695e-21 1.32435e-07)
(3.10825e-07 1.20615e-08 3.20025e-20 2.47656e-07 3.6518e-21 2.92527e-07)
(1.7852e-07 8.69478e-09 5.53449e-20 1.9543e-07 6.44085e-21 1.67297e-07)
(4.69995e-07 1.17059e-08 -3.31453e-24 3.77847e-07 -4.15797e-23 4.52655e-07)
(4.04373e-07 -1.39225e-08 -9.89698e-23 4.75275e-07 2.24544e-23 4.00432e-07)
(7.15553e-07 2.28957e-08 8.18565e-21 5.82502e-07 8.32801e-22 6.97468e-07)
(1.00627e-06 -1.21649e-07 5.97529e-21 9.45165e-07 5.40569e-22 9.75747e-07)
(9.94788e-07 -1.18351e-07 2.26029e-22 9.24938e-07 2.27996e-23 9.59903e-07)
(9.82108e-07 -1.14701e-07 3.7095e-22 9.03702e-07 4.52019e-23 9.42951e-07)
(9.68132e-07 -1.10698e-07 1.77571e-20 8.81433e-07 1.63755e-21 9.24832e-07)
(9.52761e-07 -1.06339e-07 7.98329e-21 8.5811e-07 7.45283e-22 9.05487e-07)
(9.3594e-07 -1.01629e-07 1.25723e-20 8.33768e-07 1.15631e-21 8.84905e-07)
(9.17659e-07 -9.65826e-08 3.93093e-21 8.08475e-07 3.60953e-22 8.63115e-07)
(8.97938e-07 -9.12193e-08 7.16487e-21 7.82322e-07 6.48895e-22 8.40178e-07)
(8.76814e-07 -8.55736e-08 -4.13098e-21 7.55441e-07 -4.77822e-22 8.16169e-07)
(8.54385e-07 -7.96784e-08 -2.47833e-20 7.27981e-07 -2.30457e-21 7.91221e-07)
(8.30718e-07 -7.35778e-08 4.7554e-21 7.00084e-07 4.78544e-22 7.65435e-07)
(8.0592e-07 -6.73199e-08 -6.52946e-21 6.71911e-07 -6.46127e-22 7.38944e-07)
(7.80134e-07 -6.09589e-08 3.15222e-23 6.43641e-07 1.14686e-23 7.11911e-07)
(7.5349e-07 -5.45518e-08 4.41204e-23 6.15434e-07 -2.36235e-23 6.8448e-07)
(7.26156e-07 -4.8159e-08 -9.12321e-24 5.87467e-07 3.70662e-24 6.56826e-07)
(6.98259e-07 -4.18398e-08 4.43164e-23 5.59871e-07 -1.03519e-23 6.29074e-07)
(6.69981e-07 -3.5654e-08 1.55318e-23 5.32804e-07 -1.25562e-23 6.01398e-07)
(6.41479e-07 -2.96608e-08 -5.83916e-23 5.06389e-07 -1.84991e-23 5.73937e-07)
(6.12916e-07 -2.39169e-08 -8.99627e-21 4.80737e-07 -8.35287e-22 5.46826e-07)
(5.84444e-07 -1.84699e-08 1.81932e-20 4.55933e-07 1.88456e-21 5.20186e-07)
(5.56195e-07 -1.33658e-08 -1.51027e-21 4.32036e-07 -2.18627e-22 4.94111e-07)
(5.28281e-07 -8.63277e-09 3.75828e-21 4.09068e-07 3.91728e-22 4.68668e-07)
(5.00796e-07 -4.29528e-09 1.56506e-23 3.87037e-07 -1.81292e-23 4.43909e-07)
(4.7386e-07 -3.71184e-10 -2.40347e-22 3.65959e-07 -8.08298e-23 4.19904e-07)
(4.4752e-07 3.08737e-09 -1.95572e-20 3.45792e-07 -2.12518e-21 3.96645e-07)
(4.22044e-07 6.03149e-09 -1.90882e-20 3.26637e-07 -1.94291e-21 3.74342e-07)
(3.96912e-07 8.40941e-09 1.38286e-20 3.07969e-07 1.51134e-21 3.52414e-07)
(3.73008e-07 1.02263e-08 -1.09617e-20 2.90334e-07 -1.21183e-21 3.31706e-07)
(3.4806e-07 1.17016e-08 6.32783e-21 2.72006e-07 7.0349e-22 3.09911e-07)
(3.31275e-07 1.28215e-08 -4.81829e-23 2.59862e-07 -1.21581e-23 2.9589e-07)
(3.06125e-07 1.34364e-08 -2.3369e-23 2.41302e-07 -2.81461e-23 2.73158e-07)
(2.99515e-07 1.38673e-08 -1.47376e-20 2.36547e-07 -1.65174e-21 2.68899e-07)
(2.61412e-07 1.37302e-08 -2.89866e-20 2.08059e-07 -3.26352e-21 2.3332e-07)
(2.72655e-07 1.37617e-08 -4.01429e-20 2.1632e-07 -4.36621e-21 2.46789e-07)
(2.05137e-07 1.31335e-08 1.07687e-20 1.66497e-07 1.26672e-21 1.82135e-07)
(2.63822e-07 1.27707e-08 5.87904e-21 2.09514e-07 6.97115e-22 2.4243e-07)
(1.44106e-07 1.14589e-08 2.89954e-20 1.26482e-07 3.29612e-21 1.26451e-07)
(3.05671e-07 1.0523e-08 1.99537e-20 2.42889e-07 2.22541e-21 2.87614e-07)
(1.77344e-07 8.19095e-09 -7.20744e-23 1.93647e-07 -9.17584e-24 1.65702e-07)
(4.68169e-07 1.03742e-08 -3.23462e-24 3.76258e-07 -2.06941e-24 4.51247e-07)
(4.06534e-07 -1.41637e-08 -3.9173e-23 4.76578e-07 -1.0497e-23 4.0159e-07)
(7.18843e-07 2.23587e-08 -7.8188e-21 5.85462e-07 -7.81226e-22 7.01396e-07)
(1.14451e-08 -1.83232e-11 -3.52161e-25 1.1501e-08 -1.46577e-26 1.14768e-08)
(6.82851e-10 -3.29555e-14 2.38438e-28 6.83106e-10 -4.93709e-29 6.82993e-10)
(0 -0 0 0 0 0)
(0 -0 -0 0 -0 0)
(2.60025e-05 -1.1285e-05 -1.15211e-20 2.7153e-05 -2.01627e-21 2.65727e-05)
(5.0642e-05 -2.42924e-05 9.23613e-20 5.92131e-05 6.30014e-21 5.49757e-05)
(0.00407789 0.00200788 1.9067e-18 0.00516795 2.86834e-19 0.00462442)
(0.0540233 0.0259515 -6.69053e-18 0.0630521 -5.08028e-19 0.0585326)
(0.210024 0.100536 3.8496e-18 0.242662 -2.53268e-19 0.226328)
(0.464198 0.222378 3.0995e-17 0.537474 2.82699e-18 0.500837)
(0.733154 0.352041 7.15767e-18 0.854545 1.0612e-18 0.793866)
(0.917987 0.442206 2.49841e-17 1.08011 2.91899e-18 0.999064)
(0.943757 0.45654 -3.96143e-17 1.1248 -1.59522e-18 1.03429)
(0.776932 0.378216 -1.2649e-16 0.945016 -1.28581e-17 0.860989)
(0.436549 0.215339 4.05435e-17 0.557595 -1.88779e-18 0.497076)
(0.0290811 0.0012192 2.60694e-16 0.0765534 2.40355e-17 0.0528149)
(0.49662 -0.214448 3.57512e-17 0.459953 7.50275e-18 0.478298)
(0.893233 -0.373378 -5.22369e-17 0.783909 -4.66483e-18 0.838577)
(1.02336 -0.421668 7.84009e-18 0.87827 -1.05432e-18 0.950791)
(0.842696 -0.343961 7.54621e-17 0.71298 7.4903e-18 0.777807)
(0.473093 -0.191755 -2.87616e-17 0.396145 -3.16152e-18 0.434606)
(0.154573 -0.0623715 5.33952e-17 0.128585 5.61091e-18 0.141579)
(0.0213313 -0.00863389 -2.68696e-17 0.0178249 -2.55791e-18 0.0195778)
(0.000215117 -9.38503e-05 1.81266e-18 0.000202858 1.34589e-19 0.000209043)
(1.65169e-05 7.9112e-06 3.11855e-19 3.06296e-05 3.30077e-20 2.36154e-05)
(0 -0 0 0 0 0)
(0 -0 0 0 0 0)
(0 -0 0 0 0 0)
(1.81379e-08 -4.02131e-11 -1.35817e-25 1.81386e-08 -8.73904e-29 1.81382e-08)
(2.47891e-07 -8.43117e-09 1.54148e-22 2.48226e-07 1.5798e-23 2.4806e-07)
(9.37133e-07 -1.21527e-07 -5.23347e-21 9.39197e-07 -4.29158e-22 9.38177e-07)
(1.05096e-06 -1.53219e-07 -9.74106e-21 1.04561e-06 -9.35021e-22 1.04829e-06)
(9.24434e-07 -1.20998e-07 7.34812e-22 9.13139e-07 4.27178e-23 9.18792e-07)
(8.69814e-07 -1.08509e-07 -3.11679e-21 8.53057e-07 -3.02404e-22 8.61441e-07)
(8.69217e-07 -1.0876e-07 6.72292e-21 8.45306e-07 6.14741e-22 8.57269e-07)
(8.68936e-07 -1.08698e-07 -2.12317e-21 8.37428e-07 -1.65844e-22 8.53192e-07)
(8.61071e-07 -1.06605e-07 -5.93347e-21 8.2227e-07 -5.48879e-22 8.41683e-07)
(8.52044e-07 -1.04102e-07 -5.30451e-21 8.06019e-07 -5.07537e-22 8.29046e-07)
(8.43389e-07 -1.01577e-07 4.89646e-21 7.90081e-07 4.52594e-22 8.16755e-07)
(8.34085e-07 -9.88226e-08 6.32065e-26 7.73556e-07 -1.74767e-24 8.03843e-07)
(8.23704e-07 -9.57625e-08 -9.43108e-24 7.56103e-07 1.29411e-23 7.8993e-07)
(8.1223e-07 -9.24107e-08 -5.89696e-24 7.3776e-07 9.16595e-24 7.75023e-07)
(7.99608e-07 -8.8764e-08 -8.37877e-24 7.18531e-07 6.33121e-24 7.59101e-07)
(7.85761e-07 -8.48185e-08 -4.44981e-24 6.98423e-07 2.56443e-24 7.42123e-07)
(7.70685e-07 -8.05808e-08 -2.43382e-22 6.77487e-07 -2.76717e-23 7.24119e-07)
(7.54403e-07 -7.6073e-08 -6.68542e-21 6.55826e-07 -6.38384e-22 7.05146e-07)
(7.36995e-07 -7.13211e-08 4.26253e-23 6.33573e-07 4.099e-23 6.85315e-07)
(7.18531e-07 -6.63559e-08 1.88534e-20 6.10859e-07 1.81792e-21 6.64724e-07)
(6.99077e-07 -6.12114e-08 2.34627e-23 5.8781e-07 -3.83442e-23 6.43469e-07)
(6.78735e-07 -5.59277e-08 4.77875e-21 5.6457e-07 4.58302e-22 6.21676e-07)
(6.57624e-07 -5.05517e-08 -1.21846e-21 5.41297e-07 -1.21882e-22 5.9948e-07)
(6.35871e-07 -4.51313e-08 8.15665e-21 5.18142e-07 8.18011e-22 5.77023e-07)
(6.13571e-07 -3.97144e-08 5.93722e-24 4.95218e-07 -2.67668e-23 5.54407e-07)
(5.90869e-07 -3.43537e-08 2.00657e-24 4.72672e-07 -8.68434e-24 5.3178e-07)
(5.67892e-07 -2.91007e-08 6.55708e-24 4.50616e-07 3.2974e-23 5.09261e-07)
(5.44763e-07 -2.40076e-08 8.6052e-21 4.2915e-07 7.99209e-22 4.8696e-07)
(5.21606e-07 -1.91208e-08 -1.9083e-20 4.08356e-07 -1.94596e-21 4.64983e-07)
(4.98529e-07 -1.4485e-08 4.82269e-21 3.88292e-07 5.57278e-22 4.4341e-07)
(4.75606e-07 -1.01333e-08 -2.70408e-23 3.68972e-07 -5.0669e-24 4.22287e-07)
(4.52903e-07 -6.09197e-09 7.00131e-23 3.50395e-07 -4.94562e-23 4.01645e-07)
(4.30529e-07 -2.38425e-09 -1.07765e-20 3.32589e-07 -1.13873e-21 3.81556e-07)
(4.08492e-07 9.34877e-10 1.1579e-22 3.15494e-07 1.59245e-23 3.61984e-07)
(3.87115e-07 3.81021e-09 3.60278e-21 2.99272e-07 3.37801e-22 3.43198e-07)
(3.65802e-07 6.17642e-09 -8.9922e-23 2.83352e-07 1.19852e-23 3.2455e-07)
(3.45597e-07 8.02275e-09 9.38213e-23 2.68408e-07 -2.88889e-23 3.07043e-07)
(3.23894e-07 9.54208e-09 -6.05352e-21 2.52433e-07 -6.86709e-22 2.88039e-07)
(3.09839e-07 1.07122e-08 -1.38882e-20 2.42279e-07 -1.51873e-21 2.76385e-07)
(2.86824e-07 1.14436e-08 -9.06065e-21 2.25296e-07 -9.45902e-22 2.55501e-07)
(2.82529e-07 1.19524e-08 4.52261e-21 2.22297e-07 5.59984e-22 2.53288e-07)
(2.46497e-07 1.19891e-08 2.15412e-20 1.95376e-07 2.38322e-21 2.19514e-07)
(2.59926e-07 1.20256e-08 1.9333e-20 2.05335e-07 2.06115e-21 2.34939e-07)
(1.9444e-07 1.16965e-08 -2.72682e-23 1.57046e-07 -6.91882e-23 1.72057e-07)
(2.54964e-07 1.11937e-08 -2.56468e-20 2.01639e-07 -2.86827e-21 2.34064e-07)
(1.37982e-07 1.04452e-08 -5.52242e-23 1.20709e-07 2.60318e-23 1.20501e-07)
(3.00436e-07 9.04397e-09 -1.92734e-20 2.38182e-07 -2.08788e-21 2.82661e-07)
(1.76168e-07 7.66662e-09 1.47147e-20 1.92028e-07 1.74499e-21 1.64215e-07)
(4.66484e-07 9.06552e-09 -7.88437e-23 3.74813e-07 -8.01634e-24 4.49947e-07)
(4.0936e-07 -1.44081e-08 -6.07789e-20 4.78918e-07 -7.52492e-21 4.03621e-07)
(7.22222e-07 2.16351e-08 7.4491e-21 5.88313e-07 7.59423e-22 7.05242e-07)
(4.96379e-07 -5.33688e-08 -1.00245e-24 5.90191e-07 -3.20939e-23 5.49675e-07)
(1.25826e-08 -2.80869e-11 8.82459e-25 1.26571e-08 7.46128e-26 1.26242e-08)
(8.33789e-10 -4.62883e-14 1.60538e-27 8.3421e-10 2.69295e-28 8.33997e-10)
(0 -0 -0 0 -0 0)
(0 -0 -0 0 -0 0)
(4.85335e-08 -1.04786e-10 4.6126e-28 4.85419e-08 -1.45019e-27 4.85378e-08)
(0.000329255 -0.000151256 2.20538e-22 0.000343778 -5.6515e-21 0.00033653)
(0.000444184 0.000221127 1.03963e-18 0.000748898 1.10114e-19 0.000597139)
(0.021465 0.0103723 -3.32621e-18 0.0254961 -3.48798e-19 0.0234807)
(0.11881 0.056979 1.91605e-17 0.138005 1.75598e-18 0.128397)
(0.319546 0.153187 -1.00616e-17 0.370722 -4.4032e-19 0.345125)
(0.570796 0.27412 2.3136e-19 0.665583 -7.9942e-19 0.618199)
(0.778164 0.374755 5.58507e-17 0.914887 5.18508e-18 0.846541)
(0.857772 0.414619 -1.98547e-18 1.01983 1.34943e-18 0.938815)
(0.762135 0.370326 -6.30259e-17 0.921347 -5.71154e-18 0.841755)
(0.493174 0.241977 -1.13219e-18 0.616822 1.59218e-19 0.555003)
(0.109707 0.0552422 -7.20844e-17 0.170094 -8.11948e-18 0.139899)
(0.333173 -0.14587 8.03932e-17 0.316225 5.89936e-18 0.324708)
(0.734827 -0.307622 5.32718e-17 0.646419 5.58917e-18 0.69063)
(0.912838 -0.376039 3.58105e-17 0.78313 2.67349e-18 0.84797)
(0.800672 -0.326546 1.00338e-16 0.676615 1.18033e-17 0.738616)
(0.483017 -0.195533 -1.39943e-16 0.403717 -1.37861e-17 0.44335)
(0.175405 -0.0706278 7.57488e-17 0.145469 7.1739e-18 0.160436)
(0.0279797 -0.0112631 -3.08801e-17 0.0231953 -2.63028e-18 0.0255874)
(0.000519 -0.000217789 2.53847e-21 0.000458276 -2.68308e-20 0.000488696)
(2.95748e-05 1.46081e-05 2.10761e-22 5.12698e-05 2.53021e-21 4.04843e-05)
(0 0 -0 0 -0 0)
(0 -0 -0 0 -0 0)
(0 -0 0 0 0 0)
(6.63207e-09 -6.20276e-12 -3.74988e-26 6.63198e-09 -3.54035e-27 6.63203e-09)
(8.11702e-08 -1.06851e-09 3.13826e-24 8.11864e-08 2.19922e-26 8.11786e-08)
(7.09896e-07 -8.38212e-08 3.32864e-21 7.09716e-07 3.14585e-22 7.09829e-07)
(9.1844e-07 -1.39107e-07 1.54304e-24 9.1066e-07 -8.85117e-25 9.1458e-07)
(8.05011e-07 -1.09061e-07 6.16015e-21 7.92341e-07 6.00606e-22 7.98701e-07)
(7.32617e-07 -9.17537e-08 -4.89352e-21 7.16387e-07 -4.46075e-22 7.24524e-07)
(7.25016e-07 -9.02049e-08 1.28862e-21 7.03224e-07 1.07295e-22 7.14145e-07)
(7.26703e-07 -9.05006e-08 -1.52841e-24 6.98518e-07 -1.10006e-23 7.12636e-07)
(7.21411e-07 -8.8961e-08 6.53899e-21 6.87096e-07 6.21882e-22 7.04277e-07)
(7.14186e-07 -8.68775e-08 -1.78892e-21 6.73856e-07 -1.58347e-22 6.94046e-07)
(7.07464e-07 -8.48354e-08 2.31401e-21 6.61054e-07 2.16957e-22 6.84282e-07)
(7.00197e-07 -8.26002e-08 1.21478e-21 6.47735e-07 1.29175e-22 6.7399e-07)
(6.91708e-07 -8.00405e-08 -1.78517e-24 6.33347e-07 1.13548e-23 6.62551e-07)
(6.82125e-07 -7.71976e-08 6.59705e-21 6.18048e-07 6.42855e-22 6.5011e-07)
(6.71577e-07 -7.4106e-08 -1.24006e-24 6.01993e-07 -1.33827e-24 6.36808e-07)
(6.60041e-07 -7.0766e-08 2.21047e-22 5.85217e-07 3.79204e-23 6.22652e-07)
(6.47483e-07 -6.71777e-08 4.79801e-21 5.67748e-07 4.6283e-22 6.07637e-07)
(6.33958e-07 -6.3358e-08 7.68909e-24 5.49697e-07 -3.06303e-23 5.91848e-07)
(6.19531e-07 -5.93298e-08 -3.11779e-23 5.31182e-07 3.80393e-23 5.75376e-07)
(6.04261e-07 -5.51167e-08 1.00583e-20 5.12311e-07 9.87996e-22 5.58304e-07)
(5.8823e-07 -5.07496e-08 -4.53894e-21 4.93215e-07 -4.74982e-22 5.40738e-07)
(5.71539e-07 -4.62641e-08 9.68375e-24 4.74034e-07 -2.70351e-23 5.228e-07)
(5.54287e-07 -4.16981e-08 -7.79981e-21 4.54899e-07 -7.66085e-22 5.04604e-07)
(5.36553e-07 -3.70903e-08 5.03665e-24 4.35918e-07 2.2226e-23 4.86244e-07)
(5.18454e-07 -3.24843e-08 1.71408e-24 4.17219e-07 1.63173e-23 4.67843e-07)
(5.00085e-07 -2.79244e-08 7.97136e-21 3.98905e-07 8.2114e-22 4.49499e-07)
(4.81549e-07 -2.34555e-08 1.04321e-21 3.81069e-07 1.05459e-22 4.31311e-07)
(4.62935e-07 -1.91226e-08 1.66825e-21 3.63785e-07 1.36226e-22 4.1336e-07)
(4.44328e-07 -1.49651e-08 -3.18721e-21 3.47102e-07 -3.66095e-22 3.95713e-07)
(4.25778e-07 -1.10189e-08 -8.61929e-21 3.31035e-07 -8.10238e-22 3.78404e-07)
(4.07313e-07 -7.30875e-09 2.56656e-20 3.15567e-07 2.76013e-21 3.61435e-07)
(3.89028e-07 -3.86274e-09 1.04992e-20 3.00728e-07 1.07628e-21 3.44875e-07)
(3.70887e-07 -7.31985e-10 1.77518e-20 2.86441e-07 1.89359e-21 3.28653e-07)
(3.53264e-07 2.02206e-09 2.05507e-20 2.7292e-07 2.1216e-21 3.13098e-07)
(3.35479e-07 4.32341e-09 -1.59161e-20 2.59545e-07 -1.70842e-21 2.97482e-07)
(3.18735e-07 6.14949e-09 2.2015e-20 2.47119e-07 2.40818e-21 2.82969e-07)
(3.00121e-07 7.66543e-09 -5.70066e-21 2.33385e-07 -6.81781e-22 2.66625e-07)
(2.88663e-07 8.8441e-09 -1.17137e-23 2.25118e-07 2.81411e-23 2.57217e-07)
(2.67737e-07 9.65531e-09 4.76525e-21 2.09668e-07 5.02424e-22 2.38142e-07)
(2.65611e-07 1.02152e-08 -3.9879e-21 2.08304e-07 -4.13973e-22 2.37832e-07)
(2.31698e-07 1.03943e-08 1.69214e-20 1.82971e-07 1.9241e-21 2.05912e-07)
(2.47171e-07 1.04141e-08 1.28717e-20 1.94514e-07 1.42052e-21 2.23146e-07)
(1.83813e-07 1.0348e-08 -2.15254e-24 1.47804e-07 1.97236e-24 1.62135e-07)
(2.46017e-07 9.70044e-09 1.64985e-20 1.93851e-07 1.83439e-21 2.25671e-07)
(1.31819e-07 9.47413e-09 3.70202e-24 1.15018e-07 -8.63079e-23 1.14606e-07)
(2.95196e-07 7.61853e-09 -5.57803e-20 2.33575e-07 -6.27416e-21 2.77715e-07)
(1.74834e-07 7.14331e-09 -1.40608e-20 1.90434e-07 -1.61689e-21 1.6272e-07)
(4.64898e-07 7.7617e-09 -3.60168e-20 3.73428e-07 -3.90793e-21 4.48647e-07)
(4.12058e-07 -1.46138e-08 6.12346e-20 4.81419e-07 7.58918e-21 4.05776e-07)
(7.26011e-07 2.0738e-08 -7.11094e-21 5.9125e-07 -7.15083e-22 7.09219e-07)
(5.03754e-07 -6.45306e-08 -3.2688e-25 5.99915e-07 1.19913e-23 5.58422e-07)
(4.32833e-07 -4.76695e-08 1.388e-24 5.09858e-07 9.09961e-24 4.76059e-07)
(4.1546e-08 -3.40454e-10 -3.95467e-24 4.24118e-08 -5.23041e-25 4.19734e-08)
(2.47111e-09 -5.58564e-13 2.72605e-26 2.47544e-09 2.1118e-27 2.47322e-09)
(0 -0 0 0 0 0)
(0 -0 -0 0 -0 0)
(0 -0 0 0 0 0)
(0.000102648 -4.62713e-05 2.25226e-22 0.000103221 4.50741e-22 0.000102913)
(0.000150127 -7.36108e-05 -2.4907e-22 0.00018717 6.31161e-22 0.000168748)
(0.00612218 0.00299255 1.95526e-20 0.00755104 6.96072e-21 0.00683779)
(0.0584111 0.0280901 -3.26082e-20 0.0683919 -1.20998e-19 0.0633965)
(0.203143 0.0974753 1.44214e-17 0.236317 1.41699e-18 0.219717)
(0.423688 0.20352 2.23212e-19 0.494385 2.47072e-19 0.459037)
(0.640207 0.308258 -1.31944e-18 0.752268 -6.34765e-19 0.69625)
(0.763089 0.368616 4.07126e-17 0.905467 4.11054e-18 0.83429)
(0.7313 0.354825 2.96967e-18 0.879897 6.50089e-19 0.805609)
(0.530352 0.259244 3.08575e-17 0.65431 2.18013e-18 0.592337)
(0.19946 0.0995823 5.8174e-17 0.270262 6.00921e-18 0.234863)
(0.190373 -0.0857822 3.12985e-20 0.190877 1.16151e-18 0.190634)
(0.589011 -0.247187 -3.84682e-17 0.520183 -3.02253e-18 0.55461)
(0.804964 -0.331641 -4.40709e-17 0.690707 -6.58726e-18 0.747835)
(0.753901 -0.307345 1.74379e-16 0.636695 1.79182e-17 0.695283)
(0.487256 -0.197125 -1.3416e-16 0.406881 -1.16744e-17 0.447059)
(0.193667 -0.0779061 4.93514e-19 0.160391 -4.71881e-19 0.177029)
(0.0357022 -0.0143379 -8.38717e-18 0.0294966 -7.7895e-19 0.0325996)
(0.00121348 -0.00049985 -1.39026e-21 0.0010409 -5.8393e-21 0.00112724)
(4.29789e-05 2.11918e-05 -1.31925e-19 7.49295e-05 -1.2772e-20 5.90238e-05)
(0 0 -0 0 0 0)
(0 -0 -0 0 -0 0)
(0 -0 -0 0 -0 0)
(4.21875e-10 -2.93883e-14 1.1567e-31 4.21873e-10 -8.71506e-31 4.21874e-10)
(2.2407e-09 -9.75749e-13 -8.75661e-28 2.24069e-09 -5.35573e-29 2.2407e-09)
(4.2889e-07 -3.76388e-08 -3.61371e-22 4.28631e-07 -2.30503e-23 4.28758e-07)
(7.42417e-07 -1.09388e-07 -9.47822e-21 7.35369e-07 -9.35587e-22 7.38879e-07)
(6.91447e-07 -9.55787e-08 5.6852e-21 6.787e-07 5.24563e-22 6.85066e-07)
(6.19346e-07 -7.79706e-08 -1.24485e-21 6.03914e-07 -1.061e-22 6.11634e-07)
(6.07303e-07 -7.53852e-08 4.43191e-25 5.87521e-07 -5.44847e-24 5.97424e-07)
(6.11009e-07 -7.61488e-08 -1.42282e-21 5.85769e-07 -1.30612e-22 5.98409e-07)
(6.07344e-07 -7.49519e-08 -2.75777e-21 5.76933e-07 -2.68962e-22 5.92161e-07)
(5.9984e-07 -7.2797e-08 -1.91352e-25 5.6455e-07 -3.40585e-24 5.82221e-07)
(5.93242e-07 -7.08216e-08 -2.84739e-24 5.52981e-07 1.12844e-23 5.7314e-07)
(5.87213e-07 -6.89312e-08 4.06265e-21 5.41886e-07 4.01079e-22 5.64581e-07)
(5.8039e-07 -6.68202e-08 -5.16218e-21 5.30084e-07 -4.94174e-22 5.55268e-07)
(5.72425e-07 -6.44193e-08 -1.26196e-21 5.17313e-07 -1.18951e-22 5.44901e-07)
(5.63508e-07 -6.17748e-08 -1.73219e-24 5.03779e-07 6.50677e-24 5.33676e-07)
(5.53762e-07 -5.89165e-08 -3.25926e-24 4.89635e-07 3.77967e-24 5.2173e-07)
(5.43227e-07 -5.58522e-08 6.2196e-24 4.74962e-07 -1.85783e-23 5.09126e-07)
(5.31941e-07 -5.25935e-08 -7.12556e-24 4.59853e-07 -1.42776e-23 4.95927e-07)
(5.19945e-07 -4.91541e-08 -9.59668e-21 4.4439e-07 -9.12812e-22 4.82197e-07)
(5.07321e-07 -4.55596e-08 1.18068e-20 4.28703e-07 1.20137e-21 4.68039e-07)
(4.94153e-07 -4.1835e-08 1.11664e-21 4.1291e-07 7.51324e-23 4.53556e-07)
(4.80528e-07 -3.80105e-08 6.9258e-24 3.97135e-07 -2.66941e-24 4.38854e-07)
(4.66515e-07 -3.41183e-08 6.77341e-24 3.8148e-07 -2.82093e-24 4.24017e-07)
(4.52205e-07 -3.01913e-08 1.45422e-24 3.66055e-07 -3.09605e-23 4.09148e-07)
(4.37673e-07 -2.62671e-08 -7.65061e-21 3.50952e-07 -7.65405e-22 3.94328e-07)
(4.23004e-07 -2.23852e-08 -1.00741e-21 3.36262e-07 -7.33288e-23 3.79646e-07)
(4.0826e-07 -1.85831e-08 4.84939e-22 3.22044e-07 7.42889e-23 3.65162e-07)
(3.93512e-07 -1.48998e-08 8.72019e-21 3.08351e-07 9.16564e-22 3.5094e-07)
(3.78769e-07 -1.13658e-08 3.26249e-21 2.95175e-07 2.05594e-22 3.36978e-07)
(3.64051e-07 -8.00749e-09 -3.48664e-20 2.82506e-07 -3.67028e-21 3.23282e-07)
(3.49418e-07 -4.85281e-09 -6.14744e-21 2.7036e-07 -5.44427e-22 3.09895e-07)
(3.34786e-07 -1.94591e-09 6.99176e-21 2.58631e-07 6.82015e-22 2.96703e-07)
(3.20589e-07 6.43787e-10 -3.36913e-20 2.47598e-07 -3.56959e-21 2.84107e-07)
(3.06053e-07 2.8401e-09 1.19644e-20 2.36583e-07 1.34379e-21 2.71292e-07)
(2.92504e-07 4.59976e-09 -6.09148e-21 2.26489e-07 -6.49218e-22 2.59545e-07)
(2.76839e-07 6.07488e-09 6.48349e-21 2.14901e-07 6.67857e-22 2.45745e-07)
(2.67827e-07 7.22116e-09 -2.01687e-20 2.08409e-07 -2.2044e-21 2.38447e-07)
(2.48953e-07 8.08198e-09 7.43633e-21 1.94461e-07 8.77622e-22 2.21151e-07)
(2.48826e-07 8.66144e-09 3.80658e-21 1.94595e-07 4.027e-22 2.22583e-07)
(2.17084e-07 8.95856e-09 3.33614e-21 1.70884e-07 3.60328e-22 1.92572e-07)
(2.34399e-07 8.93498e-09 -1.44124e-20 1.83848e-07 -1.59561e-21 2.1141e-07)
(1.73317e-07 9.10594e-09 -2.06661e-24 1.38817e-07 9.7073e-25 1.52427e-07)
(2.37025e-07 8.28777e-09 -1.5707e-20 1.86165e-07 -1.73634e-21 2.17282e-07)
(1.25665e-07 8.5695e-09 -8.6906e-24 1.0945e-07 1.06715e-22 1.08821e-07)
(2.89711e-07 6.22874e-09 7.06263e-20 2.28848e-07 7.83663e-21 2.7252e-07)
(1.73297e-07 6.66419e-09 -1.91055e-23 1.88818e-07 -3.89573e-23 1.61188e-07)
(4.63789e-07 6.42931e-09 3.44329e-20 3.72384e-07 3.69329e-21 4.47691e-07)
(4.14662e-07 -1.47347e-08 -7.43366e-20 4.84163e-07 -9.19598e-21 4.08103e-07)
(7.30198e-07 1.96749e-08 5.94329e-23 5.94271e-07 4.08587e-24 7.13318e-07)
(3.98729e-07 -4.62659e-08 -2.12046e-25 4.60811e-07 -9.27647e-24 4.34096e-07)
(4.3574e-07 -5.60837e-08 4.73734e-25 5.13985e-07 -2.3356e-23 4.79869e-07)
(3.95654e-07 -4.27877e-08 1.04345e-21 4.67406e-07 1.14859e-22 4.31168e-07)
(1.01175e-07 -2.53636e-09 -6.04941e-23 1.06737e-07 -4.55875e-24 1.03886e-07)
(5.66395e-09 -4.86482e-12 -7.97575e-29 5.69043e-09 -7.85552e-27 5.6772e-09)
(0 -0 0 0 0 0)
(0 -0 -0 0 -0 0)
(0 -0 0 0 -0 0)
(1.30666e-06 -7.39918e-08 3.14534e-27 1.30516e-06 2.55836e-25 1.3059e-06)
(0.000349175 -0.00015907 8.89474e-23 0.000358041 7.24126e-22 0.000353676)
(0.000868406 0.000436453 -1.06536e-21 0.00123426 1.37916e-20 0.00105225)