/*--------------------------------*- C++ -*----------------------------------*\
| =========                 |                                                 |
| \\      /  F ield         | OpenFOAM: The Open Source CFD Toolbox           |
|  \\    /   O peration     | Version:  2306                                  |
|   \\  /    A nd           | Website:  www.openfoam.com                      |
|    \\/     M anipulation  |                                                 |
\*---------------------------------------------------------------------------*/
FoamFile
{
    version     2.0;
    format      ascii;
    arch        "LSB;label=32;scalar=64";
    class       volVectorField;
    location    "475";
    object      momentError;
}
// * * * * * * * * * * * * * * * * * * * * * * * * * * * * * * * * * * * * * //

dimensions      [0 1 -2 0 0 0 0];

internalField   nonuniform List<vector> 
10720
(
(-6.29802e-05 0.000140527 -6.95743e-15)
(-6.33698e-05 0.000165989 2.41134e-14)
(-5.91011e-05 0.000210374 -4.72325e-14)
(-2.05497e-05 0.000181245 1.778e-14)
(-1.4306e-06 0.000179791 1.10239e-13)
(1.42595e-05 0.000171256 -1.75098e-13)
(3.19492e-05 0.000190672 8.99983e-14)
(5.57935e-05 0.000199076 -1.11069e-13)
(8.21093e-05 0.000197842 -2.5463e-13)
(9.87825e-05 0.000172065 3.44117e-13)
(0.000101544 0.000139645 1.24149e-13)
(9.97531e-05 0.000114037 -2.28811e-13)
(9.10038e-05 8.89751e-05 -3.34526e-13)
(8.39158e-05 7.26456e-05 -5.72035e-14)
(7.43494e-05 5.87824e-05 -1.39768e-13)
(5.75428e-05 4.40738e-05 -3.10394e-13)
(5.93422e-05 4.24597e-05 -1.46757e-13)
(7.72483e-05 6.47378e-05 8.32706e-13)
(0.000209912 0.000118342 4.23307e-13)
(0.00021577 -3.85431e-05 -5.95089e-13)
(0.00111017 0.000328178 1.05315e-13)
(0.000327252 0.000703236 1.53274e-13)
(0.00126409 0.000512538 -6.74747e-14)
(0.02184 0.00384776 -1.5158e-13)
(0.0233836 0.00597901 3.5713e-14)
(-0.00234445 0.0020533 -2.34775e-15)
(-0.0125685 -0.00184231 4.15475e-14)
(-0.00997664 -0.00311033 -1.64632e-14)
(0.000523785 -0.00198766 4.39594e-14)
(0.00535041 -0.000844363 1.54493e-13)
(0.00380418 -0.000182001 3.03039e-14)
(0.000850713 0.000127775 -1.28624e-13)
(-0.00171293 0.000288872 -7.91879e-15)
(-0.00125996 0.00016738 -2.15703e-13)
(-0.000311078 -8.31353e-05 -2.82307e-13)
(0.000419633 -0.00132089 1.15489e-13)
(-0.000829712 -0.0115713 -1.13967e-14)
(-0.0522742 -0.0724266 4.17034e-16)
(-1.19449 0.13023 -5.67032e-14)
(-6.95668e-05 0.0001378 -1.0766e-14)
(-7.57851e-05 9.04996e-05 2.65582e-14)
(-8.85658e-05 5.53705e-05 1.73225e-15)
(-8.21012e-05 1.10339e-05 3.61655e-14)
(-8.30033e-05 -7.56582e-06 -3.2885e-14)
(-2.37921e-05 -7.7953e-05 -9.40223e-14)
(6.17346e-07 -8.95659e-05 -1.07344e-13)
(8.50106e-05 -0.000148509 2.994e-14)
(9.85816e-05 -8.76421e-05 -7.52069e-14)
(5.78194e-05 -2.97999e-05 9.57957e-14)
(1.82068e-05 2.03781e-05 -6.00384e-14)
(-3.12617e-05 4.42097e-05 -1.46125e-13)
(-4.88472e-05 4.46956e-05 -1.64675e-13)
(-5.7092e-05 3.99432e-05 1.32089e-14)
(-5.7856e-05 3.3338e-05 1.33035e-13)
(-5.50697e-05 2.68283e-05 3.99405e-14)
(-5.05247e-05 2.13204e-05 -5.03068e-14)
(-4.50923e-05 1.65133e-05 -3.54748e-14)
(-3.91696e-05 1.29349e-05 -2.18179e-14)
(-3.32457e-05 9.60916e-06 3.90397e-14)
(-2.6886e-05 7.60403e-06 1.72959e-14)
(-2.1048e-05 5.70395e-06 2.50511e-14)
(-1.53952e-05 5.80452e-06 -3.38373e-14)
(-1.41664e-05 6.53876e-06 -2.46547e-14)
(-1.75928e-05 6.64398e-06 1.81837e-14)
(-2.24543e-05 6.25464e-06 1.24069e-14)
(-2.86229e-05 4.85004e-06 6.92983e-15)
(-3.44868e-05 4.85913e-06 -1.46239e-15)
(-3.42098e-05 2.20995e-06 -2.84486e-16)
(-2.47291e-05 5.97357e-06 2.30728e-16)
(-2.42433e-05 2.16925e-06 -4.5148e-16)
(-3.46772e-05 1.64014e-06 -1.86792e-15)
(-4.22564e-05 6.31705e-07 -1.2599e-15)
(-2.93619e-05 2.24325e-06 -3.8425e-15)
(-6.0267e-05 -5.11068e-07 -2.91018e-15)
(-0.000112673 -9.78827e-06 1.2622e-15)
(-7.68222e-05 1.17634e-05 -2.16361e-15)
(-0.000299747 0.000132505 -1.10554e-14)
(-0.00214609 0.00126896 -2.1491e-14)
(-0.000106938 0.000142926 -1.31424e-14)
(-0.000101752 0.000166408 5.88445e-15)
(-8.3247e-05 0.000200852 7.81383e-15)
(-5.11995e-05 0.000183986 -3.36619e-14)
(-2.44959e-05 0.000174464 2.10325e-14)
(-1.8056e-05 0.000179093 8.03962e-14)
(8.84093e-06 0.000193974 1.03894e-13)
(2.65076e-05 0.000200213 1.00638e-13)
(5.01939e-05 0.000194657 -3.98771e-15)
(6.27169e-05 0.000167 1.9068e-13)
(6.51424e-05 0.000132654 -2.08859e-13)
(5.74042e-05 9.73436e-05 -1.19528e-13)
(5.00971e-05 7.26593e-05 4.48617e-13)
(4.08516e-05 5.32852e-05 1.28258e-13)
(3.3494e-05 3.98626e-05 -1.19187e-13)
(7.10872e-06 3.19888e-05 -1.78004e-14)
(5.38233e-05 1.38459e-06 3.42057e-13)
(0.000217773 -8.89767e-05 -1.53339e-13)
(0.000362197 -0.000193673 -4.91942e-13)
(0.00511011 -0.000851415 1.88439e-13)
(-0.0108178 0.00215567 2.35439e-13)
(0.00396251 -0.00171766 4.67707e-14)
(0.0362307 0.0092988 -1.3086e-13)
(0.00820987 0.0109028 1.92532e-13)
(-0.0777792 -0.00614058 -4.19891e-14)
(-0.0687789 -0.0121253 -7.04615e-14)
(-0.0172557 -0.00896984 -3.01905e-14)
(0.00360523 -0.00574747 5.60056e-15)
(0.0156276 -0.00143686 -1.4999e-14)
(0.00955599 0.000628884 -1.58866e-14)
(0.00170012 0.00101078 -2.03951e-14)
(-0.00108103 0.000865835 3.52777e-14)
(-0.00143859 0.000498167 -1.88218e-13)
(-0.00164127 0.000257493 -2.24044e-13)
(-0.00075293 2.64282e-05 1.62298e-13)
(0.00048124 -0.000441586 -3.94957e-14)
(0.00155522 -0.00232189 3.30593e-14)
(0.0323704 -0.0142237 -1.40049e-14)
(0.987498 -0.118623 -4.40507e-14)
(-0.000110783 0.000124938 -4.63884e-15)
(-0.000126023 9.60756e-05 1.24099e-13)
(-0.000131158 6.20471e-05 -7.98393e-15)
(-0.00013278 2.53874e-05 -1.29075e-13)
(-0.000117557 -1.20376e-05 -2.56851e-14)
(-8.13822e-05 -5.08248e-05 1.27346e-13)
(-4.64621e-05 -7.00652e-05 1.11415e-13)
(8.91543e-06 -8.24096e-05 5.95857e-14)
(3.41317e-05 -3.99375e-05 -8.25872e-14)
(2.52879e-05 1.42968e-06 -1.0649e-14)
(3.89667e-06 3.49162e-05 1.01897e-13)
(-2.39063e-05 4.7586e-05 -5.21001e-15)
(-3.99656e-05 4.80618e-05 1.22904e-14)
(-4.85307e-05 4.3704e-05 -2.47922e-14)
(-5.10848e-05 3.75167e-05 -3.25879e-14)
(-4.98348e-05 3.10376e-05 1.41525e-14)
(-4.66839e-05 2.50184e-05 1.7087e-14)
(-4.21761e-05 1.98535e-05 -5.80435e-14)
(-3.71072e-05 1.54611e-05 2.69296e-14)
(-3.15383e-05 1.19617e-05 1.7845e-14)
(-2.59039e-05 8.95506e-06 1.46788e-14)
(-2.03146e-05 7.03316e-06 3.1909e-14)
(-1.57607e-05 5.74925e-06 4.17814e-14)
(-1.46804e-05 6.84802e-06 1.76491e-14)
(-1.78622e-05 6.91198e-06 -1.51651e-14)
(-2.24867e-05 6.82794e-06 8.1611e-16)
(-2.82804e-05 6.04036e-06 -5.68176e-15)
(-3.47451e-05 4.92271e-06 -2.08568e-15)
(-3.41002e-05 2.89027e-06 3.93289e-16)
(-2.84098e-05 -1.2783e-07 -3.86638e-17)
(-4.17726e-05 4.57252e-06 2.83116e-16)
(-4.66569e-05 1.54642e-07 6.14208e-16)
(-5.24322e-05 -1.51953e-06 1.84989e-15)
(-7.7881e-05 -7.86125e-07 2.35648e-15)
(-7.5019e-05 3.25115e-06 7.67063e-16)
(-7.66098e-05 -6.97288e-06 -1.55166e-15)
(-0.000202716 -1.52497e-05 -6.70311e-17)
(-0.000312865 -1.96112e-05 3.77887e-15)
(-0.00154446 -0.000201758 9.20256e-15)
(-7.29088e-05 0.000132496 -5.07374e-15)
(-6.91313e-05 0.000147634 -8.20161e-16)
(-5.08167e-05 0.000166114 -5.83689e-15)
(-2.28258e-05 0.000158716 1.55513e-14)
(-6.50458e-06 0.000152283 3.91316e-15)
(5.59461e-06 0.000164162 -3.37371e-14)
(2.26541e-05 0.000173988 -1.07609e-13)
(4.24613e-05 0.000181248 -9.54172e-14)
(6.24111e-05 0.000168409 -1.11321e-13)
(7.45625e-05 0.000145042 1.10097e-14)
(7.67675e-05 0.00011767 2.64052e-13)
(7.19594e-05 9.52692e-05 7.06208e-14)
(6.41099e-05 7.91188e-05 -9.93109e-14)
(5.21935e-05 6.9237e-05 -2.41053e-13)
(3.97743e-05 5.99242e-05 1.10245e-13)
(3.46918e-05 5.75137e-05 1.45922e-13)
(-2.27873e-05 0.00013083 -9.42421e-14)
(-0.000224644 0.00027132 -1.89373e-13)
(-0.000554556 0.00117836 3.17156e-13)
(-0.00391114 0.00076392 -9.48703e-14)
(0.0070518 -0.00985007 -1.19558e-13)
(0.000276815 -0.00233813 1.78542e-13)
(-0.0294763 -0.0138269 7.38939e-14)
(-0.0505339 -0.0105858 -3.36041e-15)
(-0.000371297 0.00303956 -3.30716e-14)
(0.0514554 0.00881955 3.55388e-15)
(0.0485316 0.000789917 -3.06127e-14)
(0.0826781 0.000812557 2.10659e-14)
(0.0329773 0.00272195 -3.31742e-14)
(-0.015046 0.00140471 -7.20993e-14)
(-0.0130059 0.00111756 6.96116e-14)
(-0.00675692 0.00120273 3.08457e-14)
(-0.00236612 0.000644559 -1.21841e-13)
(-0.000421865 7.57923e-05 7.82252e-14)
(0.000732419 -0.000205194 1.6509e-14)
(0.0014688 -0.000469277 -3.61584e-14)
(0.00317557 -0.0013418 -9.98095e-14)
(0.0166938 -0.00209386 2.76701e-14)
(0.111434 -0.00953786 6.03207e-15)
(-9.07577e-05 0.000110246 2.9218e-14)
(-0.00010133 9.01428e-05 -2.76869e-14)
(-0.000111831 6.30328e-05 -9.83432e-14)
(-0.000112883 3.63632e-05 4.48518e-14)
(-0.000102872 5.49393e-06 2.05982e-14)
(-8.3391e-05 -2.08593e-05 -6.45708e-14)
(-5.57061e-05 -3.60283e-05 1.35492e-14)
(-2.26115e-05 -3.83938e-05 -1.17648e-13)
(-2.81576e-06 -1.29575e-05 -7.91933e-14)
(-9.90234e-07 1.20623e-05 -8.81237e-14)
(-1.27465e-05 3.18933e-05 9.75413e-14)
(-2.84963e-05 4.10318e-05 1.45331e-14)
(-4.01246e-05 4.28157e-05 -1.36542e-14)
(-4.66991e-05 4.04248e-05 -8.08996e-14)
(-4.87775e-05 3.59235e-05 -5.80884e-14)
(-4.77176e-05 3.03729e-05 3.78566e-14)
(-4.49374e-05 2.48684e-05 -2.1374e-14)
(-4.09332e-05 1.98763e-05 -4.39722e-14)
(-3.62079e-05 1.56505e-05 -4.00348e-15)
(-3.09915e-05 1.20296e-05 -4.02392e-14)
(-2.55856e-05 9.49477e-06 -4.3e-14)
(-2.02121e-05 7.98204e-06 -8.43247e-14)
(-1.57906e-05 8.34452e-06 -6.39427e-14)
(-1.46451e-05 1.01804e-05 -1.79983e-14)
(-1.74491e-05 1.06296e-05 3.95027e-15)
(-2.18927e-05 9.90239e-06 -1.14738e-15)
(-2.72725e-05 8.32358e-06 -1.05282e-14)
(-3.34971e-05 6.57477e-06 4.47364e-15)
(-3.33287e-05 2.8057e-06 5.81708e-16)
(-2.76546e-05 5.51926e-06 -1.81312e-16)
(-3.29349e-05 2.98167e-06 -9.50375e-18)
(-4.03319e-05 9.20843e-07 -5.34349e-16)
(-4.65262e-05 -1.54891e-06 -9.83428e-16)
(-5.60584e-05 -8.66179e-06 -1.46504e-15)
(-9.93445e-05 -2.11402e-06 1.86582e-15)
(-0.000191981 5.19921e-05 3.70829e-17)
(-0.000150876 3.0626e-05 1.44742e-14)
(-0.000197825 -3.0902e-05 8.74857e-15)
(-0.00119419 -0.000225813 -1.03371e-13)
(-6.61538e-05 0.000113142 7.92675e-15)
(-5.70664e-05 0.00013838 -2.34388e-15)
(-4.38385e-05 0.000148061 6.66285e-17)
(-2.29958e-05 0.000146855 -7.13004e-15)
(-1.40459e-05 0.000147152 1.99574e-15)
(7.17154e-07 0.000160115 3.58141e-14)
(1.63619e-05 0.000172307 5.84655e-14)
(3.47918e-05 0.000170189 5.46313e-14)
(5.18703e-05 0.000158915 -1.33388e-13)
(6.20728e-05 0.000139068 -1.11642e-13)
(6.3681e-05 0.000115468 1.41517e-13)
(6.0892e-05 9.62963e-05 2.56581e-13)
(5.41028e-05 8.15215e-05 1.35702e-13)
(4.63679e-05 7.02925e-05 -4.72147e-13)
(3.93679e-05 5.98674e-05 -1.62161e-13)
(2.84336e-05 5.64268e-05 3.85909e-13)
(1.79276e-05 3.81357e-05 8.39267e-14)
(3.98238e-05 -4.11472e-05 -1.2427e-13)
(-4.29929e-05 -0.000112016 -2.28419e-13)
(-0.000240419 -0.00165054 1.97904e-13)
(0.0025276 0.00450099 4.35908e-14)
(0.000463552 0.000139384 -2.22434e-13)
(0.0101385 0.00748023 1.65569e-13)
(0.0140759 0.00898246 -1.14159e-13)
(0.0121928 0.00529171 -3.71812e-14)
(0.0337222 -0.00775271 3.56576e-14)
(0.0961423 -0.0247024 -4.55987e-14)
(-0.059374 -0.00334799 1.00991e-14)
(-0.0415577 0.00528829 1.3654e-14)
(0.0235733 -0.00246764 2.09646e-14)
(-0.0289885 0.00509603 -9.02532e-15)
(-0.0168819 0.000731699 2.55595e-14)
(-0.00653071 0.000373906 2.0724e-13)
(0.000540781 -0.000455291 5.34553e-14)
(0.0022896 -0.000537942 -7.58475e-14)
(0.0021564 -0.000559669 -1.16592e-13)
(0.00240923 -0.000733271 1.66383e-14)
(0.0069925 0.000189353 -2.82613e-14)
(0.0331538 -0.00909291 4.72036e-14)
(-8.27319e-05 9.90394e-05 1.88165e-14)
(-9.2295e-05 8.57633e-05 -3.68743e-14)
(-0.000100317 6.65562e-05 -4.04096e-15)
(-9.84472e-05 4.48791e-05 -3.37242e-14)
(-9.22955e-05 2.01509e-05 -2.0822e-14)
(-7.74783e-05 -3.25749e-07 7.34766e-14)
(-5.70385e-05 -1.53341e-05 -1.8417e-13)
(-3.35511e-05 -1.60788e-05 1.69127e-13)
(-2.18071e-05 4.59916e-07 2.01468e-15)
(-1.85108e-05 1.61859e-05 -1.20416e-13)
(-2.46345e-05 2.98729e-05 -7.02476e-14)
(-3.33469e-05 3.73322e-05 -1.98382e-14)
(-4.10722e-05 3.97386e-05 5.95859e-14)
(-4.56052e-05 3.83818e-05 1.29281e-13)
(-4.69453e-05 3.45643e-05 2.11142e-14)
(-4.58042e-05 2.95574e-05 -4.73378e-14)
(-4.32662e-05 2.43537e-05 2.21982e-14)
(-3.96624e-05 1.94916e-05 5.00095e-14)
(-3.52797e-05 1.54647e-05 -3.67787e-15)
(-3.03998e-05 1.19549e-05 -7.78279e-15)
(-2.53002e-05 9.58576e-06 -2.14374e-14)
(-2.02941e-05 8.1147e-06 5.28066e-14)
(-1.62328e-05 8.43099e-06 3.09351e-14)
(-1.5139e-05 1.00774e-05 -1.07666e-14)
(-1.75489e-05 1.06533e-05 -1.69118e-14)
(-2.17518e-05 9.99321e-06 -6.96404e-15)
(-2.70237e-05 8.48565e-06 1.26251e-14)
(-3.30266e-05 6.8102e-06 -8.91348e-16)
(-3.29625e-05 3.00546e-06 -5.13451e-16)
(-2.81925e-05 2.74578e-06 2.01635e-16)
(-3.25612e-05 5.66209e-06 -3.98931e-17)
(-4.02321e-05 1.2924e-06 -3.67636e-17)
(-3.67391e-05 3.06205e-05 2.74453e-16)
(4.87252e-05 0.000353312 5.12509e-16)
(0.000550968 0.0020058 -3.23043e-15)
(0.000776842 0.00288953 7.58328e-15)
(-0.000492913 -0.00165833 -1.28909e-14)
(-0.000347757 -0.000311004 -2.99062e-14)
(-0.00108344 -0.000197983 -1.05222e-16)
(-5.57564e-05 0.000101333 -4.04106e-15)
(-4.20808e-05 0.000119666 4.77982e-15)
(-2.80473e-05 0.000132798 5.64661e-17)
(-1.5217e-05 0.000133469 -4.17625e-15)
(-5.38482e-06 0.000138115 -2.88315e-14)
(7.79059e-06 0.000149194 3.46355e-14)
(2.51467e-05 0.000154525 1.26339e-14)
(4.27933e-05 0.000150238 -7.01521e-14)
(5.7301e-05 0.000138512 -5.82308e-14)
(6.6126e-05 0.00012057 -1.2138e-13)
(6.80783e-05 0.000100906 1.74614e-14)
(6.57085e-05 8.50359e-05 -1.32354e-13)
(5.98567e-05 7.26901e-05 8.04617e-15)
(5.19977e-05 6.37593e-05 3.54351e-13)
(4.15538e-05 5.75332e-05 -2.34206e-13)
(3.09324e-05 5.5135e-05 -1.67665e-13)
(1.80755e-05 5.76371e-05 1.01579e-13)
(7.01106e-06 5.17948e-05 -1.31965e-13)
(-5.02425e-05 1.64563e-05 8.48917e-14)
(-6.76209e-05 5.64322e-05 -1.4397e-13)
(-0.000155849 7.72669e-05 -1.61815e-13)
(-0.000538606 0.000174426 1.83267e-13)
(0.0028802 0.000952274 -4.05341e-14)
(0.00320561 0.00204365 8.9688e-14)
(-0.00663089 0.00254268 5.67601e-14)
(-0.0403664 0.00510623 6.28318e-15)
(-0.0849724 0.00925798 1.08851e-13)
(0.0247624 -0.00566978 -2.11569e-14)
(0.0214232 0.00288 2.25272e-14)
(0.00522432 0.00170064 -5.5386e-14)
(-0.00707318 -0.00295262 -1.55683e-13)
(0.00118494 0.00154406 1.36945e-15)
(-0.00605707 -0.000573888 1.40175e-13)
(0.00142209 -0.00069155 -3.31586e-14)
(0.00407574 -0.000694572 -1.04841e-13)
(0.00409949 -0.000564165 1.18021e-13)
(0.00200706 -0.000406817 -3.96401e-14)
(0.00407059 0.000686877 -1.66261e-14)
(0.0199213 -0.00938403 -9.79634e-16)
(-6.36414e-05 9.05322e-05 2.02826e-14)
(-7.51284e-05 8.22287e-05 1.43636e-14)
(-7.96852e-05 6.90452e-05 -3.19923e-14)
(-8.19022e-05 5.0457e-05 7.88748e-14)
(-7.80634e-05 3.04037e-05 1.86884e-13)
(-6.94201e-05 1.33471e-05 -6.87527e-14)
(-5.58884e-05 -3.99607e-08 -7.24484e-14)
(-4.01471e-05 -4.5285e-07 1.50439e-13)
(-3.19122e-05 9.5273e-06 1.26936e-13)
(-2.94092e-05 1.92922e-05 3.56479e-14)
(-3.27605e-05 2.82462e-05 -5.19378e-14)
(-3.79923e-05 3.37918e-05 5.91809e-14)
(-4.27697e-05 3.59625e-05 4.54279e-14)
(-4.55526e-05 3.5054e-05 -3.98178e-15)
(-4.58975e-05 3.19662e-05 -9.37209e-14)
(-4.44039e-05 2.76183e-05 3.96391e-15)
(-4.18972e-05 2.31691e-05 3.73007e-15)
(-3.84857e-05 1.89338e-05 2.06826e-16)
(-3.44015e-05 1.53402e-05 1.51383e-14)
(-2.97907e-05 1.2218e-05 -5.4306e-15)
(-2.49907e-05 1.02515e-05 1.2301e-14)
(-2.02953e-05 9.16266e-06 -2.67241e-14)
(-1.64821e-05 1.00292e-05 -1.53649e-14)
(-1.5308e-05 1.18604e-05 1.55016e-14)
(-1.73385e-05 1.28597e-05 2.09528e-14)
(-2.12941e-05 1.21643e-05 1.25521e-15)
(-2.65263e-05 1.04059e-05 -1.23689e-15)
(-3.24314e-05 7.92745e-06 -3.25986e-15)
(-3.2667e-05 3.58196e-06 6.54243e-16)
(-2.81979e-05 5.09452e-06 -1.04564e-16)
(-3.2039e-05 7.0929e-06 -5.30353e-16)
(-3.93509e-05 2.34511e-06 -2.80163e-17)
(-4.43494e-05 -4.71666e-05 7.70178e-17)
(-6.23305e-05 -0.000545483 -7.06226e-17)
(-0.000231605 -0.00293576 -9.30769e-16)
(-0.000387625 -0.00388449 -6.9575e-16)
(-0.000234174 0.00226716 1.03197e-14)
(-0.000279571 0.000248152 -1.08843e-14)
(-0.00101582 -0.000249152 5.48873e-15)
(-4.34207e-05 9.41045e-05 1.93827e-15)
(-3.35977e-05 0.000105894 5.06801e-16)
(-2.14705e-05 0.00011929 3.1625e-15)
(-1.15568e-05 0.000126401 -2.45877e-15)
(-2.63695e-06 0.000130055 -1.08434e-15)
(1.08703e-05 0.000138946 1.6338e-14)
(2.72253e-05 0.000142082 7.60511e-15)
(4.22225e-05 0.000135987 4.04772e-14)
(5.48405e-05 0.000126753 6.79651e-14)
(6.21326e-05 0.0001118 -3.20431e-14)
(6.39715e-05 9.58185e-05 -7.79472e-15)
(6.23212e-05 8.30031e-05 7.50085e-14)
(5.7655e-05 7.28332e-05 -1.45507e-13)
(5.03371e-05 6.48752e-05 -2.89384e-13)
(4.15891e-05 5.86622e-05 1.75229e-13)
(3.32939e-05 5.32693e-05 2.68354e-13)
(2.72922e-05 4.50744e-05 -3.55848e-13)
(1.50454e-05 3.27731e-05 6.06678e-14)
(-1.72341e-05 3.67356e-06 1.11899e-13)
(-7.25345e-05 3.40583e-05 -1.12965e-13)
(-0.000119266 0.000135199 8.56209e-14)
(-0.000322394 0.000104321 -8.73351e-14)
(-0.000630346 0.00078834 -1.69252e-13)
(4.7051e-05 0.00244971 -5.03175e-14)
(0.00150244 0.00241715 -1.16203e-13)
(0.00276045 -0.000773041 5.63303e-14)
(0.00273815 -0.00296862 -1.6212e-14)
(0.00442766 -0.00233052 -1.09016e-14)
(-0.0009459 0.000366686 2.13837e-14)
(-0.0252895 0.00541796 4.23992e-14)
(0.0247286 -0.00106735 3.28936e-14)
(0.000551137 0.00044148 -4.52677e-14)
(0.000698512 -0.000893495 -1.16438e-13)
(-0.00187771 -0.000551779 -1.48654e-13)
(0.00116396 -0.000290392 3.3778e-14)
(0.0028951 0.000227142 7.33064e-14)
(0.00191372 -0.000315008 8.46108e-14)
(0.00369605 0.00065584 3.8485e-14)
(0.0167272 -0.00990838 2.88102e-14)
(-5.11942e-05 8.57237e-05 8.59492e-15)
(-5.86134e-05 8.08592e-05 -2.0693e-14)
(-6.29301e-05 6.98924e-05 1.04909e-14)
(-6.54487e-05 5.37698e-05 -5.83387e-15)
(-6.54413e-05 3.75432e-05 4.68182e-15)
(-6.21015e-05 2.11325e-05 -7.8182e-14)
(-5.37654e-05 1.08513e-05 -2.9426e-14)
(-4.36185e-05 1.00231e-05 -3.50566e-14)
(-3.80345e-05 1.5247e-05 2.74176e-14)
(-3.6332e-05 2.13567e-05 1.35735e-13)
(-3.84342e-05 2.71403e-05 -3.03588e-14)
(-4.179e-05 3.11846e-05 -5.88494e-14)
(-4.45788e-05 3.29067e-05 2.50179e-15)
(-4.58555e-05 3.22093e-05 -5.12985e-14)
(-4.5223e-05 2.96841e-05 1.7003e-14)
(-4.32524e-05 2.59938e-05 2.54111e-14)
(-4.06422e-05 2.22042e-05 3.93181e-14)
(-3.73718e-05 1.85758e-05 1.5049e-14)
(-3.34995e-05 1.53591e-05 -1.7703e-14)
(-2.91448e-05 1.26026e-05 2.27255e-14)
(-2.46826e-05 1.07476e-05 2.51826e-14)
(-2.0325e-05 9.92086e-06 1.82592e-14)
(-1.68698e-05 1.07317e-05 3.81562e-15)
(-1.56412e-05 1.24831e-05 -1.44096e-14)
(-1.73373e-05 1.34869e-05 1.18015e-14)
(-2.09421e-05 1.30721e-05 3.28032e-15)
(-2.60463e-05 1.12734e-05 -1.13707e-14)
(-3.17784e-05 8.80311e-06 1.2234e-15)
(-3.23329e-05 4.23373e-06 -1.1842e-16)
(-2.83787e-05 4.71367e-06 2.05564e-16)
(-3.19242e-05 5.72615e-06 6.6705e-16)
(-3.99522e-05 3.39452e-06 -1.60469e-16)
(-5.25643e-05 1.68115e-05 -2.50651e-16)
(-0.000111145 0.000152749 5.63725e-16)
(-0.000378536 0.000916492 1.39595e-15)
(-0.000560824 0.000953531 -1.18988e-14)
(0.00021314 -0.000815023 3.46511e-15)
(-0.000235787 6.2994e-05 4.41944e-14)
(-0.00131537 0.000505895 3.10299e-14)
(-2.86329e-05 8.65933e-05 3.09102e-15)
(-2.25252e-05 9.90429e-05 5.82458e-16)
(-1.4086e-05 0.00010961 -1.12642e-15)
(-5.2711e-06 0.000117549 4.16958e-15)
(4.11759e-06 0.000122377 -8.69009e-15)
(1.64381e-05 0.000127481 -1.09427e-15)
(3.14561e-05 0.000126925 2.35994e-14)
(4.44757e-05 0.000122427 -1.11468e-14)
(5.53184e-05 0.000113818 -3.96141e-14)
(6.16853e-05 0.000101058 2.65385e-14)
(6.37373e-05 8.76733e-05 -6.07784e-14)
(6.32987e-05 7.6813e-05 -1.5086e-13)
(5.94074e-05 6.81876e-05 1.06603e-13)
(5.30246e-05 6.07216e-05 3.77165e-13)
(4.49923e-05 5.46681e-05 -1.38923e-14)
(3.50602e-05 5.06033e-05 -4.01368e-13)
(2.5336e-05 4.77998e-05 3.32533e-13)
(1.2816e-05 4.34069e-05 2.33369e-13)
(-1.3288e-05 3.53047e-05 1.24569e-13)
(-4.88297e-05 6.13727e-05 5.87362e-14)
(-7.81036e-05 0.000100278 -2.88419e-14)
(-0.000230685 0.000120434 1.61935e-13)
(-0.000314515 0.000607275 1.11967e-13)
(0.000721936 0.00162963 -1.01878e-14)
(0.0023052 0.00138908 2.14256e-13)
(0.00192426 -0.000783692 -6.57057e-14)
(-0.000290241 -0.00234777 -7.65303e-15)
(-0.00287671 -0.00129469 5.67733e-15)
(-0.00267704 0.000442948 -2.01427e-14)
(0.000973433 0.000920644 -2.08083e-14)
(0.00250148 0.000777301 -1.52564e-14)
(0.00245367 0.000311314 4.77715e-14)
(0.000781995 -0.000491309 -2.27746e-14)
(-0.00236503 -0.000403096 -1.27978e-13)
(-0.00418345 0.000356349 -2.08046e-14)
(-0.0233039 0.00764857 -1.02629e-13)
(0.00776245 -0.00264751 -5.75835e-14)
(0.00295971 0.000953154 6.4674e-15)
(0.0128172 -0.0091835 -2.59303e-14)
(-3.73462e-05 8.17912e-05 -9.66503e-15)
(-4.33792e-05 7.83547e-05 1.2194e-14)
(-4.91184e-05 6.92142e-05 -2.61343e-14)
(-5.33415e-05 5.3897e-05 -3.94508e-15)
(-5.56645e-05 3.74816e-05 7.3814e-15)
(-5.46125e-05 2.54896e-05 1.10947e-14)
(-4.96808e-05 1.70695e-05 8.06389e-14)
(-4.45197e-05 1.66634e-05 -1.01462e-13)
(-4.12053e-05 1.92583e-05 -3.28009e-14)
(-4.06141e-05 2.27984e-05 -3.11479e-14)
(-4.23049e-05 2.64342e-05 1.17307e-13)
(-4.46605e-05 2.92004e-05 -4.64458e-14)
(-4.62868e-05 3.02301e-05 -4.56722e-15)
(-4.63817e-05 2.94473e-05 1.8539e-14)
(-4.49516e-05 2.70648e-05 1.77851e-14)
(-4.25122e-05 2.39013e-05 1.20879e-14)
(-3.9752e-05 2.07004e-05 -7.68253e-14)
(-3.6502e-05 1.7673e-05 -2.81417e-14)
(-3.27756e-05 1.48569e-05 3.58169e-14)
(-2.86392e-05 1.25176e-05 1.42871e-15)
(-2.44757e-05 1.0838e-05 3.63859e-14)
(-2.04596e-05 1.03217e-05 -1.03901e-14)
(-1.72663e-05 1.11583e-05 1.50657e-15)
(-1.60135e-05 1.29759e-05 2.42352e-14)
(-1.73269e-05 1.41811e-05 -2.03627e-14)
(-2.06339e-05 1.41265e-05 -6.98975e-15)
(-2.54823e-05 1.26014e-05 6.58206e-15)
(-3.10992e-05 9.86733e-06 2.19788e-15)
(-3.19043e-05 5.19368e-06 -1.16878e-18)
(-2.85074e-05 5.29151e-06 -2.57083e-16)
(-3.1792e-05 5.87707e-06 6.37515e-16)
(-3.93784e-05 1.62806e-06 7.50578e-17)
(-4.62652e-05 -6.08145e-08 -1.08032e-15)
(-5.41963e-05 -8.46167e-06 5.43631e-17)
(-5.94234e-05 -3.79962e-05 -3.16235e-15)
(-2.47675e-05 7.90602e-05 7.24227e-15)
(-8.49378e-05 0.000126335 -1.54389e-15)
(-0.000226883 -2.63223e-05 -2.46455e-15)
(-0.000689924 -0.00042045 -4.22079e-14)
(-2.08212e-05 8.21257e-05 1.40114e-15)
(-1.62379e-05 9.45729e-05 1.51056e-15)
(-7.89386e-06 0.000104435 -9.49539e-16)
(1.0249e-06 0.000110139 -1.91884e-15)
(8.96135e-06 0.000113465 -3.80273e-15)
(2.18388e-05 0.000120062 1.65053e-14)
(3.43595e-05 0.000119025 1.3875e-14)
(4.53783e-05 0.000112809 -5.19113e-14)
(5.42814e-05 0.000104727 2.17311e-14)
(5.96974e-05 9.37685e-05 1.11285e-13)
(6.22291e-05 8.17394e-05 4.63175e-14)
(6.24446e-05 7.30292e-05 2.13133e-14)
(5.96989e-05 6.56142e-05 -1.87881e-13)
(5.41166e-05 5.90619e-05 -4.29854e-13)
(4.64435e-05 5.35674e-05 -3.04036e-13)
(3.73253e-05 4.9106e-05 1.20067e-13)
(2.88761e-05 4.46989e-05 -7.38521e-14)
(1.96931e-05 4.02308e-05 -3.77114e-13)
(-2.1082e-06 4.12354e-05 -1.94584e-13)
(-2.77849e-05 6.97808e-05 1.60888e-13)
(-4.73866e-05 0.000106398 1.60969e-13)
(-0.000139214 0.000138917 -9.33451e-14)
(-0.000141664 0.000509986 -3.83133e-14)
(0.000562441 0.00117445 2.39795e-15)
(0.00175076 0.000848393 -6.09647e-14)
(0.00180748 -0.00101934 6.32915e-14)
(-5.6573e-05 -0.00232163 7.21956e-15)
(-0.00188505 -0.00141527 4.32064e-15)
(-0.00214111 0.000262423 -4.41463e-15)
(-0.00152511 0.00120049 5.21809e-14)
(0.000526749 0.00103528 3.49631e-14)
(0.00147474 0.000318992 -3.44306e-15)
(0.0013368 -0.000395081 1.13106e-13)
(-0.000281186 -0.000705719 7.80658e-14)
(-0.00142534 -0.00232102 -4.04151e-14)
(0.0128774 -0.00200713 7.07846e-14)
(0.00346546 0.00151929 5.82181e-14)
(0.00298465 -0.00218037 -3.49672e-14)
(0.00862666 -0.00778996 -2.77441e-14)
(-2.7353e-05 7.67479e-05 7.39128e-15)
(-3.44895e-05 7.46572e-05 -1.20441e-14)
(-4.10165e-05 6.40372e-05 3.26932e-15)
(-4.7221e-05 5.02047e-05 6.10928e-14)
(-4.86505e-05 3.98462e-05 3.14463e-15)
(-4.80271e-05 2.78721e-05 1.01651e-13)
(-4.55064e-05 2.12547e-05 1.36656e-13)
(-4.32437e-05 2.11592e-05 -5.29995e-14)
(-4.24148e-05 2.19035e-05 -7.25299e-14)
(-4.2906e-05 2.37527e-05 -5.54112e-14)
(-4.47772e-05 2.60029e-05 -1.02164e-13)
(-4.67393e-05 2.76597e-05 -5.52863e-15)
(-4.76366e-05 2.80113e-05 -4.305e-14)
(-4.69744e-05 2.68904e-05 5.78122e-14)
(-4.48796e-05 2.45973e-05 1.93966e-14)
(-4.20555e-05 2.18154e-05 -3.07511e-14)
(-3.91249e-05 1.91946e-05 -3.26309e-15)
(-3.58395e-05 1.66751e-05 -2.54404e-14)
(-3.21716e-05 1.43053e-05 2.7909e-15)
(-2.82171e-05 1.2274e-05 -1.77679e-14)
(-2.42972e-05 1.09083e-05 -3.33798e-14)
(-2.06375e-05 1.0545e-05 1.47957e-14)
(-1.7689e-05 1.14384e-05 -2.76254e-14)
(-1.6451e-05 1.31437e-05 -1.00664e-14)
(-1.74219e-05 1.45297e-05 6.28565e-15)
(-2.04008e-05 1.4713e-05 3.97113e-15)
(-2.49234e-05 1.35662e-05 1.56319e-15)
(-3.03389e-05 1.07537e-05 -1.03505e-15)
(-3.13829e-05 6.1762e-06 -4.35121e-16)
(-2.85295e-05 5.51349e-06 -7.72707e-17)
(-3.1519e-05 6.02491e-06 -1.03018e-15)
(-3.88729e-05 2.35211e-06 5.53267e-16)
(-4.59367e-05 7.28346e-07 3.06316e-15)
(-5.35797e-05 -2.1229e-06 5.11839e-17)
(-6.56509e-05 8.25025e-06 2.49739e-15)
(-8.60342e-05 2.52357e-05 -3.42265e-15)
(-0.000135273 8.40015e-06 -6.46607e-15)
(-0.000226967 -7.77263e-05 3.78618e-15)
(-0.00030408 -0.000595209 -2.26297e-14)
(-1.71051e-05 7.65385e-05 2.41732e-15)
(-1.14717e-05 8.60293e-05 4.02437e-15)
(-4.52518e-06 9.95161e-05 -1.76074e-16)
(5.6523e-06 0.000102259 1.54071e-19)
(1.41881e-05 0.000100281 -2.54029e-15)
(2.45648e-05 0.000110114 -6.73411e-15)
(3.62548e-05 0.000109149 -4.93853e-15)
(4.71259e-05 0.000106805 -5.23678e-14)
(5.48202e-05 9.94439e-05 -1.00713e-15)
(5.875e-05 8.76748e-05 1.92802e-14)
(6.13299e-05 7.63873e-05 -2.32913e-14)
(6.32678e-05 6.82437e-05 1.41246e-13)
(6.09662e-05 6.19989e-05 1.49071e-13)
(5.61358e-05 5.60112e-05 2.69491e-14)
(4.91219e-05 5.07198e-05 2.76871e-13)
(4.04739e-05 4.64866e-05 -5.76105e-14)
(3.11412e-05 4.39472e-05 -7.29749e-16)
(2.25196e-05 4.35385e-05 2.14469e-13)
(8.19153e-06 4.75297e-05 9.99258e-14)
(-9.08824e-06 7.04201e-05 -2.94234e-14)
(-2.04345e-05 0.000108186 -1.21911e-13)
(-6.09557e-05 0.000157371 -1.15865e-14)
(-2.36018e-05 0.000418533 -9.36596e-14)
(0.00049664 0.000841614 -8.10375e-14)
(0.0013517 0.000523805 4.88751e-14)
(0.00135913 -0.000926551 -3.1092e-14)
(1.30555e-06 -0.00199412 -5.64886e-14)
(-0.00142996 -0.00131662 6.4511e-15)
(-0.00160864 9.99926e-05 -3.11524e-15)
(-0.00074933 0.000893355 -3.83349e-15)
(0.000315389 0.000836716 8.20594e-14)
(0.00106654 0.0002314 -2.93321e-14)
(0.00125082 -0.000368348 -3.90324e-14)
(0.000706245 -0.000621245 2.2705e-13)
(0.000519912 -0.000743894 3.70609e-14)
(0.00852363 -0.00545658 -8.29294e-14)
(-0.00515283 0.00209306 -1.57664e-14)
(0.0220543 -0.0146141 2.60535e-14)
(0.00546092 -0.00271321 -5.0529e-15)
(-2.33166e-05 7.22618e-05 -1.31444e-14)
(-2.94439e-05 6.84485e-05 -3.10177e-14)
(-3.67259e-05 5.98411e-05 5.06889e-14)
(-3.80717e-05 5.00847e-05 9.71645e-14)
(-4.19938e-05 3.87702e-05 6.43189e-14)
(-4.29539e-05 2.98996e-05 -1.65789e-13)
(-4.22779e-05 2.6077e-05 -1.14058e-13)
(-4.12438e-05 2.40853e-05 -3.87774e-14)
(-4.19597e-05 2.31032e-05 7.08571e-14)
(-4.39221e-05 2.41387e-05 7.32028e-14)
(-4.61186e-05 2.55274e-05 2.72944e-14)
(-4.80743e-05 2.6403e-05 2.50396e-14)
(-4.85839e-05 2.60926e-05 -2.67404e-14)
(-4.74677e-05 2.45229e-05 -8.73372e-14)
(-4.4947e-05 2.21928e-05 1.34147e-14)
(-4.18763e-05 1.97415e-05 2.7094e-14)
(-3.87607e-05 1.75772e-05 1.84377e-14)
(-3.54012e-05 1.54839e-05 5.10857e-14)
(-3.17394e-05 1.354e-05 -2.84805e-14)
(-2.79225e-05 1.17759e-05 -2.12612e-14)
(-2.42375e-05 1.07126e-05 -1.5318e-14)
(-2.08632e-05 1.04987e-05 -3.15587e-15)
(-1.816e-05 1.14089e-05 2.4638e-14)
(-1.6892e-05 1.30322e-05 1.64548e-14)
(-1.76129e-05 1.45287e-05 1.90872e-14)
(-2.02122e-05 1.50515e-05 6.46994e-15)
(-2.44392e-05 1.42512e-05 2.82247e-17)
(-2.95297e-05 1.17084e-05 2.21307e-15)
(-3.08218e-05 6.98614e-06 -3.08455e-16)
(-2.84446e-05 5.89299e-06 3.02085e-16)
(-3.12675e-05 5.97398e-06 -3.79771e-16)
(-3.84122e-05 2.37512e-06 3.17808e-17)
(-4.56218e-05 3.73709e-07 -1.75932e-15)
(-5.27184e-05 -3.50958e-06 4.23969e-16)
(-6.20208e-05 -4.97248e-06 4.62904e-15)
(-8.13636e-05 9.12097e-08 -1.09947e-15)
(-0.000132473 -4.53311e-08 8.88942e-16)
(-0.000245231 -4.02907e-05 -8.14206e-15)
(-0.000649715 -0.000189967 7.93538e-15)
(-1.42105e-05 7.1597e-05 -2.94634e-15)
(-9.05177e-06 7.95898e-05 1.7889e-16)
(-2.90046e-06 9.08328e-05 -1.65409e-15)
(6.64691e-06 9.78935e-05 -1.52309e-15)
(1.73487e-05 9.55881e-05 9.00182e-15)
(2.72456e-05 9.22736e-05 -2.93908e-15)
(3.67694e-05 9.78631e-05 2.92741e-14)
(4.6843e-05 9.77201e-05 2.04785e-14)
(5.34537e-05 9.24559e-05 5.16009e-15)
(5.91971e-05 8.40305e-05 -1.7069e-15)
(6.16097e-05 7.221e-05 7.12006e-15)
(6.34507e-05 6.48695e-05 -3.14154e-14)
(6.29376e-05 5.92953e-05 -1.37085e-13)
(5.8158e-05 5.34406e-05 3.64125e-14)
(5.17504e-05 4.86113e-05 1.8814e-14)
(4.34148e-05 4.49648e-05 5.25268e-14)
(3.47789e-05 4.25365e-05 -4.53508e-16)
(2.78114e-05 4.20893e-05 -9.40639e-14)
(1.88049e-05 4.87786e-05 -1.38998e-13)
(6.94134e-06 7.03105e-05 -1.19687e-13)
(3.71103e-06 0.000106175 -6.96968e-14)
(-6.63209e-06 0.00016179 -5.64245e-14)
(5.81677e-05 0.000355812 1.91329e-14)
(0.000458392 0.000618996 6.72238e-14)
(0.00107374 0.00031999 -3.6185e-14)
(0.00105458 -0.00080527 -1.37662e-14)
(-1.80486e-05 -0.00164606 4.44584e-14)
(-0.00116734 -0.00114388 2.10504e-15)
(-0.00128539 1.9226e-05 2.45306e-14)
(-0.000515871 0.000738282 -3.05756e-14)
(0.00037352 0.000709033 -1.01143e-13)
(0.00086241 0.00018726 -5.51577e-14)
(0.00091862 -0.000331096 3.49534e-14)
(0.000608519 -0.00054722 -1.50168e-14)
(6.67702e-05 -0.000451042 2.03699e-14)
(-0.00107895 0.000666677 3.04953e-14)
(0.00112533 0.00170861 5.3949e-15)
(-0.00521691 0.00518726 -1.68305e-14)
(-0.00500291 -0.00286867 4.26757e-14)
(-1.92368e-05 6.71394e-05 -2.40514e-14)
(-2.53502e-05 6.39476e-05 1.5062e-14)
(-3.03098e-05 5.80241e-05 4.42746e-14)
(-3.33313e-05 4.80411e-05 1.44969e-14)
(-3.51798e-05 3.76969e-05 1.02134e-13)
(-3.8292e-05 3.10726e-05 1.87092e-14)
(-3.89748e-05 2.81993e-05 -2.79255e-15)
(-4.02285e-05 2.63361e-05 -9.34345e-14)
(-4.11499e-05 2.39531e-05 -3.88165e-14)
(-4.37852e-05 2.38421e-05 5.64922e-14)
(-4.67457e-05 2.4948e-05 6.4165e-14)
(-4.87079e-05 2.52328e-05 1.04452e-13)