/*--------------------------------*- C++ -*----------------------------------*\
| =========                 |                                                 |
| \\      /  F ield         | OpenFOAM: The Open Source CFD Toolbox           |
|  \\    /   O peration     | Version:  2306                                  |
|   \\  /    A nd           | Website:  www.openfoam.com                      |
|    \\/     M anipulation  |                                                 |
\*---------------------------------------------------------------------------*/
FoamFile
{
    version     2.0;
    format      ascii;
    arch        "LSB;label=32;scalar=64";
    class       volScalarField;
    location    "475";
    object      p;
}
// * * * * * * * * * * * * * * * * * * * * * * * * * * * * * * * * * * * * * //

dimensions      [0 2 -2 0 0 0 0];

internalField   nonuniform List<scalar> 
10720
(
-62.2772
-133.564
-217.413
-300.05
-376.41
-454.198
-523.213
-581.157
-631.494
-670.88
-700.868
-722.954
-738.264
-747.523
-750.911
-747.777
-739.029
-723.617
-702.965
-677.136
-649.491
-623.082
-600.477
-573.517
-533.276
-482.197
-429.823
-384.227
-344.983
-308.065
-271.572
-235.411
-199.625
-163.844
-127.665
-90.0519
-51.5479
-6.90593
26.0645
9.09025
74.1317
143.469
208.204
263.523
305.438
330.179
338.464
336.063
323.158
302.129
278.586
255.04
232.257
210.876
190.763
171.975
154.078
136.803
119.659
102.595
85.3001
67.8668
50.7071
35.6889
23.853
14.1384
6.2571
0.393899
-3.48581
-5.63035
-6.18793
-5.24127
-2.79661
1.15472
6.96625
15.2118
29.1346
52.8227
43.2078
-10.9467
-71.619
-136.058
-202.277
-270.053
-335.831
-397.535
-454.482
-504.914
-548.621
-585.609
-615.786
-639.147
-655.513
-664.578
-667.097
-662.952
-653.195
-638.373
-621.133
-603.838
-587.567
-565.158
-528.404
-479.356
-428.214
-383.158
-344.101
-307.261
-270.796
-234.672
-198.959
-163.273
-127.2
-89.6841
-51.2595
-6.60491
25.7532
91.9381
138.389
184.723
229.415
268.801
300.266
320.675
329.368
327.941
317.251
300.068
279.871
258.608
237.222
216.417
196.443
177.43
159.195
141.541
124.14
106.89
89.5886
72.3157
55.4968
40.6046
28.5663
18.6988
10.588
4.19783
-0.371555
-3.13303
-4.18113
-3.61941
-1.48065
2.23388
7.8685
15.9813
29.8255
52.5826
56.9865
8.3299
-46.4564
-106.947
-169.663
-233.945
-298.227
-359.85
-417.23
-469.368
-515.014
-553.612
-584.856
-608.939
-626.094
-636.737
-640.898
-638.64
-630.61
-617.53
-601.263
-583.839
-566.416
-544.533
-511.355
-467.255
-420.36
-377.83
-340.182
-304.368
-268.751
-233.273
-197.98
-162.546
-126.641
-89.2587
-50.9396
-6.35666
25.8727
100.893
143.55
185.977
226.146
260.846
288.457
306.875
315.792
315.951
308.013
294.06
276.444
256.946
236.733
216.618
197.035
178.183
160.029
142.428
125.139
108.027
90.9517
73.9768
57.4844
42.6371
30.3384
20.2173
11.9188
5.42888
0.834961
-1.92638
-3.01303
-2.54293
-0.530348
3.05544
8.57655
16.6011
30.3109
52.1863
79.5942
38.8058
-7.79028
-59.0328
-112.832
-169.117
-226.226
-282.397
-336.306
-386.797
-432.749
-473.432
-508.382
-537.449
-560.507
-577.681
-588.52
-592.98
-591.374
-584.317
-573.097
-559.26
-543.642
-523.377
-493.538
-454.075
-411.203
-371.124
-334.893
-300.195
-265.567
-230.916
-196.298
-161.403
-125.889
-88.7784
-50.6407
-6.25745
26.0758
116.129
151.215
186.409
220.361
250.079
274.299
291.207
300.32
301.883
296.36
285.347
270.586
253.541
235.309
216.679
198.136
179.954
162.217
144.871
127.769
110.811
93.9219
77.1742
60.9266
46.1383
33.6591
23.3216
14.8027
8.0584
3.15064
0.0232114
-1.42831
-1.27986
0.473821
3.86753
9.25278
17.1786
30.7153
51.7419
85.7197
49.4038
7.72178
-38.4505
-87.0594
-138.516
-191.447
-244.241
-295.887
-345.228
-391.118
-432.747
-469.435
-500.685
-526.197
-545.659
-558.822
-565.692
-566.505
-561.884
-552.845
-540.678
-526.026
-506.849
-479.338
-443.142
-403.151
-364.86
-329.679
-295.859
-262.072
-228.179
-194.218
-159.891
-124.867
-88.1791
-50.3497
-6.29911
26.1358
118.33
149.48
180.809
211.03
237.501
259.35
275.182
284.416
287.082
283.599
275.12
262.958
248.257
231.977
214.869
197.442
180.03
162.814
145.825
129.007
112.303
95.6847
79.2354
63.287
48.6316
36.0425
25.5114
16.7813
9.81362
4.67609
1.34212
-0.273915
-0.253966
1.39165
4.69098
9.98937
17.8231
31.1505
51.2888
89.5116
57.3594
20.2626
-20.7985
-64.0389
-110.159
-157.877
-205.914
-253.53
-299.667
-343.357
-383.831
-420.352
-452.323
-479.318
-500.959
-517.127
-527.627
-532.464
-532.002
-526.916
-518.1
-505.957
-489.014
-464.363
-431.58
-394.623
-358.367
-324.443
-291.574
-258.606
-225.417
-192.076
-158.302
-123.766
-87.5269
-50.0879
-6.51196
26.0172
118.385
145.862
173.697
200.747
224.57
244.522
259.472
268.74
272.236
270.373
263.998
254.125
241.647
227.364
211.95
195.886
179.523
163.09
146.69
130.335
114.019
97.756
81.6472
66.008
51.5135
38.8667
28.1799
19.2732
12.1131
6.76383
3.21122
1.37192
1.16889
2.59879
5.70364
10.8337
18.5123
31.5706
50.7962
89.431
60.4135
26.845
-10.3444
-49.4305
-91.3468
-134.957
-179.14
-223.402
-266.804
-308.507
-347.825
-384.009
-416.412
-444.515
-467.866
-486.057
-498.823
-506.014
-507.91
-505.054
-498.15
-487.517
-472.148
-449.865
-420.168
-386.113
-351.9
-319.268
-287.369
-255.228
-222.729
-189.96
-156.694
-122.648
-86.8967
-49.9186
-6.93348
25.694
115.516
140.261
165.456
190.042
211.779
230.21
244.407
253.628
257.737
257.143
252.49
244.574
234.095
221.701
207.967
193.319
178.098
162.558
146.851
131.046
115.189
99.333
83.6006
68.2932
53.9965
41.3493
30.548
21.4879
14.1464
8.58701
4.81019
2.75102
2.34437
3.59569
6.55153
11.5557
19.1088
31.8935
50.229
87.7511
61.4116
30.8778
-2.91948
-38.3446
-76.4561
-116.208
-156.623
-197.379
-237.676
-276.79
-314.147
-349.06
-380.89
-409.078
-433.116
-452.539
-467.11
-476.626
-481.15
-480.984
-476.557
-468.029
-454.671
-434.884
-408.208
-377.015
-344.906
-313.674
-282.844
-251.622
-219.898
-187.77
-155.045
-121.491
-86.2493
-49.8233
-7.54775
25.1149
111.464
133.911
156.893
179.43
199.432
216.602
230.124
239.226
243.784
244.17
240.905
234.633
225.91
215.254
203.143
189.936
175.942
161.416
146.533
131.403
116.112
100.749
85.4532
70.5165
56.4631
43.876
33.0091
23.8296
16.3331
10.5854
6.60292
4.33662
3.72951
4.79084
7.57336
12.4161
19.799
32.2425
49.66
84.8553
60.737
32.7454
1.78517
-30.5646
-65.4266
-101.855
-138.969
-176.588
-214.017
-250.651
-286.026
-319.522
-350.541
-378.535
-402.966
-423.341
-439.291
-450.531
-456.957
-458.732
-456.153
-449.308
-437.679
-420.1
-396.15
-367.64
-337.606
-307.813
-278.092
-247.822
-216.912
-185.465
-153.326
-120.291
-85.5675
-49.7397
-8.26036
24.2608
106.6
127.152
148.297
169.117
187.655
203.756
216.661
225.598
230.47
231.611
229.459
224.552
217.344
208.247
197.651
185.847
173.1
159.648
145.667
131.294
116.643
101.832
87.0175
72.4837
58.7099
46.233
35.3437
26.0743
18.4433
12.5213
8.33932
5.86563
5.05511
5.92495
8.53477
13.2168
20.4254
32.5096
49.0313
81.3074
59.0959
33.2988
4.801
-24.88
-56.8919
-90.355
-124.475
-159.173
-193.838
-227.974
-261.213
-293.003
-322.824
-350.15
-374.44
-395.188
-411.985
-424.527
-432.602
-436.212
-435.489
-430.419
-420.604
-405.196
-383.838
-357.913
-329.959
-301.663
-273.101
-243.824
-213.762
-183.032
-151.512
-119.033
-84.8554
-49.6395
-9.01318
23.1814
101.369
120.305
139.88
159.228
176.509
191.676
204.014
212.753
217.831
219.549
218.287
214.505
208.586
200.864
191.654
181.183
169.671
157.322
144.302
130.757
116.82
102.627
88.3467
74.258
60.8079
48.4962
37.6359
28.3148
20.5782
14.5042
10.1387
7.4685
6.46011
7.13712
9.56651
14.0716
21.0801
32.7576
48.3723
77.3743
56.8085
32.9129
6.55069
-20.81
-50.3302
-81.183
-112.646
-144.698
-176.813
-208.585
-239.732
-269.77
-298.247
-324.687
-348.577
-369.409
-386.749
-400.237
-409.582
-414.646
-415.455
-411.943
-403.79
-390.379
-371.411
-347.925
-322.014
-295.245
-267.882
-239.632
-210.454
-180.474
-149.607
-117.719
-84.1213
-49.518
-9.81484
21.9426
95.9809
113.528
131.747
149.817
166.003
180.341
192.148
200.671
205.871
208.025
207.47
204.613
199.785
193.26
185.296
176.066
165.742
154.491
142.462
129.793
116.624
103.102
89.4015
75.7952
62.7086
50.6109
39.8269
30.4903
22.675
16.4693
11.9338
9.07372
7.86987
8.35317
10.5987
14.9191
21.7131
32.9575
47.6778
73.2593
54.1363
31.9117
7.42785
-17.8961
-45.2145
-73.7448
-102.82
-132.472
-162.23
-191.765
-220.866
-249.118
-276.139
-301.5
-324.725
-345.33
-362.872
-376.958
-387.272
-393.551
-395.728
-393.675
-387.118
-375.595
-358.858
-337.683
-313.775
-288.561
-262.436
-235.248
-206.99
-177.796
-147.616
-116.351
-83.3739
-49.3939
-10.6817
20.5707
90.5951
106.93
123.959
140.902
156.125
169.714
181.02
189.316
194.572
197.053
197.06
194.961
191.048
185.557
178.7
170.605
161.402
151.223
140.189
128.424
116.065
103.26
90.182
77.0976
64.4151
52.5802
41.9217
32.6098
24.7472
18.4346
13.7472
10.7091
9.31617
9.60619
11.6626
15.7858
22.3441
33.1218
46.9528
69.0921
51.2421
30.4983
7.67819
-15.8442
-41.2074
-67.668
-94.6018
-122.08
-149.686
-177.14
-204.294
-230.793
-256.319
-280.5
-302.905
-323.078
-340.582
-355
-366.006
-373.242
-376.561
-375.796
-370.699
-360.917
-346.239
-327.232
-305.27
-281.621
-256.766
-230.672
-203.368
-174.995
-145.536
-114.929
-82.6128
-49.2884
-11.6146
19.0714
85.3008
100.571
116.542
132.481
146.845
159.753
170.584
178.646
183.909
186.629
187.082
185.6
182.456
177.852
171.967
164.897
156.737
147.584
137.529
126.678
115.154
103.098
90.6783
78.1521
65.912
54.3846
43.8985
34.6514
26.7733
20.379
15.5584
12.3541
10.7782
10.8758
12.7393
16.6555
22.961
33.2463
46.1998
64.9589
48.2429
28.8229
7.48934
-14.4263
-38.0421
-62.6491
-87.6553
-113.166
-138.803
-164.327
-189.641
-214.446
-238.475
-261.418
-282.886
-302.455
-319.712
-334.228
-345.675
-353.648
-357.921
-358.295
-354.537
-346.361
-333.583
-316.607
-296.524
-274.439
-250.877
-225.905
-199.585
-172.069
-143.367
-113.453
-81.8344
-49.2086
-12.6105
17.4591
80.1611
94.4803
109.508
124.542
138.134
150.414
160.795
168.619
173.852
176.743
177.546
176.569
174.066
170.22
165.183
159.03
151.826
143.639
134.532
124.586
113.907
102.623
90.8911
78.9551
67.1932
56.0158
45.7477
36.6064
28.7465
22.298
17.3653
14.0092
12.2588
12.1665
13.8336
17.532
23.5662
33.3348
45.4227
60.9153
45.2194
26.9905
6.99479
-13.48
-35.5264
-58.4624
-81.7316
-105.456
-129.289
-153.033
-176.626
-199.815
-222.385
-244.069
-264.529
-283.379
-300.23
-314.664
-326.344
-334.851
-339.892
-341.245
-338.685
-331.972
-320.935
-305.848
-287.566
-267.03
-244.777
-220.951
-195.644
-169.016
-141.106
-111.921
-81.0375
-49.15
-13.6668
15.7465
75.2129
88.6773
102.852
117.067
129.954
141.654
151.61
159.193
164.367
167.374
168.451
167.885
165.918
162.717
158.418
153.079
146.743
139.453
131.249
122.185
112.348
101.847
90.8235
79.5039
68.2514
57.4629
47.4557
38.4607
30.6535
24.1793
19.157
15.665
13.7493
13.4705
14.9384
18.4095
24.1555
33.3875
44.6252
56.9984
42.2275
25.0773
6.29336
-12.8817
-33.5082
-54.9321
-76.6279
-98.7277
-120.912
-143.016
-165.006
-186.666
-207.824
-228.258
-247.672
-265.722
-282.047
-296.248
-307.981
-316.847
-322.489
-324.67
-323.171
-317.779
-308.33
-294.994
-278.426
-259.415
-238.477
-215.813
-191.545
-165.838
-138.754
-110.333
-80.2216
-49.1094
-14.7769
13.9398
70.4771
83.1681
96.5658
110.033
122.275
133.434
142.987
150.329
155.423
158.504
159.793
159.561
158.04
155.387
151.727
147.104
141.55
135.085
127.729
119.514
110.503
100.785
90.4812
79.7988
69.0842
58.719
49.0126
40.2034
32.4836
26.0135
20.9256
17.3151
15.2454
14.7848
16.0516
19.2861
24.7278
33.407
43.8115
53.2332
39.304
23.1364
5.45744
-12.5388
-31.8742
-51.9259
-72.1899
-92.8083
-113.487
-134.081
-154.579
-174.801
-194.61
-213.821
-232.18
-249.38
-265.094
-278.944
-290.587
-299.652
-305.745
-308.609
-308.032
-303.819
-295.808
-284.086
-269.14
-251.614
-231.989
-210.5
-187.292
-162.533
-136.309
-108.688
-79.3864
-49.0844
-15.9325
12.0453
65.9643
77.9519
90.638
103.418
115.064
125.718
134.887
141.991
146.987
150.107
151.559
151.598
150.448
148.261
145.151
141.159
136.302
130.59
124.023
116.614
108.403
99.4574
89.8762
79.8445
69.6895
59.778
50.4088
41.823
34.2254
27.7897
22.6614
18.9514
16.7398
16.1036
17.1682
20.1581
25.281
33.3952
42.9854
49.6337
36.4747
21.2101
4.5399
-12.3782
-30.5378
-49.3356
-68.2945
-87.5585
-106.855
-126.058
-145.176
-164.052
-182.581
-200.611
-217.922
-234.247
-249.287
-262.696
-274.135
-283.263
-289.67
-293.084
-293.296
-290.126
-283.408
-273.164
-259.741
-243.653
-225.33
-205.021
-182.889
-159.105
-133.772
-106.987
-78.5303
-49.0744
-17.1248
10.0741
61.6784
73.0212
85.0521
97.1971
108.29
118.471
127.273
134.141
139.029
142.162
143.737
143.994
143.155
141.363
138.727
135.285
131.048
126.016
120.176
113.524
106.079
97.8866
89.023
79.6483
70.0693
60.6367
51.637
43.3097
35.8683
29.4975
24.3547
20.5656
18.2259
17.4215
18.2838
21.0223
25.8133
33.3548
42.1519
46.2068
33.7576
19.3232
3.58315
-12.3487
-29.4286
-47.0785
-64.8408
-82.8653
-100.893
-118.815
-136.653
-154.274
-171.594
-188.491
-204.777
-220.219
-234.549
-247.451
-258.598
-267.673
-274.275
-278.116
-278.99
-276.727
-271.165
-262.267
-250.266
-235.559
-218.516
-199.387
-178.343
-155.557
-131.145
-105.227
-77.6525
-49.0773
-18.345
8.03816
57.6188
68.3673
79.792
91.3487
101.925
111.659
120.113
126.748
131.519
134.644
136.308
136.743
136.161
134.705
132.477
129.516
125.828
121.407
116.232
110.283
103.563
96.0972
87.9373
79.2198
70.2281
61.2942
52.6915
44.655
37.4022
31.1264
25.9958
22.1488
19.696
18.7323
19.3935
21.8749
26.3233
33.2882
41.3154
42.9561
31.1634
17.4967
2.61515
-12.4076
-28.4949
-45.088
-61.7527
-78.6375
-95.4983
-112.237
-128.889
-145.338
-161.521
-177.34
-192.634
-207.201
-220.803
-233.15
-243.938
-252.867
-259.562
-263.718
-265.133
-263.653
-259.113
-251.432
-240.751
-227.36
-211.568
-193.612
-173.662
-151.892
-128.428
-103.41
-76.7507
-49.0903
-19.5845
5.9505
53.7814
63.9801
74.8418
85.8505
95.9416
105.254
113.376
119.783
124.431
127.531
129.26
129.837
129.47
128.298
126.422
123.879
120.675
116.801
112.228
106.929
100.889
94.1162
86.6403
78.5729
70.1724
61.7514
53.5688
45.8515
38.8177
32.6666
27.5748
23.6921
21.1422
20.0293
20.492
22.7124
26.8094
33.1982
40.4803
39.881
28.698
15.7446
1.65919
-12.5239
-27.6938
-43.3129
-58.9656
-74.8
-90.5845
-106.233
-121.786
-137.145
-152.261
-167.058
-181.399
-195.108
-207.976
-219.739
-230.118
-238.825
-245.523
-249.895
-251.745
-250.929
-247.285
-240.698
-231.232
-219.087
-204.508
-187.709
-168.856
-148.117
-125.624
-101.536
-75.823
-49.1092
-20.8336
3.82543
50.1615
59.8484
70.1848
80.6808
90.3166
99.2306
107.034
113.22
117.74
120.802
122.574
123.265
123.077
122.147
120.573
118.394
115.617
112.229
108.201
103.495
98.0884
91.971
85.1535
77.7224
69.911
62.0117
54.267
46.8937
40.1069
34.1086
29.082
25.1862
22.5562
21.3055
21.5737
23.5309
27.2703
33.0875
39.6513
36.9794
26.3645
14.0751
0.731049
-12.6729
-26.9929
-41.71
-56.4281
-71.2904
-86.0812
-100.721
-115.257
-129.602
-143.72
-157.553
-170.982
-183.859
-195.998
-207.162
-217.095
-225.523
-232.148
-236.65
-238.835
-238.575
-235.709
-230.099
-221.745
-210.77
-197.361
-181.698
-163.937
-144.237
-122.737
-99.6059
-74.8673
-49.1293
-22.0824
1.67782
46.7513
55.9606
65.8049
75.8196
85.0266
93.5633
101.062
107.031
111.423
114.437
116.236
117.016
116.977
116.253
114.939
113.077
110.674
107.719
104.179
100.014
95.1915
89.6886
83.4984
76.6846
69.4554
62.081
54.7869
47.7777
41.2627
35.4437
30.508
26.6217
23.9297
22.5535
22.6327
24.3266
27.7048
32.9588
38.8329
34.2475
24.1629
12.4947
-0.15715
-12.8378
-26.3663
-40.2466
-54.0978
-68.0614
-81.9307
-95.6363
-109.228
-122.629
-135.815
-148.74
-161.305
-173.38
-184.804
-195.364
-204.827
-212.934
-219.424
-223.98
-226.415
-226.61
-224.412
-219.666
-212.324
-202.442
-190.15
-175.596
-158.917
-140.262
-119.77
-97.6195
-73.8809
-49.1452
-23.3216
-0.478236
43.5423
52.3057
61.688
71.249
80.0514
88.2299
95.437
101.195
105.456
108.416
110.227
111.078
111.164
110.615
109.526
107.938
105.864
103.291
100.189
96.5134
92.2268
87.2957
81.6987
75.4787
68.8188
61.9669
55.131
48.5015
42.2796
36.6643
31.8437
27.9896
25.254
23.7657
23.663
25.0954
28.1118
32.8146
38.0291
31.6798
22.0923
11.0062
-0.997489
-13.0027
-25.7941
-38.8953
-51.9414
-65.0699
-78.0862
-90.9252
-103.641
-116.163
-128.477
-140.55
-152.296
-163.605
-174.332
-184.291
-193.271
-201.028
-207.332
-211.878
-214.487
-215.046
-213.416
-209.431
-203.002
-194.135
-182.904
-169.424
-153.811
-136.2
-116.729
-95.5783
-72.8617
-49.1506
-24.5405
-2.62723
40.5268
48.8711
57.8191
66.9524
75.3718
83.2091
90.1361
95.6888
99.8211
102.721
104.534
105.44
105.629
105.229
104.334
102.986
101.199
98.965
96.2519
93.0179
89.22
84.8178
79.7776
74.1237
68.0157
61.6789
55.3033
49.065
43.1538
37.7632
33.081
29.281
26.5204
24.9343
24.6585
25.8334
28.4902
32.6573
37.2439
29.2702
20.1504
9.61121
-1.78457
-13.1574
-25.2602
-37.6339
-49.93
-62.2824
-74.5055
-86.5394
-98.4393
-110.144
-121.646
-132.919
-143.892
-154.47
-164.527
-173.895
-182.386
-189.774
-195.851
-200.335
-203.051
-203.895
-202.742
-199.419
-193.811
-185.877
-175.649
-163.203
-148.635
-132.063
-113.618
-93.484
-71.8062
-49.1391
-25.7287
-4.75424
37.696
45.6464
54.1842
62.9126
70.9687
78.481
85.1401
90.4948
94.4987
97.3342
99.1399
100.088
100.364
100.091
99.363
98.2241
96.6898
94.7536
92.387
89.549
86.1947
82.278
77.7566
72.6389
67.0614
61.2281
55.3105
49.4694
43.8826
38.7357
34.2124
30.4873
27.7206
26.0515
25.6129
26.5365
28.839
32.4892
36.4809
27.0127
18.3336
8.30928
-2.51497
-13.2947
-24.7524
-36.4459
-48.0419
-59.6708
-71.1551
-82.4406
-93.5817
-104.525
-115.268
-125.792
-136.037
-145.921
-155.334
-164.128
-172.131
-179.138
-184.96
-189.34
-192.106
-193.165
-192.405
-189.655
-184.777
-177.698
-168.41
-156.956
-143.406
-127.861
-110.445
-91.3374
-70.713
-49.1028
-26.8756
-6.84402
35.0415
42.6201
50.77
59.1141
66.8257
74.0285
80.4299
85.5933
89.4707
92.2394
94.0311
95.0109
95.3583
95.1951
94.6115
93.6542
92.3409
90.6675
88.6086
86.1249
83.1713
79.6982
75.6571
71.0429
65.9719
60.6264
55.1601
49.7182
44.4652
39.5769
35.2313
31.6008
28.8464
27.1097
26.5198
27.2008
29.1571
32.3119
35.7429
24.9011
16.6373
7.0995
-3.18649
-13.4088
-24.2608
-35.3171
-46.2584
-57.2114
-68.0063
-78.5947
-89.0293
-99.2631
-109.297
-119.121
-128.681
-137.909
-146.708
-154.945
-162.468
-169.09
-174.634
-178.876
-181.644
-182.858
-182.419
-180.16
-175.929
-169.628
-161.216
-150.706
-138.143
-123.609
-107.217
-89.1425
-69.5784
-49.0351
-27.9723
-8.88135
32.5543
39.7817
47.5642
55.5441
62.9273
69.8352
75.9892
80.9671
84.7205
87.4207
89.1933
90.1959
90.6027
90.533
90.0751
89.2764
88.1569
86.7152
84.9287
82.7609
80.1676
77.0982
73.4992
69.3555
64.764
59.887
54.8609
49.8161
44.9025
40.2845
36.1323
32.6145
29.8901
28.1016
27.3734
27.8223
29.4437
32.1269
35.0324
22.9284
15.0578
5.97909
-3.79802
-13.496
-23.7782
-34.236
-44.5647
-54.8851
-65.0367
-74.9743
-84.7509
-94.3226
-103.696
-112.863
-121.78
-130.388
-138.603
-146.305
-153.359
-159.596
-164.85
-168.927
-171.658
-172.975
-172.793
-170.95
-167.29
-161.692
-154.092
-144.475
-132.862
-119.318
-103.941
-86.9005
-68.4009
-48.9294
-29.0079
-10.8524
30.2259
37.1208
44.5552
52.1883
59.2589
65.8855
71.8019
76.6006
80.2325
82.8635
84.613
85.6313
86.0879
86.0982
85.7493
85.0891
84.1395
82.9016
81.3562
79.4694
77.1992
74.4955
71.3017
67.5942
63.4537
59.0233
54.4234
49.7692
45.1964
40.8568
36.9115
33.522
30.8445
29.0201
28.1677
28.3972
29.6976
31.9355
34.3512
21.088
13.5898
4.94585
-4.3501
-13.5536
-23.2995
-33.1943
-42.9477
-52.6757
-62.2256
-71.5547
-80.7171
-89.6718
-98.4275
-106.981
-115.296
-123.32
-130.98
-138.171
-144.77
-150.625
-155.583
-159.474
-162.139
-163.515
-163.533
-162.042
-158.879
-153.914
-147.063
-138.287
-127.585
-115.003
-100.628
-84.6153
-67.1779
-48.7764
-29.9739
-12.7439
28.0484
34.6278
41.7314
49.0344
55.807
62.1646
67.8532
72.4785
75.992
78.5536
80.2769
81.3052
81.8029
81.8824
81.6278
81.0888
80.2882
79.2297
77.8974
76.2604
74.2793
71.9052
69.0805
65.7757
62.0565
58.0488
53.8581
49.585
45.3508
41.2943
37.5656
34.3186
31.7036
29.8588
28.8971
28.9218
29.9177
31.7381
33.7003
19.3735
12.2281
3.99671
-4.84385
-13.5803
-22.8197
-32.1844
-41.397
-50.5691
-59.5552
-68.3159
-76.9039
-85.2822
-93.4615
-101.442
-109.191
-116.667
-123.802
-130.506
-136.667
-142.149
-146.81
-150.501
-153.073
-154.473
-154.643
-153.444
-150.715
-146.317
-140.152
-132.163
-122.33
-110.68
-97.2854
-82.2909
-65.9076
-48.5709
-30.8605
-14.5433
26.0136
32.2932
39.0825
46.071
52.5589
58.6592
64.1292
68.5871
71.9854
74.4777
76.1726
77.2063
77.7376
77.8768
77.7048
77.2717
76.6021
75.7013
74.5569
73.1415
71.4182
69.3403
66.8507
63.9156
60.5878
56.9776
53.1765
49.2716
45.3704
41.5983
38.0935
35.0002
32.4618
30.6116
29.5565
29.3926
30.1027
31.535
33.08
17.7782
10.9681
3.12803
-5.28058
-13.5753
-22.3365
-31.2013
-39.9049
-48.5548
-57.0124
-65.2407
-73.2916
-81.1314
-88.7717
-96.2157
-103.436
-110.396
-117.038
-123.279
-129.02
-134.139
-138.504
-141.987
-144.448
-145.842
-146.124
-145.167
-142.812
-138.92
-133.381
-126.124
-117.115
-106.362
-93.924
-79.9309
-64.5893
-48.306
-31.6604
-16.2398
24.1138
30.1086
36.5982
43.2869
49.5028
55.3569
60.6165
64.9136
68.1998
70.6237
72.288
73.3233
73.8826
74.0728
73.9729
73.6326
73.0782
72.3163
71.3376
70.1183
68.6246
66.8121
64.6254
62.0279
59.0619
55.823
52.3901
48.8383
45.2615
41.7716
38.4945
35.5641
33.1148
31.2738
30.1413
29.8063
30.2515
31.326
32.4901
16.296
9.80436
2.33635
-5.66237
-13.539
-21.8477
-30.2406
-38.4651
-46.6239
-54.5851
-62.3146
-69.8626
-77.1987
-84.3351
-91.2777
-98.003
-104.479
-110.655
-116.458
-121.799
-126.568
-130.643
-133.914
-136.25
-137.615
-137.975
-137.214
-135.182
-131.738
-126.769
-120.192
-111.959
-102.064
-90.5534
-77.5402
-63.2224
-47.9759
-32.3662
-17.8238
22.3416
28.0655
34.2695
40.6713
46.6276
52.2457
57.3034
61.4453
64.6227
66.9792
68.6121
69.6459
70.2281
70.4621
70.4249
70.1664
69.7127
69.0733
68.2408
67.1948
65.9049
64.3296
62.416
60.1257
57.4919
54.5977
51.5107
48.2946
45.0307
41.8181
38.7702
36.009
33.6595
31.8411
30.6476
30.1601
30.3627
31.1104
31.9294
14.9204
8.73195
1.6179
-5.99143
-13.4717
-21.352
-29.2987
-37.071
-44.7676
-52.2622
-59.5242
-66.6013
-73.4661
-80.1319
-86.6054
-92.8673
-98.89
-104.629
-110.018
-114.979
-119.411
-123.204
-126.262
-128.465
-129.783
-130.192
-129.59
-127.834
-124.786
-120.332
-114.382
-106.878
-97.8016
-87.1839
-75.1243
-61.8063
-47.5761
-32.9715
-19.2862
20.6899
26.1556
32.0871
38.215
43.9226
49.3148
54.1787
58.1706
61.2429
63.5331
65.1338
66.1631
66.7638
67.0359
67.0536
66.8666
66.5019
65.9697
65.2662
64.3734
63.2642
61.9004
60.2318
58.2198
55.89
53.3139
50.5496
47.6503
44.686
41.7432
38.9226
36.3347
34.0939
32.3106
31.0719
30.4512
30.4347
30.8872
31.3961
13.6457
7.7459
0.96886
-6.27021
-13.3743
-20.8489
-28.3734
-35.719
-42.9794
-50.0355
-56.8583
-63.494
-69.9175
-76.1431
-82.1785
-88.007
-93.6052
-98.9338
-103.934
-108.534
-112.645
-116.166
-119.011
-121.076
-122.334
-122.771
-122.295
-120.773
-118.076
-114.086
-108.713
-101.89
-93.5875
-83.8261
-72.6886
-60.3429
-47.1022
-33.4709
-20.6203
19.1519
24.3713
30.0426
35.9087
41.3783
46.5538
51.2312
55.0788
58.0491
60.2743
61.8422
62.8652
63.4805
63.7853
63.8511
63.7269
63.4402
63.0029
62.4127
61.655
60.7057
59.5298
58.0805
56.3198
54.2668
51.9831
49.5178
46.9155
44.2356
41.5526
38.9554
36.5425
34.4171
32.6801
31.4119
30.6776
30.4664
30.6549
30.888
12.466
6.84129
0.385398
-6.50139
-13.2484
-20.3381
-27.4631
-34.4053
-41.2549
-47.8979
-54.3081
-60.53
-66.5405
-72.354
-77.9794
-83.4028
-88.6035
-93.5472
-98.1811
-102.441
-106.247
-109.507
-112.146
-114.069
-115.258
-115.703
-115.327
-114.006
-111.615
-108.043
-103.198
-97.0077
-89.4356
-80.4902
-70.2392
-58.8331
-46.5524
-33.8609
-21.8203
17.7209
22.7054
28.128
33.7434
38.9851
43.9528
48.451
52.1597
55.0311
57.1926
58.7276
59.7422
60.3693
60.7023
60.8101
60.7409
60.5229
60.1689
59.6784
59.0397
58.2315
57.2225
55.969
54.4342
52.6323
50.6157
48.4259
46.1001
43.6879
41.2533
38.8733
36.6347
34.6296
32.9488
31.6657
30.8374
30.4562
30.4119
30.402
11.3757
6.01346
-0.136349
-6.68767
-13.0953
-19.8198
-26.5661
-33.127
-39.589
-45.8429
-51.8653
-57.6988
-63.3221
-68.7503
-73.9926
-79.0371
-83.8661
-88.4494
-92.7399
-96.68
-100.197
-103.208
-105.646
-107.429
-108.541
-108.982
-108.683
-107.531
-105.41
-102.213
-97.8494
-92.2456
-85.3582
-77.1859
-67.7827
-57.2795
-45.9254
-34.1385
-22.8824
16.3907
21.1509
26.3356
31.7112
36.7345
41.5027
45.8285
49.403
52.1791
54.2784
55.7804
56.7854
57.4213
57.7781
57.9226
57.9019
57.7443
57.4633
57.0605
56.5265
55.8428
54.9814
53.9022
52.5701
50.9946
49.221
47.284
45.2138
43.052
40.8526
38.6817
36.6148
34.733
33.1169
31.8325
30.9296
30.403
30.156
29.9349
10.3695
5.25777
-0.600135
-6.83194
-12.9169
-19.2946
-25.682
-31.8823
-37.9779
-43.8654
-49.5228
-54.9918
-60.2522
-65.3195
-70.2036
-74.8942
-79.376
-83.6223
-87.5909
-91.2306
-94.475
-97.2502
-99.4945
-101.14
-102.173
-102.599
-102.358
-101.349
-99.4642
-96.6034
-92.6781
-87.6148
-81.3662
-73.923
-65.3253
-55.6854
-45.2203
-34.3023
-23.8039
15.1555
19.7012
24.6584
29.8042
34.6182
39.1947
43.3547
46.8
49.4836
51.5222
52.9912
53.9854
54.6277
55.0051
55.1813
55.2031
55.0984
54.8816
54.5558
54.1137
53.5396
52.8086
51.8841
50.733
49.3614
47.8077
46.101
44.266
42.3367
40.3583
38.3869
36.4875
34.7302
33.1857
31.9125
30.9535
30.3055
29.8853
29.483
9.44234
4.56981
-1.00961
-6.93676
-12.7149
-18.7631
-24.8102
-30.669
-36.4184
-41.9604
-47.2747
-52.4013
-57.3217
-62.0512
-66.6003
-70.9601
-75.1176
-79.0491
-82.7169
-86.0746
-89.0632
-91.6152
-93.6757
-95.1866
-96.1387
-96.5419
-96.3454
-95.4575
-93.7797
-91.2192
-87.6915
-83.125
-77.4699
-70.71
-62.8739
-54.0549
-44.4388
-34.352
-24.5837
14.0093
18.3502
23.0894
28.015
32.6282
37.0208
41.0211
44.3418
46.9358
48.9153
50.3513
51.3335
51.9802
52.3748
52.5787
52.6377
52.5794
52.4189
52.1605
51.799
51.3213
50.705
49.9175
48.9277
47.7388
46.3834
44.8857
43.2656
41.5508
39.7786
37.9961
36.2581
34.625
33.1574
31.9066
30.9089
30.1628
29.5975
29.0424
8.58928
3.94507
-1.36832
-7.00501
-12.4914
-18.2261
-23.9504
-29.4859
-34.9084
-40.1245
-45.1158
-49.9206
-54.522
-58.9357
-63.1715
-67.2223
-71.0772
-74.7149
-78.1017
-81.1958
-83.9443
-86.2864
-88.1729
-89.5549
-90.4266
-90.8019
-90.6378
-89.8524
-88.356
-86.0636
-82.8958
-78.7844
-73.6781
-67.5557
-60.4353
-52.3923
-43.5832
-34.2893
-25.2227
12.9468
17.0917
21.6222
26.3366
30.7573
34.9731
38.8197
42.02
44.5276
46.4493
47.8524
48.8218
49.4708
49.8798
50.1077
50.199
50.1813
50.07
49.8707
49.5797
49.1863
48.671
48.0046
47.158
46.1322
44.9548
43.6458
42.2211
40.7029
39.1217
37.5164
35.933
34.4221
33.0354
31.8168
30.7966
29.9744
29.2903
28.6093
7.8056
3.37963
-1.67984
-7.03947
-12.2479
-17.6849
-23.1027
-28.332
-33.4452
-38.3539
-43.0409
-47.5435
-51.8461
-55.9638
-59.907
-63.6694
-67.242
-70.6057
-73.7304
-76.5787
-79.1026
-81.2481
-82.9709
-84.2301
-85.0233
-85.3673
-85.2265
-84.528
-83.1909
-81.1377
-78.2952
-74.5987
-69.9979
-64.4675
-58.0162
-50.7031
-42.6571
-34.1166
-25.7224
11.9628
15.9203
20.2508
24.7628
28.9985
33.0444
36.743
39.8271
42.2508
44.1161
45.4865
46.4423
47.0919
47.5127
47.761
47.8805
47.8983
47.8299
47.6821
47.4528
47.1331
46.7064
46.1465
45.4266
44.546
43.5277
42.3885
41.1404
39.8014
38.396
36.9559
35.5189
34.1272
32.8238
31.6456
30.6177
29.7397
28.9618
28.1796
7.08684
2.86943
-1.94746
-7.04281
-11.9868
-17.1404
-22.2672
-27.2066
-32.0272
-36.6459
-41.0467
-45.2653
-49.2873
-53.128
-56.7975
-60.2908
-63.6002
-66.7088
-69.5895
-72.2088
-74.5236
-76.4852
-78.0548
-79.1979
-79.9156
-80.2269
-80.1025
-79.4776
-78.2805
-76.4406
-73.8916
-70.5727
-66.4354
-61.4519
-55.623
-48.9928
-41.6649
-33.8378
-26.086
11.0525
14.8304
18.9694
23.287
27.3452
31.2276
34.7836
37.7557
40.0981
41.9082
43.2462
44.1875
44.8361
45.2663
45.5322
45.6759
45.7244
45.6935
45.5905
45.4148
45.1595
44.8102
44.3437
43.7358
42.984
42.1074
41.1199
40.0308
38.8543
37.6096
36.3223
35.0232
33.7465
32.5275
31.3967
30.374
29.459
28.6101
27.7495
6.42868
2.41072
-2.17443
-7.01762
-11.7096
-16.5939
-21.4443
-26.1089
-30.6531
-34.9979
-39.1291
-43.0807
-46.8398
-50.421
-53.835
-57.0774
-60.1414
-63.0124
-65.6664
-68.0727
-70.193
-71.9835
-73.4103
-74.4447
-75.0906
-75.3688
-75.2556
-74.6936
-73.6195
-71.97
-69.6852
-66.7091
-62.9955
-58.5149
-53.2619
-47.2676
-40.6122
-33.4578
-26.3182
10.211
13.817
17.7723
21.9036
25.7911
29.5163
32.9349
35.7986
38.0621
39.8184
41.1241
42.0503
42.6965
43.1339
43.4145
43.579
43.6541
43.6556
43.5914
43.4622
43.2628
42.981
42.5965
42.0869
41.4489
40.6981
39.8457
38.8991
37.869
36.7705
35.6238
34.4534
33.2867
32.152
31.0739
30.0678
29.1326
28.2336
27.3154
5.82713
1.99978
-2.36378
-6.96646
-11.4182
-16.0465
-20.6345
-25.0387
-29.3212
-33.4076
-37.2847
-40.9856
-44.498
-47.8366
-51.0118
-54.02
-56.8559
-59.5062
-61.9493
-64.1581
-66.0977
-67.7297
-69.0238
-69.9571
-70.5353
-70.781
-70.6752
-70.1675
-69.2017
-67.7222
-65.6749
-63.0092
-59.6812
-55.6613
-50.939
-45.5336
-39.5051
-32.9828
-26.4244
9.43384
12.8754
16.6545
20.6069
24.3305
27.9043
31.1904
33.9492
36.1362
37.8399
39.1135
40.0238
40.6663
41.1089
41.4016
41.5839
41.6818
41.7112
41.6805
41.5917
41.4407
41.2175
40.9043
40.481
39.9433
39.3036
38.5712
37.7516
36.8528
35.8865
34.8682
33.8172
32.7549
31.7034
30.6821
29.7021
28.7615
27.831
26.874
5.27828
1.63327
-2.5186
-6.89165
-11.1148
-15.4992
-19.8381
-23.9954
-28.0305
-31.873
-35.511
-38.976
-42.2573
-45.3688
-48.321
-51.1109
-53.7344
-56.1797
-58.4274
-60.453
-62.2256
-63.7109
-64.8824
-65.7221
-66.2373
-66.4517
-66.3506
-65.8899
-65.0201
-63.6922
-61.8584
-59.473
-56.495
-52.8953
-48.6595
-43.797
-38.3504
-32.4196
-26.4111
8.71696
12.0009
15.6111
19.3915
22.9576
26.3857
29.5438
32.2014
34.3141
35.9661
37.2077
38.1016
38.739
39.1852
39.4876
39.6848
39.8022
39.8554
39.8536
39.7994
39.6902
39.5177
39.2667
38.9188
38.4689
37.9271
37.3007
36.5939
35.8124
34.9649
34.0634
33.1224
32.1584
31.1882
30.2263
29.2802
28.347
27.4014
26.4226
4.77847
1.30786
-2.6417
-6.79555
-10.8009
-14.9533
-19.0555
-22.9789
-26.78
-30.3922
-33.805
-37.0484
-40.1129
-43.0121
-45.7562
-48.3429
-50.7689
-53.0238
-55.0903
-56.9466
-58.565
-59.915
-60.9736
-61.7269
-62.1839
-62.3691
-62.2709
-61.8512
-61.0666
-59.874
-58.2319
-56.0989
-53.4378
-50.22
-46.4284
-42.0644
-37.1554
-31.7757
-26.2854
8.05626
11.1891
14.6373
18.2527
21.6673
24.9551
27.9897
30.5492
32.5895
34.1911
35.4008
36.2777
36.9088