/*--------------------------------*- C++ -*----------------------------------*\
| =========                 |                                                 |
| \\      /  F ield         | OpenFOAM: The Open Source CFD Toolbox           |
|  \\    /   O peration     | Version:  2306                                  |
|   \\  /    A nd           | Website:  www.openfoam.com                      |
|    \\/     M anipulation  |                                                 |
\*---------------------------------------------------------------------------*/
FoamFile
{
    version     2.0;
    format      ascii;
    arch        "LSB;label=32;scalar=64";
    class       surfaceScalarField;
    location    "375";
    object      phi;
}
// * * * * * * * * * * * * * * * * * * * * * * * * * * * * * * * * * * * * * //

dimensions      [0 3 -1 0 0 0 0];

oriented        oriented;

internalField   nonuniform List<scalar> 
2558
(
-0.233804
0.253401
-0.0195976
0.275399
-0.0219979
0.294336
-0.018937
0.31125
-0.0169132
0.327224
-0.0159749
0.339952
-0.0127279
0.349936
-0.00998345
0.357925
-0.00798957
0.362954
-0.00502815
0.366016
-0.00306294
0.367164
-0.00114797
0.365846
0.00131811
0.362194
0.0036522
0.356028
0.00616652
0.346947
0.00908053
0.334841
0.012106
0.31893
0.0159113
0.298527
0.0204031
0.272467
0.0260599
0.239999
0.0324674
0.200634
0.0393653
0.157714
0.0429199
0.119263
0.0384516
0.095103
0.0241595
0.0901199
0.00498305
0.0996339
-0.00951406
0.113601
-0.0139673
0.126083
-0.0124814
0.135134
-0.00905149
0.140753
-0.00561945
0.143506
-0.00275289
0.14354
-3.42577e-05
0.14072
0.00281975
0.135156
0.00556475
0.00858234
-0.21072
-0.0230842
-0.186781
-0.0239385
-0.157392
-0.0293889
-0.125186
-0.0322063
-0.0912743
-0.0339115
-0.056332
-0.0349423
-0.213182
0.234689
-0.0411052
0.256713
-0.0440221
0.279738
-0.0419613
0.30125
-0.0384252
0.322291
-0.0370166
0.341875
-0.0323115
0.359601
-0.0277092
0.375753
-0.0241417
0.389962
-0.0192373
0.402307
-0.0154083
0.413026
-0.0118662
0.422565
-0.00822109
0.431265
-0.00504806
0.439177
-0.00174526
0.446091
0.00216596
0.45157
0.00662709
0.455279
0.0122025
0.456856
0.0188259
0.45495
0.0279663
0.448381
0.0390362
0.43468
0.0530662
0.41224
0.0653598
0.380894
0.0697979
0.345641
0.0594128
0.312986
0.0376382
0.284829
0.0186429
0.260928
0.00993289
0.241397
0.00704982
0.226474
0.00587194
0.215532
0.00532265
0.206714
0.00606462
0.198431
0.00824832
0.18974
0.0115113
0.179886
0.0154185
0.0203449
-0.191222
-0.0450441
-0.167722
-0.0474382
-0.140209
-0.0569024
-0.111103
-0.0613117
-0.0801878
-0.0648269
-0.0672711
-0.206944
0.228642
-0.0628026
0.250489
-0.0658698
0.274078
-0.0655496
0.29564
-0.0599875
0.316134
-0.0575104
0.33573
-0.0519076
0.353129
-0.0451087
0.368723
-0.0397361
0.382064
-0.0325779
0.393415
-0.0267593
0.402738
-0.0211894
0.410165
-0.0156479
0.415548
-0.0104304
0.419365
-0.00556312
0.42162
-8.85553e-05
0.42334
0.00490661
0.424625
0.0109175
0.426408
0.0170431
0.429122
0.0252521
0.433451
0.0347072
0.439373
0.0471449
0.444876
0.059856
0.446119
0.0685552
0.44019
0.0653415
0.428135
0.0496941
0.412461
0.0343168
0.394209
0.0281845
0.372844
0.0284147
0.348216
0.0305001
0.321624
0.0319145
0.295506
0.0321823
0.271923
0.0318316
0.251245
0.0321888
0.232246
0.0344179
0.0393765
-0.185106
-0.0668824
-0.161176
-0.0713682
-0.132553
-0.0855252
-0.102789
-0.0910759
-0.0716856
-0.0959302
-0.199342
0.222025
-0.0854857
0.24479
-0.0886351
0.269824
-0.0905835
0.292679
-0.0828423
0.31484
-0.0796714
0.336093
-0.0731605
0.355617
-0.0646328
0.373236
-0.0573558
0.389164
-0.0485057
0.40318
-0.0407752
0.415396
-0.033405
0.425825
-0.026077
0.434532
-0.0191377
0.441592
-0.0126228
0.447305
-0.00580144
0.451125
0.00108629
0.453159
0.00888399
0.45318
0.0170218
0.45174
0.0266924
0.449324
0.0371225
0.447192
0.0492775
0.44661
0.0604377
0.447059
0.0681064
0.446275
0.0661255
0.442351
0.0536174
0.435858
0.0408098
0.42816
0.0358829
0.419563
0.037011
0.40901
0.0410539
0.394776
0.0461475
0.375404
0.0515548
0.35074
0.0564952
0.322714
0.0602151
0.294022
0.0631094
0.067441
-0.176946
-0.0892777
-0.152941
-0.0953733
-0.12382
-0.114646
-0.0939252
-0.120971
-0.127097
-0.195503
0.219008
-0.10899
0.242643
-0.11227
0.269069
-0.117009
0.292663
-0.106437
0.315801
-0.10281
0.338093
-0.0954516
0.35843
-0.08497
0.376917
-0.0758433
0.393844
-0.0654328
0.408556
-0.0554873
0.421433
-0.0462818
0.432406
-0.0370499
0.441752
-0.0284838
0.449152
-0.020022
0.454749
-0.0113984
0.458609
-0.00277392
0.461007
0.00648569
0.462069
0.0159602
0.461661
0.0270995
0.460213
0.0385709
0.457832
0.0516588
0.454936
0.0633335
0.451601
0.0714411
0.447147
0.0705798
0.440919
0.0598456
0.433362
0.0483667
0.425655
0.0435894
0.418534
0.0441325
0.412036
0.0475518
0.405825
0.0523587
0.398798
0.0585811
0.388873
0.0664209
0.373367
0.075721
0.350578
0.0858984
0.0967324
-0.172058
-0.112724
-0.147325
-0.120106
-0.116939
-0.145031
-0.0861918
-0.151719
-0.192329
0.216849
-0.13351
0.241808
-0.137229
0.269612
-0.144814
0.294414
-0.131238
0.318575
-0.126972
0.342238
-0.119114
0.363553
-0.106285
0.383335
-0.0956256
0.401277
-0.0833742
0.417262
-0.0714722
0.431518
-0.0605387
0.443863
-0.0493947
0.454526
-0.0391468
0.463502
-0.028998
0.470662
-0.0185585
0.476368
-0.00847999
0.480223
0.00263121
0.482347
0.0138361
0.482934
0.0265129
0.481962
0.0395429
0.479668
0.0539528
0.476305
0.0666964
0.471604
0.0761421
0.465105
0.0770787
0.456626
0.0683249
0.446789
0.0582031
0.436624
0.0537549
0.426767
0.0539896
0.417408
0.0569107
0.408715
0.0610512
0.400937
0.0663596
0.394
0.0733569
0.387021
0.0827004
0.377333
0.0955863
0.113419
-0.167919
-0.137134
-0.142373
-0.145652
-0.110682
-0.176722
-0.183607
-0.190478
0.216327
-0.159359
0.242326
-0.163228
0.271696
-0.174184
0.297767
-0.15731
0.323177
-0.152382
0.347909
-0.143845
0.370382
-0.128758
0.391
-0.116244
0.40997
-0.102344
0.426868
-0.0883702
0.441924
-0.0755953
0.455278
-0.0627481
0.4668
-0.0506691
0.476563
-0.0387613
0.484641
-0.0266364
0.490863
-0.0147023
0.49542
-0.00192565
0.498304
0.0109521
0.499655
0.0251621
0.499567
0.0396315
0.498246
0.0552734
0.495751
0.0691911
0.491955
0.0799385
0.486113
0.0829205
0.478016
0.076422
0.468148
0.0680711
0.457452
0.0644504
0.446518
0.0649237
0.435482
0.0679471
0.424344
0.0721887
0.413304
0.0774003
0.402709
0.0839508
0.393065
0.0923452
0.38459
0.104061
0.122083
-0.164857
-0.162755
-0.1382
-0.172308
-0.105052
-0.209871
-0.216811
-0.189316
0.2165
-0.186542
0.243931
-0.190658
0.274983
-0.205236
0.302255
-0.184582
0.328954
-0.179081
0.354935
-0.169827
0.378426
-0.152248
0.400253
-0.138072
0.420039
-0.12213
0.437874
-0.106205
0.453987
-0.0917079
0.468218
-0.0769788
0.480647
-0.0630982
0.491402
-0.0495171
0.500431
-0.0356649
0.507711
-0.0219819
0.513304
-0.00751869
0.517202
0.00705355
0.519381
0.0229837
0.519966
0.0390462
0.519181
0.0560584
0.517052
0.0713198
0.513503
0.0834873
0.508141
0.0882823
0.500599
0.083964
0.491222
0.0774485
0.48083
0.0748426
0.469951
0.0758026
0.45866
0.0792378
0.446939
0.0839099
0.4347
0.0896393
0.422021
0.0966292
0.409063
0.105303
0.396428
0.116697
0.133473
-0.162463
-0.189609
-0.134646
-0.200125
-0.0997826
-0.244735
-0.188987
0.217541
0.24642
0.279172
0.307835
0.336002
-0.207247
0.36334
-0.197165
0.388049
-0.176958
0.410763
-0.160785
0.431661
-0.143028
0.45033
-0.124875
0.467152
-0.10853
0.482201
-0.0920273
0.495494
-0.0763917
0.507052
-0.0610748
0.516889
-0.0455013
0.525049
-0.0301426
0.531423
-0.0138925
0.536027
0.00244916
0.538927
0.0200842
0.540186
0.0377868
0.539989
0.0562558
0.538378
0.0729304
0.535252
0.0866135
0.530316
0.0932187
0.52329
0.0909897
0.514394
0.0863447
0.504314
0.0849222
0.493638
0.086479
0.482497
0.0903788
0.470807
0.0955998
0.458505
0.101942
0.445489
0.109645
0.431607
0.119184
0.416797
0.131508
0.148826
-0.160644
-0.131471
0.34391
0.372722
0.398605
-0.20284
0.42246
-0.18464
0.444346
-0.164914
0.463897
-0.144426
0.48158
-0.126213
0.497511
-0.107958
0.511522
-0.090402
0.523811
-0.0733638
0.534527
-0.0562173
0.543412
-0.0390277
0.550593
-0.021074
0.55597
-0.00292803
0.559684
0.0163701
0.561704
0.0357669
0.562021
0.0559395
0.560883
0.0740679
0.558123
0.0893733
0.55355
0.0977925
0.546897
0.0976421
0.538297
0.0949451
0.528439
0.0947796
0.51786
0.097058
0.506671
0.101568
0.494941
0.107329
0.48259
0.114293
0.469524
0.122711
0.455582
0.133126
0.440476
0.146614
0.165438
0.410325
0.435411
0.458337
-0.187839
0.478834
-0.164923
0.497314
-0.144692
0.513887
-0.124532
0.528704
-0.105218
0.541845
-0.0865048
0.553159
-0.0675323
0.562828
-0.0486966
0.570736
-0.0289814
0.576898
-0.00909048
0.581251
0.0120175
0.583891
0.0331272
0.584834
0.0549963
0.584127
0.0747751
0.58178
0.09172
0.577613
0.10196
0.571388
0.103867
0.56321
0.103123
0.55357
0.10442
0.542999
0.107629
0.531768
0.112799
0.519823
0.119274
0.507226
0.126891
0.493934
0.136002
0.479814
0.147246
0.464628
0.1618
0.182084
0.473497
0.494903
-0.18633
0.514287
-0.164076
0.531731
-0.141977
0.547173
-0.12066
0.560946
-0.100277
0.573043
-0.0796294
0.583408
-0.0590616
0.591981
-0.0375541
0.59878
-0.0158898
0.603801
0.00699632
0.607089
0.0298391
0.608623
0.053463
0.608442
0.0749561
0.606518
0.0936434
0.602742
0.105736
0.596918
0.10969
0.589121
0.110921
0.579735
0.113805
0.569284
0.118079
0.557965
0.124119
0.545852
0.131387
0.532956
0.139787
0.519274
0.149685
0.504765
0.161754
0.489204
0.17736
0.198915
0.512233
0.532459
-0.184302
0.55065
-0.160167
0.566919
-0.13693
0.581405
-0.114764
0.594127
-0.0923511
0.605095
-0.0700289
0.614342
-0.0468012
0.621827
-0.0233755
0.627482
0.00134127
0.631294
0.0260274
0.633372
0.0513852
0.633647
0.0746806
0.632147
0.0951436
0.628823
0.109061
0.623498
0.115015
0.616094
0.118325
0.607018
0.122882
0.596682
0.128416
0.585342
0.135459
0.57309
0.143638
0.559943
0.152934
0.545889
0.163739
0.530883
0.17676
0.514777
0.193467
0.2163
0.551956
-0.205501
0.57094
-0.179151
0.587929
-0.153918
0.603099
-0.129934
0.616372
-0.105624
0.628027
-0.0816836
0.637896
-0.0566706
0.64597
-0.0314492
0.65225
-0.00493884
0.656682
0.0215953
0.659263
0.0488041
0.660037
0.0739071
0.658983
0.0961973
0.656071
0.111973
0.65116
0.119925
0.644164
0.125321
0.635421
0.131624
0.625272
0.138565
0.613953
0.146778
0.601588
0.156002
0.5882
0.166322
0.573815
0.178123
0.558343
0.192232
0.541706
0.210103
0.234357
0.572771
0.592613
-0.198992
0.610243
-0.171548
0.626097
-0.145788
0.64013
-0.119657
0.652356
-0.0939094
0.662827
-0.0671415
0.671462
-0.0400842
0.678208
-0.0116851
0.683163
0.0166408
0.686282
0.0456843
0.687473
0.0727165
0.68686
0.0968107
0.684385
0.114448
0.679932
0.124378
0.673408
0.131845
0.664967
0.140065
0.65502
0.148513
0.643793
0.158004
0.631353
0.168443
0.617778
0.179897
0.603068
0.192833
0.587216
0.208084
0.570054
0.227266
0.253068
0.615564
0.634074
-0.190058
0.650567
-0.162281
0.665193
-0.134284
0.678005
-0.106721
0.689023
-0.07816
0.698203
-0.0492637
0.705575
-0.0190568
0.711003
0.0112121
0.714547
0.0421409
0.716229
0.0710342
0.716009
0.0970304
0.713952
0.116506
0.70992
0.12841
0.70382
0.137945
0.695768
0.148118
0.686053
0.158227
0.674904
0.169154
0.662423
0.180923
0.648695
0.193625
0.633724
0.207804
0.617461
0.224348
0.59981
0.244916
0.272342
0.659266
-0.20934
0.676495
-0.179509
0.691724
-0.149513
0.705136
-0.120133
0.71669
-0.0897131
0.72642
-0.0589938
0.734233
-0.0268699
0.740176
0.00526855
0.744158
0.0381593
0.746223
0.0689694
0.746441
0.0968125
0.744784
0.118162
0.741212
0.131982
0.735523
0.143633
0.727833
0.155808
0.718377
0.167683
0.707339
0.180192
0.694872
0.19339
0.68101
0.207487
0.665793
0.223021
0.649177
0.240964
0.631062
0.263032
0.292145
0.68591
0.703859
-0.197459
0.719824
-0.165478
0.733775
-0.134084
0.745899
-0.101838
0.756118
-0.069212
0.764458
-0.0352104
0.770809
-0.00108218
0.775203
0.0337657
0.777712
0.0664603
0.778261
0.096263
0.777
0.119424
0.773815
0.135167
0.76854
0.148908
0.761238
0.163111
0.752064
0.176857
0.741219
0.191036
0.728768
0.205842
0.714809
0.221446
0.699364
0.238465
0.682413
0.257915
0.663875
0.28157
0.312512
0.73292
-0.216167
0.749515
-0.182074
0.764084
-0.148652
0.776718
-0.114472
0.787404
-0.0798977
0.796151
-0.0439577
0.802943
-0.00787441
0.807775
0.0289339
0.810585
0.0636505
0.811506
0.0953415
0.810635
0.120295
0.807841
0.137961
0.803009
0.153741
0.796078
0.170041
0.787184
0.185752
0.776495
0.201725
0.764129
0.218208
0.750111
0.235464
0.734478
0.254099
0.717225
0.275168
0.69827
0.300525
0.333359
0.76363
0.780869
-0.199313
0.796074
-0.163858
0.80921
-0.127607
0.820366
-0.0910536
0.829592
-0.0531839
0.836758
-0.0150405
0.841922
0.0237703
0.845095
0.0604773
0.846348
0.0940883
0.845818
0.120825
0.843413
0.140366
0.838946
0.158207
0.83238
0.176608
0.823828
0.194303
0.813353
0.212199
0.801055
0.230506
0.787
0.24952
0.771232
0.269866
0.753719
0.292681
0.734381
0.319863
0.354674
0.813973
-0.217264
0.829778
-0.179663
0.843489
-0.141318
0.855161
-0.102726
0.864747
-0.06277
0.872314
-0.0226072
0.877789
0.0182953
0.881282
0.0569845
0.882893
0.0924772
0.882577
0.121141
0.880542
0.142401
0.876466
0.162283
0.870188
0.182886
0.862018
0.202473
0.851762
0.222456
0.839612
0.242655
0.825556
0.263576
0.80968
0.285742
0.791929
0.310432
0.772253
0.339539
0.376434
0.848966
0.865384
-0.196081
0.879647
-0.155581
0.891769
-0.114849
0.901765
-0.0727656
0.909671
-0.0305134
0.915501
0.012465
0.919224
0.0532616
0.921097
0.0906041
0.921129
0.121109
0.919339
0.144191
0.915652
0.16597
0.909816
0.188722
0.901927
0.210362
0.891938
0.232445
0.879816
0.254777
0.865845
0.277547
0.849947
0.30164
0.832019
0.328359
0.811973
0.359586
0.398588
0.902945
-0.213195
0.917759
-0.170395
0.93036
-0.12745
0.940751
-0.083156
0.949048
-0.0388102
0.955178
0.00633473
0.95919
0.0492495
0.961181
0.0886128
0.961479
0.120812
0.96007
0.1456
0.956671
0.169368
0.951156
0.194237
0.943429
0.218089
0.933734
0.242139
0.921847
0.266664
0.908024
0.29137
0.89188
0.317785
0.873809
0.34643
0.853594
0.379801
0.421085
0.942487
-0.230917
0.957991
-0.185899
0.971061
-0.140521
0.981936
-0.0940305
0.990379
-0.047254
0.996871
-0.000157405
1.00112
0.0450021
1.00337
0.0863609
1.00393
0.120254
1.00268
0.146851
0.999511
0.172534
0.994292
0.199456
0.986882
0.225499
0.977324
0.251697
0.965849
0.278138
0.951888
0.305331
0.935993
0.333679
0.91776
0.364663
0.897261
0.400301
0.44381
0.984333
1.00032
-0.201889
1.01379
-0.153991
1.0251
-0.105341
1.034
-0.056151
1.04059
-0.00674855
1.04512
0.0404759
1.04753
0.0839529
1.04824
0.119546
1.04728
0.147809
1.04446
0.175347
1.03951
0.204408
1.03241
0.232606
1.02315
0.260956
1.01162
0.289669
0.998022
0.318925
0.981945
0.349757
0.963602
0.383006
0.943203
0.420699
0.466958
1.04489
-0.218353
1.05914
-0.168235
1.07065
-0.116853
1.07999
-0.0654873
1.08676
-0.013521
1.09141
0.0358215
1.09414
0.0812299
1.09484
0.118843
1.09413
0.148524
1.09134
0.178131
1.08679
0.20896
1.07996
0.239433
1.071
0.269922
1.05958
0.301082
1.04591
0.332601
1.03015
0.36551
1.0119
0.401263
0.991054
0.441544
0.490023
1.09215
-0.235667
1.10671
-0.182796
1.11869
-0.128839
1.12827
-0.075064
1.13537
-0.0206164
1.1401
0.0310863
1.14282
0.0785116
1.14397
0.117697
1.14311
0.149375
1.14076
0.180485
1.13609
0.213632
1.12968
0.245841
1.12084
0.278764
1.10986
0.312056
1.09644
0.346027
1.08042
0.381527
1.0623
0.419384
1.04152
0.462327
0.513528
1.14167
1.15678
-0.197904
1.16927
-0.141327
1.17901
-0.0848082
1.18654
-0.0281414
1.19141
0.0262125
1.19429
0.0756299
1.19531
0.116686
1.19478
0.149904
1.19237
0.182893
1.18818
0.217817
1.18168
0.252341
1.17311
0.287337
1.16226
0.322906
1.14895
0.359339
1.13332
0.397158
1.11492
0.437782
1.09425
0.482991
0.536969
1.20966
-0.213679
1.2227
-0.154367
1.23283
-0.0949366
1.24022
-0.0355321
1.24545
0.0209783
1.24819
0.072894
1.24922
0.115649
1.24882
0.150306
1.24646
0.185256
1.2424
0.221877
1.23626
0.258482
1.22778
0.295816
1.21705
0.333637
1.20401
0.372373
1.18849
0.412685
1.17046
0.45581
1.14952
0.50393
0.560284
1.26548
-0.229941
1.27874
-0.167624
1.28927
-0.105468
1.29704
-0.0433046
1.30205
0.0159717
1.30517
0.0697774
1.30634
0.114478
1.30568
0.150962
1.30364
0.1873
1.29951
0.226004
1.29338
0.264614
1.28528
0.303915
1.27481
0.344104
1.26191
0.385279
1.24635
0.428237
1.22828
0.47388
1.20772
0.524497
0.583701
1.32419
1.33799
-0.181431
1.34875
-0.116219
1.35668
-0.0512362
1.36206
0.0105904
1.36484
0.066991
1.36593
0.113397
1.36565
0.151235
1.3634
0.189556
1.35932
0.230078
1.35347
0.270463
1.34527
0.312124
1.3349
0.354471
1.32213
0.398051
1.30702
0.443339
1.2891
0.491807
1.26851
0.545085
0.60701
1.40018
-0.195664
1.41148
-0.127517
1.41949
-0.0592411
1.4249
0.00517638
1.42798
0.0639104
1.42898
0.112401
1.42849
0.151718
1.42634
0.191705
1.42243
0.233992
1.41637
0.276522
1.40849
0.320008
1.3982
0.364757
1.38571
0.410544
1.37046
0.458583
1.35286
0.509412
1.33244
0.565502
0.630155
1.46611
-0.210624
1.47742
-0.138829
1.48585
-0.0676686
1.49138
-0.000359975
1.49419
0.0611003
1.49522
0.111376
1.49457
0.152369
1.49244
0.193829
1.4885
0.237933
1.48265
0.282371
1.4746
0.328058
1.46453
0.37483
1.45201
0.423065
1.43723
0.47336
1.41967
0.526969
1.39947
0.585706
1.53513
1.54717
-0.150866
1.55564
-0.0761358
1.56114
-0.00586365
1.56417
0.058075
1.56501
0.110537
1.56439
0.152986
1.56213
0.196092
1.55797
0.242092
1.55214
0.288199
1.5442
0.335999
1.53416
0.384865
1.5219
0.435326
1.50715
0.488116
1.48981
0.544309
0.605662
1.62041
-0.163014
1.62931
-0.0850327
1.63475
-0.0113081
1.63759
0.055235
1.63853
0.109594
1.63767
0.153846
1.63523
0.198539
1.63111
0.246205
1.62512
0.294196
1.6174
0.343718
1.60738
0.394887
1.59506
0.447638
1.58048
0.502702
1.56337
0.561416
0.625482
1.69783
-0.175661
1.70671
-0.0939165
1.71246
-0.0170578
1.7153
0.0523936
1.71585
0.109052
1.71498
0.154709
1.71245
0.201069
1.7082
0.250459
1.70215
0.300244
1.69418
0.351693
1.68414
0.404923
1.67205
0.459725
1.65763
0.517126
1.64062
0.57843
0.644858
1.77913
-0.188661
1.78854
-0.103321
1.79415
-0.0226681
1.79689
0.0496471
1.79745
0.108492
1.79628
0.155883
1.79365
0.203703
1.78921
0.25489
1.78308
0.30638
1.77496
0.359809
1.76503
0.414854
1.753
0.471757
1.73858
0.531542
1.72195
0.595058
0.664204
1.86515
-0.202064
1.87457
-0.112739
1.88031
-0.0284078
1.88296
0.0469992
1.88352
0.107928
1.88214
0.157269
1.87921
0.206632
1.87457
0.259529
1.86831
0.312637
1.86017
0.367954
1.85016
0.424858
1.83787
0.484047
1.82374
0.545675
1.80721
0.611594
0.683221
1.95571
1.96532
-0.122342
1.97126
-0.0343499
1.97393
0.0443303
1.97399
0.107862
1.97249
0.158771
1.96942
0.209706
1.96454
0.264409
1.95798
0.319197
1.94963
0.376302
1.93952
0.434965
1.92753
0.496038
1.91323
0.559978
1.89678
0.628041
0.701908
2.06109
-0.132207
2.06693
-0.0401855
2.06941
0.0418497
2.06943
0.107842
2.06782
0.160377
2.06439
0.21314
2.05938
0.269418
2.05249
0.326087
2.04405
0.384745
2.03366
0.445348
2.02151
0.508194
2.00745
0.57404
1.99121
0.644274
0.72041
2.16204
-0.142575
2.16789
-0.046039
2.17047
0.0392718
2.17026
0.108056
2.16819
0.162439
2.16453
0.216804
2.15922
0.274725
2.15211
0.333194
2.1434
0.393455
2.133
0.455752
2.1208
0.5204
2.10652
0.588312
2.09049
0.660311
0.73874
2.26847
-0.15314
2.27454
-0.0521115
2.27674
0.0370652
2.27638
0.108419
2.27415
0.164671
2.27011
0.220846
2.26447
0.280364
2.25726
0.340407
2.24825
0.402464
2.2375
0.466493
2.22508
0.532824
2.21099
0.602398
2.19485
0.676455
0.75691
2.38054
-0.163823
2.38671
-0.0582838
2.38894
0.0348415
2.38828
0.109076
2.38586
0.167096
2.38166
0.225046
2.37552
0.286499
2.36789
0.34804
2.35855
0.411801
2.34773
0.477316
2.33505
0.5455
2.32084
0.616607
2.3047
0.692594
0.774802
2.4989
2.50511
-0.0644965
2.50716
0.0327995
2.50645
0.10978
2.50364
0.169911
2.49901
0.22967
2.49264
0.292876
2.48456
0.356117
2.47501
0.421354
2.46364
0.488677
2.45097
0.558175
2.43646
0.631112
2.42059
0.708472
0.792722
2.63006
-0.0708348
2.63209
0.030775
2.63102
0.110849
2.62782
0.173114
2.62285
0.234635
2.61607
0.299661
2.60766
0.364528
2.59772
0.431292
2.58621
0.500181
2.57309
0.571302
2.55868
0.645524
2.54233
0.724822
2.76161
-0.0772624
2.76367
0.0287221
2.76224
0.112278
2.75889
0.17646
2.75357
0.239956
2.74635
0.306881
2.73758
0.373294
2.72709
0.441785
2.71513
0.51214
2.70194
0.584494
2.68703
0.660434
0.74098
2.90068
-0.0839044
2.90235
0.0270541
2.90091
0.11372
2.89712
0.180244
2.89128
0.245805
2.88374
0.314419
2.87444
0.382589
2.86365
0.45258
2.85134
0.524445
2.8375
0.598336
2.82261
0.675321
0.757402
3.04697
-0.0904111
3.04888
0.0251471
3.047
0.115604
3.04288
0.184357
3.03677
0.251918
3.02875
0.322441
3.0189
0.392434
3.0075
0.463982
2.99482
0.537126
2.98085
0.612311
2.96526
0.69091
0.773844
3.2017
3.20314
0.0237055
3.2012
0.117549
3.19669
0.188867
3.19016
0.258444
3.18163
0.330977
3.17134
0.402716
3.15958
0.475743
3.14622
0.550488
3.13167
0.626863
3.11603
0.706548
0.790898
3.36616
0.0222076
3.3637
0.120014
3.35897
0.193596
3.35197
0.265444
3.3429
0.340048
3.33215
0.413467
3.31958
0.488306
3.30593
0.564147
3.2909
0.641888
3.27477
0.722681
0.808052
3.53806
0.0206039
3.53549
0.122582
3.5302
0.198885
3.52271
0.272941
3.51307
0.349684
3.50169
0.424848
3.48871
0.501284
3.47431
0.578549
3.45864
0.657552
3.44211
0.739211
0.825622
3.71924
0.0193156
3.71635
0.125473
3.71061
0.204622
3.70275
0.280804
3.69266
0.359777
3.68062
0.436888
3.66705
0.514848
3.65202
0.593585
3.63595
0.673621
3.61871
0.756447
0.843779
3.91045
0.0179987
3.90723
0.128697
3.90128
0.210567
3.89288
0.289209
3.88203
0.370626
3.86943
0.449482
3.85512
0.52916
3.83942
0.609288
3.82264
0.690397
3.8048
0.774287
0.862297
4.11211
0.0168006
4.10864
0.132166
4.10217
0.217036
4.09319
0.29819
4.08196
0.381858
4.06851
0.462931
4.05355
0.544118
4.03715
0.625688
4.01963
0.707915
4.00129
0.792635
4.32483
0.015668
4.32106
0.135941
4.31419
0.223906
4.3046
0.307781
4.29268
0.393776
4.27875
0.47686
4.26284
0.560023
4.24585
0.642684
4.22742
0.726345
0.811661
4.54927
4.54518
0.140034
4.53785
0.231238
4.52774
0.317887
4.51496
0.406558
4.50024
0.491573
4.48376
0.576504
4.46573
0.660716
4.44676
0.745318
0.83154
4.78154
0.144524
4.77387
0.238909
4.76307
0.328686
4.74969
0.419939
4.73402
0.507241
4.71666
0.593865
4.69783
0.679548
4.67801
0.76514
0.852307
5.03088
0.149287
5.02252
0.247266
5.0113
0.339913
4.9971
0.434134
4.98071
0.523628
4.96244
0.612142
4.94263
0.699351
4.92179
0.78598
0.873869
5.29391
0.154385
5.28509
0.256084
5.27309
0.351913
5.25821
0.449013
5.24093
0.54091
5.2217
0.631375
5.20089
0.72016
5.17899
0.807875
0.896398
5.57135
0.159664
5.56192
0.265508
5.54926
0.36458
5.5335
0.464769
5.51529
0.559125
5.49506
0.651597
5.47334
0.741884
5.45048
0.830733
0.919933
5.86391
0.165518
5.85395
0.275467
5.84056
0.377975
5.82387
0.481454
5.80481
0.578184
5.78342
0.672989
5.76061
0.764693
5.73662
0.854727
6.17247
0.171759
6.16201
0.285921
6.14786
0.392127
6.13035
0.498963
6.11013
0.598402
6.0878
0.695326
6.06359
0.788902
0.879768
6.49819
0.178332
6.48712
0.297
6.47198
0.407262
6.45359
0.517355
6.43217
0.619823
6.4087
0.718794
6.38345
0.814156
0.9063
6.84162
6.82981
0.308812
6.81409
0.422977
6.79461
0.536835
6.7722
0.642237
6.74729
0.743701
6.72068
0.84077
0.934103
7.19169
0.320741
7.17476
0.439908
7.15404
0.557557
7.13097
0.665297
7.10445
0.770227
7.07696
0.86826
0.96362
7.57308
0.334818
7.55556
0.457419
7.53391
0.579213
7.50831
0.690899
7.4813
0.797238
7.45156
0.897991
0.993446
7.97578
0.347681
7.95693
0.476273
7.93406
0.602086
7.90862
0.716334
7.87924
0.82662
7.84854
0.92869
1.02678
5.77661
0.380956
5.7489
0.503982
5.73272
0.618262
5.7123
0.736758
5.69151
0.847403
5.71073
0.909473
6.34696
0.417477
6.31613
0.534811
6.29691
0.637482
6.27749
0.75618
6.25518
0.869712
0.890487
6.97374
0.457457
6.93965
0.568906
6.91983
0.657299
6.89732
0.778689
6.87074
0.896297
0.866642
7.66205
0.50111
7.62446
0.6065
7.60387
0.677889
7.57679
0.80577
7.54968
0.923408
0.842044
8.4183
0.549929
8.37704
0.64776
8.35287
0.702054
8.32629
0.832355
8.29589
0.953805
0.815537
9.24872
0.602922
9.20349
0.692994
9.1768
0.728745
9.14652
0.862632
9.11388
0.986446
0.784778
10.1616
10.1136
0.74094
10.0843
0.75807
10.0516
0.895352
10.014
1.02396
0.752402
11.1101
0.796196
11.0789
0.789307
11.0419
0.932393
11.0015
1.06434
0.716414
12.2122
0.854249
12.177
0.824542
12.1374
0.971963
12.0935
1.10829
0.67487
13.4093
0.92101
13.3708
0.863022
13.327
1.01572
13.2777
1.15767
14.7544
0.990916
14.7142
0.903244
14.6661
1.06378
1.2067
16.1762
1.07023
16.1281
0.951356
16.074
1.11785
1.26834
17.8629
17.8185
17.7699
)
;

boundaryField
{
    inlet
    {
        type            calculated;
        value           nonuniform List<scalar> 4(1.14882 0.995779 1.16639 1.31804);
    }
    outlet
    {
        type            calculated;
        value           nonuniform List<scalar> 0();
    }
    walls
    {
        type            calculated;
        value           uniform 0;
    }
    frontAndBack
    {
        type            empty;
        value           nonuniform List<scalar> 0();
    }
    procBoundary5to0
    {
        type            processor;
        value           nonuniform List<scalar> 4(-0.215096 -0.217952 -0.229298 -0.281378);
    }
    procBoundary5to1
    {
        type            processor;
        value           nonuniform List<scalar> 
13
(
-0.0219522
-0.0343798
-0.0478591
-0.0393946
-0.0995621
-0.0627585
-0.0542925
-0.158996
-0.0787938
-0.0718479
-0.0650546
-0.251539
-0.0948274
)
;
    }
    procBoundary5to4
    {
        type            processor;
        value           nonuniform List<scalar> 
95
(
-0.219537
-0.237988
-0.213246
-0.314451
-0.236706
-0.225977
-0.383292
-0.229874
-0.209727
-0.449493
-0.211843
-0.489834
-0.208729
-0.530757
-0.550676
-0.227597
-0.594838
-0.219718
-0.639984
-0.665857
-0.229393
-0.714212
-0.744125
-0.235672
-0.796021
-0.830173
-0.236057
-0.885831
-0.924765
-0.965771
-0.249479
-1.02843
-1.07483
-1.12369
-0.253646
-1.19388
-1.24922
-1.30714
-0.246991
-1.38595
-1.45115
-1.51992
-0.225842
-1.60826
-1.68518
-1.76613
-1.85175
-1.94174
-0.216039
-2.05123
-2.15167
-2.2579
-2.36986
-2.48767
-0.17505
-2.62373
-2.75519
-2.89404
-3.04047
-3.19465
-0.0974593
-3.36467
-3.53646
-3.71795
-3.90914
-4.11091
-4.3237
-4.54812
0.0145125
-4.78603
-5.03564
-5.29901
-5.57663
-5.86976
-6.17871
-6.50477
-6.8486
0.185315
-7.20362
-7.58715
-7.98865
-5.80988
-6.38348
-7.01372
-7.70571
-8.46712
-9.30172
-10.2201
0.661514
-11.1654
-12.2703
-13.476
-14.8243
-16.2555
-17.9415
)
;
    }
    procBoundary5to6
    {
        type            processor;
        value           nonuniform List<scalar> 
86
(
0.126574
0.168123
0.213215
0.265958
0.321287
0.360646
0.375926
0.385037
0.401444
0.423864
0.447983
0.472373
0.497392
0.523649
0.551343
0.580535
0.611259
0.643508
0.677424
0.713065
0.750494
0.789818
0.831098
0.874535
0.920056
0.967989
1.01801
1.07081
1.12621
1.1843
1.2452
1.3093
1.3764
0.653223
1.46985
1.54355
1.62124
1.70261
1.78819
1.87809
1.97271
2.07216
2.17668
2.28681
2.40267
2.52449
0.810559
2.67087
2.80619
2.94881
3.09898
3.25761
3.42454
3.60056
3.78629
3.98224
0.881348
4.20839
4.42688
4.65724
4.90023
5.15646
5.42695
5.7119
0.944648
6.03855
6.35691
6.69287
7.04744
7.42174
7.81521
5.71374
1.02377
6.27417
6.89458
7.57428
8.3224
9.14464
10.0464
11.0375
12.135
13.3202
0.632362
14.6171
16.0124
17.7202
)
;
    }
}


// ************************************************************************* //
