/*--------------------------------*- C++ -*----------------------------------*\
| =========                 |                                                 |
| \\      /  F ield         | OpenFOAM: The Open Source CFD Toolbox           |
|  \\    /   O peration     | Version:  2306                                  |
|   \\  /    A nd           | Website:  www.openfoam.com                      |
|    \\/     M anipulation  |                                                 |
\*---------------------------------------------------------------------------*/
FoamFile
{
    version     2.0;
    format      ascii;
    arch        "LSB;label=32;scalar=64";
    class       volSymmTensorField;
    location    "375";
    object      turbulenceProperties:R;
}
// * * * * * * * * * * * * * * * * * * * * * * * * * * * * * * * * * * * * * //

dimensions      [0 2 -2 0 0 0 0];

internalField   nonuniform List<symmTensor> 
1340
(
(0.0144991 0.00306886 -6.84669e-22 0.0120407 -1.61365e-20 0.0134176)
(0.017287 0.00364581 -9.35815e-23 0.013645 1.04867e-19 0.0155758)
(0.0210792 0.0042343 -2.14377e-20 0.0153261 -3.37299e-19 0.018432)
(0.026251 0.0049961 9.57204e-20 0.017619 7.0648e-19 0.0222316)
(0.0326224 0.00571469 -1.8783e-19 0.0200526 -6.93592e-19 0.0266725)
(0.0409548 0.00622505 -1.47713e-19 0.0227823 -3.86303e-19 0.0323718)
(0.0517342 0.00649535 2.87129e-19 0.0261176 1.10317e-18 0.0395683)
(0.0651929 0.00618119 -7.49161e-19 0.0300852 -2.03785e-18 0.0484266)
(0.0821921 0.00491654 -1.89722e-19 0.0351316 5.55285e-19 0.0596907)
(0.103572 0.00243297 5.72967e-19 0.041933 1.17574e-18 0.0740134)
(0.130617 -0.00179554 1.49454e-18 0.0513623 5.46534e-19 0.0925387)
(0.165472 -0.00835563 -3.39852e-18 0.064793 -3.15637e-18 0.117023)
(0.211094 -0.0181761 6.4971e-19 0.0840967 8.38602e-19 0.149903)
(0.272359 -0.0328496 2.61475e-18 0.112293 1.23919e-18 0.19518)
(0.35756 -0.0550356 -3.99518e-18 0.154539 -6.24093e-18 0.259674)
(0.479514 -0.0890646 -4.30066e-18 0.219195 -2.54673e-18 0.354046)
(0.663301 -0.143546 1.90122e-17 0.32282 1.76044e-17 0.499453)
(0.940213 -0.230778 1.77321e-17 0.48899 3.35514e-17 0.723359)
(1.41746 -0.387156 -3.52303e-17 0.78978 -5.46111e-17 1.11648)
(2.1408 -0.639978 -1.37357e-18 1.27812 1.4514e-17 1.72767)
(3.75106 -1.21251 -2.71847e-17 2.3999 5.19765e-17 3.10453)
(6.10055 -2.11277 -1.244e-17 4.18485 4.18546e-17 5.18185)
(13.8371 -5.12788 -1.43113e-16 10.2544 -6.41861e-16 12.124)
(25.9903 -10.3104 3.31448e-16 21.0503 5.58912e-16 23.6455)
(27.6359 -11.6457 4.24179e-17 24.5381 -7.12322e-16 26.1486)
(25.5027 -11.2272 3.65732e-16 24.4612 5.81264e-16 24.9646)
(24.3971 -11.0431 -8.18526e-17 24.7189 -7.84367e-17 24.5131)
(24.3285 -11.2266 2.7448e-16 25.6834 2.30552e-16 24.9686)
(24.4149 -11.4409 7.28958e-16 26.7039 1.20842e-15 25.5347)
(24.1211 -11.4538 4.00493e-16 27.2727 1.99749e-15 25.6843)
(23.3954 -11.2398 -1.4114e-15 27.3092 -1.93136e-15 25.3549)
(22.3233 -10.8337 -4.74874e-16 26.8598 -7.26106e-16 24.6073)
(20.8801 -10.2201 -3.22675e-17 25.8521 -4.36766e-15 23.3885)
(19.0948 -9.41311 -2.58294e-15 24.2893 -7.29921e-15 21.7151)
(16.9496 -8.40472 1.00619e-15 22.1133 9.23115e-16 19.5528)
(0.0120304 0.00257355 1.65903e-21 0.0106525 3.85351e-20 0.0113954)
(0.0101311 0.0021245 -2.37309e-21 0.00934072 1.76935e-23 0.00982562)
(0.00808334 0.00164672 -1.23377e-20 0.00782751 -8.64942e-20 0.00799995)
(0.00638605 0.00123972 2.95321e-21 0.00644542 5.55301e-20 0.0064461)
(0.00486384 0.000879219 2.15806e-21 0.00505118 -1.00513e-20 0.00497261)
(0.00355272 0.000586735 -1.70179e-20 0.00372647 5.57097e-20 0.0036393)
(0.0025302 0.000377483 -9.14046e-20 0.00261704 7.35673e-20 0.00255728)
(0.00226709 -0.000155251 4.14125e-23 0.00189644 1.34949e-21 0.00205174)
(0.00222408 -0.000181974 9.65238e-21 0.00191885 2.33898e-20 0.00203799)
(0.00215865 -0.000204456 -8.83536e-21 0.00194121 -1.55769e-20 0.00201039)
(0.00205933 -0.000211722 -5.88757e-21 0.00192651 -1.67696e-20 0.00194815)
(0.00192973 -0.000206756 3.91874e-20 0.00187663 7.60568e-20 0.00185482)
(0.00178983 -0.000193311 1.50776e-20 0.00180979 2.33915e-20 0.00174788)
(0.00164016 -0.000173016 7.08537e-20 0.00171468 6.50926e-20 0.00162239)
(0.00148396 -0.000149085 -3.63232e-20 0.00159448 -6.99002e-21 0.00148234)
(0.00133654 -0.000125537 5.11409e-20 0.001468 3.54373e-20 0.00134399)
(0.00119892 -0.000104531 -1.82194e-21 0.00133682 7.78183e-23 0.00120849)
(0.00107268 -8.6945e-05 -6.96689e-20 0.00120612 -5.95216e-20 0.00107993)
(0.000987028 -7.80248e-05 9.33798e-20 0.00111435 1.16248e-19 0.00098912)
(0.00097623 -8.37197e-05 6.5386e-20 0.00110642 3.28569e-20 0.000969202)
(0.00107585 -0.000114026 -1.70914e-20 0.00122308 9.27028e-21 0.00104866)
(0.00141254 -0.000214159 -1.40985e-19 0.00159275 2.32073e-20 0.00132281)
(0.00229555 -0.000517948 3.75409e-19 0.00244949 4.29594e-19 0.00199412)
(0.00462347 -0.00138389 7.64407e-19 0.00434345 -8.35857e-19 0.00368259)
(0.0101286 -0.00334397 -4.16324e-18 0.00824266 -5.39618e-18 0.00776828)
(0.0250056 -0.00841498 4.90693e-19 0.0184655 7.23997e-18 0.0193092)
(0.061505 -0.020811 7.25191e-18 0.0434179 -2.03669e-18 0.0486491)
(0.180917 -0.0622222 1.54092e-17 0.126628 6.10638e-18 0.147192)
(0.492219 -0.174201 -2.34971e-17 0.350684 -2.25025e-17 0.412154)
(1.4805 -0.545644 7.42658e-17 1.09775 1.8747e-16 1.27743)
(4.6282 -1.7857 1.55734e-19 3.62075 -1.54865e-16 4.12032)
(8.81877 -3.55009 -2.73566e-16 7.29548 1.69834e-16 8.09272)
(12.9231 -5.3976 -9.72149e-17 11.2881 -6.60548e-16 12.1872)
(16.5553 -7.14897 1.18698e-18 15.2764 7.56872e-17 16.0238)
(18.8626 -8.39201 -2.94436e-16 18.3785 -4.44723e-16 18.734)
(18.9021 -8.63439 -4.93526e-16 19.4272 -2.83245e-15 19.2637)
(16.907 -7.89634 -1.66959e-16 18.28 -3.54636e-15 17.6554)
(14.0804 -6.69129 5.22917e-16 15.9344 4.89642e-15 15.02)
(11.3787 -5.4777 -9.55177e-16 13.3933 -3.75076e-17 12.3588)
(9.25566 -4.49814 -7.18943e-15 11.2541 1.34205e-15 10.2102)
(7.67132 -3.75341 8.77217e-15 9.56253 1.59518e-14 8.57246)
(6.48 -3.18634 -1.48862e-15 8.23159 -8.63814e-16 7.31978)
(0.00227292 -0.000117569 3.19296e-21 0.00185001 7.89825e-21 0.00203579)
(0.00226159 -7.76391e-05 -4.39124e-21 0.00180468 -3.31923e-20 0.00200879)
(0.00221002 -2.67211e-05 -6.52083e-21 0.00173912 -3.89006e-20 0.00195514)
(0.00211614 3.07918e-05 -2.53054e-21 0.00166074 5.87261e-20 0.00187427)
(0.00197224 8.48915e-05 6.94794e-22 0.00156959 1.56787e-20 0.00176327)
(0.00177353 0.0001278 1.38542e-20 0.00146039 -5.32107e-20 0.00161495)
(0.00151785 -0.000120504 6.64808e-22 0.0012506 9.19714e-22 0.00139947)
(0.00147804 -0.000143659 -1.0533e-20 0.00126634 -2.5592e-20 0.00139064)
(0.00140944 -0.000159867 -2.32747e-21 0.00127073 -1.17238e-21 0.00136161)
(0.00131991 -0.000165126 8.82559e-21 0.0012622 1.90639e-20 0.00131713)
(0.00122893 -0.000160347 -2.79865e-20 0.00125143 -5.69233e-20 0.00126981)
(0.00113521 -0.000144948 -3.19402e-20 0.00123356 -5.23485e-20 0.00121759)
(0.00104699 -0.000120402 -6.49518e-20 0.00120873 -9.60046e-20 0.00116504)
(0.000973133 -9.03618e-05 -5.24993e-21 0.00118113 -7.80391e-22 0.00111759)
(0.000915133 -5.71726e-05 -2.87276e-20 0.00115184 -6.84149e-20 0.00107681)
(0.000875411 -2.41345e-05 1.20773e-19 0.00112361 1.37433e-19 0.00104543)
(0.00085076 6.58849e-06 -1.98843e-20 0.00109584 2.70457e-20 0.00102102)
(0.000842047 3.35392e-05 1.36416e-20 0.00107455 8.39405e-21 0.00100688)
(0.00084685 5.60711e-05 -9.4006e-20 0.00106215 -1.19646e-19 0.00100269)
(0.000864109 7.53398e-05 6.12845e-20 0.00106198 -5.6893e-21 0.00101025)
(0.000877801 8.91839e-05 1.77921e-20 0.00105539 5.52124e-20 0.00101092)
(0.000866394 9.3726e-05 2.10654e-20 0.00101736 1.01102e-20 0.000980289)
(0.00074616 7.23352e-05 -7.6664e-20 0.000843948 -4.46509e-20 0.000819782)
(0.000682216 6.29125e-05 5.86759e-20 0.000756149 4.37386e-20 0.0007371)
(0.000235601 7.58752e-06 2.27669e-21 0.000243606 2.97672e-23 0.00024138)
(0.00344843 0.00149612 -1.91949e-18 0.00492058 -2.88794e-19 0.0044665)
(0.00662955 0.00332907 5.05175e-18 0.00978223 -1.98393e-18 0.00868987)
(0.00039944 4.6244e-05 2.57579e-21 0.000443188 4.41609e-20 0.000425895)
(0.00323577 0.0015197 5.90769e-18 0.00599035 -8.72534e-18 0.00447768)
(0.0118292 -0.00461105 -2.24599e-18 0.00959312 -2.39999e-18 0.0103513)
(0.131107 -0.0524593 4.33784e-18 0.109164 1.53197e-17 0.117469)
(0.457374 -0.189267 -2.7944e-17 0.398446 7.64931e-18 0.421805)
(1.14055 -0.48688 1.46187e-17 1.04097 1.13782e-18 1.08182)
(2.52784 -1.10727 -1.42212e-17 2.40798 7.59024e-17 2.45714)
(4.91073 -2.19831 -4.39921e-16 4.86693 2.4599e-16 4.87865)
(7.95439 -3.63141 2.16968e-16 8.19742 3.53251e-16 8.07113)
(10.5677 -4.91467 1.56384e-15 11.3369 -5.86745e-16 10.9601)
(11.6795 -5.52481 -2.76525e-15 13.0488 2.16264e-15 12.3858)
(11.1885 -5.36777 5.13909e-16 12.9841 9.32813e-15 12.1099)
(9.876 -4.78755 -4.86803e-17 11.834 -6.36795e-15 10.8676)
(8.45643 -4.12852 3.05772e-15 10.3848 -2.30073e-15 9.42283)
(0.00155222 -9.11066e-05 -1.36287e-21 0.00123879 -2.59433e-21 0.0014094)
(0.00156569 -5.92737e-05 -5.15644e-21 0.00122371 -7.29646e-21 0.00140585)
(0.00157111 -2.04317e-05 2.13533e-20 0.00121257 4.60396e-20 0.00140043)
(0.00154389 2.08061e-05 4.37942e-21 0.00119226 -5.1865e-21 0.00137349)
(0.00148459 6.12856e-05 3.01561e-21 0.00116498 -3.39744e-20 0.00132792)
(0.00138228 9.45468e-05 -9.39679e-21 0.00112071 2.42895e-20 0.00125263)
(0.00128853 -9.76995e-05 3.60026e-21 0.00106032 6.15899e-21 0.00116909)
(0.00127315 -0.000115779 -5.01354e-21 0.00108092 -9.03781e-21 0.00117114)
(0.00124327 -0.000131403 -2.27994e-21 0.00110009 -1.25629e-21 0.00116415)
(0.00120672 -0.000141545 2.70851e-20 0.00111815 3.96387e-20 0.00115343)
(0.00115893 -0.000144745 1.72145e-20 0.00112691 3.12035e-20 0.00113221)
(0.00110139 -0.000141117 2.18409e-20 0.00112597 4.19424e-20 0.00110098)
(0.00103936 -0.000131398 3.33738e-20 0.0011148 3.86116e-20 0.00106237)
(0.000972781 -0.000116713 -1.91622e-20 0.00108967 -2.97582e-20 0.00101449)
(0.000904801 -9.88112e-05 -6.86085e-20 0.00105274 -6.79752e-20 0.000959846)
(0.000836928 -7.97134e-05 8.9211e-20 0.00100428 5.02406e-20 0.000899706)
(0.000769945 -6.08838e-05 7.51617e-20 0.00094611 6.36558e-20 0.000835252)
(0.00070391 -4.35108e-05 9.751e-20 0.00087975 4.6712e-20 0.000767503)
(0.00063852 -2.83867e-05 -1.6098e-19 0.000806709 -5.15552e-20 0.000697228)
(0.000573912 -1.58315e-05 -1.3749e-19 0.000729247 -9.23591e-20 0.000625766)
(0.000509964 -5.80822e-06 1.82852e-19 0.000648875 5.75131e-20 0.000553676)
(0.000443692 2.90224e-06 3.71855e-20 0.000563442 2.28994e-20 0.000479007)
(0.000377124 1.01761e-05 -2.71278e-20 0.00047394 2.7999e-21 0.000403668)
(0.000324517 1.61282e-05 -8.62684e-20 0.000400464 -5.65195e-20 0.000343907)
(0.000257507 1.63103e-05 1.54538e-20 0.000301964 -5.92924e-21 0.000268536)
(0.000146576 6.38441e-06 2.18234e-20 0.000157695 6.73322e-21 0.000149521)
(1.9523e-05 1.07795e-07 -4.08637e-22 1.96555e-05 -1.17539e-22 1.95642e-05)
(5.57364e-05 7.73718e-07 1.18605e-21 5.64694e-05 1.69417e-22 5.60014e-05)
(0 0 -0 0 -0 0)
(0.00244307 0.000983425 -7.63529e-19 0.00291716 3.7446e-19 0.00261747)
(0.0134883 0.00627164 3.48195e-18 0.0149197 -1.11134e-18 0.0138041)
(0.0291146 0.0128399 -7.46009e-18 0.0286895 9.8996e-18 0.0280156)
(0.00561854 0.0022853 1.95706e-20 0.0048637 -4.51179e-20 0.0050537)
(0.00763591 0.00222931 2.99303e-18 0.00466462 -1.06259e-18 0.00575481)
(0.0323095 -0.0115347 7.06148e-18 0.0233652 1.78684e-17 0.0269931)
(0.254182 -0.109422 2.70598e-17 0.235278 -1.22836e-16 0.242846)
(1.06366 -0.478775 -6.65251e-17 1.06651 -3.96488e-16 1.06176)
(2.81788 -1.30029 2.07873e-15 2.9744 5.51974e-16 2.89207)
(5.15745 -2.42519 2.97152e-15 5.6858 6.72679e-16 5.4203)
(7.00612 -3.34516 -1.64358e-15 8.03148 -2.23459e-15 7.52392)
(7.70842 -3.72324 -7.33377e-15 9.13385 1.42209e-15 8.43007)
(0.00128955 -7.51075e-05 -5.52714e-21 0.00103297 -1.12539e-20 0.00115767)
(0.00127904 -5.12185e-05 -1.90123e-21 0.00100505 7.68416e-21 0.00113893)
(0.00125242 -2.16735e-05 1.83047e-20 0.000970781 3.49013e-20 0.00111007)
(0.00121287 9.52463e-06 -7.83619e-21 0.000937754 -4.40341e-22 0.00107456)
(0.00115581 3.99804e-05 6.82809e-21 0.000903928 4.32688e-20 0.00102993)
(0.00096419 -7.43954e-05 -5.13392e-21 0.00079415 -7.64731e-21 0.000880886)
(0.000948043 -8.78646e-05 1.00849e-21 0.000806681 1.60691e-21 0.000879843)
(0.000922329 -9.91045e-05 6.11159e-21 0.000818494 6.63758e-21 0.000873163)
(0.000888692 -0.000105919 -3.7546e-20 0.000827172 -5.33664e-20 0.00086144)
(0.000847364 -0.000107503 -2.74901e-20 0.000830134 -3.21513e-20 0.000843046)
(0.000799178 -0.000103635 6.42547e-20 0.000826526 7.69162e-20 0.000817879)
(0.000747519 -9.45874e-05 -6.82387e-20 0.000815512 -8.4735e-20 0.000787532)
(0.000694335 -8.11876e-05 -3.086e-20 0.000796217 -2.05296e-20 0.00075235)
(0.000641648 -6.45652e-05 -7.33989e-20 0.000769011 -5.49265e-20 0.000713458)
(0.000592384 -4.63118e-05 -1.3686e-20 0.000735711 -2.49036e-20 0.000673378)
(0.000547818 -2.77253e-05 9.19863e-21 0.00069777 -3.31926e-21 0.000633327)
(0.000509152 -1.0003e-05 -5.03843e-20 0.000657269 -6.68234e-20 0.000594947)
(0.000477375 5.89163e-06 1.64258e-19 0.000616755 1.12499e-19 0.000559953)
(0.000452678 1.93878e-05 -5.41633e-20 0.000578291 -9.4722e-21 0.000529353)
(0.000434926 3.04254e-05 -1.33059e-19 0.000543491 -5.81852e-20 0.000503899)
(0.000422117 3.8583e-05 8.84692e-20 0.000512418 1.77065e-21 0.000482211)
(0.000408388 4.36498e-05 -6.45698e-20 0.000480709 -3.72424e-20 0.000458909)
(0.000388195 4.55322e-05 8.81806e-22 0.000442534 4.71427e-20 0.000428485)
(0.000368673 4.66358e-05 -1.59177e-20 0.000407872 -1.25055e-20 0.000400168)
(0.000334565 4.30854e-05 -1.10714e-19 0.000358613 -7.64946e-20 0.000356245)
(0.000270307 3.08516e-05 6.45595e-20 0.000280896 6.2674e-20 0.000281392)
(0.000165433 1.19158e-05 6.23316e-22 0.00016796 -1.92172e-20 0.000168396)
(1.77413e-05 1.26999e-07 6.9832e-23 1.77575e-05 2.13675e-23 1.7762e-05)
(5.15882e-06 9.45901e-09 1.32252e-23 5.15898e-06 -5.92285e-25 5.15957e-06)
(0 0 -0 0 -0 0)
(0 0 0 0 0 0)
(0.00175298 0.000584584 -4.54163e-20 0.00157751 1.03171e-21 0.00167727)
(0.00606301 0.0024852 -3.95134e-19 0.00523371 -2.44504e-19 0.00567269)
(0.019042 0.00777695 2.29811e-20 0.0161235 2.0054e-18 0.0176021)
(0.0570317 0.0227558 -6.62782e-17 0.0467172 5.47162e-18 0.0518057)
(0.0126795 0.00478811 -6.07099e-18 0.00966402 1.01523e-18 0.0111335)
(0.0464669 0.0121287 2.80458e-17 0.0253089 -1.63697e-16 0.0355431)
(0.241381 -0.0985154 5.75656e-16 0.204808 -7.06274e-16 0.221851)
(1.27495 -0.584681 -2.98372e-15 1.32836 1.59034e-16 1.29867)
(3.15503 -1.49058 4.83529e-15 3.52146 1.81654e-15 3.33553)
(0.000973473 -5.79996e-05 3.27632e-21 0.000780259 1.33934e-21 0.000878662)
(0.000975244 -4.04199e-05 -1.18514e-20 0.000766596 -1.70415e-20 0.000871929)
(0.000967271 -1.88386e-05 1.5135e-21 0.000749911 7.71166e-21 0.000859512)
(0.000946614 4.46331e-06 6.46287e-21 0.000731292 -2.15631e-20 0.000839422)
(0.00091152 2.77224e-05 -5.25592e-20 0.000710677 -7.55789e-20 0.000811427)
(0.000790894 -6.1038e-05 4.49953e-21 0.000651716 5.2269e-21 0.000720673)
(0.000783258 -7.19186e-05 -1.13149e-20 0.000665462 -1.36002e-20 0.000723787)
(0.000768847 -8.14814e-05 -9.13711e-22 0.000679516 -1.89063e-21 0.000723269)
(0.000750137 -8.80978e-05 -4.71608e-21 0.000693166 -2.45935e-21 0.000720576)
(0.000725973 -9.09736e-05 3.73928e-20 0.000703303 4.30346e-20 0.000713347)
(0.000696867 -8.99701e-05 2.86744e-20 0.000709712 2.36588e-20 0.000701597)
(0.000664848 -8.51198e-05 3.64597e-22 0.000711217 1.15631e-20 0.000685975)
(0.00063042 -7.68329e-05 7.11433e-20 0.000706169 6.89339e-20 0.000665798)
(0.000594646 -6.58156e-05 -8.8856e-21 0.000694367 -1.18649e-21 0.000641443)
(0.000558772 -5.31296e-05 -2.45732e-20 0.000675788 -1.15385e-20 0.000613626)
(0.000523171 -3.97213e-05 4.82712e-20 0.000650574 1.80141e-20 0.000582546)
(0.00048837 -2.64975e-05 -6.49871e-20 0.000619632 -2.51871e-20 0.000548935)
(0.00045474 -1.4277e-05 -1.14721e-19 0.000584131 -8.9677e-20 0.000513602)
(0.000422336 -3.55638e-06 -4.7932e-20 0.000545261 1.23546e-20 0.000477157)
(0.000391161 5.36868e-06 2.06901e-19 0.000504251 9.34427e-20 0.000440271)
(0.0003599 1.22826e-05 -1.49587e-19 0.000460633 -6.81813e-20 0.000402109)
(0.00032623 1.76146e-05 -3.59852e-20 0.000412335 3.1206e-20 0.000360971)
(0.000291752 2.13136e-05 6.72621e-20 0.000361965 4.38424e-20 0.000318911)
(0.000260291 2.37538e-05 -4.27157e-20 0.000315149 -3.46793e-22 0.000280503)
(0.000232262 2.49198e-05 -1.40532e-20 0.000272654 3.51841e-20 0.000246278)
(0.000211838 2.58403e-05 2.02381e-20 0.000239978 -1.30007e-20 0.000220812)
(0.000190755 2.4377e-05 -1.448e-19 0.000206482 1.40161e-20 0.000194996)
(0.000167624 1.99975e-05 1.1572e-21 0.000172396 -1.94178e-20 0.000168016)
(6.62554e-05 3.14045e-06 -1.25686e-20 6.58311e-05 1.26423e-21 6.58631e-05)
(8.46527e-06 4.97771e-08 5.38683e-23 8.44298e-06 1.5781e-23 8.45242e-06)
(3.75111e-06 9.5193e-09 -3.32006e-24 3.74476e-06 -1.39943e-23 3.74765e-06)
(7.48613e-07 3.74549e-10 -2.78228e-26 7.48329e-07 -2.59872e-27 7.4846e-07)
(0 0 0 0 0 0)
(0 0 0 0 -0 0)
(0 0 0 0 0 0)
(0.00298478 0.00110376 -3.22398e-19 0.00229664 6.65446e-19 0.0026314)
(0.0283726 0.0106813 -3.56437e-17 0.0215328 1.158e-17 0.0248691)
(0.00521492 0.00189879 -1.01291e-17 0.00382122 -6.82697e-18 0.00450699)
(0.073945 0.023484 -9.21294e-17 0.0467491 1.01805e-16 0.0602198)
(0.164339 -0.050004 6.48617e-16 0.100113 -7.43496e-16 0.131746)
(0.000792771 -4.80011e-05 -4.92778e-21 0.000636446 -7.21177e-21 0.000714464)
(0.000789488 -3.41692e-05 1.75307e-21 0.000621755 4.84167e-22 0.000705345)
(0.000779558 -1.72555e-05 4.6997e-21 0.000605178 4.77335e-21 0.000692448)
(0.000761702 1.01132e-06 -4.23479e-21 0.000588406 -1.96853e-20 0.00067507)
(0.000639187 -4.98194e-05 -2.21411e-21 0.000527377 -2.08505e-21 0.000583394)
(0.000633084 -5.84625e-05 6.33228e-23 0.00053845 -5.6127e-22 0.000586109)
(0.000622177 -6.6106e-05 1.57117e-20 0.000550208 1.71351e-20 0.000586485)
(0.000607748 -7.14367e-05 6.15388e-22 0.000561577 -3.30824e-22 0.000585095)
(0.00058932 -7.3886e-05 -5.41821e-20 0.000570604 -5.75502e-20 0.000580521)
(0.000566915 -7.32734e-05 1.24509e-20 0.000576821 1.46757e-20 0.000572511)
(0.00054187 -6.95312e-05 1.21534e-20 0.000579191 7.52738e-21 0.000561343)
(0.000514742 -6.29112e-05 -2.8143e-20 0.000576529 -4.09759e-20 0.000546651)
(0.000486229 -5.38537e-05 -4.20519e-20 0.000568425 -2.48125e-20 0.000528536)
(0.0004574 -4.31087e-05 1.59572e-20 0.000554764 2.10123e-20 0.000507557)
(0.000428837 -3.13952e-05 -9.55835e-20 0.000535713 -7.90987e-20 0.00048405)
(0.000401138 -1.94431e-05 6.36616e-20 0.000511861 4.05281e-20 0.000458607)
(0.000374897 -7.98416e-06 1.29395e-19 0.000484179 7.33455e-20 0.000432038)
(0.000350511 2.47464e-06 1.66814e-19 0.000453809 6.28622e-20 0.000405093)
(0.000328184 1.154e-05 -2.23185e-19 0.000421815 -1.67168e-19 0.000378416)
(0.00030831 1.89997e-05 1.20118e-19 0.000389579 9.1839e-20 0.000352929)
(0.000291587 2.46464e-05 1.28574e-19 0.000359144 2.97147e-20 0.00032975)
(0.000276636 2.82826e-05 8.20698e-20 0.00033036 -1.78886e-20 0.00030792)
(0.000261054 2.99878e-05 4.19478e-20 0.000301523 2.2373e-20 0.000285392)
(0.00024406 3.0061e-05 -5.50563e-21 0.000272621 3.07864e-20 0.000261886)
(0.000226598 2.91152e-05 4.21815e-20 0.000245136 -6.95732e-21 0.000238696)
(0.000210103 2.76634e-05 1.41961e-19 0.000220235 5.97763e-20 0.000217249)
(0.000202731 2.77859e-05 -6.46239e-20 0.000205062 -8.71032e-21 0.000205438)
(0.000182525 2.36934e-05 1.63835e-19 0.000176325 3.86094e-20 0.000180452)
(0.000129758 1.25939e-05 -1.66898e-20 0.000121109 6.50165e-22 0.00012591)
(6.82438e-05 3.71708e-06 -2.44313e-21 6.38631e-05 1.70036e-21 6.61807e-05)
(1.13474e-05 1.12657e-07 2.85627e-23 1.1158e-05 1.23704e-23 1.12565e-05)
(3.82959e-06 1.33234e-08 -1.55982e-23 3.80207e-06 6.62625e-24 3.81636e-06)
(2.20901e-06 4.5968e-09 -1.43318e-23 2.19892e-06 -8.1938e-24 2.20418e-06)
(2.69313e-07 7.07039e-11 -1.83971e-26 2.6917e-07 1.43709e-25 2.69244e-07)
(0 0 0 0 -0 0)
(0 0 0 0 0 0)
(0.000677534 0.000175536 -1.38439e-18 0.000497376 1.30053e-18 0.000587998)
(0.0226137 0.00778651 -1.63273e-17 0.0154671 1.00671e-17 0.0190359)
(0.0170249 0.00570916 -3.71353e-17 0.0113276 1.44295e-18 0.0141856)
(0.000641266 -3.95815e-05 7.01722e-22 0.000515592 2.30602e-21 0.000578732)
(0.000639601 -2.87127e-05 1.07061e-20 0.000504443 9.46109e-21 0.000572086)
(0.000633086 -1.54257e-05 -1.06858e-20 0.000491986 -3.8487e-21 0.000562751)
(0.000620134 -9.56351e-07 2.64168e-20 0.000479052 2.55197e-20 0.000549657)
(0.000529523 -4.16417e-05 -9.91234e-23 0.000437487 -2.88153e-22 0.000483401)
(0.000525895 -4.87236e-05 -6.95121e-22 0.000447649 -5.6893e-22 0.000486769)
(0.000518795 -5.50871e-05 -2.04958e-21 0.000458739 -1.82407e-21 0.000488658)
(0.000509197 -5.9691e-05 -1.13314e-20 0.000469906 -1.04508e-20 0.000489459)
(0.000496774 -6.20811e-05 1.40268e-20 0.000479662 1.56794e-20 0.000488104)
(0.000481445 -6.2118e-05 7.33365e-20 0.000487714 6.2053e-20 0.000484398)
(0.000464251 -5.97107e-05 -4.42358e-21 0.000493259 -1.20987e-20 0.000478537)
(0.000445455 -5.49973e-05 -3.21032e-20 0.000495212 -2.65647e-20 0.000470058)
(0.000425473 -4.82568e-05 8.48516e-20 0.000493168 7.80559e-20 0.000458944)
(0.000405043 -4.00252e-05 3.41583e-20 0.000486827 2.15906e-20 0.000445464)
(0.000384392 -3.08242e-05 -2.78239e-20 0.000475953 -4.74829e-21 0.000429569)
(0.000363882 -2.12083e-05 -1.03702e-19 0.000460791 -5.0344e-20 0.000411568)
(0.000343796 -1.17674e-05 -1.94568e-19 0.000441752 -1.48148e-19 0.000391825)
(0.000324239 -2.96057e-06 -2.24049e-19 0.000419392 -1.33841e-19 0.000370644)
(0.000305264 4.84026e-06 -1.26643e-20 0.000394401 5.11669e-20 0.000348404)
(0.00028693 1.13457e-05 1.11578e-20 0.000367627 -2.42149e-20 0.00032555)
(0.000268615 1.64041e-05 -1.68057e-19 0.000339117 -7.71539e-20 0.000301811)
(0.000249414 2.00383e-05 -1.09367e-19 0.000308417 -4.71124e-20 0.000276713)
(0.000230077 2.2334e-05 2.79028e-20 0.000277054 2.55597e-21 0.000251415)
(0.000211922 2.34525e-05 1.16241e-19 0.000247254 1.56414e-20 0.000227674)
(0.000195913 2.3626e-05 -4.88034e-20 0.000220559 -2.02166e-20 0.000206671)
(0.000183 2.31919e-05 -3.03177e-20 0.000198268 -5.71189e-20 0.000189455)
(0.000174334 2.26963e-05 5.81612e-21 0.000181182 2.14844e-21 0.000176934)
(0.0001704 2.26025e-05 -5.65294e-20 0.000168804 -5.48439e-20 0.000169075)
(0.000161211 2.0701e-05 4.17202e-20 0.000151177 8.96844e-21 0.000155878)
(0.000140075 1.59831e-05 1.30424e-20 0.000124834 -9.33737e-21 0.000132213)
(0.000108015 9.84018e-06 4.64057e-22 9.33997e-05 -3.15654e-21 0.000100508)
(7.15491e-05 4.5005e-06 7.91636e-21 6.20739e-05 2.38832e-21 6.67088e-05)
(4.24706e-05 1.58318e-06 2.60027e-21 3.78469e-05 1.89642e-21 4.0129e-05)
(4.28088e-06 1.57381e-08 3.19869e-22 4.21556e-06 1.70765e-23 4.24799e-06)
(2.04634e-06 2.955e-09 -3.67675e-23 2.0291e-06 4.19899e-23 2.03769e-06)
(7.87789e-08 4.28508e-12 1.47967e-25 7.8752e-08 -1.99503e-25 7.87655e-08)
(0 0 0 0 0 0)
(0 0 -0 0 0 0)
(0.00271415 0.000788316 4.99783e-18 0.00159637 -2.28747e-18 0.00215547)
(0.00053006 -3.33579e-05 -1.83623e-21 0.000426909 -2.82428e-21 0.000478566)
(0.000527997 -2.45769e-05 -5.78026e-21 0.000417102 -4.04196e-21 0.000472508)
(0.000522471 -1.38764e-05 8.98246e-21 0.000406502 3.38181e-21 0.000464602)
(0.000512105 -2.16635e-06 -3.71992e-20 0.000395674 -2.71695e-20 0.000453898)
(0.000441366 -3.50949e-05 -3.49998e-21 0.000365247 -2.55672e-21 0.000403281)
(0.000438829 -4.09193e-05 -1.10348e-20 0.000374076 -9.90387e-21 0.000406523)
(0.0004337 -4.61857e-05 -2.54101e-21 0.000383872 -2.5493e-21 0.000408804)
(0.000426604 -5.00472e-05 3.78308e-20 0.000393831 3.32022e-20 0.000410279)
(0.000417445 -5.21475e-05 -2.52657e-20 0.000402872 -2.2421e-20 0.000410239)
(0.000406036 -5.23737e-05 -2.66127e-20 0.000410766 -2.77084e-20 0.000408475)
(0.00039313 -5.06216e-05 -6.54645e-20 0.000416796 -4.75126e-20 0.000405072)
(0.00037889 -4.69688e-05 -4.48008e-20 0.000420068 -3.12239e-20 0.000399626)
(0.000363608 -4.15965e-05 4.94262e-20 0.000420212 3.22452e-20 0.000392072)
(0.000347782 -3.48863e-05 1.3666e-20 0.00041683 -6.42532e-22 0.000382519)
(0.000331614 -2.72159e-05 2.13423e-20 0.000409685 2.40714e-20 0.00037091)
(0.000315376 -1.90065e-05 1.92544e-19 0.000398826 1.17135e-19 0.000357416)
(0.000299326 -1.07389e-05 -6.5807e-20 0.000384462 -7.35981e-21 0.000342287)
(0.0002836 -2.80834e-06 1.44391e-19 0.000366956 1.24524e-19 0.000325757)
(0.00026835 4.43592e-06 1.92533e-20 0.000346869 1.48455e-20 0.000308195)
(0.000253591 1.06951e-05 -3.40692e-20 0.000324741 -1.66094e-20 0.000289891)
(0.000239434 1.58154e-05 1.02729e-19 0.000301299 7.07918e-20 0.000271273)
(0.000226204 1.96221e-05 3.91113e-20 0.00027773 2.8442e-20 0.000253012)
(0.000213604 2.20646e-05 1.87627e-20 0.000254514 -9.351e-21 0.000235106)
(0.000201273 2.32387e-05 -6.8547e-20 0.000231973 -5.98535e-20 0.000217573)
(0.000189267 2.33819e-05 -7.96853e-22 0.000210649 1.52964e-21 0.000200724)
(0.000178163 2.28197e-05 -3.84402e-20 0.000191304 1.34691e-21 0.000185292)
(0.000168273 2.17645e-05 -5.63309e-20 0.000173916 -3.09355e-21 0.000171475)
(0.000159903 2.04763e-05 1.49117e-20 0.000158427 1.92653e-20 0.000159448)
(0.000151553 1.88419e-05 -2.64798e-21 0.000143306 -1.64368e-20 0.000147656)
(0.000140165 1.6421e-05 -4.70586e-20 0.000126378 1.56087e-21 0.000133406)
(0.000126108 1.35625e-05 -4.68235e-21 0.0001089 1.73332e-21 0.000117536)
(0.000110237 1.05505e-05 1.48057e-21 9.19999e-05 -3.57119e-21 0.000101113)
(9.44991e-05 7.68975e-06 -9.97609e-21 7.68963e-05 1.75447e-21 8.5712e-05)
(6.77926e-05 3.81037e-06 9.18149e-21 5.57695e-05 -4.65649e-20 6.17975e-05)
(4.29106e-05 1.29002e-06 3.51532e-20 3.65615e-05 -6.83372e-21 3.97403e-05)
(1.5884e-06 1.14697e-09 -1.52887e-22 1.57609e-06 -6.66965e-24 1.58225e-06)
(1.08833e-06 -1.90558e-11 9.59417e-23 1.08198e-06 -5.32354e-23 1.08516e-06)
(0 -0 0 0 -0 0)
(0 0 -0 0 0 0)
(0.000441562 -2.83432e-05 2.25749e-21 0.000356262 2.98745e-21 0.000399002)
(0.000439811 -2.11783e-05 1.69841e-20 0.000347997 1.14944e-20 0.00039389)
(0.000435482 -1.2454e-05 -1.089e-20 0.000339215 -1.20956e-20 0.000387452)
(0.000354878 -4.43178e-05 1.58507e-20 0.000342422 1.39392e-20 0.000348654)
(0.000346593 -4.4684e-05 2.25069e-20 0.000350238 1.88423e-20 0.000348397)
(0.000337187 -4.34481e-05 9.51553e-20 0.000356734 7.31661e-20 0.000346949)
(0.000326763 -4.0656e-05 -1.61655e-20 0.000361189 -1.23738e-20 0.00034396)
(0.000315532 -3.6432e-05 3.32227e-20 0.000363298 1.59822e-20 0.000339381)
(0.000303847 -3.10501e-05 -6.56995e-20 0.000362681 -3.80313e-20 0.000333224)
(0.00029182 -2.47918e-05 4.87325e-20 0.000359043 2.69504e-20 0.000325373)
(0.000279645 -1.79791e-05 -1.21693e-19 0.000352344 -9.51349e-20 0.000315906)
(0.000267484 -1.09845e-05 4.26727e-21 0.000342634 1.28799e-20 0.000304942)
(0.000255413 -4.13529e-06 1.94691e-20 0.000330089 -1.05199e-20 0.000292596)
(0.000243505 2.24585e-06 3.24867e-20 0.00031503 6.49914e-21 0.000279062)
(0.000231755 7.88668e-06 5.30014e-21 0.000297846 4.61325e-21 0.000264537)
(0.000220211 1.25918e-05 -3.92782e-20 0.000279104 -3.6652e-20 0.000249312)
(0.000208579 1.62194e-05 -7.57472e-20 0.000259022 -2.38718e-20 0.000233383)
(0.000196708 1.87464e-05 -6.51375e-20 0.000237956 -1.90535e-20 0.000216872)
(0.000184984 2.02284e-05 -4.75832e-20 0.000216914 1.30647e-20 0.000200504)
(0.000174028 2.08327e-05 -3.02083e-20 0.000197032 -3.20489e-21 0.000185146)
(0.000164335 2.07569e-05 -3.23795e-21 0.00017913 1.41018e-20 0.000171437)
(0.000155963 2.01499e-05 3.7018e-20 0.000163192 2.33799e-20 0.000159372)
(0.000147966 1.89705e-05 -2.64716e-21 0.000148125 -1.45889e-20 0.000147939)
(0.000138843 1.71396e-05 -1.99936e-20 0.000132713 -3.08025e-21 0.000135744)
(0.000127556 1.4737e-05 3.49442e-20 0.000116587 1.03308e-20 0.000122041)
(0.000115195 1.22383e-05 4.6894e-21 0.000101204 1.70805e-21 0.00010814)
(0.000103925 1.00985e-05 5.73365e-21 8.83054e-05 -5.91054e-21 9.60562e-05)
(9.48786e-05 8.36672e-06 4.10813e-21 7.82698e-05 -1.99788e-21 8.65511e-05)
(8.72545e-05 6.77591e-06 -1.0209e-19 6.99942e-05 3.43365e-20 7.86256e-05)
(7.90625e-05 5.02468e-06 -8.67979e-20 6.1903e-05 -2.50384e-20 7.04818e-05)
(5.67077e-05 2.172e-06 4.40751e-20 4.55263e-05 9.04798e-20 5.11117e-05)
(2.293e-05 2.14428e-07 -1.77393e-20 2.04717e-05 -2.14726e-20 2.17004e-05)
(1.93069e-06 -7.38925e-10 4.82977e-23 1.90937e-06 -1.3174e-22 1.92002e-06)
(0 -0 0 0 0 0)
(0.000289787 -3.73526e-05 -3.60151e-20 0.000306309 -2.92319e-20 0.000298069)
(0.000281946 -3.51505e-05 -4.32376e-20 0.000311147 -2.78288e-20 0.000296575)
(0.000273446 -3.17454e-05 -9.70697e-21 0.000314148 -1.2007e-20 0.000293822)
(0.000264559 -2.73408e-05 8.00781e-20 0.000314988 5.48911e-20 0.00028981)
(0.000255345 -2.21421e-05 -3.00142e-21 0.000313373 -1.20236e-20 0.000284403)
(0.00024594 -1.63925e-05 3.18176e-20 0.000309202 3.68428e-20 0.000277623)
(0.000236462 -1.0388e-05 3.9689e-21 0.000302437 1.04523e-20 0.000269513)
(0.00022696 -4.40068e-06 3.98677e-20 0.000293134 1.43875e-21 0.000260121)
(0.000217501 1.30364e-06 -2.61064e-20 0.000281499 -1.02664e-20 0.000249591)
(0.000208112 6.4733e-06 -3.01947e-20 0.000267818 -7.85059e-21 0.00023808)
(0.000198788 1.0912e-05 9.02772e-21 0.000252446 1.63626e-20 0.00022576)
(0.000189569 1.44757e-05 7.83639e-20 0.00023589 3.03493e-20 0.000212923)
(0.000180497 1.70731e-05 3.70925e-20 0.000218729 1.10695e-20 0.000199821)
(0.000171558 1.8699e-05 3.77084e-20 0.000201491 1.66406e-20 0.00018672)
(0.000162947 1.94656e-05 8.20725e-21 0.000184821 2.80306e-20 0.000174039)
(0.000154852 1.95301e-05 3.02135e-20 0.000169197 4.1017e-21 0.000162138)
(0.000147395 1.9049e-05 -5.96733e-22 0.000154738 -8.62981e-21 0.000151143)
(0.000139978 1.80166e-05 -4.54402e-20 0.000140771 -1.09369e-20 0.000140439)
(0.000131298 1.63232e-05 4.75351e-22 0.000126241 7.64805e-21 0.000128834)
(0.000120514 1.40372e-05 -2.01111e-20 0.000110928 -1.22387e-20 0.000115758)
(0.000108337 1.15497e-05 -3.43307e-21 9.59833e-05 -2.63039e-21 0.000102154)
(9.67907e-05 9.34052e-06 -1.8154e-20 8.31301e-05 3.8339e-22 8.99388e-05)
(8.73238e-05 7.57285e-06 -1.02283e-20 7.30841e-05 -8.38929e-21 8.01975e-05)
(8.04765e-05 6.20826e-06 1.05202e-19 6.57127e-05 7.71148e-21 7.31002e-05)
(7.53896e-05 5.04413e-06 4.10093e-20 6.00408e-05 2.63529e-20 6.77161e-05)
(7.2658e-05 4.0572e-06 1.7445e-19 5.62087e-05 -8.49492e-20 6.44258e-05)