/*--------------------------------*- C++ -*----------------------------------*\
| =========                 |                                                 |
| \\      /  F ield         | OpenFOAM: The Open Source CFD Toolbox           |
|  \\    /   O peration     | Version:  2306                                  |
|   \\  /    A nd           | Website:  www.openfoam.com                      |
|    \\/     M anipulation  |                                                 |
\*---------------------------------------------------------------------------*/
FoamFile
{
    version     2.0;
    format      ascii;
    arch        "LSB;label=32;scalar=64";
    class       volScalarField;
    location    "375";
    object      turbulenceProperties:nuEff;
}
// * * * * * * * * * * * * * * * * * * * * * * * * * * * * * * * * * * * * * //

dimensions      [0 2 -1 0 0 0 0];

internalField   nonuniform List<scalar> 
1340
(
3.58087e-05
3.95355e-05
4.45233e-05
5.09861e-05
5.931e-05
7.00267e-05
8.38562e-05
0.000101161
0.000122977
0.000150351
0.000185237
0.000230749
0.000291317
0.000374899
0.000495077
0.000673874
0.000955905
0.00140529
0.00222748
0.00359942
0.00691203
0.0127215
0.0339274
0.076062
0.0937465
0.0946723
0.0957076
0.0992378
0.102755
0.104493
0.104471
0.103224
0.100855
0.0974228
0.0928019
3.2583e-05
2.98043e-05
2.70741e-05
2.45841e-05
2.22501e-05
2.01074e-05
1.82448e-05
1.50855e-05
1.49803e-05
1.48854e-05
1.48068e-05
1.47166e-05
1.46338e-05
1.45724e-05
1.45187e-05
1.44956e-05
1.45159e-05
1.45435e-05
1.48185e-05
1.5879e-05
1.86531e-05
2.64125e-05
4.6808e-05
9.39042e-05
0.000172745
0.000325407
0.000598615
0.00133209
0.0028414
0.00712453
0.0205217
0.0395565
0.0633352
0.0925482
0.123674
0.148711
0.16267
0.167972
0.168805
0.167223
0.163871
0.159357
1.51691e-05
1.52823e-05
1.53788e-05
1.55098e-05
1.56441e-05
1.578e-05
1.62662e-05
1.62835e-05
1.63015e-05
1.63208e-05
1.63445e-05
1.6371e-05
1.64014e-05
1.64368e-05
1.64787e-05
1.65277e-05
1.65859e-05
1.66575e-05
1.67371e-05
1.68791e-05
1.68857e-05
1.65049e-05
1.46792e-05
1.3914e-05
1.04701e-05
0.000107583
0.000264992
1.54403e-05
0.0014842
0.000535567
0.00290635
0.00739825
0.0154607
0.0308786
0.0572917
0.0937385
0.132794
0.164531
0.184949
0.196786
0.203473
1.62529e-05
1.62339e-05
1.62193e-05
1.61978e-05
1.61792e-05
1.61593e-05
1.60862e-05
1.60838e-05
1.60831e-05
1.60835e-05
1.60844e-05
1.60871e-05
1.6092e-05
1.60987e-05
1.61088e-05
1.61224e-05
1.61404e-05
1.61639e-05
1.61945e-05
1.62331e-05
1.62844e-05
1.63463e-05
1.61988e-05
1.59696e-05
1.4249e-05
1.12225e-05
1.00152e-05
1.00831e-05
1e-05
9.43021e-05
0.000614212
0.00159747
0.000446862
0.00132422
0.00417142
0.0136136
0.035677
0.0728501
0.118888
0.161385
0.193262
1.60868e-05
1.60892e-05
1.60923e-05
1.60945e-05
1.60983e-05
1.61112e-05
1.61118e-05
1.6112e-05
1.61129e-05
1.61145e-05
1.61165e-05
1.61191e-05
1.61227e-05
1.61274e-05
1.61336e-05
1.61417e-05
1.61522e-05
1.61661e-05
1.6184e-05
1.62081e-05
1.62361e-05
1.62816e-05
1.62816e-05
1.6522e-05
1.63514e-05
1.48297e-05
1.18769e-05
1.00182e-05
1.00012e-05
1e-05
1e-05
7.55875e-05
0.000291299
0.000926402
0.00307416
0.000933684
0.00811745
0.0295835
0.0707514
0.124158
1.61113e-05
1.61099e-05
1.61106e-05
1.61095e-05
1.61104e-05
1.61051e-05
1.61049e-05
1.61052e-05
1.61054e-05
1.61055e-05
1.61059e-05
1.61065e-05
1.61073e-05
1.61085e-05
1.61102e-05
1.61125e-05
1.61157e-05
1.61201e-05
1.6126e-05
1.61341e-05
1.6145e-05
1.61605e-05
1.61706e-05
1.62347e-05
1.63144e-05
1.65938e-05
1.63737e-05
1.52592e-05
1.08099e-05
1.00128e-05
1.00025e-05
1.00001e-05
1e-05
1e-05
1e-05
0.00020935
0.00186025
0.000387148
0.00875737
0.0380833
1.61046e-05
1.61039e-05
1.61048e-05
1.61046e-05
1.61053e-05
1.61055e-05
1.61057e-05
1.61058e-05
1.61059e-05
1.6106e-05
1.61061e-05
1.61065e-05
1.6107e-05
1.61077e-05
1.61087e-05
1.61102e-05
1.61122e-05
1.61151e-05
1.61191e-05
1.61247e-05
1.61322e-05
1.61399e-05
1.61486e-05
1.61642e-05
1.62259e-05
1.6333e-05
1.69176e-05
1.65798e-05
1.41096e-05
1.15239e-05
1.00601e-05
1.00088e-05
1.00034e-05
1e-05
1e-05
1e-05
6.57937e-05
0.002065
0.00165793
1.61049e-05
1.61038e-05
1.61042e-05
1.61039e-05
1.61049e-05
1.6105e-05
1.61053e-05
1.61053e-05
1.61051e-05
1.6105e-05
1.61048e-05
1.61047e-05
1.61046e-05
1.61046e-05
1.61047e-05
1.6105e-05
1.61053e-05
1.61059e-05
1.61068e-05
1.61082e-05
1.61102e-05
1.61126e-05
1.61147e-05
1.61197e-05
1.61186e-05
1.61173e-05
1.62088e-05
1.66296e-05
1.69409e-05
1.66557e-05
1.54719e-05
1.348e-05
1.17442e-05
1.00256e-05
1.0007e-05
1e-05
1e-05
1e-05
0.000409039
1.61043e-05
1.61032e-05
1.61032e-05
1.61027e-05
1.61048e-05
1.6105e-05
1.61051e-05
1.61049e-05
1.61047e-05
1.61045e-05
1.61042e-05
1.61041e-05
1.6104e-05
1.61039e-05
1.6104e-05
1.61041e-05
1.61043e-05
1.61047e-05
1.61053e-05
1.61063e-05
1.61077e-05
1.61096e-05
1.61113e-05
1.61135e-05
1.61151e-05
1.61132e-05
1.60878e-05
1.61347e-05
1.63461e-05
1.66363e-05
1.69621e-05
1.70948e-05
1.69296e-05
1.48727e-05
1.26845e-05
1.00055e-05
1.0003e-05
1e-05
1e-05
1.61043e-05
1.6103e-05
1.61026e-05
1.61042e-05
1.61039e-05
1.61036e-05
1.61034e-05
1.61032e-05
1.6103e-05
1.61028e-05
1.61027e-05
1.61026e-05
1.61026e-05
1.61025e-05
1.61025e-05
1.61026e-05
1.61027e-05
1.61029e-05
1.61034e-05
1.61051e-05
1.6108e-05
1.61028e-05
1.60856e-05
1.60928e-05
1.61504e-05
1.62994e-05
1.65593e-05
1.69088e-05
1.72737e-05
1.74409e-05
1.5063e-05
1.11772e-05
1.00109e-05
1e-05
1.6103e-05
1.61028e-05
1.61026e-05
1.61025e-05
1.61024e-05
1.61024e-05
1.61023e-05
1.61024e-05
1.61025e-05
1.61027e-05
1.6103e-05
1.61035e-05
1.61041e-05
1.61046e-05
1.61052e-05
1.61063e-05
1.61078e-05
1.61039e-05
1.60936e-05
1.60848e-05
1.60892e-05
1.61318e-05
1.62281e-05
1.64672e-05
1.68497e-05
1.75827e-05
1.71491e-05
1.30344e-05
1.00154e-05
1.61022e-05
1.6102e-05
1.61019e-05
1.61018e-05
1.61018e-05
1.61017e-05
1.61017e-05
1.61018e-05
1.61019e-05
1.6102e-05
1.61022e-05
1.61026e-05
1.61032e-05
1.6104e-05
1.61054e-05
1.61067e-05
1.61057e-05
1.61018e-05
1.60942e-05
1.60873e-05
1.6082e-05
1.61067e-05
1.61673e-05
1.64851e-05
1.71792e-05
1.77684e-05
1.38997e-05
1.61017e-05
1.61016e-05
1.61016e-05
1.61015e-05
1.61015e-05
1.61016e-05
1.61016e-05
1.61017e-05
1.61019e-05
1.61022e-05
1.61025e-05
1.61029e-05
1.61034e-05
1.61041e-05
1.61052e-05
1.61063e-05
1.6107e-05
1.61069e-05
1.61051e-05
1.60992e-05
1.60885e-05
1.60687e-05
1.60665e-05
1.62335e-05
1.67794e-05
1.84759e-05
1.61014e-05
1.61014e-05
1.61014e-05
1.61014e-05
1.61014e-05
1.61014e-05
1.61015e-05
1.61016e-05
1.61017e-05
1.6102e-05
1.61023e-05
1.61027e-05
1.61033e-05
1.6104e-05
1.61049e-05
1.61061e-05
1.61075e-05
1.61092e-05
1.61108e-05
1.61095e-05
1.61022e-05
1.60732e-05
1.60456e-05
1.60703e-05
1.66456e-05
1.61013e-05
1.61013e-05
1.61013e-05
1.61013e-05
1.61014e-05
1.61014e-05
1.61015e-05
1.61016e-05
1.61017e-05
1.61019e-05
1.61021e-05
1.61024e-05
1.61028e-05
1.61034e-05
1.61041e-05
1.6105e-05
1.61061e-05
1.61076e-05
1.61099e-05
1.61127e-05
1.61151e-05
1.61132e-05
1.60794e-05
1.61016e-05
1.56275e-05
1.61013e-05
1.61013e-05
1.61014e-05
1.61014e-05
1.61015e-05
1.61015e-05
1.61016e-05
1.61017e-05
1.61018e-05
1.6102e-05
1.61023e-05
1.61026e-05
1.6103e-05
1.61036e-05
1.61043e-05
1.61052e-05
1.61064e-05
1.61078e-05
1.61102e-05
1.61127e-05
1.61204e-05
1.61035e-05
1.61646e-05
1.58114e-05
1.61014e-05
1.61014e-05
1.61015e-05
1.61015e-05
1.61016e-05
1.61017e-05
1.61017e-05
1.61019e-05
1.6102e-05
1.61022e-05
1.61025e-05
1.61028e-05
1.61033e-05
1.61039e-05
1.61047e-05
1.61057e-05
1.61068e-05
1.61083e-05
1.61098e-05
1.6115e-05
1.61135e-05
1.61248e-05
1.61882e-05
1.61014e-05
1.61015e-05
1.61016e-05
1.61016e-05
1.61017e-05
1.61018e-05
1.61018e-05
1.61019e-05
1.61021e-05
1.61022e-05
1.61024e-05
1.61027e-05
1.61031e-05
1.61036e-05
1.61043e-05
1.61052e-05
1.61062e-05
1.61074e-05
1.61088e-05
1.611e-05
1.6119e-05
1.60839e-05
1.6311e-05
1.61016e-05
1.61017e-05
1.61017e-05
1.61018e-05
1.61018e-05
1.61019e-05
1.6102e-05
1.61021e-05
1.61022e-05
1.61024e-05
1.61027e-05
1.6103e-05
1.61034e-05
1.6104e-05
1.61047e-05
1.61057e-05
1.61067e-05
1.61083e-05
1.61078e-05
1.61188e-05
1.60815e-05
1.62445e-05
1.61017e-05
1.61018e-05
1.61018e-05
1.61019e-05
1.6102e-05
1.6102e-05
1.61021e-05
1.61022e-05
1.61023e-05
1.61025e-05
1.61027e-05
1.61029e-05
1.61033e-05
1.61038e-05
1.61044e-05
1.61052e-05
1.61061e-05
1.61076e-05
1.61075e-05
1.61147e-05
1.60975e-05
1.61525e-05
1.61019e-05
1.61019e-05
1.6102e-05
1.61021e-05
1.61022e-05
1.61022e-05
1.61023e-05
1.61024e-05
1.61026e-05
1.61027e-05
1.6103e-05
1.61033e-05
1.61037e-05
1.61042e-05
1.61049e-05
1.61057e-05
1.61069e-05
1.61076e-05
1.61105e-05
1.61101e-05
1.61042e-05
1.6102e-05
1.6102e-05
1.61021e-05
1.61022e-05
1.61023e-05
1.61024e-05
1.61024e-05
1.61026e-05
1.61027e-05
1.61028e-05
1.6103e-05
1.61033e-05
1.61036e-05
1.61041e-05
1.61047e-05
1.61055e-05
1.61064e-05
1.61075e-05
1.61081e-05
1.61139e-05
1.60945e-05
1.61022e-05
1.61023e-05
1.61023e-05
1.61024e-05
1.61025e-05
1.61026e-05
1.61027e-05
1.61028e-05
1.61029e-05
1.61031e-05
1.61033e-05
1.61037e-05
1.61041e-05
1.61046e-05
1.61053e-05
1.6106e-05
1.61072e-05
1.61074e-05
1.61127e-05
1.61003e-05
1.61023e-05
1.61024e-05
1.61025e-05
1.61026e-05
1.61026e-05
1.61027e-05
1.61028e-05
1.61029e-05
1.61031e-05
1.61032e-05
1.61034e-05
1.61037e-05
1.61041e-05
1.61045e-05
1.61051e-05
1.61058e-05
1.61068e-05
1.61073e-05
1.61104e-05
1.61069e-05
1.61024e-05
1.61025e-05
1.61026e-05
1.61027e-05
1.61028e-05
1.61029e-05
1.6103e-05
1.61031e-05
1.61032e-05
1.61034e-05
1.61035e-05
1.61038e-05
1.61041e-05
1.61045e-05
1.6105e-05
1.61057e-05
1.61065e-05
1.61073e-05
1.61088e-05
1.61099e-05
1.61026e-05
1.61027e-05
1.61028e-05
1.61029e-05
1.6103e-05
1.61031e-05
1.61033e-05
1.61034e-05
1.61035e-05
1.61037e-05
1.61039e-05
1.61042e-05
1.61045e-05
1.6105e-05
1.61056e-05
1.61063e-05
1.61072e-05
1.61081e-05
1.61102e-05
1.61027e-05
1.61029e-05
1.6103e-05
1.61031e-05
1.61032e-05
1.61033e-05
1.61034e-05
1.61035e-05
1.61037e-05
1.61038e-05
1.6104e-05
1.61043e-05
1.61046e-05
1.6105e-05
1.61055e-05
1.61062e-05
1.6107e-05
1.61078e-05
1.61096e-05
1.61029e-05
1.6103e-05
1.61031e-05
1.61032e-05
1.61034e-05
1.61035e-05
1.61036e-05
1.61037e-05
1.61039e-05
1.6104e-05
1.61042e-05
1.61044e-05
1.61047e-05
1.61051e-05
1.61056e-05
1.61061e-05
1.61069e-05
1.61076e-05
1.6109e-05
1.61031e-05
1.61032e-05
1.61034e-05
1.61035e-05
1.61036e-05
1.61038e-05
1.61039e-05
1.6104e-05
1.61042e-05
1.61044e-05
1.61046e-05
1.61048e-05
1.61052e-05
1.61056e-05
1.61061e-05
1.61068e-05
1.61076e-05
1.61086e-05
1.61032e-05
1.61034e-05
1.61035e-05
1.61037e-05
1.61038e-05
1.61039e-05
1.61041e-05
1.61042e-05
1.61044e-05
1.61045e-05
1.61047e-05
1.6105e-05
1.61053e-05
1.61057e-05
1.61062e-05
1.61068e-05
1.61075e-05
1.61084e-05
1.61034e-05
1.61035e-05
1.61037e-05
1.61038e-05
1.6104e-05
1.61041e-05
1.61043e-05
1.61044e-05
1.61046e-05
1.61047e-05
1.61049e-05
1.61052e-05
1.61054e-05
1.61058e-05
1.61062e-05
1.61068e-05
1.61075e-05
1.61083e-05
1.61036e-05
1.61038e-05
1.6104e-05
1.61041e-05
1.61043e-05
1.61044e-05
1.61046e-05
1.61047e-05
1.61049e-05
1.61051e-05
1.61053e-05
1.61056e-05
1.61059e-05
1.61064e-05
1.61069e-05
1.61075e-05
1.61083e-05
1.61038e-05
1.6104e-05
1.61041e-05
1.61043e-05
1.61045e-05
1.61046e-05
1.61048e-05
1.61049e-05
1.61051e-05
1.61053e-05
1.61055e-05
1.61058e-05
1.61061e-05
1.61065e-05
1.6107e-05
1.61075e-05
1.61083e-05
1.61039e-05
1.61041e-05
1.61043e-05
1.61045e-05
1.61046e-05
1.61048e-05
1.6105e-05
1.61051e-05
1.61053e-05
1.61055e-05
1.61057e-05
1.6106e-05
1.61063e-05
1.61066e-05
1.61071e-05
1.61076e-05
1.61042e-05
1.61044e-05
1.61046e-05
1.61048e-05
1.6105e-05
1.61052e-05
1.61053e-05
1.61055e-05
1.61057e-05
1.61059e-05
1.61062e-05
1.61065e-05
1.61068e-05
1.61072e-05
1.61077e-05
1.61044e-05
1.61046e-05
1.61048e-05
1.6105e-05
1.61052e-05
1.61054e-05
1.61055e-05
1.61057e-05
1.61059e-05
1.61061e-05
1.61064e-05
1.61067e-05
1.6107e-05
1.61074e-05
1.61079e-05
1.61045e-05
1.61047e-05
1.61049e-05
1.61051e-05
1.61053e-05
1.61055e-05
1.61057e-05
1.61059e-05
1.61061e-05
1.61063e-05
1.61066e-05
1.61069e-05
1.61072e-05
1.61076e-05
1.6108e-05
1.61046e-05
1.61048e-05
1.61051e-05
1.61053e-05
1.61055e-05
1.61057e-05
1.61059e-05
1.61061e-05
1.61063e-05
1.61066e-05
1.61068e-05
1.61071e-05
1.61074e-05
1.61078e-05
1.61082e-05
1.61047e-05
1.6105e-05
1.61052e-05
1.61055e-05
1.61057e-05
1.61059e-05
1.61061e-05
1.61063e-05
1.61065e-05
1.61068e-05
1.6107e-05
1.61073e-05
1.61076e-05
1.6108e-05
1.61084e-05
1.61051e-05
1.61053e-05
1.61056e-05
1.61058e-05
1.61061e-05
1.61063e-05
1.61065e-05
1.61067e-05
1.6107e-05
1.61072e-05
1.61075e-05
1.61078e-05
1.61082e-05
1.61086e-05
1.61052e-05
1.61055e-05
1.61057e-05
1.6106e-05
1.61062e-05
1.61064e-05
1.61067e-05
1.61069e-05
1.61072e-05
1.61074e-05
1.61077e-05
1.6108e-05
1.61084e-05
1.61088e-05
1.61053e-05
1.61056e-05
1.61058e-05
1.61061e-05
1.61063e-05
1.61066e-05
1.61068e-05
1.61071e-05
1.61073e-05
1.61076e-05
1.61079e-05
1.61082e-05
1.61086e-05
1.6109e-05
1.61053e-05
1.61056e-05
1.61059e-05
1.61062e-05
1.61065e-05
1.61067e-05
1.6107e-05
1.61072e-05
1.61075e-05
1.61078e-05
1.61081e-05
1.61084e-05
1.61088e-05
1.61092e-05
1.61054e-05
1.61057e-05
1.6106e-05
1.61063e-05
1.61066e-05
1.61068e-05
1.61071e-05
1.61074e-05
1.61077e-05
1.6108e-05
1.61083e-05
1.61086e-05
1.6109e-05
1.61094e-05
1.61057e-05
1.6106e-05
1.61063e-05
1.61066e-05
1.61069e-05
1.61072e-05
1.61075e-05
1.61078e-05
1.61081e-05
1.61084e-05
1.61088e-05
1.61092e-05
1.61096e-05
1.61057e-05
1.6106e-05
1.61063e-05
1.61066e-05
1.61069e-05
1.61072e-05
1.61075e-05
1.61078e-05
1.61082e-05
1.61085e-05
1.61089e-05
1.61093e-05
1.61056e-05
1.6106e-05
1.61063e-05
1.61066e-05
1.61069e-05
1.61072e-05
1.61076e-05
1.61079e-05
1.61082e-05
1.61086e-05
1.6109e-05
1.61094e-05
1.61055e-05
1.61059e-05
1.61062e-05
1.61065e-05
1.61069e-05
1.61072e-05
1.61075e-05
1.61079e-05
1.61082e-05
1.61086e-05
1.6109e-05
1.61095e-05
1.61053e-05
1.61057e-05
1.61061e-05
1.61064e-05
1.61068e-05
1.61071e-05
1.61075e-05
1.61078e-05
1.61082e-05
1.61086e-05
1.6109e-05
1.61095e-05
1.61055e-05
1.61059e-05
1.61062e-05
1.61066e-05
1.61069e-05
1.61073e-05
1.61077e-05
1.61081e-05
1.61085e-05
1.6109e-05
1.61094e-05
1.61052e-05
1.61056e-05
1.6106e-05
1.61063e-05
1.61067e-05
1.61071e-05
1.61075e-05
1.61079e-05
1.61084e-05
1.61088e-05
1.61093e-05
1.61048e-05
1.61052e-05
1.61056e-05
1.6106e-05
1.61064e-05
1.61068e-05
1.61072e-05
1.61077e-05
1.61081e-05
1.61086e-05
1.61091e-05
1.61044e-05
1.61048e-05
1.61052e-05
1.61056e-05
1.6106e-05
1.61064e-05
1.61069e-05
1.61073e-05
1.61078e-05
1.61083e-05
1.61089e-05
1.61038e-05
1.61043e-05
1.61047e-05
1.61051e-05
1.61055e-05
1.6106e-05
1.61064e-05
1.61069e-05
1.61074e-05
1.61079e-05
1.61085e-05
1.61032e-05
1.61036e-05
1.61041e-05
1.61045e-05
1.61049e-05
1.61054e-05
1.61059e-05
1.61064e-05
1.61069e-05
1.61075e-05
1.61024e-05
1.61029e-05
1.61033e-05
1.61038e-05
1.61042e-05
1.61047e-05
1.61052e-05
1.61057e-05
1.61063e-05
1.61069e-05
1.6102e-05
1.61025e-05
1.6103e-05
1.61034e-05
1.61039e-05
1.61044e-05
1.6105e-05
1.61055e-05
1.61061e-05
1.61011e-05
1.61016e-05
1.6102e-05
1.61025e-05
1.6103e-05
1.61036e-05
1.61041e-05
1.61047e-05
1.61053e-05
1.61e-05
1.61005e-05
1.6101e-05
1.61015e-05
1.6102e-05
1.61026e-05
1.61031e-05
1.61037e-05
1.61044e-05
1.60987e-05
1.60992e-05
1.60997e-05
1.61002e-05
1.61008e-05
1.61014e-05
1.6102e-05
1.61026e-05
1.61032e-05
1.60971e-05
1.60976e-05
1.60981e-05
1.60987e-05
1.60993e-05
1.60999e-05
1.61005e-05
1.61012e-05
1.61019e-05
1.60952e-05
1.60957e-05
1.60962e-05
1.60967e-05
1.60973e-05
1.6098e-05
1.60986e-05
1.60993e-05
1.60929e-05
1.60934e-05
1.60939e-05
1.60945e-05
1.60951e-05
1.60957e-05
1.60964e-05
1.60971e-05
1.60906e-05
1.6091e-05
1.60915e-05
1.6092e-05
1.60926e-05
1.60932e-05
1.60939e-05
1.60946e-05
1.60886e-05
1.6089e-05
1.60895e-05
1.60901e-05
1.60907e-05
1.60913e-05
1.6092e-05
1.60861e-05
1.60865e-05
1.6087e-05
1.60875e-05
1.60881e-05
1.60887e-05
1.60893e-05
1.60835e-05
1.60839e-05
1.60844e-05
1.60849e-05
1.60855e-05
1.60861e-05
1.60867e-05
1.6081e-05
1.60814e-05
1.60818e-05
1.60824e-05
1.60829e-05
1.60835e-05
1.60842e-05
1.60786e-05
1.6079e-05
1.60794e-05
1.60799e-05
1.60805e-05
1.6081e-05
1.60763e-05
1.60766e-05
1.6077e-05
1.60774e-05
1.60779e-05
1.60784e-05
1.6074e-05
1.60743e-05
1.60746e-05
1.60749e-05
1.60754e-05
1.60758e-05
1.60718e-05
1.6072e-05
1.60722e-05
1.60725e-05
1.60728e-05
1.60732e-05
1.60706e-05
1.60706e-05
1.60707e-05
1.60708e-05
1.60709e-05
1.6071e-05
1.6072e-05
1.6072e-05
1.60719e-05
1.60718e-05
1.60716e-05
1.60715e-05
1.60747e-05
1.60747e-05
1.60746e-05
1.60744e-05
1.60743e-05
1.60778e-05
1.60778e-05
1.60778e-05
1.60776e-05
1.60776e-05
1.6081e-05
1.60812e-05
1.60813e-05
1.60815e-05
1.60816e-05
1.60844e-05
1.60847e-05
1.60847e-05
1.60846e-05
1.60869e-05
1.60877e-05
1.60887e-05
1.60898e-05
1.60983e-05
1.60989e-05
1.60995e-05
1.60997e-05
)
;

boundaryField
{
    inlet
    {
        type            calculated;
        value           nonuniform List<scalar> 4(1.60983e-05 1.60989e-05 1.60995e-05 1.60997e-05);
    }
    outlet
    {
        type            calculated;
        value           nonuniform List<scalar> 0();
    }
    walls
    {
        type            calculated;
        value           nonuniform List<scalar> 
42
(
0.00323604
0.00346244
0.00369876
0.00388638
0.00406223
0.00421687
0.00433733
0.00442986
0.00449691
0.00453664
0.00455635
0.00455455
0.00452589
0.00447257
0.00439035
0.00427715
0.00412652
0.00393203
0.00368024
0.00335984
0.0029541
0.00246287
0.0019331
0.00153436
0.00137067
0.00144198
0.00159928
0.00176265
0.00189555
0.00198342
0.00203065
0.00204742
0.00202924
0.00197912
0.00189434
0.00299583
0.00272399
0.00242521
0.00205554
0.00165357
0.00121849
0.000779933
)
;
    }
    frontAndBack
    {
        type            empty;
    }
    procBoundary5to0
    {
        type            processor;
        value           nonuniform List<scalar> 4(1.61047e-05 1.61042e-05 1.6103e-05 1.61023e-05);
    }
    procBoundary5to1
    {
        type            processor;
        value           nonuniform List<scalar> 
13
(
1.69614e-05
1.59111e-05
1.59111e-05
1.61416e-05
1.61003e-05
1.61003e-05
1.61092e-05
1.61063e-05
1.61063e-05
1.61055e-05
1.61044e-05
1.61021e-05
1.61021e-05
)
;
    }
    procBoundary5to4
    {
        type            processor;
        value           nonuniform List<scalar> 
95
(
1.61048e-05
1.61048e-05
1.61045e-05
1.61045e-05
1.61037e-05
1.61033e-05
1.61033e-05
1.61025e-05
1.61023e-05
1.61023e-05
1.61018e-05
1.61018e-05
1.61014e-05
1.61014e-05
1.61013e-05
1.61012e-05
1.61012e-05
1.61013e-05
1.61013e-05
1.61014e-05
1.61015e-05
1.61015e-05
1.61016e-05
1.61018e-05
1.61018e-05
1.61019e-05
1.61021e-05
1.61021e-05
1.61022e-05
1.61023e-05
1.61025e-05
1.61025e-05
1.61026e-05
1.61027e-05
1.6103e-05
1.6103e-05
1.61031e-05
1.61032e-05
1.61035e-05
1.61035e-05
1.61036e-05
1.61037e-05
1.6104e-05
1.6104e-05
1.61042e-05
1.61043e-05
1.61044e-05
1.61045e-05
1.61048e-05
1.61048e-05
1.61049e-05
1.6105e-05
1.6105e-05
1.61051e-05
1.61054e-05
1.61054e-05
1.61053e-05
1.61053e-05
1.61051e-05
1.61049e-05
1.61051e-05
1.61051e-05
1.61048e-05
1.61044e-05
1.61039e-05
1.61034e-05
1.61027e-05
1.6102e-05
1.61016e-05
1.61016e-05
1.61006e-05
1.60995e-05
1.60982e-05
1.60966e-05
1.60947e-05
1.60925e-05
1.60901e-05
1.60881e-05
1.60881e-05
1.60857e-05
1.60831e-05
1.60806e-05
1.60783e-05
1.6076e-05
1.60737e-05
1.60717e-05
1.60706e-05
1.60721e-05
1.60747e-05
1.60747e-05
1.60778e-05
1.60808e-05
1.60842e-05
1.6086e-05
1.60976e-05
)
;
    }
    procBoundary5to6
    {
        type            processor;
        value           nonuniform List<scalar> 
86
(
0.0869212
0.153855
0.206351
0.215389
0.175089
0.0932869
0.0215056
0.000863357
0.000199643
1e-05
1e-05
1.00097e-05
1.22995e-05
1.99057e-05
1.92734e-05
1.64255e-05
1.52618e-05
1.53058e-05
1.57409e-05
1.60757e-05
1.61947e-05
1.61856e-05
1.61462e-05
1.61195e-05
1.61095e-05
1.61083e-05
1.61092e-05
1.61098e-05
1.61098e-05
1.61096e-05
1.61093e-05
1.61092e-05
1.61091e-05
1.61083e-05
1.61083e-05
1.61084e-05
1.61085e-05
1.61086e-05
1.61087e-05
1.61089e-05
1.61091e-05
1.61093e-05
1.61095e-05
1.61097e-05
1.61099e-05
1.611e-05
1.61097e-05
1.61097e-05
1.61098e-05
1.61099e-05
1.61099e-05
1.61099e-05
1.61098e-05
1.61097e-05
1.61094e-05
1.61091e-05
1.6108e-05
1.6108e-05
1.61075e-05
1.61068e-05
1.61059e-05
1.6105e-05
1.61039e-05
1.61026e-05
1.61001e-05
1.61001e-05
1.60979e-05
1.60953e-05
1.60927e-05
1.609e-05
1.60874e-05
1.60849e-05
1.60817e-05
1.60817e-05
1.6079e-05
1.60763e-05
1.60735e-05
1.60712e-05
1.60714e-05
1.60742e-05
1.60775e-05
1.60817e-05
1.60849e-05
1.60849e-05
1.60905e-05
1.61e-05
)
;
    }
}


// ************************************************************************* //
