/*--------------------------------*- C++ -*----------------------------------*\
| =========                 |                                                 |
| \\      /  F ield         | OpenFOAM: The Open Source CFD Toolbox           |
|  \\    /   O peration     | Version:  2306                                  |
|   \\  /    A nd           | Website:  www.openfoam.com                      |
|    \\/     M anipulation  |                                                 |
\*---------------------------------------------------------------------------*/
FoamFile
{
    version     2.0;
    format      ascii;
    arch        "LSB;label=32;scalar=64";
    class       volScalarField;
    location    "375";
    object      turbulenceProperties:k;
}
// * * * * * * * * * * * * * * * * * * * * * * * * * * * * * * * * * * * * * //

dimensions      [0 2 -2 0 0 0 0];

internalField   nonuniform List<scalar> 
1340
(
0.0199786
0.0232539
0.0274186
0.0330508
0.0396738
0.0480544
0.05871
0.0718523
0.0885072
0.109759
0.137259
0.173644
0.222547
0.289916
0.385887
0.526377
0.742787
1.07628
1.66186
2.57329
4.62774
7.73363
18.1078
35.343
39.1613
37.4642
36.8146
37.4903
38.3268
38.5391
38.0297
36.8953
35.0604
32.5496
29.3079
0.0170391
0.0146487
0.0119554
0.00963879
0.00744381
0.00545925
0.00385226
0.00310763
0.00309046
0.00305512
0.002967
0.00283059
0.00267375
0.00248862
0.00228039
0.00207427
0.00187211
0.00167937
0.00154525
0.00152593
0.0016738
0.00216405
0.00336958
0.00632475
0.0130698
0.0313902
0.076786
0.227369
0.627528
1.92784
6.18463
12.1035
18.1992
23.9277
27.9876
28.7965
26.4212
22.5174
18.5654
15.36
12.9032
11.0157
0.00307936
0.00303753
0.00295214
0.00282558
0.00265255
0.00242444
0.00208396
0.00206751
0.00202089
0.00194962
0.00187508
0.00179318
0.00171038
0.00163593
0.00157189
0.00152223
0.00148381
0.00146174
0.00145584
0.00146817
0.00147206
0.00143202
0.00120494
0.00108773
0.000360294
0.00641775
0.0125508
0.000634261
0.0068519
0.0158868
0.17887
0.638813
1.63167
3.69648
7.32815
12.1115
16.4324
18.5571
18.1413
16.2888
14.1321
0.0021002
0.00209762
0.00209206
0.00205482
0.00198875
0.0018778
0.00175897
0.0017626
0.00175375
0.00173915
0.00170902
0.00166417
0.00160827
0.00153847
0.00145869
0.00137046
0.00127565
0.00117558
0.00107123
0.000964463
0.000856257
0.000743071
0.000627366
0.000534444
0.000414004
0.000226896
2.93714e-05
8.41036e-05
0
0.00398885
0.021106
0.0429098
0.00776797
0.00902767
0.0413339
0.366153
1.59596
4.34217
8.13178
11.2808
12.6362
0.00174009
0.00171151
0.00166664
0.0016126
0.00154484
0.00131961
0.00131728
0.00130699
0.00128865
0.00126027
0.00122179
0.00117528
0.00112145
0.00106206
0.00100074
0.000939458
0.000880684
0.000827041
0.000780161
0.000741158
0.000708373
0.000674003
0.000629607
0.000588357
0.000524711
0.000416297
0.000250894
2.66304e-05
7.73869e-06
0
0
0.00250388
0.00848471
0.0263838
0.0777773
0.0167385
0.0536594
0.33402
1.95099
5.00601
0.0013162
0.00130688
0.00128835
0.00125866
0.00121681
0.00108164
0.00108625
0.00108582
0.00108194
0.00107131
0.00105409
0.00103102
0.00100119
0.000965228
0.000924093
0.000878145
0.000828468
0.000776237
0.000722377
0.000667841
0.000611321
0.000549768
0.000486313
0.000427971
0.000375597
0.000336314
0.000296117
0.000254018
9.89748e-05
1.26803e-05
5.62176e-06
1.1227e-06
0
0
0
0.00395641
0.0373872
0.00677157
0.0904569
0.198099
0.00107184
0.00105829
0.00103859
0.00101259
0.000874979
0.000878822
0.000879435
0.00087721
0.000870222
0.000858123
0.000841202
0.000818961
0.000791595
0.000759861
0.0007243
0.000685803
0.000645557
0.000604707
0.000564207
0.000525409
0.000490241
0.000457458
0.000423984
0.000389284
0.000355215
0.000323793
0.000306616
0.000269651
0.000188388
9.91438e-05
1.68809e-05
5.72401e-06
3.30605e-06
4.03863e-07
0
0
0.000881454
0.0285584
0.0212691
0.000867795
0.000858065
0.000843912
0.000824422
0.000725206
0.000730156
0.000733096
0.000734281
0.000732271
0.000726778
0.000718024
0.000705363
0.000688793
0.000668667
0.000644957
0.00061812
0.000588687
0.000557138
0.000524034
0.000490054
0.000454771
0.000417272
0.000379273
0.000343425
0.000311571
0.000285362
0.000266225
0.00025414
0.000234133
0.000198561
0.000150962
0.000100166
6.02232e-05
6.37221e-06
3.05656e-06
1.18148e-07
0
0
0.00323299
0.000717768
0.000708803
0.000696787
0.000680839
0.000604947
0.000609714
0.000613188
0.000615357
0.000615278
0.000612638
0.000607499
0.000599292
0.000587946
0.000573565
0.000556104
0.000535809
0.000513038
0.000488157
0.000461707
0.000434112
0.000406003
0.000378473
0.000351611
0.00032541
0.00030032
0.000277379
0.000256832
0.000238889
0.000221258
0.000199974
0.000176272
0.000151675
0.000128554
9.26798e-05
5.96062e-05
2.37337e-06
1.62773e-06
0
0
0.000598413
0.000590849
0.000581074
0.000522977
0.000522614
0.000520435
0.000515956
0.000509105
0.000499876
0.000488118
0.000473947
0.00045753
0.00043905
0.000418799
0.000397069
0.000374313
0.000350492
0.000325768
0.000301201
0.000278103
0.000257451
0.000239264
0.000222015
0.00020365
0.000183092
0.00016227
0.000144143
0.00012985
0.000117937
0.000105724
7.66728e-05
3.2551e-05
2.88004e-06
0
0.000447083
0.000444834
0.000440708
0.000434679
0.000426561
0.000416383
0.000404206
0.000390108
0.000374296
0.000357005
0.000338497
0.000319191
0.000299523
0.000279884
0.000260903
0.000243093
0.000226638
0.000210594
0.000193187
0.0001736
0.000153237
0.00013493
0.000120303
0.000109645
0.000101573
9.66462e-05
8.47559e-05
4.96341e-05
3.2418e-06
0.000383483
0.000379864
0.000374565
0.000367569
0.000358868
0.000348483
0.000336512
0.000323097
0.000308437
0.000292834
0.0002764
0.000259496
0.000242869
0.000227089
0.000212295
0.000197825
0.000182293
0.00016489
0.00014652
0.000129352
0.000114883
0.000103282
9.37979e-05
8.75575e-05
8.45331e-05
8.14651e-05
5.26911e-05
0.000332572
0.000329233
0.000324499
0.000318322
0.000310671
0.000301601
0.000291195
0.000279569
0.000266982
0.000253627
0.000239758
0.000225829
0.000212258
0.000199138
0.000186058
0.000172085
0.000156609
0.000140267
0.000124713
0.000111239
9.99505e-05
9.03064e-05
8.22442e-05
7.65852e-05
7.44218e-05
7.81449e-05
0.000290061
0.000287008
0.000282765
0.000277279
0.000270554
0.000262625
0.000253554
0.000243539
0.000232709
0.000221213
0.000209392
0.000197662
0.000186106
0.000174435
0.000161987
0.000148299
0.000133829
0.000119868
0.000107542
9.70315e-05
8.79595e-05
8.00301e-05
7.33497e-05
6.83939e-05
6.72271e-05
0.00025597
0.000254153
0.000251346
0.00024749
0.000242559
0.000236569
0.000229556
0.000221628
0.000212928
0.000203555
0.000193691
0.000183694
0.000173639
0.000163322
0.000152294
0.000140218
0.000127422
0.000114911
0.000103655
9.39162e-05
8.54565e-05
7.80977e-05
7.16325e-05
6.67697e-05
6.00845e-05
0.000225363
0.000223624
0.000221007
0.000217492
0.000213056
0.000207712
0.00020151
0.00019459
0.000186983
0.000178791
0.000170308
0.00016162
0.000152592
0.000142899
0.0001323
0.000121036
0.000109883
9.96525e-05
9.06545e-05
8.27583e-05
7.58902e-05
6.98366e-05
6.53499e-05
5.9489e-05
0.000199116
0.000197446
0.000195015
0.000191795
0.000187778
0.000182985
0.000177524
0.000171412
0.000164688
0.000157562
0.000150128
0.000142301
0.000133851
0.000124597
0.000114722
0.000104826
9.55816e-05
8.73092e-05
7.99652e-05
7.35147e-05
6.78785e-05
6.33178e-05
5.97641e-05
0.000177449
0.000176479
0.000174876
0.000172604
0.000169649
0.000166002
0.000161741
0.000156875
0.00015141
0.000145468
0.000139163
0.000132443
0.000125134
0.000117104
0.000108491
9.97566e-05
9.14535e-05
8.38946e-05
7.71048e-05
7.10608e-05
6.5811e-05
6.12222e-05
5.86007e-05
0.0001578
0.000156829
0.000155295
0.000153175
0.000150456
0.000147173
0.000143343
0.000138946
0.000134038
0.000128742
0.000123028
0.000116758
0.000109832
0.000102357
9.46897e-05
8.72781e-05
8.04153e-05
7.41739e-05
6.8551e-05
6.36367e-05
5.92612e-05
5.64487e-05
0.000141175
0.000140676
0.000139709
0.000138244
0.000136263
0.000133768
0.00013079
0.000127295
0.000123288
0.00011888
0.000114064
0.000108728
0.000102795
9.63454e-05
8.96515e-05
8.30757e-05
7.68841e-05
7.11774e-05
6.59827e-05
6.13735e-05
5.73248e-05
5.41399e-05
0.000126202
0.000125665
0.000124707
0.000123308
0.000121457
0.000119186
0.000116444
0.000113211
0.000109579
0.000105558
0.000101057
9.60095e-05
9.04758e-05
8.4665e-05
7.88667e-05
7.33165e-05
6.81282e-05
6.33565e-05
5.90482e-05
5.53049e-05
5.1991e-05
0.000113238
0.000113023
0.000112458
0.000111521
0.000110188
0.000108484
0.000106362
0.000103788
0.00010083
9.75041e-05
9.37423e-05
8.94818e-05
8.47644e-05
7.97508e-05
7.46709e-05
6.97272e-05
6.50392e-05
6.06776e-05
5.66797e-05
5.3188e-05
4.99701e-05
0.000101651
0.000101383
0.000100802
9.98797e-05
9.86323e-05
9.70215e-05
9.50055e-05
9.26258e-05
8.99046e-05
8.67897e-05
8.32215e-05
7.92267e-05
7.49285e-05
7.05067e-05
6.61331e-05
6.1923e-05
5.79553e-05
5.427e-05
5.0999e-05
4.7971e-05
9.14165e-05
9.13735e-05
9.10656e-05
9.04697e-05
8.95891e-05
8.83946e-05
8.68465e-05
8.49571e-05
8.27569e-05
8.02015e-05
7.7237e-05
7.3878e-05
7.02175e-05
6.63935e-05
6.25503e-05
5.87933e-05
5.5204e-05
5.18253e-05
4.87667e-05
4.5933e-05
8.22117e-05
8.23333e-05
8.22339e-05
8.18924e-05
8.13015e-05
8.04458e-05
7.92808e-05
7.78023e-05
7.60443e-05
7.39727e-05
7.15335e-05
6.87315e-05
6.56355e-05
6.23513e-05
5.89954e-05
5.56644e-05
5.24353e-05
4.9353e-05
4.65085e-05
4.385e-05
7.41715e-05
7.42283e-05
7.40817e-05
7.37191e-05
7.31335e-05
7.2284e-05
7.11494e-05
6.97667e-05
6.81059e-05
6.61168e-05
6.37967e-05
6.11962e-05
5.83955e-05
5.54857e-05
5.25505e-05
4.96616e-05
4.68645e-05
4.42301e-05
4.17361e-05
6.68059e-05
6.69768e-05
6.69773e-05
6.67937e-05
6.64218e-05
6.58255e-05
6.49773e-05
6.39072e-05
6.25931e-05
6.09879e-05
5.90836e-05
5.69155e-05
5.4543e-05
5.20372e-05
4.94672e-05
4.68967e-05
4.43703e-05
4.19453e-05
3.9607e-05
6.01603e-05
6.0411e-05
6.05215e-05
6.04758e-05
6.02721e-05
5.98768e-05
5.92627e-05
5.84505e-05
5.74261e-05
5.61467e-05
5.45979e-05
5.28047e-05
5.0809e-05
4.86648e-05
4.64292e-05
4.41557e-05
4.18822e-05
3.9662e-05
3.7478e-05
5.44722e-05
5.46616e-05
5.47196e-05
5.46445e-05
5.4408e-05
5.39821e-05
5.33835e-05
5.25985e-05
5.15901e-05
5.03427e-05
4.88716e-05
4.72055e-05
4.53831e-05
4.34495e-05
4.14499e-05
3.94162e-05
3.73891e-05
3.53608e-05
4.9102e-05
4.93462e-05
4.948e-05
4.95022e-05
4.93889e-05
4.91136e-05
4.86869e-05
4.80986e-05
4.73158e-05
4.63221e-05
4.5125e-05
4.37435e-05
4.2205e-05
4.05429e-05
3.87926e-05
3.69816e-05
3.51412e-05
3.32638e-05
4.42478e-05
4.45269e-05
4.47148e-05
4.4809e-05
4.47898e-05
4.46334e-05
4.43445e-05
4.39149e-05
4.33174e-05
4.25353e-05
4.15696e-05
4.04324e-05
3.91417e-05
3.7721e-05
3.61976e-05
3.45916e-05
3.29278e-05
3.1198e-05
4.01612e-05
4.0386e-05
4.05316e-05
4.05827e-05
4.05172e-05
4.03367e-05
4.00345e-05
3.95878e-05
3.89798e-05
3.82086e-05
3.72794e-05
3.6203e-05
3.49951e-05
3.36751e-05
3.22581e-05
3.07598e-05
2.91738e-05
3.62098e-05
3.64568e-05
3.66368e-05
3.67388e-05
3.67426e-05
3.66458e-05
3.64442e-05
3.61181e-05
3.56527e-05
3.50426e-05
3.42889e-05
3.33966e-05
3.23751e-05
3.12367e-05
2.9991e-05
2.86483e-05
2.72002e-05
3.26331e-05
3.28915e-05
3.30937e-05
3.32311e-05
3.32858e-05
3.32525e-05
3.31294e-05
3.29001e-05
3.25496e-05
3.20717e-05
3.14646e-05
3.07292e-05
2.98689e-05
2.88911e-05
2.78004e-05
2.66019e-05
2.96605e-05
2.98744e-05
3.00348e-05
3.01253e-05
3.01395e-05
3.00764e-05
2.99221e-05
2.96634e-05
2.92933e-05
2.88078e-05
2.82046e-05
2.74833e-05
2.66463e-05
2.5695e-05
2.46293e-05
2.67334e-05
2.69517e-05
2.71252e-05
2.72399e-05
2.72882e-05
2.72698e-05
2.71734e-05
2.69873e-05
2.67042e-05
2.63185e-05
2.58258e-05
2.5223e-05
2.4509e-05
2.36818e-05
2.27381e-05
2.40839e-05
2.43006e-05
2.44798e-05
2.4609e-05
2.4681e-05
2.46954e-05
2.46426e-05
2.4513e-05
2.42991e-05
2.39946e-05
2.35936e-05
2.30913e-05
2.24839e-05
2.17667e-05
2.09339e-05
2.16872e-05
2.18985e-05
2.20775e-05
2.22138e-05
2.23009e-05
2.23379e-05
2.23176e-05
2.22312e-05
2.20719e-05
2.18328e-05
2.15075e-05
2.10899e-05
2.05741e-05
1.99539e-05
1.92217e-05
1.95206e-05
1.9723e-05
1.98976e-05
2.00357e-05
2.01315e-05
2.01836e-05
2.01866e-05
2.01328e-05
2.00159e-05
1.98291e-05
1.95657e-05
1.92188e-05
1.87815e-05
1.82463e-05
1.76046e-05
1.77544e-05
1.7922e-05
1.80581e-05
1.81574e-05
1.82186e-05
1.82374e-05
1.82075e-05
1.81233e-05
1.7978e-05
1.77648e-05
1.74768e-05
1.71064e-05
1.66454e-05
1.60847e-05
1.5975e-05
1.61333e-05
1.62643e-05
1.63631e-05
1.64289e-05
1.64582e-05
1.64457e-05
1.63861e-05
1.62733e-05
1.61008e-05
1.58615e-05
1.55478e-05
1.51513e-05
1.46627e-05
1.43673e-05
1.45151e-05
1.46392e-05
1.47351e-05
1.48022e-05
1.48376e-05
1.48369e-05
1.47956e-05
1.47082e-05
1.45684e-05
1.43692e-05
1.41034e-05
1.37628e-05
1.33382e-05
1.29163e-05
1.3053e-05
1.31687e-05
1.32598e-05
1.33255e-05
1.33639e-05
1.33712e-05
1.33433e-05
1.32753e-05
1.31616e-05
1.29956e-05
1.27703e-05
1.24779e-05
1.21095e-05
1.16075e-05
1.17327e-05
1.18396e-05
1.19247e-05
1.19874e-05
1.20264e-05
1.20386e-05
1.20203e-05
1.19672e-05
1.18743e-05
1.17354e-05
1.15442e-05
1.12933e-05
1.09745e-05
1.05419e-05
1.06396e-05
1.0718e-05
1.07766e-05
1.08145e-05
1.08293e-05
1.08177e-05
1.0776e-05
1.06996e-05
1.0583e-05
1.04204e-05
1.02052e-05
9.92967e-06
9.46871e-06
9.55721e-06
9.6286e-06
9.68251e-06
9.71831e-06
9.73403e-06
9.72702e-06
9.6939e-06
9.63055e-06
9.53221e-06
9.39375e-06
9.20907e-06
8.50247e-06
8.58201e-06
8.64632e-06
8.69523e-06
8.72828e-06
8.74386e-06
8.73975e-06
8.71302e-06
8.66005e-06
8.57678e-06
8.45854e-06
8.29999e-06
7.63303e-06
7.70415e-06
7.76165e-06
7.80545e-06
7.83535e-06
7.85009e-06
7.84775e-06
7.82577e-06
7.78109e-06
7.71019e-06
7.60898e-06
7.47279e-06
6.85142e-06
6.91469e-06
6.96571e-06
7.0045e-06
7.03113e-06
7.04454e-06
7.04312e-06
7.02471e-06
6.98666e-06
6.92597e-06
6.83913e-06
6.72204e-06
6.20526e-06
6.25024e-06
6.28435e-06
6.3077e-06
6.31952e-06
6.31847e-06
6.30274e-06
6.27004e-06
6.21779e-06
6.14304e-06
6.04232e-06
5.56828e-06
5.60771e-06
5.63742e-06
5.65765e-06
5.66783e-06
5.66683e-06
5.65308e-06
5.62469e-06
5.57949e-06
5.51495e-06
5.42817e-06
4.99678e-06
5.03114e-06
5.05685e-06
5.07418e-06
5.08273e-06
5.08153e-06
5.06927e-06
5.04442e-06
5.00512e-06
4.94925e-06
4.87434e-06
4.48437e-06
4.51418e-06
4.53624e-06
4.55091e-06
4.55788e-06
4.55637e-06
4.54529e-06
4.52335e-06
4.48901e-06
4.44051e-06
4.37575e-06
4.02519e-06
4.05089e-06
4.06971e-06
4.082e-06
4.08753e-06
4.08568e-06
4.07552e-06
4.05599e-06
4.02585e-06
3.98359e-06
3.9275e-06
3.61391e-06
3.63601e-06
3.65197e-06
3.66213e-06
3.66634e-06
3.66412e-06
3.65472e-06
3.63723e-06
3.61063e-06
3.5737e-06
3.24575e-06
3.26469e-06
3.27811e-06
3.28641e-06
3.28947e-06
3.2869e-06
3.2781e-06
3.26234e-06
3.23876e-06
3.20638e-06
2.93256e-06
2.94377e-06
2.95043e-06
2.95249e-06
2.94961e-06
2.9413e-06
2.927e-06
2.906e-06
2.87751e-06
2.63566e-06
2.64495e-06
2.65018e-06
2.65136e-06
2.64822e-06
2.64035e-06
2.62729e-06
2.60849e-06
2.5833e-06
2.37014e-06
2.37779e-06
2.38182e-06
2.38228e-06
2.37893e-06
2.37147e-06
2.35951e-06
2.34262e-06
2.32027e-06
2.13224e-06
2.13849e-06
2.14154e-06
2.14141e-06
2.13795e-06
2.13091e-06
2.11997e-06
2.10479e-06
2.08495e-06
1.91828e-06
1.92335e-06
1.92559e-06
1.92504e-06
1.92159e-06
1.91501e-06
1.90508e-06
1.89149e-06
1.87393e-06
1.72532e-06
1.72938e-06
1.73095e-06
1.73008e-06
1.72668e-06
1.72058e-06
1.71158e-06
1.69947e-06
1.55172e-06
1.55489e-06
1.55585e-06
1.55467e-06
1.55127e-06
1.54554e-06
1.53734e-06
1.52649e-06
1.39643e-06
1.39879e-06
1.39917e-06
1.39765e-06
1.39417e-06
1.38866e-06
1.38102e-06
1.37114e-06
1.2601e-06
1.25994e-06
1.25805e-06
1.25443e-06
1.24902e-06
1.24174e-06
1.23255e-06
1.13666e-06
1.13599e-06
1.13374e-06
1.12995e-06
1.12454e-06
1.11746e-06
1.10876e-06
1.02798e-06
1.02721e-06
1.02501e-06
1.02157e-06
1.01652e-06
1.00988e-06
1.00212e-06
9.42204e-07
9.41184e-07
9.38764e-07
9.35528e-07
9.30541e-07
9.23924e-07
9.16939e-07
8.72727e-07
8.71308e-07
8.68355e-07
8.64684e-07
8.59184e-07
8.51868e-07
8.07195e-07
8.06028e-07
8.03311e-07
7.99844e-07
7.94629e-07
7.87493e-07
7.42834e-07
7.41145e-07
7.3785e-07
7.3378e-07
7.28231e-07
7.20492e-07
6.8312e-07
6.82225e-07
6.79816e-07
6.76463e-07
6.71878e-07
6.65586e-07
6.18493e-07
6.15406e-07
6.10763e-07
6.05511e-07
5.99435e-07
5.90168e-07
5.76963e-07
5.77204e-07
5.75907e-07
5.72705e-07
5.68983e-07
5.65553e-07
4.90313e-07
4.83732e-07
4.78242e-07
4.71714e-07
4.57538e-07
5.19307e-07
5.22179e-07
5.19072e-07
5.18169e-07
5.27803e-07
4.08661e-07
4.09519e-07
4.1564e-07
4.13111e-07
3.96847e-07
6.19938e-07
6.37251e-07
6.35608e-07
6.43064e-07
6.76848e-07
6.94094e-07
7.1446e-07
7.43612e-07
9.91268e-07
1.04912e-06
1.01152e-06
9.60321e-07
)
;

boundaryField
{
    inlet
    {
        type            calculated;
        value           nonuniform List<scalar> 4(4.378e-06 4.65852e-06 4.71826e-06 4.77338e-06);
    }
    outlet
    {
        type            calculated;
        value           nonuniform List<scalar> 0();
    }
    walls
    {
        type            calculated;
        value           uniform 0;
    }
    frontAndBack
    {
        type            empty;
    }
    procBoundary5to0
    {
        type            processor;
        value           nonuniform List<scalar> 4(0.000509988 0.000504005 0.000497414 0.0004892);
    }
    procBoundary5to1
    {
        type            processor;
        value           nonuniform List<scalar> 
13
(
0.00288495
0.00215684
0.00215684
0.00172484
0.00145611
0.00145611
0.00115752
0.000979219
0.000979219
0.000799138
0.000660854
0.000568093
0.000568093
)
;
    }
    procBoundary5to4
    {
        type            processor;
        value           nonuniform List<scalar> 
95
(
0.000514661
0.000518558
0.000521574
0.000521574
0.000446726
0.000447602
0.000447602
0.00038629
0.000385606
0.000385606
0.000334554
0.000334554
0.000291968
0.000291968
0.000256865
0.000226294
0.000226294
0.000200062
0.000200062
0.000177821
0.000158251
0.000158251
0.000141239
0.00012635
0.00012635
0.000113128
0.000101626
0.000101626
9.12182e-05
8.18898e-05
7.39315e-05
7.39315e-05
6.64846e-05
5.97842e-05
5.41672e-05
5.41672e-05
4.87621e-05
4.38899e-05
3.9861e-05
3.9861e-05
3.59e-05
3.23231e-05
2.93987e-05
2.93987e-05
2.64748e-05
2.3833e-05
2.14473e-05
1.92938e-05
1.75631e-05
1.75631e-05
1.57959e-05
1.42014e-05
1.27637e-05
1.14681e-05
1.0428e-05
1.0428e-05
9.36568e-06
8.40983e-06
7.55019e-06
6.77763e-06
6.14934e-06
6.14934e-06
5.51907e-06
4.95361e-06
4.44663e-06
3.99229e-06
3.58533e-06
3.22095e-06
2.9164e-06
2.9164e-06
2.62191e-06
2.35851e-06
2.12242e-06
1.91001e-06
1.71844e-06
1.54602e-06
1.39178e-06
1.25847e-06
1.25847e-06
1.13568e-06
1.02725e-06
9.41713e-07
8.7253e-07
8.06795e-07
7.42896e-07
6.82526e-07
6.20206e-07
5.74924e-07
4.9562e-07
4.9562e-07
5.15131e-07
4.06094e-07
6.0461e-07
6.51198e-07
9.89339e-07
)
;
    }
    procBoundary5to6
    {
        type            processor;
        value           nonuniform List<scalar> 
86
(
25.4121
9.5186
12.1072
12.4523
8.11011
1.85436
0.126101
0.00848505
0.000911537
0
0
2.52728e-06
3.85379e-05
7.99667e-05
7.50916e-05
6.02393e-05
5.27209e-05
5.12914e-05
5.16453e-05
5.13036e-05
4.9877e-05
4.78592e-05
4.56957e-05
4.35661e-05
4.14909e-05
3.94385e-05
3.73949e-05
3.53613e-05
3.33418e-05
3.13505e-05
2.93977e-05
2.74882e-05
2.56325e-05
2.52863e-05
2.52863e-05
2.344e-05
2.16671e-05
1.99741e-05
1.83655e-05
1.68439e-05
1.54117e-05
1.40697e-05
1.28177e-05
1.16544e-05
1.05777e-05
9.58477e-06
8.97135e-06
8.97135e-06
8.09514e-06
7.29639e-06
6.57022e-06
5.91166e-06
5.31577e-06
4.77755e-06
4.29237e-06
3.85561e-06
3.52502e-06
3.52502e-06
3.16403e-06
2.84054e-06
2.55093e-06
2.29181e-06
2.05992e-06
1.85194e-06
1.68397e-06
1.68397e-06
1.51277e-06
1.35884e-06
1.22134e-06
1.09835e-06
9.92783e-07
9.08604e-07
8.44562e-07
8.44562e-07
7.80182e-07
7.12716e-07
6.58285e-07
5.81993e-07
5.57605e-07
4.51035e-07
5.17641e-07
4.03076e-07
6.96362e-07
6.96362e-07
7.47005e-07
1.26412e-06
)
;
    }
}


// ************************************************************************* //
