/*--------------------------------*- C++ -*----------------------------------*\
| =========                 |                                                 |
| \\      /  F ield         | OpenFOAM: The Open Source CFD Toolbox           |
|  \\    /   O peration     | Version:  2306                                  |
|   \\  /    A nd           | Website:  www.openfoam.com                      |
|    \\/     M anipulation  |                                                 |
\*---------------------------------------------------------------------------*/
FoamFile
{
    version     2.0;
    format      ascii;
    arch        "LSB;label=32;scalar=64";
    class       volVectorField;
    location    "375";
    object      U;
}
// * * * * * * * * * * * * * * * * * * * * * * * * * * * * * * * * * * * * * //

dimensions      [0 1 -1 0 0 0 0];

internalField   nonuniform List<vector> 
1340
(
(0.227259 27.6474 6.74553e-18)
(1.96452 29.9436 -5.62227e-17)
(4.13734 32.162 2.12838e-16)
(6.63501 33.8949 -4.10323e-16)
(9.39112 35.2251 3.14657e-16)
(12.3374 36.1105 2.00368e-16)
(15.3189 36.4527 -3.61647e-16)
(18.2398 36.2862 1.2424e-15)
(21.0152 35.676 -8.39342e-16)
(23.562 34.6568 -5.80905e-16)
(25.8435 33.324 3.00299e-16)
(27.8128 31.7265 1.67795e-15)
(29.423 29.8611 6.52298e-16)
(30.6577 27.7679 5.9781e-16)
(31.4739 25.4622 1.43022e-15)
(31.8437 22.9751 1.24024e-15)
(31.6968 20.3078 -2.52893e-15)
(30.9555 17.4967 -8.97278e-15)
(29.4858 14.5541 6.68078e-15)
(27.1596 11.5444 -3.12737e-16)
(23.8363 8.53199 -1.30839e-15)
(19.5658 5.67722 -2.42351e-15)
(14.8895 3.22828 8.27141e-15)
(11.4424 1.44086 -2.1489e-15)
(10.0593 0.261293 1.47843e-15)
(10.6959 -0.3588 -3.16033e-15)
(12.1156 -0.599655 1.894e-16)
(13.624 -0.71992 -1.37276e-15)
(14.8679 -0.871419 -5.4519e-15)
(15.6915 -1.08665 -7.68092e-15)
(16.1252 -1.34684 7.72203e-15)
(16.263 -1.62023 2.69343e-15)
(16.062 -1.86598 1.10766e-15)
(15.555 -2.06056 3.71532e-14)
(14.7255 -2.17959 -5.57746e-15)
(-1.14277 25.1969 7.66807e-18)
(-2.24866 22.4364 1.16855e-17)
(-3.01415 19.3296 -9.05173e-17)
(-3.31661 15.7334 8.6052e-17)
(-2.99645 12.0186 -2.86078e-16)
(-2.02394 8.321 7.07912e-16)
(-0.486857 4.952 1.88653e-15)
(7.154 23.9926 -3.54615e-18)
(9.04442 25.7196 -2.16015e-17)
(11.3478 27.2838 1.50548e-17)
(14.0036 28.5803 6.469e-17)
(16.8652 29.5496 -3.30538e-16)
(19.9376 30.1314 -1.76099e-16)
(23.1082 30.2792 -5.82006e-16)
(26.2443 30.0142 1.14481e-16)
(29.2922 29.3463 -4.87104e-16)
(32.1689 28.3272 -8.47213e-17)
(34.8184 27.0098 1.21731e-15)
(37.2336 25.4926 -1.62228e-15)
(39.4235 23.8657 -9.2797e-16)
(41.3996 22.1615 -1.68271e-17)
(43.149 20.4111 5.61698e-16)
(44.6311 18.6529 -1.17259e-15)
(45.8269 16.9105 -6.08665e-16)
(46.6995 15.2129 3.57361e-15)
(47.1878 13.5674 -5.87833e-16)
(47.1792 11.9785 -1.20879e-15)
(46.4799 10.3969 -1.70154e-15)
(44.8607 8.7239 1.47969e-15)
(42.1798 6.82175 -2.19522e-15)
(38.6408 4.75779 -2.05708e-16)
(35.1068 2.86612 1.1865e-15)
(31.9542 1.34547 1.13926e-15)
(29.1547 0.239811 8.55133e-17)
(26.7734 -0.550496 5.74372e-16)
(24.9184 -1.15064 1.34895e-15)
(23.5663 -1.62226 1.07687e-15)
(22.5399 -1.99173 -1.04671e-15)
(21.6144 -2.27798 -1.23112e-16)
(20.6908 -2.50239 1.44794e-14)
(19.6849 -2.67112 -1.0964e-14)
(18.5064 -2.76933 1.73627e-15)
(5.55905 22.1534 3.08196e-17)
(4.17397 20.1087 -9.58584e-17)
(2.96015 17.7149 -4.79999e-16)
(2.03954 14.9947 4.47322e-16)
(1.59171 12.037 6.06244e-16)
(1.70546 8.98136 -2.53136e-17)
(8.30381 22.1 2.14484e-18)
(9.64536 23.6257 9.99956e-18)
(11.2778 25.1117 5.09782e-18)
(13.1539 26.4857 -5.36124e-17)
(15.2214 27.629 1.44076e-16)
(17.4795 28.5183 2.15197e-16)
(19.8537 29.1146 5.84725e-16)
(22.2695 29.3806 2.4605e-17)
(24.6699 29.316 6.10353e-16)
(26.997 28.9331 -1.19569e-15)
(29.1977 28.2516 -1.30083e-16)
(31.2378 27.2965 -3.34416e-16)
(33.0903 26.0979 1.51169e-15)
(34.738 24.6884 -3.33281e-16)
(36.1791 23.1024 -4.38906e-16)
(37.473 21.3509 -6.31106e-16)
(38.6499 19.464 1.95107e-15)
(39.7298 17.4981 -1.55499e-15)
(40.7732 15.5027 -9.2466e-16)
(41.8255 13.5516 2.37267e-15)
(42.948 11.6859 -1.87404e-15)
(44.06 9.89394 -3.57746e-16)
(44.8718 8.03559 -4.50337e-16)
(44.9386 6.02686 6.38552e-16)
(44.1678 4.02988 -3.69364e-16)
(42.8139 2.28467 5.95318e-16)
(41.1 0.902816 -1.14563e-16)
(39.0756 -0.18291 -8.58169e-17)
(36.6985 -1.07314 1.53222e-15)
(34.0093 -1.80061 2.17498e-16)
(31.218 -2.36344 -3.02812e-15)
(28.6114 -2.76888 3.15959e-15)
(26.3415 -3.03918 -7.69289e-16)
(24.3383 -3.1976 1.52562e-16)
(22.4109 -3.25659 -3.40879e-15)
(7.20961 20.4928 3.83897e-18)
(6.25001 18.7381 -8.46936e-17)
(5.45262 16.6729 2.92094e-16)
(4.8123 14.3625 2.30231e-16)
(4.48411 11.8816 -6.55618e-16)
(4.5137 9.29964 -6.21884e-16)
(10.905 20.2247 1.19694e-17)
(12.1614 21.5196 -1.40365e-17)
(13.6681 22.7809 1.64236e-17)
(15.4018 23.934 -2.30643e-17)
(17.3163 24.8888 -6.94268e-17)
(19.4177 25.6265 -1.78961e-16)
(21.6502 26.103 -2.87119e-16)
(23.9533 26.2834 1.03982e-16)
(26.2805 26.1597 6.91532e-16)
(28.5768 25.7338 -4.5539e-16)
(30.7912 25.0186 -7.66574e-16)
(32.884 24.0373 -1.16233e-15)
(34.8198 22.824 1.31936e-15)
(36.5719 21.4161 2.22662e-15)
(38.1298 19.8463 -1.98816e-15)
(39.4539 18.1665 -8.587e-16)
(40.4988 16.4348 1.08875e-16)
(41.2605 14.6877 1.7458e-15)
(41.7489 12.9623 1.00845e-16)
(42.0125 11.2932 -2.52588e-15)
(42.1495 9.70748 3.3623e-15)
(42.3135 8.19907 -1.57223e-15)
(42.6088 6.6843 3.38231e-16)
(42.8888 5.07485 1.34215e-15)
(42.8487 3.4366 -8.00912e-16)
(42.3989 1.95661 6.69958e-16)
(41.7003 0.742369 7.42005e-17)
(40.9068 -0.253999 -3.7865e-16)
(40.0009 -1.12322 -3.02746e-16)
(38.8203 -1.89614 -4.3255e-16)
(37.176 -2.55644 4.84169e-16)
(34.9669 -3.07698 -4.98653e-15)
(32.2944 -3.43964 -5.14391e-15)
(29.4555 -3.64603 1.44345e-15)
(26.6819 -3.70866 5.69041e-15)
(9.84987 18.8699 -5.22586e-17)
(8.90316 17.4011 -2.10352e-17)
(8.07694 15.6683 3.58809e-16)
(7.38574 13.7112 -1.58913e-16)
(6.9604 11.5993 9.40709e-16)
(12.4356 18.8259 -2.29756e-17)
(13.4919 19.9752 7.3063e-18)
(14.7659 21.1172 7.23652e-19)
(16.2229 22.1897 6.15113e-17)
(17.8232 23.1101 1.11953e-16)
(19.5873 23.8735 -3.03338e-16)
(21.4686 24.4404 4.33678e-16)
(23.42 24.7755 1.92195e-16)
(25.411 24.8688 5.37702e-16)
(27.3951 24.7137 2.80597e-16)
(29.3311 24.3116 -8.40401e-17)
(31.1842 23.6745 9.63136e-16)
(32.9204 22.8213 -2.01714e-15)
(34.5126 21.7734 1.41183e-16)
(35.9401 20.5548 2.09186e-15)
(37.1824 19.189 -1.03649e-15)
(38.2517 17.6717 1.07028e-15)
(39.1424 16.0258 -2.17233e-16)
(39.8471 14.2844 6.94767e-17)
(40.3588 12.4939 2.5615e-15)
(40.6839 10.6939 -1.75388e-15)
(40.8487 8.91501 7.15453e-17)
(40.8959 7.14933 -3.84965e-16)
(40.8183 5.39097 -1.76713e-15)
(40.523 3.71132 6.44724e-16)
(39.9713 2.2309 -2.16213e-15)
(39.2744 1.00721 -8.18003e-17)
(38.5783 -0.00821949 2.69909e-16)
(37.9469 -0.895488 -2.23082e-16)
(37.3603 -1.68998 4.06224e-15)
(36.7511 -2.39462 1.55221e-15)
(35.9826 -3.00518 -7.21999e-16)
(34.8192 -3.50408 -4.10872e-15)
(33.0166 -3.85307 6.53949e-15)
(30.5253 -4.01645 -4.82164e-15)
(11.5428 17.63 1.21307e-17)
(10.7393 16.3466 -1.52231e-16)
(10.0176 14.8318 5.98192e-17)
(9.38604 13.1243 3.82071e-17)
(8.96063 11.2881 -1.34033e-15)
(13.9267 17.5919 1.59561e-17)
(14.8866 18.609 -2.81703e-17)
(16.0396 19.6254 5.55605e-18)
(17.3538 20.5827 4.95953e-18)
(18.7905 21.4076 -7.22745e-17)
(20.3794 22.1005 -8.80747e-17)
(22.0804 22.6233 -2.73519e-17)
(23.8554 22.9439 -4.37137e-16)
(25.6839 23.0489 -3.89779e-17)
(27.5276 22.9273 2.02768e-16)
(29.3513 22.5747 -3.4597e-16)
(31.1251 21.9945 4.24869e-16)
(32.8158 21.1969 1.45031e-15)
(34.3953 20.1968 7.55183e-16)
(35.8392 19.0126 -2.99582e-15)
(37.128 17.6658 2.00449e-15)
(38.2345 16.1965 6.3994e-16)
(39.1312 14.6554 -1.34229e-15)
(39.808 13.0824 5.86729e-16)
(40.2723 11.5069 1.44959e-16)
(40.5419 9.94918 -5.46235e-16)
(40.6419 8.40667 2.87148e-15)
(40.5818 6.84806 1.30936e-16)
(40.3345 5.25441 2.35831e-15)
(39.8535 3.68855 -5.06623e-16)
(39.1403 2.26996 2.25456e-16)
(38.2855 1.07371 7.259e-17)
(37.4044 0.0775306 -2.38014e-17)
(36.5569 -0.784189 -1.27601e-15)
(35.7528 -1.54792 -1.03619e-15)
(35.0018 -2.22196 1.14665e-16)
(34.3251 -2.81041 3.68259e-15)
(33.7083 -3.31772 4.62474e-15)
(33.0178 -3.7375 2.34711e-15)
(31.917 -4.03424 -2.57507e-15)
(13.107 16.5373 -3.71969e-17)
(12.3658 15.4125 -2.64401e-17)
(11.6863 14.0812 8.90662e-17)
(11.0782 12.5766 -2.3148e-16)
(15.126 16.5488 -1.16272e-17)
(15.9878 17.4621 -1.86916e-18)
(17.0228 18.3825 6.67046e-18)
(18.1971 19.2554 -1.86415e-17)
(19.4723 20.0154 1.12629e-16)
(20.8835 20.6689 -4.39022e-17)
(22.3939 21.1827 -8.03832e-17)
(23.9715 21.5276 1.85445e-16)
(25.6038 21.6924 2.47814e-16)
(27.2583 21.6654 -2.20575e-16)
(28.9065 21.4396 9.56543e-16)
(30.5242 21.0144 -5.0175e-16)
(32.0811 20.395 -1.36e-15)
(33.5503 19.5908 -2.40324e-15)
(34.9081 18.6158 3.53196e-15)
(36.1303 17.4895 -1.60154e-15)
(37.1973 16.2326 -2.14396e-15)
(38.101 14.8547 -1.32561e-15)
(38.8328 13.3786 -9.82807e-16)
(39.3888 11.837 -1.41185e-16)
(39.7732 10.2617 -4.84036e-16)
(39.9943 8.67759 -3.32028e-15)
(40.0493 7.0858 1.34626e-15)
(39.9016 5.48713 -3.70711e-15)
(39.5024 3.934 2.97396e-16)
(38.8533 2.52211 3.1957e-16)
(38.0327 1.31653 -8.14517e-17)
(37.1405 0.303381 2.69817e-16)
(36.2277 -0.57279 8.39609e-16)
(35.2967 -1.34513 1.56476e-16)
(34.348 -2.02016 1.09726e-16)
(33.4076 -2.6013 -3.16469e-15)
(32.5183 -3.09387 5.19997e-15)
(31.7348 -3.50196 1.7781e-15)
(31.0438 -3.82244 3.24446e-15)
(14.3842 15.6041 -1.29042e-19)
(13.7103 14.6028 1.01005e-16)
(13.0802 13.4155 -1.04689e-16)
(12.5035 12.0726 5.51489e-16)
(16.1811 15.6301 -8.41412e-20)
(16.9712 16.454 2.65046e-18)
(17.9185 17.288 3.24442e-18)
(18.9894 18.0805 -2.42526e-20)
(20.1454 18.7727 -2.47371e-17)
(21.4244 19.3745 -2.15862e-16)
(22.7932 19.8552 1.41783e-17)
(24.224 20.1888 2.33106e-16)
(25.7098 20.3651 -5.68747e-16)
(27.2239 20.3716 -3.21246e-16)
(28.743 20.1994 6.41869e-17)
(30.2479 19.8448 7.71963e-16)
(31.7123 19.3076 2.19739e-15)
(33.1121 18.5915 3.13011e-15)
(34.4238 17.705 8.84889e-17)
(35.6237 16.6608 -1.8717e-16)
(36.6918 15.4746 2.7381e-15)
(37.6062 14.1756 2.37461e-15)
(38.3495 12.7987 -1.23532e-17)
(38.9157 11.3729 -2.36038e-15)
(39.309 9.92161 8.0324e-16)
(39.5395 8.45726 9.71268e-16)
(39.6107 6.97794 -1.75637e-16)
(39.4996 5.48377 1.4421e-15)
(39.1654 4.01665 -8.03172e-16)
(38.6007 2.65882 -3.80362e-16)
(37.8634 1.47444 -1.27434e-17)
(37.0371 0.463101 -4.18376e-16)
(36.1682 -0.416957 -1.34401e-16)
(35.2569 -1.19365 -2.57438e-15)
(34.2935 -1.8716 1.12645e-15)
(33.2802 -2.45123 -2.59919e-15)
(32.2293 -2.93482 -5.86781e-15)
(31.1766 -3.32376 3.09844e-16)
(30.1756 -3.61551 -1.90163e-15)
(15.4962 14.7795 -1.63315e-17)
(14.8723 13.8815 -5.80599e-17)
(14.2801 12.8146 1.06079e-16)
(13.7294 11.606 -4.32542e-16)
(17.092 14.8185 -1.39054e-17)
(17.8198 15.5666 -2.59223e-17)
(18.6912 16.3267 1.07596e-17)
(19.6724 17.0509 7.9629e-18)
(20.7254 17.6847 3.54152e-17)
(21.8889 18.2416 1.00262e-16)
(23.1323 18.6936 2.39849e-16)
(24.4307 19.0176 2.61563e-16)
(25.7811 19.2057 -2.56598e-16)
(27.1606 19.246 -6.08936e-17)
(28.5503 19.1295 -1.19092e-16)
(29.9357 18.8513 -1.95503e-15)
(31.2939 18.4089 5.00943e-16)
(32.6035 17.8032 -2.03104e-15)
(33.843 17.039 -5.43463e-16)
(34.9895 16.1255 6.6509e-16)
(36.0214 15.0776 -1.84187e-15)
(36.9205 13.9116 -1.00427e-15)
(37.6729 12.6453 -4.81741e-16)
(38.2688 11.3018 1.56115e-15)
(38.7052 9.90596 1.18432e-16)
(38.9827 8.47921 7.15981e-16)
(39.0988 7.03338 1.35563e-15)
(39.0352 5.58003 -2.75669e-16)
(38.7618 4.15663 -8.16396e-18)
(38.2724 2.82943 1.17784e-15)
(37.6131 1.65479 2.1801e-16)
(36.8565 0.63926 -4.35622e-17)
(36.0477 -0.248909 2.89498e-16)
(35.1917 -1.03419 -2.60716e-16)
(34.2798 -1.72117 -2.97175e-15)
(33.3083 -2.30931 5.58476e-15)
(32.2727 -2.79894 -5.9036e-15)
(31.172 -3.18749 -6.15475e-15)
(30.0014 -3.46794 5.72607e-15)
(16.4572 14.047 8.58816e-18)
(15.8772 13.2354 1.22478e-16)
(15.3195 12.2693 -4.23372e-17)
(21.2523 16.711 -1.01335e-17)
(22.3201 17.2238 -3.78522e-17)
(23.4591 17.6438 -3.68679e-16)
(24.6465 17.9508 6.43802e-17)
(25.8825 18.1382 -1.83957e-16)
(27.1473 18.195 4.30695e-16)
(28.4256 18.1124 -4.37962e-16)
(29.7065 17.8848 1.2419e-15)
(30.9706 17.5078 -8.76461e-17)
(32.1998 16.9793 -7.44272e-17)
(33.3749 16.3009 -3.71659e-16)
(34.4741 15.4781 -1.7404e-16)
(35.4768 14.5205 6.47277e-16)
(36.3643 13.4418 1.31187e-15)
(37.1184 12.2638 1.34599e-15)
(37.7259 11.01 8.89737e-16)
(38.1807 9.70205 7.01021e-16)
(38.481 8.35772 1.44252e-16)
(38.6226 6.98884 -9.14289e-16)
(38.591 5.60855 -2.11056e-17)
(38.3631 4.24946 5.91357e-16)
(37.9328 2.96729 -8.82388e-16)
(37.3361 1.81421 -1.8921e-16)
(36.6347 0.803874 -1.52097e-16)
(35.8723 -0.0856075 -2.95497e-16)
(35.0589 -0.874616 2.57484e-15)
(34.1909 -1.56728 2.43442e-15)
(33.2672 -2.16264 -1.32601e-15)
(32.2844 -2.66028 2.40783e-15)
(31.2348 -3.05637 -8.72776e-16)
(30.0873 -3.34104 -2.96969e-15)
(23.7558 16.6984 1.3422e-16)
(24.8465 16.9875 2.05395e-16)
(25.9813 17.1706 1.49206e-16)
(27.143 17.2381 -5.44213e-16)
(28.3194 17.1823 9.31877e-17)
(29.5025 16.9969 -4.15464e-16)
(30.6759 16.6771 -1.1869e-16)
(31.8242 16.2194 -3.57419e-16)
(32.9306 15.6232 2.72898e-16)
(33.9755 14.8911 4.69106e-16)
(34.9391 14.0299 -1.07514e-16)
(35.8026 13.051 -1.43305e-15)
(36.549 11.9684 -7.87206e-16)
(37.1639 10.8002 -8.68548e-16)
(37.6375 9.56616 -3.23443e-16)
(37.9639 8.28558 -6.80549e-16)
(38.136 6.97509 -1.1802e-16)
(38.1407 5.65238 1.08223e-15)
(37.9594 4.34723 2.51981e-17)
(37.5864 3.10563 5.5343e-16)
(37.0495 1.97384 1.05277e-16)
(36.4003 0.969771 5.01916e-16)
(35.6796 0.0798367 5.17452e-16)
(34.9009 -0.71203 -2.95579e-15)
(34.0646 -1.40919 -1.00169e-15)
(33.1727 -2.01016 -4.8641e-15)
(32.2258 -2.51406 5.10364e-15)
(31.222 -2.91687 3.60261e-16)
(30.1336 -3.20865 2.39379e-15)
(26.0821 16.283 4.40915e-16)
(27.153 16.3549 2.35757e-16)
(28.2386 16.3168 3.45867e-16)
(29.3331 16.1627 -1.82815e-16)
(30.4229 15.8875 -7.21883e-16)
(31.4954 15.4864 1.57359e-15)
(32.536 14.9573 -6.4821e-16)
(33.527 14.3005 -6.7733e-16)
(34.4503 13.5201 -4.44163e-16)
(35.2876 12.6239 1.29946e-15)
(36.022 11.6238 1.55938e-15)
(36.6372 10.5366 4.32999e-16)
(37.1209 9.38003 -1.81422e-15)
(37.4649 8.17217 4.03272e-16)
(37.6608 6.92995 -8.19247e-17)
(37.6967 5.67216 3.34776e-16)
(37.5576 4.42583 -1.5491e-16)
(37.2377 3.22938 1.15633e-16)
(36.7577 2.12403 4.62449e-17)
(36.1601 1.13097 -2.69161e-16)
(35.4816 0.244122 4.48819e-16)
(34.7375 -0.548193 1.91511e-15)
(33.9306 -1.24805 4.62678e-17)
(33.0643 -1.85314 5.01019e-15)
(32.1412 -2.36178 2.12929e-15)
(31.1636 -2.76935 -2.36907e-15)
(30.1115 -3.06665 -3.31319e-15)
(27.1688 15.5411 4.27986e-16)
(28.1724 15.5152 -8.81961e-16)
(29.1861 15.3855 -6.09153e-17)
(30.1982 15.1466 1.12505e-15)
(31.1985 14.7937 -5.35081e-16)
(32.1747 14.3232 5.9627e-16)
(33.1111 13.7341 1.09432e-15)
(33.9913 13.0282 -2.42801e-15)
(34.7978 12.211 -8.39562e-16)
(35.5142 11.2913 -1.79653e-15)
(36.1241 10.2822 -5.41299e-16)
(36.6135 9.19923 1.46672e-15)
(36.9719 8.05989 -5.96525e-17)
(37.1893 6.88197 -3.70461e-16)
(37.2544 5.68558 -1.01929e-15)
(37.1546 4.49567 6.56672e-17)
(36.8845 3.34426 -5.63294e-16)
(36.4589 2.26752 -1.6225e-17)
(35.9122 1.28851 -8.12012e-17)
(35.2771 0.407287 -8.06785e-16)
(34.5693 -0.383499 -3.35003e-16)
(33.7937 -1.08458 2.37883e-16)
(32.9543 -1.69273 7.61479e-16)
(32.054 -2.20521 -3.10805e-15)
(31.0964 -2.61655 -4.12049e-15)
(30.066 -2.91792 -1.68046e-16)
(28.1184 14.7699 8.39838e-17)
(29.0585 14.6585 -2.03196e-16)
(29.999 14.4487 -4.21027e-16)
(30.9317 14.1355 5.24136e-16)
(31.8464 13.7146 -2.33842e-15)
(32.7294 13.1838 -3.45808e-16)
(33.5657 12.5434 9.2509e-16)
(34.3393 11.7963 -4.31309e-16)
(35.0341 10.9496 4.15719e-16)
(35.6341 10.0135 -5.06768e-18)
(36.124 9.00214 -4.34449e-16)
(36.4917 7.93151 4.14028e-16)
(36.7263 6.81908 2.26035e-16)
(36.8171 5.685 5.68376e-16)
(36.7529 4.5522 1.19508e-16)
(36.5284 3.44738 2.47367e-17)
(36.1538 2.4023 -8.32326e-17)
(35.6565 1.44091 1.39089e-16)
(35.0647 0.56833 2.09627e-16)
(34.3945 -0.218722 3.8669e-16)
(33.6519 -0.91938 -1.45921e-15)
(32.8416 -1.52942 -1.93646e-15)
(31.9666 -2.04502 1.1837e-15)
(31.0306 -2.45963 1.22079e-14)
(30.0208 -2.76425 2.42021e-15)
(28.0723 14.0764 -3.10967e-16)
(28.9454 13.979 -1.22285e-16)
(29.8201 13.7927 2.85086e-16)
(30.6897 13.5125 -6.23917e-16)
(31.5458 13.1341 5.17255e-16)
(32.3766 12.6545 -4.3325e-16)
(33.1687 12.0725 1.02643e-15)
(33.9075 11.3895 2.69065e-15)
(34.5776 10.6107 1.7643e-15)
(35.1638 9.74351 2.85368e-16)
(35.6501 8.80044 -3.33825e-16)
(36.0232 7.79613 -3.4075e-17)
(36.2717 6.74744 -9.71777e-16)
(36.3848 5.67429 2.32339e-17)
(36.3528 4.59777 4.08433e-16)
(36.17 3.54004 7.0626e-17)
(35.8432 2.52871 2.06003e-17)
(35.3934 1.58791 5.10193e-18)
(34.8446 0.72673 -8.1929e-16)
(34.2124 -0.0543947 -1.66276e-15)
(33.5037 -0.752924 4.16348e-16)
(32.7239 -1.36356 2.9835e-16)
(31.8763 -1.88137 -2.81819e-15)
(30.9645 -2.29883 -1.13312e-14)
(29.9782 -2.60626 -2.74382e-15)
(28.8442 13.3427 3.49863e-16)
(29.6582 13.1753 -2.73409e-16)
(30.469 12.9228 -8.66208e-17)
(31.2698 12.5807 4.96618e-16)
(32.0502 12.1455 2.12607e-15)
(32.7987 11.6151 -2.65506e-15)
(33.5018 10.9898 1.08851e-16)
(34.1452 10.2728 -1.27056e-15)
(34.7143 9.46995 1.95192e-16)
(35.1934 8.59177 -1.258e-15)
(35.5682 7.65161 -3.28412e-16)
(35.8269 6.66543 -6.21494e-17)
(35.959 5.65234 2.25874e-16)
(35.9555 4.63156 -5.40286e-16)
(35.8106 3.62153 5.41096e-17)
(35.5281 2.64604 3.14333e-17)
(35.1236 1.72877 -1.05443e-16)
(34.6171 0.881802 7.92261e-16)
(34.023 0.108892 8.19916e-16)
(33.3489 -0.585663 1.49432e-15)
(32.6004 -1.19551 9.45691e-16)
(31.7814 -1.71451 1.9346e-15)
(30.8959 -2.1342 4.23664e-15)
(29.9351 -2.44413 3.02148e-15)
(29.5102 12.5947 -1.58877e-16)
(30.2664 12.3652 3.6055e-17)
(31.0151 12.0541 7.93674e-16)
(31.7474 11.6576 -6.3356e-16)
(32.4531 11.173 2.30065e-15)
(33.1203 10.5996 -1.1334e-15)
(33.7355 9.93928 4.84043e-16)
(34.2851 9.19629 3.45364e-16)
(34.7538 8.37938 1.78973e-15)
(35.127 7.50061 4.14432e-16)
(35.3927 6.57492 8.51039e-16)
(35.5405 5.62046 -2.26794e-16)
(35.5619 4.65453 -5.10249e-16)
(35.4512 3.6923 3.47616e-16)
(35.2095 2.75422 2.34142e-17)
(34.848 1.86302 -3.17466e-16)
(34.3828 1.03293 -5.43288e-16)
(33.8267 0.270529 1.62518e-15)
(33.1876 -0.41816 -1.04973e-15)
(32.4713 -1.0257 -5.84492e-16)
(31.6818 -1.54479 -2.19267e-15)
(30.8236 -1.96601 4.36416e-16)
(29.8897 -2.27807 4.87366e-16)
(29.3738 12.0482 1.89535e-16)
(30.0794 11.838 1.15533e-16)
(30.7792 11.5535 -1.28055e-15)
(31.4656 11.1906 5.83245e-16)
(32.1299 10.7466 -2.09692e-15)
(32.7613 10.2197 8.06051e-16)
(33.3475 9.61105 -8.88469e-16)
(33.8757 8.92357 -8.76873e-16)
(34.3315 8.16424 2.91835e-16)
(34.7003 7.34399 -1.63278e-15)
(34.9698 6.47668 -9.58114e-16)
(35.1301 5.57917 4.63446e-16)
(35.173 4.66706 7.11242e-16)
(35.0928 3.7526 8.36373e-17)
(34.8885 2.85315 9.95739e-18)
(34.5675 1.99028 2.51288e-16)
(34.1422 1.17957 -1.09996e-16)
(33.6239 0.429952 -1.19873e-15)
(33.0201 -0.250943 -2.25329e-16)
(32.3365 -0.854597 -8.46329e-16)
(31.5774 -1.37259 -4.74752e-17)
(30.7477 -1.7945 -3.50613e-16)
(29.8418 -2.10829 -3.14995e-16)
(29.9055 11.34 2.41658e-16)
(30.5595 11.0782 3.86121e-16)
(31.2025 10.7448 -1.98905e-16)
(31.8269 10.3367 2.11919e-15)
(32.4232 9.85165 -5.07864e-16)
(32.98 9.28982 8.20188e-16)
(33.4856 8.65348 -9.20371e-16)
(33.9265 7.948 4.21978e-16)
(34.2883 7.18322 1.54294e-15)
(34.559 6.37177 8.67143e-16)
(34.7287 5.5293 -5.07756e-16)
(34.7898 4.6697 -2.57606e-16)
(34.7364 3.80265 -4.59685e-16)
(34.5661 2.94276 1.37062e-17)
(34.2829 2.11015 -1.57639e-16)
(33.8961 1.32117 3.78628e-16)
(33.415 0.586556 2.78569e-16)
(32.8464 -0.0845959 5.66736e-16)
(32.1961 -0.682735 5.02262e-16)
(31.4684 -1.19836 -4.20359e-16)
(30.6681 -1.62006 -6.64692e-17)
(29.7915 -1.93511 -2.29256e-15)
(29.7429 10.8694 1.23972e-15)
(30.3541 10.6273 -2.99246e-16)
(30.9562 10.3197 5.88667e-16)
(31.5424 9.94331 -6.40888e-16)
(32.1044 9.49575 -7.34742e-16)
(32.632 8.97652 -1.09238e-15)
(33.1141 8.38724 1.74758e-15)
(33.5385 7.73197 -1.52856e-15)
(33.8914 7.01945 8.99158e-16)
(34.1607 6.26121 -7.62369e-16)
(34.337 5.47169 1.91477e-17)
(34.4131 4.66315 -2.45734e-17)
(34.3831 3.84294 9.64899e-17)
(34.2434 3.02317 3.12784e-17)
(33.9953 2.22243 3.63632e-17)
(33.6452 1.45727 -3.11802e-16)
(33.2004 0.73977 2.27937e-18)
(32.667 0.0803006 -6.44972e-16)
(32.0504 -0.510638 1.48856e-16)
(31.3546 -1.02255 2.22081e-15)
(30.5848 -1.44311 -1.0759e-17)
(29.7385 -1.75883 -4.33667e-16)
(30.1614 10.1998 -8.25879e-17)
(30.7248 9.91479 -1.155e-15)
(31.2746 9.56661 1.79721e-16)
(31.8034 9.15276 1.13813e-16)
(32.3021 8.67226 1.74372e-16)
(32.7605 8.12611 5.65007e-16)
(33.1673 7.51746 1.17697e-15)
(33.5095 6.85401 -2.26121e-15)
(33.7753 6.14621 5.11795e-16)
(33.9556 5.40732 -7.63874e-17)
(34.0437 4.64815 7.50061e-16)
(34.0338 3.87396 3.06201e-17)
(33.9214 3.09457 -1.79418e-17)
(33.7057 2.32695 2.81631e-16)
(33.3904 1.58748 4.52774e-16)
(32.9809 0.889081 4.36316e-16)
(32.4823 0.243177 -2.48596e-17)
(31.8994 -0.338884 -1.32263e-15)
(31.2361 -0.845697 -2.45669e-15)
(30.4976 -1.2641 7.71651e-16)
(29.6829 -1.57987 1.5662e-15)
(29.9797 9.79489 -7.99314e-16)
(30.5068 9.52973 2.09604e-16)
(31.0221 9.20662 7.78536e-16)
(31.519 8.82299 -9.56248e-16)
(31.9894 8.37758 3.26929e-16)
(32.4239 7.87088 -6.13702e-16)
(32.8123 7.30544 -1.84135e-15)
(33.1425 6.6879 2.33137e-16)
(33.4029 6.02774 -1.898e-16)
(33.585 5.33715 -2.36841e-16)
(33.6823 4.62551 -6.48697e-16)
(33.6895 3.89629 -2.06264e-16)
(33.6013 3.15721 7.10445e-17)
(33.4151 2.42367 -1.19911e-16)
(33.1325 1.71146 -4.35873e-16)
(32.757 1.034 -1.93186e-16)
(32.2926 0.403472 1.28968e-15)
(31.7434 -0.168018 1.46382e-15)
(31.1132 -0.668325 3.85901e-15)
(30.4068 -1.08354 -5.15388e-16)
(29.6243 -1.3987 -1.54441e-16)
(30.3008 9.16377 -9.01337e-16)
(30.7834 8.86303 -3.61969e-16)
(31.2498 8.50656 -1.58067e-16)
(31.6927 8.09301 2.63788e-16)
(32.1036 7.6224 1.00175e-15)
(32.4731 7.09691 7.37782e-16)
(32.7902 6.52222 5.43229e-16)
(33.0437 5.90688 7.32999e-16)
(33.2255 5.26211 5.94452e-16)
(33.3296 4.59603 5.69211e-16)
(33.351 3.91055 1.22959e-16)
(33.2839 3.21149 -6.64181e-17)
(33.1245 2.51261 -1.78473e-16)
(32.8724 1.82897 4.5872e-16)
(32.5294 1.17407 -5.26573e-16)
(32.0984 0.560658 -4.96606e-16)
(31.5828 0.00136171 6.77932e-16)
(30.9858 -0.491015 1.43261e-15)
(30.3121 -0.901929 1.51675e-15)
(29.5629 -1.21581 -1.39938e-15)
(30.1056 8.81643 7.3324e-16)
(30.5573 8.53566 -4.06522e-16)
(30.9946 8.20367 3.86055e-16)
(31.411 7.81902 -4.69323e-16)
(31.7987 7.38146 -9.37431e-16)
(32.1492 6.8928 3.96838e-16)
(32.4523 6.35795 2.40829e-16)
(32.6977 5.78462 -6.74678e-16)
(32.8774 5.18315 -4.67521e-17)
(32.9861 4.56058 -2.53647e-16)
(33.019 3.91741 -9.97133e-17)
(32.9702 3.25779 1.27627e-17)
(32.8349 2.59387 1.8026e-16)
(32.6111 1.93981 -2.05613e-16)
(32.2991 1.30892 6.90695e-16)
(31.9005 0.714219 -8.60207e-17)
(31.418 0.168643 -3.82999e-16)
(30.8544 -0.314379 -3.35848e-15)
(30.2139 -0.719889 -1.35808e-15)
(29.4986 -1.03173 1.35227e-15)
(29.9202 8.48695 2.50428e-16)
(30.3428 8.22408 -3.51816e-16)
(30.7524 7.91419 9.70061e-16)
(31.1433 7.55578 -4.14619e-16)
(31.5084 7.14843 6.36936e-16)
(31.8399 6.69369 -2.82895e-16)
(32.1286 6.19578 -7.20628e-16)
(32.3648 5.66181 1.8251e-16)
(32.541 5.10121 -3.46391e-17)
(32.6522 4.52006 5.1332e-17)
(32.6943 3.91765 1.168e-16)
(32.6611 3.29664 -9.77587e-18)
(32.5473 2.6677 -9.98433e-17)
(32.3495 2.04393 -1.65863e-16)
(32.0667 1.43826 -6.55528e-16)
(31.6995 0.863646 -2.77306e-16)
(31.2495 0.333342 9.56243e-17)
(30.7191 -0.138994 1.09668e-16)
(30.1121 -0.537955 8.44259e-16)
(29.4312 -0.847024 9.41035e-16)
(30.1388 7.92799 1.08912e-15)
(30.5222 7.63809 1.8277e-16)
(30.8886 7.30355 3.44984e-16)
(31.2318 6.92383 -6.01107e-16)
(31.5446 6.50034 -1.60896e-17)
(31.8186 6.03668 6.94787e-16)
(32.0448 5.5394 3.53993e-16)
(32.2163 5.0172 -2.81217e-16)
(32.3284 4.47527 -2.45776e-16)
(32.3774 3.91196 -4.65289e-17)
(32.3575 3.32854 4.21264e-17)
(32.2626 2.73434 1.67369e-16)
(32.0886 2.14132 1.56742e-17)
(31.8332 1.5618 6.66118e-16)
(31.496 1.00856 -7.86919e-16)
(31.0777 0.494836 -1.69222e-15)
(30.5802 0.0345183 2.23207e-16)
(30.007 -0.356757 -1.05972e-15)
(29.3609 -0.662294 -1.74937e-15)
(29.9444 7.64682 -3.22564e-16)
(30.303 7.37505 -8.95523e-17)
(30.6462 7.06226 8.20342e-16)
(30.9682 6.70785 -4.94093e-16)
(31.2626 6.31308 8.3154e-17)
(31.5219 5.88117 -3.80939e-16)
(31.7376 5.41809 -2.39946e-16)
(31.9033 4.93186 7.49668e-17)
(32.0148 4.42705 2.59543e-16)
(32.0689 3.90106 -1.31365e-17)
(32.0599 3.3541 -5.32048e-17)
(31.9817 2.79412 -1.13722e-16)
(31.8292 2.23205 8.6666e-17)
(31.5993 1.67937 -9.22491e-17)
(31.2907 1.14854 1.23723e-15)
(30.9033 0.652656 1.43975e-15)
(30.4383 0.205608 -6.90945e-17)
(29.8987 -0.176977 -4.47113e-16)
(29.2877 -0.478138 3.99987e-16)
(29.759 7.3802 -3.65669e-16)
(30.0942 7.12493 -1.69062e-15)
(30.4152 6.83202 -3.46009e-16)
(30.7169 6.50082 -3.0582e-16)
(30.9935 6.13244 9.14492e-16)
(31.238 5.7299 9.67269e-16)
(31.4429 5.29861 -2.99806e-16)
(31.602 4.84607 -1.57958e-16)
(31.7117 4.3762 1.3786e-16)
(31.7692 3.88573 -2.11753e-16)
(31.7692 3.37387 3.69287e-17)
(31.7053 2.84746 1.28819e-16)
(31.5722 2.31621 -1.66588e-16)
(31.366 1.79088 -3.36986e-16)
(31.0845 1.28331 -5.69541e-17)
(30.7269 0.806281 -1.53295e-15)
(30.2937 0.37363 -9.04192e-16)
(29.7875 0.000829435 3.70811e-16)
(29.2116 -0.295236 1.32341e-15)
(29.8949 6.88736 6.38683e-17)
(30.1949 6.61259 6.014e-16)
(30.4772 6.3027 3.22612e-16)
(30.7365 5.95865 -1.10468e-15)
(30.9665 5.58325 -3.69846e-16)
(31.1604 5.18153 5.67433e-16)
(31.3123 4.76043 -1.46991e-16)
(31.4192 4.32339 -1.11688e-16)
(31.4786 3.86662 5.70448e-17)
(31.4858 3.38849 -3.29709e-17)
(31.4343 2.89472 2.35318e-19)
(31.3185 2.39403 -1.28528e-16)
(31.1341 1.89624 2.56607e-16)
(30.878 1.41255 -4.02648e-16)
(30.549 0.955332 6.61071e-16)
(30.1469 0.538041 -5.7493e-16)
(29.6737 0.175989 2.50254e-16)
(29.1327 -0.114168 -1.0399e-15)
(29.7045 6.66205 3.56403e-16)
(29.9846 6.40392 -7.84512e-16)
(30.2485 6.1136 4.73644e-16)
(30.4911 5.79196 6.53856e-16)
(30.7069 5.44168 -3.18823e-17)
(30.8897 5.06739 2.52619e-16)
(31.0341 4.67562 -1.59893e-16)
(31.1373 4.26938 8.99088e-17)
(31.1975 3.84445 -3.58479e-17)
(31.2102 3.39855 1.51368e-17)
(31.1693 2.93641 -2.75628e-17)
(31.0689 2.46575 -1.04472e-16)
(30.9043 1.99548 2.78711e-16)
(30.6721 1.5361 -4.48642e-17)
(30.3704 1.09937 -6.27136e-16)
(29.9984 0.698354 2.45062e-15)
(29.5576 0.347901 -9.63131e-16)
(29.0512 0.0644291 -6.34419e-17)
(29.5225 6.44857 -2.32097e-16)
(29.7838 6.20575 2.74472e-16)
(30.03 5.93347 -2.33338e-16)
(30.2567 5.63251 -4.51026e-16)
(30.4587 5.30547 7.96191e-17)
(30.6305 4.95668 -7.99563e-16)
(30.7671 4.5922 3.77821e-16)
(30.866 4.21477 -1.80986e-16)
(30.926 3.81988 -1.07683e-16)
(30.9429 3.40463 4.28638e-18)
(30.9108 2.97296 -5.14049e-17)
(30.824 2.53165 1.46289e-16)
(30.6775 2.08869 -3.41693e-16)
(30.4676 1.65381 -1.95024e-17)
(30.1916 1.23808 2.80156e-16)
(29.8487 0.854035 5.92177e-16)
(29.4395 0.516014 4.05211e-16)
(28.9672 0.239908 8.30877e-16)
(29.5918 6.01793 -3.95134e-16)
(29.8214 5.76227 -4.30748e-16)
(30.0329 5.48042 1.18404e-15)
(30.2216 5.17487 1.384e-16)
(30.3825 4.8497 -1.24841e-16)
(30.5111 4.51065 -3.72024e-18)
(30.6053 4.16015 -9.33587e-17)
(30.6642 3.79348 1.00613e-16)
(30.6841 3.40732 -1.26199e-17)
(30.6594 3.00487 3.79049e-17)
(30.5845 2.59203 -1.02251e-16)
(30.4544 2.17597 -6.79624e-17)
(30.265 1.76556 3.10794e-17)
(30.0135 1.37118 9.41765e-16)
(29.6983 1.00468 -1.66308e-15)
(29.32 0.679753 -2.71016e-17)
(28.881 0.411692 -6.5408e-16)
(29.4082 5.84011 9.93368e-17)
(29.622 5.59982 5.46073e-16)
(29.819 5.33564 -4.82589e-16)
(29.9949 5.05 1.40059e-16)
(30.1453 4.74676 6.84676e-16)
(30.2659 4.43135 3.19435e-16)
(30.355 4.10597 1.47841e-16)
(30.4122 3.76579 -7.91192e-17)
(30.4341 3.40714 7.28126e-18)
(30.4155 3.03257 3.4772e-17)
(30.351 2.64725 2.34615e-17)
(30.2357 2.25749 1.63433e-16)
(30.0652 1.87137 4.86389e-16)
(29.8366 1.49845 -7.68219e-16)
(29.5479 1.14989 1.55191e-15)
(29.1992 0.838629 -4.32371e-16)
(28.7927 0.579225 5.31272e-16)
(29.2326 5.67204 -2.48605e-15)
(29.4315 5.44597 2.03011e-16)
(29.6147 5.19818 2.98497e-16)
(29.7783 4.93101 -5.57178e-16)
(29.9184 4.64811 2.51994e-16)
(30.0311 4.35469 -3.05935e-16)
(30.1151 4.05273 8.25111e-18)
(30.17 3.73733 -3.96425e-17)
(30.1931 3.4046 -3.37892e-18)
(30.1795 3.05656 2.95329e-17)
(30.124 2.69765 9.17008e-17)
(30.0218 2.33345 2.10736e-16)
(29.8688 1.97122 -4.63504e-16)
(29.6615 1.61974 8.62675e-17)
(29.398 1.28935 9.12871e-17)
(29.0777 0.992192 1.4761e-16)
(29.2493 5.30055 -3.64012e-16)
(29.4194 5.06795 -7.18984e-16)
(29.5715 4.81792 7.0745e-17)
(29.7016 4.55392 -4.19892e-16)
(29.8066 4.28092 3.7055e-16)
(29.8853 4.00075 -1.80134e-16)
(29.9376 3.70851 4.735e-17)
(29.9611 3.40016 -4.31177e-19)
(29.9515 3.07724 -6.51759e-17)
(29.9038 2.74359 -1.12325e-16)
(29.8134 2.40409 5.17681e-18)
(29.6763 2.06521 -3.42686e-16)
(29.4889 1.73494 2.61774e-16)
(29.249 1.4228 -1.20183e-15)
(28.9559 1.14004 3.67814e-16)
(29.075 5.16329 4.58756e-16)
(29.2329 4.94483 7.69839e-16)
(29.3738 4.71071 -5.9938e-16)
(29.4946 4.46427 3.50326e-16)
(29.5921 4.21025 -3.43173e-16)
(29.6654 3.95036 2.82337e-17)
(29.7148 3.67973 -1.90157e-17)
(29.7383 3.39424 -2.25074e-17)
(29.7318 3.09503 2.66717e-17)
(29.6908 2.78542 -3.39987e-17)
(29.6109 2.46964 7.01108e-17)
(29.4882 2.15343 4.9294e-16)
(29.3192 1.844 -6.30831e-17)
(29.1016 1.55002 3.08214e-16)
(28.8342 1.28184 -4.80327e-16)
(28.9084 5.03397 5.77388e-16)
(29.0546 4.82867 -4.69176e-16)
(29.1851 4.60936 8.17787e-16)
(29.2968 4.37924 -7.2087e-16)
(29.3871 4.14287 -1.6569e-16)
(29.4552 3.90183 -5.70205e-18)
(29.5015 3.65132 -1.57085e-16)
(29.5245 3.38721 -2.83722e-18)
(29.5205 3.11031 5.9833e-17)
(29.4852 2.82348 -3.22658e-17)
(29.4147 2.53036 -1.2163e-16)
(29.3051 2.23604 -3.97792e-16)
(29.153 1.94694 -4.70005e-16)
(28.9561 1.67089 6.44915e-16)
(28.7131 1.41736 2.64107e-16)
(28.7489 4.91233 -1.47335e-15)
(28.8843 4.71929 -1.15242e-16)
(29.0049 4.51375 -4.61634e-16)
(29.1081 4.29882 4.58363e-16)
(29.1915 4.07884 1.22592e-16)
(29.2544 3.85531 2.51259e-16)
(29.2977 3.62355 1.48268e-16)
(29.3198 3.37939 -2.74258e-17)
(29.3176 3.12343 -1.70335e-17)
(29.2873 2.85809 9.07041e-17)
(29.225 2.58654 -3.58942e-16)