/*--------------------------------*- C++ -*----------------------------------*\
| =========                 |                                                 |
| \\      /  F ield         | OpenFOAM: The Open Source CFD Toolbox           |
|  \\    /   O peration     | Version:  2306                                  |
|   \\  /    A nd           | Website:  www.openfoam.com                      |
|    \\/     M anipulation  |                                                 |
\*---------------------------------------------------------------------------*/
FoamFile
{
    version     2.0;
    format      ascii;
    arch        "LSB;label=32;scalar=64";
    class       volScalarField;
    location    "0.005";
    object      nuTilda;
}
// * * * * * * * * * * * * * * * * * * * * * * * * * * * * * * * * * * * * * //

dimensions      [0 2 -1 0 0 0 0];

internalField   nonuniform List<scalar> 
20000
(
0.00039945764
0.00097543732
0.001289575
0.001385728
0.0012104615
0.00064531912
8.8289242e-05
1.1009619e-05
1.0170324e-05
1.0119171e-05
1.0112934e-05
1.0091024e-05
1.0084302e-05
1.0072683e-05
1.0066005e-05
1.0058664e-05
1.0053036e-05
1.0047631e-05
1.004296e-05
1.0038557e-05
1.0034466e-05
1.0030594e-05
1.0027009e-05
1.0023797e-05
1.0021013e-05
1.001859e-05
1.0016441e-05
1.0014588e-05
1.0013026e-05
1.0011681e-05
1.0010479e-05
1.0009412e-05
1.0008539e-05
1.0007766e-05
1.0006981e-05
1.0006121e-05
1.0005252e-05
1.0004451e-05
1.0003763e-05
1.0003562e-05
1.0002497e-05
1.0000804e-05
1.0000564e-05
1.0000384e-05
1.0000097e-05
1.0000031e-05
1.0000006e-05
1.0000001e-05
1e-05
1e-05
0.00039704559
0.00096277137
0.0012648961
0.0013479143
0.001159061
0.00057144228
6.9355737e-05
1.0678137e-05
1.0164917e-05
1.0115682e-05
1.011085e-05
1.0089154e-05
1.00828e-05
1.0071527e-05
1.0065083e-05
1.0057919e-05
1.0052426e-05
1.0047132e-05
1.0042555e-05
1.0038248e-05
1.0034255e-05
1.0030476e-05
1.0026964e-05
1.0023799e-05
1.0021031e-05
1.00186e-05
1.0016426e-05
1.0014524e-05
1.0012937e-05
1.0011599e-05
1.0010428e-05
1.0009407e-05
1.0008593e-05
1.0007881e-05
1.0007139e-05
1.0006266e-05
1.0005293e-05
1.0004456e-05
1.0003727e-05
1.0003367e-05
1.0002583e-05
1.0000884e-05
1.0000482e-05
1.0000389e-05
1.0000124e-05
1.0000041e-05
1.0000008e-05
1.0000001e-05
1e-05
1e-05
0.0003949062
0.00095095307
0.0012408419
0.0013094676
0.0011059686
0.00049807283
5.3501273e-05
1.0464378e-05
1.0159816e-05
1.0112319e-05
1.0108753e-05
1.0087255e-05
1.0081227e-05
1.0070325e-05
1.0064116e-05
1.0057141e-05
1.0051787e-05
1.0046617e-05
1.004214e-05
1.0037937e-05
1.0034051e-05
1.0030376e-05
1.0026957e-05
1.002386e-05
1.0021136e-05
1.0018723e-05
1.0016541e-05
1.0014606e-05
1.0012985e-05
1.0011651e-05
1.0010501e-05
1.0009509e-05
1.0008735e-05
1.0008069e-05
1.0007351e-05
1.0006477e-05
1.0005423e-05
1.0004513e-05
1.0003759e-05
1.0003295e-05
1.000248e-05
1.0001002e-05
1.0000396e-05
1.0000314e-05
1.000012e-05
1.0000034e-05
1.0000009e-05
1.0000001e-05
1e-05
1e-05
0.00039279711
0.00093936384
0.0012171815
0.0012707779
0.0010524394
0.00042973998
4.1290125e-05
1.0330872e-05
1.015516e-05
1.0109134e-05
1.0106777e-05
1.0085454e-05
1.0079715e-05
1.0069159e-05
1.0063169e-05
1.0056377e-05
1.0051156e-05
1.0046103e-05
1.0041718e-05
1.0037611e-05
1.003382e-05
1.0030237e-05
1.00269e-05
1.0023866e-05
1.0021179e-05
1.0018784e-05
1.0016599e-05
1.0014638e-05
1.0012987e-05
1.0011643e-05
1.0010509e-05
1.0009543e-05
1.0008806e-05
1.0008186e-05
1.0007489e-05
1.0006623e-05
1.0005532e-05
1.0004559e-05
1.0003789e-05
1.0003255e-05
1.0002391e-05
1.0001108e-05
1.0000372e-05
1.0000263e-05
1.0000126e-05
1.0000031e-05
1.0000009e-05
1.0000001e-05
1e-05
1e-05
0.00039077768
0.00092810295
0.0011941774
0.0012335493
0.00099753258
0.00036604554
3.2021606e-05
1.0246891e-05
1.0151186e-05
1.0105986e-05
1.0104763e-05
1.0083704e-05
1.007823e-05
1.0068008e-05
1.0062226e-05
1.0055618e-05
1.0050526e-05
1.004559e-05
1.0041297e-05
1.0037283e-05
1.0033584e-05
1.0030091e-05
1.0026835e-05
1.0023865e-05
1.0021222e-05
1.0018853e-05
1.0016675e-05
1.0014693e-05
1.0013007e-05
1.0011647e-05
1.0010527e-05
1.0009585e-05
1.0008874e-05
1.0008292e-05
1.0007609e-05
1.0006749e-05
1.0005654e-05
1.0004618e-05
1.0003805e-05
1.0003205e-05
1.0002316e-05
1.0001211e-05
1.0000426e-05
1.0000209e-05
1.0000118e-05
1.0000029e-05
1.0000008e-05
1.0000001e-05
1e-05
1e-05
0.00038878755
0.00091690199
0.0011717077
0.0011956349
0.00094042043
0.0003077121
2.5172048e-05
1.0193886e-05
1.0147575e-05
1.0102963e-05
1.0102472e-05
1.0082003e-05
1.007678e-05
1.0066874e-05
1.0061291e-05
1.0054864e-05
1.0049898e-05
1.0045078e-05
1.0040876e-05
1.0036951e-05
1.0033339e-05
1.002993e-05
1.0026752e-05
1.0023844e-05
1.0021244e-05
1.0018904e-05
1.001674e-05
1.0014746e-05
1.0013025e-05
1.0011643e-05
1.0010531e-05
1.0009611e-05
1.0008919e-05
1.0008367e-05
1.0007697e-05
1.0006841e-05
1.0005767e-05
1.0004681e-05
1.00038e-05
1.0003154e-05
1.0002288e-05
1.0001305e-05
1.0000572e-05
1.0000179e-05
1.00001e-05
1.000003e-05
1.0000007e-05
1.0000001e-05
1e-05
1e-05
0.0003868141
0.00090544226
0.0011480163
0.0011569654
0.00088095106
0.0002554497
2.0250607e-05
1.0160238e-05
1.0144033e-05
1.0100073e-05
1.0100017e-05
1.0080337e-05
1.0075363e-05
1.0065758e-05
1.0060359e-05
1.0054115e-05
1.0049273e-05
1.0044568e-05
1.0040456e-05
1.0036617e-05
1.0033088e-05
1.0029759e-05
1.0026655e-05
1.002381e-05
1.0021254e-05
1.0018944e-05
1.0016799e-05
1.00148e-05
1.0013048e-05
1.0011637e-05
1.0010528e-05
1.0009629e-05
1.0008952e-05
1.000842e-05
1.0007759e-05
1.0006905e-05
1.0005863e-05
1.0004746e-05
1.0003777e-05
1.0003092e-05
1.0002298e-05
1.0001367e-05
1.000069e-05
1.0000169e-05
1.000008e-05
1.0000029e-05
1.0000006e-05
1.0000001e-05
1e-05
1e-05
0.00038492374
0.00089416809
0.001124504
0.001118294
0.00081899708
0.00021052216
1.6819648e-05
1.0137818e-05
1.0141331e-05
1.0097314e-05
1.0097632e-05
1.0078712e-05
1.0073978e-05
1.006466e-05
1.0059432e-05
1.0053371e-05
1.004865e-05
1.004406e-05
1.0040037e-05
1.0036282e-05
1.003283e-05
1.0029578e-05
1.0026546e-05
1.0023761e-05
1.0021249e-05
1.0018972e-05
1.0016849e-05
1.0014852e-05
1.0013072e-05
1.0011629e-05
1.0010516e-05
1.0009638e-05
1.0008974e-05
1.0008455e-05
1.0007799e-05
1.000694e-05
1.0005934e-05
1.0004807e-05
1.0003747e-05
1.0003018e-05
1.000232e-05
1.0001409e-05
1.0000773e-05
1.0000195e-05
1.0000065e-05
1.0000026e-05
1.0000006e-05
1.0000001e-05
1e-05
1e-05
0.00038311831
0.00088290869
0.001100969
0.0010795458
0.00075463543
0.00017139426
1.4459158e-05
1.0122672e-05
1.013636e-05
1.0094671e-05
1.0095411e-05
1.0077135e-05
1.0072623e-05
1.006358e-05
1.005851e-05
1.0052632e-05
1.004803e-05
1.0043554e-05
1.003962e-05
1.0035946e-05
1.0032568e-05
1.0029389e-05
1.0026427e-05
1.0023699e-05
1.0021231e-05
1.0018986e-05
1.0016889e-05
1.00149e-05
1.0013098e-05
1.001162e-05
1.0010495e-05
1.0009635e-05
1.0008986e-05
1.0008475e-05
1.0007823e-05
1.0006954e-05
1.0005974e-05
1.0004856e-05
1.0003719e-05
1.0002943e-05
1.0002326e-05
1.0001445e-05
1.0000841e-05
1.0000273e-05
1.0000063e-05
1.0000022e-05
1.0000005e-05
1.0000001e-05
1e-05
1e-05
0.00038134631
0.00087150659
0.0010771713
0.0010407012
0.00068817833
0.00013746304
1.2874679e-05
1.0111891e-05
1.0133245e-05
1.0092172e-05
1.0093323e-05
1.0075605e-05
1.0071291e-05
1.0062519e-05
1.0057597e-05
1.0051896e-05
1.0047412e-05
1.0043049e-05
1.0039205e-05
1.0035609e-05
1.0032302e-05
1.0029194e-05
1.0026298e-05
1.0023627e-05
1.0021201e-05
1.0018988e-05
1.0016919e-05
1.0014944e-05
1.0013125e-05
1.001161e-05
1.0010467e-05
1.0009622e-05
1.0008988e-05
1.0008481e-05
1.0007832e-05
1.0006952e-05
1.0005989e-05
1.0004886e-05
1.0003699e-05
1.0002877e-05
1.0002309e-05
1.0001476e-05
1.0000891e-05
1.0000343e-05
1.000008e-05
1.000002e-05
1.0000004e-05
1.0000001e-05
1e-05
1e-05
0.00037959284
0.00085980559
0.0010525391
0.00099927551
0.00062027692
0.0001084347
1.1842778e-05
1.0103942e-05
1.0129699e-05
1.0089789e-05
1.0091301e-05
1.0074117e-05
1.0069981e-05
1.0061478e-05
1.0056695e-05
1.0051165e-05
1.0046797e-05
1.0042547e-05
1.0038789e-05
1.0035271e-05
1.0032032e-05
1.0028992e-05
1.002616e-05
1.0023543e-05
1.0021159e-05
1.0018978e-05
1.0016937e-05
1.0014981e-05
1.0013153e-05
1.0011601e-05
1.0010432e-05
1.0009597e-05
1.000898e-05
1.0008476e-05
1.000783e-05
1.0006941e-05
1.0005985e-05
1.0004895e-05
1.0003683e-05
1.000282e-05
1.0002279e-05
1.0001498e-05
1.0000916e-05
1.0000383e-05
1.0000118e-05
1.0000024e-05
1.0000004e-05
1.0000001e-05
1e-05
1e-05
0.0003778413
0.00084783405
0.001027129
0.00095792025
0.00055220652
8.4253545e-05
1.1191108e-05
1.0097821e-05
1.0126563e-05
1.008752e-05
1.0089311e-05
1.0072666e-05
1.0068692e-05
1.0060455e-05
1.0055803e-05
1.0050438e-05
1.0046185e-05
1.0042046e-05
1.0038373e-05
1.0034931e-05
1.0031759e-05
1.0028785e-05
1.0026014e-05
1.002345e-05
1.0021106e-05
1.0018956e-05
1.0016944e-05
1.0015011e-05
1.0013181e-05
1.0011595e-05
1.0010392e-05
1.0009558e-05
1.0008962e-05
1.000846e-05
1.0007816e-05
1.0006923e-05
1.0005966e-05
1.0004885e-05
1.000367e-05
1.0002772e-05
1.0002231e-05
1.0001503e-05
1.0000911e-05
1.0000393e-05
1.0000135e-05
1.0000035e-05
1.0000007e-05
1.0000001e-05
1e-05
1e-05
0.00037612807
0.0008357382
0.0010004857
0.00091663791
0.00048470871
6.4649351e-05
1.0786686e-05
1.0092899e-05
1.0123471e-05
1.0085353e-05
1.0087352e-05
1.007125e-05
1.0067424e-05
1.0059449e-05
1.0054921e-05
1.0049717e-05
1.0045576e-05
1.0041546e-05
1.0037957e-05
1.003459e-05
1.0031485e-05
1.0028575e-05
1.0025863e-05
1.0023349e-05
1.0021043e-05
1.0018923e-05
1.0016939e-05
1.0015032e-05
1.0013207e-05
1.0011591e-05
1.0010348e-05
1.0009507e-05
1.000893e-05
1.0008433e-05
1.0007788e-05
1.0006896e-05
1.0005939e-05
1.0004865e-05
1.0003664e-05
1.0002735e-05
1.000216e-05
1.0001478e-05
1.0000881e-05
1.0000379e-05
1.0000132e-05
1.0000038e-05
1.000001e-05
1.0000001e-05
1e-05
1e-05
0.0003744831
0.00082395467
0.00097535335
0.00087474546
0.00041907836
4.9255717e-05
1.0541083e-05
1.0088781e-05
1.012048e-05
1.0083281e-05
1.0085436e-05
1.0069867e-05
1.0066174e-05
1.0058458e-05
1.0054051e-05
1.0049004e-05
1.004497e-05
1.0041047e-05
1.0037542e-05
1.003425e-05
1.003121e-05
1.0028361e-05
1.0025706e-05
1.0023241e-05
1.0020971e-05
1.001888e-05
1.0016924e-05
1.0015044e-05
1.001323e-05
1.001159e-05
1.0010303e-05
1.0009443e-05
1.0008882e-05
1.0008394e-05
1.0007748e-05
1.0006861e-05
1.0005906e-05
1.0004841e-05
1.0003662e-05
1.0002712e-05
1.0002083e-05
1.0001434e-05
1.0000834e-05
1.0000357e-05
1.0000122e-05
1.0000036e-05
1.000001e-05
1.0000002e-05
1e-05
1e-05
0.00037277966
0.00081172679
0.00094916705
0.00083132885
0.00035702116
3.7530466e-05
1.0393601e-05
1.0085217e-05
1.0117561e-05
1.0081295e-05
1.0083566e-05
1.0068514e-05
1.0064943e-05
1.0057481e-05
1.0053189e-05
1.0048296e-05
1.0044367e-05
1.0040549e-05
1.0037127e-05
1.003391e-05
1.0030934e-05
1.0028145e-05
1.0025544e-05
1.0023126e-05
1.0020891e-05
1.0018827e-05
1.0016898e-05
1.0015046e-05
1.0013249e-05
1.0011593e-05
1.001026e-05
1.0009369e-05
1.0008818e-05
1.0008344e-05
1.0007698e-05
1.0006817e-05
1.0005866e-05
1.0004817e-05
1.0003664e-05
1.0002707e-05
1.0002019e-05
1.0001392e-05
1.0000782e-05
1.0000332e-05
1.0000113e-05
1.0000032e-05
1.0000008e-05
1.0000001e-05
1e-05
1e-05
0.00037103395
0.00079923842
0.00092229648
0.00078580878
0.0003002076
2.885915e-05
1.0305592e-05
1.0082066e-05
1.0114708e-05
1.007939e-05
1.0081738e-05
1.006719e-05
1.0063729e-05
1.0056518e-05
1.0052337e-05
1.0047595e-05
1.0043768e-05
1.0040054e-05
1.0036714e-05
1.0033571e-05
1.0030658e-05
1.0027927e-05
1.0025379e-05
1.0023006e-05
1.0020805e-05
1.0018767e-05
1.0016862e-05
1.0015039e-05
1.0013263e-05
1.0011599e-05
1.0010221e-05
1.0009287e-05
1.0008736e-05
1.0008281e-05
1.0007638e-05
1.0006763e-05
1.0005818e-05
1.0004789e-05
1.000367e-05
1.0002717e-05
1.0001972e-05
1.0001367e-05
1.0000732e-05
1.0000306e-05
1.0000104e-05
1.0000029e-05
1.0000007e-05
1.0000001e-05
1e-05
1e-05
0.00036924608
0.000786566
0.00089477106
0.00073836205
0.00024891524
2.2629671e-05
1.0252962e-05
1.007923e-05
1.0111921e-05
1.007756e-05
1.0079948e-05
1.0065895e-05
1.0062532e-05
1.0055568e-05
1.0051494e-05
1.0046899e-05
1.0043172e-05
1.003956e-05
1.0036303e-05
1.0033233e-05
1.0030382e-05
1.0027708e-05
1.0025211e-05
1.002288e-05
1.0020712e-05
1.0018698e-05
1.0016818e-05
1.0015022e-05
1.0013271e-05
1.0011606e-05
1.0010188e-05
1.0009201e-05
1.0008636e-05
1.0008204e-05
1.0007572e-05
1.00067e-05
1.0005762e-05
1.0004755e-05
1.0003678e-05
1.0002737e-05
1.0001933e-05
1.0001355e-05
1.0000689e-05
1.0000281e-05
1.0000094e-05
1.0000027e-05
1.0000007e-05
1.0000001e-05
1e-05
1e-05
0.00036746937
0.00077395155
0.00086672578
0.00068992348
0.0002034278
1.8301322e-05
1.0220089e-05
1.0076655e-05
1.0109189e-05
1.00758e-05
1.0078191e-05
1.0064626e-05
1.0061352e-05
1.0054632e-05
1.005066e-05
1.004621e-05
1.0042581e-05
1.0039069e-05
1.0035893e-05
1.0032896e-05
1.0030106e-05
1.0027488e-05
1.0025041e-05
1.0022751e-05
1.0020613e-05
1.0018623e-05
1.0016765e-05
1.0014996e-05
1.0013271e-05
1.0011612e-05
1.0010161e-05
1.0009114e-05
1.000852e-05
1.0008109e-05
1.0007497e-05
1.0006629e-05
1.0005699e-05
1.0004714e-05
1.0003684e-05
1.0002758e-05
1.0001895e-05
1.0001349e-05
1.0000652e-05
1.000026e-05
1.0000086e-05
1.0000024e-05
1.0000006e-05
1.0000001e-05
1e-05
1e-05
0.00036576244
0.00076166923
0.00083865719
0.00063874664
0.00016492142
1.5378952e-05
1.0198948e-05
1.0074292e-05
1.010651e-05
1.0074103e-05
1.0076464e-05
1.0063382e-05
1.0060189e-05
1.0053707e-05
1.0049836e-05
1.0045526e-05
1.0041994e-05
1.0038581e-05
1.0035486e-05
1.003256e-05
1.0029831e-05
1.0027267e-05
1.0024868e-05
1.0022618e-05
1.0020509e-05
1.0018542e-05
1.0016705e-05
1.0014961e-05
1.0013263e-05
1.0011617e-05
1.001014e-05
1.000903e-05
1.0008391e-05
1.0007995e-05
1.0007416e-05
1.0006552e-05
1.0005631e-05
1.0004669e-05
1.000368e-05
1.0002769e-05
1.0001858e-05
1.0001338e-05
1.0000615e-05
1.0000241e-05
1.0000078e-05
1.0000022e-05
1.0000005e-05
1.0000001e-05
1e-05
1e-05
0.00036414683
0.00074978024
0.00081323765
0.00058510182
0.0001319521
1.3433511e-05
1.0184606e-05
1.0072114e-05
1.0103875e-05
1.0072464e-05
1.0074765e-05
1.0062161e-05
1.0059042e-05
1.0052795e-05
1.004902e-05
1.0044849e-05
1.0041411e-05
1.0038096e-05
1.003508e-05
1.0032226e-05
1.0029557e-05
1.0027046e-05
1.0024694e-05
1.0022482e-05
1.0020401e-05
1.0018454e-05
1.0016637e-05
1.0014917e-05
1.0013246e-05
1.0011618e-05
1.0010124e-05
1.0008952e-05
1.0008251e-05
1.000786e-05
1.0007324e-05
1.0006471e-05
1.0005558e-05
1.0004619e-05
1.0003659e-05
1.0002764e-05
1.0001826e-05
1.000132e-05
1.0000578e-05
1.0000223e-05
1.0000071e-05
1.0000019e-05
1.0000005e-05
1.0000001e-05
1e-05
1e-05
0.0003625715
0.00073763664
0.00078648376
0.00052881614
0.00010383509
1.2171168e-05
1.0174336e-05
1.0070101e-05
1.0101284e-05
1.007088e-05
1.0073096e-05
1.0060963e-05
1.005791e-05
1.0051895e-05
1.0048214e-05
1.0044178e-05
1.0040834e-05
1.0037615e-05
1.0034678e-05
1.0031894e-05
1.0029284e-05
1.0026825e-05
1.0024518e-05
1.0022344e-05
1.002029e-05
1.0018362e-05
1.0016563e-05
1.0014865e-05
1.0013221e-05
1.0011614e-05
1.0010111e-05
1.0008882e-05
1.0008107e-05
1.0007704e-05
1.000722e-05
1.0006387e-05
1.0005482e-05
1.0004563e-05
1.0003622e-05
1.0002748e-05
1.0001805e-05
1.0001297e-05
1.000054e-05
1.0000205e-05
1.0000065e-05
1.0000017e-05
1.0000004e-05
1.0000001e-05
1e-05
1e-05
0.00036110664
0.00072553973
0.00075986294
0.00047094836
8.0628655e-05
1.1378557e-05
1.0166521e-05
1.0068231e-05
1.0098734e-05
1.0069345e-05
1.0071453e-05
1.0059786e-05
1.0056794e-05
1.0051006e-05
1.0047416e-05
1.0043514e-05
1.0040261e-05
1.0037137e-05
1.0034278e-05
1.0031564e-05
1.0029012e-05
1.0026604e-05
1.0024342e-05
1.0022203e-05
1.0020175e-05
1.0018265e-05
1.0016483e-05
1.0014806e-05
1.0013187e-05
1.0011603e-05
1.00101e-05
1.0008821e-05
1.0007964e-05
1.0007531e-05
1.0007101e-05
1.0006301e-05
1.0005404e-05
1.0004504e-05
1.0003577e-05
1.0002728e-05
1.0001806e-05
1.0001269e-05
1.0000502e-05
1.0000188e-05
1.0000059e-05
1.0000016e-05
1.0000004e-05
1.0000001e-05
1e-05
1e-05
0.00035976078
0.00071336498
0.00073269267
0.00041244405
6.193429e-05
1.0893126e-05
1.016013e-05
1.0066486e-05
1.009622e-05
1.0067855e-05
1.0069835e-05
1.0058629e-05
1.0055694e-05
1.0050128e-05
1.0046629e-05
1.0042856e-05
1.0039695e-05
1.0036663e-05
1.0033881e-05
1.0031236e-05
1.0028741e-05
1.0026384e-05
1.0024165e-05
1.0022061e-05
1.0020058e-05
1.0018165e-05
1.0016398e-05
1.001474e-05
1.0013145e-05
1.0011585e-05
1.0010088e-05
1.000877e-05
1.000783e-05
1.0007345e-05
1.0006964e-05
1.0006212e-05
1.0005325e-05
1.0004442e-05
1.0003528e-05
1.0002701e-05
1.000182e-05
1.0001236e-05
1.0000468e-05
1.0000172e-05
1.0000053e-05
1.0000014e-05
1.0000003e-05
1.0000001e-05
1e-05
1e-05
0.0003583976
0.00070050436
0.00070487028
0.0003555328
4.7295616e-05
1.0601317e-05
1.0154575e-05
1.006485e-05
1.009374e-05
1.0066406e-05
1.0068243e-05
1.0057491e-05
1.0054608e-05
1.0049262e-05
1.0045851e-05
1.0042207e-05
1.0039134e-05
1.0036194e-05
1.0033487e-05
1.003091e-05
1.0028473e-05
1.0026165e-05
1.0023987e-05
1.0021917e-05
1.0019938e-05
1.0018061e-05
1.0016308e-05
1.0014667e-05
1.0013095e-05
1.0011558e-05
1.0010073e-05
1.0008727e-05
1.0007707e-05
1.0007154e-05
1.0006806e-05
1.0006118e-05
1.0005246e-05
1.0004375e-05
1.0003475e-05
1.0002663e-05
1.0001817e-05
1.0001198e-05
1.0000434e-05
1.0000156e-05
1.0000048e-05
1.0000013e-05
1.0000003e-05
1e-05
1e-05
1e-05
0.00035694731
0.00068640935
0.00067576135
0.00030312665
3.619636e-05
1.0426968e-05
1.014953e-05
1.0063323e-05
1.0091288e-05
1.0064997e-05
1.0066675e-05
1.0056372e-05
1.0053538e-05
1.0048406e-05
1.0045084e-05
1.0041564e-05
1.0038581e-05
1.003573e-05
1.0033098e-05
1.0030587e-05
1.0028206e-05
1.0025946e-05
1.002381e-05
1.0021772e-05
1.0019816e-05
1.0017955e-05
1.0016213e-05
1.0014588e-05
1.0013037e-05
1.0011523e-05
1.0010053e-05
1.0008691e-05
1.00076e-05
1.0006966e-05
1.000663e-05
1.0006016e-05
1.0005168e-05
1.0004305e-05
1.0003414e-05
1.0002617e-05
1.0001786e-05
1.0001158e-05
1.0000402e-05
1.0000141e-05
1.0000043e-05
1.0000011e-05
1.0000003e-05
1e-05
1e-05
1e-05
0.00035532852
0.00067096509
0.00064466555
0.00025509521
2.7967259e-05
1.0321511e-05
1.0145248e-05
1.0061892e-05
1.0088869e-05
1.0063624e-05
1.0065132e-05
1.0055271e-05
1.0052484e-05
1.0047562e-05
1.0044327e-05
1.004093e-05
1.0038034e-05
1.0035271e-05
1.0032712e-05
1.0030266e-05
1.0027941e-05
1.0025729e-05
1.0023633e-05
1.0021626e-05
1.0019692e-05
1.0017846e-05
1.0016115e-05
1.0014503e-05
1.0012971e-05
1.001148e-05
1.0010027e-05
1.0008658e-05
1.0007511e-05
1.0006789e-05
1.0006437e-05
1.0005902e-05
1.000509e-05
1.0004231e-05
1.0003347e-05
1.0002565e-05
1.0001743e-05
1.0001117e-05
1.000037e-05
1.0000128e-05
1.0000038e-05
1.000001e-05
1.0000002e-05
1e-05
1e-05
1e-05
0.00035343313
0.00065379913
0.00060901907
0.00021152756
2.2104829e-05
1.0258935e-05
1.0141018e-05
1.0060543e-05
1.0086479e-05
1.0062284e-05
1.0063609e-05
1.0054188e-05
1.0051445e-05
1.0046729e-05
1.0043581e-05
1.0040305e-05
1.0037495e-05
1.0034818e-05
1.003233e-05
1.0029949e-05
1.0027678e-05
1.0025513e-05
1.0023456e-05
1.0021478e-05
1.0019567e-05
1.0017735e-05
1.0016014e-05
1.0014413e-05
1.0012898e-05
1.0011428e-05
1.0009993e-05
1.0008627e-05
1.0007437e-05
1.000663e-05
1.0006236e-05
1.0005773e-05
1.000501e-05
1.0004156e-05
1.0003279e-05
1.0002509e-05
1.0001697e-05
1.0001066e-05
1.0000339e-05
1.0000115e-05
1.0000034e-05
1.0000009e-05
1.0000002e-05
1e-05
1e-05
1e-05
0.00035130198
0.00063525398
0.00056837589
0.00017323342
1.8043247e-05
1.0220773e-05
1.0136743e-05
1.0059273e-05
1.0084118e-05
1.0060975e-05
1.0062109e-05
1.0053121e-05
1.0050422e-05
1.0045907e-05
1.0042846e-05
1.0039689e-05
1.0036964e-05
1.0034371e-05
1.0031953e-05
1.0029634e-05
1.0027418e-05
1.0025299e-05
1.0023279e-05
1.0021331e-05
1.0019441e-05
1.0017623e-05
1.0015911e-05
1.0014319e-05
1.0012818e-05
1.0011367e-05
1.0009952e-05
1.0008593e-05
1.0007378e-05
1.0006492e-05
1.0006036e-05
1.0005626e-05
1.0004926e-05
1.0004083e-05
1.0003213e-05
1.0002451e-05
1.0001648e-05
1.0001004e-05
1.000031e-05
1.0000103e-05
1.000003e-05
1.0000008e-05
1.0000002e-05
1e-05
1e-05
1e-05
0.00034899206
0.00061587978
0.00052345945
0.00014110924
1.5302585e-05
1.0196829e-05
1.0132498e-05
1.0058067e-05
1.0081788e-05
1.0059693e-05
1.0060633e-05
1.0052071e-05
1.0049416e-05
1.0045097e-05
1.0042124e-05
1.0039083e-05
1.0036442e-05
1.003393e-05
1.0031581e-05
1.0029324e-05
1.0027159e-05
1.0025087e-05
1.0023103e-05
1.0021183e-05
1.0019314e-05
1.0017511e-05
1.0015806e-05
1.0014221e-05
1.0012731e-05
1.0011297e-05
1.0009901e-05
1.0008556e-05
1.0007328e-05
1.000638e-05
1.0005847e-05
1.0005463e-05
1.0004832e-05
1.0004013e-05
1.0003145e-05
1.000239e-05
1.0001597e-05
1.000093e-05
1.0000281e-05
1.0000092e-05
1.0000027e-05
1.0000007e-05
1.0000002e-05
1e-05
1e-05
1e-05
0.00034651079
0.00059591631
0.00047650988
0.00011400155
1.3471947e-05
1.018107e-05
1.0128272e-05
1.0056921e-05
1.0079487e-05
1.0058438e-05
1.0059184e-05
1.0051038e-05
1.0048425e-05
1.0044299e-05
1.0041414e-05
1.0038487e-05
1.0035929e-05
1.0033496e-05
1.0031213e-05
1.0029017e-05
1.0026905e-05
1.0024877e-05
1.0022928e-05
1.0021035e-05
1.0019187e-05
1.0017398e-05
1.0015701e-05
1.001412e-05
1.0012639e-05
1.0011219e-05
1.000984e-05
1.0008511e-05
1.0007284e-05
1.0006291e-05
1.0005679e-05
1.0005288e-05
1.0004725e-05
1.0003946e-05
1.0003075e-05
1.0002327e-05
1.0001545e-05
1.0000844e-05
1.0000253e-05
1.0000082e-05
1.0000023e-05
1.0000007e-05
1.0000001e-05
1e-05
1e-05
1e-05
0.00034376151
0.00057463585
0.00043108765
9.0621955e-05
1.227038e-05
1.0170139e-05
1.0124086e-05
1.0055832e-05
1.0077217e-05
1.0057208e-05
1.0057755e-05
1.0050022e-05
1.0047453e-05
1.0043515e-05
1.0040718e-05
1.0037902e-05
1.0035425e-05
1.003307e-05
1.0030852e-05
1.0028714e-05
1.0026653e-05
1.002467e-05
1.0022754e-05
1.0020887e-05
1.001906e-05
1.0017285e-05
1.0015596e-05
1.0014018e-05
1.0012542e-05
1.0011134e-05
1.000977e-05
1.0008459e-05
1.000724e-05
1.0006223e-05
1.000554e-05
1.0005111e-05
1.0004599e-05
1.0003878e-05
1.0003003e-05
1.0002261e-05
1.0001493e-05
1.0000747e-05
1.0000228e-05
1.0000073e-05
1.0000021e-05
1.0000006e-05
1.0000001e-05
1e-05
1e-05
1e-05
0.00034090287
0.00055213494
0.00038423312
7.0978051e-05
1.1515154e-05
1.0162085e-05
1.0119947e-05
1.0054794e-05
1.0074978e-05
1.0056e-05
1.0056347e-05
1.0049025e-05
1.0046498e-05
1.0042744e-05
1.0040034e-05
1.0037326e-05
1.003493e-05
1.003265e-05
1.0030496e-05
1.0028415e-05
1.0026405e-05
1.0024464e-05
1.0022581e-05
1.002074e-05
1.0018934e-05
1.0017173e-05
1.0015491e-05
1.0013915e-05
1.0012442e-05
1.0011041e-05
1.0009692e-05
1.0008397e-05
1.0007193e-05
1.000617e-05
1.0005434e-05
1.0004943e-05
1.0004455e-05
1.0003801e-05
1.0002932e-05
1.000219e-05
1.0001438e-05
1.0000654e-05
1.0000203e-05
1.0000064e-05
1.0000018e-05
1.0000005e-05
1.0000001e-05
1e-05
1e-05
1e-05
0.00033839985
0.00053196639
0.00033775787
5.5014115e-05
1.1037468e-05
1.0155683e-05
1.0115854e-05
1.0053796e-05
1.0072768e-05
1.0054812e-05
1.0054965e-05
1.0048053e-05
1.0045561e-05
1.0041986e-05
1.0039363e-05
1.0036762e-05
1.0034445e-05
1.0032239e-05
1.0030147e-05
1.0028122e-05
1.0026161e-05
1.0024261e-05
1.002241e-05
1.0020594e-05
1.0018807e-05
1.0017061e-05
1.0015388e-05
1.0013812e-05
1.0012339e-05
1.0010943e-05
1.0009606e-05
1.0008327e-05
1.0007139e-05
1.0006123e-05
1.0005357e-05
1.0004797e-05
1.0004301e-05
1.0003695e-05
1.0002861e-05
1.0002114e-05
1.0001382e-05
1.0000568e-05
1.0000181e-05
1.0000057e-05
1.0000016e-05
1.0000005e-05
1.0000001e-05
1e-05
1e-05
1e-05
0.00033598892
0.0005107916
0.00029204077
4.2389621e-05
1.0742498e-05
1.0150258e-05
1.0111799e-05
1.0052838e-05
1.0070588e-05
1.0053642e-05
1.0053603e-05
1.00471e-05
1.0044642e-05
1.0041242e-05
1.0038706e-05
1.0036209e-05
1.0033971e-05
1.0031836e-05
1.0029805e-05
1.0027834e-05
1.0025921e-05
1.0024061e-05
1.0022241e-05
1.002045e-05
1.0018682e-05
1.0016951e-05
1.0015285e-05
1.001371e-05
1.0012233e-05
1.001084e-05
1.0009513e-05
1.0008248e-05
1.0007076e-05
1.0006073e-05
1.0005299e-05
1.0004679e-05
1.0004145e-05
1.0003552e-05
1.000279e-05
1.0002033e-05
1.0001324e-05
1.0000491e-05
1.000016e-05
1.000005e-05
1.0000014e-05
1.0000004e-05
1.0000001e-05
1e-05
1e-05
1e-05
0.00033388384
0.00048886364
0.00024830612
3.2719615e-05
1.0562956e-05
1.0145391e-05
1.0107772e-05
1.0051921e-05
1.006844e-05
1.005249e-05
1.0052257e-05
1.0046161e-05
1.0043743e-05
1.0040511e-05
1.0038063e-05
1.0035667e-05
1.0033506e-05
1.0031443e-05
1.002947e-05
1.0027552e-05
1.0025686e-05
1.0023863e-05
1.0022074e-05
1.0020306e-05
1.0018557e-05
1.001684e-05
1.0015182e-05
1.0013608e-05
1.0012126e-05
1.0010736e-05
1.0009416e-05
1.0008164e-05
1.0007005e-05
1.0006013e-05
1.0005243e-05
1.0004585e-05
1.0003999e-05
1.0003398e-05
1.0002713e-05
1.0001947e-05
1.0001265e-05
1.0000427e-05
1.0000142e-05
1.0000044e-05
1.0000013e-05
1.0000004e-05
1.0000001e-05
1e-05
1e-05
1e-05
0.00033228852
0.000466068
0.00020755497
2.5555309e-05
1.0454456e-05
1.0140851e-05
1.0103776e-05
1.0051044e-05
1.0066325e-05
1.0051356e-05
1.005094e-05
1.0045236e-05
1.0042861e-05
1.0039794e-05
1.0037434e-05
1.0035137e-05
1.0033053e-05
1.0031059e-05
1.0029143e-05
1.0027277e-05
1.0025454e-05
1.0023669e-05
1.0021909e-05
1.0020165e-05
1.0018433e-05
1.001673e-05
1.0015081e-05
1.0013506e-05
1.0012023e-05
1.0010631e-05
1.0009317e-05
1.0008076e-05
1.0006929e-05
1.0005941e-05
1.0005173e-05
1.00045e-05
1.0003865e-05
1.0003242e-05
1.0002631e-05
1.0001856e-05
1.0001202e-05
1.0000378e-05
1.0000125e-05
1.0000038e-05
1.0000011e-05
1.0000003e-05
1.0000001e-05
1e-05
1e-05
1e-05
0.00033131491
0.0004441192
0.00017121282
2.0507501e-05
1.0385957e-05
1.0136523e-05
1.0099826e-05
1.0050197e-05
1.0064247e-05
1.0050238e-05
1.0049663e-05
1.0044326e-05
1.0042e-05
1.0039092e-05
1.003682e-05
1.003462e-05
1.0032612e-05
1.0030685e-05
1.0028825e-05
1.0027009e-05
1.0025227e-05
1.0023477e-05
1.0021747e-05
1.0020025e-05
1.0018312e-05
1.0016622e-05
1.001498e-05
1.0013406e-05
1.0011922e-05
1.0010529e-05
1.0009218e-05
1.0007988e-05
1.0006852e-05
1.0005862e-05
1.0005081e-05
1.0004404e-05
1.0003738e-05
1.0003086e-05
1.0002525e-05
1.0001775e-05
1.0001125e-05
1.0000338e-05
1.000011e-05
1.0000033e-05
1.000001e-05
1.0000003e-05
1e-05
1e-05
1e-05
1e-05
0.00033038675
0.00041657055
0.00013907773
1.7034067e-05
1.0340945e-05
1.0132353e-05
1.0095919e-05
1.0049378e-05
1.0062207e-05
1.0049136e-05
1.0048418e-05
1.0043432e-05
1.0041158e-05
1.0038404e-05
1.0036221e-05
1.0034116e-05
1.0032182e-05
1.0030321e-05
1.0028517e-05
1.0026747e-05
1.0025006e-05
1.002329e-05
1.0021588e-05
1.0019888e-05
1.0018192e-05
1.0016515e-05
1.001488e-05
1.001331e-05
1.0011824e-05
1.0010429e-05
1.0009122e-05
1.0007901e-05
1.0006778e-05
1.0005784e-05
1.0004975e-05
1.000429e-05
1.0003613e-05
1.0002921e-05
1.0002394e-05
1.0001698e-05
1.0001012e-05
1.00003e-05
1.0000096e-05
1.0000029e-05
1.0000009e-05
1.0000003e-05
1e-05
1e-05
1e-05
1e-05
0.00032969922
0.00038734749
0.00011179934
1.4713472e-05
1.0309514e-05
1.0128305e-05
1.0092058e-05
1.0048586e-05
1.0060208e-05
1.004805e-05
1.0047197e-05
1.0042552e-05
1.0040336e-05
1.0037731e-05
1.0035637e-05
1.0033625e-05
1.0031766e-05
1.0029968e-05
1.0028219e-05
1.0026493e-05
1.002479e-05
1.0023106e-05
1.0021431e-05
1.0019754e-05
1.0018074e-05
1.0016409e-05
1.0014783e-05
1.0013216e-05
1.0011728e-05
1.0010333e-05
1.0009029e-05
1.0007818e-05
1.000671e-05
1.0005717e-05
1.0004875e-05
1.000417e-05
1.0003495e-05
1.0002767e-05
1.0002249e-05
1.0001613e-05
1.0000875e-05
1.0000265e-05
1.0000084e-05
1.0000025e-05
1.0000008e-05
1.0000002e-05
1e-05
1e-05
1e-05
1e-05
0.00032885218
0.0003539834
8.9914319e-05
1.3192121e-05
1.0286055e-05
1.0124367e-05
1.0088245e-05
1.0047816e-05
1.005825e-05
1.0046976e-05
1.0045994e-05
1.0041688e-05
1.0039533e-05
1.0037074e-05
1.0035069e-05
1.0033149e-05
1.0031362e-05
1.0029628e-05
1.0027931e-05
1.0026247e-05
1.0024579e-05
1.0022927e-05
1.0021278e-05
1.0019622e-05
1.001796e-05
1.0016307e-05
1.0014689e-05
1.0013124e-05
1.0011635e-05
1.0010241e-05
1.0008942e-05
1.0007739e-05
1.0006646e-05
1.0005665e-05
1.0004797e-05
1.000407e-05
1.0003395e-05
1.0002669e-05
1.0002109e-05
1.0001504e-05
1.0000753e-05
1.0000232e-05
1.0000074e-05
1.0000022e-05
1.0000007e-05
1.0000002e-05
1e-05
1e-05
1e-05
1e-05
0.0003276507
0.00031807635
7.1393128e-05
1.2192734e-05
1.0267321e-05
1.0120522e-05
1.0084476e-05
1.0047056e-05
1.0056334e-05
1.0045907e-05
1.0044815e-05
1.0040838e-05
1.003875e-05
1.0036433e-05
1.0034518e-05
1.0032687e-05
1.0030973e-05
1.0029301e-05
1.0027653e-05
1.0026009e-05
1.0024375e-05
1.0022752e-05
1.0021128e-05
1.0019494e-05
1.0017847e-05
1.0016208e-05
1.0014597e-05
1.0013034e-05
1.0011545e-05
1.0010152e-05
1.000886e-05
1.0007666e-05
1.0006586e-05
1.0005613e-05
1.0004743e-05
1.0004012e-05
1.0003312e-05
1.0002621e-05
1.000199e-05
1.0001371e-05
1.0000647e-05
1.0000203e-05
1.0000064e-05
1.0000019e-05
1.0000006e-05
1.0000002e-05
1e-05
1e-05
1e-05
1e-05
0.00032565506
0.00027722544
5.6421572e-05
1.1553292e-05
1.0251441e-05
1.0116774e-05
1.008075e-05
1.0046303e-05
1.0054459e-05
1.0044841e-05
1.0043673e-05
1.0040004e-05
1.0037988e-05
1.0035809e-05
1.0033983e-05
1.0032241e-05
1.0030598e-05
1.0028988e-05
1.0027386e-05
1.0025779e-05
1.0024177e-05
1.0022581e-05
1.0020982e-05
1.0019368e-05
1.0017739e-05
1.0016114e-05
1.0014509e-05
1.0012947e-05
1.0011457e-05
1.0010066e-05
1.0008781e-05
1.0007597e-05
1.0006526e-05
1.0005556e-05
1.0004702e-05
1.0003985e-05
1.0003232e-05
1.0002579e-05
1.0001894e-05
1.0001241e-05
1.0000545e-05
1.0000177e-05
1.0000056e-05
1.0000016e-05
1.0000005e-05
1.0000001e-05
1e-05
1e-05
1e-05
1e-05
0.00032334076
0.00023701908
4.4959821e-05
1.1147835e-05
1.0237251e-05
1.011313e-05
1.0077068e-05
1.0045551e-05
1.0052626e-05
1.0043795e-05
1.0042575e-05
1.0039185e-05
1.0037248e-05
1.0035202e-05
1.0033466e-05
1.0031811e-05
1.0030238e-05
1.0028687e-05
1.0027129e-05
1.0025558e-05
1.0023985e-05
1.0022415e-05
1.0020839e-05
1.0019245e-05
1.0017635e-05
1.0016023e-05
1.0014426e-05
1.0012865e-05
1.0011372e-05
1.0009981e-05
1.0008704e-05
1.0007533e-05
1.0006465e-05
1.0005492e-05
1.0004654e-05
1.0003962e-05
1.0003161e-05
1.0002532e-05
1.0001811e-05
1.000114e-05
1.0000434e-05
1.0000154e-05
1.0000048e-05
1.0000014e-05
1.0000005e-05
1.0000001e-05
1e-05
1e-05
1e-05
1e-05
0.00032125716
0.00020708654
3.6392425e-05
1.0884715e-05
1.0223957e-05
1.0109599e-05
1.0073421e-05
1.0044797e-05
1.0050837e-05
1.0042762e-05