/*--------------------------------*- C++ -*----------------------------------*\
| =========                 |                                                 |
| \\      /  F ield         | OpenFOAM: The Open Source CFD Toolbox           |
|  \\    /   O peration     | Version:  2306                                  |
|   \\  /    A nd           | Website:  www.openfoam.com                      |
|    \\/     M anipulation  |                                                 |
\*---------------------------------------------------------------------------*/
FoamFile
{
    version     2.0;
    format      ascii;
    arch        "LSB;label=32;scalar=64";
    class       volScalarField;
    location    "0.005";
    object      p;
}
// * * * * * * * * * * * * * * * * * * * * * * * * * * * * * * * * * * * * * //

dimensions      [1 -1 -2 0 0 0 0];

internalField   nonuniform List<scalar> 
20000
(
99396.371
99398.324
99400.356
99403.385
99407.506
99413.019
99420.004
99428.269
99438.222
99450.109
99464.07
99480.888
99500.347
99523.711
99550.535
99582.315
99618.585
99660.67
99708.086
99761.58
99820.329
99883.984
99950.793
100018.82
100085.02
100146.15
100198.72
100239.99
100268.11
100282.32
100283.99
100275.97
100259.77
100235.44
100207.29
100178.9
100139.88
100108.19
100096.74
100102.88
100150.87
100195.04
100209.04
100139.93
100067.19
100025.2
100007.5
100001.76
100000.32
100000.04
99404.996
99407.176
99409.258
99412.405
99416.727
99422.522
99429.893
99438.542
99448.887
99461.215
99475.629
99492.996
99513.025
99537.094
99564.688
99597.39
99634.668
99677.901
99726.55
99781.343
99841.39
99906.237
99974.012
100042.6
100108.8
100169.23
100220.36
100259.63
100285.19
100296.41
100295.32
100284.73
100266.39
100240.42
100211.12
100181.62
100142.01
100111.4
100099.92
100104.29
100152.29
100195.02
100209.96
100141.91
100068.68
100026.27
100008.02
100001.94
100000.36
100000.05
99415.76
99417.944
99420.139
99423.403
99427.902
99433.9
99441.503
99450.407
99461.047
99473.747
99488.572
99506.477
99527.091
99551.896
99580.298
99613.96
99652.291
99696.71
99746.628
99802.75
99864.11
99930.146
99998.852
100067.94
100134.03
100193.63
100243.17
100280.25
100302.99
100311.13
100307.08
100293.8
100273.2
100245.52
100214.98
100184.32
100144.15
100114.41
100102.89
100105.8
100153.81
100195.23
100211.02
100143.72
100070.13
100027.31
100008.5
100002.1
100000.4
100000.05
99427.638
99429.843
99432.142
99435.524
99440.206
99446.409
99454.253
99463.447
99474.425
99487.552
99502.845
99521.35
99542.606
99568.203
99597.462
99632.134
99671.567
99717.218
99768.448
99825.934
99888.63
99955.855
100025.45
100094.95
100160.82
100219.4
100267.17
100301.85
100321.52
100326.47
100319.27
100303.15
100280.19
100250.71
100218.86
100187
100146.34
100117.3
100105.66
100107.41
100155.32
100195.63
100212.21
100145.42
100071.5
100028.28
100008.95
100002.26
100000.43
100000.06
99440.629
99442.897
99445.319
99448.845
99453.742
99460.17
99468.284
99477.82
99489.196
99502.804
99518.601
99537.74
99559.666
99586.086
99616.235
99651.955
99692.531
99739.456
99792.04
99850.923
99914.973
99983.379
100053.82
100123.64
100189.12
100246.49
100292.29
100324.3
100340.65
100342.3
100331.8
100312.73
100287.34
100255.99
100222.76
100189.63
100148.6
100120.06
100108.23
100109.12
100156.87
100196.28
100213.52
100147
100072.82
100029.12
100009.38
100002.39
100000.47
100000.07
99455.327
99457.664
99460.21
99463.877
99468.989
99475.643
99484.041
99493.884
99505.62
99519.689
99535.974
99555.743
99578.343
99605.603
99636.669
99673.469
99715.232
99763.474
99817.455
99877.764
99943.178
100012.75
100083.98
100154.01
100218.93
100274.87
100318.49
100347.51
100360.34
100358.51
100344.56
100322.45
100294.59
100261.31
100226.65
100192.22
100150.89
100122.71
100110.63
100110.96
100158.46
100197.15
100214.95
100148.48
100074.05
100029.89
100009.75
100002.52
100000.5
100000.07
99471.582
99473.992
99476.668
99480.489
99485.838
99492.741
99501.432
99511.575
99523.652
99538.175
99554.945
99575.356
99598.648
99626.776
99658.791
99696.712
99739.706
99789.312
99844.735
99906.507
99973.299
100044.01
100115.97
100186.08
100250.26
100304.52
100345.71
100371.42
100380.58
100375.03
100357.46
100332.23
100301.83
100266.61
100230.5
100194.77
100153.19
100125.21
100112.87
100112.98
100160.07
100198.26
100216.51
100149.87
100075.18
100030.59
100010.07
100002.63
100000.53
100000.08
99489.308
99491.794
99494.586
99498.56
99504.146
99511.289
99520.258
99530.733
99543.177
99558.189
99575.476
99596.566
99620.584
99649.618
99682.63
99721.718
99765.995
99817.015
99873.929
99937.2
100005.38
100077.21
100149.81
100219.86
100283.08
100335.46
100373.92
100395.98
100401.32
100391.81
100370.49
100342.03
100309.02
100271.82
100234.23
100197.21
100155.44
100127.56
100114.98
100115.05
100161.73
100199.64
100218.19
100151.2
100076.19
100031.2
100010.35
100002.73
100000.55
100000.08
99508.271
99510.882
99513.797
99517.952
99523.819
99531.24
99540.524
99551.369
99564.215
99579.753
99597.59
99619.397
99644.18
99674.165
99708.219
99748.526
99794.14
99846.627
99905.081
99969.883
100039.47
100112.37
100185.52
100255.34
100317.38
100367.62
100403.02
100421.11
100422.46
100408.79
100383.58
100351.79
100316.11
100276.89
100237.77
100199.48
100157.56
100129.74
100116.95
100116.99
100163.51
100201.27
100220
100152.47
100077.11
100031.75
100010.6
100002.82
100000.57
100000.09
99528.749
99531.495
99534.544
99538.891
99545.048
99552.747
99562.347
99573.575
99586.83
99602.916
99621.326
99643.885
99669.471
99700.452
99735.599
99777.177
99824.184
99878.193
99938.233
100004.58
100075.56
100149.49
100223.08
100292.49
100353.08
100400.94
100432.89
100446.8
100443.9
100425.88
100396.65
100361.45
100323.05
100281.78
100241.11
100201.55
100159.48
100131.71
100118.76
100118.87
100165.5
100203.1
100221.94
100153.71
100077.96
100032.25
100010.83
100002.89
100000.59
100000.09
99550.832
99553.705
99556.871
99561.397
99567.832
99575.802
99585.716
99597.343
99611.029
99627.693
99646.705
99670.056
99696.484
99728.509
99764.803
99807.71
99856.174
99911.759
99973.429
100041.36
100113.72
100188.62
100262.52
100331.3
100390.19
100435.35
100463.43
100472.98
100465.56
100443.02
100409.64
100370.97
100329.82
100286.46
100244.21
100203.4
100161.2
100133.47
100120.4
100120.82
100167.8
100205.18
100224.02
100154.94
100078.77
100032.65
100010.97
100002.92
100000.59
100000.09
99574.147
99577.185
99580.514
99585.275
99592.049
99600.345
99610.615
99622.684
99636.829
99654.104
99673.745
99697.922
99725.234
99758.354
99795.857
99840.165
99890.157
99947.378
100010.72
100080.26
100153.99
100229.79
100303.84
100371.75
100428.66
100470.77
100494.58
100499.58
100487.36
100460.14
100422.52
100380.31
100336.38
100290.92
100247.06
100205.03
100162.7
100135.03
100121.92
100122.83
100170.43
100207.54
100226.25
100156.09
100079.35
100032.87
100011.03
100002.94
100000.6
100000.09
99599.24
99602.425
99605.889
99610.862
99617.942
99626.53
99637.124
99649.619
99664.217
99682.122
99702.424
99727.481
99755.74
99790.024
99828.808
99874.583
99926.171
99985.092
100050.17
100121.33
100196.4
100273
100347.03
100413.81
100468.47
100507.09
100526.27
100526.49
100509.22
100477.18
100435.23
100389.45
100342.71
100295.12
100249.65
100206.41
100163.99
100136.38
100123.31
100124.9
100173.39
100210.2
100228.63
100157.08
100079.62
100032.95
100011.06
100002.95
100000.6
100000.09
99625.539
99628.888
99632.496
99637.7
99645.101
99654.003
99664.982
99677.978
99693.106
99711.729
99732.771
99758.791
99788.072
99823.592
99863.73
99911.036
99964.291
100024.97
100091.82
100164.62
100241
100318.29
100392.08
100457.45
100509.52
100544.18
100558.47
100553.57
100531.06
100494.06
100447.71
100398.32
100348.77
100299.05
100251.95
100207.57
100165.04
100137.52
100124.51
100127.05
100176.71
100213.19
100231.15
100157.71
100079.7
100032.95
100011.05
100002.94
100000.6
100000.09
99653.112
99656.663
99660.454
99665.94
99673.699
99682.97
99694.411
99707.991
99723.715
99743.118
99764.948
99791.981
99822.332
99859.142
99900.695
99949.599
100004.58
100067.08
100135.75
100210.18
100287.81
100365.66
100438.97
100502.61
100551.73
100581.91
100591.09
100580.74
100552.79
100510.71
100459.91
100406.89
100354.53
100302.67
100253.95
100208.49
100165.86
100138.45
100125.54
100129.3
100180.39
100216.53
100233.77
100157.99
100079.6
100032.82
100010.98
100002.92
100000.59
100000.09
99682.768
99686.509
99690.47
99696.229
99704.333
99713.992
99725.85
99739.977
99756.266
99776.444
99799.065
99827.132
99858.591
99896.737
99939.766
99990.33
100047.11
100111.48
100182
100258.06
100336.87
100415.11
100487.68
100549.28
100594.98
100620.21
100624
100607.87
100574.31
100527.06
100471.76
100415.13
100359.96
100305.97
100255.66
100209.11
100166.48
100139.17
100126.4
100131.68
100184.47
100220.25
100236.46
100158.07
100079.26
100032.54
100010.85
100002.87
100000.58
100000.09
99714.027
99717.997
99722.165
99728.257
99736.781
99746.868
99759.155
99773.85
99790.718
99811.7
99835.139
99864.281
99896.896
99936.435
99981.005
100033.29
100091.94
100158.24
100230.63
100308.3
100388.21
100466.63
100538.16
100597.37
100639.11
100658.98
100657.05
100634.87
100595.54
100543.04
100483.23
100422.98
100365.02
100308.91
100257.05
100209.37
100166.82
100139.69
100127.12
100134.21
100188.94
100224.4
100239.19
100157.88
100078.68
100032.14
100010.66
100002.81
100000.57
100000.09
99747.269
99751.458
99755.814
99762.217
99771.121
99781.592
99794.321
99809.606
99827.072
99848.9
99873.196
99903.466
99937.296
99978.287
100024.47
100078.55
100139.14
100207.41
100281.7
100360.96
100441.84
100520.22
100590.38
100646.79
100683.98
100698.17
100690.09
100661.63
100616.37
100558.57
100494.25
100430.42
100369.69
100311.48
100258.1
100209.37
100166.91
100139.99
100127.7
100136.92
100193.83
100229.03
100241.91
100157.35
100077.86
100031.59
100010.41
100002.73
100000.55
100000.09
99782.16
99786.589
99791.142
99797.885
99807.209
99818.104
99831.315
99847.245
99865.353
99888.082
99913.287
99944.737
99979.842
100022.35
100070.22
100126.17
100188.76
100259.07
100335.28
100416.07
100497.77
100575.84
100644.27
100697.41
100729.43
100737.63
100723
100688.01
100636.72
100573.58
100504.78
100437.41
100373.93
100313.65
100258.67
100209.05
100166.76
100140.09
100128.16
100139.83
100199.15
100234.18
100244.57
100156.43
100076.78
100030.92
100010.11
100002.63
100000.52
100000.08
99818.795
99823.497
99828.281
99835.415
99845.203
99856.546
99870.262
99886.872
99905.637
99929.304
99955.45
99988.127
100024.57
100068.66
100118.3
100176.21
100240.89
100313.28
100391.42
100473.68
100556.03
100633.47
100699.79
100749.08
100775.36
100777.18
100755.63
100713.92
100656.5
100588.02
100514.77
100443.9
100377.72
100315.43
100258.85
100208.39
100166.39
100140.06
100128.52
100142.96
100204.91
100239.87
100247.05
100155.11
100075.44
100030.12
100009.77
100002.52
100000.5
100000.08
99857.417
99862.384
99867.408
99874.941
99885.179
99896.947
99911.154
99928.458
99947.889
99972.528
99999.664
100033.63
100071.5
100117.27
100168.79
100228.75
100295.6
100370.12
100450.18
100533.81
100616.58
100693.07
100756.84
100801.59
100821.68
100816.65
100787.84
100739.22
100675.61
100601.81
100524.18
100449.87
100381.02
100316.76
100258.65
100207.38
100165.79
100139.89
100128.77
100146.34
100211.07
100246.11
100249.22
100153.35
100073.86
100029.21
100009.38
100002.39
100000.47
100000.07
99897.556
99902.829
99908.133
99916.109
99926.811
99939.046
99953.782
99971.85
99992.002
100017.7
100045.92
100081.29
100120.7
100168.27
100221.77
100283.87
100352.97
100429.66
100511.62
100596.5
100679.43
100754.56
100815.28
100854.77
100868.25
100855.85
100819.48
100763.8
100693.97
100614.89
100532.97
100455.28
100383.82
100317.5
100258
100205.99
100164.97
100139.6
100128.96
100150.03
100217.58
100252.98
100250.86
100151.16
100072.04
100028.2
100008.96
100002.26
100000.43
100000.07
99939.475
99945.016
99950.582
99958.932
99970.064
99982.814
99998.117
100017.05
100038.03
100064.91
100094.34
100131.23
100172.3
100221.76
100277.36
100341.69
100413.11
100491.99
100575.8
100661.76
100744.54
100817.9
100874.95
100908.45
100914.87
100894.61
100850.42
100787.55
100711.49
100627.22
100541.09
100460.12
100386.12
100317.74
100256.91
100204.21
100163.91
100139.25
100129.13
100154.22
100224.53
100260.35
100251.86
100148.55
100070
100027.08
100008.51
100002.12
100000.4
100000.06
99982.597
99988.496
99994.414
100003.21
100014.9
100028.35
100044.37
100064.34
100086.26
100114.42
100145.15
100183.64
100226.44
100277.88
100335.66
100402.3
100476.09
100557.18
100642.76
100729.6
100811.88
100883.01
100935.65
100962.48
100961.34
100932.76
100880.5
100810.36
100728.11
100638.75
100548.53
100464.35
100387.88
100317.51
100255.33
100202.03
100162.63
100138.86
100129.35
100159.07
100232.02
100268.11
100252.32
100145.53
100067.74
100025.89
100008.03
100001.97
100000.37
100000.06
100028.28
100034.54
100040.85
100050.07
100062.41
100076.58
100093.24
100114.18
100137
100166.45
100198.49
100238.61
100283.23
100336.72
100396.77
100465.8
100542.01
100625.3
100712.56
100800.02
100881.39
100949.73
100997.11
101016.74
101007.39
100970.11
100909.58
100832.12
100743.74
100649.42
100555.25
100467.95
100388.98
100316.73
100253.24
100199.44
100161.09
100138.49
100129.78
100164.52
100240.06
100276.21
100252.26
100142.11
100065.28
100024.62
100007.54
100001.82
100000.34
100000.05
100076.45
100083.07
100089.8
100099.51
100112.44
100127.26
100144.53
100166.48
100190.22
100220.99
100254.41
100296.24
100342.74
100398.38
100460.79
100532.29
100610.97
100696.43
100785.22
100872.99
100952.99
101017.9
101059.14
101071.02
101052.82
101006.48
100937.52
100852.74
100758.34
100659.21
100561.23
100470.94
100389.41
100315.4
100250.63
100196.44
100159.29
100138.14
100130.51
100170.56
100248.52
100284.49
100251.1
100138.32
100062.64
100023.3
100007.03
100001.68
100000.3
100000.04
100126.51
100133.55
100140.78
100151.04
100164.6
100180.21
100198.16
100221.2
100245.93
100278.09
100312.96
100356.57
100405.08
100462.96
100527.83
100601.86
100683.05
100770.64
100860.76
100948.49
101026.62
101087.31
101121.52
101125.05
101097.4
101041.69
100964.18
100872.12
100771.84
100668.08
100566.46
100473.3
100389.31
100313.49
100247.46
100193.07
100157.22
100137.79
100131.62
100177.33
100257.31
100292.92
100248.79
100134.19
100059.83
100021.94
100006.53
100001.53
100000.27
100000.04
100179.18
100186.62
100194.37
100205.13
100219.23
100235.64
100254.25
100278.4
100304.16
100337.8
100374.21
100419.71
100470.33
100530.55
100597.99
100674.64
100758.35
100847.98
100939.2
101026.47
101102.13
101157.65
101184.09
101178.54
101140.92
101075.57
100989.45
100890.19
100784.19
100676
100570.91
100474.94
100388.58
100310.99
100243.7
100189.39
100154.9
100137.36
100133.32
100184.98
100266.28
100301.47
100245.28
100129.7
100056.89
100020.56
100006.03
100001.39
100000.24
100000.03
100233.85
100241.74
100250.05
100261.35
100276.03
100293.35
100312.7
100338.09
100364.98
100400.19
100438.27
100485.76
100538.61
100601.29
100671.4
100750.73
100836.96
100928.51
101020.53
101106.84
101179.35
101228.65
101246.63
101231.19
101183.15
101107.94
101013.2
100906.87
100795.35
100682.97
100574.6
100475.76
100387.21
100307.87
100239.35
100185.44
100152.43
100136.75
100135.92
100193.7
100275.24
100310.04
100240.62
100124.83
100053.85
100019.18
100005.54
100001.26
100000.22
100000.03
100290.8
100299.17
100308.08
100319.98
100335.26
100353.59
100373.73
100400.44
100428.55
100465.41
100505.25
100554.83
100610.04
100675.3
100748.18
100830.25
100918.98
101012.27
101104.72
101189.53
101258.04
101300.03
101308.83
101282.74
101223.86
101138.64
101035.32
100922.09
100805.3
100688.97
100577.54
100475.94
100385.19
100304.13
100234.42
100181.24
100149.9
100135.88
100139.7
100203.71
100283.92
100318.3
100234.86
100119.57
100050.75
100017.8
100005.07
100001.14
100000.19
100000.03
100350.21
100359.12
100368.69
100381.25
100397.12
100416.51
100437.49
100465.56
100494.94
100533.54
100575.25
100627.05
100684.75
100752.72
100828.48
100913.33
101004.49
101099.3
101191.73
101274.41
101337.88
101371.55
101370.36
101332.91
101262.84
101167.52
101055.74
100935.82
100814.02
100693.99
100579.7
100475.44
100382.5
100299.75
100228.94
100176.76
100147.25
100134.87
100144.93
100215.28
100292.07
100325.9
100228.04
100114.01
100047.61
100016.45
100004.62
100001.02
100000.17
100000.02
100412.27
100421.71
100431.95
100445.19
100461.62
100482.1
100503.92
100533.44
100564.18
100604.65
100648.39
100702.56
100762.92
100833.72
100912.44
101000.08
101093.57
101189.59
101281.5
101361.28
101418.5
101442.99
101430.82
101381.42
101299.87
101194.44
101074.35
100948
100821.48
100698.05
100580.9
100474.23
100379.13
100294.73
100222.92
100171.99
100144.4
100133.91
100151.66
100228.61
100299.74
100332.36
100220.26
100108.22
100044.47
100015.14
100004.19
100000.91
100000.15
100000.02
100476.63
100486.64
100497.54
100511.48
100528.52
100550.22
100573.02
100604.17
100636.46
100678.97
100724.92
100781.6
100844.75
100918.48
101000.23
101090.65
101186.29
101283.14
101373.93
101449.89
101499.57
101513.99
101489.87
101427.99
101334.76
101219.29
101091.11
100958.62
100827.68
100701.2
100581.31
100472.28
100375.07
100289.02
100216.39
100166.95
100141.39
100133
100160.15
100243.75
100307.31
100336.89
100211.7
100102.29
100041.38
100013.88
100003.79
100000.81
100000.13
100000.02
100543.25
100553.92
100565.48
100580.31
100598.14
100621.27
100645.23
100678.18
100712.16
100756.82
100805.09
100864.39
100930.44
101007.17
101091.99
101185.12
101282.68
101379.9
101468.86
101539.9
101580.74
101584.15
101547.17
101472.34
101367.32
101241.94
101105.96
100967.64
100832.65
100703.33
100580.97
100469.6
100370.3
100282.58
100209.4
100161.69
100138.37
100132.18
100170.57
100260.12
100315.75
100339.11
100202.56
100096.3
100038.34
100012.68
100003.41
100000.72
100000.12
100000.02
100613
100624.41
100636.72
100652.76
100671.47
100696.07
100721.13
100755.88
100791.56
100838.41
100889.09
100951.09
101020.14
101099.96
101187.87
101283.6
101382.76
101479.81
101566.12
101630.84
101661.74
101652.98
101602.35
101514.22
101397.4
101262.33
101118.85
100975.06
100836.44
100704.35
100579.84
100466.17
100364.78
100275.34
100202.04
100156.27
100135.36
100131.7
100183.2
100276.81
100326.26
100339.36
100193.11
100090.31
100035.39
100011.54
100003.07
100000.64
100000.1
100000.01
100686.59
100698.78
100711.92
100729.11
100748.44
100774.52
100800.68
100837.25
100874.72
100923.84
100977.05
101041.86
101114.03
101197.01
101287.99
101386.15
101486.53
101582.76
101665.39
101722.29
101742.17
101720.03
101655.08
101553.37
101424.84
101280.37
101129.75
100980.94
100838.97
100704.5
100577.91
100461.99
100358.49
100267.27
100194.38
100150.74
100132.2
100131.73
100197.05
100293.14
100339.43
100335.09
100183.59
100084.36
100032.55
100010.48
100002.75
100000.57
100000.09
100000.01
100763.45
100776.48
100790.4
100808.75
100828.79
100856.46
100883.82
100922.35
100961.74
101013.26
101069.15
101136.9
101212.3
101298.48
101392.49
101492.85
101593.95
101688.58
101766.31
101813.82
101821.53
101784.86
101705
101589.6
101449.54
101296
101138.68
100985.36
100840.17
100703.74
100575.19
100457.04
100351.39
100258.39
100186.47
100145.17
100128.61
100132.89
100211.39
100309.26
100353.52
100326.8
100174.07
100078.49
100029.85
100009.5
100002.47
100000.51
100000.08
100000.01
100843.58
100857.56
100872.27
100891.92
100912.71
100942.09
100970.78
101011.38
101052.83
101106.88
101165.6
101236.4
101315.13
101404.55
101501.48
101603.73
101704.96
101797.06
101868.33
101905.03
101899.23
101847.04
101751.81
101622.68
101471.38
101309.19
101145.72
100988.13
100840.27
100702.08
100571.68
100451.32
100343.44
100248.73
100178.3
100139.54
100124.75
100135.27
100226.15
100325.36
100367.41
100315.64
100164.31
100072.75
100027.29
100008.59
100002.21
100000.45
100000.07
100000.01
100927.19
100942.25
100957.75
100978.83
101000.45
101031.66
101061.76
101104.55
101148.18
101204.88
101266.57
101340.55
101422.72
101515.39
101615.08
101718.79
101819.42
101907.85
101970.89
101995.47
101974.69
101906.11
101795.19
101652.47
101490.28
101319.98
101150.93
100989.31
100839.23
100699.52
100567.38
100444.79
100334.59
100238.31
100169.88
100133.83
100120.89
100138.88
100241.3
100341.12
100380.82
100302.62
100154.3
100067.21
100024.9
100007.75
100001.98
100000.4
100000.06
100000.01
101014.66
101030.92
101047.17
101069.74
101092.24
101125.34
101156.92
101202
101247.96
101307.44
101372.3
101449.6
101535.29
101631.17
101733.36
101837.99
101937.15
102020.49
102073.45
102084.52
102047.35
101961.66
101834.88
101678.8
101506.21
101328.46
101154.03
100989.1
100837.09
100696.08
100562.29
100437.44
100324.79
100227.2
100161.2
100128.09
100117.38
100144.06
100256.93
100355.71
100393.07
100288.13
100144.24
100061.91
100022.67
100006.99
100001.77
100000.35
100000.05
100000.01
101105.87
101123.5
101140.49
101164.62
101188.05
101223.17
101256.34
101303.88
101352.39
101414.85
101483.07
101563.83
101653.09
101752.05
101856.38
101961.25
102057.86
102134.37
102175.47
102171.47
102116.65
102013.28
101870.63
101701.58
101519.23
101334.61
101155.21
100987.5
100833.9
100691.8
100556.41
100429.22
100313.94
100215.51
100152.29
100122.43
100114.59
100151.41
100273.17
100367.94
100402.94
100272.64
100134.35
100056.9
100020.62
100006.31
100001.59
100000.32
100000.05
100000.01
101200.9
101220.06
101237.72
101263.48
101287.95
101325.33
101360.32
101410.56
101461.87
101527.5
101599.25
101683.54
101776.34
101878.17
101984.13
102088.42
102181.15
102248.75
102276.41
102255.56
102182.04
102060.6
101902.24
101720.76
101529.39
101338.14
101154.68
100984.56
100829.69
100686.68
100549.73
100420.08
100301.9
100203.41
100143.24
100116.94
100112.89
100162.54
100290.69
100377.22
100408.65
100256.8
100124.8
100052.19
100018.73
100005.69
100001.42
100000.28
100000.04
100000.01
101299.77
101320.62
101338.98
101366.78
101392.48
101432.47
101469.5
101522.59
101576.9
101645.79
101721.17
101809.01
101905.24
102009.61
102116.56
102219.22
102306.44
102362.93
102375.49
102336.08
102242.98
102103.27
101929.57
101736.38
101536.63
101339.38
101152.43
100980.34
100824.52
100680.75
100542.25
100409.96
100288.69
100191.02
100134.21
100111.21
100112.15
100179.75
100309.09
100384.55
100411.88
100241.27
100115.68
100047.78
100017
100005.13
100001.28
100000.25
100000.04
100000
101404.01
101426.53
101445.8
101475.9
101502.74
101545.34
101584.44
101640.44
101697.83
101770.04
101849.1
101940.46
102039.93
102146.38
102253.53
102353.31
102432.94
102476.22
102471.8
102412.31
102298.95
102141.01
101952.55
101748.5
101540.69
101338.5
101148.54
100974.92
100818.42
100674.03
100533.94
100398.8
100274.38
100178.37
100125.18
100104.97
100113.76
100202.29
100329.04
100392.19
100408.78
100226.52
100106.96
100043.67
100015.43
100004.64
100001.15
100000.23
100000.03
100000
101513.49
101538.02
101558.32
101590.77
101618.78
101664.11
101705.37
101764.32
101824.94
101900.52
101983.31
102078.1
102180.52
102288.46
102394.81
102490.12
102559.73
102587.92
102564.38
102483.56
102349.5
102173.62
101971.19
101756.99
101541.99
101335.5
101143.08
100968.37
100811.45
100666.55
100524.79
100386.52
100259.05
100165.44
100116.04
100098.31
100118.4
100227.56
100349.96
100403.97
100396.85
100212.37
100098.65
100039.89
100014.01
100004.19
100001.04
100000.2
100000.03
100000
101628.9
101655.56
101676.73
101711.62
101740.79
101788.95
101832.5
101894.48
101958.48
102037.5
102124.04
102222.12
102327.07
102435.73
102540.02
102628.9
102685.93
102697
102652.33
102549.15
102394.21
102200.97
101985.53
101761.61
101540.66
101330.48
101136.16
100960.76
100803.67
100658.31
100514.76
100373.05
100242.77
100152.18
100106.7
100091.66
100125.73
100254.02
100371.07
100419.05
100378.97
100198.23
100090.78
100036.42
100012.72
100003.8
100000.94
100000.18
100000.03
100000
101750.08
101779.05
101800.96
101838.57
101868.91
101920.04
101966.09
102031.21
102098.78
102181.32
102271.57
102372.67
102479.58
102587.98
102688.67
102768.61
102810.64
102802.29
102734.73
102608.43
102432.8
102223.05
101995.37
101762.9
101536.75
101323.53
101127.85
100952.18
100795.14
100649.34
100503.78
100358.23
100225.69
100138.54
100097.14
100085.45
100135.31
100280.43
100391.8
100434.95
100358.07
100184.23
100083.43
100033.25
100011.57
100003.44
100000.85
100000.17
100000.02
100000
101877.29
101908.67
101931.17
101971.85
102003.5
102057.83
102106.65
102174.96
102246.25
102332.32
102426.12
102529.83
102637.94
102744.84
102839.96
102908.1
102932.87
102902.58
102810.69
102660.86
102465.05
102239.81
102000.53
101760.96
101530.37
101314.77
101118.26
100942.71
100785.92
100639.65
100491.78
100341.91
100208.05
100124.56
100087.5
100079.94
100147.35
100305.52
100410.79
100449.44
100336.14
100170.73
100076.64
100030.36
100010.53
100003.13
100000.77
100000.15
100000.02
100000
102010.64
102044.77
102068
102112.02
102145.04
102202.78
102254.76
102326.31
102401.28
102490.78
102587.87
102693.61
102801.91
102905.75
102992.84
103046.21
103051.24
102996.71
102879.37
102705.99
102490.88
102251
102001.63
101755.86
101521.64
101304.31
101107.49
100932.44
100776.07
100629.26
100478.68
100324.01
100190.09
100110.38
100077.51
100075.42
100163.43
100327.6
100425.95
100460.43
100314.13
100158.04
100070.4
100027.74
100009.6
100002.85
100000.7
100000.14
100000.02
100000
102150.65
102187.93
102211.62
102259.44
102293.93
102355.16
102410.71
102485.64
102564.2
102656.87
102756.86
102863.89
102971.12
103069.92
103145.89
103181.8
103164.21
103083.52
102940
102743.52
102510.19
102256.58
101998.75
101747.76
101510.7
101292.26
101095.64
100921.47
100765.66
100618.15
100464.37
100304.67
100171.87
100096.19
100066.68
100073.16
100183.8
100346.04
100436.04
100466.07
100293.11
100146.27
100064.64
100025.37
100008.77
100002.61
100000.64
100000.13
100000.02
100000
102298.12
102339.07
102362.88
102415.01
102451.27
102515.61
102574.41
102652.88
102735.21
102830.79
102933.12
103040.45
103144.98
103236.18
103297.66
103313.33
103270.28
103161.89
102991.98
102773.24
102522.6
102257.18
101992.02
101736.82
101497.69
101278.75
101082.81
100909.87
100754.76
100606.34
100448.77
100284.02
100153.4
100081.85
100055.04
100072.91
100207.78
100362.56
100441.36
100468.99
100273.77
100135.32
100059.36
100023.24
100008.03
100002.39
100000.59
100000.12
100000.02
100000
102454.57
102499.79
102523.51
102579.74
102617.56
102685.04
102746.82
102828.29
102914.51
103012.74
103116.59
103222.87
103322.55
103402.97
103446.63
103438.94
103367.97
103230.82
103034.85
102794.97
102528.29
102252.85
101981.64
101723.22
101482.75
101263.87
101069.1
100897.75
100743.45
100593.81
100431.77
100262.17
100134.63
100067.26
100043.02
100076.08
100234.52
100380.74
100445.39
100460.89
100256.06
100125.02
100054.53
100021.31
100007.36
100002.19
100000.54
100000.11
100000.02
100000
102619.7
102669.64
102692.83
102753.45
102793.08
102863.42
102928.66
103013
103102.63
103202.83
103307.01
103410.4
103502.51
103568.35
103591.09
103556.68
103455.82
103289.48
103068.26
102808.22
102527.84
102243.81
101967.81
101707.12
101466.02
101247.74
101054.6
100885.21
100731.79
100580.55
100413.24
100239.21
100115.54
100052.58
100031.36
100083.22
100262.6
100399.85
100454.88
100442.11
100238.96
100115.38
100050.15
100019.58
100006.77
100002.02
100000.5
100000.1
100000.01
100000
102794.17
102848.47
102870.79
102935.8
102977.63
103050.81
103120.02
103207.38
103299.76
103400.84
103503.73
103601.89
103683
103730.38
103728.75
103664.63
103532.53
103337.21
103091.82
102813.41
102521.29
102230.29
101950.77
101688.72
101447.63
101230.47
101039.42
100872.33
100719.88
100566.49
100392.99
100215.3
100096.13
100038.17
100020.36
100095.39
100291.18
100419.88
100468.67
100417.55
100222.12
100106.49
100046.19
100018.03
100006.24
100001.86
100000.46
100000.09
100000.01
100000
102978.9
103036.97
103058.4
103127.44
103172.5
103248.72
103321.84
103411.26
103505.6
103606.21
103705.71
103795.64
103861.55
103886.98
103857.13
103760.96
103596.96
103373.42
103105
102810.96
102508.96
102212.59
101930.74
101668.18
101427.71
101212.16
101023.63
100859.21
100707.77
100551.58
100370.8
100190.74
100076.43
100024.23
100011.07
100114.14
100318.4
100440.05
100483.78
100391.17
100206.09
100098.39
100042.6
100016.63
100005.76
100001.72
100000.43
100000.08
100000.01
100000
103173.53
103236
103257.87
103329.36
103378.49
103457.88
103534.19
103624.82
103719.64
103817.93
103911.35
103989.31
104035.69
104035.31
103973.82
103843.95
103648.14
103397.41
103108.54
102801.04
102491.15
102191.01
101907.97
101645.68
101406.38
101192.89
101007.32
100845.94
100695.52
100535.72
100346.52
100165.95
100056.46
100010.25
100005.17
100138.12
100342.69
100458.18
100497.25
100365.22
100191.29
100091.05
100039.35
100015.37
100005.34
100001.6
100000.4
100000.08
100000.01
100000
103379.55
103446.66
103470.18
103544.68
103596.74
103677.13
103756.28
103847.22
103940.84
104034.45
104118.4
104179.81
104202.72
104172.24
104076.47
103912.12
103685.26
103409.03
103102.63
102784.01
102468.24
102165.83
101882.68
101621.38
101383.76
101172.76
100990.57
100832.6
100683.21
100518.85
100320.45
100141.03
100036.7
99994.842
100002.5
100165.6
100362.01
100469.98
100506.06
100340.88
100177.86
100084.34
100036.42
100014.25
100004.95
100001.49
100000.37
100000.07
100000.01
100000
103597.57
103668.6
103693.85
103770.96
103826.5
103907.26
103987.76
104077.47
104167.65
104253.5
104323.76
104363.93
104359
104294.73
104162.9
103964.13
103707.32
103408.92
103087.56
102760.29
102440.61
102137.38
101855.08
101595.42
101359.94
101151.83
100973.45
100819.25
100670.86
100500.93
100292.9
100115.86
100016.77
99978.627
100003.29
100195.53
100376.78
100475.34
100512.56
100318.84
100165.58
100078.2
100033.77
100013.23
100004.61
100001.38
100000.34
100000.07
100000.01
100000
103827.56
103902.04
103929.11
104007.43
104066.27
104146.86
104227.3
104313.87
104397.77
104471.97
104523.52
104537.99
104500.67
104399.82
104231.11
103998.63
103714.71
103397.17
103063.8
102730.37
102408.67
102105.93
101825.37
101567.93
101335.01
101130.19
100956.02
100805.94
100658.51
100481.96
100264.09
100090.37
99996.567
99962.39
100008.9
100227.22
100390.55
100473.61
100510.64
100298.94
100154.16
100072.6
100031.39
100012.32
100004.3
100001.29
100000.32
100000.06
100000.01
100000
104070.13