/*--------------------------------*- C++ -*----------------------------------*\
| =========                 |                                                 |
| \\      /  F ield         | OpenFOAM: The Open Source CFD Toolbox           |
|  \\    /   O peration     | Version:  2306                                  |
|   \\  /    A nd           | Website:  www.openfoam.com                      |
|    \\/     M anipulation  |                                                 |
\*---------------------------------------------------------------------------*/
FoamFile
{
    version     2.0;
    format      ascii;
    arch        "LSB;label=32;scalar=64";
    class       surfaceScalarField;
    location    "175";
    object      phi;
}
// * * * * * * * * * * * * * * * * * * * * * * * * * * * * * * * * * * * * * //

dimensions      [0 3 -1 0 0 0 0];

oriented        oriented;

internalField   nonuniform List<scalar> 
2568
(
0.013235
-0.0316043
0.0420471
-0.0288121
0.0674369
-0.0253897
0.0891973
-0.0217605
0.107674
-0.0184771
0.123184
-0.0155092
0.136088
-0.0129042
0.147108
-0.0110205
0.15656
-0.00945173
0.16492
-0.00835936
0.172416
-0.00749596
0.179356
-0.00694019
0.185857
-0.00650115
0.192086
-0.00622948
0.198026
-0.00593977
0.203599
-0.00557279
0.208147
-0.00454846
0.211492
-0.00334519
0.213962
-0.00247022
0.215616
-0.00165362
0.216686
-0.00107012
0.217311
-0.000624427
0.217474
-0.000163329
0.216959
0.000515865
0.215681
0.00127743
0.213641
0.00204019
0.210876
0.00276427
0.00357291
-0.0121279
-0.0662636
0.0185504
-0.0622826
0.0464616
-0.0567234
0.0713114
-0.0502395
0.0929162
-0.0433653
0.11165
-0.0372114
0.127952
-0.0318113
0.142044
-0.0269956
0.154381
-0.023357
0.165264
-0.0203349
0.174987
-0.0180823
0.183858
-0.0163669
0.192133
-0.0152157
0.199923
-0.0142906
0.207389
-0.013696
0.214603
-0.0131532
0.221493
-0.0124634
0.2276
-0.0106547
0.232647
-0.00839217
0.236823
-0.00664675
0.240029
-0.00485933
0.24217
-0.00321232
0.243203
-0.00165799
0.24324
-0.000200684
0.24251
0.00124585
0.241194
0.00259237
0.239312
0.00392149
0.23686
0.00521504
0.0066703
-0.00415078
-0.0980693
0.0255248
-0.0919581
0.0526583
-0.0838568
0.0772162
-0.0747973
0.0988626
-0.0650116
0.117783
-0.0561321
0.134358
-0.0483862
0.148862
-0.0414994
0.161605
-0.0360994
0.172927
-0.0316577
0.183095
-0.0282504
0.192376
-0.0256479
0.200978
-0.0238171
0.209064
-0.0223769
0.216821
-0.0214533
0.224262
-0.0205936
0.231286
-0.0194878
0.237591
-0.0169602
0.242887
-0.0136879
0.247286
-0.0110463
0.250858
-0.00843111
0.25364
-0.00599463
0.255698
-0.00371517
0.257022
-0.00152529
0.257672
0.000596699
0.257608
0.00265707
0.256835
0.00469448
0.255281
0.00676902
0.00908932
-0.0270362
-0.13149
0.00467837
-0.129784
0.033979
-0.121259
0.0607021
-0.11058
0.0849146
-0.0990098
0.10628
-0.0863768
0.125056
-0.0749077
0.141672
-0.0650021
0.156377
-0.056205
0.169495
-0.0492168
0.181249
-0.0434119
0.191937
-0.0389384
0.201736
-0.0354472
0.210878
-0.0329588
0.2195
-0.030999
0.227713
-0.029666
0.235581
-0.0284622
0.243044
-0.0269504
0.249776
-0.0236927
0.255529
-0.0194403
0.260363
-0.0158809
0.264333
-0.0124004
0.267488
-0.00915074
0.269863
-0.00609
0.271525
-0.00318849
0.272508
-0.000386319
0.272831
0.00233258
0.272489
0.00503527
0.271464
0.00779271
0.01092
-0.0180311
-0.164477
0.0141023
-0.161917
0.0434685
-0.150625
0.0700713
-0.137182
0.094096
-0.123034
0.115243
-0.107524
0.133868
-0.0935328
0.150472
-0.081606
0.165272
-0.0710048
0.178586
-0.0625309
0.190679
-0.0555051
0.201729
-0.0499882
0.211921
-0.0456387
0.221449
-0.0424876
0.230454
-0.0400035
0.239025
-0.0382376
0.247204
-0.0366409
0.254952
-0.034699
0.261993
-0.0307333
0.26806
-0.0255081
0.273188
-0.0210088
0.277416
-0.0166286
0.280797
-0.0125315
0.283352
-0.00864462
0.285116
-0.00495252
0.286133
-0.00140325
0.286471
0.00199509
0.286137
0.00537002
0.285114
0.00881568
0.0126551
-0.0427246
-0.191435
-0.00880288
-0.198398
0.0240675
-0.194787
0.0538148
-0.180372
0.0805405
-0.163908
0.104534
-0.147027
0.125552
-0.128542
0.144009
-0.111989
0.160503
-0.0981005
0.175299
-0.0858006
0.188703
-0.075935
0.200976
-0.0677772
0.212279
-0.0612919
0.222812
-0.0561713
0.2327
-0.0523759
0.242074
-0.0493778
0.251026
-0.0471891
0.259575
-0.0451906
0.267668
-0.0427916
0.275117
-0.0381827
0.28159
-0.0319809
0.287075
-0.026494
0.291666
-0.0212192
0.295358
-0.0162243
0.298196
-0.0114824
0.300211
-0.00696774
0.301447
-0.00263996
0.301933
0.00150807
0.301676
0.00562488
0.300702
0.00978819
0.0144834
-0.0346555
-0.225506
0.000517742
-0.233572
0.0343835
-0.228653
0.0648111
-0.2108
0.0919073
-0.191004
0.116082
-0.171202
0.13707
-0.149531
0.15542
-0.130339
0.171809
-0.114489
0.186538
-0.10053
0.199945
-0.0893415
0.212313
-0.0801451
0.223817
-0.0727956
0.234598
-0.0669528
0.244792
-0.0625702
0.254493
-0.0590783
0.263771
-0.0564675
0.272641
-0.0540601
0.281077
-0.0512279
0.288834
-0.0459394
0.295681
-0.0388283
0.301537
-0.0323503
0.306429
-0.0261118
0.310411
-0.0202061
0.31348
-0.0145505
0.315698
-0.00918625
0.317071
-0.00401252
0.317662
0.000917666
0.317485
0.00580244
0.316499
0.0107744
0.0163202
-0.0264939
-0.261022
0.0100504
-0.270116
0.0451402
-0.263743
0.0764663
-0.242125
0.104124
-0.218662
0.12862
-0.195697
0.149717
-0.170628
0.168022
-0.148644
0.184319
-0.130787
0.198956
-0.115167
0.212311
-0.102696
0.224729
-0.0925638
0.236328
-0.0843944
0.24729
-0.0779152
0.257714
-0.0729943
0.267695
-0.0690588
0.277262
-0.0660347
0.28646
-0.0632588
0.295225
-0.0599928
0.303351
-0.054065
0.310569
-0.0460465
0.316794
-0.038575
0.322042
-0.0313598
0.326346
-0.0245104
0.329696
-0.0179011
0.332137
-0.0116273
0.33372
-0.0055954
0.33445
0.000186276
0.334366
0.00588538
0.333431
0.0117083
0.0182066
-0.0555514
-0.0183796
-0.298193
0.0197551
-0.30825
0.0563257
-0.300313
0.0887172
-0.274517
0.117115
-0.24706
0.1421
-0.220682
0.163423
-0.191951
0.181783
-0.167005
0.198037
-0.147041
0.21259
-0.12972
0.225875
-0.11598
0.238251
-0.10494
0.249909
-0.0960524
0.260981
-0.0889863
0.271575
-0.0835887
0.281784
-0.0792675
0.291642
-0.0758929
0.301114
-0.0727304
0.310185
-0.069064
0.318659
-0.0625397
0.326263
-0.0536507
0.332837
-0.0451484
0.338435
-0.0369584
0.343033
-0.0291089
0.346677
-0.0215444
0.349362
-0.0143128
0.351124
-0.0073569
0.352003
-0.000692227
0.351996
0.00589308
0.351099
0.0126054
0.0200971
-0.0101776
0.0298023
-0.34823
0.067921
-0.338432
0.101564
-0.30816
0.130873
-0.276369
0.156513
-0.246322
0.178181
-0.213618
0.196666
-0.18549
0.21294
-0.163314
0.227429
-0.144209
0.240632
-0.129183
0.252959
-0.117266
0.264603
-0.107696
0.275723
-0.100106
0.286458
-0.0943244
0.296845
-0.0896541
0.306894
-0.085942
0.316648
-0.0824849
0.326027
-0.0784431
0.334833
-0.0713454
0.342786
-0.0616033
0.349743
-0.052106
0.355673
-0.0428883
0.360614
-0.0340499
0.364541
-0.0254709
0.367479
-0.0172506
0.369466
-0.00934511
0.370489
-0.0017158
0.370603
0.00577853
0.369762
0.0134444
0.0220058
0.0400948
0.0799879
-0.378324
0.115034
-0.343205
0.14542
-0.306756
0.171794
-0.272696
0.193944
-0.235768
0.212661
-0.204206
0.229025
-0.179679
0.243484
-0.158668
0.256615
-0.142315
0.268865
-0.129516
0.280469
-0.119299
0.291612
-0.111249
0.302393
-0.105106
0.312906
-0.100167
0.323171
-0.0962066
0.333155
-0.0924694
0.342794
-0.0880823
0.351931
-0.0804826
0.360236
-0.0699077
0.367546
-0.0594163
0.373843
-0.0491855
0.379104
-0.0393115
0.383344
-0.0297111
0.386541
-0.0204478
0.388726
-0.0115298
0.389941
-0.00293018
0.390159
0.00556089
0.389382
0.0142222
0.0239265
0.0925892
0.129146
-0.379761
0.160718
-0.338329
0.188007
-0.299984
0.210745
-0.258507
0.229792
-0.223252
0.246279
-0.196166
0.260765
-0.173154
0.273844
-0.155393
0.286024
-0.141696
0.297553
-0.130828
0.308666
-0.122362
0.319493
-0.115933
0.330083
-0.110757
0.34048
-0.106603
0.350654
-0.102644
0.360574
-0.0980023
0.370014
-0.0899234
0.378659
-0.0785528
0.386324
-0.067081
0.392961
-0.0558218
0.398569
-0.04492
0.403092
-0.0342342
0.406572
-0.023928
0.408993
-0.0139503
0.410376
-0.00431342
0.410739
0.00519718
0.410012
0.0149471
0.0258289
0.143956
0.176839
-0.371212
0.205146
-0.328291
0.228569
-0.281931
0.248029
-0.242712
0.264757
-0.212893
0.279319
-0.187717
0.292373
-0.168447
0.304486
-0.153809
0.315941
-0.142284
0.326998
-0.133418
0.337802
-0.126737
0.348444
-0.1214
0.358938
-0.117097
0.36929
-0.112996
0.379426
-0.108138
0.389165
-0.0996617
0.398128
-0.0875166
0.406134
-0.075087
0.413115
-0.0628032
0.419033
-0.0508378
0.423881
-0.0390819
0.427638
-0.0276858
0.430304
-0.016616
0.431892
-0.00590139
0.432385
0.00470506
0.431748
0.0155835
0.0277286
0.193855
0.223279
-0.357715
0.247497
-0.306148
0.267443
-0.262658
0.284464
-0.229914
0.299147
-0.202399
0.312205
-0.181505
0.324278
-0.165882
0.335666
-0.153671
0.346634
-0.144386
0.357399
-0.137502
0.368056
-0.132057
0.37862
-0.12766
0.389093
-0.12347
0.399441
-0.118487
0.409439
-0.109659
0.418703
-0.0967807
0.427033
-0.0834171
0.434349
-0.070119
0.440609
-0.0570977
0.445769
-0.0442424
0.449811
-0.0317276
0.45272
-0.0195247
0.4545
-0.00768141
0.45515
0.00405433
0.454604
0.0161281
0.0295956
0.242395
-0.38841
0.267482
-0.331235
0.288041
-0.283217
0.305428
-0.2473
0.320298
-0.217269
0.333419
-0.194627
0.345452
-0.177915
0.356761
-0.16498
0.367669
-0.155293
0.378369
-0.148202
0.388994
-0.142681
0.39959
-0.138257
0.410179
-0.134058
0.420699
-0.129007
0.430929
-0.119889
0.440492
-0.106344
0.449128
-0.0920527
0.456765
-0.0777569
0.463336
-0.0636686
0.468809
-0.0497157
0.473127
-0.0360453
0.476298
-0.0226959
0.478307
-0.00968983
0.4791
0.00326089
0.478672
0.016556
0.0314158
0.262579
0.288667
-0.357323
0.309881
-0.304431
0.327695
-0.265114
0.342812
-0.232386
0.356028
-0.207843
0.368071
-0.189958
0.379318
-0.176228
0.39014
-0.166115
0.400767
-0.158829
0.411354
-0.153268
0.42195
-0.148853
0.432597
-0.144705
0.443267
-0.139676
0.453735
-0.130358
0.463549
-0.116158
0.472468
-0.100972
0.480411
-0.0857003
0.487296
-0.070553
0.493077
-0.055497
0.497697
-0.0406646
0.501126
-0.0261253
0.503334
-0.0118977
0.504323
0.00227197
0.504001
0.0168771
0.0331703
0.31101
-0.384467
0.332972
-0.326393
0.351309
-0.283451
0.366722
-0.2478
0.38008
-0.2212
0.392171
-0.202049
0.403387
-0.187443
0.414136
-0.176865
0.424681
-0.169374
0.435197
-0.163783
0.445784
-0.159441
0.45647
-0.155391
0.467259
-0.150465
0.477904
-0.141003
0.487952
-0.126205
0.497154
-0.110173
0.505383
-0.0939303
0.512581
-0.0777508
0.518651
-0.0615674
0.52356
-0.0455733
0.527251
-0.0298161
0.529706
-0.0143526
0.530862
0.00111582
0.530661
0.0170773
0.0348407
0.334643
0.357438
-0.349188
0.376342
-0.302355
0.392111
-0.263568
0.405668
-0.234757
0.417814
-0.214195
0.429036
-0.198666
0.439711
-0.187539
0.450173
-0.179836
0.460615
-0.174225
0.471162
-0.169987
0.481866
-0.166096
0.492755
-0.161354
0.50357
-0.151818
0.513836
-0.136472
0.523272
-0.119609
0.531767
-0.102425
0.539237
-0.0852206
0.545611
-0.0679421
0.550793
-0.0507547
0.55476
-0.033783
0.55743
-0.0170231
0.558792
-0.000246301
0.558754
0.0171149
0.036446
0.383273
-0.3729
0.402815
-0.321897
0.419012
-0.279766
0.43281
-0.248555
0.445076
-0.226461
0.456303
-0.209892
0.466939
-0.198176
0.477321
-0.190218
0.487707
-0.184612
0.498186
-0.180465
0.508902
-0.176812
0.519852
-0.172304
0.530811
-0.162777
0.541271
-0.146931
0.550913
-0.129252
0.559673
-0.111186
0.56741
-0.0929571
0.574039
-0.0745714
0.579524
-0.0562398
0.583742
-0.0380008
0.586659
-0.0199401
0.588198
-0.00178546
0.588312
0.017
0.0379146
0.410572
-0.397561
0.430841
-0.342166
0.447505
-0.29643
0.461592
-0.262641
0.474022
-0.238891
0.48529
-0.221161
0.495913
-0.208799
0.506238
-0.200543
0.51653
-0.194904
0.526963
-0.190898
0.537639
-0.187488
0.548657
-0.183322
0.559738
-0.173858
0.570346
-0.15754
0.580202
-0.139108
0.589167
-0.12015
0.597148
-0.100938
0.604065
-0.0814892
0.609783
-0.0619571
0.614262
-0.0424799
0.617427
-0.0231056
0.619194
-0.00355226
0.619472
0.0167216
0.0392744
0.439443
0.460478
-0.363201
0.47767
-0.313622
0.492088
-0.27706
0.504707
-0.25151
0.516068
-0.232521
0.526667
-0.219398
0.536952
-0.210829
0.54718
-0.205132
0.557554
-0.201272
0.56822
-0.198154
0.579256
-0.194358
0.590434
-0.185036
0.601201
-0.168307
0.611207
-0.149114
0.620372
-0.129315
0.628589
-0.109155
0.63574
-0.0886408
0.641728
-0.0679446
0.646461
-0.0472132
0.649865
-0.02651
0.651827
-0.00551404
0.652287
0.0162606
0.0404685
0.491776
-0.385077
0.509554
-0.3314
0.52438
-0.291886
0.53723
-0.264359
0.548701
-0.243992
0.559365
-0.230062
0.569612
-0.221075
0.579768
-0.215289
0.590081
-0.211585
0.600704
-0.208777
0.611769
-0.205423
0.623046
-0.196313
0.63391
-0.179172
0.644066
-0.15927
0.653419
-0.138668
0.661833
-0.117569
0.669199
-0.096007
0.675429
-0.0741741
0.680398
-0.0521828
0.684027
-0.0301387
0.686229
-0.00771689
0.686871
0.0156187
0.0415128
0.524869
0.543308
-0.349838
0.558534
-0.307112
0.571671
-0.277496
0.583294
-0.255616
0.593998
-0.240766
0.604247
-0.231324
0.614383
-0.225425
0.624625
-0.221826
0.635224
-0.219376
0.646319
-0.216519
0.657623
-0.207617
0.6686
-0.190149
0.678957
-0.169628
0.688327
-0.148037
0.696949
-0.126192
0.70458
-0.103638
0.710989
-0.0805823
0.716181
-0.0573757
0.720119
-0.0340764
0.722528
-0.0101256
0.72334
0.0148062
0.042373
0.578934
-0.368978
0.594668
-0.322847
0.608121
-0.290948
0.619937
-0.267432
0.63074
-0.251569
0.640994
-0.241578
0.65113
-0.235561
0.661359
-0.232055
0.671861
-0.229878
0.682919
-0.227576
0.694406
-0.219104
0.705422
-0.201165
0.715793
-0.179999
0.725512
-0.157756
0.734175
-0.134855
0.741852
-0.111315
0.748616
-0.0873465
0.754045
-0.0628054
0.757975
-0.0380063
0.760618
-0.012769
0.761811
0.0136133
0.0430789
0.616594
-0.388878
0.632828
-0.339081
0.646721
-0.304841
0.658717
-0.279428
0.66968
-0.262532
0.679974
-0.251872
0.689985
-0.245572
0.700169
-0.242239
0.710761
-0.24047
0.721988
-0.238803
0.733304
-0.23042
0.744522
-0.212383
0.754917
-0.190393
0.764697
-0.167536
0.773589
-0.143748
0.781548
-0.119273
0.788264
-0.0940633
0.79393
-0.0684711
0.798242
-0.0423185
0.801033
-0.0155594
0.802266
0.0123796
0.0434214
0.656434
0.673304
-0.355952
0.687433
-0.318969
0.699825
-0.291819
0.710858
-0.273566
0.721263
-0.262277
0.731363
-0.255672
0.741614
-0.25249
0.752185
-0.251041
0.763192
-0.249811
0.77478
-0.242007
0.785964
-0.223568
0.796477
-0.200906
0.806178
-0.177237
0.815156
-0.152726
0.823246
-0.127363
0.830265
-0.101083
0.836024
-0.0742298
0.840585
-0.04688
0.843646
-0.0186213
0.845041
0.0109847
0.0435853
0.715875
-0.37348
0.73062
-0.333714
0.743154
-0.304353
0.754457
-0.284869
0.7649
-0.27272
0.775214
-0.265985
0.785322
-0.262599
0.79575
-0.261469
0.806987
-0.261048
0.818498
-0.253518
0.829768
-0.234838
0.840379
-0.211518
0.850339
-0.187197
0.859381
-0.161767
0.86746
-0.135443
0.874513
-0.108136
0.880595
-0.0803115
0.885269
-0.0515541
0.888473
-0.0218259
0.890283
0.00917443
0.0436764
0.760912
-0.39162
0.776111
-0.348913
0.789108
-0.31735
0.800513
-0.296274
0.81121
-0.283418
0.821411
-0.276186
0.831639
-0.272827
0.842274
-0.272103
0.853406
-0.272181
0.865088
-0.2652
0.876417
-0.246167
0.887001
-0.222102
0.896842
-0.197038
0.906046
-0.170971
0.914334
-0.143732
0.921645
-0.115446
0.927538
-0.0862056
0.932437
-0.0564527
0.936027
-0.025416
0.937885
0.00731562
0.04331
0.808558
0.824307
-0.364662
0.837588
-0.330631
0.849437
-0.308123
0.860205
-0.294185
0.87056
-0.286542
0.880782
-0.283049
0.891424
-0.282745
0.902686
-0.283443
0.914411
-0.276925
0.925701
-0.257457
0.936478
-0.232878
0.946428
-0.206988
0.955536
-0.180079
0.963768
-0.151964
0.971071
-0.122749
0.977496
-0.092631
0.982356
-0.0613129
0.986077
-0.0291367
0.988232
0.00516032
0.0428455
0.875057
-0.380906
0.888962
-0.344536
0.900943
-0.320104
0.911906
-0.305149
0.922417
-0.297053
0.932888
-0.29352
0.943547
-0.293405
0.954851
-0.294747
0.966629
-0.288703
0.978091
-0.268919
0.98883
-0.243618
0.998759
-0.216917
1.00799
-0.189316
1.0164
-0.160368
1.0238
-0.130146
1.03
-0.0988323
1.03517
-0.0664916
1.03889
-0.0328534
1.04134
0.00270646
0.0420269
0.928869
0.942998
-0.358665
0.955467
-0.332573
0.966758
-0.31644
0.977337
-0.307632
0.987865
-0.304048
0.998551
-0.304091
1.01001
-0.306204
1.02197
-0.300665
1.03349
-0.280442
1.0442
-0.254322
1.05434
-0.227054
1.06357
-0.198549
1.07188
-0.168683
1.07923
-0.137497
1.08568
-0.10528
1.09104
-0.0718494
1.09499
-0.0368077
1.09749
0.000208581
0.0408484
1.00039
-0.373492
1.01303
-0.345213
1.02457
-0.327987
1.03546
-0.318522
1.04603
-0.314617
1.057
-0.315063
1.06852
-0.317721
1.08056
-0.3127
1.09231
-0.292193
1.10307
-0.265087
1.11306
-0.237043
1.12228
-0.207769
1.13061
-0.177017
1.13827
-0.145152
1.14471
-0.111718
1.14998
-0.0771243
1.15416
-0.0409845
1.15695
-0.00258032
0.0395558
1.0608
-0.388764
1.07398
-0.358398
1.08578
-0.339785
1.09678
-0.329519
1.10768
-0.325517
1.11873
-0.326113
1.13043
-0.329423
1.14267
-0.324944
1.15437
-0.303889
1.16536
-0.276076
1.17531
-0.246999
1.18452
-0.216974
1.19298
-0.185482
1.20044
-0.152611
1.20697
-0.118247
1.2124
-0.082549
1.21666
-0.0452506
1.21961
-0.00552812
0.0380275
1.12459
1.13833
-0.372141
1.15041
-0.351863
1.1619
-0.341005
1.17277
-0.336396
1.18402
-0.337358
1.19608
-0.34148
1.20831
-0.337183
1.22023
-0.315809
1.23119
-0.28703
1.24136
-0.257167
1.25067
-0.226283
1.25901
-0.193831
1.26639
-0.159984
1.273
-0.124858
1.27844
-0.0879875
1.28278
-0.0495929
1.286
-0.00875112
0.0361399
1.20623
-0.386235
1.21872
-0.36435
1.23036
-0.352654
1.24172
-0.34775
1.2532
-0.348836
1.26523
-0.353509
1.27784
-0.349794
1.28988
-0.327854
1.30094
-0.298089
1.31121
-0.267438
1.32038
-0.235455
1.32873
-0.20218
1.33638
-0.167633
1.34282
-0.131295
1.34838
-0.0935504
1.35279
-0.0540009
1.35603
-0.0119918
0.034026
1.27789
-0.400806
1.29095
-0.377407
1.30299
-0.364698
1.31448
-0.359239
1.32622
-0.360578
1.33851
-0.365798
1.35149
-0.362777
1.3637
-0.34006
1.37488
-0.309265
1.38502
-0.27758
1.3943
-0.24474
1.40278
-0.210656
1.41021
-0.175063
1.41671
-0.137798
1.42239
-0.099226
1.42697
-0.0585868
1.43034
-0.0153629
0.0316935
1.35381
1.36723
-0.390823
1.37944
-0.376911
1.39148
-0.371278
1.40348
-0.372581
1.41618
-0.378496
1.42923
-0.375825
1.44168
-0.352514
1.45301
-0.320592
1.4634
-0.287968
1.47269
-0.254028
1.48117
-0.219139
1.48851
-0.182399
1.49519
-0.14448
1.50073
-0.104765
1.50523
-0.0630939
1.50885
-0.018976
0.0292779
1.44778
-0.404815
1.46059
-0.389727
1.47281
-0.383493
1.4851
-0.384872
1.49811
-0.39151
1.51146
-0.389175
1.52425
-0.365298
1.53584
-0.332187
1.54613
-0.29826
1.55556
-0.26345
1.56393
-0.227516
1.57142
-0.189889
1.57792
-0.150977
1.58356
-0.110402
1.58822
-0.0677598
1.59194
-0.0226978
1.53279
-0.419203
1.54606
-0.403003
1.55872
-0.396147
1.57134
-0.397494
1.5848
-0.404975
1.59862
-0.40299
1.61161
-0.37829
1.62327
-0.343849
1.63385
-0.308835
1.6433
-0.272904
1.65171
-0.235923
1.65923
-0.197416
1.66567
-0.157412
1.67128
-0.116016
1.67598
-0.072454
-0.0263946
1.6227
1.63647
-0.416767
1.64948
-0.409164
1.66258
-0.410595
1.67626
-0.418646
1.69058
-0.417312
1.70391
-0.391622
1.71579
-0.355734
1.72656
-0.3196
1.73606
-0.282406
1.74451
-0.244374
1.75196
-0.20487
1.75859
-0.164034
1.76405
-0.121481
1.76877
-0.0771718
-0.0303031
1.73186
-0.430939
1.74537
-0.422676
1.75905
-0.424279
1.77326
-0.432854
1.78773
-0.431777
1.80157
-0.40547
1.8138
-0.367964
1.82465
-0.330448
1.83435
-0.292101
1.84286
-0.252886
1.85037
-0.212385
1.8567
-0.170362
1.86239
-0.12717
1.86713
-0.0819093
-0.0341665
1.83266
-0.445878
1.84681
-0.436831
1.86081
-0.438272
1.87553
-0.447581
1.89067
-0.446911
1.90468
-0.419486
1.9173
-0.380577
1.92839
-0.341543
1.93818
-0.301892
1.94678
-0.261481
1.95424
-0.219853
1.96078
-0.1769
1.96633
-0.13272
1.97109
-0.0866666
-0.0381031
1.93922
1.9538
-0.451411
1.9683
-0.452779
1.98358
-0.462855
1.99932
-0.462655
2.0139
-0.434062
2.02681
-0.393489
2.03804
-0.352773
2.04808
-0.311928
2.05677
-0.270177
2.06434
-0.227421
2.07085
-0.183413
2.07639
-0.13826
2.08117
-0.091446
-0.041982
2.06685
-0.466688
2.08207
-0.468
2.09783
-0.478613
2.11404
-0.478866
2.12924
-0.449256
2.14246
-0.406713
2.15411
-0.364419
2.16417
-0.321987
2.17299
-0.279006
2.18068
-0.235106
2.18718
-0.189919
2.19285
-0.143927
2.19753
-0.0961263
-0.0459234
2.18619
-0.482565
2.20199
-0.483805
2.21861
-0.495233
2.23546
-0.495712
2.25104
-0.464839
2.26476
-0.420429
2.27673
-0.376393
2.28709
-0.332347
2.29608
-0.287992
2.30378
-0.24281
2.31042
-0.196559
2.31586
-0.149361
2.32057
-0.10084
-0.0500533
2.31239
2.32882
-0.500236
2.34598
-0.512392
2.36362
-0.513359
2.37975
-0.480961
2.39397
-0.434654
2.40631
-0.388731
2.417
-0.34304
2.42617
-0.297161
2.43392
-0.250557
2.44047
-0.20311
2.44618
-0.155074
2.45081
-0.105469
-0.0539993
2.46282
-0.517583
2.48064
-0.530209
2.49902
-0.531745
2.51596
-0.497896
2.53061
-0.449306
2.54335
-0.401465
2.55428
-0.353971
2.56366
-0.306548
2.57148
-0.258374
2.57833
-0.209962
2.58385
-0.160589
2.58865
-0.110275
-0.0578897
2.6041
-0.535471
2.62291
-0.549019
2.64203
-0.550865
2.65961
-0.515473
2.67482
-0.464522
2.68811
-0.414748
2.69944
-0.365302
2.70895
-0.316057
2.71711
-0.266539
2.7238
-0.216648
2.7295
-0.166294
2.73413
-0.114899
-0.0618565
2.75361
-0.554327
2.77314
-0.568554
2.79306
-0.570777
2.8115
-0.53392
2.8275
-0.480517
2.84099
-0.428241
2.85263
-0.376942
2.86254
-0.325969
2.87084
-0.274832
2.87763
-0.22344
2.88343
-0.172092
2.88813
-0.119607
-0.0657835
2.91114
2.93185
-0.589261
2.95271
-0.591634
2.97189
-0.553099
2.98838
-0.497009
3.00264
-0.442499
3.01474
-0.38905
3.02484
-0.33607
3.0333
-0.283287
3.04047
-0.230615
3.04614
-0.177756
3.05082
-0.124289
-0.0696848
3.09932
-0.610778
3.12128
-0.613587
3.14131
-0.573129
3.15865
-0.514354
3.17343
-0.457282
3.18592
-0.401539
3.1965
-0.346644
3.20515
-0.291935
3.21224
-0.237705
3.21804
-0.183558
3.22297
-0.129217
-0.0735716
3.27629
-0.633396
3.29918
-0.636478
3.32021
-0.594159
3.33829
-0.532437
3.35378
-0.472769
3.36669
-0.414447
3.37752
-0.35748
3.38665
-0.301058
3.39393
-0.24499
3.3999
-0.189526
3.4046
-0.133916
3.46305
-0.657031
3.48712
-0.660549
3.5091
-0.61614
3.52807
-0.55141
3.54419
-0.488887
3.5578
-0.428062
3.56906
-0.368736
3.57832
-0.310317
3.58583
-0.252501
3.59187
-0.195564
-0.138782
3.66033
3.68562
-0.68584
3.70874
-0.639253
3.72853
-0.571205
3.7453
-0.505656
3.75954
-0.442298
3.77125
-0.38045
3.7808
-0.319871
3.78857
-0.26027
3.79484
-0.201826
-0.14359
3.89525
-0.712566
3.91949
-0.663492
3.94016
-0.591879
3.95787
-0.52337
3.97252
-0.456942
3.98486
-0.392787
3.99474
-0.329756
4.0028
-0.268333
4.00894
-0.207967
-0.148619
4.1163
-0.74034
4.14189
-0.689083
4.1637
-0.613687
4.18204
-0.541712
4.19763
-0.472539
4.21025
-0.405406
4.22063
-0.340137
4.22889
-0.276596
4.23545
-0.21452
-0.153644
4.34996
-0.769858
4.37652
-0.715639
4.39955
-0.636717
4.41892
-0.561078
4.435
-0.488626
4.44832
-0.418727
4.45911
-0.350921
4.46761
-0.285095
4.47423
-0.22114
-0.158822
4.59632
-0.800798
4.62455
-0.743874
4.64845
-0.660613
4.66877
-0.581398
4.68564
-0.505499
4.6997
-0.432791
4.71081
-0.362027
4.71971
-0.293995
4.72655
-0.227987
-0.164062
4.8564
4.88596
-0.773432
4.91128
-0.685933
4.9326
-0.602724
4.95031
-0.523204
4.96478
-0.447264
4.97662
-0.373873
4.98571
-0.303083
4.99295
-0.235228
-0.169267
5.16201
-0.804514
5.18857
-0.712484
5.21094
-0.625103
5.22966
-0.541917
5.24484
-0.462443
5.25709
-0.386126
5.26666
-0.312652
5.27395
-0.24252
-0.174856
5.45328
-0.837333
5.4812
-0.740411
5.50482
-0.648716
5.52434
-0.561438
5.5404
-0.478506
5.5531
-0.39883
5.5632
-0.322745
5.57071
-0.250031
5.7607
-0.871766
5.79012
-0.769834
5.81489
-0.673479
5.83537
-0.581924
5.85211
-0.495244
5.86556
-0.412282
5.87597
-0.33315
-0.258053
6.08507
-0.90813
6.11599
-0.80075
6.14197
-0.699457
6.16362
-0.603577
6.1812
-0.512831
6.1952
-0.426274
6.20609
-0.34404
-0.266371
6.42736
-0.946373
6.45983
-0.833218
6.4872
-0.726822
6.50992
-0.626301
6.5284
-0.531312
6.5431
-0.440976
6.55452
-0.355453
-0.274903
6.78772
6.8222
-0.867693
6.85135
-0.755979
6.87522
-0.650165
6.89464
-0.550736
6.90934
-0.455678
6.92196
-0.368071
-0.283817
7.20554
-0.904344
7.23483
-0.785263
7.26048
-0.675815
7.28001
-0.570268
7.29717
-0.472835
7.30939
-0.380294
-0.292394
7.60795
-0.940962
7.64091
-0.818219
7.66642
-0.701324
7.68827
-0.592118
7.70514
-0.489709
7.71702
-0.392166
-0.3031
5.53081
-0.948115
5.53947
-0.826878
5.55228
-0.714135
5.56931
-0.60915
5.58807
-0.508462
5.61112
-0.415222
-0.329255
6.08661
-0.953232
6.09697
-0.837238
6.11138
-0.728539
6.12866
-0.626437
6.15014
-0.529936
6.17584
-0.440927
-0.356722
6.69855
-0.959025
6.70948
-0.848166
6.72565
-0.744713
6.74461
-0.645397
6.76895
-0.554272
6.79616
-0.468141
-0.386896
7.37298
-0.965696
7.38595
-0.86114
7.4015
-0.760254
7.42356
-0.667466
7.44964
-0.580352
7.47979
-0.498284
8.11502
-0.974717
8.12768
-0.873796
8.14662
-0.779194
8.1707
-0.691546
8.19869
-0.608343
-0.530238
8.92983
-0.982493
8.94489
-0.888851
8.96487
-0.799175
8.99114
-0.717817
9.02248
-0.639684
-0.56671
9.82867
9.84386
-0.904041
9.86633
-0.821641
9.89497
-0.746458
9.92856
-0.673274
-0.606581
10.8328
-0.920718
10.8566
-0.845473
10.8878
-0.777605
10.925
-0.710517
-0.64999
11.9184
-0.938995
11.9449
-0.872007
11.9773
-0.809999
12.0182
-0.751384
-0.696861
13.1092
-0.959251
13.1376
-0.900372
13.1756
-0.847961
13.2194
-0.79517
-0.749078
14.4164
-0.979837
14.4474
-0.93143
14.4853
-0.885868
14.534
-0.843853
-0.804837
15.8727
-1.00534
15.9097
-0.968464
15.9559
-0.932097
16.0126
-0.900577
-0.869519
17.4929
17.5282
17.5766
17.6343
)
;

boundaryField
{
    inlet
    {
        type            calculated;
        value           nonuniform List<scalar> 5(-1.03032 -1.00374 -0.980451 -0.958348 -0.938152);
    }
    outlet
    {
        type            calculated;
        value           nonuniform List<scalar> 0();
    }
    walls
    {
        type            calculated;
        value           uniform 0;
    }
    frontAndBack
    {
        type            empty;
        value           nonuniform List<scalar> 0();
    }
    procBoundary1to0
    {
        type            processor;
        value           nonuniform List<scalar> 
94
(
-0.287396
0.0490413
-0.337057
0.00176588
-0.390091
-0.0507408
-0.420172
-0.105688
-0.418029
-0.159493
-0.405573
-0.2117
-0.230551
-0.420438
-0.283866
-0.306331
-0.412779
-0.359561
-0.385911
-0.413684
-0.423319
-0.4699
-0.502049
-0.407897
-0.559794
-0.596694
-0.63569
-0.409622
-0.698347
-0.742772
-0.789665
-0.410513
-0.858812
-0.911903
-0.397872
-0.985559
-1.04552
-1.1088
-0.404556
-1.19213
-1.26332
-1.3385
-0.416119
-1.43378
-1.5184
-1.60765
-0.434253
-1.71768
-1.81772
-1.92368
-0.461415
-2.05157
-2.17031
-2.29578
-0.499173
-2.44547
-2.58621
-2.73475
-2.89143
-0.574037
-3.07781
-3.25367
-3.43941
-3.63537
-0.68199
-3.86852
-4.08852
-4.32045
-4.56538
-4.82398
-0.833214
-5.13093
-5.42046
-5.72627
-6.04871
-6.38912
-6.74845
-0.985648
-7.16889
-7.57134
-5.52366
-6.0815
-6.69275
-7.36631
-8.106
-8.92205
-9.8194
-0.991769
-10.8161
-11.9001
-13.089
-14.3958
-15.8472
-17.468
)
;
    }
    procBoundary1to2
    {
        type            processor;
        value           nonuniform List<scalar> 
84
(
0.207302
0.233761
0.252861
0.269632
0.283378
0.298872
0.314661
0.331542
0.349208
0.367851
0.387461
0.408108
0.429849
0.452735
0.476852
0.502244
0.528991
0.557148
0.586843
0.618111
0.651092
0.685826
0.722479
0.761104
0.801923
0.844876
0.890191
0.938251
0.988696
1.04216
1.09867
1.15824
1.22114
1.28789
1.35814
1.43267
1.51126
1.59456
0.0266645
1.67967
1.77268
1.87099
1.97503
2.08505
2.20147
2.3247
2.45476
2.59254
2.73809
2.89206
3.05472
3.22685
3.40849
-0.0774627
3.59673
3.79964
4.01397
4.24047
4.47941
4.73179
4.99816
5.27954
5.57646
-0.180609
5.88399
6.21441
6.56305
6.93088
7.31797
7.72772
5.63728
6.20331
6.82633
7.51408
-0.421182
8.23064
9.05895
9.96843
10.9684
12.065
13.2716
14.5898
16.0773
17.703
)
;
    }
    procBoundary1to5
    {
        type            processor;
        value           nonuniform List<scalar> 
13
(
0.0183692
0.0340994
0.0442923
0.0359563
0.0991561
0.0593704
0.0510176
0.158575
0.0755841
0.0687266
0.0620101
0.251122
0.0918249
)
;
    }
}


// ************************************************************************* //
