/*--------------------------------*- C++ -*----------------------------------*\
| =========                 |                                                 |
| \\      /  F ield         | OpenFOAM: The Open Source CFD Toolbox           |
|  \\    /   O peration     | Version:  2306                                  |
|   \\  /    A nd           | Website:  www.openfoam.com                      |
|    \\/     M anipulation  |                                                 |
\*---------------------------------------------------------------------------*/
FoamFile
{
    version     2.0;
    format      ascii;
    arch        "LSB;label=32;scalar=64";
    class       volScalarField;
    location    "175";
    object      turbulenceProperties:nuEff;
}
// * * * * * * * * * * * * * * * * * * * * * * * * * * * * * * * * * * * * * //

dimensions      [0 2 -1 0 0 0 0];

internalField   nonuniform List<scalar> 
1340
(
1.65776e-05
1.80123e-05
2.09069e-05
2.57848e-05
3.3766e-05
4.64356e-05
6.57171e-05
9.31044e-05
0.000130185
0.000180155
0.000250419
0.000355573
0.000521311
0.000799305
0.00127809
0.00217904
0.00386722
0.00754623
0.0151093
0.0335007
0.0676838
0.0944622
0.105693
0.108985
0.109898
0.109979
0.109469
0.108455
1.59402e-05
1.60633e-05
1.59778e-05
1.58191e-05
1.56164e-05
1.53779e-05
1.51106e-05
1.48166e-05
1.44842e-05
1.41103e-05
1.36695e-05
1.31577e-05
1.25451e-05
1.18415e-05
1.10718e-05
1.04183e-05
1.00545e-05
1.00015e-05
1.00231e-05
0.000110653
0.000590964
0.0043881
0.0145707
0.0293099
0.0443386
0.0556229
0.0623268
0.0660628
0.0684275
1.61192e-05
1.61038e-05
1.61118e-05
1.61299e-05
1.61519e-05
1.61766e-05
1.62061e-05
1.62388e-05
1.62756e-05
1.63161e-05
1.6362e-05
1.64146e-05
1.64774e-05
1.65538e-05
1.6652e-05
1.67784e-05
1.69571e-05
1.71496e-05
1.74013e-05
1.71132e-05
1.71711e-05
1.23827e-05
0.000104233
0.000841118
0.00313739
0.00775332
0.0145562
0.0228146
0.0315833
1.60866e-05
1.60886e-05
1.60907e-05
1.60891e-05
1.60868e-05
1.60836e-05
1.60803e-05
1.60774e-05
1.60746e-05
1.60718e-05
1.60688e-05
1.60657e-05
1.60618e-05
1.60577e-05
1.60537e-05
1.60495e-05
1.60449e-05
1.60393e-05
1.60344e-05
1.60288e-05
1.60335e-05
1.6024e-05
1.61031e-05
1.59418e-05
1.62053e-05
1.44331e-05
1.39563e-05
0.000248137
0.00109741
0.00315704
1.60941e-05
1.60922e-05
1.6091e-05
1.60909e-05
1.60917e-05
1.60926e-05
1.60937e-05
1.60951e-05
1.60964e-05
1.60981e-05
1.60999e-05
1.61019e-05
1.61043e-05
1.61069e-05
1.61099e-05
1.61131e-05
1.61166e-05
1.61205e-05
1.61248e-05
1.61303e-05
1.6135e-05
1.61497e-05
1.61268e-05
1.62842e-05
1.56514e-05
1.89622e-05
1.04275e-05
3.84861e-05
1e-05
0.000747035
1.60916e-05
1.60917e-05
1.60905e-05
1.60902e-05
1.60905e-05
1.6091e-05
1.60917e-05
1.60923e-05
1.60929e-05
1.60933e-05
1.60938e-05
1.60943e-05
1.60948e-05
1.60955e-05
1.60961e-05
1.60968e-05
1.60975e-05
1.60981e-05
1.60987e-05
1.60992e-05
1.60992e-05
1.60997e-05
1.61003e-05
1.61021e-05
1.61028e-05
1.61084e-05
1.6103e-05
1.61522e-05
1.55228e-05
1.31292e-05
1.00207e-05
1.60915e-05
1.60915e-05
1.60904e-05
1.60903e-05
1.6091e-05
1.60917e-05
1.60924e-05
1.6093e-05
1.60935e-05
1.60938e-05
1.60942e-05
1.60946e-05
1.60952e-05
1.60958e-05
1.60966e-05
1.60974e-05
1.60985e-05
1.60996e-05
1.61009e-05
1.61024e-05
1.61042e-05
1.61064e-05
1.61091e-05
1.61124e-05
1.61161e-05
1.61216e-05
1.61242e-05
1.61296e-05
1.62056e-05
1.58515e-05
1.52245e-05
1.60912e-05
1.60911e-05
1.60903e-05
1.60905e-05
1.60913e-05
1.60919e-05
1.60925e-05
1.6093e-05
1.60934e-05
1.60937e-05
1.6094e-05
1.60942e-05
1.60946e-05
1.60949e-05
1.60954e-05
1.6096e-05
1.60966e-05
1.60973e-05
1.60981e-05
1.60989e-05
1.60998e-05
1.61008e-05
1.6102e-05
1.61034e-05
1.61048e-05
1.61062e-05
1.61081e-05
1.61075e-05
1.61211e-05
1.6106e-05
1.6299e-05
1.60916e-05
1.60912e-05
1.6091e-05
1.60904e-05
1.60908e-05
1.60915e-05
1.60921e-05
1.60926e-05
1.60931e-05
1.60934e-05
1.60936e-05
1.60939e-05
1.60941e-05
1.60943e-05
1.60946e-05
1.60949e-05
1.60954e-05
1.60959e-05
1.60965e-05
1.60972e-05
1.60981e-05
1.60991e-05
1.61003e-05
1.61018e-05
1.61035e-05
1.61057e-05
1.61081e-05
1.61111e-05
1.61143e-05
1.61183e-05
1.61209e-05
1.61622e-05
1.60912e-05
1.6091e-05
1.60905e-05
1.6091e-05
1.60917e-05
1.60922e-05
1.60927e-05
1.60931e-05
1.60934e-05
1.60936e-05
1.60938e-05
1.60939e-05
1.60941e-05
1.60943e-05
1.60945e-05
1.60948e-05
1.60952e-05
1.60956e-05
1.60962e-05
1.60968e-05
1.60976e-05
1.60985e-05
1.60996e-05
1.61009e-05
1.61024e-05
1.61042e-05
1.61061e-05
1.61085e-05
1.61101e-05
1.61179e-05
1.61041e-05
1.60911e-05
1.60907e-05
1.60912e-05
1.60918e-05
1.60923e-05
1.60927e-05
1.60931e-05
1.60933e-05
1.60935e-05
1.60937e-05
1.60938e-05
1.60939e-05
1.6094e-05
1.60942e-05
1.60944e-05
1.60947e-05
1.6095e-05
1.60954e-05
1.6096e-05
1.60966e-05
1.60974e-05
1.60984e-05
1.60996e-05
1.61011e-05
1.61028e-05
1.61048e-05
1.61074e-05
1.61092e-05
1.6116e-05
1.6103e-05
1.6091e-05
1.60915e-05
1.6092e-05
1.60924e-05
1.60928e-05
1.60931e-05
1.60933e-05
1.60935e-05
1.60936e-05
1.60937e-05
1.60938e-05
1.60939e-05
1.6094e-05
1.60941e-05
1.60942e-05
1.60945e-05
1.60948e-05
1.60952e-05
1.60957e-05
1.60963e-05
1.60972e-05
1.60982e-05
1.60995e-05
1.61009e-05
1.61027e-05
1.61047e-05
1.61068e-05
1.61105e-05
1.61093e-05
1.60917e-05
1.60921e-05
1.60925e-05
1.60928e-05
1.60931e-05
1.60933e-05
1.60935e-05
1.60936e-05
1.60937e-05
1.60937e-05
1.60937e-05
1.60937e-05
1.60938e-05
1.60939e-05
1.6094e-05
1.60942e-05
1.60946e-05
1.6095e-05
1.60956e-05
1.60963e-05
1.60972e-05
1.60984e-05
1.60997e-05
1.61013e-05
1.61032e-05
1.61053e-05
1.61078e-05
1.61111e-05
1.60923e-05
1.60926e-05
1.60929e-05
1.60932e-05
1.60934e-05
1.60935e-05
1.60936e-05
1.60936e-05
1.60936e-05
1.60936e-05
1.60936e-05
1.60936e-05
1.60936e-05
1.60937e-05
1.60939e-05
1.60941e-05
1.60945e-05
1.6095e-05
1.60956e-05
1.60964e-05
1.60974e-05
1.60986e-05
1.61e-05
1.61016e-05
1.61036e-05
1.61057e-05
1.61091e-05
1.60927e-05
1.6093e-05
1.60932e-05
1.60934e-05
1.60934e-05
1.60935e-05
1.60935e-05
1.60935e-05
1.60935e-05
1.60935e-05
1.60935e-05
1.60935e-05
1.60935e-05
1.60936e-05
1.60938e-05
1.60941e-05
1.60944e-05
1.6095e-05
1.60956e-05
1.60965e-05
1.60975e-05
1.60987e-05
1.61002e-05
1.6102e-05
1.6104e-05
1.61066e-05
1.60928e-05
1.6093e-05
1.60932e-05
1.60933e-05
1.60934e-05
1.60934e-05
1.60934e-05
1.60934e-05
1.60934e-05
1.60934e-05
1.60934e-05
1.60933e-05
1.60933e-05
1.60934e-05
1.60935e-05
1.60936e-05
1.60939e-05
1.60943e-05
1.60949e-05
1.60956e-05
1.60964e-05
1.60975e-05
1.60988e-05
1.61003e-05
1.61022e-05
1.61043e-05
1.60931e-05
1.60932e-05
1.60933e-05
1.60933e-05
1.60934e-05
1.60934e-05
1.60934e-05
1.60933e-05
1.60933e-05
1.60932e-05
1.60932e-05
1.60931e-05
1.60931e-05
1.60931e-05
1.60932e-05
1.60934e-05
1.60937e-05
1.60942e-05
1.60947e-05
1.60955e-05
1.60964e-05
1.60975e-05
1.60989e-05
1.61005e-05
1.61024e-05
1.60931e-05
1.60932e-05
1.60932e-05
1.60932e-05
1.60933e-05
1.60933e-05
1.60933e-05
1.60932e-05
1.60932e-05
1.60931e-05
1.6093e-05
1.60929e-05
1.60928e-05
1.60928e-05
1.60928e-05
1.6093e-05
1.60932e-05
1.60936e-05
1.6094e-05
1.60947e-05
1.60955e-05
1.60965e-05
1.60976e-05
1.60991e-05
1.61008e-05
1.60931e-05
1.60931e-05
1.60932e-05
1.60932e-05
1.60932e-05
1.60931e-05
1.60931e-05
1.6093e-05
1.60929e-05
1.60928e-05
1.60927e-05
1.60926e-05
1.60925e-05
1.60925e-05
1.60926e-05
1.60928e-05
1.60931e-05
1.60935e-05
1.6094e-05
1.60947e-05
1.60956e-05
1.60966e-05
1.60979e-05
1.60994e-05
1.60931e-05
1.60931e-05
1.60931e-05
1.60931e-05
1.6093e-05
1.6093e-05
1.60929e-05
1.60928e-05
1.60927e-05
1.60926e-05
1.60924e-05
1.60923e-05
1.60923e-05
1.60922e-05
1.60923e-05
1.60924e-05
1.60927e-05
1.6093e-05
1.60934e-05
1.6094e-05
1.60948e-05
1.60957e-05
1.60968e-05
1.60982e-05
1.6093e-05
1.6093e-05
1.6093e-05
1.60929e-05
1.60929e-05
1.60928e-05
1.60927e-05
1.60926e-05
1.60925e-05
1.60924e-05
1.60923e-05
1.60921e-05
1.6092e-05
1.6092e-05
1.6092e-05
1.60921e-05
1.60923e-05
1.60925e-05
1.60929e-05
1.60934e-05
1.6094e-05
1.60948e-05
1.60958e-05
1.6097e-05
1.60929e-05
1.60929e-05
1.60928e-05
1.60927e-05
1.60926e-05
1.60925e-05
1.60925e-05
1.60923e-05
1.60922e-05
1.60921e-05
1.6092e-05
1.60918e-05
1.60918e-05
1.60917e-05
1.60918e-05
1.60919e-05
1.6092e-05
1.60923e-05
1.60927e-05
1.60932e-05
1.60939e-05
1.60948e-05
1.60959e-05
1.60929e-05
1.60928e-05
1.60927e-05
1.60926e-05
1.60925e-05
1.60924e-05
1.60923e-05
1.60922e-05
1.60921e-05
1.60919e-05
1.60918e-05
1.60916e-05
1.60915e-05
1.60914e-05
1.60914e-05
1.60915e-05
1.60916e-05
1.60918e-05
1.60921e-05
1.60926e-05
1.60931e-05
1.60939e-05
1.60948e-05
1.60927e-05
1.60926e-05
1.60925e-05
1.60924e-05
1.60923e-05
1.60922e-05
1.60921e-05
1.60919e-05
1.60917e-05
1.60916e-05
1.60914e-05
1.60913e-05
1.60912e-05
1.60912e-05
1.60912e-05
1.60913e-05
1.60914e-05
1.60917e-05
1.6092e-05
1.60925e-05
1.60931e-05
1.6094e-05
1.60926e-05
1.60925e-05
1.60924e-05
1.60923e-05
1.60922e-05
1.6092e-05
1.60919e-05
1.60917e-05
1.60916e-05
1.60914e-05
1.60912e-05
1.60911e-05
1.6091e-05
1.60909e-05
1.60909e-05
1.6091e-05
1.60911e-05
1.60912e-05
1.60915e-05
1.60919e-05
1.60924e-05
1.60931e-05
1.60925e-05
1.60924e-05
1.60923e-05
1.60921e-05
1.6092e-05
1.60919e-05
1.60917e-05
1.60916e-05
1.60914e-05
1.60913e-05
1.60911e-05
1.6091e-05
1.60908e-05
1.60907e-05
1.60907e-05
1.60907e-05
1.60907e-05
1.60908e-05
1.6091e-05
1.60913e-05
1.60917e-05
1.60923e-05
1.60923e-05
1.60921e-05
1.6092e-05
1.60919e-05
1.60918e-05
1.60917e-05
1.60915e-05
1.60913e-05
1.60912e-05
1.6091e-05
1.60908e-05
1.60907e-05
1.60905e-05
1.60904e-05
1.60904e-05
1.60904e-05
1.60904e-05
1.60906e-05
1.60908e-05
1.60911e-05
1.60916e-05
1.60922e-05
1.60921e-05
1.6092e-05
1.60918e-05
1.60917e-05
1.60916e-05
1.60914e-05
1.60912e-05
1.60911e-05
1.60909e-05
1.60907e-05
1.60906e-05
1.60904e-05
1.60903e-05
1.60902e-05
1.60901e-05
1.60901e-05
1.60902e-05
1.60903e-05
1.60906e-05
1.6091e-05
1.60922e-05
1.6092e-05
1.60919e-05
1.60918e-05
1.60916e-05
1.60914e-05
1.60913e-05
1.60911e-05
1.6091e-05
1.60908e-05
1.60907e-05
1.60905e-05
1.60903e-05
1.60902e-05
1.609e-05
1.609e-05
1.60899e-05
1.60899e-05
1.609e-05
1.60902e-05
1.60905e-05
1.6092e-05
1.60918e-05
1.60917e-05
1.60915e-05
1.60914e-05
1.60912e-05
1.6091e-05
1.60909e-05
1.60907e-05
1.60906e-05
1.60904e-05
1.60903e-05
1.60901e-05
1.609e-05
1.60898e-05
1.60898e-05
1.60897e-05
1.60897e-05
1.60898e-05
1.609e-05
1.60919e-05
1.60918e-05
1.60916e-05
1.60914e-05
1.60913e-05
1.60911e-05
1.60909e-05
1.60908e-05
1.60907e-05
1.60906e-05
1.60904e-05
1.60903e-05
1.60901e-05
1.609e-05
1.60898e-05
1.60897e-05
1.60896e-05
1.60895e-05
1.60896e-05
1.60897e-05
1.60917e-05
1.60915e-05
1.60914e-05
1.60912e-05
1.60911e-05
1.60909e-05
1.60908e-05
1.60907e-05
1.60906e-05
1.60904e-05
1.60903e-05
1.60902e-05
1.609e-05
1.60899e-05
1.60897e-05
1.60896e-05
1.60895e-05
1.60894e-05
1.60894e-05
1.60917e-05
1.60915e-05
1.60913e-05
1.60912e-05
1.60911e-05
1.60909e-05
1.60908e-05
1.60907e-05
1.60906e-05
1.60905e-05
1.60904e-05
1.60902e-05
1.60901e-05
1.609e-05
1.60898e-05
1.60897e-05
1.60895e-05
1.60894e-05
1.60893e-05
1.60917e-05
1.60915e-05
1.60914e-05
1.60912e-05
1.60911e-05
1.6091e-05
1.60909e-05
1.60908e-05
1.60907e-05
1.60905e-05
1.60904e-05
1.60903e-05
1.60902e-05
1.60901e-05
1.60899e-05
1.60898e-05
1.60896e-05
1.60895e-05
1.60893e-05
1.60915e-05
1.60913e-05
1.60912e-05
1.60911e-05
1.6091e-05
1.60909e-05
1.60908e-05
1.60907e-05
1.60906e-05
1.60905e-05
1.60904e-05
1.60903e-05
1.60901e-05
1.609e-05
1.60899e-05
1.60898e-05
1.60896e-05
1.60894e-05
1.60914e-05
1.60913e-05
1.60912e-05
1.6091e-05
1.60909e-05
1.60908e-05
1.60907e-05
1.60906e-05
1.60905e-05
1.60904e-05
1.60903e-05
1.60903e-05
1.60902e-05
1.60901e-05
1.609e-05
1.60899e-05
1.60897e-05
1.60896e-05
1.60913e-05
1.60912e-05
1.60911e-05
1.60909e-05
1.60908e-05
1.60907e-05
1.60906e-05
1.60905e-05
1.60904e-05
1.60903e-05
1.60902e-05
1.60902e-05
1.60901e-05
1.609e-05
1.60899e-05
1.60898e-05
1.60897e-05
1.60896e-05
1.6091e-05
1.60909e-05
1.60908e-05
1.60907e-05
1.60906e-05
1.60905e-05
1.60904e-05
1.60903e-05
1.60902e-05
1.60901e-05
1.609e-05
1.60899e-05
1.60898e-05
1.60898e-05
1.60897e-05
1.60896e-05
1.60896e-05
1.60908e-05
1.60907e-05
1.60905e-05
1.60904e-05
1.60903e-05
1.60902e-05
1.60901e-05
1.609e-05
1.60899e-05
1.60898e-05
1.60898e-05
1.60897e-05
1.60896e-05
1.60896e-05
1.60895e-05
1.60895e-05
1.60905e-05
1.60904e-05
1.60902e-05
1.60901e-05
1.609e-05
1.60899e-05
1.60898e-05
1.60897e-05
1.60896e-05
1.60895e-05
1.60894e-05
1.60894e-05
1.60893e-05
1.60893e-05
1.60892e-05
1.60892e-05
1.609e-05
1.60898e-05
1.60897e-05
1.60896e-05
1.60895e-05
1.60894e-05
1.60893e-05
1.60892e-05
1.60891e-05
1.6089e-05
1.6089e-05
1.60889e-05
1.60889e-05
1.60888e-05
1.60888e-05
1.60895e-05
1.60894e-05
1.60892e-05
1.60891e-05
1.6089e-05
1.60889e-05
1.60888e-05
1.60887e-05
1.60886e-05
1.60885e-05
1.60885e-05
1.60884e-05
1.60884e-05
1.60884e-05
1.60884e-05
1.6089e-05
1.60888e-05
1.60887e-05
1.60886e-05
1.60885e-05
1.60883e-05
1.60882e-05
1.60881e-05
1.60881e-05
1.6088e-05
1.60879e-05
1.60879e-05
1.60879e-05
1.60878e-05
1.60878e-05
1.60882e-05
1.60881e-05
1.6088e-05
1.60878e-05
1.60877e-05
1.60876e-05
1.60875e-05
1.60874e-05
1.60874e-05
1.60873e-05
1.60873e-05
1.60872e-05
1.60872e-05
1.60872e-05
1.60876e-05
1.60874e-05
1.60873e-05
1.60872e-05
1.6087e-05
1.60869e-05
1.60868e-05
1.60868e-05
1.60867e-05
1.60867e-05
1.60866e-05
1.60866e-05
1.60866e-05
1.60866e-05
1.60868e-05
1.60867e-05
1.60866e-05
1.60864e-05
1.60863e-05
1.60862e-05
1.60861e-05
1.60861e-05
1.6086e-05
1.6086e-05
1.60859e-05
1.60859e-05
1.60859e-05
1.6086e-05
1.60859e-05
1.60858e-05
1.60857e-05
1.60856e-05
1.60855e-05
1.60854e-05
1.60853e-05
1.60853e-05
1.60853e-05
1.60852e-05
1.60852e-05
1.60852e-05
1.60853e-05
1.60852e-05
1.6085e-05
1.60849e-05
1.60848e-05
1.60847e-05
1.60847e-05
1.60846e-05
1.60846e-05
1.60845e-05
1.60845e-05
1.60845e-05
1.60846e-05
1.60846e-05
1.60844e-05
1.60843e-05
1.60842e-05
1.60841e-05
1.6084e-05
1.60839e-05
1.60839e-05
1.60839e-05
1.60838e-05
1.60838e-05
1.60838e-05
1.60839e-05
1.60839e-05
1.60836e-05
1.60835e-05
1.60834e-05
1.60833e-05
1.60832e-05
1.60832e-05
1.60831e-05
1.60831e-05
1.60831e-05
1.60831e-05
1.60831e-05
1.60832e-05
1.60832e-05
1.60827e-05
1.60826e-05
1.60825e-05
1.60825e-05
1.60824e-05
1.60824e-05
1.60823e-05
1.60823e-05
1.60823e-05
1.60824e-05
1.60824e-05
1.60824e-05
1.60819e-05
1.60818e-05
1.60817e-05
1.60816e-05
1.60815e-05
1.60815e-05
1.60815e-05
1.60814e-05
1.60814e-05
1.60815e-05
1.60815e-05
1.60815e-05
1.60809e-05
1.60808e-05
1.60807e-05
1.60806e-05
1.60805e-05
1.60805e-05
1.60804e-05
1.60804e-05
1.60804e-05
1.60804e-05
1.60804e-05
1.60798e-05
1.60797e-05
1.60796e-05
1.60794e-05
1.60793e-05
1.60792e-05
1.60792e-05
1.60791e-05
1.60791e-05
1.60791e-05
1.60791e-05
1.60784e-05
1.60782e-05
1.6078e-05
1.60779e-05
1.60778e-05
1.60777e-05
1.60776e-05
1.60775e-05
1.60775e-05
1.60775e-05
1.60769e-05
1.60767e-05
1.60765e-05
1.60763e-05
1.60761e-05
1.6076e-05
1.60759e-05
1.60758e-05
1.60757e-05
1.60757e-05
1.60752e-05
1.6075e-05
1.60748e-05
1.60746e-05
1.60744e-05
1.60743e-05
1.60741e-05
1.6074e-05
1.6074e-05
1.60739e-05
1.60736e-05
1.60734e-05
1.60732e-05
1.6073e-05
1.60729e-05
1.60728e-05
1.60727e-05
1.60726e-05
1.60725e-05
1.60725e-05
1.60723e-05
1.60722e-05
1.6072e-05
1.60719e-05
1.60719e-05
1.60718e-05
1.60718e-05
1.60718e-05
1.60718e-05
1.60718e-05
1.60716e-05
1.60716e-05
1.60716e-05
1.60717e-05
1.60717e-05
1.60718e-05
1.60719e-05
1.60719e-05
1.6072e-05
1.60718e-05
1.6072e-05
1.60721e-05
1.60723e-05
1.60724e-05
1.60725e-05
1.60727e-05
1.60728e-05
1.60729e-05
1.60727e-05
1.6073e-05
1.60732e-05
1.60734e-05
1.60737e-05
1.60739e-05
1.60741e-05
1.60742e-05
1.60742e-05
1.60746e-05
1.6075e-05
1.60753e-05
1.60756e-05
1.60759e-05
1.60762e-05
1.60764e-05
1.60764e-05
1.60769e-05
1.60773e-05
1.60778e-05
1.60782e-05
1.60786e-05
1.6079e-05
1.60793e-05
1.60791e-05
1.60797e-05
1.60803e-05
1.60809e-05
1.60814e-05
1.60819e-05
1.60823e-05
1.60827e-05
1.6083e-05
1.60837e-05
1.60843e-05
1.60849e-05
1.60854e-05
1.6086e-05
1.60864e-05
1.60865e-05
1.60872e-05
1.60879e-05
1.60885e-05
1.60891e-05
1.60897e-05
1.60902e-05
1.60894e-05
1.60901e-05
1.60909e-05
1.60916e-05
1.60922e-05
1.60928e-05
1.60934e-05
1.60915e-05
1.60923e-05
1.6093e-05
1.60937e-05
1.60943e-05
1.60949e-05
1.60955e-05
1.60933e-05
1.60941e-05
1.60947e-05
1.60954e-05
1.6096e-05
1.60966e-05
1.60972e-05
1.60948e-05
1.60954e-05
1.60961e-05
1.60967e-05
1.60973e-05
1.60979e-05
1.60985e-05
1.60959e-05
1.60965e-05
1.60972e-05
1.60978e-05
1.60984e-05
1.6099e-05
1.60971e-05
1.60979e-05
1.60986e-05
1.60994e-05
1.61001e-05
1.61008e-05
1.60995e-05
1.61005e-05
1.61015e-05
1.61025e-05
1.61034e-05
1.61044e-05
1.61048e-05
1.61061e-05
1.61074e-05
1.61087e-05
1.611e-05
1.61094e-05
1.61108e-05
1.61121e-05
1.61134e-05
1.61147e-05
1.61096e-05
1.61105e-05
1.61113e-05
1.61122e-05
1.6113e-05
1.61023e-05
1.61031e-05
1.61038e-05
1.61046e-05
1.61055e-05
1.60994e-05
1.61019e-05
1.61045e-05
1.61073e-05
1.61101e-05
1.61015e-05
1.61033e-05
1.6105e-05
1.61066e-05
1.61081e-05
)
;

boundaryField
{
    inlet
    {
        type            calculated;
        value           uniform 2e-05;
    }
    outlet
    {
        type            calculated;
        value           nonuniform List<scalar> 0();
    }
    walls
    {
        type            calculated;
        value           nonuniform List<scalar> 
28
(
0.000446905
0.000599635
0.00094239
0.0012575
0.0015144
0.00172134
0.00189035
0.0020304
0.0021486
0.00225057
0.0023406
0.00242233
0.00249807
0.00256987
0.00263836
0.00270351
0.002762
0.00280738
0.00283924
0.00286092
0.00287552
0.00288432
0.00288817
0.00288544
0.00287454
0.00285521
0.00282788
0.00279209
)
;
    }
    frontAndBack
    {
        type            empty;
    }
    procBoundary1to0
    {
        type            processor;
        value           nonuniform List<scalar> 
94
(
1.6092e-05
1.6092e-05
1.60914e-05
1.60914e-05
1.60913e-05
1.60913e-05
1.60913e-05
1.60913e-05
1.60919e-05
1.60919e-05
1.60925e-05
1.60925e-05
1.60926e-05
1.6093e-05
1.6093e-05
1.6093e-05
1.60931e-05
1.60931e-05
1.60931e-05
1.60931e-05
1.6093e-05
1.6093e-05
1.6093e-05
1.60929e-05
1.60929e-05
1.60928e-05
1.60927e-05
1.60925e-05
1.60925e-05
1.60924e-05
1.60924e-05
1.60922e-05
1.60922e-05
1.60921e-05
1.60919e-05
1.60919e-05
1.60919e-05
1.60919e-05
1.60917e-05
1.60917e-05
1.60916e-05
1.60915e-05
1.60912e-05
1.60912e-05
1.6091e-05
1.60907e-05
1.60901e-05
1.60901e-05
1.60897e-05
1.60891e-05
1.60884e-05
1.60884e-05
1.60877e-05
1.6087e-05
1.60861e-05
1.60861e-05
1.60853e-05
1.60845e-05
1.60837e-05
1.60828e-05
1.60828e-05
1.6082e-05
1.6081e-05
1.608e-05
1.60786e-05
1.60786e-05
1.60771e-05
1.60755e-05
1.60739e-05
1.60725e-05
1.60716e-05
1.60716e-05
1.60717e-05
1.60725e-05
1.60739e-05
1.60759e-05
1.60785e-05
1.60823e-05
1.60823e-05
1.60857e-05
1.60885e-05
1.60907e-05
1.60926e-05
1.60941e-05
1.60952e-05
1.60964e-05
1.60985e-05
1.61035e-05
1.61035e-05
1.6108e-05
1.61086e-05
1.61017e-05
1.6097e-05
1.60996e-05
)
;
    }
    procBoundary1to2
    {
        type            processor;
        value           nonuniform List<scalar> 
84
(
0.107049
0.0703985
0.0400443
0.00709269
0.00169778
1.00027e-05
1.1052e-05
1.55426e-05
1.62306e-05
1.62095e-05
1.61794e-05
1.61308e-05
1.6112e-05
1.61096e-05
1.61089e-05
1.6107e-05
1.61048e-05
1.61029e-05
1.61013e-05
1.60999e-05
1.60986e-05
1.60972e-05
1.6096e-05
1.6095e-05
1.60941e-05
1.60931e-05
1.60922e-05
1.60915e-05
1.60909e-05
1.60904e-05
1.60899e-05
1.60895e-05
1.60893e-05
1.60892e-05
1.60893e-05
1.60893e-05
1.60894e-05
1.60894e-05
1.60894e-05
1.60894e-05
1.60891e-05
1.60888e-05
1.60884e-05
1.60878e-05
1.60873e-05
1.60866e-05
1.6086e-05
1.60853e-05
1.60846e-05
1.6084e-05
1.60833e-05
1.60825e-05
1.60816e-05
1.60804e-05
1.60804e-05
1.60791e-05
1.60775e-05
1.60757e-05
1.60739e-05
1.60724e-05
1.60718e-05
1.60721e-05
1.6073e-05
1.60744e-05
1.60744e-05
1.60767e-05
1.60796e-05
1.60831e-05
1.60869e-05
1.60907e-05
1.60939e-05
1.60961e-05
1.60977e-05
1.6099e-05
1.60996e-05
1.60996e-05
1.61016e-05
1.61054e-05
1.61112e-05
1.61159e-05
1.61137e-05
1.61064e-05
1.61129e-05
1.61094e-05
)
;
    }
    procBoundary1to5
    {
        type            processor;
        value           nonuniform List<scalar> 
13
(
1.78764e-05
1.78764e-05
1.58026e-05
1.61375e-05
1.61375e-05
1.60839e-05
1.60948e-05
1.60948e-05
1.60905e-05
1.6091e-05
1.60912e-05
1.60912e-05
1.60927e-05
)
;
    }
}


// ************************************************************************* //
