/*--------------------------------*- C++ -*----------------------------------*\
| =========                 |                                                 |
| \\      /  F ield         | OpenFOAM: The Open Source CFD Toolbox           |
|  \\    /   O peration     | Version:  2306                                  |
|   \\  /    A nd           | Website:  www.openfoam.com                      |
|    \\/     M anipulation  |                                                 |
\*---------------------------------------------------------------------------*/
FoamFile
{
    version     2.0;
    format      ascii;
    arch        "LSB;label=32;scalar=64";
    class       volSymmTensorField;
    location    "175";
    object      turbulenceProperties:R;
}
// * * * * * * * * * * * * * * * * * * * * * * * * * * * * * * * * * * * * * //

dimensions      [0 2 -2 0 0 0 0];

internalField   nonuniform List<symmTensor> 
1340
(
(0.00189317 0.000245023 5.53558e-20 0.00184084 -2.24011e-20 0.00184509)
(0.00215871 0.000276029 1.01448e-19 0.00193483 -5.17742e-20 0.00203112)
(0.00307819 0.000393222 -7.60906e-20 0.00254611 1.79422e-20 0.00281051)
(0.00470627 0.000644632 -2.40905e-20 0.00364213 1.09552e-19 0.00418404)
(0.00721346 0.0011374 1.76352e-19 0.00526464 6.90328e-20 0.00625864)
(0.0109046 0.00204975 3.60382e-19 0.00755479 -5.69666e-20 0.00926707)
(0.0162151 0.00362719 -1.23603e-20 0.0107703 -2.15119e-19 0.0135609)
(0.0236614 0.00612078 -6.18248e-20 0.0153072 -1.55466e-19 0.0195883)
(0.0339984 0.00982504 3.66552e-20 0.0218751 -5.62163e-20 0.0280922)
(0.0485961 0.0151757 -1.96476e-19 0.0316355 6.28715e-19 0.0403286)
(0.0700374 0.0230903 7.19265e-19 0.0466451 2.57475e-19 0.058635)
(0.103171 0.0353763 3.22988e-19 0.0706168 -1.1715e-18 0.0872966)
(0.156489 0.0553962 -1.32418e-18 0.110325 -3.25974e-19 0.133998)
(0.247187 0.0899797 -4.47875e-18 0.179612 -1.95047e-18 0.214301)
(0.405124 0.151504 -3.3506e-18 0.30391 -8.65999e-19 0.356018)
(0.704175 0.270667 6.34955e-18 0.546834 -6.19187e-19 0.628244)
(1.26472 0.500828 -7.82842e-18 1.022 1.24826e-18 1.14897)
(2.47871 1.01176 4.19925e-18 2.09173 -6.90154e-18 2.29738)
(4.95379 2.07922 -1.30059e-16 4.36357 3.37833e-18 4.68402)
(10.9109 4.6971 -8.0708e-17 10.0204 1.15725e-17 10.5255)
(21.8069 9.60622 6.7599e-17 20.8604 3.2124e-19 21.457)
(29.9982 13.4945 8.82438e-18 29.8767 -4.95324e-20 30.0953)
(32.9946 15.1216 6.27947e-17 34.1676 -1.39085e-18 33.7292)
(33.3716 15.5435 -4.41913e-16 35.8493 -3.78601e-18 34.7342)
(32.942 15.5572 1.58248e-16 36.6149 2.23067e-17 34.8797)
(32.2058 15.3902 -1.90958e-15 36.9469 -1.61012e-16 34.6603)
(31.2516 15.0851 -3.49077e-15 36.9202 -2.0869e-16 34.1565)
(30.1063 14.6577 1.07173e-15 36.5582 1.15812e-16 33.3929)
(0.00152427 0.000151092 2.44628e-20 0.0013262 -8.43843e-20 0.00142749)
(0.00130732 0.000153171 -1.21824e-19 0.00120784 4.20567e-21 0.00126293)
(0.00110664 0.000139384 1.62739e-20 0.00108927 7.87225e-20 0.00110367)
(0.000914558 0.000115276 -7.40652e-22 0.000964599 -4.52553e-20 0.000942515)
(0.000746327 8.65283e-05 -2.8705e-20 0.00083638 -2.74749e-20 0.000790049)
(0.000611964 6.09918e-05 -2.06574e-20 0.000714898 -2.8407e-20 0.00065866)
(0.00050501 4.15189e-05 -3.61394e-21 0.000604409 6.28455e-21 0.000547907)
(0.000417831 2.779e-05 1.19707e-20 0.000505833 3.18096e-20 0.000454125)
(0.000345885 1.86415e-05 1.98881e-20 0.000419653 7.36455e-21 0.000374902)
(0.000286213 1.2734e-05 -2.69745e-20 0.000345812 -1.04973e-21 0.000308508)
(0.000236021 8.9629e-06 2.25113e-20 0.000282506 2.01635e-21 0.000252512)
(0.000193646 6.49904e-06 -2.50051e-21 0.000228645 -6.6749e-21 0.000205404)
(0.000156397 4.68289e-06 -7.01167e-21 0.000181307 1.06646e-20 0.000164315)
(0.000122055 3.17294e-06 -4.08909e-21 0.000138188 4.26726e-21 0.000126892)
(8.74037e-05 1.78319e-06 -6.1129e-21 9.59561e-05 6.58105e-21 8.98053e-05)
(5.25109e-05 6.81967e-07 -3.54455e-21 5.56141e-05 1.77965e-21 5.33157e-05)
(1.86374e-05 8.70603e-08 -6.8456e-22 1.90204e-05 6.08355e-23 1.87261e-05)
(3.06504e-06 2.37753e-09 8.37477e-24 3.07498e-06 6.92104e-25 3.06695e-06)
(1.22426e-05 4.12179e-08 -9.42283e-24 1.23907e-05 1.16721e-23 1.2264e-05)
(0.000907192 0.000213902 5.1355e-19 0.00152858 1.18372e-19 0.000969253)
(0.00492896 0.00147399 2.86124e-18 0.00849052 -1.93913e-19 0.00515932)
(0.0397178 0.0129083 1.12325e-18 0.0659117 -3.75884e-19 0.0408025)
(0.133631 0.0483238 -7.63542e-19 0.211994 7.13752e-20 0.136067)
(0.264386 0.106576 5.10736e-17 0.396443 2.57771e-18 0.269224)
(0.401103 0.175594 4.10179e-16 0.566123 7.7954e-18 0.411848)
(0.52371 0.240627 2.4357e-16 0.702522 1.38861e-17 0.54475)
(0.62584 0.294846 1.78544e-15 0.812624 1.19201e-16 0.660399)
(0.712516 0.340305 2.57402e-15 0.911257 1.45022e-16 0.762495)
(0.789663 0.380578 -5.79046e-16 1.00826 -8.76442e-17 0.856767)
(0.00122804 0.000114913 1.08419e-20 0.00104729 5.59345e-20 0.00113745)
(0.00107514 0.000120739 6.08038e-20 0.000971578 6.22968e-20 0.00102381)
(0.000934089 0.0001166 2.16012e-20 0.000900193 -4.95169e-20 0.000917907)
(0.000793849 0.000102971 4.28794e-20 0.00081726 2.62937e-20 0.000806158)
(0.000655897 8.3112e-05 -3.17151e-20 0.0007163 8.29789e-21 0.000686938)
(0.000532025 6.26699e-05 -4.24575e-21 0.000609768 2.62359e-20 0.000572462)
(0.000426914 4.47636e-05 2.91577e-21 0.000508522 -2.41176e-20 0.000470219)
(0.000339984 3.03006e-05 4.40542e-20 0.000417366 -3.04411e-20 0.000382177)
(0.00027064 1.93893e-05 2.88993e-21 0.00033982 -4.58816e-21 0.000309566)
(0.000216292 1.1468e-05 -4.81835e-21 0.000275897 1.97286e-20 0.000251134)
(0.00017501 5.94391e-06 3.22042e-20 0.000225347 -3.66598e-20 0.000205733)
(0.000144386 2.12125e-06 5.08668e-21 0.000186561 4.39192e-21 0.000171411)
(0.000122598 -5.73066e-07 3.7209e-20 0.000158111 -2.82102e-21 0.000146521)
(0.000107363 -2.62651e-06 3.99707e-20 0.000137444 8.33218e-21 0.000128753)
(9.72861e-05 -4.3301e-06 1.03127e-19 0.000122959 -1.37921e-20 0.000116602)
(9.1337e-05 -5.978e-06 1.34472e-19 0.00011312 -2.03735e-20 0.000108885)
(8.90677e-05 -7.77369e-06 8.08417e-20 0.000106871 6.26055e-21 0.000104901)
(8.95649e-05 -9.52034e-06 1.88375e-20 0.0001018 -3.72227e-21 0.00010321)
(9.30251e-05 -1.06135e-05 -2.07316e-20 9.80403e-05 9.52428e-21 0.000104058)
(9.6073e-05 -1.00428e-05 7.57661e-20 9.37888e-05 -1.16416e-20 0.000103912)
(0.000105038 -9.40344e-06 -2.05399e-20 9.62828e-05 -1.66494e-21 0.000110671)
(6.18064e-05 -2.63324e-06 -6.0161e-21 5.72956e-05 1.15397e-22 6.30693e-05)
(0.000522281 -7.28264e-05 2.80149e-20 0.000318956 -6.69632e-22 0.000553128)
(0.00342804 -0.000271084 -1.50542e-18 0.00176657 -4.47956e-20 0.00358103)
(0.00966454 0.00051454 -8.99751e-18 0.0048521 1.05115e-19 0.00998909)
(0.0194815 0.00503196 -5.65243e-17 0.0118436 -3.23438e-18 0.0200857)
(0.0402241 0.0162331 -1.37796e-16 0.033365 -3.02093e-18 0.0416386)
(0.078834 0.0356504 -3.41394e-16 0.0779765 -2.09881e-17 0.082264)
(0.13428 0.0628169 -8.69209e-16 0.144514 -8.39868e-17 0.141639)
(0.00106482 6.66273e-05 2.12573e-20 0.000857529 -7.06138e-21 0.000961299)
(0.000970279 8.4487e-05 2.22304e-20 0.000815767 -6.9548e-22 0.000892903)
(0.000870204 9.30417e-05 -5.54766e-20 0.000771713 -3.33734e-20 0.000821036)
(0.000767146 9.28777e-05 -2.95185e-20 0.000722561 2.64848e-21 0.00074531)
(0.000660913 8.48697e-05 5.10354e-20 0.000662969 2.15338e-20 0.000662569)
(0.000559213 7.17788e-05 2.31602e-20 0.000595065 -1.99921e-21 0.000577665)
(0.000469838 5.72516e-05 2.78738e-20 0.000526228 -1.70587e-20 0.000498262)
(0.000394947 4.36515e-05 -4.39687e-20 0.000461304 -2.69844e-20 0.000427908)
(0.000333296 3.20463e-05 -5.34564e-20 0.000402222 1.03516e-20 0.000367043)
(0.000283322 2.28397e-05 5.17891e-21 0.000350171 1.3698e-20 0.00031551)
(0.000242844 1.5858e-05 1.63846e-20 0.000305156 -4.86424e-21 0.0002723)
(0.000210418 1.07715e-05 -4.09172e-20 0.000267278 -2.75573e-21 0.000236732)
(0.000184497 7.12749e-06 -1.35189e-21 0.000235905 -6.31426e-21 0.000207744)
(0.000163982 4.4874e-06 -1.55481e-20 0.000210465 -2.85119e-21 0.00018449)
(0.000147426 2.45402e-06 3.2986e-20 0.000189579 -1.84848e-20 0.000165583)
(0.000134084 7.73273e-07 -3.60179e-20 0.000172489 -1.16843e-20 0.000150223)
(0.000122975 -7.70438e-07 -7.42414e-20 0.000158002 -7.97344e-21 0.000137321)
(0.000113159 -2.30388e-06 3.64337e-21 0.000144839 -1.07921e-20 0.00012574)
(0.000102954 -3.732e-06 1.91942e-20 0.00013077 -1.03998e-20 0.000113544)
(9.25572e-05 -4.62432e-06 5.76077e-20 0.000116231 -4.05452e-21 0.000100924)
(8.40232e-05 -4.89911e-06 -5.41597e-20 0.000104216 -2.61643e-21 9.03078e-05)
(7.76354e-05 -4.83427e-06 -9.22637e-21 9.5135e-05 2.63177e-21 8.21922e-05)
(7.31863e-05 -4.67825e-06 5.64752e-21 8.8807e-05 3.89268e-22 7.63991e-05)
(6.6909e-05 -4.23048e-06 -2.56004e-21 8.0169e-05 -8.28048e-23 6.89153e-05)
(6.04727e-05 -3.94142e-06 -3.88816e-21 7.20043e-05 3.24055e-23 6.16246e-05)
(4.13882e-05 -2.36083e-06 -4.67323e-21 4.75856e-05 -3.68653e-22 4.16937e-05)
(2.77313e-05 -1.57922e-06 1.29705e-20 3.12915e-05 4.03182e-22 2.76686e-05)
(0.000206093 -5.55802e-05 2.03812e-18 0.000312999 1.49274e-19 0.000189011)
(0.000398319 -3.51609e-05 1.94914e-17 0.000506344 1.74136e-18 0.000285829)
(0.00181413 0.000661112 8.13435e-17 0.00141873 1.01567e-17 0.00146995)
(0.000849236 4.88584e-05 -5.4428e-20 0.000679283 2.89212e-20 0.000764212)
(0.0007836 6.40267e-05 7.56038e-20 0.000651449 3.80682e-20 0.000717341)
(0.000712563 7.27219e-05 -2.47874e-20 0.00062232 -6.9469e-20 0.000667396)
(0.000637793 7.49032e-05 -3.26845e-20 0.000589539 9.30749e-21 0.000613761)
(0.000559792 7.09393e-05 -2.21758e-20 0.000549431 -3.85921e-20 0.00055479)
(0.000483851 6.25581e-05 7.57349e-21 0.000502973 1.19381e-20 0.000493581)
(0.000414123 5.20925e-05 -1.50509e-20 0.000453111 -1.89207e-20 0.000433779)
(0.000352239 4.13777e-05 -3.11848e-20 0.000402509 4.083e-20 0.000377574)
(0.0002982 3.15182e-05 3.32599e-20 0.000353066 1.83017e-20 0.000325922)
(0.000251798 2.31268e-05 2.77748e-20 0.000306537 -1.26405e-20 0.000279583)
(0.000212459 1.63512e-05 -5.70995e-21 0.00026419 -1.11308e-20 0.000238906)
(0.000179596 1.10985e-05 1.65728e-20 0.000226847 3.47492e-21 0.000203985)
(0.000152549 7.11102e-06 -2.47818e-20 0.000194857 6.30488e-21 0.000174653)
(0.000130678 4.09188e-06 1.75504e-20 0.000168198 -5.677e-22 0.000150559)
(0.000113117 1.73861e-06 -2.2963e-20 0.000146255 -1.02619e-20 0.000130966)
(9.91744e-05 -1.83732e-07 2.23428e-20 0.000128388 1.63264e-21 0.000115191)
(8.80521e-05 -1.86554e-06 2.96733e-20 0.00011365 6.10223e-21 0.00010237)
(7.89639e-05 -3.41478e-06 -2.25513e-21 0.00010097 2.66486e-21 9.1571e-05)
(7.06088e-05 -4.76993e-06 -5.58678e-20 8.85523e-05 2.77296e-22 8.1299e-05)
(6.22827e-05 -5.6285e-06 -2.06589e-20 7.57087e-05 -8.28889e-21 7.08471e-05)
(5.46522e-05 -5.89156e-06 -6.1159e-21 6.37702e-05 8.79793e-21 6.11703e-05)
(4.87943e-05 -5.7922e-06 2.2709e-20 5.40954e-05 1.98813e-22 5.35819e-05)
(4.51098e-05 -5.4542e-06 7.89773e-22 4.70391e-05 -1.54294e-22 4.84491e-05)
(4.42656e-05 -5.12726e-06 -1.28937e-21 4.3281e-05 8.61905e-23 4.64708e-05)
(4.17963e-05 -4.11137e-06 1.36005e-20 3.87737e-05 1.26867e-22 4.28784e-05)
(5.33767e-05 -5.72154e-06 1.59385e-20 4.62971e-05 5.33694e-22 5.39544e-05)
(1.03174e-05 -2.39069e-07 -3.65903e-21 9.93287e-06 -2.13081e-22 1.03025e-05)
(9.17655e-05 -1.39884e-05 -6.13527e-19 6.61111e-05 -4.69926e-20 8.85585e-05)
(1.22174e-11 -4.31994e-19 -4.17971e-33 1.22174e-11 -3.74298e-34 1.22174e-11)
(0.00115364 -0.000269335 2.05159e-18 0.000585551 1.06615e-19 0.000987158)
(0.000726824 2.0067e-05 -1.09042e-20 0.000565968 3.77e-21 0.000646474)
(0.00068777 3.63835e-05 4.80012e-20 0.000547132 3.33975e-20 0.000617332)
(0.000640798 4.92713e-05 -3.0118e-20 0.000527914 -5.05459e-20 0.000584228)
(0.00058923 5.75029e-05 1.40915e-20 0.000508163 2.50525e-20 0.000548676)
(0.000533761 6.07356e-05 -1.76014e-20 0.000485522 -3.25814e-21 0.000509681)
(0.000475427 5.91814e-05 -5.22258e-20 0.000457776 -1.86451e-21 0.000466702)
(0.000417872 5.3943e-05 3.80333e-20 0.000425426 7.82774e-21 0.000421764)
(0.00036395 4.65619e-05 -7.62372e-21 0.000389985 1.03061e-20 0.000377073)
(0.000315168 3.84067e-05 2.17405e-20 0.000353234 1.63212e-20 0.000334289)
(0.000271996 3.04388e-05 7.75529e-21 0.00031665 -1.89571e-20 0.000294367)
(0.000234542 2.32906e-05 -5.96013e-21 0.00028157 -1.36934e-20 0.00025803)
(0.000202598 1.7236e-05 -2.28693e-20 0.000249159 8.87856e-21 0.00022577)
(0.000175756 1.23344e-05 -2.7496e-20 0.000220117 1.26848e-20 0.00019773)
(0.000153486 8.47361e-06 1.14225e-20 0.000194787 -8.67974e-22 0.000173827)
(0.000135209 5.4632e-06 -4.70988e-21 0.000173186 -5.07469e-21 0.000153785)
(0.000120249 3.07327e-06 -2.33676e-20 0.000154955 1.17682e-22 0.000137091)
(0.000107961 1.11104e-06 -2.61039e-20 0.000139565 -5.84884e-21 0.00012316)
(9.76302e-05 -5.92413e-07 -2.19949e-20 0.000126237 1.64851e-21 0.000111249)
(8.85233e-05 -2.13866e-06 2.35605e-20 0.00011405 -1.0137e-20 0.000100532)
(7.96285e-05 -3.49227e-06 -5.93577e-21 0.00010169 1.03127e-20 8.9858e-05)
(7.04548e-05 -4.4226e-06 -3.51519e-20 8.87029e-05 7.99642e-21 7.87324e-05)
(6.17037e-05 -4.8272e-06 4.69574e-20 7.63382e-05 -2.71098e-21 6.80813e-05)
(5.40347e-05 -4.87289e-06 3.67687e-21 6.55897e-05 -2.56496e-21 5.8764e-05)
(4.75911e-05 -4.71921e-06 6.82918e-22 5.66325e-05 -2.48643e-22 5.09465e-05)
(4.21569e-05 -4.4306e-06 1.68352e-21 4.9188e-05 3.28115e-23 4.43616e-05)
(3.75778e-05 -4.05279e-06 -1.72723e-20 4.30607e-05 -6.41035e-22 3.88335e-05)
(3.36112e-05 -3.61279e-06 -9.92704e-21 3.7915e-05 -8.30341e-22 3.41074e-05)
(2.97702e-05 -3.17239e-06 5.07525e-20 3.30549e-05 3.41058e-21 2.96746e-05)
(2.41449e-05 -2.4186e-06 3.53592e-20 2.61442e-05 1.79889e-21 2.36469e-05)
(1.49619e-05 -1.13667e-06 -1.70752e-20 1.55274e-05 -1.39227e-21 1.449e-05)
(9.55124e-07 -6.07246e-09 1.15477e-22 9.54995e-07 1.44669e-23 9.50965e-07)
(0.000593631 1.43115e-05 -1.22298e-21 0.0004614 -9.47024e-21 0.000527555)
(0.000564841 2.76021e-05 -1.63055e-20 0.000447375 8.03734e-21 0.000506005)
(0.000530543 3.85301e-05 1.87861e-20 0.000433843 1.72273e-20 0.000482113)
(0.00049207 4.60216e-05 4.28423e-20 0.000419941 1.8145e-20 0.000455996)
(0.000450137 4.96506e-05 2.90256e-20 0.000403947 -8.79781e-22 0.000427049)
(0.000406092 4.95622e-05 -8.86982e-21 0.000384687 7.4801e-21 0.000395426)
(0.000362201 4.64462e-05 -3.91169e-20 0.000362119 -1.43949e-20 0.000362204)
(0.000320324 4.13253e-05 2.79487e-20 0.000336827 1.85077e-20 0.00032862)
(0.000281516 3.51916e-05 1.46183e-21 0.000309756 -2.13728e-20 0.00029569)
(0.000246238 2.88177e-05 1.429e-21 0.000281815 -9.70652e-21 0.000264086)
(0.000214746 2.27835e-05 -2.23712e-20 0.000253969 8.79656e-21 0.000234416)
(0.000187038 1.74073e-05 1.31014e-20 0.00022718 1.31533e-20 0.000207178)
(0.000162969 1.28405e-05 5.62029e-20 0.000202141 4.26061e-21 0.000182641)
(0.000142318 9.08026e-06 -2.07786e-20 0.000179384 -1.62162e-22 0.000160962)
(0.000124806 6.03166e-06 -4.27411e-21 0.000159196 -4.3859e-22 0.000142144)
(0.000110036 3.54447e-06 -2.95709e-20 0.000141537 1.86299e-20 0.000125968)
(9.76082e-05 1.47422e-06 -2.219e-20 0.000126186 3.3584e-21 0.00011212)
(8.70473e-05 -3.09287e-07 2.52194e-20 0.000112686 6.02068e-21 0.00010013)
(7.7809e-05 -1.88563e-06 -5.88562e-20 0.000100381 6.23495e-21 8.93982e-05)
(6.91522e-05 -3.23555e-06 1.99064e-20 8.83173e-05 8.5893e-23 7.90905e-05)
(6.06224e-05 -4.19085e-06 3.89256e-20 7.60526e-05 4.16771e-22 6.87541e-05)
(5.25807e-05 -4.65881e-06 -1.61053e-20 6.43688e-05 -4.12239e-21 5.89269e-05)
(4.55295e-05 -4.7629e-06 -1.74276e-20 5.40707e-05 3.22267e-22 5.02891e-05)
(3.96332e-05 -4.64239e-06 -4.17617e-21 4.53592e-05 2.22067e-22 4.30464e-05)
(3.47699e-05 -4.36355e-06 -5.07967e-22 3.80584e-05 1.89506e-23 3.7045e-05)
(3.0877e-05 -3.96688e-06 2.07059e-21 3.20833e-05 4.30523e-22 3.22048e-05)
(2.80614e-05 -3.49725e-06 -2.70999e-20 2.75047e-05 -1.01004e-21 2.8625e-05)
(2.63604e-05 -3.00698e-06 6.22697e-20 2.43863e-05 2.8888e-21 2.63226e-05)
(2.55332e-05 -2.55607e-06 2.60615e-21 2.24697e-05 -1.3396e-22 2.50199e-05)
(2.40448e-05 -1.98124e-06 4.02523e-20 2.0449e-05 3.98024e-21 2.31941e-05)
(2.19972e-05 -1.41566e-06 1.9145e-20 1.83604e-05 -1.97442e-22 2.09655e-05)
(0.000491181 1.02722e-05 -5.0601e-22 0.000381217 2.65378e-21 0.000436183)
(0.000469345 2.12447e-05 -2.64274e-21 0.000370408 -2.27871e-20 0.000419796)
(0.000443627 3.05376e-05 -8.02175e-20 0.000360553 -3.667e-20 0.000402049)
(0.000414358 3.72337e-05 1.78974e-20 0.000350534 2.71222e-20 0.000382435)
(0.000382215 4.09028e-05 -5.21106e-21 0.000339062 1.88134e-21 0.00036063)
(0.000348518 4.16637e-05 4.24932e-20 0.000325531 1.39369e-20 0.000337043)
(0.000314646 3.99479e-05 -3.20945e-21 0.000309586 1.39749e-20 0.00031214)
(0.000281902 3.64556e-05 1.81085e-20 0.000291446 -6.32771e-21 0.000286697)
(0.000251045 3.1903e-05 -1.60342e-20 0.00027159 5.23086e-21 0.000261351)
(0.000222465 2.68858e-05 -2.85647e-20 0.000250567 8.26227e-21 0.000236552)
(0.000196472 2.18929e-05 7.72766e-21 0.000229057 3.59237e-21 0.000212791)
(0.000173208 1.72409e-05 1.25498e-20 0.000207848 -5.04134e-21 0.000190545)
(0.000152666 1.31185e-05 1.18864e-20 0.000187532 -2.1899e-20 0.000170102)
(0.000134787 9.59024e-06 1.62967e-20 0.000168653 5.54862e-21 0.000151705)
(0.000119421 6.63687e-06 -1.50385e-20 0.00015154 8.33683e-21 0.000135443)
(0.000106301 4.17059e-06 5.62226e-20 0.000136274 2.1139e-21 0.000121226)
(9.5099e-05 2.09046e-06 -1.33353e-20 0.000122719 7.64256e-21 0.000108824)
(8.54292e-05 2.96734e-07 2.6259e-20 0.000110555 -1.00168e-20 9.78834e-05)
(7.68339e-05 -1.2737e-06 3.9972e-20 9.92713e-05 2.2934e-21 8.79211e-05)
(6.87378e-05 -2.61213e-06 7.59413e-22 8.8165e-05 -8.64187e-21 7.83065e-05)
(6.07908e-05 -3.59557e-06 -1.09849e-20 7.69138e-05 -6.82241e-21 6.86987e-05)
(5.3248e-05 -4.14146e-06 -1.00678e-20 6.61078e-05 1.45729e-21 5.94939e-05)
(4.64793e-05 -4.33495e-06 2.05245e-21 5.64022e-05 1.02803e-22 5.12163e-05)
(4.05904e-05 -4.29891e-06 4.2187e-21 4.79754e-05 1.75831e-22 4.40258e-05)
(3.54426e-05 -4.10144e-06 1.72022e-21 4.06729e-05 -2.64525e-23 3.7767e-05)
(3.09036e-05 -3.78568e-06 4.86524e-21 3.43592e-05 1.24785e-22 3.22951e-05)
(2.6939e-05 -3.39969e-06 1.9044e-20 2.89968e-05 1.54503e-21 2.75708e-05)
(2.3479e-05 -2.98183e-06 -1.08994e-19 2.44652e-05 -7.55779e-21 2.35066e-05)
(2.04711e-05 -2.56491e-06 -4.34158e-20 2.06126e-05 -2.15974e-21 2.00221e-05)
(1.79063e-05 -2.1503e-06 -2.49888e-21 1.73261e-05 -3.65189e-21 1.70675e-05)
(1.61742e-05 -1.80906e-06 -6.12606e-20 1.48846e-05 -7.05433e-21 1.49734e-05)
(0.000423066 -2.27825e-06 -3.24325e-20 0.000326991 -2.42597e-20 0.000375029)
(0.000410636 7.39015e-06 -1.87604e-20 0.000318338 -1.30442e-20 0.000364457)
(0.000393894 1.65427e-05 -4.79507e-21 0.000309932 -7.34136e-22 0.000351854)
(0.000374152 2.44857e-05 1.13923e-20 0.000302529 2.9668e-20 0.000338328)
(0.000351488 3.04122e-05 2.6735e-20 0.00029514 1.66026e-20 0.000323305)
(0.000326557 3.39418e-05 1.90035e-20 0.000286827 -1.23586e-20 0.000306679)
(0.00030044 3.51747e-05 -2.53934e-20 0.000277227 -1.56748e-20 0.000288841)
(0.000274064 3.43845e-05 5.40798e-20 0.000265914 1.86132e-21 0.000269999)
(0.000248314 3.20576e-05 -7.68799e-21 0.000252867 -2.36585e-20 0.000250598)
(0.000223711 2.87155e-05 4.608e-20 0.000238304 9.31242e-21 0.000231024)
(0.00020055 2.48096e-05 3.50814e-20 0.000222509 4.66145e-21 0.000211552)
(0.000179094 2.07339e-05 -1.69026e-20 0.000205906 -6.74584e-21 0.00019252)
(0.000159488 1.67679e-05 2.85749e-21 0.000189049 -7.69217e-21 0.00017429)
(0.000141812 1.31095e-05 -4.32793e-20 0.000172426 2.16826e-21 0.000157139)
(0.00012607 9.85699e-06 -6.48186e-21 0.000156483 -5.04333e-21 0.000141296)
(0.000112208 7.03802e-06 3.02266e-20 0.00014156 1.37515e-21 0.000126904)
(0.000100094 4.62059e-06 6.34415e-22 0.000127834 -8.22461e-21 0.000113986)
(8.95268e-05 2.54612e-06 2.6275e-20 0.000115306 4.72754e-21 0.000102442)
(8.02368e-05 7.44719e-07 -2.96814e-20 0.000103801 -4.69523e-21 9.20503e-05)
(7.18892e-05 -8.26181e-07 -2.2561e-20 9.2979e-05 -4.73854e-21 8.24741e-05)
(6.40863e-05 -2.15956e-06 -4.47636e-20 8.23792e-05 1.5387e-21 7.32886e-05)
(5.6572e-05 -3.1649e-06 -3.36367e-20 7.17825e-05 5.03081e-21 6.42549e-05)
(4.94842e-05 -3.76943e-06 -3.59198e-21 6.15879e-05 7.56078e-22 5.56254e-05)
(4.31152e-05 -4.03093e-06 -1.28122e-20 5.23494e-05 5.50393e-22 4.78268e-05)
(3.75786e-05 -4.05334e-06 -4.16508e-22 4.42723e-05 -2.77962e-22 4.10349e-05)
(3.27889e-05 -3.90312e-06 -1.62946e-21 3.72708e-05 -1.37034e-22 3.51615e-05)
(2.86471e-05 -3.62263e-06 -5.99691e-22 3.12463e-05 -2.62201e-22 3.01014e-05)
(2.51352e-05 -3.25651e-06 1.34255e-20 2.6171e-05 8.49232e-23 2.58346e-05)
(2.23005e-05 -2.84739e-06 2.74464e-22 2.20545e-05 -2.02624e-23 2.23942e-05)
(2.01543e-05 -2.42585e-06 8.82262e-20 1.88886e-05 7.73483e-21 1.97675e-05)
(1.87089e-05 -2.01158e-06 -1.40924e-19 1.66199e-05 -1.04531e-20 1.79256e-05)
(1.79795e-05 -1.61656e-06 8.03889e-21 1.51954e-05 5.96602e-21 1.68585e-05)
(0.000346324 5.30683e-06 -5.78949e-20 0.000268239 -5.22694e-21 0.000307249)
(0.00033334 1.30131e-05 8.28511e-20 0.000261628 6.42287e-20 0.000297442)
(0.000317881 1.98293e-05 5.10743e-20 0.000255911 6.54836e-21 0.000286897)
(0.000300061 2.50487e-05 3.64985e-20 0.000250347 -7.14966e-21 0.000275199)
(0.000280515 2.83563e-05 -5.801e-20 0.000244286 -2.47653e-20 0.000262387)
(0.000260038 2.98252e-05 -3.61576e-20 0.00023742 -6.45434e-21 0.000248732)
(0.000239299 2.96359e-05 -7.30549e-20 0.000229346 -2.24643e-20 0.000234324)
(0.000218924 2.81378e-05 -7.49118e-20 0.000219945 4.33197e-21 0.000219436)
(0.000199245 2.57131e-05 -3.61117e-20 0.000209264 -1.18139e-20 0.000204264)
(0.000180456 2.26995e-05 1.10983e-20 0.000197422 6.83475e-22 0.000188954)
(0.00016279 1.94082e-05 -6.98936e-21 0.000184689 1.79883e-21 0.000173753)
(0.000146382 1.60757e-05 -1.9185e-20 0.000171443 7.71602e-21 0.000158927)
(0.000131319 1.28813e-05 2.11778e-20 0.000158034 4.07465e-21 0.000144689)
(0.000117672 9.93977e-06 -2.59423e-20 0.000144849 -6.93172e-21 0.000131268)
(0.000105438 7.30976e-06 -2.65459e-21 0.000132181 -6.32983e-21 0.000118812)
(9.45583e-05 4.99174e-06 8.3284e-21 0.000120237 -5.93111e-21 0.000107395)
(8.49175e-05 2.96376e-06 2.53638e-20 0.000109085 -1.06988e-20 9.69929e-05)
(7.63258e-05 1.18664e-06 -1.08339e-20 9.86428e-05 5.36452e-22 8.74699e-05)
(6.85374e-05 -3.65024e-07 -6.26705e-21 8.8692e-05 1.16232e-20 7.85956e-05)
(6.12721e-05 -1.68511e-06 -6.77609e-21 7.89389e-05 1.07599e-20 7.00846e-05)
(5.43261e-05 -2.70332e-06 2.49344e-20 6.92247e-05 3.18958e-21 6.1757e-05)
(4.77866e-05 -3.35771e-06 -3.34976e-22 5.98519e-05 3.00289e-21 5.37955e-05)
(4.18687e-05 -3.68619e-06 8.54025e-21 5.12706e-05 1.27576e-21 4.65321e-05)
(3.66606e-05 -3.7737e-06 -1.14584e-21 4.3677e-05 1.3569e-22 4.01209e-05)
(3.20901e-05 -3.68383e-06 -9.15647e-22 3.70189e-05 2.83193e-23 3.44992e-05)
(2.80611e-05 -3.45897e-06 -3.32048e-21 3.12115e-05 -1.2708e-22 2.95703e-05)
(2.45379e-05 -3.143e-06 -1.39912e-20 2.62221e-05 -7.5106e-22 2.52995e-05)
(2.15111e-05 -2.7772e-06 -3.75017e-20 2.20198e-05 -2.36461e-21 2.16668e-05)
(1.89558e-05 -2.38942e-06 2.63589e-21 1.85255e-05 -2.43968e-22 1.86264e-05)
(1.69595e-05 -2.00275e-06 1.27519e-19 1.5749e-05 1.60163e-20 1.62271e-05)
(1.55306e-05 -1.60796e-06 9.18063e-20 1.36481e-05 3.27913e-21 1.44645e-05)
(0.000284084 1.03232e-05 -7.65703e-20 0.000222496 -4.19565e-20 0.000253263)
(0.000271792 1.61941e-05 -5.81852e-20 0.000217985 -9.64089e-21 0.000244896)
(0.000257595 2.07864e-05 4.35627e-20 0.000213727 3.49147e-20 0.000235658)
(0.000242119 2.38361e-05 7.12165e-20 0.000209285 1.62132e-20 0.000225688)
(0.000225903 2.53976e-05 1.18458e-20 0.000204355 -1.14503e-21 0.000215131)
(0.000209445 2.55909e-05 5.30421e-20 0.000198565 3.54361e-20 0.000204006)
(0.000193202 2.46759e-05 6.84622e-20 0.000191773 2.69038e-20 0.000192485)
(0.000177398 2.29392e-05 -2.48743e-20 0.00018395 -7.29037e-21 0.000180677)
(0.000162157 2.06357e-05 1.50753e-20 0.000175112 -2.85667e-23 0.000168643)
(0.000147632 1.80037e-05 -5.11295e-21 0.000165388 2.40313e-21 0.000156518)
(0.000133928 1.52328e-05 3.78286e-20 0.000155033 1.84441e-21 0.00014449)
(0.000121135 1.24817e-05 -1.39522e-20 0.00014428 -1.67075e-22 0.000132717)
(0.000109323 9.8608e-06 -3.67028e-20 0.000133414 1.39214e-20 0.000121378)
(9.85406e-05 7.4432e-06 -1.37749e-20 0.000122699 1.30403e-21 0.000110627)
(8.87714e-05 5.25708e-06 -3.21942e-20 0.000112325 5.20639e-21 0.000100553)
(7.99508e-05 3.30535e-06 -3.42102e-20 0.000102385 -3.84805e-22 9.1171e-05)
(7.19642e-05 1.57205e-06 -3.69542e-20 9.28728e-05 7.1211e-21 8.24213e-05)
(6.46484e-05 4.78783e-08 6.04773e-20 8.36743e-05 -6.15315e-21 7.41652e-05)
(5.78122e-05 -1.25478e-06 4.69192e-20 7.46139e-05 -1.53734e-21 6.62206e-05)
(5.13208e-05 -2.27963e-06 7.98569e-21 6.56133e-05 -5.33391e-21 5.84821e-05)
(4.52305e-05 -2.97392e-06 3.10943e-20 5.69083e-05 -3.25723e-21 5.10882e-05)
(3.96945e-05 -3.35881e-06 7.08494e-21 4.88593e-05 -1.67673e-21 4.42936e-05)
(3.4792e-05 -3.50271e-06 2.07473e-21 4.16617e-05 3.50178e-22 3.82447e-05)
(3.04794e-05 -3.46392e-06 -1.56114e-22 3.53077e-05 1.21551e-22 3.2917e-05)
(2.66876e-05 -3.28386e-06 -1.9029e-22 2.97476e-05 1.61615e-22 2.8247e-05)
(2.33938e-05 -3.00391e-06 6.99848e-21 2.49682e-05 6.8456e-22 2.42157e-05)
(2.06125e-05 -2.66475e-06 1.00433e-20 2.09635e-05 1.23699e-21 2.08308e-05)
(1.8357e-05 -2.29585e-06 2.03754e-20 1.77191e-05 1.56367e-21 1.80879e-05)
(1.66946e-05 -1.92019e-06 4.53234e-20 1.52412e-05 -6.69309e-22 1.60188e-05)
(1.5599e-05 -1.53048e-06 -1.62055e-19 1.34621e-05 -2.05053e-20 1.45857e-05)
(0.000233668 1.33242e-05 1.86183e-20 0.000186798 1.00941e-20 0.000210241)
(0.000222232 1.73651e-05 2.68273e-20 0.000183494 -1.49349e-20 0.000202861)
(0.000209858 2.01476e-05 -9.13772e-20 0.000180218 -4.69007e-20 0.000195027)
(0.000196891 2.17125e-05 -7.47666e-20 0.000176663 -3.57285e-22 0.000186776)
(0.000183713 2.2144e-05 1.42467e-20 0.000172507 -1.6102e-21 0.000178108)
(0.000170683 2.16376e-05 6.4268e-20 0.000167603 -1.09493e-20 0.000169139)
(0.000157941 2.04141e-05 -1.80799e-20 0.000161879 4.32312e-21 0.000159911)
(0.000145537 1.86648e-05 -1.00822e-20 0.000155288 -8.3911e-22 0.000150418)
(0.000133597 1.65749e-05 -2.55868e-21 0.0001479 -4.22957e-21 0.000140751)
(0.000122185 1.42943e-05 -1.31577e-20 0.000139856 -2.77032e-22 0.000131027)
(0.000111364 1.19519e-05 2.88e-20 0.000131295 3.52739e-21 0.000121336)
(0.000101208 9.64834e-06 5.62807e-20 0.000122431 1.37097e-20 0.000111825)
(9.17682e-05 7.45971e-06 8.61554e-21 0.000113453 4.08925e-21 0.000102616)
(8.30705e-05 5.42845e-06 4.00365e-20 0.000104546 4.41266e-21 9.38116e-05)
(7.50984e-05 3.57742e-06 1.72207e-20 9.58202e-05 4.9905e-21 8.54601e-05)
(6.77837e-05 1.90862e-06 2.82686e-20 8.73062e-05 1.86645e-21 7.75429e-05)
(6.1013e-05 4.27188e-07 -3.98419e-20 7.89441e-05 -7.29327e-21 6.99751e-05)
(5.46626e-05 -8.50238e-07 -6.21031e-21 7.06455e-05 -9.80215e-21 6.26518e-05)
(4.86607e-05 -1.87447e-06 -2.39069e-20 6.24057e-05 -1.45997e-22 5.55339e-05)
(4.3039e-05 -2.59834e-06 -3.33963e-20 5.44086e-05 -2.21459e-22 4.8725e-05)
(3.79082e-05 -3.03272e-06 -1.52695e-20 4.69478e-05 -4.78414e-22 4.24246e-05)
(3.33312e-05 -3.23003e-06 3.57459e-21 4.02068e-05 -3.35922e-22 3.67617e-05)
(2.92785e-05 -3.24277e-06 1.75522e-21 3.42062e-05 -6.43634e-23 3.1734e-05)
(2.56939e-05 -3.11073e-06 1.75619e-21 2.89184e-05 4.36477e-22 2.72959e-05)
(2.25512e-05 -2.87311e-06 -2.19557e-22 2.43332e-05 -3.80039e-22 2.34284e-05)
(1.98572e-05 -2.56915e-06 -2.34057e-21 2.04484e-05 8.86007e-22 2.01346e-05)
(1.76097e-05 -2.22752e-06 -2.70439e-21 1.72316e-05 -3.45503e-21 1.73985e-05)
(1.58752e-05 -1.86953e-06 -7.92361e-20 1.46897e-05 -4.10725e-21 1.52546e-05)
(1.46797e-05 -1.49268e-06 7.75451e-21 1.28023e-05 9.32759e-21 1.37166e-05)
(0.000192564 1.45906e-05 -1.02943e-19 0.000158315 -4.36416e-20 0.000175438)
(0.000182556 1.71148e-05 2.17221e-20 0.000155875 3.10251e-20 0.000169207)
(0.000172115 1.86324e-05 5.54768e-20 0.000153322 9.28958e-21 0.000162718)
(0.000161477 1.92025e-05 -6.76368e-20 0.000150334 -2.75618e-20 0.000155904)
(0.000150949 1.89789e-05 -6.67638e-20 0.000146792 -6.5353e-21 0.000148867)
(0.000140618 1.8135e-05 3.83608e-20 0.000142611 9.01871e-21 0.000141614)
(0.000130509 1.68185e-05 1.99364e-20 0.000137724 -4.75797e-22 0.000134119)
(0.000120684 1.51695e-05 -3.43039e-20 0.000132122 -1.7099e-21 0.000126404)
(0.000111182 1.33045e-05 2.98561e-20 0.000125897 1.19386e-21 0.000118543)
(0.000102054 1.13289e-05 -2.0921e-20 0.000119123 -9.83142e-21 0.000110593)
(9.33596e-05 9.32881e-06 5.08999e-20 0.00011194 -9.9534e-21 0.000102654)
(8.51459e-05 7.37449e-06 2.07059e-20 0.000104485 -3.67666e-21 9.48197e-05)
(7.74475e-05 5.51311e-06 -2.38283e-21 9.69018e-05 -8.133e-21 8.71779e-05)
(7.02762e-05 3.77962e-06 7.84931e-21 8.92954e-05 -3.53307e-21 7.97876e-05)
(6.36e-05 2.1909e-06 -7.68696e-21 8.17156e-05 -4.91798e-21 7.26583e-05)
(5.73559e-05 7.63959e-07 -2.43599e-21 7.41542e-05 5.23026e-21 6.57553e-05)
(5.14767e-05 -4.79394e-07 -4.85483e-20 6.65902e-05 5.51276e-21 5.90349e-05)
(4.59251e-05 -1.49552e-06 4.61081e-22 5.90547e-05 3.11915e-21 5.24943e-05)
(4.07306e-05 -2.24023e-06 2.30751e-20 5.17099e-05 3.45567e-21 4.62266e-05)
(3.59699e-05 -2.7152e-06 2.94426e-22 4.47937e-05 1.51213e-21 4.03864e-05)
(3.16958e-05 -2.9599e-06 -4.26747e-21 3.8479e-05 -9.82278e-23 3.50906e-05)
(2.7892e-05 -3.01971e-06 -2.36182e-21 3.281e-05 -9.15215e-23 3.03552e-05)
(2.45166e-05 -2.93183e-06 7.56183e-21 2.7781e-05 -4.55184e-24 2.61543e-05)
(2.15508e-05 -2.73285e-06 -5.12816e-21 2.33952e-05 -5.12764e-22 2.24791e-05)
(1.90075e-05 -2.46026e-06 3.76749e-20 1.96631e-05 4.54683e-21 1.93425e-05)
(1.6897e-05 -2.1426e-06 -8.76481e-20 1.65734e-05 -7.55968e-21 1.67439e-05)
(1.52795e-05 -1.80066e-06 1.30574e-19 1.41386e-05 1.03039e-20 1.47157e-05)
(1.41799e-05 -1.43435e-06 6.22389e-20 1.23418e-05 9.47666e-21 1.32711e-05)
(0.000159336 1.46031e-05 5.73301e-21 0.000135354 3.80002e-21 0.000147338)
(0.000150828 1.60427e-05 -3.60182e-20 0.000133504 -1.45896e-20 0.000142165)
(0.000142196 1.6688e-05 4.56253e-21 0.000131379 2.0973e-20 0.000136784)
(0.000133633 1.6658e-05 3.71227e-20 0.00012883 8.04301e-21 0.000131226)
(0.00012522 1.60935e-05 -4.20175e-20 0.000125786 -1.24002e-20 0.000125502)
(0.000116948 1.51101e-05 7.82137e-21 0.000122165 7.44427e-22 0.000119558)