/*--------------------------------*- C++ -*----------------------------------*\
| =========                 |                                                 |
| \\      /  F ield         | OpenFOAM: The Open Source CFD Toolbox           |
|  \\    /   O peration     | Version:  2306                                  |
|   \\  /    A nd           | Website:  www.openfoam.com                      |
|    \\/     M anipulation  |                                                 |
\*---------------------------------------------------------------------------*/
FoamFile
{
    version     2.0;
    format      ascii;
    arch        "LSB;label=32;scalar=64";
    class       volScalarField;
    location    "175";
    object      turbulenceProperties:k;
}
// * * * * * * * * * * * * * * * * * * * * * * * * * * * * * * * * * * * * * //

dimensions      [0 2 -2 0 0 0 0];

internalField   nonuniform List<scalar> 
1340
(
0.00278955
0.00306233
0.0042174
0.00626622
0.00936837
0.0138632
0.0202732
0.0292784
0.0419829
0.0602801
0.0876587
0.130542
0.200406
0.32055
0.532526
0.939627
1.71785
3.43391
7.00069
15.7284
32.0622
44.9852
50.4457
51.9776
52.2183
51.9065
51.1641
50.0287
0.00213898
0.00188905
0.00164979
0.00141084
0.00118638
0.000992761
0.000828663
0.000688895
0.00057022
0.000470267
0.000385519
0.000313847
0.00025101
0.000193567
0.000136583
8.07203e-05
2.81919e-05
4.60349e-06
1.84487e-05
0.00170251
0.0092894
0.073216
0.240846
0.465026
0.689537
0.885491
1.04943
1.19313
1.32734
0.00170639
0.00153526
0.00137609
0.00120863
0.00102957
0.000857127
0.000702827
0.000569764
0.000460013
0.000371661
0.000303045
0.000251179
0.000213615
0.00018678
0.000168423
0.000156671
0.00015042
0.000147287
0.000147562
0.000146887
0.000155996
9.10857e-05
0.000697183
0.00438782
0.0122529
0.0257054
0.0576139
0.119537
0.210216
0.00144182
0.00133947
0.00123148
0.00111751
0.000993225
0.000865972
0.000747164
0.00064208
0.00055128
0.000474502
0.00041015
0.000357214
0.000314073
0.000279468
0.000251294
0.000228398
0.000209149
0.000191869
0.000173634
0.000154856
0.000139274
0.000127481
0.000119196
0.000107997
9.70508e-05
6.53338e-05
4.33457e-05
0.000354052
0.000595246
0.0023514
0.00114637
0.0010762
0.00100114
0.000920547
0.000832007
0.000740202
0.000650507
0.000566161
0.000488594
0.000418959
0.000357778
0.000305214
0.00026103
0.000224717
0.000195169
0.000171376
0.000152036
0.000135752
0.00012023
0.000104419
8.97963e-05
7.82358e-05
7.0299e-05
6.70087e-05
6.17242e-05
7.68141e-05
1.52764e-05
0.000123218
1.8326e-11
0.00136317
0.000969633
0.000926117
0.00087647
0.000823035
0.000764482
0.000699952
0.000632531
0.000565504
0.000501345
0.000441506
0.000387071
0.000338764
0.000296802
0.00026105
0.00023109
0.000206148
0.000185343
0.000167558
0.000151553
0.000135588
0.000118945
0.000103062
8.91942e-05
7.75851e-05
6.78532e-05
5.9736e-05
5.28168e-05
4.62499e-05
3.6968e-05
2.24896e-05
1.43054e-06
0.000791293
0.00075911
0.00072325
0.000684004
0.000640567
0.000593103
0.000543262
0.000492885
0.000443481
0.00039607
0.000351565
0.000310698
0.000273875
0.000241332
0.000213073
0.000188771
0.000167957
0.000149932
0.000133794
0.00011828
0.000102715
8.79382e-05
7.49446e-05
6.40194e-05
5.49367e-05
4.75825e-05
4.20955e-05
3.85347e-05
3.65114e-05
3.3844e-05
3.06615e-05
0.00065429
0.000629774
0.000603115
0.000573663
0.000540954
0.000505546
0.000468186
0.000430023
0.000391993
0.000354792
0.00031916
0.000285801
0.00025515
0.000227572
0.000203202
0.000181901
0.000163321
0.000146934
0.000132013
0.000117605
0.000103202
8.94249e-05
7.70489e-05
6.62958e-05
5.69412e-05
4.8779e-05
4.17533e-05
3.57254e-05
3.05529e-05
2.61499e-05
2.30161e-05
0.000562543
0.000546715
0.00052784
0.000507505
0.000484967
0.000460031
0.000433254
0.000404989
0.000375889
0.000346519
0.000317306
0.00028876
0.000261413
0.000235689
0.000211924
0.000190336
0.000170957
0.000153638
0.000138044
0.000123671
0.000109877
9.63047e-05
8.33488e-05
7.16457e-05
6.14429e-05
5.26106e-05
4.49974e-05
3.85704e-05
3.33746e-05
2.94052e-05
2.66272e-05
2.50167e-05
0.000460906
0.000446205
0.000430345
0.000412803
0.000393594
0.000373095
0.000351485
0.000329153
0.000306387
0.000283416
0.000260616
0.000238376
0.00021702
0.000196894
0.000178215
0.000161095
0.000145498
0.000131219
0.000117913
0.000105148
9.26539e-05
8.0717e-05
6.98357e-05
6.02293e-05
5.18041e-05
4.44214e-05
3.80298e-05
3.25989e-05
2.80538e-05
2.44678e-05
2.18216e-05
0.000379922
0.000367336
0.00035349
0.000338546
0.000322694
0.000306008
0.00028873
0.000271013
0.000252956
0.000234769
0.000216726
0.000199066
0.000182058
0.000165933
0.000150824
0.000136753
0.000123629
0.000111244
9.93233e-05
8.77081e-05
7.66135e-05
6.64237e-05
5.73492e-05
4.93521e-05
4.23411e-05
3.62888e-05
3.12034e-05
2.7082e-05
2.39773e-05
2.18234e-05
0.000315354
0.000304294
0.000292552
0.000280165
0.000267164
0.000253713
0.000239865
0.000225621
0.000211124
0.000196534
0.000181998
0.000167732
0.000153919
0.000140714
0.000128189
0.000116316
0.000104966
9.398e-05
8.33001e-05
7.30863e-05
6.36403e-05
5.51499e-05
4.76094e-05
4.09541e-05
3.51564e-05
3.02201e-05
2.61199e-05
2.29098e-05
2.05993e-05
0.000263158
0.00025382
0.000244078
0.000233858
0.000223304
0.000212422
0.000201176
0.000189605
0.000177811
0.000165885
0.000153977
0.000142225
0.000130764
0.00011968
0.000108987
9.86328e-05
8.85509e-05
7.87371e-05
6.93335e-05
6.0575e-05
5.26327e-05
4.55286e-05
3.92259e-05
3.37126e-05
2.90065e-05
2.51072e-05
2.20669e-05
1.98964e-05
0.000221014
0.000213248
0.000205179
0.000196845
0.000188254
0.000179336
0.000170101
0.00016058
0.000150813
0.000140907
0.000130963
0.000121085
0.000111349
0.000101801
9.2436e-05
8.32575e-05
7.42985e-05
6.5682e-05
5.76042e-05
5.02148e-05
4.35535e-05
3.76069e-05
3.23722e-05
2.78716e-05
2.41035e-05
2.11193e-05
1.89403e-05
0.00018681
0.000180409
0.000173769
0.000166946
0.000159854
0.000152461
0.000144776
0.000136798
0.000128581
0.000120196
0.000111721
0.000103232
9.47764e-05
8.63738e-05
7.80523e-05
6.98921e-05
6.20188e-05
5.45893e-05
4.77333e-05
4.15036e-05
3.5906e-05
3.09483e-05
2.66601e-05
2.30494e-05
2.017e-05
1.80425e-05
0.000164058
0.000158888
0.000153611
0.00014816
0.000142487
0.000136558
0.000130337
0.000123819
0.00011702
0.00010998
0.000102752
9.539e-05
8.79459e-05
8.04507e-05
7.29636e-05
6.5576e-05
5.84113e-05
5.16019e-05
4.52646e-05
3.94594e-05
3.42068e-05
2.95235e-05
2.54437e-05
2.19798e-05
1.91855e-05
1.70844e-05
0.000140179
0.000135954
0.000131564
0.000127009
0.000122234
0.000117198
0.00011187
0.000106256
0.000100364
9.42261e-05
8.78798e-05
8.13628e-05
7.47153e-05
6.80099e-05
6.13515e-05
5.48516e-05
4.8632e-05
4.27949e-05
3.7403e-05
3.24886e-05
2.80759e-05
2.42029e-05
2.08879e-05
1.81857e-05
1.61211e-05
0.000123876
0.000120436
0.000116905
0.000113221
0.000109358
0.000105269
0.000100914
9.62817e-05
9.13629e-05
8.61664e-05
8.07189e-05
7.50515e-05
6.91964e-05
6.32198e-05
5.72333e-05
5.13602e-05
4.57014e-05
4.03454e-05
3.53555e-05
3.0772e-05
2.66254e-05
2.29561e-05
1.97874e-05
1.7174e-05
1.51421e-05
0.000106791
0.000103936
0.000100935
9.77989e-05
9.44741e-05
9.09116e-05
8.70875e-05
8.29851e-05
7.86015e-05
7.39416e-05
6.90262e-05
6.38853e-05
5.85893e-05
5.32429e-05
4.7957e-05
4.28246e-05
3.79255e-05
3.33221e-05
2.90593e-05
2.51723e-05
2.17027e-05
1.86789e-05
1.61546e-05
1.41572e-05
9.47805e-05
9.24465e-05
9.00025e-05
8.74461e-05
8.47298e-05
8.18069e-05
7.8647e-05
7.52242e-05
7.15277e-05
6.75563e-05
6.33157e-05
5.88248e-05
5.41497e-05
4.9391e-05
4.46489e-05
4.00095e-05
3.55438e-05
3.13111e-05
2.73582e-05
2.37237e-05
2.0449e-05
1.75677e-05
1.51309e-05
1.31682e-05
8.41922e-05
8.22603e-05
8.02739e-05
7.81725e-05
7.594e-05
7.35325e-05
7.09173e-05
6.80643e-05
6.49532e-05
6.1572e-05
5.79243e-05
5.40206e-05
4.99121e-05
4.56878e-05
4.14473e-05
3.72683e-05
3.32111e-05
2.9331e-05
2.56751e-05
2.22839e-05
1.91985e-05
1.64564e-05
1.41053e-05
1.21784e-05
7.32334e-05
7.16052e-05
6.98634e-05
6.80233e-05
6.60363e-05
6.38659e-05
6.1483e-05
5.8865e-05
5.59953e-05
5.28647e-05
4.94783e-05
4.58785e-05
4.2146e-05
3.83685e-05
3.46143e-05
3.09385e-05
2.73908e-05
2.40178e-05
2.08604e-05
1.79588e-05
1.53521e-05
1.30849e-05
1.1194e-05
6.52354e-05
6.38658e-05
6.24378e-05
6.09081e-05
5.92561e-05
5.74493e-05
5.54559e-05
5.32523e-05
5.08189e-05
4.81395e-05
4.52107e-05
4.20668e-05
3.8777e-05
3.54211e-05
3.20565e-05
2.87349e-05
2.55003e-05
2.23966e-05
1.94636e-05
1.67396e-05
1.42642e-05
1.20792e-05
1.02249e-05
5.69781e-05
5.57942e-05
5.45094e-05
5.3132e-05
5.16256e-05
4.99579e-05
4.81043e-05
4.6042e-05
4.37506e-05
4.12213e-05
3.84797e-05
3.55858e-05
3.2609e-05
2.96041e-05
2.66105e-05
2.3669e-05
2.08202e-05
1.81011e-05
1.55481e-05
1.32005e-05
1.10964e-05
9.27864e-06
5.08436e-05
4.98448e-05
4.8771e-05
4.762e-05
4.63601e-05
4.49612e-05
4.33958e-05
4.16433e-05
3.96822e-05
3.75009e-05
3.51159e-05
3.2578e-05
2.99446e-05
2.7266e-05
2.4574e-05
2.19052e-05
1.92952e-05
1.6779e-05
1.43901e-05
1.21661e-05
1.01413e-05
8.35986e-06
4.53787e-05
4.45287e-05
4.36366e-05
4.26653e-05
4.16017e-05
4.04204e-05
3.90956e-05
3.76056e-05
3.5928e-05
3.40478e-05
3.19758e-05
2.97531e-05
2.74301e-05
2.50462e-05
2.26309e-05
2.02143e-05
1.78277e-05
1.55038e-05
1.3272e-05
1.1167e-05
9.22033e-06
7.4755e-06
3.97843e-05
3.90345e-05
3.82035e-05
3.73035e-05
3.63039e-05
3.51814e-05
3.39155e-05
3.24823e-05
3.0863e-05
2.9065e-05
2.712e-05
2.50718e-05
2.29536e-05
2.07896e-05
1.86048e-05
1.6427e-05
1.42841e-05
1.22027e-05
1.02134e-05
8.34424e-06
6.63607e-06
3.55509e-05
3.49044e-05
3.41994e-05
3.34355e-05
3.25885e-05
3.16361e-05
3.05569e-05
2.93293e-05
2.79333e-05
2.6372e-05
2.46713e-05
2.28673e-05
2.09876e-05
1.90521e-05
1.70811e-05
1.50981e-05
1.31265e-05
1.11895e-05
9.31373e-06
7.52235e-06
5.85174e-06
3.177e-05
3.12091e-05
3.06172e-05
2.99628e-05
2.92392e-05
2.84268e-05
2.75046e-05
2.64507e-05
2.52462e-05
2.38905e-05
2.24035e-05
2.08167e-05
1.91512e-05
1.74231e-05
1.56484e-05
1.38461e-05
1.20365e-05
1.0238e-05
8.47362e-06
6.7612e-06
5.13062e-06
2.79098e-05
2.74069e-05
2.68408e-05
2.62212e-05
2.55267e-05
2.47371e-05
2.38311e-05
2.27905e-05
2.1613e-05
2.03142e-05
1.89186e-05
1.74448e-05
1.59039e-05
1.43088e-05
1.26744e-05
1.10172e-05
9.35222e-06
7.69777e-06
6.06715e-06
4.4812e-06
2.4968e-05
2.4522e-05
2.40439e-05
2.35108e-05
2.29139e-05
2.22349e-05
2.14542e-05
2.05537e-05
1.95298e-05
1.83955e-05
1.71697e-05
1.5867e-05
1.44953e-05
1.30643e-05
1.15856e-05
1.00721e-05
8.53612e-06
6.99114e-06
5.44627e-06
3.91244e-06
2.19483e-05
2.15406e-05
2.10752e-05
2.05604e-05
1.99756e-05
1.9302e-05
1.85229e-05
1.76335e-05
1.66428e-05
1.55668e-05
1.44161e-05
1.31966e-05
1.19153e-05
1.05811e-05
9.20368e-06
7.79224e-06
6.35719e-06
4.90385e-06
3.43416e-06
1.96507e-05
1.92915e-05
1.88905e-05
1.84467e-05
1.79424e-05
1.73616e-05
1.66873e-05
1.59137e-05
1.50479e-05
1.41028e-05
1.30871e-05
1.20048e-05
1.08605e-05
9.6604e-06
8.41193e-06
7.12182e-06
5.79799e-06
4.44388e-06
3.05503e-06
1.75966e-05
1.72803e-05
1.69392e-05
1.65543e-05
1.61185e-05
1.56154e-05
1.50292e-05
1.43547e-05
1.35979e-05
1.2769e-05
1.18745e-05
1.09163e-05
9.8974e-06
8.82191e-06
7.69574e-06
6.52392e-06
5.31258e-06
4.06547e-06
2.77742e-06
1.54876e-05
1.5195e-05
1.48568e-05
1.44784e-05
1.4042e-05
1.35332e-05
1.29463e-05
1.22858e-05
1.15601e-05
1.07737e-05
9.92744e-06
9.02307e-06
8.06358e-06
7.05296e-06
5.99588e-06
4.89786e-06
3.76439e-06
2.59628e-06
1.38885e-05
1.3629e-05
1.33365e-05
1.30089e-05
1.26309e-05
1.21898e-05
1.16797e-05
1.11037e-05
1.04687e-05
9.77829e-06
9.03261e-06
8.23278e-06
7.38053e-06
6.47923e-06
5.53309e-06
4.54819e-06
3.53297e-06
2.49837e-06
1.24592e-05
1.22303e-05
1.19811e-05
1.16959e-05
1.13681e-05
1.09853e-05
1.0541e-05
1.00386e-05
9.48358e-06
8.87888e-06
8.2243e-06
7.52011e-06
6.7674e-06
5.9693e-06
5.12977e-06
4.25604e-06
3.3602e-06
2.46322e-06
1.0985e-05
1.0771e-05
1.05207e-05
1.0236e-05
9.90344e-06
9.51715e-06
9.07985e-06
8.59663e-06
8.06927e-06
7.49716e-06
6.88017e-06
6.21946e-06
5.51759e-06
4.77919e-06
4.01251e-06
3.23274e-06
2.46828e-06
9.87491e-06
9.6855e-06
9.46941e-06
9.22305e-06
8.93497e-06
8.60048e-06
8.22128e-06
7.80155e-06
7.34286e-06
6.84456e-06
6.30655e-06
5.72995e-06
5.11721e-06
4.47336e-06
3.8078e-06
3.13683e-06
8.88276e-06
8.71621e-06
8.53284e-06
8.31925e-06
8.06991e-06
7.78035e-06
7.45174e-06
7.08775e-06
6.69e-06
6.25793e-06
5.79139e-06
5.29141e-06
4.76065e-06
4.20422e-06
3.63192e-06
3.06052e-06
7.85352e-06
7.697e-06
7.51043e-06
7.29482e-06
7.04447e-06
6.76044e-06
6.4463e-06
6.1032e-06
5.73065e-06
5.32857e-06
4.89803e-06
4.44167e-06
3.96469e-06
3.4767e-06
2.99378e-06
7.08418e-06
6.94636e-06
6.78643e-06
6.60102e-06
6.38548e-06
6.14137e-06
5.87157e-06
5.57694e-06
5.25728e-06
4.91262e-06
4.54411e-06
4.15435e-06
3.74836e-06
3.33517e-06
2.92925e-06
6.39524e-06
6.27529e-06
6.14074e-06
5.981e-06
5.79589e-06
5.58676e-06
5.35561e-06
5.10347e-06
4.83031e-06
4.5364e-06
4.22283e-06
3.89212e-06
3.54886e-06
3.20111e-06
2.86128e-06
5.67683e-06
5.56278e-06
5.4249e-06
5.26653e-06
5.08766e-06
4.89032e-06
4.6756e-06
4.44356e-06
4.19448e-06
3.92939e-06
3.65058e-06
3.36209e-06
3.07086e-06
2.78713e-06
5.14152e-06
5.04247e-06
4.92565e-06
4.7908e-06
4.63858e-06
4.4712e-06
4.28949e-06
4.09351e-06
3.88357e-06
3.66064e-06
3.42676e-06
3.18542e-06
2.94235e-06
2.7058e-06
4.6608e-06
4.57549e-06
4.47823e-06
4.36357e-06
4.23462e-06
4.09332e-06
3.94011e-06
3.77513e-06
3.59886e-06
3.41216e-06
3.2168e-06
3.01566e-06
2.81339e-06
2.61633e-06
4.15735e-06
4.07593e-06
3.97837e-06
3.86965e-06
3.75067e-06
3.62188e-06
3.48358e-06
3.33624e-06
3.18063e-06
3.01816e-06
2.85116e-06
2.68326e-06
2.51924e-06
3.78177e-06
3.71194e-06
3.63025e-06
3.53906e-06
3.43924e-06
3.33152e-06
3.21623e-06
3.09375e-06
2.96468e-06
2.8301e-06
2.69186e-06
2.55272e-06
2.41622e-06
3.44224e-06
3.38374e-06
3.3156e-06
3.23932e-06
3.15604e-06
3.06654e-06
2.97098e-06
2.86961e-06
2.76289e-06
2.65171e-06
2.53747e-06
2.42228e-06
2.30862e-06
3.13614e-06
3.08663e-06
3.03106e-06
2.96737e-06
2.89816e-06
2.8241e-06
2.7451e-06
2.66133e-06
2.57323e-06
2.48153e-06
2.38724e-06
2.29191e-06
2.19724e-06
2.81838e-06
2.77264e-06
2.71946e-06
2.66218e-06
2.60097e-06
2.53569e-06
2.46658e-06
2.39401e-06
2.31851e-06
2.24079e-06
2.16196e-06
2.08308e-06
2.57504e-06
2.53635e-06
2.49261e-06
2.4454e-06
2.39479e-06
2.34095e-06
2.28409e-06
2.22446e-06
2.16243e-06
2.09845e-06
2.03339e-06
1.96764e-06
2.35253e-06
2.32054e-06
2.28454e-06
2.24549e-06
2.20374e-06
2.15951e-06
2.11285e-06
2.06392e-06
2.01297e-06
1.96035e-06
1.90651e-06
2.14908e-06
2.12208e-06
2.093e-06
2.0606e-06
2.02614e-06
1.98978e-06
1.95147e-06
1.91126e-06
1.86936e-06
1.82602e-06
1.78141e-06
1.93956e-06
1.91557e-06
1.88856e-06
1.86011e-06
1.83014e-06
1.79857e-06
1.76548e-06
1.73099e-06
1.6953e-06
1.65842e-06
1.77084e-06
1.75028e-06
1.72803e-06
1.70458e-06
1.67982e-06
1.65378e-06
1.62655e-06
1.59823e-06
1.56889e-06
1.53844e-06
1.61417e-06
1.59706e-06
1.57863e-06
1.55924e-06
1.5388e-06
1.51739e-06
1.49508e-06
1.47188e-06
1.44779e-06
1.42272e-06
1.46963e-06
1.45542e-06
1.44027e-06
1.42429e-06
1.40752e-06
1.39005e-06
1.37186e-06
1.35292e-06
1.33321e-06
1.31262e-06
1.33729e-06
1.32537e-06
1.31336e-06
1.30022e-06
1.28652e-06
1.27233e-06
1.25754e-06
1.2421e-06
1.22599e-06
1.20909e-06
1.20713e-06
1.1974e-06
1.18661e-06
1.17546e-06
1.1639e-06
1.15181e-06
1.13917e-06
1.12596e-06
1.11202e-06
1.09944e-06
1.09108e-06
1.08226e-06
1.07309e-06
1.06351e-06
1.05349e-06
1.04304e-06
1.03215e-06
1.02058e-06
1.00008e-06
9.92893e-07
9.85356e-07
9.77534e-07
9.69374e-07
9.60903e-07
9.5211e-07
9.42983e-07
9.07199e-07
9.00709e-07
8.93954e-07
8.8701e-07
8.79856e-07
8.72516e-07
8.65002e-07
8.5724e-07
8.19443e-07
8.13314e-07
8.0708e-07
8.00732e-07
7.94309e-07
7.87844e-07
7.8133e-07
7.7471e-07
7.36765e-07
7.30784e-07
7.25107e-07
7.19202e-07
7.13357e-07
7.07604e-07
7.01915e-07
6.96244e-07
6.5417e-07
6.4879e-07
6.43272e-07
6.37932e-07
6.32753e-07
6.2773e-07
6.228e-07
5.85251e-07
5.79994e-07
5.74867e-07
5.69935e-07
5.65205e-07
5.60679e-07
5.56315e-07
5.28418e-07
5.23361e-07
5.18449e-07
5.13738e-07
5.09254e-07
5.04982e-07
5.00944e-07
4.8329e-07
4.78411e-07
4.73687e-07
4.69144e-07
4.64775e-07
4.60623e-07
4.56724e-07
4.4297e-07
4.38362e-07
4.33874e-07
4.29516e-07
4.25281e-07
4.21252e-07
4.17426e-07
4.04352e-07
3.99902e-07
3.95534e-07
3.91241e-07
3.87078e-07
3.83151e-07
3.79376e-07
3.68375e-07
3.63842e-07
3.59259e-07
3.54658e-07
3.5015e-07
3.45839e-07
3.33228e-07
3.28333e-07
3.23352e-07
3.1829e-07
3.13261e-07
3.08331e-07
2.93509e-07
2.86754e-07
2.80005e-07
2.73255e-07
2.66785e-07
2.60767e-07
2.39104e-07
2.29347e-07
2.1913e-07
2.08725e-07
1.98403e-07
1.87344e-07
1.77553e-07
1.68618e-07
1.60863e-07
1.54684e-07
1.84852e-07
1.78509e-07
1.73745e-07
1.70417e-07
1.68369e-07
3.44381e-07
3.69817e-07
3.94553e-07
4.18034e-07
4.39781e-07
8.18562e-07
8.3212e-07
8.42817e-07
8.50723e-07
8.56219e-07
1.59475e-06
1.61455e-06
1.62908e-06
1.63861e-06
1.64411e-06
)
;

boundaryField
{
    inlet
    {
        type            calculated;
        value           nonuniform List<scalar> 5(4.98916e-06 5.1261e-06 5.24935e-06 5.35914e-06 5.45575e-06);
    }
    outlet
    {
        type            calculated;
        value           nonuniform List<scalar> 0();
    }
    walls
    {
        type            calculated;
        value           uniform 0;
    }
    frontAndBack
    {
        type            empty;
    }
    procBoundary1to0
    {
        type            processor;
        value           nonuniform List<scalar> 
94
(
0.000473669
0.000473669
0.000391525
0.000391525
0.000325457
0.000325457
0.000272069
0.000272069
0.000228502
0.000228502
0.000193051
0.000193051
0.000169081
0.000144364
0.000144364
0.000127265
0.000109606
0.000109606
9.70877e-05
8.60942e-05
7.48389e-05
7.48389e-05
6.6562e-05
5.81279e-05
5.81279e-05
5.18077e-05
4.61944e-05
4.0509e-05
4.0509e-05
3.61667e-05
3.2298e-05
2.83934e-05
2.83934e-05
2.53807e-05
2.23343e-05
2.23343e-05
1.99833e-05
1.78867e-05
1.57624e-05
1.57624e-05
1.41259e-05
1.26663e-05
1.11838e-05
1.11838e-05
1.00461e-05
9.03136e-06
7.99713e-06
7.99713e-06
7.2068e-06
6.50069e-06
5.77946e-06
5.77946e-06
5.22803e-06
4.73406e-06
4.22929e-06
4.22929e-06
3.8415e-06
3.4924e-06
3.17772e-06
2.85931e-06
2.85931e-06
2.60841e-06
2.38014e-06
2.17176e-06
1.96197e-06
1.96197e-06
1.78923e-06
1.62963e-06
1.48252e-06
1.34777e-06
1.21683e-06
1.21683e-06
1.10725e-06
1.00683e-06
9.13365e-07
8.25321e-07
7.42415e-07
6.59879e-07
6.59879e-07
5.90642e-07
5.33677e-07
4.88288e-07
4.47627e-07
4.08808e-07
3.72807e-07
3.3794e-07
2.99894e-07
2.48348e-07
2.48348e-07
1.97646e-07
1.92719e-07
3.18174e-07
8.02811e-07
1.56913e-06
)
;
    }
    procBoundary1to2
    {
        type            processor;
        value           nonuniform List<scalar> 
84
(
48.5637
1.46575
0.320418
0.0121869
0.00267247
4.44283e-07
1.33843e-05
2.00132e-05
2.51751e-05
2.12429e-05
2.15008e-05
1.99365e-05
1.91926e-05
1.81266e-05
1.71709e-05
1.61376e-05
1.51109e-05
1.40701e-05
1.30307e-05
1.19931e-05
1.09618e-05
9.94237e-06
8.94346e-06
7.97216e-06
7.03224e-06
6.12944e-06
5.2723e-06
4.46944e-06
3.72851e-06
3.05851e-06
2.47191e-06
1.98886e-06
1.63809e-06
1.44613e-06
1.41293e-06
1.49736e-06
1.64154e-06
1.80184e-06
2.49433e-06
2.49433e-06
2.5232e-06
2.54575e-06
2.55601e-06
2.55017e-06
2.52742e-06
2.48858e-06
2.43433e-06
2.36648e-06
2.28783e-06
2.20053e-06
2.10613e-06
2.00629e-06
1.90333e-06
1.85209e-06
1.85209e-06
1.73618e-06
1.62084e-06
1.50726e-06
1.39692e-06
1.29132e-06
1.19149e-06
1.09749e-06
1.00867e-06
9.33444e-07
9.33444e-07
8.49298e-07
7.68046e-07
6.90622e-07
6.18023e-07
5.52211e-07
4.9722e-07
4.53119e-07
4.13873e-07
3.75968e-07
3.41745e-07
3.41745e-07
3.03594e-07
2.55344e-07
1.88436e-07
1.50331e-07
1.67184e-07
4.59273e-07
8.59922e-07
1.64644e-06
)
;
    }
    procBoundary1to5
    {
        type            processor;
        value           nonuniform List<scalar> 
13
(
0.00367926
0.00367926
0.00240071
0.00185967
0.00185967
0.00152988
0.00120538
0.00120538
0.00100293
0.000816609
0.000674271
0.000674271
0.000575471
)
;
    }
}


// ************************************************************************* //
