/*--------------------------------*- C++ -*----------------------------------*\
| =========                 |                                                 |
| \\      /  F ield         | OpenFOAM: The Open Source CFD Toolbox           |
|  \\    /   O peration     | Version:  2306                                  |
|   \\  /    A nd           | Website:  www.openfoam.com                      |
|    \\/     M anipulation  |                                                 |
\*---------------------------------------------------------------------------*/
FoamFile
{
    version     2.0;
    format      ascii;
    arch        "LSB;label=32;scalar=64";
    class       volSymmTensorField;
    location    "175";
    object      turbulenceProperties:devReff;
}
// * * * * * * * * * * * * * * * * * * * * * * * * * * * * * * * * * * * * * //

dimensions      [0 2 -2 0 0 0 0];

internalField   nonuniform List<symmTensor> 
1340
(
(8.43437e-05 0.000617533 1.39514e-19 -4.75323e-05 -5.64578e-20 -3.68114e-05)
(0.000263375 0.000620537 2.28064e-19 -0.000239922 -1.16393e-19 -2.34533e-05)
(0.000511009 0.00075375 -1.45855e-19 -0.000508914 3.43925e-20 -2.0952e-06)
(0.000863791 0.00105302 -3.93523e-20 -0.000874502 1.78956e-19 1.07116e-05)
(0.00137513 0.00161599 2.50555e-19 -0.00139369 9.80797e-20 1.85528e-05)
(0.00211874 0.00261232 4.59292e-19 -0.00215048 -7.26015e-20 3.17404e-05)
(0.00318421 0.00427819 -1.45787e-20 -0.00323782 -2.53728e-19 5.36117e-05)
(0.00464088 0.00685729 -6.92642e-20 -0.00471859 -1.74173e-19 7.77127e-05)
(0.00650984 0.0106425 3.97051e-20 -0.00662212 -6.08938e-20 0.00011228)
(0.00890355 0.0160676 -2.08022e-19 -0.0090538 6.65665e-19 0.000150254)
(0.0120806 0.0240507 7.49183e-19 -0.0122847 2.68184e-19 0.00020403)
(0.01661 0.0364 3.32335e-19 -0.0168863 -1.2054e-18 0.000276255)
(0.0233326 0.0564797 -1.35008e-18 -0.0237346 -3.32349e-19 0.000401997)
(0.0339113 0.0911197 -4.53549e-18 -0.0345202 -1.97518e-18 0.000608925)
(0.0505016 0.152698 -3.37703e-18 -0.0515103 -8.72828e-19 0.00100873)
(0.0781158 0.271915 6.37883e-18 -0.0799509 -6.22042e-19 0.00183518)
(0.119802 0.502126 -7.84871e-18 -0.123548 1.25149e-18 0.00374648)
(0.189689 1.01311 4.20482e-18 -0.197807 -6.91069e-18 0.00811843)
(0.286856 2.08059 -1.30145e-16 -0.303755 3.38057e-18 0.0168995)
(0.425436 4.6985 -8.07321e-17 -0.465351 1.1576e-17 0.0399154)
(0.432214 9.60764 6.76089e-17 -0.514427 3.21288e-19 0.0822125)
(0.00814213 13.4959 8.82532e-18 -0.113378 -4.95377e-20 0.105236)
(-0.635936 15.1231 6.28007e-17 0.537181 -1.39098e-18 0.0987552)
(-1.28019 15.5449 -4.41954e-16 1.19772 -3.78635e-18 0.0824661)
(-1.87033 15.5586 1.58262e-16 1.80281 2.23087e-17 0.0675222)
(-2.39874 15.3916 -1.90975e-15 2.34277 -1.61027e-16 0.055964)
(-2.85809 15.0865 -3.49109e-15 2.81103 -2.08709e-16 0.0470564)
(-3.24649 14.659 1.07183e-15 3.20602 1.15822e-16 0.0404714)
(0.000263744 0.000405446 6.56442e-20 -0.000267771 -2.2644e-19 4.02715e-06)
(0.000127056 0.000405792 -3.22744e-19 -0.000136502 1.1142e-20 9.44587e-06)
(1.81166e-05 0.000372555 4.34979e-20 -2.83101e-05 2.10415e-19 1.01936e-05)
(-7.06786e-05 0.000313377 -2.01346e-21 6.53571e-05 -1.23026e-19 5.32152e-06)
(-0.000123988 0.000240592 -7.98141e-20 0.000126405 -7.63938e-20 -2.4174e-06)
(-0.00014262 0.000174403 -5.90689e-20 0.000151715 -8.12282e-20 -9.09412e-06)
(-0.000140242 0.000122759 -1.06853e-20 0.00015365 1.85815e-20 -1.34084e-05)
(-0.000127451 8.54864e-05 3.68237e-20 0.000143257 9.78513e-20 -1.58052e-05)
(-0.000110666 6.0213e-05 6.42396e-20 0.000127607 2.37879e-20 -1.69408e-05)
(-9.3712e-05 4.37145e-05 -9.26009e-20 0.000110887 -3.60363e-21 -1.71745e-05)
(-7.81986e-05 3.33884e-05 8.38584e-20 9.49653e-05 7.51124e-21 -1.67667e-05)
(-6.49429e-05 2.70805e-05 -1.04193e-20 8.08932e-05 -2.78134e-20 -1.59503e-05)
(-5.39382e-05 2.30823e-05 -3.4561e-20 6.88479e-05 5.25664e-20 -1.49097e-05)
(-4.49498e-05 2.04031e-05 -2.62942e-20 5.87936e-05 2.74399e-20 -1.38438e-05)
(-3.77187e-05 1.84206e-05 -6.3147e-20 5.06284e-05 6.7983e-20 -1.29096e-05)
(-3.24474e-05 1.69863e-05 -8.8287e-20 4.48469e-05 4.43271e-20 -1.23995e-05)
(-2.90171e-05 1.60649e-05 -1.2632e-19 4.16575e-05 1.12258e-20 -1.26404e-05)
(-2.67356e-05 1.6078e-05 5.66345e-20 4.05185e-05 4.68036e-21 -1.37829e-05)
(-2.45387e-05 1.79118e-05 -4.09481e-21 3.97793e-05 5.07228e-21 -1.52407e-05)
(-0.00025045 0.000235153 5.64572e-19 0.000432674 1.30132e-19 -0.000182224)
(-0.00128574 0.00149936 2.91049e-18 0.00233714 -1.97251e-19 -0.0010514)
(-0.00911364 0.0129378 1.12581e-18 0.0171401 -3.76743e-19 -0.00802646)
(-0.0269514 0.048357 -7.64067e-19 0.0514653 7.14242e-20 -0.0245138)
(-0.0456472 0.106612 5.1091e-17 0.0864548 2.57859e-18 -0.0408076)
(-0.0586016 0.175634 4.10272e-16 0.106456 7.79716e-18 -0.0478542)
(-0.066629 0.24067 2.43614e-16 0.112215 1.38886e-17 -0.0455857)
(-0.0737928 0.294893 1.78573e-15 0.113021 1.19221e-16 -0.0392281)
(-0.0829197 0.340356 2.57441e-15 0.115852 1.45044e-16 -0.0329323)
(-0.0952476 0.380633 -5.79131e-16 0.123381 -8.7657e-17 -0.0281335)
(0.000238253 0.000302706 2.85598e-20 -0.00023788 1.47343e-19 -3.72409e-07)
(0.000136215 0.000318549 1.6042e-19 -0.000137008 1.64359e-19 7.92454e-07)
(4.40052e-05 0.00030738 5.69448e-20 -4.53519e-05 -1.30536e-19 1.34667e-06)
(-3.13309e-05 0.000270953 1.12831e-19 3.02717e-05 6.91881e-20 1.0592e-06)
(-8.003e-05 0.000218211 -8.32682e-20 7.85595e-05 2.17862e-20 1.47052e-06)
(-0.000103172 0.000164133 -1.11197e-20 0.000100439 6.8712e-20 2.73309e-06)
(-0.00010873 0.000116892 7.61402e-21 0.000104377 -6.29789e-20 4.35311e-06)
(-0.000103746 7.88685e-05 1.14667e-19 9.76683e-05 -7.92345e-20 6.07799e-06)
(-9.34568e-05 5.02857e-05 7.49498e-21 8.59602e-05 -1.18993e-20 7.49668e-06)
(-8.13265e-05 2.96249e-05 -1.24471e-20 7.26477e-05 5.09641e-20 8.67886e-06)
(-6.94916e-05 1.52867e-05 8.28235e-20 5.99674e-05 -9.42826e-20 9.52419e-06)
(-5.90272e-05 5.42818e-06 1.30166e-20 4.88978e-05 1.12387e-20 1.01295e-05)
(-5.03992e-05 -1.45779e-06 9.46535e-20 3.99414e-05 -7.17622e-21 1.04578e-05)
(-4.33356e-05 -6.63412e-06 1.00959e-19 3.26443e-05 2.10457e-20 1.06913e-05)
(-3.754e-05 -1.08395e-05 2.58159e-19 2.67273e-05 -3.45257e-20 1.08127e-05)
(-3.2451e-05 -1.47972e-05 3.32856e-19 2.14667e-05 -5.043e-20 1.09842e-05)
(-2.73288e-05 -1.89475e-05 1.97043e-19 1.60648e-05 1.52594e-20 1.1264e-05)
(-2.06924e-05 -2.28362e-05 4.51851e-20 8.65505e-06 -8.92851e-21 1.20373e-05)
(-1.25767e-05 -2.49536e-05 -4.87425e-20 -7.85334e-07 2.23927e-20 1.3362e-05)
(-4.45503e-06 -2.41614e-05 1.82281e-19 -9.95029e-06 -2.80079e-20 1.44053e-05)
(2.49125e-06 -2.25164e-05 -4.91824e-20 -1.84719e-05 -3.98667e-21 1.59807e-05)
(5.62627e-06 -1.36846e-05 -3.1265e-20 -1.78159e-05 5.99703e-22 1.21896e-05)
(6.3594e-05 -8.05548e-05 3.09878e-20 -0.000161308 -7.40694e-22 9.77139e-05)
(0.000508877 -0.000274346 -1.52354e-18 -0.00117259 -4.53346e-20 0.000663709)
(0.00150075 0.000516185 -9.02628e-18 -0.00332708 1.05451e-19 0.00182633)
(0.00234757 0.00503846 -5.65973e-17 -0.00530013 -3.23855e-18 0.00295256)
(0.00181611 0.0162443 -1.37891e-16 -0.00504773 -3.02301e-18 0.00323162)
(-0.000857894 0.035666 -3.41544e-16 -0.00171573 -2.09973e-17 0.00257362)
(-0.00586642 0.0628368 -8.69485e-16 0.00437103 -8.40134e-17 0.0014954)
(0.000273816 0.000176092 5.61818e-20 -0.000274037 -1.86628e-20 2.2091e-07)
(0.000204249 0.00022325 5.87422e-20 -0.000204038 -1.83775e-21 -2.11254e-07)
(0.000130032 0.000245803 -1.46561e-19 -0.000130168 -8.81678e-20 1.363e-07)
(5.85016e-05 0.000245409 -7.79961e-20 -5.93056e-05 6.99801e-21 8.04e-07)
(-3.26984e-06 0.000224303 1.34882e-19 2.16349e-06 5.69117e-20 1.10635e-06)
(-4.78554e-05 0.000189766 6.123e-20 4.69281e-05 -5.28543e-21 9.27308e-07)
(-7.4767e-05 0.000151411 7.37165e-20 7.43645e-05 -4.51145e-20 4.02412e-07)
(-8.75802e-05 0.000115477 -1.16316e-19 8.79638e-05 -7.13857e-20 -3.83624e-07)
(-9.05654e-05 8.4801e-05 -1.41456e-19 9.18273e-05 2.73925e-20 -1.26195e-06)
(-8.73836e-05 6.04555e-05 1.37083e-20 8.95647e-05 3.62579e-20 -2.18111e-06)
(-8.09927e-05 4.19882e-05 4.33825e-20 8.3994e-05 -1.28794e-20 -3.00127e-06)
(-7.3432e-05 2.85295e-05 -1.08374e-19 7.71692e-05 -7.29887e-21 -3.73721e-06)
(-6.5938e-05 1.88856e-05 -3.58208e-21 7.02779e-05 -1.67308e-20 -4.33985e-06)
(-5.91922e-05 1.18952e-05 -4.12149e-20 6.40235e-05 -7.55791e-21 -4.83127e-06)
(-5.33113e-05 6.50778e-06 8.74752e-20 5.8474e-05 -4.90195e-20 -5.16276e-06)
(-4.82361e-05 2.05152e-06 -9.5557e-20 5.36547e-05 -3.09988e-20 -5.41853e-06)
(-4.36839e-05 -2.04496e-06 -1.97058e-19 4.92884e-05 -2.11638e-20 -5.60459e-06)
(-3.91829e-05 -6.11867e-06 9.6761e-21 4.49539e-05 -2.86616e-20 -5.77104e-06)
(-3.40165e-05 -9.91658e-06 5.10024e-20 3.98939e-05 -2.7634e-20 -5.8774e-06)
(-2.83954e-05 -1.22947e-05 1.53162e-19 3.45452e-05 -1.07798e-20 -6.1498e-06)
(-2.34537e-05 -1.3019e-05 -1.43925e-19 3.02069e-05 -6.95292e-21 -6.75311e-06)
(-1.95569e-05 -1.28593e-05 -2.45424e-20 2.69927e-05 7.00059e-21 -7.43576e-06)
(-1.65641e-05 -1.23436e-05 1.4901e-20 2.46512e-05 1.02709e-21 -8.08711e-06)
(-1.36532e-05 -1.13504e-05 -6.8686e-21 2.19234e-05 -2.22165e-22 -8.2702e-06)
(-1.10411e-05 -1.02931e-05 -1.0154e-20 1.90738e-05 8.46274e-23 -8.03274e-06)
(-7.05732e-06 -7.68628e-06 -1.52149e-20 1.312e-05 -1.20024e-21 -6.06269e-06)
(-4.1126e-06 -5.57093e-06 4.57553e-20 8.44654e-06 1.42228e-21 -4.33394e-06)
(-3.11989e-05 -5.79141e-05 2.12371e-18 8.01965e-05 1.55543e-19 -4.89977e-05)
(1.50213e-06 -3.54843e-05 1.96707e-17 0.00011052 1.75738e-18 -0.000112023)
(0.000247308 0.000663213 8.16019e-17 -0.000149342 1.0189e-17 -9.79661e-05)
(0.00022446 0.000129032 -1.43741e-19 -0.000224377 7.63791e-20 -8.31488e-08)
(0.000174697 0.000169123 1.99703e-19 -0.000174374 1.00555e-19 -3.22942e-07)
(0.00011924 0.000192115 -6.54826e-20 -0.000119161 -1.83521e-19 -7.88302e-08)
(6.36535e-05 0.000197878 -8.63455e-20 -6.38215e-05 2.45884e-20 1.67997e-07)
(1.35274e-05 0.000187392 -5.85791e-20 -1.38425e-05 -1.01944e-19 3.1516e-07)
(-2.54021e-05 0.000165237 2.00041e-20 2.51052e-05 3.15325e-20 2.96945e-07)
(-5.16267e-05 0.000137578 -3.97499e-20 5.13428e-05 -4.99701e-20 2.83892e-07)
(-6.65501e-05 0.000109265 -8.23485e-20 6.61973e-05 1.07818e-19 3.5275e-07)
(-7.26857e-05 8.32174e-05 8.78162e-20 7.2176e-05 4.8322e-20 5.09755e-07)
(-7.26184e-05 6.10516e-05 7.33216e-20 7.18874e-05 -3.33693e-20 7.3094e-07)
(-6.87808e-05 4.31571e-05 -1.50707e-20 6.7758e-05 -2.93783e-20 1.02276e-06)
(-6.30155e-05 2.92871e-05 4.37328e-20 6.16723e-05 9.1697e-21 1.34325e-06)
(-5.66437e-05 1.87603e-05 -6.53792e-20 5.49739e-05 1.66335e-20 1.66985e-06)
(-5.04657e-05 1.07923e-05 4.6289e-20 4.84946e-05 -1.4973e-21 1.9711e-06)
(-4.48117e-05 4.58419e-06 -6.05464e-20 4.2562e-05 -2.70575e-20 2.24977e-06)
(-3.97391e-05 -4.84287e-07 5.8892e-20 3.72621e-05 4.30338e-21 2.47704e-06)
(-3.50576e-05 -4.91551e-06 7.81862e-20 3.23899e-05 1.60788e-20 2.66772e-06)
(-3.03884e-05 -8.99405e-06 -5.9397e-21 2.75713e-05 7.01886e-21 2.81708e-06)
(-2.51279e-05 -1.25578e-05 -1.47083e-19 2.21118e-05 7.30038e-22 3.01608e-06)
(-1.92873e-05 -1.48099e-05 -5.43582e-20 1.60396e-05 -2.181e-20 3.24764e-06)
(-1.37076e-05 -1.54947e-05 -1.60848e-20 1.02727e-05 2.31384e-20 3.43484e-06)
(-8.83129e-06 -1.52109e-05 5.96363e-20 5.08985e-06 5.22105e-22 3.74144e-06)
(-4.62264e-06 -1.43565e-05 2.07883e-21 4.55714e-07 -4.06131e-22 4.16692e-06)
(-1.0543e-06 -1.32863e-05 -3.34115e-21 -3.60577e-06 2.23346e-22 4.66008e-06)
(1.79147e-06 -1.13863e-05 3.76663e-20 -6.57969e-06 3.51353e-22 4.78822e-06)
(4.58553e-06 -1.21056e-05 3.37225e-20 -1.03934e-05 1.12919e-21 5.80787e-06)
(3.24756e-06 -5.83068e-06 -8.92403e-20 -6.13075e-06 -5.19685e-21 2.88319e-06)
(1.29977e-05 -1.8899e-05 -8.28904e-19 -2.16626e-05 -6.34893e-20 8.66488e-06)
(3.40091e-06 -4.29806e-06 -4.15854e-20 -5.04221e-06 -3.72402e-21 1.6413e-06)
(0.000248177 -0.000272989 2.07942e-18 -0.000327617 1.08062e-19 7.94397e-05)
(0.000212391 5.30091e-05 -2.88045e-20 -0.000212527 9.95883e-21 1.36337e-07)
(0.000185857 9.61099e-05 1.26799e-19 -0.000185648 8.82221e-20 -2.09188e-07)
(0.000149228 0.00013017 -7.95689e-20 -0.000149002 -1.33538e-19 -2.26232e-07)
(0.000107106 0.000151922 3.72297e-20 -0.000107071 6.61885e-20 -3.50605e-08)
(6.3686e-05 0.000160458 -4.65013e-20 -6.37552e-05 -8.60771e-21 6.91234e-08)
(2.32272e-05 0.000156343 -1.37968e-19 -2.34039e-05 -4.9256e-21 1.767e-07)
(-1.00794e-05 0.000142495 1.00468e-19 9.87577e-06 2.06776e-20 2.0362e-07)
(-3.44776e-05 0.000122989 -2.01373e-20 3.42919e-05 2.72227e-20 1.85752e-07)
(-5.03493e-05 0.000101442 5.74221e-20 5.01937e-05 4.31082e-20 1.55574e-07)
(-5.90071e-05 8.03931e-05 2.04828e-20 5.89296e-05 -5.00682e-20 7.7431e-08)
(-6.2078e-05 6.15107e-05 -1.57408e-20 6.21238e-05 -3.61642e-20 -4.5837e-08)
(-6.13856e-05 4.55183e-05 -6.03951e-20 6.15771e-05 2.34472e-20 -1.91493e-07)
(-5.83905e-05 3.25717e-05 -7.26096e-20 5.87535e-05 3.3497e-20 -3.6302e-07)
(-5.42576e-05 2.23751e-05 3.01619e-20 5.48022e-05 -2.29194e-21 -5.4459e-07)
(-4.97727e-05 1.4425e-05 -1.24359e-20 5.04997e-05 -1.33991e-20 -7.26957e-07)
(-4.53668e-05 8.11404e-06 -6.16953e-20 4.62655e-05 3.10703e-22 -8.98709e-07)
(-4.11859e-05 2.93316e-06 -6.89146e-20 4.22477e-05 -1.5441e-20 -1.06186e-06)
(-3.71559e-05 -1.56388e-06 -5.80631e-20 3.83605e-05 4.35182e-21 -1.20455e-06)
(-3.30273e-05 -5.6454e-06 6.21924e-20 3.4356e-05 -2.67585e-20 -1.32869e-06)
(-2.84117e-05 -9.21808e-06 -1.56679e-20 2.98222e-05 2.7221e-20 -1.41047e-06)
(-2.33385e-05 -1.16737e-05 -9.27852e-20 2.48281e-05 2.11069e-20 -1.48958e-06)
(-1.84866e-05 -1.2741e-05 1.23941e-19 2.01401e-05 -7.15544e-21 -1.65345e-06)
(-1.4326e-05 -1.28608e-05 9.70422e-21 1.61704e-05 -6.76961e-21 -1.84439e-06)
(-1.09042e-05 -1.24529e-05 1.80207e-21 1.29541e-05 -6.56114e-22 -2.04991e-06)
(-8.12321e-06 -1.16906e-05 4.44213e-21 1.04291e-05 8.65764e-23 -2.3059e-06)
(-5.92349e-06 -1.06876e-05 -4.55486e-20 8.53555e-06 -1.69047e-21 -2.61206e-06)
(-4.22163e-06 -9.53252e-06 -2.6193e-20 7.13407e-06 -2.1909e-21 -2.91244e-06)
(-2.79092e-06 -8.3289e-06 1.33247e-19 5.83289e-06 8.95423e-21 -3.04198e-06)
(-1.40651e-06 -6.79789e-06 9.9383e-20 4.21291e-06 5.05608e-21 -2.8064e-06)
(-1.31018e-07 -4.76914e-06 -7.16431e-20 2.24176e-06 -5.84161e-21 -2.11074e-06)
(6.92122e-07 -2.94041e-06 5.59164e-20 6.29624e-07 7.00517e-21 -1.32175e-06)
(0.000174618 3.78057e-05 -3.23067e-21 -0.000174688 -2.50168e-20 7.02502e-08)
(0.00015524 7.29144e-05 -4.3073e-20 -0.00015506 2.12316e-20 -1.80105e-07)
(0.000127807 0.000101794 4.96316e-20 -0.000127666 4.55134e-20 -1.40292e-07)
(9.52896e-05 0.000121587 1.13188e-19 -9.52726e-05 4.79383e-20 -1.70308e-08)
(6.10064e-05 0.000131166 7.6679e-20 -6.10175e-05 -2.32418e-21 1.10533e-08)
(2.824e-05 0.000130922 -2.34303e-20 -2.83043e-05 1.97592e-20 6.43278e-08)
(7.04008e-08 0.000122682 -1.03323e-19 -1.47385e-07 -3.80226e-20 7.69844e-08)
(-2.18332e-05 0.00010915 7.38191e-20 2.17548e-05 4.88833e-20 7.83676e-08)
(-3.73394e-05 9.29446e-05 3.86083e-21 3.7244e-05 -5.64478e-20 9.54637e-08)
(-4.70312e-05 7.61077e-05 3.774e-21 4.69276e-05 -2.5635e-20 1.03621e-07)
(-5.18426e-05 6.01688e-05 -5.90799e-20 5.17396e-05 2.32308e-20 1.0292e-07)
(-5.30628e-05 4.5969e-05 3.45979e-20 5.29415e-05 3.47349e-20 1.21346e-07)
(-5.17954e-05 3.39072e-05 1.48412e-19 5.16441e-05 1.12508e-20 1.51294e-07)
(-4.90338e-05 2.39762e-05 -5.48654e-20 4.88379e-05 -4.28186e-22 1.95961e-07)
(-4.55247e-05 1.59252e-05 -1.12848e-20 4.52733e-05 -1.158e-21 2.5145e-07)
(-4.17418e-05 9.35752e-06 -7.8068e-20 4.14214e-05 4.91835e-20 3.20392e-07)
(-3.79151e-05 3.89157e-06 -5.85761e-20 3.75225e-05 8.86536e-21 3.92598e-07)
(-3.40676e-05 -8.16348e-07 6.65652e-20 3.36038e-05 1.58913e-20 4.63838e-07)
(-3.00514e-05 -4.97635e-06 -1.55327e-19 2.95178e-05 1.64546e-20 5.33541e-07)
(-2.55983e-05 -8.5376e-06 5.25268e-20 2.49725e-05 2.26645e-22 6.25861e-07)
(-2.07204e-05 -1.10563e-05 1.02694e-19 1.99877e-05 1.09953e-21 7.32703e-07)
(-1.59438e-05 -1.22882e-05 -4.24796e-20 1.51488e-05 -1.08733e-20 7.94994e-07)
(-1.16909e-05 -1.25593e-05 -4.5955e-20 1.08314e-05 8.49787e-22 8.5955e-07)
(-8.03045e-06 -1.22375e-05 -1.10085e-20 7.06353e-06 5.85374e-22 9.6692e-07)
(-4.88678e-06 -1.14981e-05 -1.33851e-21 3.7785e-06 4.99353e-23 1.10828e-06)
(-2.22464e-06 -1.0447e-05 5.45301e-21 9.5223e-07 1.1338e-21 1.27241e-06)
(-6.03533e-09 -9.2078e-06 -7.13505e-20 -1.47183e-06 -2.6593e-21 1.47787e-06)
(1.76476e-06 -7.91262e-06 1.63858e-19 -3.43004e-06 7.60164e-21 1.66528e-06)
(3.1135e-06 -6.67506e-06 6.80583e-21 -4.8867e-06 -3.49831e-22 1.7732e-06)
(4.01503e-06 -5.36713e-06 1.09043e-19 -5.72572e-06 1.07824e-20 1.71069e-06)
(4.53473e-06 -4.12529e-06 5.57895e-20 -6.06306e-06 -5.75355e-22 1.52833e-06)
(0.000145261 2.71364e-05 -1.33674e-21 -0.000145232 7.01054e-21 -2.81235e-08)
(0.000130752 5.61228e-05 -6.98141e-21 -0.000130611 -6.01974e-20 -1.40665e-07)
(0.000109776 8.06792e-05 -2.11932e-19 -0.000109703 -9.68809e-20 -7.24177e-08)
(8.43177e-05 9.8368e-05 4.72833e-20 -8.42988e-05 7.16543e-20 -1.89244e-08)
(5.70057e-05 0.000108053 -1.3766e-20 -5.69908e-05 4.96992e-21 -1.4853e-08)
(3.03448e-05 0.000110055 1.12246e-19 -3.03774e-05 3.68144e-20 3.25737e-08)
(6.66124e-06 0.000105517 -8.4773e-21 -6.70284e-06 3.69127e-20 4.15959e-08)
(-1.26243e-05 9.62873e-05 4.78286e-20 1.25828e-05 -1.67129e-20 4.14784e-08)
(-2.71614e-05 8.42594e-05 -4.23481e-20 2.71016e-05 1.38153e-20 5.97839e-08)
(-3.71408e-05 7.10066e-05 -7.54405e-20 3.70769e-05 2.1821e-20 6.38509e-08)
(-4.3051e-05 5.78184e-05 2.04085e-20 4.30041e-05 9.48733e-21 4.6907e-08)
(-4.57546e-05 4.55314e-05 3.31428e-20 4.5724e-05 -1.33137e-20 3.06004e-08)
(-4.60411e-05 3.46435e-05 3.13898e-20 4.60348e-05 -5.7831e-20 6.29092e-09)
(-4.47018e-05 2.5325e-05 4.30346e-20 4.47281e-05 1.46523e-20 -2.63804e-08)
(-4.23734e-05 1.75251e-05 -3.97102e-20 4.24392e-05 2.2014e-20 -6.57924e-08)
(-3.95166e-05 1.10121e-05 1.48452e-19 3.96241e-05 5.58158e-21 -1.07573e-07)
(-3.63879e-05 5.51934e-06 -3.52085e-20 3.65371e-05 2.01783e-20 -1.49197e-07)
(-3.30714e-05 7.83398e-07 6.93254e-20 3.32629e-05 -2.64451e-20 -1.91497e-07)
(-2.94999e-05 -3.3624e-06 1.0552e-19 2.97314e-05 6.05425e-21 -2.31492e-07)
(-2.55129e-05 -6.89506e-06 2.00457e-21 2.57679e-05 -2.28114e-20 -2.55014e-07)
(-2.11425e-05 -9.49014e-06 -2.89936e-20 2.14126e-05 -1.8007e-20 -2.70167e-07)
(-1.68075e-05 -1.09298e-05 -2.65701e-20 1.71312e-05 3.84597e-21 -3.23717e-07)
(-1.28949e-05 -1.14391e-05 5.416e-21 1.32896e-05 2.71278e-22 -3.94735e-07)
(-9.51631e-06 -1.13424e-05 1.11308e-20 9.96845e-06 4.6392e-22 -4.52136e-07)
(-6.64332e-06 -1.08198e-05 4.53803e-21 7.1546e-06 -6.97831e-23 -5.11285e-07)
(-4.26169e-06 -9.98537e-06 1.28329e-20 4.85299e-06 3.2914e-22 -5.91301e-07)
(-2.36439e-06 -8.96554e-06 5.02222e-20 3.06249e-06 4.0745e-21 -6.98097e-07)
(-8.91267e-07 -7.86404e-06 -2.87451e-19 1.70975e-06 -1.99323e-20 -8.18487e-07)
(2.69935e-07 -6.75519e-06 -1.14344e-19 6.42626e-07 -5.68807e-21 -9.12561e-07)
(1.24754e-06 -5.67194e-06 -6.5914e-21 -2.82729e-07 -9.63276e-21 -9.64813e-07)
(2.14794e-06 -4.68104e-06 -1.58515e-19 -1.18877e-06 -1.82534e-20 -9.5917e-07)
(0.000126896 -6.01823e-06 -8.56738e-20 -0.000126897 -6.40843e-20 1.00145e-09)
(0.000121939 1.95227e-05 -4.95599e-20 -0.000121886 -3.44592e-20 -5.32759e-08)
(0.000110956 4.37018e-05 -1.26674e-20 -0.000110851 -1.93941e-21 -1.04244e-07)
(9.4623e-05 6.46898e-05 3.00978e-20 -9.46006e-05 7.8381e-20 -2.23882e-08)
(7.44385e-05 8.03439e-05 7.06293e-20 -7.44232e-05 4.38612e-20 -1.5261e-08)
(5.24869e-05 8.96617e-05 5.02004e-20 -5.24649e-05 -3.26469e-20 -2.20501e-08)
(3.06519e-05 9.29131e-05 -6.70759e-20 -3.06645e-05 -4.14047e-20 1.26525e-08)
(1.07556e-05 9.08207e-05 1.42842e-19 -1.07719e-05 4.91634e-21 1.63587e-08)
(-6.01923e-06 8.46709e-05 -2.03056e-20 6.00536e-06 -6.24871e-20 1.38654e-08)
(-1.92853e-05 7.5841e-05 1.21703e-19 1.92561e-05 2.45952e-20 2.9158e-08)
(-2.90178e-05 6.55236e-05 9.26518e-20 2.89786e-05 1.23111e-20 3.91412e-08)
(-3.54228e-05 5.4758e-05 -4.46396e-20 3.53875e-05 -1.78157e-20 3.53502e-08)
(-3.90538e-05 4.42829e-05 7.54646e-21 3.90162e-05 -2.03146e-20 3.76136e-08)
(-4.04405e-05 3.46205e-05 -1.14295e-19 4.04053e-05 5.72609e-21 3.52345e-08)
(-4.01737e-05 2.60303e-05 -1.71173e-20 4.01397e-05 -1.33184e-20 3.40804e-08)
(-3.87713e-05 1.85853e-05 7.98195e-20 3.87368e-05 3.63137e-21 3.44997e-08)
(-3.66441e-05 1.22011e-05 1.67523e-21 3.66056e-05 -2.17178e-20 3.85426e-08)
(-3.40574e-05 6.7229e-06 6.93777e-20 3.40121e-05 1.24828e-20 4.52736e-08)
(-3.11362e-05 1.96627e-06 -7.83675e-20 3.10813e-05 -1.23967e-20 5.498e-08)
(-2.78747e-05 -2.18119e-06 -5.9563e-20 2.78042e-05 -1.25102e-20 7.05016e-08)
(-2.41945e-05 -5.70094e-06 -1.1817e-19 2.40963e-05 4.06196e-21 9.81919e-08)
(-2.01431e-05 -8.35405e-06 -8.87874e-20 2.00065e-05 1.32793e-20 1.36567e-07)
(-1.60511e-05 -9.94854e-06 -9.48021e-21 1.58938e-05 1.9955e-21 1.57253e-07)
(-1.22671e-05 -1.06371e-05 -3.38099e-20 1.21008e-05 1.45242e-21 1.66332e-07)
(-8.92653e-06 -1.06943e-05 -1.09891e-21 8.73408e-06 -7.33374e-22 1.92447e-07)
(-6.02708e-06 -1.02958e-05 -4.29823e-21 5.79549e-06 -3.61473e-22 2.31592e-07)
(-3.56328e-06 -9.55346e-06 -1.58148e-21 3.29127e-06 -6.91467e-22 2.72008e-07)
(-1.52481e-06 -8.58534e-06 3.53946e-20 1.20585e-06 2.23888e-22 3.18952e-07)
(1.33741e-07 -7.5043e-06 7.23351e-22 -5.1446e-07 -5.34015e-23 3.80719e-07)
(1.45111e-06 -6.39079e-06 2.32427e-19 -1.88337e-06 2.0377e-20 4.3226e-07)
(2.52159e-06 -5.29802e-06 -3.71159e-19 -2.98017e-06 -2.75308e-20 4.58578e-07)
(3.4142e-06 -4.2399e-06 2.10843e-20 -3.88809e-06 1.56476e-20 4.73896e-07)
(0.000103168 1.40191e-05 -1.52942e-19 -0.00010311 -1.38081e-20 -5.83923e-08)
(9.47596e-05 3.43776e-05 2.18873e-19 -9.46849e-05 1.69677e-19 -7.47071e-08)
(8.1858e-05 5.23871e-05 1.34933e-19 -8.18603e-05 1.73001e-20 2.33856e-09)
(6.56703e-05 6.61728e-05 9.64204e-20 -6.56611e-05 -1.88877e-20 -9.21002e-09)
(4.78622e-05 7.49056e-05 -1.53238e-19 -4.78394e-05 -6.54195e-20 -2.28319e-08)
(2.9869e-05 7.87815e-05 -9.55083e-20 -2.98754e-05 -1.70488e-20 6.36714e-09)
(1.31426e-05 7.82777e-05 -1.92961e-19 -1.31461e-05 -5.93353e-20 3.45024e-09)
(-1.34995e-06 7.43178e-05 -1.97858e-19 1.34716e-06 1.14416e-20 2.78583e-09)
(-1.32393e-05 6.79116e-05 -9.53757e-20 1.32226e-05 -3.1202e-20 1.67114e-08)
(-2.24179e-05 5.9951e-05 2.93115e-20 2.23919e-05 1.80511e-21 2.60491e-08)
(-2.89289e-05 5.12574e-05 -1.8459e-20 2.89064e-05 4.75075e-21 2.25532e-08)
(-3.31058e-05 4.24557e-05 -5.06672e-20 3.30798e-05 2.03778e-20 2.60244e-08)
(-3.52869e-05 3.40187e-05 5.59293e-20 3.52651e-05 1.07609e-20 2.17825e-08)
(-3.58931e-05 2.62498e-05 -6.85105e-20 3.58789e-05 -1.83059e-20 1.42674e-08)
(-3.53143e-05 1.93038e-05 -7.01029e-21 3.5309e-05 -1.6716e-20 5.37481e-09)
(-3.39028e-05 1.31819e-05 2.19932e-20 3.39072e-05 -1.56625e-20 -4.41165e-09)
(-3.19018e-05 7.82622e-06 6.69768e-20 3.19168e-05 -2.82517e-20 -1.49526e-08)
(-2.94516e-05 3.13334e-06 -2.86073e-20 2.94769e-05 1.41651e-21 -2.53432e-08)
(-2.6591e-05 -9.638e-07 -1.65473e-20 2.66246e-05 3.06897e-20 -3.35605e-08)
(-2.33035e-05 -4.44903e-06 -1.78902e-20 2.33404e-05 2.84083e-20 -3.68843e-08)
(-1.96499e-05 -7.13677e-06 6.58269e-20 1.96823e-05 8.42048e-21 -3.24608e-08)
(-1.59038e-05 -8.86353e-06 -8.84254e-22 1.59457e-05 7.9269e-21 -4.18654e-08)
(-1.23749e-05 -9.72954e-06 2.25416e-20 1.2441e-05 3.36733e-21 -6.60055e-08)
(-9.21639e-06 -9.95919e-06 -3.024e-21 9.30071e-06 3.581e-22 -8.43191e-08)
(-6.45416e-06 -9.72049e-06 -2.41611e-21 6.55138e-06 7.47259e-23 -9.72153e-08)
(-4.09771e-06 -9.12553e-06 -8.76016e-21 4.2137e-06 -3.35267e-22 -1.15997e-07)
(-2.1504e-06 -8.2903e-06 -3.69047e-20 2.29204e-06 -1.98107e-21 -1.41636e-07)
(-5.84018e-07 -7.32361e-06 -9.88939e-20 7.57572e-07 -6.23561e-21 -1.73554e-07)
(6.67627e-07 -6.3e-06 6.94984e-21 -4.66879e-07 -6.43251e-22 -2.00748e-07)
(1.70616e-06 -5.27633e-06 3.35955e-19 -1.48289e-06 4.21956e-20 -2.23269e-07)
(2.59294e-06 -4.24218e-06 2.42207e-19 -2.37337e-06 8.65113e-21 -2.19574e-07)
(8.1373e-05 2.72712e-05 -2.02278e-19 -8.13253e-05 -1.10838e-19 -4.77593e-08)
(7.10678e-05 4.27821e-05 -1.53716e-19 -7.10811e-05 -2.54696e-20 1.32991e-08)
(5.79457e-05 5.49114e-05 1.1508e-19 -5.79411e-05 9.22343e-20 -4.60004e-09)
(4.33785e-05 6.29641e-05 1.88121e-19 -4.33544e-05 4.28279e-20 -2.4112e-08)
(2.84579e-05 6.70858e-05 3.12898e-20 -2.84609e-05 -3.0245e-21 3.02869e-09)
(1.43691e-05 6.75933e-05 1.401e-19 -1.43705e-05 9.35975e-20 1.3983e-09)
(1.88952e-06 6.51743e-05 1.80823e-19 -1.8858e-06 7.10587e-20 -3.7212e-09)
(-8.65457e-06 6.05856e-05 -6.56963e-20 8.64921e-06 -1.92548e-20 5.35918e-09)
(-1.71149e-05 5.45005e-05 3.9815e-20 1.71007e-05 -7.54471e-23 1.42549e-08)
(-2.3454e-05 4.75484e-05 -1.35035e-20 2.34405e-05 6.34675e-21 1.35544e-08)
(-2.78785e-05 4.023e-05 9.99056e-20 2.78613e-05 4.87112e-21 1.72481e-08)
(-3.05715e-05 3.2964e-05 -3.68475e-20 3.05549e-05 -4.41241e-22 1.661e-08)
(-3.18198e-05 2.60419e-05 -9.69302e-20 3.18039e-05 3.67657e-20 1.58142e-08)
(-3.19063e-05 1.96568e-05 -3.63782e-20 3.18947e-05 3.44381e-21 1.16785e-08)
(-3.11044e-05 1.38832e-05 -8.50202e-20 3.10964e-05 1.37493e-20 8.00581e-09)
(-2.96243e-05 8.72869e-06 -9.03415e-20 2.96185e-05 -1.01618e-21 5.79187e-09)
(-2.7609e-05 4.1513e-06 -9.75846e-20 2.76041e-05 1.88046e-20 4.90101e-09)
(-2.5123e-05 1.26426e-07 1.59695e-19 2.51163e-05 -1.62478e-20 6.6989e-09)
(-2.21884e-05 -3.31317e-06 1.23887e-19 2.21752e-05 -4.05923e-21 1.31891e-08)
(-1.88812e-05 -6.01882e-06 2.10843e-20 1.88548e-05 -1.40829e-20 2.63945e-08)
(-1.54315e-05 -7.85127e-06 8.20902e-20 1.53983e-05 -8.59925e-21 3.31346e-08)
(-1.21112e-05 -8.86651e-06 1.87027e-20 1.20818e-05 -4.4262e-21 2.94009e-08)
(-9.08171e-06 -9.24521e-06 5.47613e-21 9.05041e-06 9.24275e-22 3.12947e-08)
(-6.39164e-06 -9.14147e-06 -4.11992e-22 6.3503e-06 3.2078e-22 4.13493e-08)
(-4.06287e-06 -8.66475e-06 -5.02097e-22 4.01121e-06 4.26435e-22 5.1661e-08)
(-2.1072e-06 -7.92447e-06 1.84623e-20 2.04611e-06 1.8059e-21 6.10891e-08)
(-5.00492e-07 -7.02794e-06 2.6488e-20 4.2525e-07 3.2624e-21 7.52418e-08)
(7.97222e-07 -6.05384e-06 5.37271e-20 -8.84873e-07 4.12319e-21 8.76503e-08)
(1.87011e-06 -5.05981e-06 1.1943e-19 -1.95966e-06 -1.76366e-21 8.95463e-08)
(2.77066e-06 -4.0382e-06 -4.27586e-19 -2.86764e-06 -5.41038e-20 9.69843e-08)
(6.19031e-05 3.51993e-05 4.91851e-20 -6.19179e-05 2.66662e-20 1.47995e-08)
(5.1168e-05 4.58724e-05 7.08682e-20 -5.11647e-05 -3.94526e-20 -3.3228e-09)
(3.91553e-05 5.32198e-05 -2.41373e-19 -3.91366e-05 -1.23888e-19 -1.86611e-08)
(2.67165e-05 5.73512e-05 -1.97488e-19 -2.67153e-05 -9.43731e-22 -1.22603e-09)
(1.48003e-05 5.84887e-05 3.76295e-20 -1.47977e-05 -4.253e-21 -2.58216e-09)
(4.07145e-06 5.71493e-05 1.69745e-19 -4.06381e-06 -2.89194e-20 -7.63983e-09)
(-5.20147e-06 5.39163e-05 -4.77515e-20 5.19965e-06 1.1418e-20 1.8247e-09)
(-1.28818e-05 4.92956e-05 -2.66281e-20 1.28726e-05 -2.21617e-21 9.20284e-09)
(-1.88896e-05 4.37752e-05 -6.75761e-21 1.88844e-05 -1.11705e-20 5.17186e-09)
(-2.33396e-05 3.77516e-05 -3.47498e-20 2.33289e-05 -7.31649e-22 1.07148e-08)
(-2.63249e-05 3.1565e-05 7.60611e-20 2.63143e-05 9.31587e-21 1.05652e-08)
(-2.80294e-05 2.54812e-05 1.48637e-19 2.80196e-05 3.62072e-20 9.86331e-09)
(-2.86391e-05 1.97009e-05 2.27534e-20 2.86307e-05 1.07996e-20 8.47269e-09)
(-2.83607e-05 1.43362e-05 1.05734e-19 2.83548e-05 1.16536e-20 5.84327e-09)
(-2.73628e-05 9.44759e-06 4.54781e-20 2.73613e-05 1.31794e-20 1.47465e-09)
(-2.5776e-05 5.04035e-06 7.46526e-20 2.57796e-05 4.92898e-21 -3.58478e-09)
(-2.36728e-05 1.1281e-06 -1.05213e-19 2.36789e-05 -1.92597e-20 -6.05431e-09)
(-2.11007e-05 -2.24518e-06 -1.63992e-20 2.11045e-05 -2.5884e-20 -3.87444e-09)
(-1.81476e-05 -4.94956e-06 -6.31263e-20 1.81463e-05 -3.85505e-22 1.27319e-09)
(-1.50108e-05 -6.86049e-06 -8.81773e-20 1.50086e-05 -5.84725e-22 2.16053e-09)
(-1.19297e-05 -8.00669e-06 -4.03132e-20 1.19357e-05 -1.26306e-21 -5.98853e-09)
(-9.06892e-06 -8.5267e-06 9.43628e-21 9.08169e-06 -8.86775e-22 -1.27738e-08)
(-6.49599e-06 -8.55925e-06 4.63289e-21 6.51069e-06 -1.69886e-22 -1.46967e-08)
(-4.24583e-06 -8.20951e-06 4.63475e-21 4.26383e-06 1.1519e-21 -1.79905e-08)
(-2.33878e-06 -7.58108e-06 -5.79331e-22 2.36305e-06 -1.00278e-21 -2.42721e-08)
(-7.63897e-07 -6.77762e-06 -6.17463e-21 7.95857e-07 2.33736e-21 -3.19604e-08)
(5.1818e-07 -5.87515e-06 -7.13291e-21 -4.79107e-07 -9.11274e-21 -3.90736e-08)
(1.58735e-06 -4.92906e-06 -2.08908e-19 -1.53845e-06 -1.08289e-20 -4.89055e-08)
(2.49659e-06 -3.936e-06 2.04475e-20 -2.45373e-06 2.45955e-20 -4.28613e-08)
(4.52371e-05 3.85422e-05 -2.71932e-19 -4.52344e-05 -1.15283e-19 -2.64988e-09)
(3.52456e-05 4.52081e-05 5.73781e-20 -3.52308e-05 8.19515e-20 -1.48075e-08)
(2.48197e-05 4.92149e-05 1.46534e-19 -2.48182e-05 2.45371e-20 -1.51204e-09)
(1.47165e-05 5.07189e-05 -1.78647e-19 -1.47145e-05 -7.27983e-20 -2.04147e-09)
(5.49298e-06 5.01272e-05 -1.76337e-19 -5.4871e-06 -1.7261e-20 -5.88129e-09)
(-2.63161e-06 4.7897e-05 1.01316e-19 2.63258e-06 2.38197e-20 -9.61238e-10)
(-9.52965e-06 4.44193e-05 5.26539e-20 9.52566e-06 -1.25663e-21 3.99227e-09)
(-1.51061e-05 4.00635e-05 -9.05989e-20 1.51038e-05 -4.51596e-21 2.2344e-09)
(-1.94349e-05 3.51379e-05 7.88515e-20 1.94288e-05 3.15303e-21 6.15279e-09)
(-2.25433e-05 2.992e-05 -5.52532e-20 2.25363e-05 -2.59652e-20 6.96801e-09)
(-2.45395e-05 2.46377e-05 1.34429e-19 2.45316e-05 -2.62873e-20 7.84972e-09)
(-2.55416e-05 1.94762e-05 5.46848e-20 2.55343e-05 -9.71017e-21 7.24033e-09)
(-2.56924e-05 1.45602e-05 -6.2931e-21 2.56866e-05 -2.14794e-20 5.77842e-09)
(-2.51164e-05 9.98196e-06 2.073e-20 2.51132e-05 -9.33083e-21 3.18341e-09)
(-2.39217e-05 5.78608e-06 -2.03009e-20 2.39209e-05 -1.29882e-20 8.6664e-10)
(-2.21815e-05 2.01754e-06 -6.43318e-21 2.21811e-05 1.38126e-20 4.40726e-10)
(-1.99572e-05 -1.26599e-06 -1.28207e-19 1.99547e-05 1.45581e-20 2.50359e-09)
(-1.73395e-05 -3.9492e-06 1.21757e-21 1.73318e-05 8.23672e-21 7.70012e-09)
(-1.45011e-05 -5.91541e-06 6.09307e-20 1.449e-05 9.12484e-21 1.11214e-08)
(-1.16529e-05 -7.16906e-06 7.77385e-22 1.16448e-05 3.99254e-21 8.1171e-09)
(-8.9569e-06 -7.81441e-06 -1.12665e-20 8.95128e-06 -2.5933e-22 5.6235e-09)
(-6.49494e-06 -7.97139e-06 -6.23469e-21 6.48766e-06 -2.41597e-22 7.28194e-09)
(-4.31282e-06 -7.73835e-06 1.99589e-20 4.30317e-06 -1.20142e-23 9.65177e-09)
(-2.43909e-06 -7.21199e-06 -1.35332e-20 2.42837e-06 -1.35318e-21 1.07214e-08)
(-8.71151e-07 -6.49139e-06 9.94051e-20 8.58455e-07 1.19968e-20 1.26961e-08)