/*--------------------------------*- C++ -*----------------------------------*\
| =========                 |                                                 |
| \\      /  F ield         | OpenFOAM: The Open Source CFD Toolbox           |
|  \\    /   O peration     | Version:  2306                                  |
|   \\  /    A nd           | Website:  www.openfoam.com                      |
|    \\/     M anipulation  |                                                 |
\*---------------------------------------------------------------------------*/
FoamFile
{
    version     2.0;
    format      ascii;
    arch        "LSB;label=32;scalar=64";
    class       volScalarField;
    location    "175";
    object      turbulenceProperties:epsilon;
}
// * * * * * * * * * * * * * * * * * * * * * * * * * * * * * * * * * * * * * //

dimensions      [0 2 -3 0 0 0 0];

internalField   nonuniform List<scalar> 
1340
(
0.00591069
0.00707323
0.0131518
0.0278811
0.0580664
0.113941
0.20871
0.356844
0.57798
0.905466
1.40446
2.20046
3.52531
5.85389
10.0616
18.3164
34.4275
70.4102
146.062
332.399
683.563
964.137
1083.56
1115.63
1116.63
1102.52
1076.2
1038.58
0.00348253
0.0027153
0.00207153
0.00151553
0.00107213
0.00075102
0.000523379
0.00036171
0.000247722
0.000168315
0.000112869
7.44848e-05
4.72368e-05
2.76007e-05
1.32106e-05
4.22332e-06
4.08429e-07
6.97928e-09
1.57555e-07
0.00107349
0.00667192
0.0550982
0.179271
0.332124
0.482662
0.634461
0.795271
0.969839
1.15881
0.00221522
0.00179326
0.00144067
0.00111131
0.000806354
0.000558822
0.000375699
0.00024688
0.000160911
0.000105022
6.98119e-05
4.79516e-05
3.46735e-05
2.65016e-05
2.15401e-05
1.86291e-05
1.7159e-05
1.64371e-05
1.64779e-05
1.63507e-05
1.84364e-05
6.20054e-06
0.00018772
0.00104178
0.00216024
0.00384001
0.0102688
0.0281965
0.0629833
0.00158171
0.00136511
0.00115385
0.000950169
0.00075058
0.000570576
0.000424759
0.000313684
0.00023124
0.000171315
0.000128
9.70924e-05
7.50577e-05
5.94297e-05
4.80517e-05
3.96947e-05
3.32865e-05
2.80137e-05
2.29424e-05
1.82487e-05
1.47607e-05
1.23673e-05
1.08095e-05
8.87767e-06
7.16377e-06
3.25171e-06
1.42906e-06
2.31163e-05
1.46586e-05
7.90604e-05
0.000999859
0.000881205
0.00076258
0.000644745
0.000526683
0.000416865
0.000321956
0.000243877
0.000181629
0.000133546
9.73893e-05
7.08747e-05
5.18393e-05
3.84193e-05
2.89797e-05
2.23444e-05
1.75855e-05
1.40201e-05
1.09971e-05
8.29481e-06
6.13418e-06
4.65619e-06
3.75966e-06
3.41424e-06
2.90189e-06
4.42424e-06
1.51604e-07
9.63598e-06
7.9066e-21
0.000113355
0.000715336
0.00065257
0.000584482
0.000515387
0.000444663
0.000372764
0.00030441
0.000243313
0.000191235
0.000148309
0.000113992
8.73143e-05
6.7023e-05
5.18488e-05
4.06305e-05
3.2333e-05
2.6136e-05
2.13608e-05
1.74749e-05
1.39872e-05
1.07641e-05
8.08126e-06
6.05281e-06
4.57971e-06
3.50285e-06
2.71485e-06
2.12239e-06
1.62718e-06
1.04117e-06
3.82352e-07
9.34823e-10
0.000476398
0.000438435
0.000397992
0.000355971
0.000312194
0.000267643
0.00022455
0.000184835
0.000149638
0.000119354
9.40383e-05
7.3446e-05
5.70685e-05
4.43119e-05
3.45418e-05
2.71117e-05
2.14626e-05
1.7103e-05
1.36194e-05
1.0644e-05
8.02682e-06
5.88344e-06
4.27321e-06
3.11812e-06
2.29609e-06
1.72247e-06
1.34811e-06
1.12966e-06
1.01391e-06
8.72048e-07
7.16501e-07
0.000325714
0.000301763
0.000276756
0.000250386
0.000222647
0.000194454
0.000166775
0.000140694
0.000116909
9.57726e-05
7.75012e-05
6.21469e-05
4.95317e-05
3.9403e-05
3.14158e-05
2.51744e-05
2.02944e-05
1.6426e-05
1.32593e-05
1.05229e-05
8.10323e-06
6.08416e-06
4.51663e-06
3.3439e-06
2.46679e-06
1.81026e-06
1.32634e-06
9.71021e-07
7.10168e-07
5.20258e-07
4.02785e-07
0.000240773
0.000227415
0.000211983
0.000195965
0.000178945
0.000161017
0.000142817
0.00012479
0.000107501
9.13582e-05
7.66035e-05
6.34404e-05
5.19933e-05
4.22639e-05
3.41706e-05
2.75634e-05
2.22364e-05
1.79591e-05
1.44986e-05
1.16366e-05
9.18547e-06
7.05636e-06
5.28546e-06
3.90537e-06
2.87226e-06
2.10583e-06
1.54045e-06
1.13182e-06
8.47418e-07
6.57823e-07
5.39397e-07
4.7606e-07
0.00016163
0.000151483
0.000140906
0.000129653
0.000117867
0.000105909
9.39954e-05
8.24307e-05
7.14224e-05
6.11141e-05
5.16768e-05
4.32334e-05
3.58339e-05
2.94957e-05
2.41648e-05
1.97449e-05
1.61066e-05
1.31004e-05
1.05781e-05
8.41181e-06
6.53154e-06
4.95697e-06
3.71057e-06
2.75993e-06
2.04179e-06
1.50129e-06
1.10033e-06
8.08497e-07
5.98764e-07
4.55462e-07
3.62287e-07
0.000109821
0.000102665
9.50714e-05
8.72029e-05
7.92277e-05
7.12458e-05
6.34275e-05
5.58821e-05
4.86838e-05
4.19349e-05
3.57367e-05
3.015e-05
2.5218e-05
2.09488e-05
1.73075e-05
1.42287e-05
1.16288e-05
9.4155e-06
7.50572e-06
5.85286e-06
4.46579e-06
3.35685e-06
2.5023e-06
1.85308e-06
1.36397e-06
1.0019e-06
7.40764e-07
5.57999e-07
4.37384e-07
3.62347e-07
7.56645e-05
7.045e-05
6.51179e-05
5.97204e-05
5.43061e-05
4.89755e-05
4.37753e-05
3.87305e-05
3.39132e-05
2.93878e-05
2.52014e-05
2.14056e-05
1.8025e-05
1.50649e-05
1.25025e-05
1.02938e-05
8.38281e-06
6.71988e-06
5.27937e-06
4.06407e-06
3.08143e-06
2.31407e-06
1.72453e-06
1.27608e-06
9.40351e-07
6.94817e-07
5.19063e-07
3.99312e-07
3.22832e-07
5.269e-05
4.90168e-05
4.53263e-05
4.161e-05
3.7939e-05
3.43315e-05
3.07926e-05
2.73522e-05
2.40552e-05
2.09366e-05
1.80386e-05
1.53903e-05
1.30097e-05
1.08976e-05
9.03736e-06
7.40175e-06
5.96592e-06
4.71683e-06
3.65744e-06
2.79175e-06
2.10766e-06
1.57709e-06
1.17066e-06
8.64702e-07
6.40137e-07
4.79594e-07
3.70473e-07
3.01175e-07
3.71649e-05
3.45992e-05
3.20303e-05
2.94809e-05
2.69639e-05
2.44696e-05
2.20145e-05
1.96191e-05
1.7305e-05
1.51063e-05
1.30495e-05
1.11551e-05
9.43328e-06
7.88484e-06
6.50093e-06
5.27398e-06
4.20003e-06
3.28234e-06
2.52464e-06
1.91846e-06
1.44323e-06
1.07602e-06
7.97312e-07
5.91025e-07
4.42019e-07
3.39341e-07
2.72928e-07
2.65518e-05
2.47633e-05
2.29741e-05
2.12053e-05
1.94419e-05
1.76852e-05
1.59472e-05
1.4238e-05
1.2579e-05
1.09919e-05
9.49655e-06
8.1081e-06
6.8343e-06
5.6762e-06
4.63516e-06
3.71662e-06
2.92644e-06
2.26729e-06
1.73354e-06
1.31057e-06
9.80892e-07
7.28719e-07
5.40765e-07
4.04204e-07
3.09523e-07
2.47668e-07
2.0478e-05
1.92078e-05
1.7953e-05
1.67015e-05
1.5447e-05
1.41882e-05
1.2925e-05
1.16646e-05
1.04187e-05
9.20289e-06
8.0329e-06
6.92307e-06
5.8847e-06
4.92439e-06
4.05047e-06
3.27177e-06
2.59589e-06
2.02592e-06
1.55886e-06
1.18466e-06
8.90256e-07
6.63168e-07
4.92547e-07
3.67562e-07
2.80044e-07
2.22065e-07
1.49505e-05
1.4063e-05
1.31694e-05
1.22734e-05
1.13677e-05
1.04504e-05
9.52182e-06
8.59016e-06
7.66387e-06
6.75517e-06
5.87586e-06
5.03669e-06
4.2473e-06
3.51915e-06
2.86381e-06
2.28914e-06
1.79944e-06
1.3934e-06
1.0644e-06
8.03069e-07
5.9973e-07
4.45679e-07
3.31953e-07
2.51619e-07
1.9773e-07
1.16753e-05
1.10358e-05
1.03981e-05
9.75312e-06
9.09898e-06
8.43127e-06
7.74812e-06
7.05311e-06
6.35087e-06
5.64897e-06
4.95729e-06
4.28561e-06
3.64302e-06
3.04089e-06
2.49225e-06
2.007e-06
1.58911e-06
1.23846e-06
9.51058e-07
7.2045e-07
5.39365e-07
4.00944e-07
2.97896e-07
2.24403e-07
1.74444e-07
8.67681e-06
8.2192e-06
7.75138e-06
7.27715e-06
6.79077e-06
6.28829e-06
5.77039e-06
5.23955e-06
4.70062e-06
4.15979e-06
3.62511e-06
3.10525e-06
2.61175e-06
2.15684e-06
1.74984e-06
1.39534e-06
1.09435e-06
8.44807e-07
6.42486e-07
4.821e-07
3.58359e-07
2.65456e-07
1.98554e-07
1.5249e-07
6.8349e-06
6.50241e-06
6.16315e-06
5.81801e-06
5.46218e-06
5.09182e-06
4.70607e-06
4.30536e-06
3.89262e-06
3.47237e-06
3.05012e-06
2.63278e-06
2.23094e-06
1.85605e-06
1.51676e-06
1.21793e-06
9.61219e-07
7.45916e-07
5.69468e-07
4.28209e-07
3.18154e-07
2.34812e-07
1.74187e-07
1.3193e-07
5.39309e-06
5.14842e-06
4.90278e-06
4.64945e-06
4.38768e-06
4.11389e-06
3.82647e-06
3.52479e-06
3.20993e-06
2.88444e-06
2.55279e-06
2.22031e-06
1.89543e-06
1.58816e-06
1.30704e-06
1.05676e-06
8.39194e-07
6.54557e-07
5.01556e-07
3.77814e-07
2.80431e-07
2.06046e-07
1.51376e-07
1.12842e-07
4.08049e-06
3.90106e-06
3.71358e-06
3.52054e-06
3.31787e-06
3.10336e-06
2.87611e-06
2.63638e-06
2.3856e-06
2.12631e-06
1.86263e-06
1.60145e-06
1.35148e-06
1.12007e-06
9.11605e-07
7.28273e-07
5.70828e-07
4.38897e-07
3.31085e-07
2.45385e-07
1.7932e-07
1.30265e-07
9.53377e-08
3.23787e-06
3.10335e-06
2.96613e-06
2.82257e-06
2.67154e-06
2.5111e-06
2.33986e-06
2.1576e-06
1.96492e-06
1.76319e-06
1.55517e-06
1.3464e-06
1.14405e-06
9.54599e-07
7.81858e-07
6.28224e-07
4.94749e-07
3.81645e-07
2.8823e-07
2.13198e-07
1.54807e-07
1.11012e-07
7.95451e-08
2.47007e-06
2.3685e-06
2.26067e-06
2.14786e-06
2.0278e-06
1.89891e-06
1.76061e-06
1.61289e-06
1.45634e-06
1.29282e-06
1.12657e-06
9.63493e-07
8.09043e-07
6.66805e-07
5.38767e-07
4.26241e-07
3.2981e-07
2.49291e-07
1.83929e-07
1.3258e-07
9.3682e-08
6.5503e-08
1.96683e-06
1.89031e-06
1.80974e-06
1.72533e-06
1.63525e-06
1.53805e-06
1.43282e-06
1.31942e-06
1.19808e-06
1.06999e-06
9.38216e-07
8.07507e-07
6.82233e-07
5.65638e-07
4.59461e-07
3.65084e-07
2.83266e-07
2.14204e-07
1.57552e-07
1.12615e-07
7.82495e-08
5.3173e-08
1.56675e-06
1.5086e-06
1.44876e-06
1.38498e-06
1.31679e-06
1.24308e-06
1.16292e-06
1.07597e-06
9.82116e-07
8.82011e-07
7.77929e-07
6.73535e-07
5.72469e-07
4.77287e-07
3.89673e-07
3.10896e-07
2.41818e-07
1.82882e-07
1.34021e-07
9.48781e-08
6.46827e-08
4.25182e-08
1.20425e-06
1.15929e-06
1.11046e-06
1.05875e-06
1.00277e-06
9.41722e-07
8.75169e-07
8.02768e-07
7.24724e-07
6.42741e-07
5.59596e-07
4.78266e-07
4.00867e-07
3.28843e-07
2.63357e-07
2.05312e-07
1.5524e-07
1.13294e-07
7.93668e-08
5.29748e-08
3.35056e-08
9.61605e-07
9.2695e-07
8.89882e-07
8.50574e-07
8.08021e-07
7.61483e-07
7.1042e-07
6.54483e-07
5.93665e-07
5.29155e-07
4.63107e-07
3.97858e-07
3.35137e-07
2.76175e-07
2.21987e-07
1.73436e-07
1.31098e-07
9.52612e-08
6.60001e-08
4.30531e-08
2.60535e-08
7.67942e-07
7.41066e-07
7.13226e-07
6.83061e-07
6.50471e-07
6.14825e-07
5.75581e-07
5.32318e-07
4.84939e-07
4.34257e-07
3.8188e-07
3.29703e-07
2.79054e-07
2.30966e-07
1.8631e-07
1.45866e-07
1.10229e-07
7.97496e-08
5.46306e-08
3.47812e-08
2.00279e-08
5.92666e-07
5.71499e-07
5.48133e-07
5.23119e-07
4.95775e-07
4.65579e-07
4.321e-07
3.95188e-07
3.55409e-07
3.13975e-07
2.72319e-07
2.31541e-07
1.92444e-07
1.55777e-07
1.22222e-07
9.23506e-08
6.65469e-08
4.50845e-08
2.8007e-08
1.52787e-08
4.74309e-07
4.57517e-07
4.3985e-07
4.20564e-07
3.99478e-07
3.76155e-07
3.50205e-07
3.21422e-07
2.90196e-07
2.57467e-07
2.24295e-07
1.91552e-07
1.59865e-07
1.29858e-07
1.02125e-07
7.71856e-08
5.54395e-08
3.71872e-08
2.25682e-08
1.16465e-08
3.66519e-07
3.53029e-07
3.37939e-07
3.21632e-07
3.03595e-07
2.83465e-07
2.61045e-07
2.36577e-07
2.10741e-07
1.84372e-07
1.58122e-07
1.32503e-07
1.0802e-07
8.51843e-08
6.44498e-08
4.61979e-08
3.07489e-08
1.82967e-08
8.97302e-09
2.938e-07
2.83159e-07
2.71507e-07
2.589e-07
2.4494e-07
2.29338e-07
2.11871e-07
1.92682e-07
1.72286e-07
1.51324e-07
1.30311e-07
1.0965e-07
8.97429e-08
7.10049e-08
5.3838e-08
3.85905e-08
2.55772e-08
1.50253e-08
7.10116e-09
2.35589e-07
2.27195e-07
2.18315e-07
2.08507e-07
1.97672e-07
1.85526e-07
1.71858e-07
1.56778e-07
1.40682e-07
1.24055e-07
1.07283e-07
9.06664e-08
7.45314e-08
5.92138e-08
4.50608e-08
3.23828e-08
2.14738e-08
1.25754e-08
5.86923e-09
1.825e-07
1.7567e-07
1.67937e-07
1.59491e-07
1.50023e-07
1.39348e-07
1.27523e-07
1.14843e-07
1.01677e-07
8.83136e-08
7.49845e-08
6.19449e-08
4.94712e-08
3.78478e-08
2.73529e-08
1.8252e-08
1.07817e-08
5.12865e-09
1.4676e-07
1.41326e-07
1.35325e-07
1.28759e-07
1.21385e-07
1.13055e-07
1.03791e-07
9.38058e-08
8.33845e-08
7.27483e-08
6.2076e-08
5.15691e-08
4.14451e-08
3.19407e-08
2.32934e-08
1.57389e-08
9.49679e-09
4.7491e-09
1.18107e-07
1.13807e-07
1.09217e-07
1.0408e-07
9.83273e-08
9.18157e-08
8.45396e-08
7.66728e-08
6.84292e-08
5.9981e-08
5.1463e-08
4.30275e-08
3.48451e-08
2.7111e-08
2.00214e-08
1.37819e-08
8.59068e-09
4.61642e-09
9.1811e-08
8.82688e-08
8.42143e-08
7.97188e-08
7.46223e-08
6.89145e-08
6.2727e-08
5.62281e-08
4.95412e-08
4.27652e-08
3.6016e-08
2.94309e-08
2.31631e-08
1.73783e-08
1.22498e-08
7.95131e-09
4.63539e-09
7.4193e-08
7.13742e-08
6.82249e-08
6.47211e-08
6.07411e-08
5.62786e-08
5.14253e-08
4.63084e-08
4.1023e-08
3.56442e-08
3.02609e-08
2.49804e-08
1.99234e-08
1.52253e-08
1.10318e-08
7.48652e-09
6.00334e-08
5.78032e-08
5.53968e-08
5.26582e-08
4.9549e-08
4.60571e-08
4.22487e-08
3.82221e-08
3.40526e-08
2.97961e-08
2.5519e-08
2.1303e-08
1.72438e-08
1.34484e-08
1.00363e-08
7.1267e-09
4.69273e-08
4.50755e-08
4.29168e-08
4.0488e-08
3.77568e-08
3.47735e-08
3.16169e-08
2.83409e-08
2.49866e-08
2.16033e-08
1.82533e-08
1.50104e-08
1.19596e-08
9.19673e-09
6.8193e-09
3.81837e-08
3.67124e-08
3.50414e-08
3.31528e-08
3.10232e-08
2.86965e-08
2.62306e-08
2.36642e-08
2.10291e-08
1.83622e-08
1.57108e-08
1.31312e-08
1.06901e-08
8.46323e-09
6.52848e-09
3.11181e-08
2.99618e-08
2.86906e-08
2.72174e-08
2.55588e-08
2.37476e-08
2.18232e-08
1.98167e-08
1.77522e-08
1.56575e-08
1.35677e-08
1.15259e-08
9.58246e-09
7.79652e-09
6.22903e-09
2.45195e-08
2.35442e-08
2.23915e-08
2.11033e-08
1.96941e-08
1.8196e-08
1.66332e-08
1.50232e-08
1.33862e-08
1.17477e-08
1.01397e-08
8.60044e-09
7.175e-09
5.9104e-09
2.01133e-08
1.93458e-08
1.84598e-08
1.7463e-08
1.63709e-08
1.52107e-08
1.39995e-08
1.27495e-08
1.14753e-08
1.01957e-08
8.9345e-09
7.72031e-09
6.58707e-09
5.5705e-09
1.65281e-08
1.59286e-08
1.52586e-08
1.44873e-08
1.36437e-08
1.27483e-08
1.18119e-08
1.08434e-08
9.85446e-09
8.85855e-09
7.87318e-09
6.91938e-09
6.02232e-09
5.20822e-09
1.31503e-08
1.26403e-08
1.20424e-08
1.13932e-08
1.07034e-08
9.98093e-09
9.23327e-09
8.46875e-09
7.69717e-09
6.93087e-09
6.18508e-09
5.47811e-09
4.82882e-09
1.08816e-08
1.04835e-08
1.00271e-08
9.5297e-09
8.99973e-09
8.44479e-09
7.87042e-09
7.28243e-09
6.68744e-09
6.09408e-09
5.51326e-09
4.95805e-09
4.442e-09
9.01545e-09
8.71164e-09
8.36431e-09
7.98386e-09
7.57864e-09
7.15487e-09
6.71592e-09
6.26545e-09
5.80808e-09
5.35004e-09
4.89901e-09
4.4643e-09
4.05519e-09
7.48335e-09
7.24895e-09
6.99027e-09
6.69963e-09
6.39075e-09
6.06831e-09
5.73356e-09
5.38896e-09
5.03807e-09
4.68538e-09
4.33611e-09
3.99669e-09
3.67333e-09
6.04374e-09
5.84915e-09
5.62695e-09
5.39242e-09
5.14729e-09
4.89214e-09
4.62911e-09
4.36072e-09
4.09002e-09
3.82042e-09
3.55634e-09
3.30157e-09
5.04519e-09
4.89472e-09
4.72736e-09
4.54995e-09
4.36358e-09
4.16958e-09
3.96949e-09
3.76494e-09
3.5579e-09
3.35047e-09
3.14594e-09
2.94578e-09
4.21094e-09
4.09719e-09
3.97106e-09
3.83647e-09
3.69515e-09
3.54829e-09
3.39663e-09
3.24113e-09
3.08309e-09
2.924e-09
2.76558e-09
3.5141e-09
3.42638e-09
3.3331e-09
3.23072e-09
3.12356e-09
3.01248e-09
2.89757e-09
2.77941e-09
2.65887e-09
2.53701e-09
2.41456e-09
2.86233e-09
2.79195e-09
2.71378e-09
2.63264e-09
2.54848e-09
2.46133e-09
2.37159e-09
2.27983e-09
2.18679e-09
2.09268e-09
2.38601e-09
2.33093e-09
2.27205e-09
2.21081e-09
2.14704e-09
2.081e-09
2.01304e-09
1.94355e-09
1.87283e-09
1.80085e-09
1.9825e-09
1.94071e-09
1.89618e-09
1.84989e-09
1.80171e-09
1.75192e-09
1.70079e-09
1.64841e-09
1.59489e-09
1.54013e-09
1.64337e-09
1.61174e-09
1.57836e-09
1.54353e-09
1.50741e-09
1.47021e-09
1.43198e-09
1.39272e-09
1.35245e-09
1.31099e-09
1.36072e-09
1.33658e-09
1.31246e-09
1.28633e-09
1.25937e-09
1.23174e-09
1.20328e-09
1.17391e-09
1.14366e-09
1.11234e-09
1.10874e-09
1.09093e-09
1.07137e-09
1.05133e-09
1.03075e-09
1.00945e-09
9.87412e-10
9.64647e-10
9.40909e-10
9.19733e-10
9.05811e-10
8.91212e-10
8.76187e-10
8.60599e-10
8.44469e-10
8.27786e-10
8.10605e-10
7.92523e-10
7.61004e-10
7.50109e-10
7.38764e-10
7.2708e-10
7.14992e-10
7.0255e-10
6.89751e-10
6.76589e-10
6.26215e-10
6.17286e-10
6.08061e-10
5.9865e-10
5.89032e-10
5.79245e-10
5.69311e-10
5.59139e-10
5.1092e-10
5.03305e-10
4.95618e-10
4.87851e-10
4.80056e-10
4.72273e-10
4.64495e-10
4.56657e-10
4.13019e-10
4.0634e-10
4.0005e-10
3.9356e-10
3.87189e-10
3.80968e-10
3.74866e-10
3.68833e-10
3.25603e-10
3.20268e-10
3.14844e-10
3.09637e-10
3.04629e-10
2.99812e-10
2.9512e-10
2.60607e-10
2.55946e-10
2.51441e-10
2.47144e-10
2.43058e-10
2.39181e-10
2.35472e-10
2.12449e-10
2.08401e-10
2.04507e-10
2.00807e-10
1.97316e-10
1.9402e-10
1.90929e-10
1.7771e-10
1.7414e-10
1.70717e-10
1.67457e-10
1.64353e-10
1.61429e-10
1.58708e-10
1.49294e-10
1.46204e-10
1.43225e-10
1.40362e-10
1.37607e-10
1.35012e-10
1.3257e-10
1.24397e-10
1.21674e-10
1.1903e-10
1.1646e-10
1.13995e-10
1.11693e-10
1.09503e-10
1.03245e-10
1.0072e-10
9.81981e-11
9.56988e-11
9.32813e-11
9.09985e-11
8.44832e-11
8.20194e-11
7.95497e-11
7.70783e-11
7.46616e-11
7.233e-11
6.55432e-11
6.25607e-11
5.96505e-11
5.6809e-11
5.41505e-11
5.17348e-11
4.34965e-11
4.00185e-11
3.65326e-11
3.31454e-11
2.99481e-11
2.67025e-11
2.39843e-11
2.16311e-11
1.96869e-11
1.82035e-11
2.5997e-11
2.42434e-11
2.29664e-11
2.20949e-11
2.15671e-11
9.02319e-11
1.04053e-10
1.18438e-10
1.32954e-10
1.47147e-10
5.09787e-10
5.2681e-10
5.40437e-10
5.5062e-10
5.57752e-10
1.93494e-09
1.98328e-09
2.01913e-09
2.04282e-09
2.05653e-09
)
;

boundaryField
{
    inlet
    {
        type            calculated;
        value           nonuniform List<scalar> 5(1.74505e-08 1.84216e-08 1.9318e-08 2.01345e-08 2.0867e-08);
    }
    outlet
    {
        type            calculated;
        value           nonuniform List<scalar> 0();
    }
    walls
    {
        type            calculated;
        value           uniform 0;
    }
    frontAndBack
    {
        type            empty;
    }
    procBoundary1to0
    {
        type            processor;
        value           nonuniform List<scalar> 
94
(
0.000170704
0.000170704
0.000116631
0.000116631
8.05903e-05
8.05903e-05
5.63188e-05
5.63188e-05
3.9726e-05
3.9726e-05
2.83556e-05
2.83556e-05
2.17513e-05
1.58567e-05
1.58567e-05
1.23229e-05
9.14041e-06
9.14041e-06
7.1717e-06
5.63951e-06
4.26136e-06
4.26136e-06
3.37091e-06
2.57077e-06
2.57077e-06
2.04213e-06
1.62357e-06
1.24853e-06
1.24853e-06
9.95205e-07
7.93681e-07
6.13382e-07
6.13382e-07
4.90119e-07
3.79524e-07
3.79524e-07
3.03829e-07
2.43419e-07
1.89033e-07
1.89033e-07
1.51819e-07
1.22066e-07
9.51637e-08
9.51637e-08
7.6787e-08
6.20588e-08
4.86593e-08
4.86593e-08
3.95169e-08
3.21527e-08
2.54141e-08
2.54141e-08
2.07958e-08
1.70518e-08
1.36093e-08
1.36093e-08
1.12281e-08
9.28012e-09
7.6831e-09
6.22055e-09
6.22055e-09
5.17677e-09
4.31038e-09
3.58866e-09
2.92883e-09
2.92883e-09
2.43582e-09
2.02067e-09
1.67233e-09
1.38213e-09
1.12663e-09
1.12663e-09
9.3285e-10
7.71309e-10
6.34756e-10
5.18276e-10
4.19378e-10
3.31311e-10
3.31311e-10
2.65431e-10
2.16699e-10
1.81405e-10
1.5245e-10
1.27154e-10
1.05745e-10
8.68898e-11
6.84262e-11
4.69247e-11
4.69247e-11
2.97201e-11
2.82567e-11
7.70214e-11
4.9036e-10
1.87329e-09
)
;
    }
    procBoundary1to2
    {
        type            processor;
        value           nonuniform List<scalar> 
84
(
991.504
1.37351
0.115402
0.000943627
0.00019041
7.01463e-11
1.26664e-07
3.05134e-07
4.82005e-07
3.43215e-07
3.51633e-07
3.02371e-07
2.80243e-07
2.49981e-07
2.24316e-07
1.98132e-07
1.73723e-07
1.50617e-07
1.29188e-07
1.09434e-07
9.14226e-08
7.52087e-08
6.08557e-08
4.83552e-08
3.76253e-08
2.85848e-08
2.11492e-08
1.51986e-08
1.05771e-08
7.11732e-09
4.64904e-09
3.00958e-09
2.04163e-09
1.59116e-09
1.51893e-09
1.70589e-09
2.05022e-09
2.47021e-09
4.73374e-09
4.73374e-09
4.84399e-09
4.93093e-09
4.97077e-09
4.94811e-09
4.86023e-09
4.71198e-09
4.5088e-09
4.26097e-09
3.98245e-09
3.68435e-09
3.37503e-09
3.06262e-09
2.75636e-09
2.60997e-09
2.60997e-09
2.29353e-09
1.99891e-09
1.72858e-09
1.48478e-09
1.26878e-09
1.0802e-09
9.1647e-10
7.74142e-10
6.62971e-10
6.62971e-10
5.48826e-10
4.48834e-10
3.62901e-10
2.9061e-10
2.3201e-10
1.88101e-10
1.56212e-10
1.30323e-10
1.07545e-10
8.88564e-11
8.88564e-11
7.01245e-11
4.96055e-11
2.70145e-11
1.71933e-11
2.12646e-11
1.60479e-10
5.62582e-10
2.06236e-09
)
;
    }
    procBoundary1to5
    {
        type            processor;
        value           nonuniform List<scalar> 
13
(
0.0102181
0.0102181
0.00438841
0.00263091
0.00263091
0.00178083
0.00110545
0.00110545
0.000765309
0.000507369
0.000345912
0.000345912
0.000251965
)
;
    }
}


// ************************************************************************* //
