/*--------------------------------*- C++ -*----------------------------------*\
| =========                 |                                                 |
| \\      /  F ield         | OpenFOAM: The Open Source CFD Toolbox           |
|  \\    /   O peration     | Version:  2306                                  |
|   \\  /    A nd           | Website:  www.openfoam.com                      |
|    \\/     M anipulation  |                                                 |
\*---------------------------------------------------------------------------*/
FoamFile
{
    version     2.0;
    format      ascii;
    arch        "LSB;label=32;scalar=64";
    class       volVectorField;
    location    "175";
    object      U;
}
// * * * * * * * * * * * * * * * * * * * * * * * * * * * * * * * * * * * * * //

dimensions      [0 1 -1 0 0 0 0];

internalField   nonuniform List<vector> 
1340
(
(1.61621 1.91536 5.53519e-15)
(3.59332 -0.416341 -1.51452e-15)
(5.83981 -2.41012 4.81907e-16)
(8.12273 -3.86863 1.67009e-15)
(10.2203 -4.79911 2.52943e-15)
(12.0763 -5.33101 7.91065e-16)
(13.6996 -5.58455 -1.34676e-15)
(15.1134 -5.65544 -1.20756e-15)
(16.3498 -5.60655 6.48075e-16)
(17.4403 -5.48494 2.42986e-16)
(18.4173 -5.31884 8.13053e-16)
(19.3119 -5.12725 -6.67052e-16)
(20.1458 -4.91253 -1.31594e-16)
(20.937 -4.67588 -5.774e-16)
(21.6964 -4.40757 2.84208e-16)
(22.425 -4.09336 7.73635e-16)
(23.0917 -3.70816 -2.57306e-16)
(23.6284 -3.25187 -2.81327e-16)
(24.0176 -2.76884 -2.67257e-16)
(24.2906 -2.29787 -8.0748e-18)
(24.4842 -1.79262 7.10529e-18)
(24.6131 -1.18819 2.7534e-19)
(24.6774 -0.514627 -5.69303e-18)
(24.6555 0.162097 9.77684e-17)
(24.5334 0.794611 6.82149e-17)
(24.3125 1.36074 1.63021e-16)
(24.0012 1.85432 5.37103e-16)
(23.5996 2.27774 1.20721e-17)
(2.61459 5.7182 -2.87068e-15)
(3.81537 3.15268 -4.63028e-15)
(5.3227 0.881801 2.94241e-15)
(7.10119 -0.973099 -1.56821e-15)
(8.99448 -2.29588 2.14482e-16)
(10.8369 -3.15238 -4.9383e-16)
(12.5535 -3.66555 2.84155e-17)
(14.1195 -3.93132 1.44692e-16)
(15.5283 -4.03107 4.87543e-16)
(16.7925 -4.01712 -8.85109e-16)
(17.9298 -3.93319 9.51087e-16)
(18.964 -3.80363 -2.22569e-16)
(19.9193 -3.64586 -4.11458e-16)
(20.8188 -3.45661 -2.8621e-16)
(21.678 -3.23322 -6.45838e-16)
(22.5091 -2.95795 -7.03402e-16)
(23.3138 -2.60916 -7.57964e-16)
(24.0695 -2.14603 2.99006e-16)
(24.7236 -1.57609 -1.96774e-17)
(25.2499 -0.963243 1.21402e-16)
(25.6591 -0.332063 8.70582e-17)
(25.9451 0.28059 5.44826e-18)
(26.1003 0.82885 1.34098e-20)
(26.1274 1.29656 -1.59838e-18)
(26.0567 1.69228 -6.30059e-17)
(25.9142 2.03923 -2.79398e-17)
(25.7103 2.35688 -2.36624e-16)
(25.446 2.65356 -2.09101e-16)
(25.1119 2.93264 -8.31994e-18)
(5.11188 6.4542 1.29871e-15)
(5.90028 4.13076 1.87666e-15)
(7.00468 2.05223 1.56724e-15)
(8.37205 0.295522 -1.35729e-15)
(9.87199 -1.08716 -9.99312e-16)
(11.3887 -2.12026 2.57291e-16)
(12.8548 -2.86274 9.68619e-16)
(14.2352 -3.37125 1.3687e-15)
(15.5125 -3.69684 -2.69264e-16)
(16.6854 -3.88284 -3.18199e-17)
(17.7612 -3.96679 9.24041e-16)
(18.7537 -3.9744 1.75446e-17)
(19.68 -3.92355 6.98304e-16)
(20.5576 -3.81918 6.2294e-16)
(21.3992 -3.6631 1.44645e-15)
(22.2134 -3.44684 1.50217e-15)
(23.0005 -3.15672 6.59164e-16)
(23.7409 -2.77215 1.28924e-16)
(24.3911 -2.3083 -1.17543e-16)
(24.9268 -1.81463 3.3215e-16)
(25.3584 -1.31337 -6.21e-17)
(25.6995 -0.809111 -3.22169e-17)
(25.9555 -0.297919 1.94803e-18)
(26.1268 0.221926 4.84931e-18)
(26.2153 0.750196 2.3453e-17)
(26.2226 1.27585 5.71311e-17)
(26.1484 1.78059 7.86771e-17)
(25.9925 2.24889 5.00837e-17)
(25.7453 2.67344 -1.31461e-16)
(6.96993 9.07897 8.22457e-16)
(7.19753 6.88127 -9.95059e-16)
(7.72189 4.80127 1.0783e-17)
(8.52299 2.90102 3.36623e-16)
(9.56407 1.24728 2.33331e-15)
(10.7542 -0.112133 1.71928e-16)
(12.0106 -1.17364 6.64737e-16)
(13.2752 -1.96871 -1.81319e-15)
(14.508 -2.53758 -1.12148e-15)
(15.6837 -2.9197 3.37215e-16)
(16.7906 -3.15431 1.94014e-16)
(17.8266 -3.27534 -9.29752e-16)
(18.7964 -3.30953 9.21063e-17)
(19.7099 -3.27632 -2.24167e-16)
(20.5788 -3.18485 5.82009e-16)
(21.4125 -3.03805 -6.11268e-16)
(22.2172 -2.83017 -8.85927e-16)
(22.9921 -2.54969 1.10528e-16)
(23.7205 -2.17882 2.15729e-16)
(24.3664 -1.72318 4.12871e-16)
(24.9057 -1.22052 -2.96492e-16)
(25.3437 -0.693904 -3.6995e-17)
(25.6913 -0.154322 1.15835e-17)
(25.9536 0.387574 -3.09781e-18)
(26.1331 0.91659 -9.77742e-19)
(26.2354 1.41671 6.42064e-18)
(26.2667 1.8724 -1.67581e-17)
(26.231 2.28091 -2.90479e-17)
(26.1297 2.6455 -2.28262e-17)
(25.9532 2.97298 1.36978e-16)
(8.8858 9.07359 -1.18425e-15)
(8.97516 7.13078 3.5894e-15)
(9.31569 5.26286 -2.76889e-15)
(9.89791 3.53541 -1.08966e-17)
(10.694 1.99973 3.49885e-17)
(11.6402 0.694056 -3.44115e-16)
(12.6742 -0.369958 -5.04146e-16)
(13.7493 -1.20998 -1.01635e-15)
(14.8284 -1.8527 1.24391e-15)
(15.8843 -2.32398 5.30084e-16)
(16.9012 -2.65361 -1.11055e-16)
(17.8715 -2.86784 2.81169e-16)
(18.7937 -2.98868 -5.13201e-16)
(19.6721 -3.03257 3.46075e-16)
(20.5137 -3.00907 -3.33664e-16)
(21.3248 -2.92135 3.7527e-16)
(22.1093 -2.76598 3.4369e-16)
(22.865 -2.53459 -6.01388e-17)
(23.5772 -2.21623 -5.06257e-16)
(24.2153 -1.81696 -1.24036e-16)
(24.7559 -1.36884 -4.29474e-17)
(25.1998 -0.89718 1.00642e-16)
(25.5557 -0.414693 9.9951e-19)
(25.8276 0.0692623 -2.6211e-18)
(26.0177 0.544605 1.35065e-17)
(26.1295 1.00328 4.12073e-18)
(26.1685 1.4457 1.75558e-17)
(26.1388 1.87168 5.95678e-17)
(26.0436 2.27758 1.73601e-17)
(25.8774 2.66015 2.64436e-17)
(10.7287 10.6909 -5.6764e-16)
(10.5065 8.99236 1.12812e-15)
(10.5004 7.25847 -9.90867e-16)
(10.7111 5.57361 -8.54166e-16)
(11.1329 4.00229 -9.42293e-16)
(11.743 2.58241 -9.42266e-16)
(12.496 1.34531 1.44814e-15)
(13.3453 0.30718 -7.02308e-16)
(14.2551 -0.540708 7.82561e-16)
(15.194 -1.21492 1.49958e-16)
(16.1362 -1.73133 -2.35097e-16)
(17.0649 -2.11135 -6.55603e-16)
(17.9692 -2.37495 -5.17826e-16)
(18.8435 -2.54028 2.84501e-16)
(19.6871 -2.6219 -1.26173e-16)
(20.5026 -2.62954 -3.84355e-16)
(21.293 -2.56757 -3.39035e-16)
(22.0593 -2.43492 -2.40237e-16)
(22.7983 -2.22573 3.00146e-16)
(23.4963 -1.93235 -9.89423e-17)
(24.1268 -1.55915 -2.81014e-16)
(24.6676 -1.13158 3.09725e-16)
(25.116 -0.673077 2.09578e-17)
(25.4781 -0.195988 1.91808e-18)
(25.7572 0.290729 3.60493e-18)
(25.9548 0.776543 -1.92884e-17)
(26.0743 1.2522 8.74087e-20)
(26.1206 1.70766 -8.62484e-18)
(26.0975 2.1331 -2.14089e-17)
(26.0082 2.5226 -7.71654e-18)
(25.8466 2.87472 7.49488e-17)
(12.1485 10.3841 -2.70631e-16)
(11.8953 8.86694 1.1986e-16)
(11.824 7.30603 1.17244e-15)
(11.9413 5.77896 8.582e-16)
(12.2436 4.34721 3.66504e-16)
(12.712 3.03764 -9.41309e-16)
(13.313 1.87626 -4.53114e-16)
(14.0109 0.879811 7.36677e-16)
(14.7784 0.0432908 7.91589e-17)
(15.5899 -0.643838 -3.0482e-17)
(16.4231 -1.19106 -5.33413e-16)
(17.2621 -1.61349 4.35945e-16)
(18.0951 -1.92558 9.73953e-16)
(18.9137 -2.14098 -5.47218e-16)
(19.7142 -2.27117 -6.19853e-17)
(20.4956 -2.32457 -5.60246e-16)
(21.258 -2.30507 -2.82882e-16)
(22.0004 -2.21244 2.95786e-16)
(22.7183 -2.04256 -7.03476e-16)
(23.3989 -1.7906 2.42058e-16)
(24.0189 -1.46076 3.20869e-16)
(24.5572 -1.07402 -1.07117e-16)
(25.0083 -0.65237 -9.01763e-17)
(25.3759 -0.209224 -1.73215e-17)
(25.6624 0.245277 -1.18066e-18)
(25.8689 0.699923 1.09844e-18)
(25.9982 1.14392 -2.87465e-17)
(26.0547 1.56947 4.35861e-17)
(26.0418 1.97309 -8.11172e-18)
(25.9618 2.35128 4.57037e-17)
(25.8088 2.70256 6.72184e-17)
(13.3728 10.082 -3.35688e-18)
(13.0995 8.71488 -1.87802e-16)
(12.983 7.2996 -1.95751e-15)
(13.0321 5.90944 7.90903e-16)
(13.2441 4.60099 -1.13622e-16)
(13.6037 3.3931 1.02304e-15)
(14.0846 2.30807 -5.65704e-16)
(14.6586 1.36169 5.27432e-16)
(15.305 0.550381 -7.66352e-16)
(16.0038 -0.132899 -5.8709e-16)
(16.7363 -0.69326 3.04424e-16)
(17.4889 -1.14108 3.29314e-16)
(18.2501 -1.48589 3.30141e-16)
(19.0106 -1.73708 1.93703e-16)
(19.7648 -1.9031 -2.27123e-16)
(20.5091 -1.99067 9.06892e-16)
(21.2413 -2.0031 -2.64583e-16)
(21.9583 -1.94066 4.23605e-16)
(22.6544 -1.80051 4.3891e-16)
(23.3173 -1.57977 -1.42217e-18)
(23.926 -1.28232 -8.41822e-17)
(24.4603 -0.924996 -6.60917e-17)
(24.9126 -0.527852 1.42967e-17)
(25.2844 -0.104464 1.82508e-17)
(25.577 0.334872 5.82518e-18)
(25.791 0.779192 9.65424e-18)
(25.9283 1.21804 1.9503e-17)
(25.9927 1.64323 -8.81447e-17)
(25.9871 2.04669 -5.16093e-17)
(25.9139 2.42229 1.36172e-17)
(25.7671 2.76666 -1.28959e-16)
(14.8402 10.9539 -4.75677e-16)
(14.4399 9.78859 -2.88963e-16)
(14.1543 8.54771 -6.79035e-16)
(14.0062 7.25672 -1.67284e-16)
(14.0051 5.98565 8.60647e-16)
(14.1483 4.78598 6.51289e-16)
(14.4236 3.67126 -1.87418e-16)
(14.8091 2.66037 1.56903e-15)
(15.282 1.76781 -3.93884e-17)
(15.8264 0.990169 1.14532e-15)
(16.4266 0.322112 4.63035e-16)
(17.0677 -0.23928 -4.17394e-16)
(17.7385 -0.700949 3.78498e-17)
(18.4289 -1.06891 -8.6649e-16)
(19.1297 -1.34914 5.72792e-17)
(19.8345 -1.54719 5.02458e-16)
(20.5381 -1.66777 2.15634e-17)
(21.2364 -1.71323 3.41317e-16)
(21.9247 -1.68369 -4.29401e-16)
(22.5966 -1.57699 -2.75627e-16)
(23.2398 -1.3915 -4.89358e-16)
(23.8352 -1.13076 -3.02118e-16)
(24.3633 -0.808595 -1.9094e-17)
(24.8151 -0.443065 -8.29295e-17)
(25.1899 -0.0478371 -1.55845e-18)
(25.4879 0.366418 -5.77285e-18)
(25.7091 0.788561 -1.35622e-18)
(25.8549 1.20771 2.6837e-17)
(25.9282 1.61468 -1.71757e-17)
(25.9316 2.00311 1.01007e-16)
(25.867 2.36728 -2.49904e-16)
(25.7284 2.70359 3.17608e-17)
(15.3787 9.50571 -7.82218e-16)
(15.0867 8.37262 2.18185e-15)
(14.9161 7.18911 1.15562e-15)
(14.8776 6.02243 4.14383e-16)
(14.9682 4.91897 -1.71708e-15)
(15.1774 3.88874 -9.75268e-16)
(15.4868 2.94811 -1.76583e-15)
(15.8772 2.11012 -1.62173e-15)
(16.336 1.3708 -3.69797e-16)
(16.851 0.725509 2.50662e-16)
(17.4102 0.172689 -2.64126e-16)
(18.0052 -0.292719 -3.37344e-16)
(18.6274 -0.674038 3.64234e-16)
(19.2688 -0.974637 -4.8535e-16)
(19.9227 -1.19764 5.36168e-17)
(20.5834 -1.34564 1.90677e-16)
(21.2454 -1.41962 3.85501e-16)
(21.903 -1.41933 -1.74114e-16)
(22.549 -1.3429 -9.75884e-17)
(23.1713 -1.18924 -7.95989e-17)
(23.7518 -0.961583 2.39983e-16)
(24.272 -0.671269 -1.18558e-17)
(24.7216 -0.334159 5.18986e-17)
(25.098 0.0364206 -7.32833e-18)
(25.4003 0.429658 -3.86638e-18)
(25.6278 0.834533 -1.20774e-17)
(25.7811 1.24006 -3.12027e-17)
(25.8625 1.63702 -9.47423e-17)
(25.8741 2.01753 1.84564e-17)
(25.8173 2.37443 2.55257e-16)
(25.6863 2.70299 3.23412e-16)
(15.9168 8.1943 -1.40766e-15)
(15.7306 7.10497 -9.07129e-16)
(15.6642 6.03021 1.0924e-15)
(15.7141 5.01226 1.52067e-15)
(15.8712 4.05851 2.41164e-16)
(16.1196 3.18353 1.05503e-15)
(16.4425 2.39903 9.90202e-16)
(16.8297 1.70031 -5.93577e-16)
(17.2713 1.08268 3.97398e-16)
(17.758 0.545164 -1.02752e-16)
(18.2837 0.0839058 6.80863e-16)
(18.8416 -0.303065 -4.17378e-16)
(19.425 -0.61704 -6.7979e-16)
(20.0278 -0.859091 -2.35949e-16)
(20.644 -1.0301 -5.67277e-16)
(21.2678 -1.12984 -4.99977e-16)
(21.8926 -1.15729 -4.41137e-16)
(22.5108 -1.11038 8.18443e-16)
(23.1107 -0.988209 5.04394e-16)
(23.6747 -0.79361 8.10563e-17)
(24.185 -0.535774 2.72036e-16)
(24.6306 -0.228592 4.55774e-17)
(25.0072 0.115161 1.22136e-17)
(25.3129 0.484618 -1.34786e-18)
(25.546 0.868792 -2.4493e-18)
(25.7066 1.25667 2.17764e-17)
(25.7961 1.63846 -8.0188e-18)
(25.8161 2.00634 6.22849e-17)
(25.7676 2.35292 1.35682e-16)
(25.645 2.67281 -5.88954e-16)
(16.4641 7.00995 7.09112e-17)
(16.3765 6.01667 6.48002e-16)
(16.395 5.07492 -1.91477e-15)
(16.5108 4.1906 -1.27984e-15)
(16.7098 3.3765 8.55916e-16)
(16.9774 2.6432 1.24912e-15)
(17.3045 1.98542 -6.46049e-16)
(17.6834 1.39833 -9.03808e-17)
(18.1065 0.880967 -5.22219e-17)
(18.5696 0.429746 -1.70525e-16)
(19.0677 0.0436393 6.26617e-16)
(19.5954 -0.277349 8.60123e-16)
(20.1477 -0.532807 8.02843e-17)
(20.719 -0.722107 6.12236e-16)
(21.3032 -0.843785 2.11125e-16)
(21.8938 -0.896016 3.29167e-16)
(22.4828 -0.876388 -5.12207e-16)
(23.0588 -0.783763 -4.19614e-17)
(23.6048 -0.620331 -2.58593e-16)
(24.1035 -0.393567 -2.93916e-16)
(24.5434 -0.115402 -1.09629e-16)
(24.9188 0.202179 2.69009e-17)
(25.2265 0.548442 8.77089e-18)
(25.4644 0.912614 5.46503e-18)
(25.6314 1.28372 1.42402e-18)
(25.7285 1.65177 -3.58349e-17)
(25.7566 2.00841 1.19315e-17)
(25.7164 2.34532 -2.2406e-16)
(25.6021 2.65614 1.37636e-17)
(17.0244 5.9874 -1.7036e-15)
(17.0183 5.11406 4.47584e-16)
(17.1012 4.29263 8.09432e-16)
(17.2602 3.53458 -1.39797e-15)
(17.4822 2.84973 -9.50328e-16)
(17.7591 2.23237 8.48389e-16)
(18.0843 1.67714 1.81132e-16)
(18.4519 1.18282 -5.78203e-16)
(18.859 0.746012 5.43159e-16)
(19.3021 0.365951 -2.81639e-16)
(19.7773 0.0433695 9.45355e-16)
(20.2806 -0.220399 2.46069e-16)
(20.8071 -0.423574 -3.31238e-17)
(21.3512 -0.563577 1.27714e-16)
(21.9065 -0.637812 -9.72798e-17)
(22.4651 -0.643373 -6.04442e-17)
(23.0159 -0.578701 -5.75231e-16)
(23.5425 -0.445166 2.5287e-17)
(24.0279 -0.248657 2.12349e-16)
(24.4602 0.000631263 -7.65315e-18)
(24.8328 0.291666 -2.9272e-17)
(25.1415 0.61401 -1.28335e-17)
(25.3831 0.957111 3.72042e-17)
(25.5561 1.31011 -1.76416e-17)
(25.6604 1.66279 1.0829e-16)
(25.6965 2.0065 -2.82108e-16)
(25.6646 2.33248 4.87089e-16)
(25.559 2.63358 2.80205e-16)
(17.5905 5.1348 1.03221e-16)
(17.6471 4.3705 -5.75755e-16)
(17.7735 3.66417 5.48741e-17)
(17.9577 3.02486 5.39022e-16)
(18.1925 2.44641 -7.34368e-16)
(18.472 1.92326 2.03892e-16)
(18.7914 1.45376 -5.65142e-17)
(19.1487 1.03432 -3.45292e-16)
(19.5418 0.664211 -5.3203e-16)
(19.968 0.344509 -4.75763e-16)
(20.4243 0.0770245 -2.26562e-16)
(20.907 -0.135779 -3.38451e-16)
(21.4111 -0.290512 -1.53078e-16)
(21.9304 -0.383817 -2.12666e-16)
(22.4577 -0.412154 7.81341e-17)
(22.9822 -0.373298 4.80601e-16)
(23.4879 -0.267846 7.3323e-17)
(23.9584 -0.100283 9.42546e-17)
(24.3816 0.120865 6.39808e-17)
(24.7499 0.385646 2.34377e-17)
(25.0582 0.684074 5.96924e-18)
(25.3026 1.00592 -2.8949e-17)
(25.4807 1.34053 -2.49475e-17)
(25.5917 1.67763 1.96519e-16)
(25.6356 2.00822 -4.96171e-17)
(25.6118 2.32297 -4.37397e-16)
(25.5151 2.61384 3.42589e-16)
(18.1526 4.42897 -8.51839e-17)
(18.2524 3.77014 9.46256e-16)
(18.4053 3.17328 -2.56829e-16)
(18.6046 2.63199 2.22881e-16)
(18.8451 2.14045 -1.36394e-16)
(19.1227 1.69663 8.07605e-16)
(19.436 1.29666 1.78556e-16)
(19.784 0.939486 -2.65495e-17)
(20.1649 0.626176 5.84508e-16)
(20.577 0.358734 -3.68798e-16)
(21.0173 0.140067 2.90804e-18)
(21.4818 -0.0259183 6.20751e-16)
(21.9651 -0.13524 6.27926e-17)
(22.4605 -0.183796 -2.32795e-16)
(22.9577 -0.168676 -2.11365e-16)
(23.4414 -0.089521 1.4542e-16)
(23.8955 0.0504445 3.08869e-18)
(24.308 0.244234 -2.46184e-17)
(24.6705 0.48302 1.89178e-17)
(24.9771 0.757418 3.41978e-18)
(25.2232 1.05761 -9.35003e-18)
(25.4056 1.37321 8.77361e-17)
(25.5228 1.69395 -1.18592e-16)
(25.5741 2.01057 1.15451e-16)
(25.5586 2.31333 -4.8273e-16)
(25.4708 2.59341 -3.74085e-17)
(18.6215 4.47165 4.03183e-16)
(18.6994 3.85669 6.89794e-16)
(18.8262 3.29934 3.1247e-18)
(18.9957 2.79318 6.73206e-16)
(19.203 2.3323 4.19134e-17)
(19.4443 1.9142 -1.03803e-15)
(19.7189 1.53474 -1.94744e-16)
(20.0264 1.19253 -1.43416e-16)
(20.3659 0.888351 3.99683e-17)
(20.7365 0.624142 1.34826e-16)
(21.1364 0.402961 -4.89222e-16)
(21.5624 0.229026 -2.55452e-16)
(22.0099 0.106736 3.54895e-16)
(22.4731 0.0406472 3.88867e-16)
(22.9424 0.0342942 -2.33088e-16)
(23.4031 0.0890352 -1.09184e-17)
(23.8396 0.202954 -2.9727e-16)
(24.2398 0.370414 5.54439e-17)
(24.5951 0.583733 1.47158e-17)
(24.8987 0.834253 -4.13892e-19)
(25.1454 1.11264 2.27292e-17)
(25.3312 1.40887 -4.98217e-18)
(25.454 1.71278 1.16156e-16)
(25.5123 2.01491 3.37998e-16)
(25.5048 2.30515 1.01821e-15)
(25.4263 2.57392 3.82385e-17)
(19.1168 3.92695 7.12734e-16)
(19.2221 3.40625 -3.24853e-16)
(19.3662 2.93322 -7.11315e-16)
(19.545 2.50168 -3.66371e-16)
(19.755 2.10896 -1.99911e-16)
(19.9956 1.7505 -1.93508e-16)
(20.267 1.42457 3.24872e-16)
(20.5688 1.13159 -6.62984e-16)
(20.9011 0.873228 1.6186e-16)
(21.2628 0.652451 -4.12938e-16)
(21.6517 0.473488 -2.96915e-16)
(22.0642 0.341007 -1.64826e-16)
(22.4953 0.259951 4.16778e-17)
(22.9363 0.234564 2.74508e-16)
(23.3733 0.26707 3.85921e-17)
(23.7909 0.35661 1.4478e-16)
(24.1775 0.498881 5.24283e-17)
(24.5242 0.68738 -7.29087e-17)
(24.8235 0.914253 -6.84767e-18)
(25.0695 1.17074 -1.83907e-17)
(25.2579 1.44727 -6.0618e-17)
(25.3856 1.73384 2.61466e-17)
(25.4505 2.02087 -4.19479e-16)
(25.4509 2.298 -4.68914e-16)
(25.3817 2.55494 -2.19882e-16)
(19.507 3.98362 5.38469e-16)
(19.5941 3.4971 -4.28008e-16)
(19.7169 3.05501 1.34385e-16)
(19.8712 2.65138 3.5567e-16)
(20.054 2.28324 1.0661e-15)
(20.2649 1.94579 -8.46685e-17)
(20.5041 1.63686 1.4138e-16)
(20.772 1.35651 3.87058e-16)
(21.069 1.10601 2.21429e-16)
(21.395 0.888038 7.61153e-16)
(21.7486 0.706757 5.04496e-16)
(22.1271 0.566846 -3.86565e-17)
(22.5265 0.473449 -4.34265e-16)
(22.9391 0.431311 3.52278e-17)
(23.3517 0.443584 -1.66776e-16)
(23.7496 0.510514 5.23625e-17)
(24.1214 0.628943 2.60557e-17)
(24.458 0.793478 -2.87439e-17)
(24.7518 0.997138 1.67768e-18)
(24.9961 1.23182 1.17544e-17)
(25.186 1.48844 -4.9288e-17)
(25.3178 1.75728 9.9301e-18)
(25.3889 2.0287 5.42487e-17)
(25.397 2.29221 -9.40165e-17)
(25.3371 2.53685 -6.47797e-16)
(19.9437 3.57407 1.21651e-15)
(20.0484 3.16091 -9.18363e-17)
(20.1818 2.78363 -1.28603e-16)
(20.341 2.43908 -8.63482e-16)
(20.5258 2.12227 5.21844e-16)
(20.7366 1.83065 -4.68359e-16)
(20.9739 1.56386 3.31976e-17)
(21.2387 1.32275 -2.67887e-16)
(21.5316 1.1096 -2.65424e-16)
(21.8519 0.928262 -1.20094e-16)
(22.1978 0.783362 -1.38605e-16)
(22.5662 0.680128 1.43565e-16)
(22.9506 0.623654 7.795e-17)
(23.3384 0.617878 -4.37284e-17)
(23.7158 0.66405 -1.4994e-17)
(24.0717 0.760077 -5.2521e-17)
(24.3971 0.901626 2.20734e-17)
(24.684 1.08263 6.89177e-18)
(24.9255 1.2957 2.1188e-17)
(25.116 1.53231 7.62367e-17)
(25.2511 1.78311 -3.0972e-16)
(25.3278 2.03846 -3.74373e-18)
(25.3434 2.28784 2.84353e-16)
(25.2927 2.51976 2.46115e-16)
(20.2724 3.6392 2.13677e-17)
(20.3616 3.25312 -5.61221e-16)
(20.4769 2.9006 1.36283e-16)
(20.6157 2.57849 2.70359e-17)
(20.7777 2.28169 2.38497e-17)
(20.9633 2.00731 2.20768e-16)
(21.1733 1.75459 -5.13308e-16)
(21.409 1.52392 9.03045e-17)
(21.6713 1.31716 -2.64237e-16)
(21.9604 1.13774 -1.31715e-17)
(22.2752 0.990044 3.01455e-16)
(22.6136 0.879206 -1.23177e-16)
(22.9701 0.810676 -4.10335e-17)
(23.3331 0.789046 2.79741e-16)
(23.6895 0.81638 5.05397e-17)
(24.0286 0.891559 -2.55108e-17)
(24.3417 1.01125 3.28656e-17)
(24.6206 1.17032 -5.9185e-18)
(24.858 1.36212 -2.31168e-17)
(25.0481 1.57875 8.39908e-17)
(25.1858 1.81129 -9.89464e-17)
(25.2675 2.05021 1.06282e-16)
(25.2901 2.28503 -3.16268e-16)
(25.2488 2.50384 7.1283e-16)
(20.5814 3.69412 -8.61586e-17)
(20.6573 3.33324 5.18064e-16)
(20.7571 3.00394 -4.16791e-16)
(20.8782 2.7031 2.86446e-16)
(21.0202 2.42551 -3.68008e-16)
(21.1836 2.16805 2.83195e-17)
(21.3692 1.9296 -7.11339e-17)
(21.5785 1.71007 2.52952e-16)
(21.8129 1.51084 2.23766e-16)
(22.0729 1.33495 -2.3954e-16)
(22.3583 1.18643 -5.25039e-17)
(22.668 1.07023 3.3031e-16)
(22.9972 0.991849 -8.27789e-17)
(23.3356 0.956429 -7.61408e-17)
(23.6706 0.966831 -1.61519e-16)
(23.9922 1.02278 4.65092e-17)
(24.292 1.12186 -1.19409e-17)
(24.5618 1.25984 1.70378e-18)
(24.7942 1.43086 -3.22646e-17)
(24.9827 1.62767 -4.78125e-17)
(25.1222 1.84183 3.5152e-16)
(25.2083 2.06403 -9.85752e-17)
(25.2377 2.28391 -3.32757e-17)
(25.2054 2.48928 -6.1783e-16)
(20.9364 3.40286 -5.21462e-16)
(21.0229 3.09527 -1.77383e-16)
(21.1285 2.81448 5.28415e-17)
(21.253 2.55521 5.17998e-16)
(21.3968 2.31415 1.77941e-16)
(21.5607 2.08988 2.0451e-16)
(21.7463 1.88186 -5.23064e-16)
(21.9552 1.69105 6.89658e-17)
(22.1884 1.51998 2.66399e-16)
(22.4463 1.37228 -1.97779e-16)
(22.7285 1.25257 5.59082e-17)
(23.0313 1.16636 -1.04516e-17)
(23.3454 1.1192 6.99218e-17)
(23.6589 1.11459 -1.31906e-16)
(23.9626 1.15301 -2.10287e-17)
(24.2483 1.23285 6.12047e-17)
(24.5081 1.35072 1.88744e-18)
(24.7343 1.50157 3.96124e-17)
(24.9204 1.67883 -1.074e-16)
(25.0607 1.87463 -4.98115e-17)
(25.1506 2.07994 -2.31556e-16)
(25.1862 2.28458 9.80009e-17)
(25.163 2.47623 2.17242e-16)
(21.1998 3.46322 4.43629e-16)
(21.2747 3.176 5.56438e-16)
(21.3669 2.91399 -1.03456e-16)
(21.476 2.67206 2.81442e-16)
(21.6025 2.44675 -1.74282e-16)
(21.7471 2.23634 -1.17646e-17)
(21.9114 2.03996 1.00826e-16)
(22.0972 1.85812 6.14422e-17)
(22.3058 1.69288 -3.63816e-17)
(22.5381 1.5474 -1.01029e-16)
(22.7944 1.4259 -9.84977e-17)
(23.0719 1.33378 -1.0416e-16)
(23.3621 1.27684 -1.29624e-16)
(23.6543 1.25913 -9.12139e-17)
(23.9397 1.28169 -3.30541e-17)
(24.2107 1.34369 -1.41831e-17)
(24.4596 1.44254 -2.50383e-18)
(24.6788 1.57395 -3.24242e-17)
(24.8615 1.73208 -4.68651e-17)
(25.0018 1.90964 9.08783e-17)
(25.0947 2.09798 4.17892e-16)
(25.1361 2.28716 -7.98972e-17)
(25.1215 2.46491 -2.1761e-16)
(21.5131 3.24721 -1.02565e-16)
(21.5937 3.00279 -5.31336e-16)
(21.6893 2.77722 1.0316e-16)
(21.8004 2.56692 -2.08662e-16)
(21.9279 2.36995 -7.63221e-17)
(22.0732 2.18514 -2.86899e-16)
(22.2381 2.01263 -7.53002e-18)
(22.4242 1.85396 1.18957e-16)
(22.6329 1.71181 6.79671e-17)
(22.8648 1.58998 -7.33561e-18)
(23.1181 1.49362 -9.53606e-17)
(23.3853 1.42871 7.5681e-17)
(23.6564 1.39969 3.12838e-16)
(23.9235 1.40811 -2.61181e-17)
(24.1793 1.45375 2.5465e-17)
(24.4165 1.53476 -1.27397e-18)
(24.6278 1.64761 1.8263e-17)
(24.8062 1.78714 1.49522e-16)
(24.9457 1.9467 -4.15632e-16)
(25.0409 2.1181 2.12704e-17)
(25.0877 2.29171 6.24886e-17)
(25.0814 2.45543 7.53043e-17)
(21.7388 3.30997 -9.72052e-18)
(21.8091 3.08203 6.56524e-16)
(21.8928 2.87178 -6.35173e-17)
(21.9905 2.67567 1.09216e-16)
(22.1028 2.49163 -3.35275e-17)
(22.2311 2.31818 2.35001e-17)
(22.3772 2.1551 5.66765e-16)
(22.543 2.0035 -5.07377e-16)
(22.7298 1.86559 1.67083e-16)
(22.939 1.74469 2.89113e-16)
(23.1694 1.64564 -2.58655e-17)
(23.4144 1.57444 1.86088e-16)
(23.6649 1.53581 -1.54708e-16)
(23.9137 1.53176 -8.19934e-17)
(24.1541 1.56254 -7.24907e-17)
(24.3791 1.62695 -6.5538e-18)
(24.5817 1.72218 -3.15014e-17)
(24.755 1.84377 -6.63219e-17)
(24.8928 1.9857 3.30342e-16)
(24.9897 2.14029 5.60282e-17)
(25.0411 2.29832 -1.83038e-16)
(25.0429 2.44799 -2.04503e-16)
(21.9523 3.36514 -5.65836e-17)
(22.0136 3.15256 -4.27087e-16)
(22.087 2.95666 4.14693e-16)
(22.1727 2.77394 -3.4588e-16)
(22.2715 2.60222 4.50383e-16)
(22.3847 2.43981 -1.44484e-16)
(22.514 2.28612 -3.44714e-16)
(22.6612 2.1419 1.40374e-16)
(22.8281 2.00889 -3.07708e-16)
(23.0162 1.88995 -2.10547e-16)
(23.225 1.78951 -8.83469e-18)
(23.4488 1.71356 4.51347e-17)
(23.6793 1.66696 -3.57193e-17)
(23.9101 1.65203 -2.26936e-17)
(24.1349 1.66945 2.20822e-17)
(24.3474 1.71857 1.34233e-17)
(24.5407 1.79723 3.70013e-17)
(24.7081 1.90164 4.29178e-17)
(24.8435 2.02643 2.78546e-16)
(24.9413 2.16448 3.4078e-16)
(24.9969 2.30703 2.89771e-16)
(25.0061 2.44268 3.67063e-16)
(22.2076 3.21528 2.09452e-16)
(22.2719 3.03279 -4.96718e-16)
(22.3472 2.86267 7.97589e-17)
(22.434 2.7026 2.74813e-16)
(22.5337 2.55077 -3.11606e-16)
(22.6478 2.40632 1.01916e-16)
(22.7783 2.26964 -9.15548e-18)
(22.927 2.14201 1.05372e-17)
(23.0957 2.02583 -9.0652e-17)
(23.2844 1.92517 2.50231e-16)
(23.488 1.84582 -4.7449e-17)
(23.6994 1.79275 2.64477e-18)
(23.9124 1.76848 1.04068e-17)
(24.1218 1.77401 1.34229e-17)
(24.3214 1.80917 -2.95824e-18)
(24.5049 1.87237 1.12418e-17)
(24.6658 1.96047 -6.15869e-17)
(24.798 2.06872 -4.04784e-16)
(24.896 2.1906 -6.85444e-16)
(24.9551 2.31787 -2.04913e-16)
(24.9713 2.43966 -5.55472e-16)
(22.3916 3.27091 -6.14365e-17)
(22.4479 3.10096 2.37602e-16)
(22.5138 2.94257 -3.30304e-17)
(22.59 2.79349 -4.53802e-16)
(22.6777 2.65175 -1.69986e-17)
(22.7784 2.51629 1.06168e-16)
(22.8939 2.38715 -2.65582e-16)
(23.026 2.26525 4.04896e-16)
(23.1769 2.15252 7.8127e-17)
(23.3468 2.05258 -2.01268e-16)
(23.5315 1.97104 -3.1861e-17)
(23.7245 1.91285 -3.8868e-17)
(23.9204 1.88067 5.74451e-18)
(24.1145 1.87574 5.91154e-17)
(24.3012 1.89827 -1.09287e-18)
(24.4745 1.94717 -7.20849e-18)
(24.6283 2.0199 5.02833e-17)
(24.7567 2.11232 -7.611e-17)
(24.8542 2.21853 7.11472e-16)
(24.9162 2.33083 -1.52669e-16)
(24.9388 2.43899 6.05208e-16)
(22.566 3.32015 -2.22229e-16)
(22.6152 3.16183 -4.13994e-16)
(22.6729 3.0144 4.54189e-16)
(22.7397 2.87564 3.06927e-16)
(22.8167 2.74349 -3.99719e-17)
(22.9054 2.61669 3.9185e-17)
(23.0074 2.495 1.71763e-16)
(23.1246 2.37901 9.38168e-17)
(23.2592 2.27018 2.09698e-16)
(23.4117 2.17175 -7.05046e-17)
(23.5787 2.08904 6.04606e-17)
(23.7543 2.02697 1.73174e-16)
(23.9337 1.98823 1.01244e-16)
(24.1128 1.97422 -3.32319e-17)
(24.2865 1.98544 9.22046e-18)
(24.4494 2.02125 7.45226e-17)
(24.5958 2.07962 -8.64992e-17)
(24.7198 2.15701 1.38587e-16)
(24.8162 2.24813 -9.28089e-16)
(24.8804 2.34589 1.55916e-16)
(24.9087 2.44074 -6.51692e-16)
(22.774 3.21608 1.38526e-16)
(22.8246 3.07888 2.80805e-16)
(22.8831 2.94978 -1.94628e-16)
(22.9507 2.82665 4.4873e-16)
(23.0286 2.70811 -3.4621e-16)
(23.1185 2.59369 7.556e-17)
(23.2222 2.48367 -3.47179e-16)
(23.342 2.37911 -6.04788e-17)
(23.4786 2.28283 -6.38936e-17)
(23.629 2.19984 -2.51031e-16)
(23.7882 2.13497 -1.68e-16)
(23.9519 2.09089 -1.17321e-16)
(24.1164 2.06909 -2.92587e-17)
(24.2774 2.07029 1.34303e-17)
(24.4298 2.0942 -1.27945e-16)
(24.5682 2.13928 1.42838e-16)
(24.6873 2.20252 -1.06724e-16)
(24.782 2.27924 7.13818e-16)
(24.8478 2.36299 1.04221e-16)
(24.8813 2.44495 7.12627e-16)
(22.925 3.26425 1.25533e-16)
(22.9692 3.1366 -1.51941e-16)
(23.0203 3.01648 -3.92548e-16)
(23.0795 2.90182 -3.55067e-16)
(23.1479 2.79114 4.55076e-16)
(23.227 2.68377 -8.38104e-17)
(23.3186 2.57969 3.80778e-16)
(23.4248 2.47961 9.7777e-17)
(23.5468 2.38595 -1.4535e-17)
(23.6819 2.30344 1.03286e-18)
(23.8257 2.23672 9.02431e-17)
(23.9745 2.1884 1.22189e-16)
(24.1251 2.16003 1.99953e-17)
(24.2735 2.15246 -1.55925e-17)
(24.4154 2.16568 7.40856e-17)
(24.5458 2.19855 -6.96096e-17)
(24.6596 2.24859 1.15813e-17)
(24.752 2.31171 -1.38282e-16)
(24.8188 2.38205 -6.27887e-16)
(24.8567 2.45163 8.24491e-17)
(23.1068 3.1881 -2.28945e-16)
(23.1516 3.07636 -1.54086e-17)
(23.2033 2.96965 4.7543e-16)
(23.2631 2.86639 -7.67893e-17)
(23.3326 2.76575 -7.2646e-17)
(23.4133 2.6675 -6.72893e-17)
(23.5073 2.57202 -2.23519e-17)
(23.616 2.48136 9.54508e-17)
(23.737 2.39994 5.53054e-17)
(23.8664 2.33219 5.47025e-17)
(24.0011 2.28065 -4.40544e-17)
(24.1384 2.24681 4.80127e-17)
(24.2748 2.23163 1.78334e-19)
(24.4063 2.23534 -2.53823e-17)
(24.5284 2.25713 6.56821e-17)
(24.6366 2.29497 -8.19106e-17)
(24.7263 2.34533 9.41682e-18)
(24.7935 2.40298 3.8393e-16)
(24.8352 2.46074 -4.02112e-16)
(23.2379 3.23391 3.50526e-16)
(23.2769 3.12998 1.26933e-16)
(23.322 3.03065 -1.1613e-16)
(23.3743 2.93434 -1.56155e-16)
(23.4351 2.84013 -2.19308e-16)
(23.5061 2.74757 1.9661e-16)
(23.5892 2.65674 -1.34125e-16)
(23.6856 2.56935 1.96068e-16)
(23.7937 2.4895 -9.27181e-17)
(23.9099 2.42141 -1.75896e-17)
(24.0315 2.3675 1.83288e-17)
(24.1561 2.32921 -4.2081e-17)
(24.2809 2.30755 -1.22467e-17)
(24.4022 2.3029 -4.09184e-17)
(24.5161 2.31472 4.49655e-17)
(24.6185 2.34138 2.44308e-16)
(24.705 2.3799 3.04246e-17)
(24.772 2.42564 1.56835e-16)
(24.8167 2.47222 -6.44495e-17)
(23.3627 3.2745 1.0406e-16)
(23.3966 3.1778 -1.29765e-16)
(23.4358 3.08534 -1.89855e-17)
(23.4814 2.99557 -1.87623e-16)
(23.5346 2.90746 -1.93375e-16)
(23.5968 2.82036 -1.94854e-16)
(23.6701 2.73415 2.61817e-16)
(23.7555 2.6502 -3.84791e-18)
(23.8518 2.57229 5.85056e-17)
(23.9557 2.50447 3.37496e-17)
(24.0651 2.44896 -8.42858e-17)
(24.1778 2.40715 4.66446e-17)
(24.2915 2.38003 -2.11411e-18)
(24.403 2.36808 5.00387e-17)
(24.5088 2.37103 -1.1261e-16)
(24.6051 2.38757 7.96455e-17)
(24.6881 2.4152 -6.66453e-16)
(24.7545 2.44987 3.22148e-16)
(24.8015 2.48598 4.61673e-16)
(23.5107 3.22031 3.47628e-16)
(23.5448 3.13425 -7.9454e-17)
(23.5845 3.05059 -1.22098e-16)
(23.6309 2.96821 -9.88301e-18)
(23.6854 2.88636 1.53786e-16)
(23.7497 2.80467 -9.95111e-17)
(23.8253 2.72424 -5.47361e-17)
(23.9107 2.64858 -1.86275e-17)
(24.0035 2.58147 -7.25897e-17)
(24.1015 2.52504 5.64555e-17)
(24.2032 2.48052 3.24052e-17)
(24.3063 2.44889 4.82414e-19)
(24.4084 2.4307 4.45456e-17)
(24.5062 2.42584 1.45957e-17)
(24.5964 2.43331 -3.71611e-16)
(24.6757 2.45102 3.22294e-16)
(24.7409 2.47552 -4.36387e-16)
(24.7896 2.50191 -5.42105e-16)
(23.6197 3.25793 1.39864e-17)
(23.6493 3.17782 3.26879e-16)
(23.6836 3.09984 -2.29436e-16)
(23.7239 3.02283 5.71774e-18)
(23.7715 2.94596 6.44636e-17)
(23.828 2.86868 1.32801e-16)
(23.8946 2.79183 5.59904e-17)
(23.9703 2.71862 -2.01471e-16)
(24.0528 2.65263 9.16182e-17)
(24.1404 2.59583 -1.11689e-17)
(24.2318 2.54932 2.65718e-17)
(24.3251 2.51405 1.01761e-17)
(24.4181 2.49058 -4.01035e-17)
(24.5082 2.47893 -6.7545e-17)
(24.5923 2.47836 3.71432e-16)
(24.6676 2.48715 1.62882e-16)
(24.7312 2.50239 2.04399e-16)
(24.7811 2.51983 3.23377e-16)
(23.7236 3.29109 -4.08118e-16)
(23.7491 3.21648 1.18315e-16)
(23.7789 3.14376 -1.02807e-16)
(23.8139 3.07179 3.27827e-16)
(23.8553 2.99966 -4.68667e-17)
(23.9047 2.92664 -1.23099e-16)
(23.9633 2.85334 7.73558e-17)
(24.0302 2.78272 7.60079e-17)
(24.1034 2.71816 1.49068e-16)
(24.1815 2.66144 -8.6093e-17)
(24.2633 2.61359 -2.29443e-17)
(24.3474 2.57545 -7.08733e-18)
(24.4319 2.54758 -2.08712e-17)
(24.5145 2.53012 5.26321e-17)
(24.5927 2.52251 -2.70806e-16)
(24.6639 2.52338 1.02037e-17)
(24.7256 2.53027 -1.80229e-17)
(24.7759 2.53959 1.75039e-16)
(23.8447 3.25062 -7.97094e-17)
(23.8704 3.1828 1.52775e-16)
(23.9007 3.11555 -1.61613e-16)
(23.9366 3.04787 -5.6455e-17)
(23.9797 2.97892 1.09331e-16)
(24.0311 2.90911 -2.10024e-16)
(24.0901 2.84117 4.73605e-18)
(24.1549 2.77827 -2.93853e-18)
(24.2243 2.72205 -7.12952e-18)
(24.2974 2.67339 2.74348e-17)
(24.373 2.63307 -1.01332e-17)
(24.4495 2.60164 -3.93391e-17)
(24.525 2.57927 1.6611e-16)
(24.5973 2.56559 2.39768e-16)
(24.6643 2.55949 2.24091e-16)
(24.7237 2.55897 4.31113e-19)
(24.774 2.56098 -2.60068e-17)
(23.9362 3.28063 1.07345e-16)
(23.9583 3.21737 -4.64253e-17)
(23.9844 3.1545 -1.23786e-16)
(24.0155 3.09099 7.04243e-17)
(24.053 3.02592 -9.54479e-17)
(24.098 2.95953 -8.61094e-17)
(24.1498 2.89431 8.69161e-17)
(24.207 2.83324 -6.28227e-17)
(24.2685 2.77783 -1.94179e-18)
(24.3337 2.72885 8.01976e-18)
(24.4014 2.68696 9.58011e-18)
(24.4705 2.6527 2.1996e-17)
(24.5393 2.62627 -3.09206e-16)
(24.606 2.60743 -1.37193e-16)
(24.6687 2.59531 1.83122e-16)
(24.7257 2.58827 -2.80948e-16)
(24.0237 3.30687 2.29875e-17)
(24.0427 3.24781 -7.27086e-17)