/*--------------------------------*- C++ -*----------------------------------*\
| =========                 |                                                 |
| \\      /  F ield         | OpenFOAM: The Open Source CFD Toolbox           |
|  \\    /   O peration     | Version:  2306                                  |
|   \\  /    A nd           | Website:  www.openfoam.com                      |
|    \\/     M anipulation  |                                                 |
\*---------------------------------------------------------------------------*/
FoamFile
{
    version     2.0;
    format      ascii;
    arch        "LSB;label=32;scalar=64";
    class       volScalarField;
    location    "1000";
    object      div(phi);
}
// * * * * * * * * * * * * * * * * * * * * * * * * * * * * * * * * * * * * * //

dimensions      [0 0 -1 0 0 0 0];

internalField   nonuniform List<scalar> 
1340
(
-1.082e-08
-1.72857e-08
-3.74141e-09
-1.96253e-08
-4.1343e-09
-4.07353e-09
-1.32714e-08
-2.30364e-09
-5.98089e-09
-1.87905e-09
-9.72749e-09
-1.47239e-08
9.90458e-10
-6.3088e-09
-1.47907e-09
-2.70749e-09
1.15947e-08
-2.17442e-08
1.58442e-09
1.42575e-09
-5.72779e-09
9.20213e-11
-3.89721e-09
-7.50889e-10
-2.16657e-09
9.15031e-09
-2.52966e-09
4.39717e-09
5.95388e-09
-3.66012e-09
-7.00922e-09
1.48673e-09
-4.21742e-09
1.02597e-10
-1.76612e-09
-7.98421e-09
2.16951e-08
-8.45666e-09
3.23619e-09
2.29643e-09
1.19903e-08
1.26495e-09
-6.19774e-09
7.88682e-10
1.9167e-09
-5.39847e-09
1.37052e-09
-2.71816e-09
-7.35785e-11
-3.59903e-08
1.24004e-08
1.45118e-08
-1.98864e-08
1.71716e-08
-7.18029e-10
3.52714e-09
-6.22764e-10
7.26903e-09
-3.25448e-09
2.98808e-09
6.32737e-09
-3.25469e-09
-6.84737e-09
1.98454e-09
-3.64903e-09
9.47512e-10
-1.32314e-09
-2.45814e-08
5.3847e-08
-5.54627e-08
4.52342e-08
-3.29713e-08
1.7277e-08
-1.22961e-08
-7.50117e-09
1.37596e-08
-4.71446e-10
8.139e-09
-5.26332e-09
1.57957e-09
-1.2935e-09
1.01298e-08
1.73979e-09
-5.6386e-09
3.08772e-10
2.63503e-09
-5.56288e-09
1.91273e-09
-2.17164e-09
3.03264e-10
2.53886e-08
1.975e-08
2.5419e-08
3.42063e-08
1.53766e-08
3.49815e-08
1.33679e-08
2.09303e-08
-6.83243e-09
1.63416e-08
-2.08104e-08
1.17278e-08
-2.38373e-08
1.25732e-09
-6.26178e-09
-1.04237e-08
4.77082e-09
-5.90402e-09
1.40584e-09
-1.62835e-09
7.51858e-09
-3.70411e-09
1.77786e-09
6.42362e-09
-2.52787e-09
-6.5173e-09
2.50465e-09
-3.21126e-09
1.35138e-09
-9.1121e-10
2.9011e-07
-9.25215e-08
1.20589e-07
-5.03411e-08
9.2694e-08
-3.2317e-08
5.43871e-08
-1.80716e-08
4.64503e-08
1.02875e-09
3.97341e-08
9.64219e-09
2.65592e-08
1.92915e-08
2.42887e-08
2.82801e-08
1.50155e-08
2.66736e-08
1.0744e-08
8.14929e-09
6.53621e-09
-1.03249e-08
1.49201e-09
-1.96853e-08
4.63209e-09
-2.13243e-08
-1.38707e-08
-8.91735e-09
-6.91487e-09
3.70434e-10
-6.86595e-09
4.85306e-10
-7.69685e-09
8.03464e-09
2.71257e-09
-5.37427e-09
1.09514e-10
3.22766e-09
-4.96621e-09
2.22891e-09
-1.76757e-09
5.01872e-10
8.31915e-07
-1.7464e-06
-3.57556e-07
-1.18234e-06
-7.49554e-08
-9.33838e-07
6.94556e-08
-7.4036e-07
1.68034e-07
-5.88092e-07
1.89881e-07
-5.00538e-07
2.06153e-07
-4.45874e-07
1.97488e-07
-4.11909e-07
2.03814e-07
-3.83473e-07
1.9356e-07
-3.74185e-07
1.98749e-07
-3.71338e-07
2.04405e-07
-3.57747e-07
2.02034e-07
-3.27909e-07
2.09567e-07
-2.86763e-07
1.93016e-07
-2.22681e-07
2.13455e-07
-1.54037e-07
2.24909e-07
-1.08967e-07
2.07231e-07
-7.08538e-08
1.64426e-07
-4.4863e-08
1.26637e-07
-3.04544e-08
9.23285e-08
-1.50623e-08
6.60432e-08
4.30117e-09
5.7311e-08
1.63729e-08
4.66863e-08
2.40815e-08
3.26722e-08
3.03801e-08
2.82533e-08
2.68237e-08
2.32631e-08
2.47845e-08
1.5562e-08
1.95008e-08
1.10281e-08
3.47341e-09
2.16928e-09
-5.03462e-09
2.88293e-09
-1.61656e-08
-7.33909e-09
-1.40518e-08
-9.75921e-09
-5.04957e-09
-1.11164e-08
-3.61584e-09
-1.0873e-08
4.91587e-09
-7.2773e-09
-5.23465e-10
5.54992e-09
-1.19965e-09
-5.60783e-09
3.11037e-09
-3.06284e-09
1.52974e-09
-7.7232e-10
1.77545e-06
-1.0742e-06
3.65627e-07
-7.88442e-07
4.23913e-07
-6.53638e-07
4.38622e-07
-5.52204e-07
4.39093e-07
-4.52387e-07
3.94251e-07
-3.71232e-07
3.55707e-07
-3.15583e-07
3.18702e-07
-2.87216e-07
2.90455e-07
-2.65608e-07
2.55377e-07
-2.46203e-07
2.30959e-07
-2.319e-07
2.11779e-07
-2.19754e-07
1.93318e-07
-2.00901e-07
1.74915e-07
-1.73813e-07
1.53093e-07
-1.47525e-07
1.62468e-07
-1.23142e-07
1.3028e-07
-9.34066e-08
1.34997e-07
-6.49742e-08
1.22706e-07
-4.04271e-08
9.99238e-08
-1.78938e-08
8.67933e-08
-1.97887e-09
7.19689e-08
6.38525e-09
5.28767e-08
1.73892e-08
3.97899e-08
2.36196e-08
3.4911e-08
2.21927e-08
2.43073e-08
2.59798e-08
1.84518e-08
2.05644e-08
1.78924e-08
1.74673e-08
1.25642e-08
1.02726e-08
8.28031e-09
4.9972e-09
-2.57309e-10
1.93793e-11
-5.28242e-09
-5.99629e-09
-5.42179e-09
-6.70208e-09
-3.979e-09
-1.00503e-08
-1.70624e-09
-1.40062e-08
4.04636e-09
1.93934e-09
-4.1667e-09
-8.17597e-10
3.78743e-09
-4.55645e-09
2.50395e-09
-1.68166e-09
5.66204e-10
1.70353e-06
-1.11688e-06
2.24607e-07
-6.9252e-07
3.74719e-07
-5.22599e-07
4.25847e-07
-4.40787e-07
4.27397e-07
-3.81942e-07
4.02363e-07
-3.21213e-07
3.56509e-07
-2.72789e-07
3.16943e-07
-2.39147e-07
2.85066e-07
-2.13333e-07
2.55962e-07
-1.88514e-07
2.28798e-07
-1.67501e-07
2.05807e-07
-1.55833e-07
1.90956e-07
-1.44524e-07
1.63465e-07
-1.31275e-07
1.48067e-07
-1.04271e-07
1.20661e-07
-6.91626e-08
1.40018e-07
-4.40483e-08
1.28765e-07
-3.44532e-08
1.08512e-07
-3.43475e-08
8.85118e-08
-3.57541e-08
5.75315e-08
-2.88622e-08
3.72939e-08
-1.07437e-08
3.41425e-08
1.45028e-09
3.15032e-08
1.03249e-08
2.18192e-08
1.87489e-08
2.07575e-08
1.68622e-08
1.79665e-08
1.80069e-08
1.33205e-08
1.64707e-08
1.33297e-08
1.22872e-08
9.74109e-09
8.2484e-09
5.05392e-09
3.1063e-09
8.53324e-10
-1.09012e-09
-1.94708e-09
-2.15276e-09
-4.6728e-09
-2.90364e-09
-1.19672e-08
4.07218e-09
-6.44354e-09
-1.18085e-09
1.21147e-10
-3.45878e-10
-4.9095e-09
3.53452e-09
-2.61967e-09
1.68623e-09
-5.5848e-10
1.41904e-06
-7.7749e-07
3.36418e-07
-5.76491e-07
3.49709e-07
-4.74251e-07
3.57039e-07
-4.05562e-07
3.48337e-07
-3.63828e-07
3.34712e-07
-3.25498e-07
2.96018e-07
-2.85492e-07
2.56463e-07
-2.50738e-07
2.252e-07
-2.2595e-07
2.03097e-07
-2.01509e-07
1.81264e-07
-1.76831e-07
1.65091e-07
-1.56641e-07
1.51659e-07
-1.4022e-07
1.37939e-07
-1.23436e-07
1.223e-07
-1.07002e-07
1.06565e-07
-9.33508e-08
9.11511e-08
-7.52905e-08
7.55422e-08
-5.72625e-08
7.7926e-08
-3.96522e-08
6.47303e-08
-2.5353e-08
5.84551e-08
-1.50052e-08
5.065e-08
-1.24869e-08
3.32716e-08
-4.62982e-09
2.16297e-08
4.42587e-09
2.23498e-08
8.32843e-09
1.62947e-08
1.54732e-08
1.3432e-08
1.55276e-08
1.41539e-08
1.42623e-08
1.09918e-08
1.12969e-08
8.68192e-09
7.26251e-09
5.46492e-09
3.54734e-09
2.30577e-09
1.31136e-09
-1.88416e-10
5.26889e-11
3.4091e-10
-3.8934e-09
1.91471e-09
-1.08015e-08
2.18869e-09
-4.60136e-09
-3.60438e-09
-7.06955e-09
2.18549e-09
-3.87133e-09
2.77558e-09
-1.30215e-09
6.86434e-10
7.07429e-07
-1.09581e-06
-1.76638e-07
-6.79678e-07
5.61596e-08
-4.81007e-07
1.43166e-07
-3.68587e-07
1.96967e-07
-3.00189e-07
2.17016e-07
-2.55839e-07
2.28152e-07
-2.18071e-07
2.11929e-07
-1.88589e-07
1.93212e-07
-1.68296e-07
1.7399e-07
-1.54485e-07
1.55394e-07
-1.41675e-07
1.37644e-07
-1.29226e-07
1.22851e-07
-1.20283e-07
1.11662e-07
-1.09573e-07
9.84422e-08
-9.73975e-08
8.60143e-08
-8.30903e-08
7.37315e-08
-7.307e-08
6.85807e-08
-6.67106e-08
4.84707e-08
-6.35268e-08
3.84345e-08
-5.93901e-08
2.42591e-08
-5.24663e-08
8.94964e-09
-3.45903e-08
1.10508e-08
-1.73331e-08
1.67722e-08
-3.70212e-09
1.32679e-08
8.74276e-09
1.55101e-08
1.09957e-08
1.35824e-08
1.21787e-08
8.91474e-09
1.10842e-08
7.89128e-09
8.45679e-09
5.94042e-09
5.46812e-09
4.50268e-09
2.31465e-09
3.46543e-09
9.70845e-10
1.71485e-09
4.28817e-10
2.53599e-09
9.05755e-10
-8.78549e-09
2.75101e-09
-8.68667e-09
-3.38758e-09
-8.41753e-09
-2.12886e-09
-6.88816e-09
2.86056e-09
-2.28831e-09
1.80254e-09
-4.87584e-10
1.22057e-06
-4.39917e-07
2.81427e-07
-3.34525e-07
2.79904e-07
-2.89375e-07
2.53755e-07
-2.54548e-07
2.4144e-07
-2.26974e-07
2.19746e-07
-2.13899e-07
2.03574e-07
-2.07548e-07
1.77933e-07
-1.9805e-07
1.52228e-07
-1.82939e-07
1.28109e-07
-1.71439e-07
1.11982e-07
-1.60702e-07
9.74584e-08
-1.50855e-07
8.87847e-08
-1.41518e-07
8.30919e-08
-1.33838e-07
8.02018e-08
-1.22445e-07
7.71665e-08
-1.09341e-07
7.01922e-08
-9.50673e-08
6.68744e-08
-8.18615e-08
5.70437e-08
-6.92604e-08
5.32068e-08
-5.47546e-08
4.03195e-08
-3.78606e-08
4.7044e-08
-2.44729e-08
4.19904e-08
-1.4251e-08
3.0468e-08
-5.00274e-09
3.1624e-08
-1.054e-09
2.05223e-08
3.03573e-09
1.18492e-08
5.66983e-09
1.00632e-08
7.47818e-09
5.7163e-09
7.53703e-09
3.6334e-09
6.11049e-09
1.97002e-09
4.01302e-09
1.3328e-09
2.73213e-09
3.23897e-10
1.66048e-09
2.04377e-09
-4.86492e-09
1.98738e-09
-7.61434e-09
-2.07065e-09
-5.95588e-09
-4.9742e-09
-7.47293e-09
-5.57542e-10
-4.4936e-09
2.38715e-09
-1.31204e-09
6.99229e-10
1.20484e-06
-6.48127e-07
2.05841e-08
-4.33166e-07
7.47051e-08
-3.40706e-07
8.21521e-08
-2.83777e-07
8.73416e-08
-2.42757e-07
8.22662e-08
-2.13402e-07
8.37325e-08
-1.92145e-07
8.07313e-08
-1.75552e-07
8.48587e-08
-1.57241e-07
7.95438e-08
-1.41587e-07
7.54641e-08
-1.29338e-07
6.7044e-08
-1.20976e-07
6.39136e-08
-1.13605e-07
5.85262e-08
-1.09022e-07
5.50951e-08
-1.0452e-07
5.14848e-08
-9.71996e-08
4.71196e-08
-8.69784e-08
4.35896e-08
-7.53032e-08
4.00656e-08
-6.31379e-08
3.69824e-08
-5.22718e-08
3.39011e-08
-4.40647e-08
2.6489e-08
-3.40745e-08
1.91693e-08
-2.47843e-08
2.33483e-08
-1.75342e-08
1.24758e-08
-1.00115e-08
1.12114e-08
-4.38025e-09
1.00095e-08
-2.05124e-10
4.56035e-09
2.21352e-09
3.14305e-09
3.23837e-09
1.0146e-09
3.11879e-09
-9.73444e-11
2.20685e-09
1.75473e-10
1.70939e-09
-1.0431e-10
1.4098e-09
1.18164e-09
-5.69996e-11
-2.328e-10
-1.84319e-09
-2.03663e-10
-5.04916e-09
-4.67415e-09
-3.9103e-09
-6.64889e-09
1.07375e-09
-2.84096e-09
1.54328e-09
-4.97734e-10
1.53308e-06
-5.36078e-07
1.8064e-07
-3.70613e-07
1.60349e-07
-2.90522e-07
1.4242e-07
-2.30605e-07
1.30906e-07
-1.85926e-07
1.26388e-07
-1.53685e-07
1.17404e-07
-1.31566e-07
1.11846e-07
-1.16585e-07
1.05606e-07
-1.04741e-07
1.0194e-07
-9.24139e-08
9.4526e-08
-8.00147e-08
8.77093e-08
-6.87418e-08
8.10612e-08
-5.86939e-08
7.7215e-08
-5.0518e-08
7.27607e-08
-4.4526e-08
6.92144e-08
-4.07965e-08
6.34352e-08
-3.75804e-08
5.61454e-08
-3.5399e-08
4.88191e-08
-3.29712e-08
4.1515e-08
-3.09725e-08
3.47065e-08
-2.8318e-08
2.91417e-08
-2.79845e-08
2.38594e-08
-2.76912e-08
1.16416e-08
-2.55872e-08
1.02325e-08
-2.20748e-08
5.89902e-09
-1.77725e-08
1.59465e-09
-1.31244e-08
9.86404e-10
-8.05169e-09
-9.11238e-10
-3.68263e-09
-1.42249e-09
8.77248e-11
-1.58498e-09
2.72418e-09
-1.45413e-09
4.24919e-09
-2.01126e-09
5.28175e-09
-2.56345e-09
6.65031e-09
-2.30963e-09
4.41196e-09
-2.30321e-09
-3.25715e-10
-3.68056e-09
-5.921e-09
-1.051e-09
-5.18782e-09
1.85874e-09
-1.4694e-09
6.22833e-10
4.47469e-07
-2.90963e-07
7.8397e-08
-2.48349e-07
7.99749e-08
-2.11057e-07
8.39731e-08
-1.75879e-07
8.59282e-08
-1.45683e-07
9.07379e-08
-1.20398e-07
8.98739e-08
-1.00452e-07
9.14078e-08
-8.46381e-08
8.98546e-08
-7.34293e-08
9.03735e-08
-6.4026e-08
8.49436e-08
-5.53001e-08
7.93624e-08
-4.72297e-08
7.21771e-08
-4.19685e-08
6.6004e-08
-3.82305e-08
5.92613e-08
-3.57181e-08
5.25979e-08
-3.38464e-08
4.60647e-08
-3.22681e-08
3.83378e-08
-3.03952e-08
3.30044e-08
-2.80883e-08
2.61636e-08
-2.48996e-08
2.27135e-08
-1.94766e-08
1.71444e-08
-1.28435e-08
2.27624e-08
-9.46581e-09
1.766e-08
-9.52574e-09
1.09387e-08
-1.00279e-08
6.41369e-09
-9.6485e-09
3.01779e-10
-6.77501e-09
-5.13024e-10
-2.3146e-09
5.36159e-10
1.43112e-09
1.49013e-09
3.68212e-09
1.92736e-09
4.43228e-09
2.01779e-09
4.44543e-09
1.47975e-09
5.88112e-09
1.59654e-09
3.68372e-09
1.0859e-09
1.62986e-09
-7.65041e-10
-2.5518e-09
-1.83427e-09
-6.01589e-09
1.25338e-09
-3.04803e-09
1.28625e-09
-5.5861e-10
3.15659e-07
-2.79987e-07
2.45365e-08
-2.4026e-07
3.16189e-08
-2.04465e-07
4.48585e-08
-1.69584e-07
5.44826e-08
-1.39714e-07
6.42261e-08
-1.14742e-07
6.70585e-08
-9.49534e-08
7.17438e-08
-7.94027e-08
7.00596e-08
-6.89713e-08
6.8217e-08
-6.2522e-08
6.28745e-08
-5.79016e-08
5.66556e-08
-5.29607e-08
4.88351e-08
-4.875e-08
4.14207e-08
-4.49551e-08
3.48309e-08
-4.17194e-08
2.92063e-08
-3.89416e-08
2.48213e-08
-3.61075e-08
2.13915e-08
-3.2659e-08
1.84245e-08
-2.89729e-08
1.5987e-08
-2.52471e-08
1.33927e-08
-2.22444e-08
1.20311e-08
-2.04982e-08
7.69545e-09
-1.79912e-08
4.12671e-09
-1.53588e-08
4.00092e-09
-1.13634e-08
1.41555e-09
-7.33506e-09
2.6015e-09
-3.04519e-09
3.32017e-09
2.01644e-10
3.46129e-09
2.61557e-09
3.28901e-09
3.89856e-09
3.04921e-09
4.23159e-09
2.63823e-09
4.01473e-09
2.11569e-09
4.95144e-09
1.95749e-09
2.91494e-09
1.47579e-09
1.00233e-09
2.85434e-10
-9.58667e-10
-4.39323e-09
4.44792e-10
-4.73215e-09
1.609e-09
-1.64169e-09
5.44899e-10
7.18014e-08
-1.71773e-07
3.48552e-08
-1.52927e-07
5.4709e-08
-1.36895e-07
6.14951e-08
-1.21226e-07
6.52905e-08
-1.05892e-07
6.48039e-08
-9.21449e-08
6.34216e-08
-7.99901e-08
5.97382e-08
-6.97891e-08
5.78361e-08
-6.09885e-08
5.45737e-08
-5.36901e-08
5.18751e-08
-4.8012e-08
4.86396e-08
-4.26684e-08
4.40131e-08
-3.63951e-08
3.91338e-08
-3.02704e-08
3.51385e-08
-2.60504e-08
3.16932e-08
-2.32554e-08
2.83613e-08
-2.0786e-08
2.51152e-08
-1.82577e-08
2.16976e-08
-1.63987e-08
1.8127e-08
-1.49847e-08
1.47357e-08
-1.40524e-08
1.12381e-08
-1.32786e-08
8.96412e-09
-1.40339e-08
5.58458e-09
-1.46911e-08
4.82947e-10
-1.46433e-08
-1.56866e-09
-1.2416e-08
-3.14059e-09
-8.63598e-09
-2.27475e-09
-4.26621e-09
-6.34796e-10
-7.58811e-10
6.31414e-10
1.33593e-09
1.04621e-09
2.259e-09
1.06213e-09
2.59481e-09
8.49506e-10
3.32068e-09
9.37559e-10
1.72524e-09
7.05709e-10
3.85376e-10
-2.10302e-11
-1.85644e-09
-1.30349e-10
-5.22747e-09
1.54206e-09
-2.97941e-09
9.90617e-10
-1.30928e-10
3.04774e-07
-1.80383e-07
5.57931e-08
-1.46191e-07
5.34876e-08
-1.21798e-07
5.16338e-08
-1.01478e-07
5.16219e-08
-8.46482e-08
5.05163e-08
-7.07807e-08
4.8941e-08
-5.90857e-08
4.58501e-08
-5.04044e-08
4.3037e-08
-4.4232e-08
3.85398e-08
-3.95502e-08
3.44475e-08
-3.5878e-08
2.9786e-08
-3.37821e-08
2.48691e-08
-3.20497e-08
1.98269e-08
-3.03513e-08
1.48747e-08
-2.90734e-08
1.10978e-08
-2.8248e-08
7.88945e-09
-2.67491e-08
6.02564e-09
-2.47038e-08
4.63142e-09
-2.21739e-08
4.46303e-09
-1.96104e-08
3.75874e-09
-1.68433e-08
4.50824e-09
-1.39979e-08
3.35675e-09
-1.02436e-08
5.20524e-09
-6.69154e-09
6.16978e-09
-4.07185e-09
5.90769e-09
-2.49504e-09
5.22371e-09
-1.79747e-09
3.44852e-09
-1.464e-09
1.70187e-09
-8.92396e-10
4.95527e-10
-2.21808e-10
-8.78128e-11
2.03886e-10
-3.42752e-10
4.897e-10
-6.19373e-10
8.59195e-10
-7.26995e-10
5.72892e-10
-3.15821e-10
-2.94513e-10
-5.0298e-10
-4.8972e-10
-4.08468e-09
1.36015e-09
-3.77134e-09
7.43344e-10
-1.04865e-09
-5.72875e-11
3.08031e-07
-1.04059e-07
3.53222e-08
-1.07962e-07
3.4214e-08
-1.00326e-07
3.70732e-08
-8.75458e-08
4.18346e-08
-7.40255e-08
4.38972e-08
-6.20205e-08
4.34941e-08
-5.18005e-08
4.09075e-08
-4.3457e-08
3.71319e-08
-3.75794e-08
3.23978e-08
-3.37106e-08
2.61422e-08
-3.10218e-08
2.0556e-08
-2.89684e-08
1.52876e-08
-2.73744e-08
1.11578e-08
-2.56914e-08
7.72598e-09
-2.38143e-08
5.13311e-09
-2.21992e-08
3.25741e-09
-2.05934e-08
1.95666e-09
-1.89754e-08
1.47421e-09
-1.73151e-08
1.09365e-09
-1.56713e-08
1.27804e-09
-1.39222e-08
8.56689e-10
-1.22487e-08
1.07266e-09
-1.12207e-08
1.36723e-09
-1.10808e-08
-7.92768e-10
-1.11179e-08
-1.70352e-09
-1.05055e-08
-3.20225e-09
-9.10873e-09
-3.81516e-09
-6.86883e-09
-3.36802e-09
-4.64827e-09
-2.73992e-09
-2.94302e-09
-2.30159e-09
-1.67117e-09
-1.89804e-09
-6.58534e-10
-1.63904e-09
-3.05695e-10
-1.43836e-09
-2.12074e-10
-9.4469e-10
-7.34484e-10
-5.76718e-10
-2.23243e-09
1.06435e-09
-3.36129e-09
3.90087e-11
-2.02445e-09
-8.54476e-10
-4.07684e-10
-1.52708e-07
-1.27732e-07
-9.0428e-11
-8.90532e-08
2.51546e-08
-6.79952e-08
3.37199e-08
-5.61684e-08
3.46513e-08
-4.86208e-08
3.35098e-08
-4.3066e-08
3.10475e-08
-3.85402e-08
2.87472e-08
-3.48741e-08
2.61424e-08
-3.19261e-08
2.30034e-08
-2.92725e-08
2.02678e-08
-2.66777e-08
1.77358e-08
-2.40062e-08
1.57511e-08
-2.09977e-08
1.38176e-08
-1.81754e-08
1.26078e-08
-1.61065e-08
1.09426e-08
-1.37741e-08
8.96064e-09
-1.0606e-08
7.38571e-09
-8.6711e-09
6.00821e-09
-8.61192e-09
4.62033e-09
-8.95213e-09
3.77523e-09
-8.51562e-09
2.75584e-09
-7.752e-09
2.7313e-09
-6.55715e-09
1.73591e-09
-4.99142e-09
2.39758e-09
-3.24652e-09
2.72177e-09
-2.05494e-09
2.37129e-09
-1.54833e-09
1.8323e-09
-1.68869e-09
4.53446e-10
-1.98426e-09
-8.22153e-10
-1.90347e-09
-1.39642e-09
-1.55058e-09
-1.49258e-09
-1.1557e-09
-1.44714e-09
-1.3305e-09
-1.77881e-09
-8.32922e-10
-1.31223e-09
-4.81614e-10
-9.3677e-10
4.18274e-10
-1.93658e-09
-4.40725e-10
-1.87868e-09
-1.16255e-09
-6.07909e-10
-1.50202e-10
4.64965e-09
-4.28874e-08
-7.2683e-09
-4.25733e-08
-6.25696e-09
-4.14369e-08
-4.15362e-09
-3.93884e-08
-3.86746e-09
-3.7539e-08
-2.93218e-09
-3.61921e-08
-3.7568e-09
-3.5729e-08
-4.44988e-09
-3.56111e-08
-5.86729e-09
-3.55945e-08
-6.04727e-09
-3.52262e-08
-6.52731e-09
-3.46481e-08
-5.87124e-09
-3.3519e-08
-5.41365e-09
-3.20032e-08
-4.12275e-09
-2.99271e-08
-2.66465e-09
-2.75849e-08
-1.15027e-09
-2.41904e-08
2.25219e-10
-2.01191e-08
9.36347e-10
-1.65856e-08
1.75185e-09
-1.38579e-08
1.74794e-09
-1.12967e-08
1.86291e-09
-8.68985e-09
1.71597e-09
-6.33936e-09
1.08569e-09
-4.65287e-09
7.91241e-10
-4.04149e-09
8.36554e-11
-4.42321e-09
-1.62303e-09
-5.20272e-09
-2.77888e-09
-5.61805e-09
-3.91205e-09
-5.37703e-09
-4.08818e-09
-4.46608e-09
-3.47592e-09
-3.32957e-09
-2.68191e-09
-2.28388e-09
-1.96467e-09
-1.39538e-09
-1.6129e-09
-1.45719e-09
-1.3478e-09
-6.26384e-10
-6.31417e-10
-3.80093e-10
-2.00784e-10
-5.27264e-10
-3.26565e-10
-7.83368e-10
-5.81421e-10
-3.04001e-10
-9.18903e-11
0
)
;

boundaryField
{
    inlet
    {
        type            extrapolatedCalculated;
        value           nonuniform List<scalar> 
27
(
-1.082e-08
-3.74141e-09
-4.07353e-09
-1.87905e-09
-2.70749e-09
-7.50889e-10
-1.76612e-09
-7.35785e-11
-1.32314e-09
3.03264e-10
-9.1121e-10
5.01872e-10
-7.7232e-10
5.66204e-10
-5.5848e-10
6.86434e-10
-4.87584e-10
6.99229e-10
-4.97734e-10
6.22833e-10
-5.5861e-10
5.44899e-10
-1.30928e-10
-5.72875e-11
-4.07684e-10
-1.50202e-10
0
)
;
    }
    outlet
    {
        type            extrapolatedCalculated;
        value           nonuniform List<scalar> 
78
(
4.64965e-09
-4.28874e-08
-7.2683e-09
-4.25733e-08
-6.25696e-09
-4.14369e-08
-4.15362e-09
-3.93884e-08
-3.86746e-09
-3.7539e-08
-2.93218e-09
-3.61921e-08
-3.7568e-09
-3.5729e-08
-4.44988e-09
-3.56111e-08
-5.86729e-09
-3.55945e-08
-6.04727e-09
-3.52262e-08
-6.52731e-09
-3.46481e-08
-5.87124e-09
-3.3519e-08
-5.41365e-09
-3.20032e-08
-4.12275e-09
-2.99271e-08
-2.66465e-09
-2.75849e-08
-1.15027e-09
-2.41904e-08
2.25219e-10
-2.01191e-08
9.36347e-10
-1.65856e-08
1.75185e-09
-1.38579e-08
1.74794e-09
-1.12967e-08
1.86291e-09
-8.68985e-09
1.71597e-09
-6.33936e-09
1.08569e-09
-4.65287e-09
7.91241e-10
-4.04149e-09
8.36554e-11
-4.42321e-09
-1.62303e-09
-5.20272e-09
-2.77888e-09
-5.61805e-09
-3.91205e-09
-5.37703e-09
-4.08818e-09
-4.46608e-09
-3.47592e-09
-3.32957e-09
-2.68191e-09
-2.28388e-09
-1.96467e-09
-1.39538e-09
-1.6129e-09
-1.45719e-09
-1.3478e-09
-6.26384e-10
-6.31417e-10
-3.80093e-10
-2.00784e-10
-5.27264e-10
-3.26565e-10
-7.83368e-10
-5.81421e-10
-3.04001e-10
-9.18903e-11
0
)
;
    }
    walls
    {
        type            extrapolatedCalculated;
        value           nonuniform List<scalar> 0();
    }
    frontAndBack
    {
        type            empty;
    }
    procBoundary7to3
    {
        type            processor;
        value           nonuniform List<scalar> 
16
(
-5.86659e-06
-2.84669e-06
-2.47105e-06
-2.31652e-06
-2.19417e-06
-1.00551e-06
-1.18789e-06
-9.49551e-07
-3.69822e-07
-3.69822e-07
-3.76474e-07
-2.05133e-07
-2.78981e-07
-1.18256e-07
-1.74137e-07
-5.4588e-08
)
;
    }
    procBoundary7to6
    {
        type            processor;
        value           nonuniform List<scalar> 
91
(
-6.05045e-09
-7.05791e-09
-7.05791e-09
-4.8964e-09
-4.8964e-09
2.08128e-09
2.08128e-09
6.38171e-09
3.38787e-09
3.38787e-09
3.17713e-09
9.80013e-09
9.80013e-09
1.14462e-08
7.80705e-09
1.82961e-08
1.82961e-08
3.73485e-08
-1.82322e-09
1.69212e-08
1.69212e-08
3.703e-08
-3.27161e-09
-1.45387e-08
3.65205e-08
3.65205e-08
3.33824e-08
-3.29651e-08
4.255e-08
-4.56447e-08
4.91407e-08
4.91407e-08
1.27114e-08
2.33404e-08
2.04548e-08
1.49108e-08
3.3003e-08
-1.06611e-08
5.1985e-08
5.1985e-08
9.3286e-08
-1.1959e-07
7.30197e-08
-5.38628e-08
6.05666e-08
-2.04637e-08
3.97861e-08
-2.3694e-10
2.37625e-08
1.18687e-08
2.06205e-08
3.17635e-09
3.17635e-09
-2.02908e-06
1.52593e-06
-1.50657e-06
1.78796e-06
-1.29657e-06
1.73002e-06
-1.11231e-06
1.54976e-06
-9.2213e-07
1.3697e-06
-7.90146e-07
1.22179e-06
-6.96031e-07
1.10048e-06
-6.2138e-07
9.6465e-07
-5.474e-07
8.55648e-07
-4.94788e-07
7.5965e-07
-4.57547e-07
6.8104e-07
-4.21171e-07
5.73147e-07
-3.77743e-07
4.89648e-07
-3.36626e-07
4.04945e-07
-2.94258e-07
3.48074e-07
-2.55136e-07
2.77765e-07
-1.99831e-07
2.32719e-07
-1.58642e-07
2.77633e-07
-3.35592e-07
-3.35592e-07
)
;
    }
}


// ************************************************************************* //
