/*--------------------------------*- C++ -*----------------------------------*\
| =========                 |                                                 |
| \\      /  F ield         | OpenFOAM: The Open Source CFD Toolbox           |
|  \\    /   O peration     | Version:  2306                                  |
|   \\  /    A nd           | Website:  www.openfoam.com                      |
|    \\/     M anipulation  |                                                 |
\*---------------------------------------------------------------------------*/
FoamFile
{
    version     2.0;
    format      ascii;
    arch        "LSB;label=32;scalar=64";
    class       volScalarField;
    location    "1000";
    object      turbulenceProperties:k;
}
// * * * * * * * * * * * * * * * * * * * * * * * * * * * * * * * * * * * * * //

dimensions      [0 2 -2 0 0 0 0];

internalField   nonuniform List<scalar> 
1340
(
9.39407e-07
7.13837e-07
9.5311e-07
6.92252e-07
6.91608e-07
9.52811e-07
2.88855e-07
6.83366e-07
6.76888e-07
9.56726e-07
2.58105e-07
4.73852e-07
2.86152e-07
6.76263e-07
6.64345e-07
9.63184e-07
3.67359e-07
4.31548e-07
2.50344e-07
4.65126e-07
2.83356e-07
6.69847e-07
6.54196e-07
9.6974e-07
5.18165e-07
4.54841e-07
4.54826e-07
3.52638e-07
4.19515e-07
2.422e-07
4.56605e-07
2.80638e-07
6.64336e-07
6.46902e-07
9.75877e-07
5.9867e-07
5.61756e-07
5.17131e-07
4.95569e-07
4.34457e-07
4.37905e-07
3.37693e-07
4.07359e-07
2.33793e-07
4.48478e-07
2.77984e-07
6.59859e-07
6.42298e-07
9.81479e-07
7.59786e-07
7.08023e-07
6.58406e-07
6.11308e-07
5.65292e-07
5.32376e-07
4.90612e-07
4.7266e-07
4.13885e-07
4.20727e-07
3.22619e-07
3.95137e-07
2.25182e-07
4.40675e-07
2.75408e-07
6.56173e-07
6.39759e-07
9.87373e-07
9.61329e-07
9.05897e-07
8.52315e-07
8.00722e-07
7.5119e-07
7.03747e-07
6.58467e-07
6.14731e-07
5.73185e-07
5.31779e-07
5.02782e-07
4.63881e-07
4.49438e-07
3.93123e-07
4.03288e-07
3.07412e-07
3.82807e-07
2.16391e-07
4.3304e-07
2.72959e-07
6.53008e-07
6.38847e-07
9.92599e-07
1.21831e-06
1.16756e-06
1.11663e-06
1.06576e-06
1.01526e-06
9.65366e-07
9.16318e-07
8.68316e-07
8.21532e-07
7.76082e-07
7.32068e-07
6.89593e-07
6.48676e-07
6.09507e-07
5.71369e-07
5.35163e-07
4.98261e-07
4.73089e-07
4.37042e-07
4.25993e-07
3.72245e-07
3.8564e-07
2.92137e-07
3.70376e-07
2.07474e-07
4.25504e-07
2.70623e-07
6.50249e-07
6.4004e-07
9.97761e-07
1.46363e-06
1.43985e-06
1.41441e-06
1.38723e-06
1.35821e-06
1.32733e-06
1.29465e-06
1.26024e-06
1.22423e-06
1.18681e-06
1.14813e-06
1.1084e-06
1.06785e-06
1.02671e-06
9.85231e-07
9.43607e-07
9.02095e-07
8.60905e-07
8.20241e-07
7.80283e-07
7.41172e-07
7.03009e-07
6.65871e-07
6.29862e-07
5.94979e-07
5.61511e-07
5.28647e-07
4.97524e-07
4.64988e-07
4.43513e-07
4.10292e-07
4.02481e-07
3.51395e-07
3.67881e-07
2.76885e-07
3.57883e-07
1.98519e-07
4.18087e-07
2.68347e-07
6.47837e-07
6.42351e-07
1.00285e-06
2.69175e-08
1.62332e-09
0
0
3.87048e-05
7.97205e-05
0.00693245
0.0877996
0.339503
0.751251
1.19078
1.49858
1.55143
1.29147
0.745611
0.079223
0.71744
1.25787
1.42621
1.16672
0.65179
0.212533
0.0298735
0.00029401
3.33606e-05
0
0
0
2.82695e-08
3.8659e-07
1.41213e-06
1.57496e-06
1.37927e-06
1.29256e-06
1.28607e-06
1.27987e-06
1.26257e-06
1.2436e-06
1.22515e-06
1.20578e-06
1.1849e-06
1.16254e-06
1.13865e-06
1.11318e-06
1.08617e-06
1.05771e-06
1.02796e-06
9.97072e-07
9.6519e-07
9.32501e-07
8.99209e-07
8.65524e-07
8.31603e-07
7.97664e-07
7.63887e-07
7.30439e-07
6.97474e-07
6.65117e-07
6.33433e-07
6.02472e-07
5.72337e-07
5.42985e-07
5.14792e-07
4.86852e-07
4.60524e-07
4.32183e-07
4.14251e-07
3.8381e-07
3.79056e-07
3.30694e-07
3.501e-07
2.61771e-07
3.45333e-07
1.89596e-07
4.10639e-07
2.66206e-07
6.45622e-07
6.4595e-07
1.00789e-06
8.23939e-07
4.06984e-08
2.60333e-09
0
0
6.81511e-08
0.000504631
0.000894819
0.0352185
0.192593
0.517685
0.927278
1.26979
1.40821
1.26263
0.83251
0.20986
0.487045
1.03593
1.27196
1.10794
0.665072
0.240128
0.0382107
0.000705183
5.8748e-05
0
0
0
1.00004e-08
1.2133e-07
1.06315e-06
1.37197e-06
1.19813e-06
1.08685e-06
1.07126e-06
1.06898e-06
1.05643e-06
1.04108e-06
1.02643e-06
1.01099e-06
9.93831e-07
9.75167e-07
9.55212e-07
9.33975e-07
9.11452e-07
8.87767e-07
8.63058e-07
8.37449e-07
8.11101e-07
7.84194e-07
7.56901e-07
7.29362e-07
7.01762e-07
6.74248e-07
6.46966e-07
6.20041e-07
5.93572e-07
5.67609e-07
5.42158e-07
5.17316e-07
4.9299e-07
4.69641e-07
4.46253e-07
4.24411e-07
4.00065e-07
3.85498e-07
3.57773e-07
3.55874e-07
3.10291e-07
3.32415e-07
2.46875e-07
3.32769e-07
1.80722e-07
4.03243e-07
2.63994e-07
6.43486e-07
6.49627e-07
1.01324e-06
8.36831e-07
7.2108e-07
7.20718e-08
4.22158e-09
0
0
0
0.000153961
0.000252205
0.0102083
0.0950846
0.329552
0.688535
1.04435
1.25142
1.20841
0.888512
0.352308
0.285926
0.831889
1.12173
1.04293
0.670786
0.265552
0.0488694
0.00168808
8.83307e-05
0
0
0
6.10044e-10
3.14385e-09
6.41931e-07
1.10811e-06
1.02752e-06
9.1745e-07
8.9615e-07
8.97622e-07
8.88247e-07
8.73332e-07
8.59707e-07
8.46863e-07
8.32892e-07
8.17338e-07
8.00498e-07
7.82578e-07
7.6367e-07
7.43871e-07
7.23275e-07
7.02039e-07
6.80316e-07
6.58263e-07
6.3601e-07
6.13707e-07
5.91479e-07
5.69457e-07
5.47734e-07
5.26402e-07
5.05462e-07
4.8492e-07
4.64837e-07
4.4506e-07
4.26147e-07
4.06964e-07
3.89269e-07
3.68742e-07
3.57341e-07
3.32283e-07
3.33002e-07
2.9027e-07
3.14828e-07
2.32281e-07
3.20236e-07
1.71968e-07
3.9554e-07
2.61651e-07
6.41932e-07
6.53464e-07
1.01889e-06
6.48108e-07
7.18482e-07
6.54886e-07
1.59027e-07
8.67911e-09
0
0
0
5.55602e-06
1.3771e-05
0.00165684
0.0391933
0.190428
0.483207
0.830885
1.0886
1.13469
0.915999
0.466187
0.120138
0.650446
0.980391
0.974812
0.668418
0.286128
0.059544
0.00297482
0.000122145
0
0
0
4.07138e-12
3.16747e-08
4.36997e-07
8.87683e-07
8.80838e-07
7.67112e-07
7.32821e-07
7.41704e-07
7.44963e-07
7.35594e-07
7.22535e-07
7.10207e-07
6.98019e-07
6.84879e-07
6.70543e-07
6.55249e-07
6.39213e-07
6.22522e-07
6.0531e-07
5.87701e-07
5.69857e-07
5.51883e-07
5.33912e-07
5.16074e-07
4.98455e-07
4.81148e-07
4.64201e-07
4.4763e-07
4.31392e-07
4.15517e-07
3.99818e-07
3.84886e-07
3.69539e-07
3.55636e-07
3.38649e-07
3.30224e-07
3.07695e-07
3.10827e-07
2.70826e-07
2.97704e-07
2.17974e-07
3.07966e-07
1.6275e-07
3.88351e-07
2.58403e-07
6.40334e-07
6.57924e-07
1.02668e-06
5.6685e-07
5.63487e-07
6.31425e-07
5.76812e-07
2.73032e-07
1.46235e-08
3.08973e-12
0
0
1.90416e-09
0.000215888
0.000244196
0.011697
0.0926914
0.30377
0.616855
0.90951
1.04281
0.931164
0.57553
0.0786273
0.468935
0.837052
0.906521
0.670194
0.314384
0.0754283
0.00494003
0.000112022
1.10351e-05
0
0
0
1.88369e-08
2.26983e-07
6.71123e-07
8.08063e-07
7.14292e-07
6.28688e-07
6.06007e-07
6.08818e-07
6.08278e-07
6.00192e-07
5.89271e-07
5.78235e-07
5.66986e-07
5.55045e-07
5.42325e-07
5.29019e-07
5.15337e-07
5.01327e-07
4.87169e-07
4.72966e-07
4.58819e-07
4.44864e-07
4.31159e-07
4.17803e-07
4.0478e-07
3.92154e-07
3.79829e-07
3.67797e-07
3.55879e-07
3.44624e-07
3.32837e-07
3.22524e-07
3.08914e-07
3.033e-07
2.83383e-07
2.88614e-07
2.51695e-07
2.80222e-07
2.04322e-07
2.94945e-07
1.54791e-07
3.79934e-07
2.56036e-07
6.37698e-07
6.61975e-07
1.03158e-06
4.99444e-07
4.84293e-07
4.9423e-07
5.09892e-07
4.89591e-07
3.79583e-07
6.17075e-08
3.5522e-09
1.7816e-13
0
0
2.56587e-05
7.77605e-05
0.00111343
0.0228065
0.113952
0.31052
0.574143
0.794637
0.853631
0.688981
0.326383
0.142815
0.543594
0.744181
0.667603
0.402447
0.147604
0.0275634
0.000950657
0.00010027
2.16729e-06
0
0
2.3011e-10
1.13907e-08
1.09495e-07
4.23316e-07
5.81419e-07
5.57087e-07
5.01224e-07
4.78408e-07
4.76476e-07
4.75152e-07
4.68851e-07
4.60064e-07
4.50968e-07
4.41686e-07
4.31996e-07
4.21928e-07
4.11556e-07
4.01113e-07
3.90705e-07
3.80433e-07
3.70363e-07
3.60589e-07
3.51204e-07
3.42175e-07
3.3356e-07
3.25226e-07
3.17179e-07
3.09179e-07
3.01769e-07
2.93742e-07
2.87114e-07
2.77303e-07
2.74402e-07
2.57795e-07
2.64536e-07
2.32183e-07
2.60532e-07
1.91785e-07
2.78119e-07
1.48761e-07
3.62189e-07
2.44002e-07
6.09052e-07
6.28893e-07
9.58253e-07
4.22621e-07
4.14745e-07
4.16714e-07
4.12163e-07
4.09038e-07
4.2946e-07
3.84346e-07
2.46922e-07
4.29338e-09
3.03163e-10
0
0
2.50285e-08
1.03389e-05
0.000309746
0.000785524
0.0171665
0.0883327
0.247484
0.468132
0.65579
0.701008
0.546372
0.219759
0.179163
0.497106
0.611623
0.494885
0.26664
0.086828
0.0137362
0.000228607
4.89182e-05
2.22984e-07
0
0
8.08198e-11
8.55139e-09
9.56815e-08
3.33826e-07
4.36959e-07
4.10755e-07
3.71623e-07
3.58953e-07
3.5853e-07
3.56289e-07
3.50444e-07
3.43461e-07
3.36532e-07
3.29531e-07
3.22353e-07
3.15176e-07
3.08089e-07
3.01274e-07
2.94774e-07
2.88681e-07
2.83075e-07
2.77915e-07
2.7327e-07
2.68939e-07
2.64945e-07
2.60972e-07
2.57524e-07
2.53424e-07
2.50582e-07
2.4468e-07
2.44675e-07
2.31472e-07
2.39989e-07
2.11908e-07
2.41116e-07
1.78083e-07
2.63592e-07
1.4228e-07
3.52666e-07
2.44668e-07
6.065e-07
6.43432e-07
9.66269e-07
3.51189e-07
3.46342e-07
3.50946e-07
3.47452e-07
3.38996e-07
3.36575e-07
3.46269e-07
3.57221e-07
2.88685e-07
1.01657e-07
5.43774e-09
1.09978e-12
0
0
0
9.99713e-06
0.000290199
0.000532251
0.0142864
0.0760998
0.215851
0.40866
0.565718
0.585579
0.421474
0.113801
0.230031
0.463291
0.495453
0.35209
0.163809
0.0437298
0.00449804
1.4448e-05
1.93211e-05
0
0
0
7.94065e-11
1.0561e-08
1.29783e-07
2.85258e-07
3.16575e-07
2.86243e-07
2.65995e-07
2.6245e-07
2.6191e-07
2.58517e-07
2.5346e-07
2.48296e-07
2.43394e-07
2.38663e-07
2.34128e-07
2.30027e-07
2.26411e-07
2.23374e-07
2.20978e-07
2.19199e-07
2.1804e-07
2.17303e-07
2.16977e-07
2.16673e-07
2.16825e-07
2.16282e-07
2.16854e-07
2.14414e-07
2.17064e-07
2.06975e-07
2.17175e-07
1.92845e-07
2.23154e-07
1.64789e-07
2.50671e-07
1.34709e-07
3.4524e-07
2.43064e-07
6.07537e-07
6.54101e-07
9.73266e-07
2.84459e-07
2.89828e-07
2.88504e-07
2.83382e-07
2.77948e-07
2.75034e-07
2.77853e-07
2.93806e-07
2.81393e-07
2.01433e-07
2.26182e-08
1.46041e-09
0
0
0
0
8.90586e-06
0.000276826
0.000541275
0.0138799
0.0723001
0.20106
0.371549
0.495994
0.482305
0.301
0.0205886
0.271077
0.418223
0.383894
0.233924
0.0888951
0.0178695
0.00084194
6.17579e-05
1.56331e-06
0
0
0
2.78896e-09
2.80017e-08
1.56372e-07
2.22522e-07
2.14125e-07
1.93274e-07
1.86015e-07
1.85151e-07
1.83404e-07
1.80105e-07
1.76713e-07
1.73762e-07
1.71267e-07
1.69394e-07
1.68182e-07
1.6773e-07
1.68086e-07
1.69211e-07
1.71056e-07
1.73388e-07
1.76181e-07
1.78978e-07
1.82147e-07
1.84537e-07
1.87875e-07
1.88233e-07
1.92982e-07
1.85611e-07
1.97074e-07
1.76119e-07
2.07125e-07
1.53089e-07
2.39175e-07
1.27938e-07
3.39199e-07
2.40809e-07
6.10126e-07
6.5982e-07
9.79657e-07
2.29999e-07
2.35497e-07
2.34949e-07
2.31991e-07
2.29312e-07
2.26141e-07
2.23303e-07
2.23653e-07
2.30341e-07
2.42491e-07
2.14124e-07
9.50985e-08
5.35138e-09
1.12114e-12
0
0
0
0
9.4596e-06
0.000274636
0.000782652
0.015434
0.0748172
0.19775
0.347563
0.435608
0.38305
0.18494
0.0826428
0.293959
0.360251
0.277967
0.138813
0.0399647
0.00478297
4.81352e-05
3.22162e-05
0
0
0
2.76423e-11
5.5567e-09
6.09155e-08
1.31712e-07
1.43319e-07
1.30269e-07
1.22207e-07
1.20856e-07
1.20354e-07
1.19035e-07
1.17742e-07
1.17119e-07
1.17373e-07
1.18499e-07
1.20556e-07
1.23577e-07
1.27447e-07
1.32075e-07
1.37171e-07
1.42668e-07
1.48103e-07
1.53769e-07
1.58537e-07
1.6402e-07
1.66551e-07
1.72809e-07
1.67786e-07
1.80061e-07
1.62183e-07
1.93349e-07
1.43593e-07
2.29242e-07
1.2292e-07
3.34249e-07
2.38508e-07
6.14e-07
6.60641e-07
9.87065e-07
1.83242e-07
1.88092e-07
1.88007e-07
1.86082e-07
1.84468e-07
1.82567e-07
1.81253e-07
1.78901e-07
1.77354e-07
1.79278e-07
1.907e-07
1.8982e-07
1.44561e-07
1.90441e-08
1.36889e-09
1.89645e-14
0
0
0
0
1.96438e-05
1.75105e-05
0.00135085
0.0190692
0.0830442
0.202677
0.32967
0.375925
0.283133
0.075321
0.154885
0.29361
0.288167
0.18062
0.0691485
0.0135504
0.000537003
5.58488e-05
0
0
0
0
2.19335e-09
2.07827e-08
6.51827e-08
8.31833e-08
7.76594e-08
7.02858e-08
6.8041e-08
6.82263e-08
6.89648e-08
7.03749e-08
7.29781e-08
7.68453e-08
8.18109e-08
8.77079e-08
9.4352e-08
1.0157e-07
1.09084e-07
1.16779e-07
1.24265e-07
1.31787e-07
1.38277e-07
1.45201e-07
1.49213e-07
1.563e-07
1.53112e-07
1.65742e-07
1.50548e-07
1.81395e-07
1.3561e-07
2.20386e-07
1.18707e-07
3.29996e-07
2.35576e-07
6.18176e-07
6.54851e-07
9.96446e-07
1.54385e-07
1.57977e-07
1.58545e-07
1.5709e-07
1.55653e-07
1.54571e-07
1.53972e-07
1.52652e-07
1.51182e-07
1.49259e-07
1.49778e-07
1.53676e-07
1.64573e-07
1.43609e-07
8.66539e-08
2.52199e-10
4.04777e-11
0
0
0
0
6.54561e-09
5.86078e-05
7.32218e-05
0.00261304
0.0258741
0.0972548
0.212793
0.311013
0.310072
0.18024
0.0279442
0.202951
0.265477
0.205716
0.0993187
0.0262939
0.00257108
4.41741e-06
2.72955e-06
0
0
0
3.32381e-10
1.20881e-09
1.09416e-08
1.68476e-08
2.0636e-08
2.12059e-08
2.23608e-08
2.64944e-08
3.26433e-08
3.97194e-08
4.75003e-08
5.59143e-08
6.47694e-08
7.38496e-08
8.30434e-08
9.21593e-08
1.01189e-07
1.0984e-07
1.18389e-07
1.25847e-07
1.33452e-07
1.38299e-07
1.45587e-07
1.43796e-07
1.56256e-07
1.43585e-07
1.73365e-07
1.31774e-07
2.14455e-07
1.17956e-07
3.27686e-07
2.32052e-07
6.23375e-07
6.36797e-07
1.01606e-06
1.26084e-07
1.29855e-07
1.30207e-07
1.28864e-07
1.27647e-07
1.27366e-07
1.27548e-07
1.25979e-07
1.25623e-07
1.25105e-07
1.23666e-07
1.22862e-07
1.25477e-07
1.31e-07
1.34927e-07
1.03923e-07
3.78052e-08
3.13912e-09
2.34236e-12
0
0
0
0
3.18087e-07
7.97316e-05
3.37409e-05
0.00504359
0.0369612
0.116903
0.223032
0.282837
0.230798
0.0734975
0.109907
0.219354
0.209442
0.12194
0.0404845
0.00593144
8.19498e-05
3.64904e-05
0
0
0
7.22032e-12
1.54537e-09
8.13932e-09
3.74433e-08
3.06427e-08
2.1984e-08
2.38599e-08
3.07181e-08
3.88728e-08
4.69819e-08
5.50036e-08
6.31931e-08
7.15107e-08
7.9885e-08
8.81196e-08
9.62502e-08
1.04065e-07
1.11821e-07
1.18668e-07
1.25533e-07
1.29872e-07
1.36137e-07
1.34528e-07
1.46036e-07
1.34693e-07
1.6319e-07
1.23768e-07
2.05416e-07
1.10655e-07
3.2161e-07
2.23055e-07
6.22494e-07
6.03593e-07
1.04834e-06
1.36095e-07
1.38031e-07
1.37881e-07
1.36409e-07
1.35011e-07
1.34063e-07
1.33504e-07
1.32029e-07
1.31053e-07
1.29917e-07
1.2815e-07
1.26592e-07
1.25418e-07
1.25097e-07
1.26846e-07
1.32509e-07
1.22209e-07
8.73753e-08
2.35463e-08
2.39349e-09
2.82591e-12
0
0
0
0
9.13416e-07
0.000155194
0.000358525
0.0104131
0.0548741
0.145007
0.239071
0.2581
0.159447
0.026266
0.169255
0.213002
0.151149
0.0617963
0.0106166
0.00014919
6.56291e-05
3.02231e-05
6.13095e-06
1.8626e-07
0
2.24093e-11
2.19763e-09
4.33685e-08
8.75303e-08
8.12417e-08
7.0783e-08
6.9113e-08
7.27112e-08
7.78582e-08
8.34297e-08
8.93717e-08
9.56812e-08
1.02182e-07
1.0878e-07
1.15324e-07
1.21954e-07
1.27997e-07
1.33986e-07
1.37814e-07
1.43136e-07
1.42047e-07
1.52154e-07
1.42789e-07
1.68484e-07
1.33065e-07
2.10104e-07
1.17889e-07
3.27738e-07
2.116e-07
6.34125e-07
5.47772e-07
1.16064e-06
1.16526e-07
1.17309e-07
1.17638e-07
1.18103e-07
1.18408e-07
1.18719e-07
1.19322e-07
1.20049e-07
1.20661e-07
1.21009e-07
1.21344e-07
1.2195e-07
1.22484e-07
1.2305e-07
1.23542e-07
1.26265e-07
1.31059e-07
1.34514e-07
1.22906e-07
9.28937e-08
2.39727e-08
2.13291e-09
0
0
0
0
0
5.81831e-06
0.000131368
0.000465034
0.00888294
0.0417264
0.102856
0.161206
0.165438
0.0920631
0.0266791
0.118261
0.1359
0.0914646
0.0386656
0.00999136
0.00132394
2.64732e-05
2.28405e-05
3.85887e-06
0
0
1.75189e-09
2.69247e-08
8.0217e-08
1.03003e-07
1.03594e-07
1.01537e-07
1.01748e-07
1.0334e-07
1.05379e-07
1.07616e-07
1.09988e-07
1.12446e-07
1.14926e-07
1.17573e-07
1.19973e-07
1.22516e-07
1.23202e-07
1.24769e-07
1.21219e-07
1.28183e-07
1.17596e-07
1.40735e-07
1.03187e-07
1.79561e-07
7.89323e-08
2.92406e-07
1.75162e-07
5.76935e-07
5.46603e-07
1.14586e-06
)
;

boundaryField
{
    inlet
    {
        type            calculated;
        value           nonuniform List<scalar> 
27
(
6.10466e-06
6.11272e-06
6.12754e-06
6.14721e-06
6.16813e-06
6.18979e-06
6.21282e-06
6.23703e-06
6.26231e-06
6.28774e-06
6.31319e-06
6.3382e-06
6.36225e-06
6.38478e-06
6.40517e-06
6.4228e-06
6.43787e-06
6.40719e-06
6.41123e-06
6.40955e-06
6.399e-06
6.37851e-06
6.34537e-06
6.29814e-06
6.23026e-06
6.16267e-06
6.02587e-06
)
;
    }
    outlet
    {
        type            calculated;
        value           nonuniform List<scalar> 
78
(
9.4567e-08
9.56672e-08
9.6229e-08
9.69579e-08
9.75042e-08
9.80575e-08
9.89735e-08
1.00039e-07
1.00966e-07
1.01582e-07
1.02186e-07
1.03105e-07
1.03993e-07
1.04923e-07
1.0575e-07
1.08422e-07
1.12702e-07
1.15502e-07
1.05427e-07
8.04944e-08
2.15255e-08
2.00281e-09
0
0
0
0
0
5.84538e-06
0.000131063
0.000438648
0.0088034
0.041578
0.102732
0.161322
0.166002
0.0930454
0.0249454
0.117049
0.135193
0.091218
0.0386487
0.0100213
0.00134083
1.74523e-05
2.17865e-05
3.6696e-06
0
0
1.53167e-09
2.39689e-08
7.20666e-08
9.2706e-08
9.30985e-08
9.09483e-08
9.06773e-08
9.14775e-08
9.25265e-08
9.36298e-08
9.47524e-08
9.58906e-08
9.69981e-08
9.83116e-08
9.93486e-08
1.00776e-07
1.00112e-07
1.01187e-07
9.58774e-08
1.04479e-07
8.9746e-08
1.19665e-07
6.91648e-08
1.64593e-07
2.11175e-08
2.81453e-07
1.56864e-07
5.5755e-07
5.47926e-07
1.08464e-06
)
;
    }
    walls
    {
        type            calculated;
        value           nonuniform List<scalar> 0();
    }
    frontAndBack
    {
        type            empty;
    }
    procBoundary7to3
    {
        type            processor;
        value           nonuniform List<scalar> 
16
(
1.17611e-06
1.19499e-06
9.07886e-07
7.74697e-07
6.86188e-07
5.87447e-07
4.82375e-07
3.93952e-07
2.8734e-07
2.8734e-07
2.31824e-07
1.84905e-07
1.55982e-07
1.2643e-07
1.38729e-07
1.14742e-07
)
;
    }
    procBoundary7to6
    {
        type            processor;
        value           nonuniform List<scalar> 
91
(
9.37136e-07
7.37462e-07
7.37462e-07
7.05983e-07
7.05983e-07
2.91174e-07
2.91174e-07
2.65367e-07
4.8259e-07
4.8259e-07
3.81562e-07
4.43245e-07
4.43245e-07
5.40302e-07
4.74904e-07
4.71397e-07
4.71397e-07
6.31906e-07
5.90918e-07
5.43437e-07
5.43437e-07
8.16551e-07
7.57963e-07
7.02209e-07
6.49375e-07
6.49375e-07
1.05887e-06
9.93789e-07
9.31246e-07
8.71377e-07
8.14216e-07
8.14216e-07
1.38499e-06
1.32252e-06
1.26022e-06
1.19835e-06
1.13725e-06
1.07721e-06
1.01849e-06
1.01849e-06
1.72349e-06
1.69201e-06
1.65854e-06
1.62295e-06
1.58518e-06
1.54527e-06
1.50331e-06
1.4594e-06
1.41373e-06
1.36657e-06
1.3181e-06
1.26857e-06
1.26857e-06
2.12278e-12
0
0
0.000335494
0.000298781
0.0261332
0.180896
0.539027
1.02492
1.47406
1.72878
1.68098
1.29517
0.627629
0.217586
0.979813
1.5001
1.58576
1.21992
0.632425
0.183557
0.0207117
0.000310766
4.01629e-05
0
0
0
4.98834e-08
7.1344e-07
1.80438e-06
1.84964e-06
1.63493e-06
1.55792e-06
1.54831e-06
1.53326e-06
1.50968e-06
1.48632e-06
1.48632e-06
)
;
    }
}


// ************************************************************************* //
