/*--------------------------------*- C++ -*----------------------------------*\
| =========                 |                                                 |
| \\      /  F ield         | OpenFOAM: The Open Source CFD Toolbox           |
|  \\    /   O peration     | Version:  2306                                  |
|   \\  /    A nd           | Website:  www.openfoam.com                      |
|    \\/     M anipulation  |                                                 |
\*---------------------------------------------------------------------------*/
FoamFile
{
    version     2.0;
    format      ascii;
    arch        "LSB;label=32;scalar=64";
    class       volScalarField;
    location    "1000";
    object      turbulenceProperties:epsilon;
}
// * * * * * * * * * * * * * * * * * * * * * * * * * * * * * * * * * * * * * //

dimensions      [0 2 -3 0 0 0 0];

internalField   nonuniform List<scalar> 
1340
(
6.71412e-10
3.87686e-10
6.91143e-10
3.64615e-10
3.63916e-10
6.90708e-10
6.34846e-11
3.55314e-10
3.48588e-10
6.96395e-10
5.06888e-11
1.70845e-10
6.23022e-11
3.47967e-10
3.35788e-10
7.05827e-10
1.02682e-10
1.41702e-10
4.76865e-11
1.64611e-10
6.10905e-11
3.41395e-10
3.25606e-10
7.15467e-10
2.04284e-10
1.57406e-10
1.57398e-10
9.46177e-11
1.3391e-10
4.46342e-11
1.58635e-10
5.99244e-11
3.35801e-10
3.18386e-10
7.24549e-10
2.72684e-10
2.40095e-10
2.03467e-10
1.86855e-10
1.43614e-10
1.45904e-10
8.67675e-11
1.26262e-10
4.15894e-11
1.53039e-10
5.87963e-11
3.31291e-10
3.13869e-10
7.32889e-10
4.39189e-10
3.81388e-10
3.2981e-10
2.84315e-10
2.43125e-10
2.15638e-10
1.83134e-10
1.69978e-10
1.30335e-10
1.34681e-10
7.9194e-11
1.18799e-10
3.85823e-11
1.47759e-10
5.77117e-11
3.276e-10
3.11391e-10
7.41716e-10
7.0308e-10
6.24337e-10
5.52667e-10
4.87785e-10
4.29304e-10
3.76791e-10
3.29866e-10
2.87504e-10
2.49959e-10
2.15152e-10
1.9233e-10
1.63721e-10
1.53686e-10
1.17586e-10
1.23748e-10
7.1904e-11
1.11501e-10
3.56286e-11
1.42683e-10
5.66899e-11
3.24448e-10
3.10504e-10
7.49586e-10
1.1292e-09
1.03708e-09
9.48586e-10
8.64131e-10
7.84176e-10
7.08994e-10
6.38779e-10
5.73607e-10
5.13463e-10
4.58222e-10
4.07723e-10
3.61785e-10
3.20127e-10
2.82636e-10
2.48374e-10
2.17896e-10
1.88885e-10
1.70283e-10
1.45323e-10
1.3807e-10
1.05428e-10
1.13154e-10
6.49355e-11
1.04376e-10
3.27527e-11
1.37761e-10
5.57238e-11
3.21712e-10
3.11664e-10
7.574e-10
1.62973e-09
1.5772e-09
1.52197e-09
1.46403e-09
1.40341e-09
1.34034e-09
1.27514e-09
1.20826e-09
1.1402e-09
1.07156e-09
1.00286e-09
9.34648e-10
8.67518e-10
8.01958e-10
7.38469e-10
6.77389e-10
6.191e-10
5.63855e-10
5.11847e-10
4.63193e-10
4.17924e-10
3.75995e-10
3.3732e-10
3.01824e-10
2.6932e-10
2.39875e-10
2.12619e-10
1.88323e-10
1.645e-10
1.49657e-10
1.28078e-10
1.23249e-10
9.39485e-11
1.02972e-10
5.83321e-11
9.74539e-11
2.99865e-11
1.33e-10
5.47902e-11
3.1933e-10
3.13918e-10
7.65144e-10
2.91381e-13
5.40111e-16
0
0
4.34847e-07
6.30508e-07
0.000134276
0.00628548
0.0460392
0.144232
0.270939
0.353827
0.334219
0.214191
0.0683879
0.00075797
0.0619732
0.196278
0.276623
0.225116
0.101163
0.0203498
0.00118481
1.98985e-06
9.23888e-08
0
0
0
2.70835e-13
9.73827e-11
1.5164e-09
1.87056e-09
1.44563e-09
1.27179e-09
1.25863e-09
1.24612e-09
1.21267e-09
1.17655e-09
1.14191e-09
1.10608e-09
1.06811e-09
1.02817e-09
9.86353e-10
9.42721e-10
8.97527e-10
8.51109e-10
8.03906e-10
7.56323e-10
7.08729e-10
6.61535e-10
6.15143e-10
5.69919e-10
5.26123e-10
4.84056e-10
4.43929e-10
4.05904e-10
3.70094e-10
3.36553e-10
3.05253e-10
2.76143e-10
2.4921e-10
2.24305e-10
2.01619e-10
1.80328e-10
1.61354e-10
1.42107e-10
1.3056e-10
1.12078e-10
1.0932e-10
8.32048e-11
9.32583e-11
5.21378e-11
9.07388e-11
2.73513e-11
1.28304e-10
5.39193e-11
3.1715e-10
3.17444e-10
7.72847e-10
5.15917e-10
7.63801e-13
1.5974e-15
0
0
1.52377e-12
5.48229e-06
4.38666e-06
0.00152163
0.0190634
0.0801987
0.181507
0.270453
0.286083
0.209254
0.0862555
0.00534594
0.0286187
0.132539
0.216624
0.1964
0.0989135
0.0231787
0.00164939
6.29731e-06
1.56453e-07
0
0
0
2.70996e-14
7.65911e-12
8.6148e-10
1.41349e-09
1.08857e-09
8.99012e-10
8.73382e-10
8.69351e-10
8.49038e-10
8.24574e-10
8.01528e-10
7.7758e-10
7.51406e-10
7.23453e-10
6.94149e-10
6.63626e-10
6.32005e-10
5.99585e-10
5.66674e-10
5.33544e-10
5.00499e-10
4.67843e-10
4.35845e-10
4.04706e-10
3.74656e-10
3.45854e-10
3.18433e-10
2.9248e-10
2.68042e-10
2.45107e-10
2.2362e-10
2.03597e-10
1.84901e-10
1.67802e-10
1.51506e-10
1.3704e-10
1.2177e-10
1.13065e-10
9.73871e-11
9.63569e-11
7.32543e-11
8.40744e-11
4.63729e-11
8.42563e-11
2.48509e-11
1.23724e-10
5.30273e-11
3.15056e-10
3.21068e-10
7.81073e-10
5.27964e-10
3.95107e-10
2.79135e-12
4.93884e-15
0
0
0
1.71065e-06
1.25141e-06
0.000222041
0.00642481
0.0397415
0.113562
0.198074
0.237255
0.197221
0.0997243
0.015166
0.0098929
0.085196
0.166166
0.168797
0.0949542
0.0255871
0.00225776
1.90877e-05
1.9398e-07
0
0
0
5.21464e-17
2.17306e-15
3.10104e-10
9.24889e-10
7.99374e-10
6.40438e-10
6.11189e-10
6.12891e-10
6.00124e-10
5.8023e-10
5.62298e-10
5.45612e-10
5.27749e-10
5.08222e-10
4.87497e-10
4.65915e-10
4.43673e-10
4.20966e-10
3.97978e-10
3.74951e-10
3.52106e-10
3.29649e-10
3.07737e-10
2.86533e-10
2.66153e-10
2.46704e-10
2.28241e-10
2.10809e-10
1.94371e-10
1.78895e-10
1.64384e-10
1.50695e-10
1.3816e-10
1.26002e-10
1.15285e-10
1.03448e-10
9.71511e-11
8.40042e-11
8.43688e-11
6.41061e-11
7.54133e-11
4.10519e-11
7.80287e-11
2.25017e-11
1.19042e-10
5.20903e-11
3.13536e-10
3.24872e-10
7.89809e-10
3.19422e-10
3.89744e-10
3.26031e-10
1.66322e-11
2.61365e-14
0
0
0
2.31883e-08
1.02e-07
1.14887e-05
0.00164319
0.017073
0.0654697
0.138289
0.19062
0.180079
0.107986
0.0267982
0.00175561
0.0520525
0.125579
0.143609
0.0896413
0.0272465
0.00287401
3.89677e-05
2.48735e-07
0
0
0
6.77403e-22
4.07068e-13
1.41093e-10
5.94704e-10
5.86245e-10
4.47838e-10
4.09019e-10
4.18689e-10
4.22129e-10
4.1158e-10
3.97151e-10
3.83734e-10
3.70672e-10
3.56843e-10
3.4206e-10
3.26635e-10
3.10844e-10
2.94822e-10
2.78745e-10
2.62763e-10
2.47049e-10
2.3171e-10
2.16865e-10
2.02616e-10
1.89018e-10
1.76121e-10
1.63933e-10
1.52438e-10
1.4158e-10
1.31351e-10
1.21614e-10
1.12701e-10
1.03893e-10
9.62234e-11
8.72516e-11
8.29653e-11
7.20318e-11
7.35064e-11
5.58052e-11
6.74325e-11
3.61506e-11
7.21636e-11
2.0154e-11
1.14754e-10
5.08048e-11
3.11977e-10
3.2932e-10
8.01926e-10
2.44523e-10
2.41467e-10
3.01624e-10
2.52835e-10
5.48885e-11
8.73848e-14
4.80005e-22
0
0
5.19374e-16
2.15763e-06
7.36819e-07
0.000252014
0.00566074
0.0320264
0.0870931
0.144178
0.159076
0.114038
0.0411716
0.000752969
0.0269565
0.0903679
0.120668
0.0854497
0.0300236
0.00393335
8.1079e-05
1.42871e-07
4.13398e-08
0
0
0
1.28144e-13
3.51344e-11
3.41697e-10
4.87035e-10
3.85702e-10
3.00763e-10
2.79637e-10
2.82084e-10
2.81461e-10
2.74019e-10
2.6416e-10
2.54368e-10
2.44566e-10
2.34372e-10
2.23752e-10
2.12908e-10
2.02038e-10
1.91202e-10
1.80554e-10
1.7018e-10
1.60152e-10
1.50558e-10
1.41424e-10
1.32799e-10
1.24649e-10
1.16994e-10
1.09757e-10
1.02913e-10
9.63525e-11
9.0355e-11
8.42804e-11
7.91392e-11
7.26021e-11
6.99878e-11
6.10986e-11
6.33757e-11
4.81994e-11
5.97452e-11
3.1764e-11
6.61906e-11
1.8231e-11
1.09834e-10
4.98786e-11
3.09414e-10
3.33387e-10
8.09595e-10
1.89764e-10
1.78461e-10
1.8578e-10
1.97325e-10
1.82023e-10
1.09788e-10
2.24298e-12
3.87264e-15
8.27737e-25
0
0
1.7418e-07
4.71825e-07
5.62206e-06
0.000664691
0.00725051
0.0308785
0.0723548
0.107531
0.105253
0.0621252
0.0132662
0.00251555
0.0375444
0.0772507
0.0756201
0.03912
0.00954538
0.000842806
6.88951e-06
2.29527e-07
3.33898e-09
0
0
6.56215e-18
4.43165e-14
7.40583e-12
1.36537e-10
2.54362e-10
2.34567e-10
1.91028e-10
1.74238e-10
1.7278e-10
1.71754e-10
1.67217e-10
1.61018e-10
1.54718e-10
1.48415e-10
1.41973e-10
1.35433e-10
1.28856e-10
1.224e-10
1.1613e-10
1.10104e-10
1.04353e-10
9.89174e-11
9.38357e-11
8.90731e-11
8.46446e-11
8.04681e-11
7.65354e-11
7.27237e-11
6.92799e-11
6.5644e-11
6.27157e-11
5.85034e-11
5.72864e-11
5.05625e-11
5.32422e-11
4.10159e-11
5.16439e-11
2.79855e-11
5.88538e-11
1.68383e-11
9.98139e-11
4.52999e-11
2.8224e-10
3.00898e-10
6.98583e-10
1.35874e-10
1.30858e-10
1.32125e-10
1.29235e-10
1.27174e-10
1.39685e-10
1.124e-10
4.60652e-11
6.10641e-15
1.61606e-17
0
0
1.9795e-13
5.80585e-08
1.86168e-06
3.23356e-06
0.000419677
0.00475601
0.0209768
0.0504985
0.075746
0.0726273
0.0396948
0.00609875
0.00403126
0.0324685
0.0555731
0.0462995
0.0202169
0.0041213
0.000285638
9.02559e-07
1.13584e-07
3.09583e-11
0
0
6.69678e-19
2.50608e-14
5.86825e-12
8.49366e-11
1.43574e-10
1.27689e-10
1.0506e-10
9.80865e-11
9.78132e-11
9.65642e-11
9.34223e-11
8.97424e-11
8.61591e-11
8.26113e-11
7.90512e-11
7.55703e-11
7.22101e-11
6.90506e-11
6.61035e-11
6.33991e-11
6.09606e-11
5.87586e-11
5.68111e-11
5.50246e-11
5.34027e-11
5.18132e-11
5.04534e-11
4.88603e-11
4.77708e-11
4.55477e-11
4.55462e-11
4.07639e-11
4.38193e-11
3.41652e-11
4.42331e-11
2.41295e-11
5.28657e-11
1.54031e-11
9.46338e-11
4.55478e-11
2.79881e-10
3.14971e-10
7.10315e-10
9.38275e-11
9.12541e-11
9.36978e-11
9.18471e-11
8.74336e-11
8.61382e-11
9.10009e-11
9.66313e-11
6.3512e-11
7.25147e-12
1.11926e-14
5.3644e-23
0
0
0
5.83795e-08
1.87063e-06
1.71754e-06
0.000311657
0.0036842
0.0164032
0.0391504
0.056934
0.0509693
0.023734
0.00165141
0.00678871
0.0295519
0.039838
0.0270586
0.00947044
0.00144506
5.55272e-05
1.12357e-08
4.94892e-08
0
0
0
6.93332e-19
4.41122e-14
1.21836e-11
6.16753e-11
7.54756e-11
6.22104e-11
5.38598e-11
5.24287e-11
5.21875e-11
5.08372e-11
4.88707e-11
4.69012e-11
4.50676e-11
4.33322e-11
4.17012e-11
4.02532e-11
3.89976e-11
3.79584e-11
3.71484e-11
3.65527e-11
3.61674e-11
3.59234e-11
3.58158e-11
3.57157e-11
3.57662e-11
3.55874e-11
3.57764e-11
3.49761e-11
3.58465e-11
3.2592e-11
3.5884e-11
2.82947e-11
3.7888e-11
2.06612e-11
4.781e-11
1.38073e-11
9.06903e-11
4.49525e-11
2.80839e-10
3.25502e-10
7.20635e-10
6.15589e-11
6.3904e-11
6.33218e-11
6.1095e-11
5.87793e-11
5.75398e-11
5.86765e-11
6.53899e-11
6.00929e-11
3.08924e-11
2.77626e-13
5.99929e-16
0
0
0
0
4.95476e-08
1.71327e-06
1.78158e-06
0.000292962
0.00330202
0.0141061
0.0320391
0.0433413
0.0343523
0.0121102
5.48345e-05
0.00976961
0.0258402
0.0269797
0.014436
0.00375528
0.000376376
4.78431e-06
8.71712e-08
1.8049e-09
0
0
0
2.29063e-15
4.38267e-13
1.86286e-11
3.7209e-11
3.46714e-11
2.84149e-11
2.63402e-11
2.60848e-11
2.55873e-11
2.46754e-11
2.37559e-11
2.29694e-11
2.23146e-11
2.18291e-11
2.15178e-11
2.14023e-11
2.14933e-11
2.17821e-11
2.22597e-11
2.2871e-11
2.36138e-11
2.43695e-11
2.52403e-11
2.59072e-11
2.68532e-11
2.69561e-11
2.83336e-11
2.62107e-11
2.95487e-11
2.35992e-11
3.26404e-11
1.78314e-11
4.35251e-11
1.24541e-11
8.75442e-11
4.41221e-11
2.83238e-10
3.31218e-10
7.30126e-10
4.02444e-11
4.21915e-11
4.1995e-11
4.0944e-11
4.0005e-11
3.89077e-11
3.79399e-11
3.80385e-11
4.02858e-11
4.45135e-11
3.48897e-11
6.59567e-12
1.15374e-14
5.91706e-23
0
0
0
0
5.3874e-08
1.5058e-06
3.29086e-06
0.000335369
0.00333711
0.0130362
0.0270457
0.0325717
0.0213737
0.00458186
0.000903038
0.0121041
0.0211365
0.0166646
0.00659853
0.00114277
5.45075e-05
4.97556e-08
7.58217e-08
0
0
0
7.40733e-20
1.22384e-14
2.69116e-12
1.31202e-11
1.5478e-11
1.28913e-11
1.13685e-11
1.11161e-11
1.10197e-11
1.07789e-11
1.05464e-11
1.0435e-11
1.04803e-11
1.06823e-11
1.10564e-11
1.16176e-11
1.23565e-11
1.32704e-11
1.43141e-11
1.54844e-11
1.66868e-11
1.7988e-11
1.9121e-11
2.04667e-11
2.11035e-11
2.27196e-11
2.14182e-11
2.4667e-11
2.00121e-11
2.84429e-11
1.56879e-11
3.99847e-11
1.14964e-11
8.50079e-11
4.32832e-11
2.86847e-10
3.32043e-10
7.41206e-10
2.5545e-11
2.6915e-11
2.68907e-11
2.63428e-11
2.58876e-11
2.5357e-11
2.49944e-11
2.43517e-11
2.39294e-11
2.4434e-11
2.75648e-11
2.73232e-11
1.59229e-11
2.02633e-13
5.44876e-16
5.99157e-27
0
0
0
0
1.36285e-07
7.50088e-08
8.05587e-06
0.000447489
0.0037107
0.0126705
0.0229889
0.0233806
0.0114853
0.000765802
0.00328618
0.0130393
0.0155356
0.0088383
0.00235545
0.000229986
2.31156e-06
8.55462e-08
0
0
0
0
1.61839e-15
2.78192e-13
3.23617e-12
5.20038e-12
4.57089e-12
3.75902e-12
3.52322e-12
3.54084e-12
3.61769e-12
3.7676e-12
4.05167e-12
4.49237e-12
5.09162e-12
5.85209e-12
6.77232e-12
7.84818e-12
9.05232e-12
1.03745e-11
1.17473e-11
1.32126e-11
1.45461e-11
1.60395e-11
1.69384e-11
1.85858e-11
1.78356e-11
2.08995e-11
1.72438e-11
2.50345e-11
1.3992e-11
3.69551e-11
1.07217e-11
8.28586e-11
4.22256e-11
2.90762e-10
3.26247e-10
7.55357e-10
1.81328e-11
1.89864e-11
1.9123e-11
1.87738e-11
1.84318e-11
1.81764e-11
1.80356e-11
1.77283e-11
1.73893e-11
1.69514e-11
1.70626e-11
1.79395e-11
2.04955e-11
1.57055e-11
5.61305e-12
1.23742e-17
1.8737e-19
0
0
0
0
8.76725e-15
3.97209e-07
2.00158e-07
2.25386e-05
0.000676689
0.0044151
0.0125924
0.0190447
0.0152504
0.00459299
0.000107395
0.00597719
0.0119545
0.00965578
0.00368223
0.00057005
2.03947e-05
2.21196e-10
4.42613e-09
0
0
0
2.6497e-17
6.59756e-16
9.05235e-14
2.13804e-13
3.22262e-13
3.42301e-13
3.80761e-13
5.34133e-13
8.10451e-13
1.19998e-12
1.71639e-12
2.37839e-12
3.19135e-12
4.14886e-12
5.24618e-12
6.46119e-12
7.78937e-12
9.17817e-12
1.06626e-11
1.20483e-11
1.35487e-11
1.4551e-11
1.61251e-11
1.57312e-11
1.85756e-11
1.56854e-11
2.28669e-11
1.32116e-11
3.49926e-11
1.05865e-11
8.17025e-11
4.09718e-11
2.95674e-10
3.08506e-10
7.85383e-10
1.20941e-11
1.28284e-11
1.28979e-11
1.26332e-11
1.23958e-11
1.23413e-11
1.23764e-11
1.20738e-11
1.20058e-11
1.19074e-11
1.16359e-11
1.14849e-11
1.1969e-11
1.3016e-11
1.37843e-11
8.22778e-12
9.65037e-13
3.54147e-15
2.9471e-22
0
0
0
0
5.40372e-11
4.7142e-07
2.62451e-08
6.13235e-05
0.00108884
0.00538682
0.0122778
0.0145809
0.00813177
0.000764581
0.00173263
0.00770897
0.00891986
0.00458315
0.00099619
6.31934e-05
1.02288e-07
8.30788e-08
0
0
0
4.17896e-21
9.46083e-16
4.82287e-14
1.05032e-12
7.00411e-13
3.66491e-13
4.33505e-13
7.18467e-13
1.14978e-12
1.67902e-12
2.30137e-12
3.03783e-12
3.89021e-12
4.85468e-12
5.90712e-12
7.04751e-12
8.23849e-12
9.51229e-12
1.0713e-11
1.19883e-11
1.28316e-11
1.40998e-11
1.37685e-11
1.62251e-11
1.38028e-11
2.02613e-11
1.16548e-11
3.21046e-11
9.31644e-12
7.87003e-11
3.78564e-11
2.94839e-10
2.77174e-10
8.36071e-10
1.40908e-11
1.44946e-11
1.44631e-11
1.4156e-11
1.38672e-11
1.36731e-11
1.35593e-11
1.32613e-11
1.30659e-11
1.28405e-11
1.24938e-11
1.21926e-11
1.19685e-11
1.19027e-11
1.22213e-11
1.32865e-11
1.13459e-11
5.78619e-12
3.31532e-13
1.7939e-15
4.24498e-22
0
0
0
0
5.63637e-10
7.0814e-07
1.02478e-06
0.000171386
0.0018236
0.0068028
0.012221
0.010998
0.00365978
9.62371e-05
0.00427447
0.00818433
0.00590871
0.00181974
0.000166376
6.42215e-07
1.35626e-07
9.0734e-08
1.10826e-08
2.58259e-11
0
7.22862e-20
2.05209e-15
1.40306e-12
5.75822e-12
4.96809e-12
3.80395e-12
3.63456e-12
4.02301e-12
4.61168e-12
5.29493e-12
6.07606e-12
6.96433e-12
7.94279e-12
9.00179e-12
1.01174e-11
1.13143e-11
1.24633e-11
1.36572e-11
1.44488e-11
1.55865e-11
1.53505e-11
1.7613e-11
1.55118e-11
2.15971e-11
1.34715e-11
3.35867e-11
1.05745e-11
8.17281e-11
3.40679e-11
3.0596e-10
2.28277e-10
1.02478e-09
1.033e-11
1.04692e-11
1.0528e-11
1.06113e-11
1.06663e-11
1.07223e-11
1.08315e-11
1.09639e-11
1.10759e-11
1.11399e-11
1.12017e-11
1.13138e-11
1.14136e-11
1.15201e-11
1.1613e-11
1.21217e-11
1.30325e-11
1.36919e-11
1.14853e-11
6.53229e-12
3.31763e-13
1.32675e-15
0
0
0
0
0
2.10342e-08
4.48459e-07
1.63797e-06
0.000128459
0.00113533
0.00377919
0.00621161
0.00507038
0.0013675
0.000111198
0.00235116
0.00378712
0.00245291
0.000750014
0.000102945
4.48576e-06
5.60656e-09
2.20249e-08
2.77216e-09
0
0
1.06704e-15
4.75514e-13
4.8915e-12
8.06624e-12
8.15354e-12
7.8404e-12
7.87559e-12
8.12396e-12
8.44759e-12
8.80987e-12
9.20267e-12
9.61864e-12
1.00476e-11
1.05159e-11
1.09496e-11
1.14189e-11
1.15472e-11
1.1843e-11
1.11787e-11
1.25003e-11
1.05208e-11
1.50688e-11
8.10088e-12
2.45312e-11
4.7404e-12
6.5056e-11
2.33449e-11
2.53262e-10
2.27306e-10
9.98835e-10
)
;

boundaryField
{
    inlet
    {
        type            calculated;
        value           nonuniform List<scalar> 
27
(
2.83534e-08
2.84283e-08
2.85663e-08
2.87499e-08
2.89459e-08
2.91495e-08
2.93667e-08
2.95959e-08
2.98363e-08
3.00789e-08
3.03229e-08
3.05634e-08
3.07957e-08
3.10141e-08
3.12123e-08
3.13842e-08
3.15315e-08
3.12315e-08
3.12707e-08
3.12542e-08
3.11511e-08
3.09518e-08
3.06308e-08
3.01764e-08
2.95292e-08
2.88919e-08
2.76231e-08
)
;
    }
    outlet
    {
        type            calculated;
        value           nonuniform List<scalar> 
78
(
6.80347e-12
6.96268e-12
7.0447e-12
7.15182e-12
7.23264e-12
7.31495e-12
7.45224e-12
7.61349e-12
7.75525e-12
7.85016e-12
7.94384e-12
8.0873e-12
8.22766e-12
8.37587e-12
8.50885e-12
8.93773e-12
9.63735e-12
1.0095e-11
8.45071e-12
4.90484e-12
2.67487e-13
1.16983e-15
0
0
0
0
0
2.12304e-08
4.46379e-07
1.45737e-06
0.000126169
0.00112727
0.00377008
0.0062206
0.00510504
0.00139683
9.72158e-05
0.00230321
0.00374782
0.0024397
0.000749358
0.000103562
4.60095e-06
2.43663e-09
2.0039e-08
2.50689e-09
0
0
8.15637e-16
3.76843e-13
3.94799e-12
6.5341e-12
6.58516e-12
6.29042e-12
6.255e-12
6.36591e-12
6.51258e-12
6.6688e-12
6.82969e-12
6.9948e-12
7.15734e-12
7.35254e-12
7.50852e-12
7.72585e-12
7.62453e-12
7.78923e-12
6.99334e-12
8.30451e-12
6.12768e-12
1.08945e-11
3.6396e-12
2.06119e-11
3.39305e-13
6.02736e-11
1.87224e-11
2.36529e-10
2.28407e-10
8.94957e-10
)
;
    }
    walls
    {
        type            calculated;
        value           nonuniform List<scalar> 0();
    }
    frontAndBack
    {
        type            empty;
    }
    procBoundary7to3
    {
        type            processor;
        value           nonuniform List<scalar> 
16
(
1.05294e-09
1.07718e-09
6.26714e-10
4.56734e-10
3.58211e-10
2.62521e-10
1.77016e-10
1.18069e-10
6.28124e-11
6.28124e-11
4.08856e-11
2.60108e-11
1.85098e-11
1.21606e-11
1.46415e-11
1.00161e-11
)
;
    }
    procBoundary7to6
    {
        type            processor;
        value           nonuniform List<scalar> 
91
(
6.68171e-10
4.13772e-10
4.13772e-10
3.79223e-10
3.79223e-10
6.45078e-11
6.45078e-11
5.35812e-11
1.77204e-10
1.77204e-10
1.10776e-10
1.49488e-10
1.49488e-10
2.22112e-10
1.71599e-10
1.69076e-10
1.69076e-10
3.03802e-10
2.65671e-10
2.24694e-10
2.24694e-10
5.07267e-10
4.37088e-10
3.75154e-10
3.20828e-10
3.20828e-10
8.53e-10
7.51365e-10
6.5977e-10
5.77666e-10
5.04366e-10
5.04366e-10
1.45932e-09
1.33066e-09
1.20824e-09
1.09251e-09
9.83942e-10
8.828e-10
7.89182e-10
7.89182e-10
2.2598e-09
2.178e-09
2.09269e-09
2.00384e-09
1.91166e-09
1.81663e-09
1.7193e-09
1.62033e-09
1.52051e-09
1.42077e-09
1.32176e-09
1.22429e-09
1.22429e-09
1.67193e-22
0
0
4.22213e-06
8.56479e-07
0.00106777
0.0192979
0.0952913
0.237345
0.384042
0.448376
0.380977
0.211933
0.0480415
0.00568524
0.11535
0.280645
0.347964
0.255111
0.101882
0.0172743
0.000741858
1.53966e-06
1.04097e-07
0
0
0
9.36664e-13
3.60015e-10
2.46839e-09
2.5853e-09
2.03236e-09
1.84731e-09
1.82395e-09
1.78834e-09
1.73383e-09
1.68066e-09
1.68066e-09
)
;
    }
}


// ************************************************************************* //
