/*--------------------------------*- C++ -*----------------------------------*\
| =========                 |                                                 |
| \\      /  F ield         | OpenFOAM: The Open Source CFD Toolbox           |
|  \\    /   O peration     | Version:  2306                                  |
|   \\  /    A nd           | Website:  www.openfoam.com                      |
|    \\/     M anipulation  |                                                 |
\*---------------------------------------------------------------------------*/
FoamFile
{
    version     2.0;
    format      ascii;
    arch        "LSB;label=32;scalar=64";
    class       volScalarField;
    location    "325";
    object      magR;
}
// * * * * * * * * * * * * * * * * * * * * * * * * * * * * * * * * * * * * * //

dimensions      [0 2 -2 0 0 0 0];

internalField   nonuniform List<scalar> 
1340
(
0.00059214
0.000585193
0.00057754
0.000568002
0.000555472
0.000502743
0.000496521
0.000489895
0.000481892
0.000471405
0.000459321
0.000429728
0.00042416
0.000418355
0.000411577
0.000402742
0.000392781
0.000381813
0.000369372
0.000364417
0.000359319
0.000353526
0.000346055
0.000337777
0.000328857
0.000319205
0.000319072
0.000314644
0.000310169
0.000305166
0.000298821
0.000291899
0.000284543
0.000276603
0.000268068
0.000276812
0.000272845
0.000268908
0.000264568
0.000259142
0.000253318
0.000247182
0.000240596
0.000233606
0.000226435
0.000241052
0.000237509
0.000234021
0.000230245
0.000225581
0.000220652
0.000215483
0.000209971
0.000204204
0.000198348
0.000210608
0.000207451
0.000204357
0.000201044
0.000197019
0.000192824
0.000188432
0.000183784
0.000178993
0.000174176
0.000169306
0.000184552
0.000181736
0.000178987
0.00017607
0.000172579
0.000168991
0.000165228
0.000161286
0.000157275
0.00015328
0.000149275
0.000162145
0.000159627
0.000157181
0.000154603
0.000151567
0.000148473
0.000145235
0.000141868
0.00013849
0.000135152
0.000131836
0.000128516
0.000142788
0.000140537
0.000138354
0.000136072
0.000133425
0.000130735
0.000127937
0.000125048
0.000122179
0.000119371
0.000116605
0.000113856
0.000126002
0.000123988
0.000122038
0.000120015
0.000117699
0.000115348
0.000112915
0.000110424
0.000107976
0.000105598
0.000103274
0.000100979
0.000111394
0.000109595
0.000107846
0.00010605
0.000104017
0.000101954
9.98303e-05
9.76731e-05
9.55697e-05
9.35423e-05
9.15734e-05
8.96477e-05
8.7747e-05
9.86427e-05
9.70351e-05
9.54671e-05
9.38672e-05
9.20764e-05
9.02597e-05
8.84001e-05
8.65212e-05
8.47054e-05
8.29662e-05
8.12882e-05
7.96567e-05
7.80583e-05
8.7482e-05
8.60412e-05
8.46388e-05
8.32101e-05
8.16289e-05
8.00241e-05
7.83893e-05
7.67466e-05
7.51687e-05
7.36671e-05
7.2227e-05
7.08376e-05
6.94844e-05
6.81396e-05
7.76875e-05
7.63959e-05
7.51402e-05
7.38625e-05
7.24635e-05
7.10426e-05
6.95994e-05
6.81589e-05
6.67824e-05
6.5478e-05
6.42347e-05
6.30421e-05
6.18864e-05
6.07438e-05
6.9071e-05
6.7915e-05
6.6789e-05
6.56442e-05
6.44048e-05
6.31439e-05
6.18662e-05
6.05989e-05
5.93915e-05
5.82532e-05
5.71731e-05
5.61432e-05
5.515e-05
5.41731e-05
6.14762e-05
6.04418e-05
5.94323e-05
5.84051e-05
5.73048e-05
5.61838e-05
5.50492e-05
5.39306e-05
5.2869e-05
5.18709e-05
5.09269e-05
5.0031e-05
4.91719e-05
4.83312e-05
4.74876e-05
5.47702e-05
5.3843e-05
5.29384e-05
5.2017e-05
5.1038e-05
5.004e-05
4.90317e-05
4.80407e-05
4.71035e-05
4.62243e-05
4.53952e-05
4.46115e-05
4.38632e-05
4.31342e-05
4.24072e-05
4.88376e-05
4.80062e-05
4.71965e-05
4.63701e-05
4.54966e-05
4.46074e-05
4.37103e-05
4.28303e-05
4.20003e-05
4.12228e-05
4.04918e-05
3.9803e-05
3.91473e-05
3.85114e-05
3.788e-05
4.35813e-05
4.28362e-05
4.2111e-05
4.13703e-05
4.05895e-05
3.9797e-05
3.89978e-05
3.82151e-05
3.74778e-05
3.67883e-05
3.61407e-05
3.5532e-05
3.49554e-05
3.43981e-05
3.38465e-05
3.32896e-05
3.89184e-05
3.82504e-05
3.76006e-05
3.69369e-05
3.62391e-05
3.55316e-05
3.48191e-05
3.41221e-05
3.34659e-05
3.28526e-05
3.22771e-05
3.17379e-05
3.1227e-05
3.07355e-05
3.02523e-05
2.97664e-05
3.41772e-05
3.35955e-05
3.30005e-05
3.23767e-05
3.17451e-05
3.11094e-05
3.0488e-05
2.99032e-05
2.93567e-05
2.88438e-05
2.83638e-05
2.79107e-05
2.74756e-05
2.70493e-05
2.66228e-05
2.6185e-05
3.05552e-05
3.0035e-05
2.95016e-05
2.89437e-05
2.83801e-05
2.78127e-05
2.72582e-05
2.67367e-05
2.62488e-05
2.57912e-05
2.53629e-05
2.49593e-05
2.45726e-05
2.41954e-05
2.38198e-05
2.34358e-05
2.7331e-05
2.68659e-05
2.63881e-05
2.58893e-05
2.53864e-05
2.48801e-05
2.43855e-05
2.39197e-05
2.34838e-05
2.30748e-05
2.26918e-05
2.23317e-05
2.19877e-05
2.16525e-05
2.13205e-05
2.09834e-05
2.44582e-05
2.40424e-05
2.36147e-05
2.31691e-05
2.27204e-05
2.22689e-05
2.18278e-05
2.14118e-05
2.10224e-05
2.06565e-05
2.03139e-05
1.99918e-05
1.96845e-05
1.93865e-05
1.90925e-05
1.87952e-05
1.84867e-05
2.18959e-05
2.15245e-05
2.11421e-05
2.07443e-05
2.03444e-05
1.99421e-05
1.95486e-05
1.91776e-05
1.88296e-05
1.85023e-05
1.81956e-05
1.79074e-05
1.7633e-05
1.73675e-05
1.71064e-05
1.68437e-05
1.65729e-05
1.96092e-05
1.92774e-05
1.89359e-05
1.85812e-05
1.82251e-05
1.78668e-05
1.75165e-05
1.71856e-05
1.6875e-05
1.65824e-05
1.6308e-05
1.60501e-05
1.58045e-05
1.55681e-05
1.53364e-05
1.5104e-05
1.48658e-05
1.75666e-05
1.72704e-05
1.69656e-05
1.665e-05
1.63333e-05
1.60148e-05
1.57032e-05
1.54087e-05
1.51317e-05
1.48702e-05
1.46249e-05
1.43943e-05
1.41751e-05
1.39642e-05
1.37583e-05
1.35528e-05
1.3343e-05
1.31237e-05
1.57407e-05
1.54767e-05
1.52049e-05
1.49245e-05
1.46435e-05
1.43607e-05
1.40841e-05
1.38225e-05
1.35758e-05
1.33427e-05
1.31237e-05
1.29177e-05
1.2722e-05
1.25341e-05
1.23514e-05
1.21698e-05
1.19852e-05
1.17931e-05
1.41076e-05
1.38725e-05
1.36305e-05
1.33818e-05
1.31329e-05
1.28825e-05
1.26375e-05
1.24055e-05
1.21866e-05
1.19793e-05
1.1784e-05
1.16003e-05
1.1426e-05
1.12589e-05
1.10968e-05
1.09364e-05
1.07742e-05
1.06061e-05
1.26461e-05
1.24369e-05
1.2222e-05
1.20018e-05
1.17819e-05
1.15607e-05
1.13442e-05
1.11392e-05
1.09453e-05
1.07613e-05
1.05878e-05
1.04244e-05
1.02693e-05
1.0121e-05
9.9776e-06
9.83626e-06
9.69379e-06
9.54675e-06
9.39103e-06
1.13374e-05
1.11514e-05
1.09609e-05
1.07666e-05
1.05728e-05
1.03778e-05
1.01873e-05
1.00067e-05
9.83565e-06
9.67282e-06
9.51904e-06
9.3741e-06
9.23657e-06
9.10528e-06
8.97863e-06
8.85423e-06
8.72945e-06
8.60142e-06
8.4663e-06
1.0165e-05
9.99981e-06
9.8313e-06
9.66035e-06
9.4901e-06
9.31889e-06
9.15176e-06
8.9933e-06
8.84292e-06
8.69948e-06
8.56364e-06
8.43554e-06
8.31389e-06
8.19796e-06
8.08648e-06
7.97735e-06
7.86836e-06
7.757e-06
7.63992e-06
9.11412e-06
8.96773e-06
8.81897e-06
8.66912e-06
8.52003e-06
8.37027e-06
8.22433e-06
8.08596e-06
7.95444e-06
7.82851e-06
7.70893e-06
7.59603e-06
7.48892e-06
7.38697e-06
7.2892e-06
7.19368e-06
7.09871e-06
7.00219e-06
6.90125e-06
6.79253e-06
8.17181e-06
8.04225e-06
7.91142e-06
7.78045e-06
7.65045e-06
7.52005e-06
7.39335e-06
7.2732e-06
7.15861e-06
7.04854e-06
6.94384e-06
6.84475e-06
6.75076e-06
6.6614e-06
6.57594e-06
6.49275e-06
6.41042e-06
6.32709e-06
6.24017e-06
6.1469e-06
7.32652e-06
7.21204e-06
7.09739e-06
6.98344e-06
6.87062e-06
6.75768e-06
6.64833e-06
6.54464e-06
6.44542e-06
6.34973e-06
6.25838e-06
6.17184e-06
6.08971e-06
6.01176e-06
5.93742e-06
5.8653e-06
5.79417e-06
5.72242e-06
5.64793e-06
5.56842e-06
6.56798e-06
6.46703e-06
6.36693e-06
6.26833e-06
6.17086e-06
6.07369e-06
5.98006e-06
5.89122e-06
5.80588e-06
5.72311e-06
5.64385e-06
5.56864e-06
5.49727e-06
5.4296e-06
5.36518e-06
5.30294e-06
5.24181e-06
5.18039e-06
5.11692e-06
5.04935e-06
4.97512e-06
5.88707e-06
5.79824e-06
5.71122e-06
5.62642e-06
5.54276e-06
5.45977e-06
5.38033e-06
5.30486e-06
5.23194e-06
5.16083e-06
5.09245e-06
5.02747e-06
4.9658e-06
4.9074e-06
4.85193e-06
4.79856e-06
4.74632e-06
4.69399e-06
4.6401e-06
4.58294e-06
4.52039e-06
5.27563e-06
5.19768e-06
5.12239e-06
5.05001e-06
4.97871e-06
4.90849e-06
4.84187e-06
4.77838e-06
4.71659e-06
4.65595e-06
4.59735e-06
4.54156e-06
4.48865e-06
4.43861e-06
4.39119e-06
4.34568e-06
4.30127e-06
4.25698e-06
4.21155e-06
4.16347e-06
4.11098e-06
4.72641e-06
4.65825e-06
4.59348e-06
4.53223e-06
4.47195e-06
4.41329e-06
4.35819e-06
4.30542e-06
4.25356e-06
4.20226e-06
4.15247e-06
4.10498e-06
4.05994e-06
4.0174e-06
3.97717e-06
3.93865e-06
3.90118e-06
3.86392e-06
3.82584e-06
3.78564e-06
3.74187e-06
4.23295e-06
4.17355e-06
4.11826e-06
4.06692e-06
4.01652e-06
3.9683e-06
3.92353e-06
3.88031e-06
3.8373e-06
3.79436e-06
3.75248e-06
3.71245e-06
3.67446e-06
3.63864e-06
3.6048e-06
3.57247e-06
3.54109e-06
3.50995e-06
3.4782e-06
3.44477e-06
3.4084e-06
3.36741e-06
3.78951e-06
3.73794e-06
3.69116e-06
3.64865e-06
3.6071e-06
3.56828e-06
3.53278e-06
3.498e-06
3.46287e-06
3.4274e-06
3.39261e-06
3.35928e-06
3.32763e-06
3.29776e-06
3.26955e-06
3.2426e-06
3.21648e-06
3.19065e-06
3.16434e-06
3.13665e-06
3.10659e-06
3.07272e-06
3.39092e-06
3.34635e-06
3.30721e-06
3.27256e-06
3.23891e-06
3.2086e-06
3.18137e-06
3.15403e-06
3.12588e-06
3.0971e-06
3.06868e-06
3.04134e-06
3.01527e-06
2.9906e-06
2.96729e-06
2.94501e-06
2.92341e-06
2.90204e-06
2.88028e-06
2.85743e-06
2.83261e-06
2.80462e-06
3.03258e-06
2.99425e-06
2.96199e-06
2.9343e-06
2.90771e-06
2.88509e-06
2.8652e-06
2.84438e-06
2.82246e-06
2.79969e-06
2.77694e-06
2.75487e-06
2.73367e-06
2.71349e-06
2.69431e-06
2.67592e-06
2.65806e-06
2.64037e-06
2.62239e-06
2.60349e-06
2.58295e-06
2.55982e-06
2.71038e-06
2.67761e-06
2.65154e-06
2.62998e-06
2.60972e-06
2.59408e-06
2.58065e-06
2.56552e-06
2.54917e-06
2.53178e-06
2.51402e-06
2.4965e-06
2.47942e-06
2.46293e-06
2.44713e-06
2.43188e-06
2.41704e-06
2.40232e-06
2.38735e-06
2.37161e-06
2.35452e-06
2.33526e-06
2.31288e-06
2.42063e-06
2.39284e-06
2.37231e-06
2.35613e-06
2.34158e-06
2.33227e-06
2.32443e-06
2.31426e-06
2.30294e-06
2.29035e-06
2.2769e-06
2.26315e-06
2.24936e-06
2.23578e-06
2.2226e-06
2.20979e-06
2.19728e-06
2.18487e-06
2.17225e-06
2.15901e-06
2.14466e-06
2.12852e-06
2.10977e-06
2.16003e-06
2.13667e-06
2.12112e-06
2.10964e-06
2.10027e-06
2.09669e-06
2.09363e-06
2.08779e-06
2.08109e-06
2.07271e-06
2.06277e-06
2.05194e-06
2.04063e-06
2.0292e-06
2.01794e-06
2.00695e-06
1.99621e-06
1.98559e-06
1.97484e-06
1.96359e-06
1.95145e-06
1.93784e-06
1.92208e-06
1.92565e-06
1.90625e-06
1.89514e-06
1.88775e-06
1.88309e-06
1.88467e-06
1.88561e-06
1.8836e-06
1.88121e-06
1.87638e-06
1.86907e-06
1.8603e-06
1.8507e-06
1.84077e-06
1.83092e-06
1.82132e-06
1.81198e-06
1.80281e-06
1.79359e-06
1.78401e-06
1.77374e-06
1.76229e-06
1.74909e-06
1.71485e-06
1.69897e-06
1.69183e-06
1.68798e-06
1.68766e-06
1.69381e-06
1.69799e-06
1.69948e-06
1.70114e-06
1.6991e-06
1.69348e-06
1.68598e-06
1.67751e-06
1.66866e-06
1.65992e-06
1.6515e-06
1.64341e-06
1.63554e-06
1.6277e-06
1.61964e-06
1.61106e-06
1.60154e-06
1.59062e-06
1.52525e-06
1.51253e-06
1.5089e-06
1.50812e-06
1.51183e-06
1.52197e-06
1.52867e-06
1.53346e-06
1.53893e-06
1.53877e-06
1.53393e-06
1.52715e-06
1.51954e-06
1.51165e-06
1.504e-06
1.49675e-06
1.4899e-06
1.48332e-06
1.47682e-06
1.47019e-06
1.46315e-06
1.45537e-06
1.44645e-06
1.43626e-06
1.35473e-06
1.34482e-06
1.3443e-06
1.34617e-06
1.35369e-06
1.36719e-06
1.3758e-06
1.38388e-06
1.39284e-06
1.39346e-06
1.38866e-06
1.38245e-06
1.37579e-06
1.36903e-06
1.3626e-06
1.35661e-06
1.351e-06
1.34564e-06
1.34036e-06
1.33497e-06
1.32926e-06
1.32291e-06
1.3156e-06
1.30722e-06
1.20138e-06
1.194e-06
1.19617e-06
1.20031e-06
1.21143e-06
1.22763e-06
1.23768e-06
1.24933e-06
1.26143e-06
1.26159e-06
1.25634e-06
1.25097e-06
1.24563e-06
1.24019e-06
1.23501e-06
1.2302e-06
1.22567e-06
1.2213e-06
1.21695e-06
1.21247e-06
1.20768e-06
1.20232e-06
1.1961e-06
1.18892e-06
1.06357e-06
1.05844e-06
1.0629e-06
1.06897e-06
1.08346e-06
1.10156e-06
1.1127e-06
1.12823e-06
1.14324e-06
1.14194e-06
1.13622e-06
1.13219e-06
1.12842e-06
1.1242e-06
1.11997e-06
1.11595e-06
1.11207e-06
1.10824e-06
1.10436e-06
1.10031e-06
1.09596e-06
1.09107e-06
1.08539e-06
1.07882e-06
9.39813e-07
9.36764e-07
9.43152e-07
9.50892e-07
9.68529e-07
9.87701e-07
9.99534e-07
1.01867e-06
1.03632e-06
1.03346e-06
1.02789e-06
1.02557e-06
1.02316e-06
1.01959e-06
1.01566e-06
1.01178e-06
1.00794e-06
1.0041e-06
1.0002e-06
9.96155e-07
9.91837e-07
9.87033e-07
9.8148e-07
9.75119e-07
8.28747e-07
8.27602e-07
8.3564e-07
8.44992e-07
8.65628e-07
8.85261e-07
8.97573e-07
9.19793e-07
9.39374e-07
9.34864e-07
9.30215e-07
9.2971e-07
9.27866e-07
9.24056e-07
9.19766e-07
9.15537e-07
9.11346e-07
9.07182e-07
9.03e-07
8.98727e-07
8.94249e-07
8.89355e-07
8.83776e-07
8.77491e-07
7.2923e-07
7.29668e-07
7.38985e-07
7.4993e-07
7.73305e-07
7.93012e-07
8.06028e-07
8.32872e-07
8.54426e-07
8.45309e-07
8.4084e-07
8.42221e-07
8.40293e-07
8.35526e-07
8.30532e-07
8.25851e-07
8.21291e-07
8.16815e-07
8.124e-07
8.07982e-07
8.03404e-07
7.98466e-07
7.92924e-07
7.8675e-07
7.80201e-07
6.4152e-07
6.43116e-07
6.52932e-07
6.64971e-07
6.90048e-07
7.08637e-07
7.21732e-07
7.55308e-07
7.83321e-07
7.65521e-07
7.58488e-07
7.62296e-07
7.60684e-07
7.5498e-07
7.49378e-07
7.4446e-07
7.39742e-07
7.3509e-07
7.30576e-07
7.26118e-07
7.21536e-07
7.16631e-07
7.11188e-07
7.05144e-07
6.98754e-07
5.70846e-07
5.7294e-07
5.8198e-07
5.93493e-07
6.17725e-07
6.31828e-07
6.41589e-07
6.81622e-07
7.17003e-07
6.92496e-07
6.83877e-07
6.9101e-07
6.91334e-07
6.86084e-07
6.8071e-07
6.76139e-07
6.71724e-07
6.6729e-07
6.62935e-07
6.58614e-07
6.54189e-07
6.49438e-07
6.44151e-07
6.38276e-07
6.32064e-07
5.1485e-07
5.16919e-07
5.24402e-07
5.34254e-07
5.55331e-07
5.62736e-07
5.6924e-07
6.05721e-07
6.45865e-07
6.23455e-07
6.172e-07
6.26949e-07
6.30197e-07
6.26912e-07
6.22574e-07
6.18773e-07
6.15058e-07
6.11242e-07
6.07371e-07
6.0346e-07
5.99422e-07
5.95061e-07
5.90138e-07
5.84604e-07
5.7873e-07
4.63602e-07
4.65609e-07
4.71635e-07
4.80324e-07
4.98213e-07
5.00075e-07
5.06163e-07
5.34283e-07
5.74529e-07
5.59542e-07
5.56826e-07
5.67355e-07
5.72915e-07
5.71873e-07
5.688e-07
5.65774e-07
5.62757e-07
5.59575e-07
5.56276e-07
5.52889e-07
5.49346e-07
5.45479e-07
5.41058e-07
5.35998e-07
5.30578e-07
4.1354e-07
4.15451e-07
4.20078e-07
4.28114e-07
4.42583e-07
4.40845e-07
4.48008e-07
4.68127e-07
5.08888e-07
5.02009e-07
5.02357e-07
5.12298e-07
5.18928e-07
5.19608e-07
5.17725e-07
5.1551e-07
5.13219e-07
5.10646e-07
5.07838e-07
5.04892e-07
5.01779e-07
4.98341e-07
4.9439e-07
4.89764e-07
4.84702e-07
3.65943e-07
3.67665e-07
3.71007e-07
3.78679e-07
3.89451e-07
3.86208e-07
3.94461e-07
4.07476e-07
4.49273e-07
4.49902e-07
4.53295e-07
4.62527e-07
4.69583e-07
4.71339e-07
4.70237e-07
4.68701e-07
4.67235e-07
4.65503e-07
4.63356e-07
4.60889e-07
4.58137e-07
4.55031e-07
4.51375e-07
4.47026e-07
4.42154e-07
3.21017e-07
3.2234e-07
3.24451e-07
3.31748e-07
3.38639e-07
3.36269e-07
3.44633e-07
3.52505e-07
3.96415e-07
4.03497e-07
4.09406e-07
4.18112e-07
4.25659e-07
4.28442e-07
4.27704e-07
4.25942e-07
4.24322e-07
4.22856e-07
4.21264e-07
4.19365e-07
4.17038e-07
4.14178e-07
4.10555e-07
4.06111e-07
4.01009e-07
2.79321e-07
2.79923e-07
2.80718e-07
2.87098e-07
2.8998e-07
2.90742e-07
2.97385e-07
3.03385e-07
3.50638e-07
3.63218e-07
3.71162e-07
3.78787e-07
3.85885e-07
3.8969e-07
3.90345e-07
3.89004e-07
3.86621e-07
3.83801e-07
3.8096e-07
3.78243e-07
3.75491e-07
3.72347e-07
3.68295e-07
3.62912e-07
3.56245e-07
2.41263e-07
2.40885e-07
2.4025e-07
2.4465e-07
2.43334e-07
2.4824e-07
2.50085e-07
2.59289e-07
3.11707e-07
3.28673e-07
3.39716e-07
3.46351e-07
3.49931e-07
3.50458e-07
3.50167e-07
3.50152e-07
3.49782e-07
3.47938e-07
3.44395e-07
3.39704e-07
3.34388e-07
3.28592e-07
3.22042e-07
3.14378e-07
3.05535e-07
2.95659e-07
2.06816e-07
2.05359e-07
2.03264e-07
2.04593e-07
1.99415e-07
2.07471e-07
2.00557e-07
2.20772e-07
2.79669e-07
2.96603e-07
3.11728e-07
3.19875e-07
3.20849e-07
3.15281e-07
3.06804e-07
2.9964e-07
2.95772e-07
2.94394e-07
2.9339e-07
2.91077e-07
2.86663e-07
2.79993e-07
2.71083e-07
2.6035e-07
2.48503e-07
2.36294e-07
1.76075e-07
1.73086e-07
1.68829e-07
1.66191e-07
1.58879e-07
1.68861e-07
1.53254e-07
1.97286e-07
2.5747e-07
2.68293e-07
2.84152e-07
2.89832e-07
2.91552e-07
2.90511e-07
2.82149e-07
2.66549e-07
2.49638e-07
2.37444e-07
2.32559e-07
2.34198e-07
2.39804e-07
2.46434e-07
2.50423e-07
2.48363e-07
2.40565e-07
2.30633e-07
1.51245e-07
1.45404e-07
1.36443e-07
1.27536e-07
1.1911e-07
1.31024e-07
1.19229e-07
1.99454e-07
2.47595e-07
2.66567e-07
3.05178e-07
3.15136e-07
3.03442e-07
2.84198e-07
2.71552e-07
2.739e-07
2.86078e-07
2.97393e-07
3.0272e-07
3.03103e-07
3.01289e-07
3.00178e-07
3.04218e-07
3.18866e-07
3.4426e-07
3.7466e-07
1.36158e-07
1.26714e-07
1.10563e-07
9.08252e-08
7.59579e-08
8.66835e-08
9.78952e-08
2.02096e-07
2.20783e-07
2.57832e-07
3.29204e-07
3.90575e-07
4.52492e-07
5.1602e-07
5.74009e-07
6.21924e-07
6.5855e-07
6.88385e-07
7.17368e-07
7.49043e-07
7.84423e-07
8.22783e-07
8.62235e-07
8.97986e-07
9.25148e-07
9.4625e-07
1.29213e-07
1.18023e-07
9.72116e-08
6.70975e-08
3.56654e-08
4.27123e-08
8.74793e-08
1.52615e-07
2.20656e-07
4.82924e-07
7.37405e-07
9.66117e-07
1.14765e-06
1.27879e-06
1.36603e-06
1.42425e-06
1.46872e-06
1.51059e-06
1.55358e-06
1.59703e-06
1.63876e-06
1.67843e-06
1.71767e-06
1.76223e-06
1.8077e-06
1.84624e-06
)
;

boundaryField
{
    inlet
    {
        type            calculated;
        value           nonuniform List<scalar> 
26
(
1.30106e-07
1.19116e-07
9.81539e-08
6.6603e-08
3.06983e-08
4.3809e-08
1.03855e-07
1.11287e-07
4.98201e-07
1.02035e-06
1.61306e-06
2.20427e-06
2.74254e-06
3.20594e-06
3.58425e-06
3.88676e-06
4.12901e-06
4.32759e-06
4.498e-06
4.65286e-06
4.80177e-06
4.95497e-06
5.1246e-06
5.31971e-06
5.52714e-06
5.72527e-06
)
;
    }
    outlet
    {
        type            calculated;
        value           nonuniform List<scalar> 0();
    }
    walls
    {
        type            calculated;
        value           nonuniform List<scalar> 0();
    }
    frontAndBack
    {
        type            empty;
    }
    procBoundary0to1
    {
        type            processor;
        value           nonuniform List<scalar> 
94
(
0.000659603
0.000540658
0.000540658
0.000445644
0.000445644
0.00036994
0.00036994
0.000308695
0.000308695
0.00025921
0.00025921
0.000219064
0.000192381
0.000192381
0.000164354
0.000145235
0.000145235
0.000125176
0.00011111
9.87009e-05
9.87009e-05
8.58381e-05
7.64609e-05
7.64609e-05
6.67679e-05
5.95865e-05
5.3188e-05
5.3188e-05
4.66216e-05
4.16647e-05
3.72392e-05
3.72392e-05
3.27123e-05
2.92646e-05
2.92646e-05
2.57244e-05
2.30346e-05
2.06319e-05
2.06319e-05
1.81599e-05
1.62871e-05
1.46152e-05
1.46152e-05
1.28882e-05
1.15876e-05
1.0427e-05
1.0427e-05
9.22162e-06
8.31966e-06
7.51335e-06
7.51335e-06
6.67207e-06
6.04401e-06
5.48088e-06
5.48088e-06
4.8911e-06
4.44969e-06
4.05175e-06
3.69248e-06
3.69248e-06
3.3199e-06
3.0334e-06
2.77214e-06
2.53293e-06
2.53293e-06
2.28694e-06
2.08808e-06
1.9039e-06
1.73393e-06
1.57813e-06
1.57813e-06
1.42505e-06
1.29798e-06
1.18098e-06
1.07158e-06
9.68212e-07
8.70782e-07
8.70782e-07
7.73606e-07
6.92392e-07
6.25893e-07
5.72887e-07
5.2513e-07
4.79494e-07
4.36978e-07
3.95509e-07
3.48783e-07
3.48783e-07
2.84892e-07
2.24258e-07
2.21481e-07
4.05445e-07
9.65029e-07
1.87685e-06
)
;
    }
    procBoundary0to4
    {
        type            processor;
        value           nonuniform List<scalar> 
72
(
0.000597566
0.000507823
0.00043446
0.000373729
0.00032305
0.000280418
0.000244321
0.000213571
0.000187231
0.000164558
0.000144961
0.000127962
0.000113159
0.000100234
8.89148e-05
7.89773e-05
7.02337e-05
6.25239e-05
5.5713e-05
4.96871e-05
4.43471e-05
3.96078e-05
3.47761e-05
3.47761e-05
3.10921e-05
2.78122e-05
2.48893e-05
2.22822e-05
1.99548e-05
1.78755e-05
1.60166e-05
1.43539e-05
1.28656e-05
1.15328e-05
1.03386e-05
9.26828e-06
8.30846e-06
7.44742e-06
6.67473e-06
5.98113e-06
5.35833e-06
4.79896e-06
4.29645e-06
3.84493e-06
3.43913e-06
3.07439e-06
2.7465e-06
2.4517e-06
2.18664e-06
1.94832e-06
1.73403e-06
1.54137e-06
1.36817e-06
1.21248e-06
1.07259e-06
9.47019e-07
8.34378e-07
7.33541e-07
6.44839e-07
5.7363e-07
5.17304e-07
4.65712e-07
4.15326e-07
3.67446e-07
3.22324e-07
2.80557e-07
2.42567e-07
2.08332e-07
1.78047e-07
1.54018e-07
1.39782e-07
1.332e-07
)
;
    }
    procBoundary0to5
    {
        type            processor;
        value           nonuniform List<scalar> 4(0.000702395 0.000694808 0.000686025 0.000674675);
    }
}


// ************************************************************************* //
