/*--------------------------------*- C++ -*----------------------------------*\
| =========                 |                                                 |
| \\      /  F ield         | OpenFOAM: The Open Source CFD Toolbox           |
|  \\    /   O peration     | Version:  2306                                  |
|   \\  /    A nd           | Website:  www.openfoam.com                      |
|    \\/     M anipulation  |                                                 |
\*---------------------------------------------------------------------------*/
FoamFile
{
    version     2.0;
    format      ascii;
    arch        "LSB;label=32;scalar=64";
    class       volScalarField;
    location    "325";
    object      p;
}
// * * * * * * * * * * * * * * * * * * * * * * * * * * * * * * * * * * * * * //

dimensions      [0 2 -2 0 0 0 0];

internalField   nonuniform List<scalar> 
1340
(
81.2914
101.354
120.292
139.87
159.219
77.36
95.9681
113.517
131.737
149.81
165.998
73.2466
90.5837
106.92
123.951
140.896
156.121
169.712
69.0806
85.2906
100.562
116.535
132.476
146.842
159.751
170.585
64.9485
80.1519
94.4723
109.502
124.537
138.131
150.413
160.796
168.622
60.9058
75.2046
88.6701
102.846
117.063
129.952
141.653
151.61
159.196
164.371
56.9898
70.4696
83.1616
96.5605
110.029
122.272
133.434
142.988
150.332
155.427
53.2254
65.9574
77.946
90.6333
103.414
115.062
125.718
134.888
141.993
146.991
150.112
49.6265
61.6721
73.0159
85.0479
97.1941
108.289
118.47
127.274
134.143
139.033
142.167
46.2002
57.613
68.3624
79.7881
91.346
101.923
111.659
120.114
126.751
131.523
134.648
136.314
42.9501
53.7761
63.9757
74.8383
85.8481
95.9404
105.254
113.377
119.785
124.434
127.535
129.265
39.8754
50.1567
59.8443
70.1816
80.6786
90.3156
99.2306
107.035
113.222
117.744
120.806
122.579
36.9743
46.7468
55.9568
65.802
75.8177
85.0257
93.5634
101.063
107.033
111.426
114.441
116.24
117.021
34.2427
43.5381
52.3023
61.6854
71.2473
80.0506
88.2301
95.4381
101.197
105.459
108.42
110.231
111.083
31.6754
40.5229
48.8679
57.8167
66.9509
75.3712
83.2093
90.1373
95.6909
99.8239
102.725
104.538
105.444
105.634
29.266
37.6924
45.6435
54.182
62.9112
70.9682
78.4813
85.1413
90.4968
94.5014
97.3376
99.1438
100.093
100.368
27.0088
35.0382
42.6174
50.7679
59.1129
66.8252
74.0288
80.431
85.5952
89.4733
92.2425
94.0348
95.0151
95.3629
24.8975
32.5512
39.7791
47.5623
55.5429
62.9268
69.8355
75.9903
80.969
84.723
87.4238
89.1968
90.1999
90.6071
90.5376
22.925
30.223
37.1184
44.5534
52.1873
59.2586
65.8859
71.803
76.6023
80.2349
82.8664
84.6164
85.6351
86.092
86.1026
21.0848
28.0457
34.6256
41.7298
49.0334
55.8067
62.165
67.8543
72.4802
75.9943
78.5564
80.2802
81.3088
81.8069
81.8866
19.3705
26.011
32.2911
39.0809
46.0701
52.5587
58.6596
64.1303
68.5887
71.9876
74.4804
76.1757
77.2098
77.7414
77.8808
77.709
17.7754
24.1114
30.1066
36.5968
43.286
49.5026
55.3573
60.6175
64.9151
68.2019
70.6263
72.291
73.3265
73.8862
74.0766
73.9769
22.3394
28.0636
34.2682
40.6706
46.6274
52.2461
57.3044
61.4468
64.6247
66.9816
68.6149
69.649
70.2315
70.4657
70.4287
70.1704
20.6878
26.1538
32.0858
38.2143
43.9225
49.3152
54.1797
58.1721
61.2448
63.5355
65.1365
66.1661
66.767
67.0394
67.0572
66.8704
19.1499
24.3697
30.0414
35.908
41.3781
46.5542
51.2321
55.0802
58.051
60.2765
61.8448
62.868
63.4836
63.7886
63.8545
63.7305
17.719
22.7038
28.1269
33.7428
38.985
43.9532
48.4519
52.161
55.0329
57.1947
58.7301
59.745
60.3723
60.7055
60.8134
60.7444
60.5264
16.3889
21.1494
26.3346
31.7106
36.7344
41.5031
45.8293
49.4042
52.1807
54.2804
55.7828
56.788
57.4241
57.7811
57.9257
57.9051
57.7477
15.1538
19.6999
24.6575
29.8037
34.6181
39.1951
43.3555
46.8012
49.4852
51.5241
52.9934
53.9878
54.6304
55.0079
55.1843
55.2062
55.1016
14.0077
18.3489
23.0884
28.0145
32.6281
37.0212
41.0219
44.343
46.9374
48.9172
50.3534
51.3359
51.9828
52.3775
52.5816
52.6406
52.5824
52.422
12.9453
17.0905
21.6213
26.3362
30.7572
34.9734
38.8205
42.0212
44.529
46.4511
47.8544
48.8241
49.4733
49.8824
50.1104
50.2018
50.1842
50.073
11.9613
15.9191
20.25
24.7623
28.9984
33.0447
36.7437
39.8282
42.2522
44.1178
45.4884
46.4445
47.0942
47.5151
47.7636
47.8832
47.9011
47.8327
11.0511
14.8292
18.9686
23.2866
27.3451
31.2279
34.7843
37.7567
40.0994
41.9098
43.248
44.1896
44.8383
45.2687
45.5347
45.6784
45.727
45.6961
45.5932
10.2096
13.816
17.7716
21.9032
25.7911
29.5166
32.9355
35.7996
38.0634
39.82
41.1258
42.0522
42.6986
43.1362
43.4168
43.5814
43.6566
43.6581
43.594
9.43257
12.8744
16.6538
20.6065
24.3305
27.9046
31.191
33.9502
36.1375
37.8414
39.1151
40.0256
40.6683
41.1111
41.4038
41.5862
41.6842
41.7136
41.683
8.71574
11.9999
15.6104
19.3911
22.9575
26.3859
29.5444
32.2023
34.3152
35.9675
37.2093
38.1034
38.7409
39.1872
39.4897
39.687
39.8044
39.8577
39.8559
39.8018
8.0551
11.1881
14.6366
18.2523
21.6672
24.9553
27.9903
30.5501
32.5906
34.1924
35.4023
36.2794
36.9106
37.3586
37.6687
37.8785
38.0123
38.0858
38.1086
38.0841
7.44681
10.4351
13.7281
17.1853
20.4544
23.6072
26.523
28.9878
30.958
32.5103
33.6884
34.5478
35.1717
35.6199
35.9356
36.1553
36.3028
36.3934
36.437
36.4379
6.88734
9.73686
12.8807
16.1856
19.3144
22.3369
25.1374
27.5102
29.412
30.9156
32.062
32.9033
33.5187
33.9656
34.2852
34.5127
34.6714
34.7762
34.8374
34.8595
34.8431
6.37325
9.08979
12.0903
15.2489
18.2429
21.1396
23.8288
26.1123
27.9473
29.4031
30.5181
31.3406
31.9466
32.3909
32.7128
32.9461
33.1137
33.2302
33.3059
33.3459
33.3514
5.90131
8.49039
11.3534
14.3714
17.2354
20.011
22.5926
24.7894
26.5594
27.9682
29.0516
29.8549
30.4506
30.891
31.2136
31.4511
31.6256
31.7514
31.839
31.8939
31.9177
5.46851
7.93542
10.6664
13.5492
16.2882
18.9469
21.4242
23.537
25.2436
26.6061
27.6581
28.4418
29.0264
29.4617
29.7836
30.0237
30.2033
30.3365
30.4336
30.5005
30.5396
5.07203
7.42176
10.026
12.7788
15.3974
17.9433
20.3198
22.351
23.9956
25.3127
26.3333
27.097
27.6695
28.0988
28.4188
28.6601
28.8431
28.9818
29.0865
29.1631
29.2146
29.2403
4.70911
6.94656
9.4291
12.0569
14.5596
16.9965
19.2755
21.2273
22.8115
24.0838
25.0731
25.8164
26.3764
26.7986
27.1156
27.3566
27.5417
27.6844
27.7948
27.8791
27.9405
27.9792
4.37729
6.50704
8.87275
11.3803
13.7713
16.1031
18.2876
20.1624
21.6875
22.9156
23.8738
24.5964
25.1431
25.5574
25.8703
26.1101
26.296
26.4412
26.5557
26.6458
26.7151
26.7643
4.07417
6.10063
8.35419
10.7462
13.0295
15.2598
17.3527
19.1526
20.62
21.8047
22.7318
23.4334
23.9663
24.372
24.68
24.9174
25.1031
25.2495
25.3667
25.4612
25.5365
25.5939
3.7975
5.72494
7.87081
10.1516
12.3312
14.4634
16.4676
18.1947
19.6056
20.7475
21.6438
22.3242
22.8428
23.2392
23.5415
23.7758
23.9601
24.1068
24.2256
24.3229
24.4027
24.4665
24.5137
3.5452
5.37767
7.42017
9.59406
11.6736
13.7111
15.6293
17.2856
18.6411
19.7409
20.6066
21.2657
21.7696
22.1562
22.4521
22.6824
22.8646
23.0106
23.1299
23.229
23.3119
23.3806
23.4348
3.31532
5.05673
6.99998
9.07099
11.0541
13.0001
14.8349
16.4222
17.7236
18.7819
19.6173
20.2551
20.744
21.1202
21.4091
21.6349
21.8143
21.9587
22.0777
22.1776
22.2625
22.3346
22.3942
3.10603
4.76011
6.60812
8.58017
10.4703
12.3278
14.0816
15.602
16.8501
17.8678
18.6733
19.2896
19.7633
20.1288
20.4103
20.6309
20.8068
20.9492
21.0671
21.1669
21.2529
21.3272
21.3908
2.9156
4.48601
6.24259
8.11942
9.91986
11.6919
13.3671
14.8221
16.0181
16.9958
17.7718
18.3669
18.8252
19.1796
19.4532
19.6682
19.8402
19.9799
20.0962
20.1953
20.2815
20.3572
20.4236
2.74243
4.23262
5.90155
7.68677
9.40073
11.0901
12.6889
14.0803
15.2248
16.1633
16.9106
17.4846
17.9273
18.2703
18.5358
18.7449
18.9126
19.0491
19.1633
19.2611
19.3469
19.4232
19.4914
19.5491
2.58506
3.99837
5.58321
7.28023
8.9108
10.5203
12.0448
13.3742
14.4678
15.3682
16.0874
16.6403
17.0674
17.399
17.6561
17.859
18.022
18.1552
18.2668
18.3629
18.4478
18.524
18.5933
18.6534
2.44215
3.78176
5.28591
6.89797
8.44804
9.98013
11.4323
12.7014
13.7449
14.6085
15.3004
15.8323
16.2435
16.5635
16.8122
17.0087
17.1669
17.2963
17.4052
17.4993
17.5828
17.6585
17.7281
17.7898
2.31231
3.58144
5.00842
6.53857
8.011
9.46799
10.8493
12.0596
13.0529
13.8819
14.5478
15.0586
15.4537
15.7621
16.0023
16.1923
16.3455
16.471
16.5769
16.6687
16.7505
16.8253
16.8948
16.9575
2.19427
3.39623
4.74956
6.20123
7.59915
8.98354
10.2957
11.4478
12.3883
13.185
13.8267
14.3166
14.6957
14.9928
15.2246
15.4082
15.5562
15.6779
15.7806
15.87
15.9499
16.0234
16.0924
16.1555
2.08699
3.22483
4.50803
5.88431
7.21089
8.52526
9.77112
10.8661
11.7497
12.5156
13.1349
13.6039
13.9671
14.2531
14.4768
14.6541
14.7972
14.9149
15.0145
15.1014
15.1794
15.2514
15.3197
15.383
1.99
3.06621
4.28105
5.58381
6.84087
8.08636
9.26842
10.3086
11.1408
11.8801
12.4756
12.9217
13.2686
13.5435
13.7588
13.9294
14.0673
14.181
14.2774
14.3617
14.4377
14.5082
14.5757
14.6388
14.6922
1.90275
2.91933
4.0673
5.29718
6.48499
7.66043
8.77877
9.76172
10.5541
11.2818
11.8523
12.2701
12.5996
12.8641
13.0712
13.2348
13.3675
13.4771
13.5702
13.6519
13.7257
13.7946
13.8609
13.9237
13.9777
1.83609
2.80466
3.90015
5.06466
6.18504
7.28069
8.30729
9.17952
9.87954
10.6782
11.2649
11.6733
12.0022
12.271
12.4805
12.6452
12.7786
12.8891
12.9831
13.0656
13.1402
13.2102
13.2778
13.3424
13.3986
1.78213
2.71061
3.75901
4.86219
5.914
6.92065
7.83743
8.57778
9.16176
10.0711
10.7044
11.1184
11.4571
11.7395
11.9589
12.1302
12.2686
12.3835
12.4811
12.5667
12.6444
12.7173
12.7881
12.856
12.9158
1.72925
2.61743
3.6181
4.65973
5.64401
6.56147
7.37254
7.98914
8.45911
9.45627
10.1379
10.558
10.9029
11.1966
11.4257
11.6032
11.7464
11.8652
11.9663
12.055
12.1355
12.2112
12.2851
12.3565
12.4198
1.67762
2.52575
3.47845
4.45899
5.37714
6.20531
6.916
7.41337
7.77614
8.8345
9.56364
9.99334
10.342
10.6443
10.882
11.0658
11.2136
11.3362
11.4406
11.5322
11.6154
11.6938
11.7707
11.8454
11.9122
1.62775
2.43631
3.34123
4.26168
5.11545
5.85416
6.47008
6.84841
7.11183
8.20671
8.97934
9.42267
9.77536
10.0847
10.3297
10.5186
10.6703
10.7965
10.9043
10.9991
11.0852
11.1666
11.2465
11.3248
11.3953
1.58025
2.35032
3.208
4.07019
4.86096
5.51004
6.03662
6.29222
6.46201
7.57356
8.38363
8.84278
9.20073
9.51806
9.77167
9.96617
10.1206
10.2487
10.3586
10.4558
10.5446
10.6289
10.7121
10.794
10.8686
1.53626
2.26984
3.0817
3.88802
4.61558
5.17293
5.61336
5.73824
5.81689
6.93422
7.77863
8.25352
8.61386
8.93663
9.20066
9.40569
9.56777
9.70025
9.81241
9.9109
10.001
10.087
10.1727
10.2579
10.336
1.49652
2.19645
2.96513
3.71895
4.38132
4.84384
5.19918
5.17905
5.16018
6.27934
7.16509
7.66564
8.03001
8.34862
8.60953
8.81672
8.98665
9.13
9.25276
9.35973
9.45605
9.54689
9.63697
9.72729
9.81195
9.8839
1.46008
2.12877
2.85764
3.56417
4.16174
4.5357
4.8115
4.61761
4.47729
5.5867
6.51581
7.06366
7.4655
7.80554
8.06583
8.25487
8.40114
8.52651
8.64087
8.74745
8.84815
8.94549
9.04262
9.13956
9.23037
9.30968
1.42683
2.0666
2.75952
3.42466
3.96281
4.27066
4.47316
4.05364
3.76724
4.85388
5.78911
6.35313
6.79688
7.20886
7.55214
7.80723
7.98635
8.11166
8.20555
8.28497
8.36089
8.4404
8.52818
8.62244
8.71123
8.78378
1.40554
2.0259
2.6914
3.31836
3.79551
4.04103
4.12003
3.4074
3.01618
4.14785
5.09279
5.6102
5.96496
6.28613
6.59293
6.88965
7.17353
7.43067
7.64948
7.82789
7.97158
8.08999
8.19683
8.31157
8.44776
8.59378
1.41124
2.03603
2.69349
3.28475
3.68058
3.79967
3.58529
2.527
2.12672
3.44351
4.61857
5.37645
5.85057
6.09799
6.14588
6.07054
5.95409
5.86283
5.82459
5.84187
5.9063
6.00923
6.13465
6.24268
6.28975
6.29377
1.43197
2.07888
2.74599
3.31253
3.62623
3.57547
2.96718
1.60134
0.970287
2.14915
3.45666
4.74979
6.00756
7.20027
8.21288
8.98771
9.54308
9.89712
10.0975
10.1972
10.2428
10.2718
10.339
10.5322
10.8849
11.2687
)
;

boundaryField
{
    inlet
    {
        type            freestreamPressure;
        freestreamValue uniform 0;
        value           nonuniform List<scalar> 
26
(
1.425
2.06875
2.73262
3.2964
3.60857
3.55806
2.95273
1.59355
0.552199
1.22223
1.96436
2.69726
3.40933
4.08402
4.65633
5.09376
5.40682
5.60585
5.71783
5.77288
5.79723
5.8121
5.84848
5.95598
6.15363
6.3688
)
;
    }
    outlet
    {
        type            freestreamPressure;
        freestreamValue nonuniform List<scalar> 0();
        value           nonuniform List<scalar> 0();
    }
    walls
    {
        type            zeroGradient;
    }
    frontAndBack
    {
        type            empty;
    }
    procBoundary0to1
    {
        type            processor;
        value           nonuniform List<scalar> 
94
(
169.107
176.503
176.503
180.338
180.338
181.02
181.02
178.648
178.648
173.856
173.856
167.379
158.509
158.509
151.565
143.742
143.742
136.749
129.842
123.27
123.27
116.983
111.169
111.169
105.235
100.097
95.2
95.2
90.08
85.7539
81.6323
81.6323
77.2761
73.6368
73.6368
69.7169
66.5058
63.4439
63.4439
60.1725
57.4668
54.8849
54.8849
52.1637
49.8737
47.6849
47.6849
45.4175
43.4649
41.5942
41.5942
39.6926
38.011
36.3954
36.3954
34.7839
33.3194
31.9086
30.5495
30.5495
29.2366
27.9923
26.7913
25.6321
25.6321
24.5394
23.4703
22.4376
21.4403
20.4778
20.4778
19.5896
18.6979
17.8374
17.0073
16.207
15.4356
15.4356
14.7315
14.0184
13.4418
12.9623
12.4696
11.9654
11.4523
10.9298
10.4007
10.4007
9.94115
9.37699
8.83781
8.73321
6.28877
11.5841
)
;
    }
    procBoundary0to4
    {
        type            processor;
        value           nonuniform List<scalar> 
72
(
59.0782
56.7927
54.1222
51.2293
48.2313
45.2089
42.2179
39.2952
36.4667
33.7502
31.1566
28.6917
26.3587
24.1575
22.0873
20.1457
18.3292
16.6332
15.054
13.5861
12.2247
10.9648
16.2933
16.2933
14.9179
13.6433
12.4638
11.3736
10.3675
9.44041
8.58744
7.80385
7.08518
6.42709
5.82561
5.27683
4.77708
4.32288
3.91094
3.53817
3.20162
2.89849
2.6262
2.38226
2.16436
1.97035
1.79818
1.64595
1.5119
1.39434
1.29172
1.2026
1.12564
1.05963
1.0033
0.955384
0.914981
0.882201
0.856621
0.837675
0.82329
0.810616
0.799427
0.789812
0.781694
0.774944
0.769187
0.7641
0.760085
0.757711
0.754594
0.745965
)
;
    }
    procBoundary0to5
    {
        type            processor;
        value           nonuniform List<scalar> 4(84.8372 106.584 127.138 148.285);
    }
}


// ************************************************************************* //
