/*--------------------------------*- C++ -*----------------------------------*\
| =========                 |                                                 |
| \\      /  F ield         | OpenFOAM: The Open Source CFD Toolbox           |
|  \\    /   O peration     | Version:  2306                                  |
|   \\  /    A nd           | Website:  www.openfoam.com                      |
|    \\/     M anipulation  |                                                 |
\*---------------------------------------------------------------------------*/
FoamFile
{
    version     2.0;
    format      ascii;
    arch        "LSB;label=32;scalar=64";
    class       volScalarField;
    location    "325";
    object      turbulenceProperties:k;
}
// * * * * * * * * * * * * * * * * * * * * * * * * * * * * * * * * * * * * * //

dimensions      [0 2 -2 0 0 0 0];

internalField   nonuniform List<scalar> 
1340
(
0.000510015
0.000504031
0.00049744
0.000489226
0.000478434
0.000433016
0.000427657
0.000421951
0.000415058
0.000406025
0.000395617
0.000370128
0.000365332
0.000360333
0.000354495
0.000346885
0.000338306
0.000328859
0.000318143
0.000313875
0.000309484
0.000304495
0.000298061
0.000290931
0.000283248
0.000274934
0.000274819
0.000271005
0.000267151
0.000262842
0.000257378
0.000251415
0.00024508
0.000238241
0.00023089
0.00023842
0.000235003
0.000231612
0.000227875
0.000223202
0.000218185
0.0002129
0.000207227
0.000201207
0.000195031
0.00020762
0.000204569
0.000201565
0.000198312
0.000194295
0.00019005
0.000185597
0.00018085
0.000175883
0.000170839
0.000181398
0.00017868
0.000176014
0.000173161
0.000169695
0.000166082
0.000162298
0.000158295
0.000154169
0.000150019
0.000145825
0.000158957
0.00015653
0.000154163
0.000151651
0.000148644
0.000145554
0.000142313
0.000138917
0.000135462
0.000132022
0.000128572
0.000139657
0.000137488
0.000135381
0.000133161
0.000130546
0.000127882
0.000125093
0.000122193
0.000119283
0.000116408
0.000113552
0.000110692
0.000122985
0.000121046
0.000119166
0.0001172
0.00011492
0.000112604
0.000110193
0.000107705
0.000105234
0.000102816
0.000100433
9.80659e-05
0.000108526
0.000106792
0.000105112
0.00010337
0.000101375
9.93503e-05
9.72546e-05
9.51096e-05
9.30006e-05
9.09528e-05
8.8951e-05
8.69747e-05
9.59446e-05
9.43953e-05
9.28891e-05
9.13416e-05
8.95906e-05
8.78141e-05
8.59849e-05
8.41269e-05
8.23153e-05
8.0569e-05
7.88733e-05
7.72147e-05
7.55775e-05
8.4962e-05
8.35773e-05
8.22267e-05
8.08488e-05
7.93064e-05
7.77417e-05
7.614e-05
7.45216e-05
7.29577e-05
7.14597e-05
7.00145e-05
6.86093e-05
6.72325e-05
7.53491e-05
7.41082e-05
7.29002e-05
7.16697e-05
7.03078e-05
6.89257e-05
6.75176e-05
6.61027e-05
6.47437e-05
6.34503e-05
6.221e-05
6.10133e-05
5.98477e-05
5.86895e-05
6.6913e-05
6.58005e-05
6.4719e-05
6.36185e-05
6.24136e-05
6.11898e-05
5.99468e-05
5.8706e-05
5.75204e-05
5.63969e-05
5.53262e-05
5.4299e-05
5.33035e-05
5.23194e-05
5.94916e-05
5.84959e-05
5.75261e-05
5.654e-05
5.54725e-05
5.43865e-05
5.3286e-05
5.21945e-05
5.11546e-05
5.01742e-05
4.92439e-05
4.83569e-05
4.75014e-05
4.666e-05
5.29501e-05
5.20592e-05
5.11896e-05
5.0305e-05
4.93572e-05
4.83917e-05
4.74145e-05
4.64511e-05
4.55367e-05
4.4677e-05
4.3864e-05
4.30923e-05
4.23524e-05
4.16283e-05
4.09017e-05
4.71741e-05
4.63755e-05
4.55964e-05
4.48028e-05
4.39596e-05
4.31e-05
4.22316e-05
4.1378e-05
4.05708e-05
3.98135e-05
3.90994e-05
3.84245e-05
3.778e-05
3.7152e-05
3.65259e-05
4.20643e-05
4.13482e-05
4.06508e-05
3.99391e-05
3.91867e-05
3.84209e-05
3.76482e-05
3.68902e-05
3.61754e-05
3.55057e-05
3.48761e-05
3.42828e-05
3.3718e-05
3.31704e-05
3.26265e-05
3.7537e-05
3.68953e-05
3.62707e-05
3.56327e-05
3.49602e-05
3.42776e-05
3.35893e-05
3.29151e-05
3.22801e-05
3.16863e-05
3.11285e-05
3.06042e-05
3.01075e-05
2.96276e-05
2.91524e-05
2.86728e-05
3.35208e-05
3.29454e-05
3.23858e-05
3.18142e-05
3.12131e-05
3.06038e-05
2.99901e-05
2.93898e-05
2.88246e-05
2.82964e-05
2.78007e-05
2.73362e-05
2.68963e-05
2.64729e-05
2.60567e-05
2.56382e-05
2.94372e-05
2.89362e-05
2.84237e-05
2.78865e-05
2.73425e-05
2.67949e-05
2.62597e-05
2.5756e-05
2.52853e-05
2.48435e-05
2.44301e-05
2.40398e-05
2.36651e-05
2.32979e-05
2.29306e-05
2.25535e-05
2.63175e-05
2.58695e-05
2.541e-05
2.49295e-05
2.44441e-05
2.39554e-05
2.34778e-05
2.30287e-05
2.26085e-05
2.22143e-05
2.18454e-05
2.14978e-05
2.11648e-05
2.08398e-05
2.05163e-05
2.01856e-05
2.35405e-05
2.31399e-05
2.27284e-05
2.22988e-05
2.18656e-05
2.14295e-05
2.10036e-05
2.06024e-05
2.02269e-05
1.98747e-05
1.95448e-05
1.92346e-05
1.89383e-05
1.86496e-05
1.83636e-05
1.80733e-05
2.10661e-05
2.0708e-05
2.03396e-05
1.99558e-05
1.95694e-05
1.91805e-05
1.88006e-05
1.84423e-05
1.81068e-05
1.77917e-05
1.74966e-05
1.72192e-05
1.69545e-05
1.66979e-05
1.64447e-05
1.61886e-05
1.59229e-05
1.88592e-05
1.85393e-05
1.821e-05
1.78673e-05
1.75229e-05
1.71764e-05
1.68375e-05
1.65179e-05
1.62182e-05
1.59363e-05
1.56721e-05
1.54239e-05
1.51876e-05
1.49588e-05
1.4734e-05
1.45077e-05
1.42745e-05
1.68896e-05
1.66039e-05
1.63097e-05
1.60042e-05
1.56975e-05
1.53889e-05
1.50872e-05
1.48022e-05
1.45347e-05
1.42826e-05
1.40463e-05
1.38242e-05
1.36127e-05
1.3409e-05
1.32095e-05
1.30093e-05
1.28041e-05
1.51303e-05
1.48752e-05
1.46127e-05
1.43408e-05
1.40681e-05
1.37938e-05
1.35254e-05
1.32717e-05
1.30332e-05
1.28079e-05
1.25966e-05
1.23981e-05
1.22092e-05
1.20275e-05
1.18502e-05
1.16732e-05
1.14926e-05
1.13036e-05
1.35577e-05
1.33302e-05
1.30962e-05
1.28547e-05
1.26126e-05
1.23691e-05
1.21308e-05
1.19055e-05
1.16931e-05
1.14923e-05
1.13037e-05
1.11262e-05
1.09577e-05
1.07958e-05
1.06385e-05
1.04821e-05
1.0323e-05
1.01576e-05
1.21511e-05
1.19485e-05
1.17402e-05
1.1526e-05
1.13116e-05
1.10958e-05
1.08849e-05
1.06851e-05
1.04965e-05
1.03179e-05
1.01498e-05
9.99152e-06
9.84135e-06
9.69743e-06
9.55781e-06
9.41966e-06
9.27996e-06
9.13518e-06
1.08922e-05
1.0712e-05
1.05269e-05
1.03373e-05
1.01479e-05
9.95735e-06
9.77092e-06
9.59435e-06
9.42734e-06
9.26884e-06
9.1194e-06
8.97867e-06
8.84513e-06
8.71737e-06
8.59386e-06
8.47213e-06
8.34942e-06
8.22277e-06
8.08864e-06
9.76506e-06
9.60482e-06
9.44077e-06
9.2734e-06
9.10649e-06
8.93857e-06
8.77444e-06
8.61889e-06
8.4716e-06
8.33135e-06
8.1989e-06
8.07406e-06
7.9556e-06
7.84252e-06
7.73344e-06
7.62629e-06
7.51882e-06
7.40855e-06
7.29217e-06
8.75524e-06
8.61296e-06
8.46782e-06
8.32059e-06
8.17396e-06
8.0265e-06
7.88254e-06
7.74606e-06
7.61654e-06
7.493e-06
7.376e-06
7.26566e-06
7.16089e-06
7.06104e-06
6.96502e-06
6.87102e-06
6.77715e-06
6.68123e-06
6.58039e-06
7.85011e-06
7.72402e-06
7.59589e-06
7.46684e-06
7.33843e-06
7.20944e-06
7.08374e-06
6.96456e-06
6.85128e-06
6.74282e-06
6.63983e-06
6.54259e-06
6.45034e-06
6.36252e-06
6.27832e-06
6.19604e-06
6.11425e-06
6.03111e-06
5.94416e-06
5.85053e-06
7.03848e-06
6.9269e-06
6.81421e-06
6.70141e-06
6.58945e-06
6.47714e-06
6.36801e-06
6.26453e-06
6.16583e-06
6.07103e-06
5.98085e-06
5.8955e-06
5.81455e-06
5.73758e-06
5.66398e-06
5.59232e-06
5.52141e-06
5.44964e-06
5.37477e-06
5.29444e-06
6.31043e-06
6.21183e-06
6.11308e-06
6.01494e-06
5.91777e-06
5.82049e-06
5.72632e-06
5.63701e-06
5.55155e-06
5.46913e-06
5.39046e-06
5.31591e-06
5.24518e-06
5.17804e-06
5.114e-06
5.05189e-06
4.99063e-06
4.92883e-06
4.86466e-06
4.79618e-06
5.65709e-06
5.57014e-06
5.48393e-06
5.39901e-06
5.31506e-06
5.23136e-06
5.15073e-06
5.07421e-06
5.0007e-06
4.92941e-06
4.86115e-06
4.79637e-06
4.7349e-06
4.67662e-06
4.62113e-06
4.56753e-06
4.51487e-06
4.46197e-06
4.4073e-06
4.3491e-06
4.28517e-06
5.07062e-06
4.9941e-06
4.91916e-06
4.84612e-06
4.77406e-06
4.70259e-06
4.63417e-06
4.56916e-06
4.50637e-06
4.44512e-06
4.38622e-06
4.33025e-06
4.27714e-06
4.22684e-06
4.17906e-06
4.13309e-06
4.0881e-06
4.04303e-06
3.99661e-06
3.94738e-06
3.8935e-06
4.54398e-06
4.47684e-06
4.41199e-06
4.34965e-06
4.28824e-06
4.22777e-06
4.17038e-06
4.1157e-06
4.06248e-06
4.01026e-06
3.95979e-06
3.91174e-06
3.86616e-06
3.82307e-06
3.78222e-06
3.74302e-06
3.70477e-06
3.66662e-06
3.6275e-06
3.58608e-06
3.54087e-06
4.07092e-06
4.01221e-06
3.95644e-06
3.90368e-06
3.85176e-06
3.80124e-06
3.75379e-06
3.70834e-06
3.66367e-06
3.61949e-06
3.57661e-06
3.5357e-06
3.49691e-06
3.46027e-06
3.42562e-06
3.39244e-06
3.36017e-06
3.32808e-06
3.29528e-06
3.26065e-06
3.22295e-06
3.6459e-06
3.59474e-06
3.54712e-06
3.5029e-06
3.4595e-06
3.41796e-06
3.3794e-06
3.34219e-06
3.30514e-06
3.26816e-06
3.23209e-06
3.19761e-06
3.16489e-06
3.13403e-06
3.10489e-06
3.07704e-06
3.05001e-06
3.0232e-06
2.99585e-06
2.96705e-06
2.93573e-06
2.90043e-06
3.26396e-06
3.21954e-06
3.17925e-06
3.14264e-06
3.10686e-06
3.07342e-06
3.04285e-06
3.0129e-06
2.98264e-06
2.95209e-06
2.92212e-06
2.89342e-06
2.86616e-06
2.84043e-06
2.81614e-06
2.79292e-06
2.77043e-06
2.74818e-06
2.72552e-06
2.70167e-06
2.67578e-06
2.64661e-06
2.92065e-06
2.88226e-06
2.84855e-06
2.81871e-06
2.78973e-06
2.76362e-06
2.74017e-06
2.71663e-06
2.69238e-06
2.6676e-06
2.64312e-06
2.61957e-06
2.59712e-06
2.57588e-06
2.5558e-06
2.53661e-06
2.518e-06
2.4996e-06
2.48086e-06
2.46117e-06
2.43979e-06
2.41568e-06
2.61201e-06
2.579e-06
2.55121e-06
2.52736e-06
2.50446e-06
2.48498e-06
2.46785e-06
2.44993e-06
2.43104e-06
2.41143e-06
2.39184e-06
2.37283e-06
2.35458e-06
2.33719e-06
2.32067e-06
2.30483e-06
2.28945e-06
2.27422e-06
2.25873e-06
2.24245e-06
2.22476e-06
2.20484e-06
2.33449e-06
2.30627e-06
2.28382e-06
2.26524e-06
2.2478e-06
2.23433e-06
2.22276e-06
2.20974e-06
2.19565e-06
2.18068e-06
2.16539e-06
2.1503e-06
2.13558e-06
2.12138e-06
2.10777e-06
2.09464e-06
2.08185e-06
2.06918e-06
2.05628e-06
2.04273e-06
2.02801e-06
2.01142e-06
1.99214e-06
2.08493e-06
2.06099e-06
2.04331e-06
2.02937e-06
2.01685e-06
2.00883e-06
2.00208e-06
1.99333e-06
1.98358e-06
1.97274e-06
1.96115e-06
1.9493e-06
1.93743e-06
1.92573e-06
1.91438e-06
1.90335e-06
1.89257e-06
1.88188e-06
1.87101e-06
1.85961e-06
1.84725e-06
1.83335e-06
1.8172e-06
1.86047e-06
1.84035e-06
1.82696e-06
1.81707e-06
1.809e-06
1.80592e-06
1.80329e-06
1.79826e-06
1.79249e-06
1.78527e-06
1.77672e-06
1.76739e-06
1.75765e-06
1.7478e-06
1.7381e-06
1.72864e-06
1.71939e-06
1.71025e-06
1.70098e-06
1.69129e-06
1.68084e-06
1.66912e-06
1.65554e-06
1.6586e-06
1.64188e-06
1.63232e-06
1.62596e-06
1.62194e-06
1.6233e-06
1.62412e-06
1.62239e-06
1.62033e-06
1.61617e-06
1.60988e-06
1.60233e-06
1.59406e-06
1.5855e-06
1.57702e-06
1.56875e-06
1.56071e-06
1.55281e-06
1.54487e-06
1.53662e-06
1.52777e-06
1.51791e-06
1.50654e-06
1.47703e-06
1.46335e-06
1.45721e-06
1.45389e-06
1.45361e-06
1.45891e-06
1.46252e-06
1.4638e-06
1.46523e-06
1.46348e-06
1.45864e-06
1.45218e-06
1.44489e-06
1.43726e-06
1.42974e-06
1.42248e-06
1.41551e-06
1.40874e-06
1.40199e-06
1.39505e-06
1.38766e-06
1.37946e-06
1.37005e-06
1.31373e-06
1.30277e-06
1.29965e-06
1.29897e-06
1.30217e-06
1.31091e-06
1.31668e-06
1.32081e-06
1.32552e-06
1.32538e-06
1.32121e-06
1.31538e-06
1.30882e-06
1.30203e-06
1.29544e-06
1.2892e-06
1.2833e-06
1.27763e-06
1.27203e-06
1.26632e-06
1.26026e-06
1.25355e-06
1.24587e-06
1.23709e-06
1.16685e-06
1.15832e-06
1.15788e-06
1.15948e-06
1.16596e-06
1.17759e-06
1.18501e-06
1.19197e-06
1.19969e-06
1.20023e-06
1.19609e-06
1.19075e-06
1.18501e-06
1.17919e-06
1.17365e-06
1.16849e-06
1.16366e-06
1.15904e-06
1.1545e-06
1.14985e-06
1.14493e-06
1.13946e-06
1.13317e-06
1.12595e-06
1.03477e-06
1.02841e-06
1.03029e-06
1.03385e-06
1.04343e-06
1.05739e-06
1.06605e-06
1.07608e-06
1.08651e-06
1.08664e-06
1.08212e-06
1.0775e-06
1.0729e-06
1.06822e-06
1.06375e-06
1.05961e-06
1.05571e-06
1.05194e-06
1.0482e-06
1.04434e-06
1.04021e-06
1.0356e-06
1.03024e-06
1.02406e-06
9.1607e-07
9.11653e-07
9.15499e-07
9.20723e-07
9.33207e-07
9.48801e-07
9.58401e-07
9.71772e-07
9.84702e-07
9.83588e-07
9.78665e-07
9.75187e-07
9.71947e-07
9.68313e-07
9.64668e-07
9.61201e-07
9.57858e-07
9.54558e-07
9.51216e-07
9.47734e-07
9.43983e-07
9.39776e-07
9.34882e-07
9.29221e-07
8.09479e-07
8.06854e-07
8.12356e-07
8.19024e-07
8.34216e-07
8.50732e-07
8.60925e-07
8.77406e-07
8.92614e-07
8.90152e-07
8.85351e-07
8.83355e-07
8.81278e-07
8.78203e-07
8.74817e-07
8.71474e-07
8.68172e-07
8.64864e-07
8.61503e-07
8.58018e-07
8.54298e-07
8.50161e-07
8.45377e-07
8.39898e-07
7.13816e-07
7.12831e-07
7.19754e-07
7.27811e-07
7.45586e-07
7.62498e-07
7.73104e-07
7.92244e-07
8.09111e-07
8.05227e-07
8.01224e-07
8.00789e-07
7.99201e-07
7.95918e-07
7.92223e-07
7.8858e-07
7.84969e-07
7.81383e-07
7.7778e-07
7.741e-07
7.70242e-07
7.66026e-07
7.6122e-07
7.55807e-07
6.28101e-07
6.28479e-07
6.36504e-07
6.45932e-07
6.66067e-07
6.83043e-07
6.94255e-07
7.17378e-07
7.35944e-07
7.28092e-07
7.24242e-07
7.25431e-07
7.2377e-07
7.19664e-07
7.15362e-07
7.11329e-07
7.07401e-07
7.03546e-07
6.99742e-07
6.95936e-07
6.91992e-07
6.87739e-07
6.82965e-07
6.77647e-07
6.72006e-07
5.52555e-07
5.5393e-07
5.62385e-07
5.72755e-07
5.94356e-07
6.10369e-07
6.21648e-07
6.5057e-07
6.747e-07
6.59368e-07
6.53309e-07
6.56589e-07
6.55199e-07
6.50286e-07
6.4546e-07
6.41224e-07
6.37159e-07
6.33152e-07
6.29263e-07
6.25423e-07
6.21477e-07
6.17251e-07
6.12563e-07
6.07357e-07
6.01852e-07
4.91682e-07
4.93486e-07
5.01273e-07
5.1119e-07
5.32063e-07
5.44212e-07
5.52619e-07
5.87103e-07
6.17578e-07
5.96469e-07
5.89044e-07
5.95187e-07
5.95466e-07
5.90943e-07
5.86313e-07
5.82375e-07
5.78572e-07
5.74752e-07
5.71001e-07
5.67279e-07
5.63468e-07
5.59374e-07
5.54821e-07
5.4976e-07
5.44409e-07
4.43452e-07
4.45234e-07
4.5168e-07
4.60167e-07
4.78321e-07
4.84701e-07
4.90304e-07
5.21728e-07
5.56307e-07
5.37003e-07
5.31613e-07
5.40009e-07
5.42806e-07
5.39975e-07
5.36238e-07
5.32964e-07
5.29763e-07
5.26476e-07
5.23142e-07
5.19773e-07
5.16294e-07
5.12537e-07
5.08297e-07
5.0353e-07
4.98471e-07
3.99311e-07
4.0104e-07
4.0623e-07
4.13716e-07
4.29124e-07
4.30729e-07
4.35974e-07
4.60196e-07
4.94867e-07
4.81954e-07
4.7961e-07
4.88678e-07
4.93466e-07
4.92568e-07
4.8992e-07
4.87314e-07
4.84714e-07
4.81973e-07
4.79132e-07
4.76213e-07
4.73162e-07
4.69831e-07
4.66022e-07
4.61664e-07
4.56996e-07
3.56192e-07
3.57838e-07
3.61823e-07
3.68746e-07
3.8121e-07
3.79713e-07
3.85884e-07
4.03215e-07
4.38331e-07
4.324e-07
4.32694e-07
4.41255e-07
4.46965e-07
4.4755e-07
4.45927e-07
4.44019e-07
4.42046e-07
4.39829e-07
4.3741e-07
4.34873e-07
4.32191e-07
4.2923e-07
4.25826e-07
4.21842e-07
4.17481e-07
3.15196e-07
3.16679e-07
3.19558e-07
3.26167e-07
3.35445e-07
3.32653e-07
3.39763e-07
3.50974e-07
3.86986e-07
3.87519e-07
3.90435e-07
3.98386e-07
4.04462e-07
4.05974e-07
4.05025e-07
4.03701e-07
4.02438e-07
4.00946e-07
3.99097e-07
3.96971e-07
3.94601e-07
3.91925e-07
3.88776e-07
3.8503e-07
3.80834e-07
2.765e-07
2.7764e-07
2.79458e-07
2.85744e-07
2.9168e-07
2.89639e-07
2.96844e-07
3.03626e-07
3.41461e-07
3.47549e-07
3.52632e-07
3.6013e-07
3.66629e-07
3.69026e-07
3.68389e-07
3.66872e-07
3.65476e-07
3.64213e-07
3.62842e-07
3.61205e-07
3.59202e-07
3.56738e-07
3.53617e-07
3.49789e-07
3.45394e-07
2.40587e-07
2.41105e-07
2.4179e-07
2.47286e-07
2.49769e-07
2.50425e-07
2.56149e-07
2.61317e-07
3.02033e-07
3.12855e-07
3.19691e-07
3.26258e-07
3.32371e-07
3.35647e-07
3.36211e-07
3.35056e-07
3.33003e-07
3.30574e-07
3.28127e-07
3.25786e-07
3.23416e-07
3.20708e-07
3.17218e-07
3.12581e-07
3.06838e-07
2.07806e-07
2.07481e-07
2.06934e-07
2.10724e-07
2.09592e-07
2.13817e-07
2.15407e-07
2.23336e-07
2.68501e-07
2.83102e-07
2.92607e-07
2.9832e-07
3.01403e-07
3.01856e-07
3.01605e-07
3.01592e-07
3.01273e-07
2.99684e-07
2.96633e-07
2.92592e-07
2.88013e-07
2.8302e-07
2.77378e-07
2.70778e-07
2.63161e-07
2.54654e-07
1.78137e-07
1.76882e-07
1.75078e-07
1.76222e-07
1.71763e-07
1.78703e-07
1.72747e-07
1.90159e-07
2.40908e-07
2.5548e-07
2.68504e-07
2.75515e-07
2.76354e-07
2.71557e-07
2.64257e-07
2.58088e-07
2.54757e-07
2.53568e-07
2.52702e-07
2.50708e-07
2.46906e-07
2.41161e-07
2.33486e-07
2.24241e-07
2.14037e-07
2.03522e-07
1.51659e-07
1.49084e-07
1.45417e-07
1.43145e-07
1.36848e-07
1.45447e-07
1.32006e-07
1.69929e-07
2.21795e-07
2.31093e-07
2.44752e-07
2.4964e-07
2.51128e-07
2.50243e-07
2.43042e-07
2.29595e-07
2.15019e-07
2.04513e-07
2.00309e-07
2.01725e-07
2.06559e-07
2.12275e-07
2.15715e-07
2.13949e-07
2.07244e-07
1.98706e-07
1.30272e-07
1.25241e-07
1.17523e-07
1.09851e-07
1.02593e-07
1.12856e-07
1.02714e-07
1.71798e-07
2.1329e-07
2.296e-07
2.62866e-07
2.71469e-07
2.61389e-07
2.44788e-07
2.33897e-07
2.35965e-07
2.46522e-07
2.56333e-07
2.60965e-07
2.61327e-07
2.59795e-07
2.58881e-07
2.62423e-07
2.75111e-07
2.97043e-07
3.23269e-07
1.17277e-07
1.09144e-07
9.52321e-08
7.82312e-08
6.54251e-08
7.46635e-08
8.43588e-08
1.74074e-07
1.90166e-07
2.22114e-07
2.83551e-07
3.36465e-07
3.89937e-07
4.4485e-07
4.95004e-07
5.36435e-07
5.68056e-07
5.9375e-07
6.18672e-07
6.45912e-07
6.76369e-07
7.09445e-07
7.43532e-07
7.74488e-07
7.98034e-07
8.16305e-07
1.11296e-07
1.01658e-07
8.37338e-08
5.77967e-08
3.07225e-08
3.67898e-08
7.53491e-08
1.31471e-07
1.9043e-07
4.16887e-07
6.36404e-07
8.33696e-07
9.90307e-07
1.10341e-06
1.17855e-06
1.22857e-06
1.26669e-06
1.30254e-06
1.33939e-06
1.37672e-06
1.41264e-06
1.4469e-06
1.48092e-06
1.51959e-06
1.55898e-06
1.59224e-06
)
;

boundaryField
{
    inlet
    {
        type            calculated;
        value           nonuniform List<scalar> 
26
(
1.11042e-07
1.01666e-07
8.37796e-08
5.68525e-08
2.62002e-08
3.74303e-08
8.8696e-08
9.54098e-08
4.27629e-07
8.75648e-07
1.38372e-06
1.89048e-06
2.35183e-06
2.74887e-06
3.07276e-06
3.33155e-06
3.5386e-06
3.70824e-06
3.85388e-06
3.98641e-06
4.1141e-06
4.2458e-06
4.39198e-06
4.56011e-06
4.73845e-06
4.90836e-06
)
;
    }
    outlet
    {
        type            calculated;
        value           nonuniform List<scalar> 0();
    }
    walls
    {
        type            calculated;
        value           nonuniform List<scalar> 0();
    }
    frontAndBack
    {
        type            empty;
    }
    procBoundary0to1
    {
        type            processor;
        value           nonuniform List<scalar> 
94
(
0.000568123
0.000465673
0.000465673
0.000383837
0.000383837
0.000318633
0.000318633
0.000265882
0.000265882
0.00022326
0.00022326
0.000188682
0.0001657
0.0001657
0.00014156
0.000125092
0.000125092
0.000107816
9.57e-05
8.50123e-05
8.50123e-05
7.39334e-05
6.58567e-05
6.58567e-05
5.7508e-05
5.13226e-05
4.58114e-05
4.58114e-05
4.01557e-05
3.58863e-05
3.20746e-05
3.20746e-05
2.81756e-05
2.5206e-05
2.5206e-05
2.21568e-05
1.984e-05
1.77705e-05
1.77705e-05
1.56414e-05
1.40283e-05
1.25883e-05
1.25883e-05
1.11008e-05
9.9806e-06
8.98094e-06
8.98094e-06
7.94272e-06
7.16586e-06
6.47138e-06
6.47138e-06
5.74677e-06
5.20582e-06
4.72079e-06
4.72079e-06
4.2128e-06
3.83261e-06
3.48986e-06
3.18041e-06
3.18041e-06
2.8595e-06
2.61274e-06
2.38771e-06
2.18167e-06
2.18167e-06
1.9698e-06
1.79852e-06
1.63989e-06
1.49348e-06
1.35929e-06
1.35929e-06
1.22744e-06
1.11799e-06
1.01722e-06
9.22986e-07
8.33949e-07
7.50028e-07
7.50028e-07
6.66325e-07
5.96371e-07
5.39093e-07
4.93438e-07
4.52303e-07
4.12995e-07
3.76375e-07
3.40657e-07
3.00411e-07
3.00411e-07
2.4538e-07
1.93156e-07
1.90848e-07
3.49815e-07
8.32537e-07
1.61859e-06
)
;
    }
    procBoundary0to4
    {
        type            processor;
        value           nonuniform List<scalar> 
72
(
0.000514688
0.000437392
0.000374204
0.000321896
0.000278246
0.000241527
0.000210436
0.000183951
0.000161264
0.000141735
0.000124857
0.000110215
9.74653e-05
8.63325e-05
7.65832e-05
6.8024e-05
6.0493e-05
5.38525e-05
4.79862e-05
4.2796e-05
3.81966e-05
3.41146e-05
2.9953e-05
2.9953e-05
2.678e-05
2.3955e-05
2.14374e-05
1.91919e-05
1.71873e-05
1.53964e-05
1.37953e-05
1.23631e-05
1.10813e-05
9.93333e-06
8.9048e-06
7.98289e-06
7.15619e-06
6.41456e-06
5.74904e-06
5.15163e-06
4.6152e-06
4.13341e-06
3.70059e-06
3.31169e-06
2.96217e-06
2.64801e-06
2.3656e-06
2.11169e-06
1.88339e-06
1.67812e-06
1.49355e-06
1.32761e-06
1.17843e-06
1.04433e-06
9.23844e-07
8.15685e-07
7.18666e-07
6.31814e-07
5.55414e-07
4.9408e-07
4.45565e-07
4.01128e-07
3.5773e-07
3.1649e-07
2.77626e-07
2.41651e-07
2.08929e-07
1.79442e-07
1.53357e-07
1.3266e-07
1.20399e-07
1.1473e-07
)
;
    }
    procBoundary0to5
    {
        type            processor;
        value           nonuniform List<scalar> 4(0.000604978 0.000598444 0.000590879 0.000581104);
    }
}


// ************************************************************************* //
