/*--------------------------------*- C++ -*----------------------------------*\
| =========                 |                                                 |
| \\      /  F ield         | OpenFOAM: The Open Source CFD Toolbox           |
|  \\    /   O peration     | Version:  2306                                  |
|   \\  /    A nd           | Website:  www.openfoam.com                      |
|    \\/     M anipulation  |                                                 |
\*---------------------------------------------------------------------------*/
FoamFile
{
    version     2.0;
    format      ascii;
    arch        "LSB;label=32;scalar=64";
    class       volSymmTensorField;
    location    "325";
    object      turbulenceProperties:R;
}
// * * * * * * * * * * * * * * * * * * * * * * * * * * * * * * * * * * * * * //

dimensions      [0 2 -2 0 0 0 0];

internalField   nonuniform List<symmTensor> 
1340
(
(0.000371809 -2.99098e-05 -1.14146e-21 0.000308236 -4.42205e-22 0.000339984)
(0.00037162 -2.4329e-05 8.56613e-21 0.000300388 8.52383e-21 0.000336055)
(0.000370012 -1.84055e-05 1.88212e-20 0.000293255 1.07381e-20 0.000331614)
(0.000366457 -1.12004e-05 -2.99956e-20 0.000285791 -3.33331e-20 0.000326203)
(0.000359764 -3.24709e-06 -4.22024e-20 0.000278155 -3.58171e-20 0.000318948)
(0.0003154 -2.56813e-05 3.94932e-21 0.000261972 3.48396e-21 0.00028866)
(0.000315042 -2.10326e-05 1.12848e-20 0.000255143 5.99242e-21 0.000285129)
(0.000313629 -1.60862e-05 -2.64431e-20 0.000248982 -1.86479e-20 0.000281291)
(0.000310736 -1.00792e-05 3.81246e-21 0.000242631 6.81099e-21 0.000276749)
(0.000305257 -3.42015e-06 3.99076e-20 0.00023612 1.58337e-20 0.000270673)
(0.000297431 3.41876e-06 -2.96632e-20 0.000230077 -3.52788e-20 0.000263726)
(0.000269347 -2.22041e-05 -2.01877e-21 0.000224171 -1.87226e-21 0.000246738)
(0.000268895 -1.83e-05 -8.44883e-21 0.0002182 -5.62493e-21 0.00024357)
(0.000267628 -1.41337e-05 -1.19374e-21 0.000212824 1.78651e-22 0.000240214)
(0.000265252 -9.08046e-06 1.56567e-20 0.000207373 1.02962e-20 0.000236365)
(0.000260739 -3.45615e-06 -9.44592e-21 0.000201789 -7.60602e-22 0.000231244)
(0.000254396 2.33703e-06 3.45549e-20 0.000196694 2.67383e-20 0.000225521)
(0.00024622 8.00657e-06 5.75984e-20 0.00019227 2.54077e-20 0.000219228)
(0.000231294 -1.93078e-05 2.64579e-21 0.000192906 1.86311e-21 0.000212085)
(0.000230815 -1.60054e-05 3.72478e-21 0.000187675 2.60261e-21 0.00020926)
(0.000229687 -1.24735e-05 9.9143e-21 0.000182967 3.39762e-21 0.000206316)
(0.000227714 -8.18976e-06 -2.70639e-20 0.00017825 -1.83938e-20 0.000203026)
(0.000223986 -3.40639e-06 -1.34301e-20 0.000173443 -9.87696e-21 0.000198692)
(0.000218804 1.53728e-06 -3.35947e-20 0.000169117 -2.08493e-20 0.000193941)
(0.000212207 6.41095e-06 -4.12548e-20 0.000165464 -1.13082e-20 0.000188825)
(0.000204133 1.08979e-05 3.47454e-20 0.000162441 6.63139e-21 0.000183295)
(0.000199598 -1.6874e-05 2.86455e-21 0.000166837 1.48633e-21 0.000183204)
(0.000199109 -1.40601e-05 6.06058e-22 0.000162224 3.88428e-23 0.000180678)
(0.000198115 -1.105e-05 -8.09286e-21 0.000158093 -2.32524e-21 0.000178093)
(0.000196455 -7.39371e-06 2.4943e-20 0.000153978 1.6681e-20 0.000175253)
(0.000193363 -3.3004e-06 4.6197e-20 0.000149823 2.1013e-20 0.00017157)
(0.000189105 9.44487e-07 1.04232e-21 0.000146126 5.19447e-21 0.0001676)
(0.000183713 5.15438e-06 8.79244e-20 0.000143063 3.67558e-20 0.000163384)
(0.000177082 9.06231e-06 -2.56836e-20 0.000140567 -2.49686e-20 0.000158832)
(0.000169411 1.22651e-05 -4.34449e-20 0.000138443 -1.33459e-20 0.000153925)
(0.000172983 -1.48092e-05 2.7134e-21 0.000144918 1.27366e-21 0.00015894)
(0.000172498 -1.24003e-05 -4.86537e-21 0.000140835 -2.86258e-21 0.000156674)
(0.000171627 -9.81793e-06 -1.91353e-21 0.000137195 -1.3066e-21 0.000154403)
(0.000170222 -6.68398e-06 -3.52718e-21 0.000133591 1.31796e-21 0.000151937)
(0.00016764 -3.1604e-06 3.49937e-20 0.000129977 1.33258e-20 0.000148787)
(0.000164121 5.02606e-07 -3.8179e-20 0.000126801 -1.91585e-20 0.000145448)
(0.000159668 4.15825e-06 4.00723e-21 0.0001242 3.00889e-21 0.000141933)
(0.00015418 7.57215e-06 1.54891e-20 0.000122118 -1.85831e-21 0.000138156)
(0.000147855 1.04e-05 -1.10535e-19 0.000120422 -3.09565e-20 0.000134137)
(0.000141071 1.25024e-05 2.65362e-20 0.000118974 1.50985e-20 0.000130017)
(0.000150478 -1.30434e-05 -3.94451e-21 0.000126354 -1.50075e-21 0.000138408)
(0.000150016 -1.09741e-05 3.2765e-21 0.00012274 2.80826e-21 0.000136382)
(0.000149243 -8.74794e-06 2.20368e-20 0.000119515 1.12756e-20 0.000134372)
(0.000148053 -6.04634e-06 6.23201e-21 0.000116346 1.39689e-22 0.000132225)
(0.000145885 -3.00003e-06 -2.64623e-20 0.000113187 -1.06728e-20 0.000129517)
(0.000142962 1.75287e-07 2.46654e-20 0.000110445 1.2523e-20 0.000126693)
(0.00013925 3.36164e-06 -6.69529e-21 0.000108212 -1.80216e-21 0.000123733)
(0.000134672 6.35337e-06 6.1585e-20 0.000106457 2.30168e-20 0.00012057)
(0.000129421 8.85511e-06 2.02207e-20 0.00010509 9.31973e-21 0.000117255)
(0.000123803 1.07429e-05 -1.21969e-20 0.000103986 -4.63183e-21 0.000113889)
(0.000131331 -1.15248e-05 4.04393e-22 0.000110537 -7.12584e-23 0.000120928)
(0.000130905 -9.7396e-06 -9.99899e-22 0.000107333 -1.34523e-21 0.000119121)
(0.00013022 -7.81419e-06 -1.88161e-20 0.00010447 -1.06882e-20 0.000117339)
(0.000129201 -5.47494e-06 -3.06953e-20 0.000101667 -1.57055e-20 0.000115455)
(0.000127374 -2.82926e-06 -3.77868e-20 9.88964e-05 -1.05725e-20 0.000113119)
(0.000124933 -6.63008e-08 5.46639e-20 9.65155e-05 2.01699e-20 0.000110715)
(0.000121814 2.72057e-06 -5.03776e-20 9.45814e-05 -2.11757e-20 0.000108201)
(0.00011797 5.34991e-06 1.212e-20 9.30876e-05 9.84587e-21 0.000105534)
(0.000113582 7.56669e-06 3.02595e-20 9.19771e-05 9.44382e-21 0.000102778)
(0.000108899 9.26067e-06 2.10224e-20 9.11293e-05 7.98638e-21 0.00010001)
(0.00010404 1.04429e-05 1.98746e-20 9.03933e-05 5.56638e-21 9.72165e-05)
(0.000114956 -1.02117e-05 5.03622e-21 9.69889e-05 2.78293e-21 0.000105968)
(0.000114566 -8.66552e-06 7.78971e-21 9.41404e-05 4.23623e-21 0.000104354)
(0.000113961 -6.99462e-06 2.15838e-20 9.15937e-05 8.80365e-21 0.000102772)
(0.000113084 -4.96145e-06 -4.87016e-21 8.91057e-05 -2.33005e-21 0.000101112)
(0.000111537 -2.65506e-06 1.83104e-20 8.66644e-05 3.93962e-21 9.90864e-05)
(0.000109488 -2.42654e-07 -5.97354e-20 8.45882e-05 -2.09684e-20 9.70309e-05)
(0.000106848 2.20245e-06 5.15473e-20 8.28997e-05 2.78691e-20 9.48776e-05)
(0.000103601 4.51919e-06 6.98291e-20 8.1618e-05 1.74599e-20 9.26145e-05)
(9.99122e-05 6.4858e-06 -4.31563e-21 8.07052e-05 -6.42942e-21 9.03076e-05)
(9.59817e-05 8.00591e-06 2.94461e-20 8.00499e-05 -3.31153e-22 8.80124e-05)
(9.19119e-05 9.08644e-06 2.09016e-20 7.9518e-05 4.66695e-21 8.57144e-05)
(0.000100885 -9.0701e-06 -6.02298e-21 8.53264e-05 -2.51957e-21 9.31022e-05)
(0.000100529 -7.72702e-06 7.15633e-21 8.27881e-05 2.56641e-21 9.16587e-05)
(9.99947e-05 -6.27197e-06 -1.91609e-20 8.0517e-05 -9.30752e-21 9.02507e-05)
(9.92362e-05 -4.49934e-06 -1.56524e-20 7.83024e-05 -5.91686e-21 8.87836e-05)
(9.79232e-05 -2.48291e-06 -4.16739e-21 7.6146e-05 2.19988e-21 8.70226e-05)
(9.61902e-05 -3.69178e-07 6.21047e-20 7.4322e-05 2.24045e-20 8.5251e-05)
(9.39468e-05 1.78084e-06 -7.31368e-21 7.28415e-05 -8.96546e-21 8.33973e-05)
(9.11881e-05 3.82743e-06 -4.95973e-20 7.17329e-05 -2.25826e-20 8.14645e-05)
(8.80688e-05 5.57527e-06 -4.12516e-20 7.09758e-05 -1.59207e-20 7.95214e-05)
(8.47495e-05 6.93808e-06 -1.40615e-19 7.04632e-05 -3.23031e-20 7.76036e-05)
(8.13211e-05 7.92264e-06 1.91533e-20 7.00814e-05 1.14773e-20 7.57011e-05)
(7.7879e-05 8.54272e-06 7.68939e-20 6.97113e-05 1.21061e-20 7.37938e-05)
(8.874e-05 -8.07285e-06 3.78258e-21 7.52413e-05 1.65471e-21 8.1988e-05)
(8.8418e-05 -6.90341e-06 1.32831e-21 7.29763e-05 1.22053e-21 8.06967e-05)
(8.79443e-05 -5.6328e-06 2.28137e-20 7.09464e-05 1.02021e-20 7.94406e-05)
(8.72881e-05 -4.08303e-06 3.55982e-20 6.89713e-05 1.2633e-20 7.81415e-05)
(8.61718e-05 -2.31511e-06 -1.3051e-20 6.70622e-05 -8.58899e-21 7.66066e-05)
(8.46927e-05 -4.57563e-07 -5.20458e-20 6.54481e-05 -1.85392e-20 7.50667e-05)
(8.27779e-05 1.4372e-06 8.44013e-21 6.41443e-05 1.3894e-21 7.34642e-05)
(8.04245e-05 3.24823e-06 -5.87557e-20 6.31797e-05 -1.54606e-20 7.18056e-05)
(7.77698e-05 4.80362e-06 2.79634e-20 6.25427e-05 1.6675e-20 7.01557e-05)
(7.49511e-05 6.02593e-06 6.11711e-20 6.21382e-05 2.16185e-20 6.85424e-05)
(7.20456e-05 6.92092e-06 -3.65409e-20 6.18655e-05 -1.18331e-20 6.69552e-05)
(6.91357e-05 7.49971e-06 -5.43211e-20 6.16199e-05 -1.60857e-20 6.53761e-05)
(7.82166e-05 -7.19859e-06 -4.33913e-21 6.64866e-05 -1.18812e-21 7.23496e-05)
(7.79273e-05 -6.17799e-06 1.37771e-20 6.44629e-05 5.4207e-21 7.11942e-05)
(7.75075e-05 -5.06561e-06 -7.19598e-21 6.2645e-05 -3.30476e-21 7.0072e-05)
(7.69394e-05 -3.70763e-06 -5.55214e-21 6.08808e-05 -2.34699e-21 6.89199e-05)
(7.59872e-05 -2.15368e-06 -1.23436e-20 5.91855e-05 -5.91394e-21 6.75776e-05)
(7.4718e-05 -5.17481e-07 -3.77446e-20 5.7751e-05 -1.2257e-20 6.62317e-05)
(7.30747e-05 1.15629e-06 -2.26951e-20 5.65962e-05 -8.17675e-21 6.48383e-05)
(7.10586e-05 2.76211e-06 -2.19667e-21 5.57523e-05 4.01859e-21 6.34083e-05)
(6.87894e-05 4.14812e-06 2.59742e-20 5.52121e-05 1.32958e-20 6.19998e-05)
(6.6383e-05 5.24441e-06 2.71025e-20 5.48889e-05 6.87535e-21 6.06338e-05)
(6.39072e-05 6.05594e-06 6.04268e-20 5.46941e-05 7.99736e-21 5.93005e-05)
(6.14321e-05 6.59213e-06 -1.25932e-20 5.45349e-05 -6.70324e-21 5.79824e-05)
(6.90671e-05 -6.42935e-06 -3.29068e-21 5.88599e-05 -1.73526e-21 6.39623e-05)
(6.88101e-05 -5.53723e-06 -2.01313e-20 5.70512e-05 -7.71982e-21 6.29293e-05)
(6.84358e-05 -4.56107e-06 -1.26106e-20 5.54188e-05 -4.71443e-21 6.19236e-05)
(6.79431e-05 -3.36855e-06 -1.07555e-20 5.38401e-05 -3.83422e-21 6.09e-05)
(6.71284e-05 -1.9996e-06 -8.2398e-21 5.23307e-05 -1.59364e-21 5.97221e-05)
(6.6035e-05 -5.55418e-07 2.37574e-20 5.10516e-05 4.47755e-21 5.85415e-05)
(6.46197e-05 9.25736e-07 -1.06251e-19 5.00251e-05 -3.22672e-20 5.7325e-05)
(6.28853e-05 2.35191e-06 7.33811e-21 4.92822e-05 1.42825e-20 5.60864e-05)
(6.09357e-05 3.58808e-06 1.40684e-19 4.88183e-05 3.55014e-20 5.48765e-05)
(5.88707e-05 4.57167e-06 4.18136e-20 4.85559e-05 8.81295e-22 5.37115e-05)
(5.67482e-05 5.30691e-06 -1.05954e-19 4.84164e-05 -3.13856e-20 5.2582e-05)
(5.46338e-05 5.80145e-06 -7.95984e-20 4.832e-05 -1.13844e-20 5.14755e-05)
(5.25731e-05 6.08329e-06 1.55624e-20 4.81982e-05 9.06995e-21 5.03838e-05)
(6.10877e-05 -5.75065e-06 3.62128e-21 5.21955e-05 1.19048e-21 5.66408e-05)
(6.08607e-05 -4.96911e-06 -5.77857e-21 5.05766e-05 -1.54593e-21 5.57172e-05)
(6.05278e-05 -4.11136e-06 2.17413e-20 4.91101e-05 6.15264e-21 5.48155e-05)
(6.00993e-05 -3.06177e-06 -5.4873e-20 4.76944e-05 -2.08259e-20 5.39039e-05)
(5.93995e-05 -1.85345e-06 -4.16085e-20 4.63467e-05 -1.24428e-20 5.28667e-05)
(5.84537e-05 -5.76328e-07 -2.19694e-20 4.52027e-05 -3.74834e-21 5.18269e-05)
(5.72309e-05 7.36589e-07 5.02789e-20 4.42875e-05 2.17774e-20 5.07616e-05)
(5.57318e-05 2.00513e-06 6.54017e-20 4.36291e-05 1.1222e-20 4.96825e-05)
(5.40502e-05 3.10884e-06 -6.9284e-20 4.32272e-05 -2.27366e-20 4.86381e-05)
(5.22698e-05 3.99141e-06 5.636e-20 4.30107e-05 1.35294e-20 4.76389e-05)
(5.04426e-05 4.65646e-06 5.5138e-21 4.29102e-05 6.27434e-21 4.66763e-05)
(4.86252e-05 5.11033e-06 -1.99802e-20 4.28546e-05 3.39144e-21 4.57388e-05)
(4.68595e-05 5.3778e-06 6.75404e-20 4.27849e-05 1.56702e-20 4.48206e-05)
(5.41101e-05 -5.15019e-06 -3.7108e-21 4.63559e-05 -1.54766e-21 5.02323e-05)
(5.39084e-05 -4.46414e-06 -8.00079e-21 4.49034e-05 -2.3374e-21 4.94046e-05)
(5.36152e-05 -3.70962e-06 1.49831e-20 4.35871e-05 6.23419e-21 4.8598e-05)
(5.32409e-05 -2.78414e-06 2.74573e-20 4.23148e-05 1.00514e-20 4.77837e-05)
(5.26385e-05 -1.7155e-06 4.37829e-20 4.1109e-05 1.49291e-20 4.68682e-05)
(5.1818e-05 -5.84623e-07 2.9356e-20 4.00835e-05 1.10224e-20 4.59498e-05)
(5.07575e-05 5.81137e-07 8.67516e-20 3.92645e-05 1.88991e-20 4.50132e-05)
(4.94575e-05 1.71049e-06 -1.30038e-19 3.86781e-05 -3.65471e-20 4.40698e-05)
(4.79998e-05 2.69689e-06 1.14537e-20 3.83254e-05 5.89103e-21 4.31621e-05)
(4.64577e-05 3.48942e-06 -2.45143e-20 3.81436e-05 -3.83726e-21 4.22994e-05)
(4.48768e-05 4.09052e-06 5.00726e-20 3.807e-05 1.09505e-20 4.14731e-05)
(4.33087e-05 4.50602e-06 1.85366e-20 3.80431e-05 2.43086e-21 4.06747e-05)
(4.17892e-05 4.75729e-06 3.76256e-20 3.80088e-05 -3.44703e-23 3.98975e-05)
(4.03171e-05 4.87672e-06 1.73103e-20 3.79361e-05 -1.52746e-22 3.91258e-05)
(4.79928e-05 -4.61738e-06 3.6692e-21 4.12249e-05 1.50959e-21 4.46084e-05)
(4.7814e-05 -4.01462e-06 1.26285e-20 3.9921e-05 3.54393e-21 4.38661e-05)
(4.75559e-05 -3.34966e-06 -2.89373e-20 3.87379e-05 -9.32302e-21 4.31442e-05)
(4.72283e-05 -2.53253e-06 1.10726e-20 3.7593e-05 5.20719e-21 4.24158e-05)
(4.67088e-05 -1.58626e-06 3.58127e-20 3.65125e-05 1.01664e-20 4.1606e-05)
(4.59953e-05 -5.83447e-07 -8.90753e-21 3.55916e-05 -5.27753e-21 4.07927e-05)
(4.50718e-05 4.53219e-07 -4.69111e-20 3.48558e-05 -1.08368e-20 3.99659e-05)
(4.39417e-05 1.46022e-06 1.0275e-19 3.4332e-05 2.769e-20 3.91383e-05)
(4.26739e-05 2.34255e-06 -8.63764e-20 3.40203e-05 -2.26909e-20 3.83466e-05)
(4.13326e-05 3.05394e-06 7.0526e-20 3.3864e-05 1.88645e-20 3.75973e-05)
(3.99595e-05 3.5969e-06 -2.66585e-20 3.38088e-05 -1.22991e-20 3.6884e-05)
(3.85997e-05 3.97622e-06 -2.95447e-20 3.37996e-05 -5.60288e-21 3.61987e-05)
(3.72847e-05 4.21058e-06 -6.47679e-20 3.37875e-05 -1.11059e-20 3.55348e-05)
(3.60143e-05 4.32884e-06 6.71562e-21 3.37454e-05 2.10139e-21 3.4879e-05)
(4.26167e-05 -4.14353e-06 -2.01805e-23 3.67055e-05 -1.01005e-23 3.96609e-05)
(4.246e-05 -3.61361e-06 3.26111e-21 3.55354e-05 7.09533e-22 3.89964e-05)
(4.22323e-05 -3.02689e-06 -1.74273e-20 3.44708e-05 -4.9236e-21 3.8349e-05)
(4.19449e-05 -2.30419e-06 3.18143e-20 3.34389e-05 9.25128e-21 3.76962e-05)
(4.14965e-05 -1.46527e-06 -4.12255e-20 3.24695e-05 -1.17026e-20 3.69791e-05)
(4.08746e-05 -5.74863e-07 5.20014e-20 3.16411e-05 1.68421e-20 3.62573e-05)
(4.00683e-05 3.47954e-07 4.81921e-20 3.09784e-05 1.05335e-20 3.55253e-05)
(3.9083e-05 1.24658e-06 -4.61362e-20 3.05087e-05 -1.48406e-20 3.47973e-05)
(3.79762e-05 2.03637e-06 -5.9112e-21 3.02303e-05 2.91833e-21 3.41028e-05)
(3.68055e-05 2.67544e-06 6.56527e-21 3.00941e-05 -5.27976e-21 3.34489e-05)
(3.56077e-05 3.16573e-06 -3.42813e-20 3.00509e-05 -5.59278e-21 3.28291e-05)
(3.44241e-05 3.51134e-06 4.41517e-20 3.00524e-05 1.00416e-20 3.22373e-05)
(3.32817e-05 3.72868e-06 2.78702e-20 3.00543e-05 9.97028e-21 3.16668e-05)
(3.21812e-05 3.84361e-06 3.86827e-21 3.00327e-05 -4.49445e-21 3.11061e-05)
(3.78828e-05 -3.72149e-06 -6.45626e-22 3.27173e-05 -2.64087e-22 3.53e-05)
(3.77464e-05 -3.25507e-06 2.78131e-21 3.16667e-05 8.1199e-22 3.47053e-05)
(3.75461e-05 -2.7369e-06 -1.04273e-21 3.07083e-05 -8.58048e-22 3.41249e-05)
(3.72935e-05 -2.09704e-06 -1.83655e-20 2.97773e-05 -6.6261e-21 3.35392e-05)
(3.69057e-05 -1.35239e-06 -4.36525e-20 2.89061e-05 -1.28283e-20 3.29026e-05)
(3.63627e-05 -5.6081e-07 -3.03682e-20 2.81599e-05 -8.9896e-21 3.22609e-05)
(3.56566e-05 2.61492e-07 -5.18655e-20 2.75617e-05 -1.42724e-20 3.16108e-05)
(3.47952e-05 1.06439e-06 2.05741e-20 2.71388e-05 6.58092e-21 3.09682e-05)
(3.38268e-05 1.77166e-06 1.01199e-20 2.68891e-05 9.74608e-22 3.03575e-05)
(3.28016e-05 2.34587e-06 -1.05993e-19 2.67683e-05 -2.05123e-20 2.97841e-05)
(3.17529e-05 2.78834e-06 -2.02136e-20 2.67325e-05 9.54655e-22 2.92425e-05)
(3.0718e-05 3.10271e-06 -4.35016e-20 2.6739e-05 -8.26406e-21 2.87276e-05)
(2.97217e-05 3.3034e-06 7.63672e-20 2.67487e-05 1.05442e-20 2.82343e-05)
(2.87648e-05 3.41354e-06 -7.90196e-20 2.67401e-05 -1.22763e-20 2.77518e-05)
(2.78387e-05 3.45144e-06 -3.22142e-20 2.6697e-05 -3.24496e-21 2.72676e-05)
(3.37074e-05 -3.34494e-06 3.83292e-21 2.91914e-05 1.43872e-21 3.14494e-05)
(3.35881e-05 -2.93399e-06 1.328e-20 2.82467e-05 4.32448e-21 3.09162e-05)
(3.34126e-05 -2.47596e-06 2.38595e-20 2.73839e-05 7.37886e-21 3.03961e-05)
(3.31911e-05 -1.90887e-06 2.37301e-20 2.65438e-05 7.25495e-21 2.98708e-05)
(3.2855e-05 -1.24727e-06 3.678e-20 2.57598e-05 1.06052e-20 2.93045e-05)
(3.23801e-05 -5.42779e-07 3.59093e-20 2.50868e-05 6.98046e-21 2.87331e-05)
(3.17613e-05 1.90562e-07 -9.13602e-20 2.45464e-05 -2.38566e-20 2.81554e-05)
(3.10058e-05 9.08418e-07 -4.53822e-20 2.41642e-05 -6.9649e-21 2.7586e-05)
(3.0156e-05 1.54233e-06 6.29409e-20 2.39387e-05 1.55498e-20 2.70469e-05)
(2.92555e-05 2.05836e-06 1.23975e-19 2.38297e-05 3.0472e-20 2.65419e-05)
(2.83344e-05 2.4576e-06 6.02905e-20 2.37983e-05 9.33816e-21 2.60662e-05)
(2.74265e-05 2.74318e-06 -1.08934e-20 2.38066e-05 -2.62139e-21 2.56158e-05)
(2.65541e-05 2.92787e-06 -2.49248e-20 2.38199e-05 -6.16593e-21 2.5186e-05)
(2.57182e-05 3.03228e-06 9.43039e-20 2.38183e-05 1.71342e-20 2.47675e-05)
(2.49122e-05 3.07315e-06 -1.65562e-20 2.37892e-05 -3.68736e-21 2.43504e-05)
(3.00176e-05 -3.00832e-06 3.12051e-21 2.60681e-05 8.23691e-22 2.8043e-05)
(2.99135e-05 -2.64603e-06 -2.62527e-21 2.52183e-05 -1.08425e-21 2.75647e-05)
(2.97607e-05 -2.2409e-06 -9.30503e-21 2.44417e-05 -2.86125e-21 2.70992e-05)
(2.95667e-05 -1.73795e-06 -9.03626e-21 2.36834e-05 -4.34913e-21 2.6628e-05)
(2.92741e-05 -1.1495e-06 -9.86676e-20 2.29763e-05 -2.68276e-20 2.6123e-05)
(2.88588e-05 -5.22124e-07 -1.83806e-20 2.23692e-05 -1.76512e-21 2.56137e-05)
(2.8316e-05 1.32563e-07 4.893e-20 2.18807e-05 1.43017e-20 2.50997e-05)
(2.7652e-05 7.74816e-07 4.27821e-20 2.15343e-05 8.7615e-21 2.45941e-05)
(2.69045e-05 1.34324e-06 -1.01839e-19 2.13296e-05 -2.22034e-20 2.41167e-05)
(2.61113e-05 1.80717e-06 1.59732e-20 2.123e-05 -1.61551e-22 2.36701e-05)
(2.53003e-05 2.16742e-06 -9.73676e-21 2.12013e-05 -1.86302e-21 2.32506e-05)
(2.45015e-05 2.42654e-06 2.20057e-21 2.12093e-05 2.17648e-21 2.28547e-05)
(2.37349e-05 2.59597e-06 -2.9385e-20 2.12229e-05 -2.95881e-21 2.24782e-05)
(2.30024e-05 2.69425e-06 -5.49434e-20 2.12252e-05 -1.24648e-20 2.21132e-05)
(2.22979e-05 2.73639e-06 4.27497e-22 2.12044e-05 3.1096e-22 2.17508e-05)
(2.6752e-05 -2.70704e-06 -8.72956e-22 2.32972e-05 -1.88199e-22 2.50248e-05)
(2.66617e-05 -2.38751e-06 9.01275e-21 2.25327e-05 2.55653e-21 2.45961e-05)
(2.65287e-05 -2.0289e-06 8.56418e-21 2.18333e-05 2.25869e-21 2.41793e-05)
(2.63596e-05 -1.58251e-06 3.01994e-21 2.1149e-05 7.16372e-22 2.37568e-05)
(2.61043e-05 -1.05865e-06 1.24137e-20 2.05105e-05 5.52822e-21 2.33056e-05)
(2.5741e-05 -4.99537e-07 8.05817e-20 1.99626e-05 1.91933e-20 2.28515e-05)
(2.52643e-05 8.53585e-08 -4.6837e-20 1.95206e-05 -1.27826e-20 2.23937e-05)
(2.468e-05 6.60292e-07 3.20524e-20 1.92063e-05 1.18984e-20 2.19439e-05)
(2.40209e-05 1.17028e-06 1.12304e-19 1.90195e-05 2.17117e-20 2.15199e-05)
(2.33209e-05 1.58744e-06 -8.39086e-20 1.89278e-05 -1.7299e-20 2.11238e-05)
(2.26047e-05 1.91237e-06 6.79424e-20 1.89e-05 1.37834e-20 2.07522e-05)
(2.18997e-05 2.14741e-06 4.75937e-20 1.89064e-05 5.59775e-21 2.04023e-05)
(2.12248e-05 2.30255e-06 8.20835e-20 1.89192e-05 1.23764e-20 2.00712e-05)
(2.05809e-05 2.3945e-06 -8.30897e-21 1.89228e-05 -1.39753e-21 1.97514e-05)
(1.99633e-05 2.4367e-06 -3.43218e-20 1.89068e-05 -4.14155e-21 1.94347e-05)
(1.93673e-05 2.43931e-06 -4.06738e-20 1.88634e-05 -3.69658e-21 1.91149e-05)
(2.38583e-05 -2.43708e-06 9.93024e-22 2.08359e-05 -4.30589e-25 2.23474e-05)
(2.37803e-05 -2.15511e-06 -2.26051e-20 2.01477e-05 -5.89631e-21 2.19629e-05)
(2.36646e-05 -1.83751e-06 2.76745e-20 1.95176e-05 7.62554e-21 2.15895e-05)
(2.35174e-05 -1.44109e-06 -8.79011e-21 1.89e-05 -1.64607e-21 2.12109e-05)
(2.32951e-05 -9.74489e-07 7.34199e-20 1.83235e-05 1.81953e-20 2.08077e-05)
(2.29768e-05 -4.75812e-07 -4.87966e-20 1.78285e-05 -1.34314e-20 2.04024e-05)
(2.25578e-05 4.70153e-08 7.68981e-21 1.74282e-05 4.64748e-21 1.99941e-05)
(2.20431e-05 5.62047e-07 1.18492e-19 1.71428e-05 2.14949e-20 1.95936e-05)
(2.14611e-05 1.01983e-06 -1.35471e-19 1.69719e-05 -2.98618e-20 1.92162e-05)
(2.0842e-05 1.39508e-06 5.565e-20 1.68868e-05 1.44375e-20 1.88639e-05)
(2.02082e-05 1.68816e-06 -8.49209e-20 1.68594e-05 -2.07587e-20 1.85337e-05)
(1.95851e-05 1.90118e-06 -1.06497e-19 1.68636e-05 -1.91824e-20 1.82238e-05)
(1.89885e-05 2.04288e-06 -5.50461e-20 1.68736e-05 -9.9679e-21 1.79304e-05)
(1.84206e-05 2.12848e-06 1.99202e-20 1.68769e-05 5.98755e-21 1.76483e-05)
(1.78781e-05 2.17009e-06 5.5215e-20 1.68643e-05 8.05546e-21 1.73709e-05)
(1.73562e-05 2.17676e-06 2.47379e-20 1.68283e-05 5.11214e-21 1.70919e-05)
(2.12235e-05 -1.94597e-06 -7.98757e-21 1.80268e-05 -2.29601e-21 1.96242e-05)
(2.11234e-05 -1.66462e-06 -9.02987e-21 1.74592e-05 -2.34834e-21 1.92899e-05)
(2.09954e-05 -1.31231e-06 -3.45387e-21 1.69016e-05 -1.65798e-21 1.89504e-05)
(2.08019e-05 -8.96488e-07 -5.35357e-20 1.63809e-05 -1.21022e-20 1.85901e-05)
(2.05232e-05 -4.51471e-07 8.64595e-20 1.59336e-05 2.09585e-20 1.82282e-05)
(2.01548e-05 1.61452e-08 -3.56092e-20 1.55711e-05 -1.19272e-20 1.78639e-05)
(1.97009e-05 4.77773e-07 -1.53197e-19 1.53116e-05 -3.28585e-20 1.75069e-05)
(1.91864e-05 8.88764e-07 1.33363e-19 1.51551e-05 3.34227e-20 1.71705e-05)
(1.86381e-05 1.22643e-06 1.90519e-20 1.50758e-05 3.32877e-22 1.68566e-05)
(1.80764e-05 1.49078e-06 4.13297e-20 1.50484e-05 1.34632e-20 1.65623e-05)
(1.75239e-05 1.68382e-06 4.86885e-20 1.50499e-05 1.07291e-20 1.62864e-05)
(1.6996e-05 1.81319e-06 -4.66761e-21 1.50575e-05 2.74498e-21 1.60261e-05)
(1.64944e-05 1.8925e-06 1.08115e-20 1.50594e-05 -6.11542e-22 1.57765e-05)
(1.60161e-05 1.93285e-06 -5.70747e-20 1.5048e-05 -9.30533e-21 1.55318e-05)
(1.55574e-05 1.94241e-06 3.1119e-20 1.5017e-05 3.30196e-21 1.52869e-05)
(1.51083e-05 1.92749e-06 -5.85791e-20 1.4963e-05 -8.58226e-21 1.50356e-05)
(1.89522e-05 -1.7576e-06 -5.73713e-21 1.61384e-05 -1.29949e-21 1.75444e-05)
(1.88662e-05 -1.50829e-06 1.46991e-20 1.56274e-05 3.2546e-21 1.72455e-05)
(1.87551e-05 -1.19507e-06 -4.39494e-20 1.51238e-05 -1.10592e-20 1.69411e-05)
(1.85867e-05 -8.24263e-07 1.1501e-20 1.46534e-05 2.32311e-21 1.6619e-05)
(1.83429e-05 -4.26953e-07 -8.25946e-20 1.42494e-05 -1.98403e-20 1.62959e-05)
(1.80189e-05 -8.49153e-09 1.89493e-20 1.3921e-05 5.2731e-21 1.59708e-05)
(1.76184e-05 4.0545e-07 5.52259e-21 1.3685e-05 3.42465e-21 1.56522e-05)
(1.71634e-05 7.74657e-07 -6.9232e-21 1.35417e-05 -4.67336e-21 1.53522e-05)
(1.66773e-05 1.07856e-06 -1.96261e-20 1.34676e-05 -2.03588e-21 1.50721e-05)
(1.61788e-05 1.31704e-06 1.07003e-19 1.34403e-05 1.79203e-20 1.48094e-05)
(1.56884e-05 1.49185e-06 -1.2623e-20 1.34391e-05 -4.48026e-21 1.45633e-05)
(1.52203e-05 1.60976e-06 9.56124e-20 1.34438e-05 1.34143e-20 1.43315e-05)
(1.47759e-05 1.68309e-06 -3.03694e-20 1.3444e-05 -5.57101e-21 1.41096e-05)
(1.43536e-05 1.72182e-06 3.37436e-20 1.34331e-05 7.25831e-21 1.3893e-05)
(1.39496e-05 1.73339e-06 -2.69537e-20 1.34056e-05 -5.15822e-21 1.36774e-05)
(1.35555e-05 1.72351e-06 4.4496e-20 1.33587e-05 8.75921e-21 1.3457e-05)
(1.69325e-05 -1.58781e-06 -2.82419e-20 1.44554e-05 -7.11666e-21 1.56931e-05)
(1.68588e-05 -1.36679e-06 -3.53038e-21 1.39951e-05 1.62241e-22 1.54259e-05)
(1.67629e-05 -1.08824e-06 7.13205e-20 1.35406e-05 1.74782e-20 1.51532e-05)
(1.66166e-05 -7.57468e-07 6.171e-22 1.31156e-05 -1.2817e-22 1.48653e-05)
(1.64035e-05 -4.02542e-07 5.16792e-20 1.27507e-05 1.16784e-20 1.4577e-05)
(1.61188e-05 -2.79269e-08 -6.02109e-20 1.24534e-05 -1.43929e-20 1.42868e-05)
(1.57655e-05 3.43358e-07 8.27272e-21 1.2239e-05 3.02397e-21 1.40027e-05)
(1.53625e-05 6.75159e-07 -2.45643e-20 1.21074e-05 -3.44153e-21 1.37348e-05)
(1.49312e-05 9.48715e-07 2.12265e-20 1.20382e-05 2.83929e-21 1.34844e-05)
(1.44886e-05 1.16388e-06 -5.68598e-20 1.20111e-05 -1.56894e-20 1.32497e-05)
(1.40526e-05 1.32217e-06 -3.01528e-20 1.20074e-05 -2.56369e-21 1.30296e-05)
(1.36369e-05 1.4296e-06 -1.06902e-19 1.20095e-05 -1.80209e-20 1.28227e-05)
(1.32431e-05 1.49727e-06 3.05999e-20 1.20081e-05 7.31905e-21 1.26253e-05)
(1.28693e-05 1.53412e-06 1.47505e-20 1.1997e-05 9.66897e-22 1.24329e-05)
(1.25129e-05 1.54701e-06 -1.11932e-20 1.19721e-05 -1.7848e-22 1.22422e-05)
(1.21667e-05 1.54113e-06 -1.36606e-20 1.1931e-05 -1.8346e-21 1.20488e-05)
(1.51348e-05 -1.43466e-06 2.02984e-20 1.29538e-05 5.34973e-21 1.40436e-05)
(1.5072e-05 -1.23869e-06 3.35387e-20 1.25393e-05 7.72491e-21 1.38047e-05)
(1.49894e-05 -9.90891e-07 -3.01302e-20 1.21292e-05 -8.57671e-21 1.35606e-05)
(1.48628e-05 -6.95754e-07 -7.99502e-20 1.17454e-05 -1.77898e-20 1.33034e-05)
(1.46767e-05 -3.78576e-07 7.1502e-21 1.14159e-05 1.59188e-21 1.30462e-05)
(1.44267e-05 -4.3064e-08 -1.63897e-20 1.11468e-05 -2.44188e-21 1.27874e-05)
(1.41151e-05 2.90146e-07 5.02684e-20 1.0952e-05 1.15721e-20 1.2534e-05)
(1.37583e-05 5.88413e-07 6.94527e-20 1.08315e-05 1.23524e-20 1.22947e-05)
(1.33756e-05 8.3473e-07 -4.44641e-20 1.0767e-05 -8.56321e-21 1.20711e-05)
(1.29821e-05 1.02891e-06 -6.68385e-20 1.07403e-05 -8.56758e-21 1.18611e-05)
(1.25945e-05 1.17221e-06 1.3034e-19 1.07346e-05 2.26528e-20 1.16641e-05)
(1.2225e-05 1.27001e-06 6.66144e-20 1.07343e-05 1.2346e-20 1.14792e-05)
(1.18751e-05 1.33231e-06 -1.94884e-20 1.0731e-05 -6.204e-21 1.13028e-05)
(1.15441e-05 1.36724e-06 7.83448e-21 1.072e-05 8.44187e-22 1.11317e-05)
(1.12294e-05 1.3809e-06 5.68428e-20 1.0697e-05 8.99552e-21 1.09629e-05)
(1.09244e-05 1.37811e-06 5.01722e-20 1.06604e-05 7.18112e-21 1.07923e-05)
(1.06231e-05 1.36168e-06 7.73005e-21 1.06075e-05 6.98759e-22 1.06152e-05)
(1.35332e-05 -1.2964e-06 -4.8624e-21 1.16129e-05 -1.41864e-21 1.25724e-05)
(1.348e-05 -1.12262e-06 -3.7838e-20 1.12397e-05 -8.90297e-21 1.2359e-05)
(1.34094e-05 -9.02128e-07 5.6064e-21 1.08698e-05 2.85054e-21 1.21407e-05)
(1.33002e-05 -6.38689e-07 1.21748e-19 1.05234e-05 2.65436e-20 1.19112e-05)
(1.3138e-05 -3.55131e-07 -9.22497e-20 1.02259e-05 -2.11046e-20 1.16818e-05)
(1.29188e-05 -5.45725e-08 8.23954e-21 9.9827e-06 2.64373e-21 1.14513e-05)
(1.2644e-05 2.44523e-07 -4.17545e-21 9.80578e-06 -1.16598e-21 1.12252e-05)
(1.23283e-05 5.12726e-07 -4.57446e-20 9.69571e-06 -7.35845e-21 1.10118e-05)
(1.19887e-05 7.34562e-07 1.26603e-19 9.63572e-06 2.22998e-20 1.0812e-05)
(1.16389e-05 9.0988e-07 7.57346e-21 9.60961e-06 -2.60804e-21 1.06241e-05)
(1.12941e-05 1.03959e-06 -1.26138e-19 9.60233e-06 -2.37533e-20 1.04478e-05)
(1.09654e-05 1.12864e-06 3.25818e-20 9.60014e-06 4.59526e-21 1.02824e-05)
(1.06547e-05 1.18592e-06 -5.95943e-20 9.59555e-06 -9.59795e-21 1.01249e-05)
(1.03611e-05 1.21883e-06 -5.50539e-20 9.58419e-06 -8.99343e-21 9.97244e-06)
(1.00827e-05 1.23288e-06 -2.55573e-20 9.56276e-06 -4.39869e-21 9.82251e-06)
(9.81378e-06 1.2325e-06 9.2633e-21 9.52989e-06 5.63333e-22 9.67179e-06)
(9.5493e-06 1.22026e-06 7.0475e-21 9.48348e-06 5.79065e-22 9.51626e-06)
(1.21054e-05 -1.17156e-06 -1.3454e-20 1.04146e-05 -2.90675e-21 1.12593e-05)
(1.20605e-05 -1.01741e-06 2.43074e-20 1.00785e-05 5.879e-21 1.10687e-05)
(1.20006e-05 -8.21185e-07 1.69202e-20 9.74504e-06 2.27773e-21 1.08738e-05)
(1.19068e-05 -5.86016e-07 -1.32437e-19 9.43256e-06 -2.87196e-20 1.06692e-05)
(1.17658e-05 -3.32472e-07 9.59248e-20 9.16429e-06 2.21255e-20 1.0465e-05)
(1.15738e-05 -6.31086e-08 -3.43951e-20 8.94449e-06 -6.39686e-21 1.02596e-05)
(1.13319e-05 2.05497e-07 1.07978e-19 8.78421e-06 2.18232e-20 1.00583e-05)
(1.10526e-05 4.46739e-07 7.63226e-20 8.68377e-06 1.14047e-20 9.86802e-06)
(1.07514e-05 6.46602e-07 -1.90197e-19 8.62832e-06 -3.6884e-20 9.68966e-06)
(1.04405e-05 8.04865e-07 -8.74065e-20 8.60308e-06 -1.28647e-20 9.52169e-06)
(1.01338e-05 9.22315e-07 3.65078e-20 8.59479e-06 9.39693e-21 9.36397e-06)
(9.84139e-06 1.00335e-06 -1.39092e-20 8.59108e-06 -3.12147e-21 9.2159e-06)
(9.5651e-06 1.05597e-06 4.33546e-20 8.58529e-06 9.24168e-21 9.07494e-06)
(9.30475e-06 1.0869e-06 -3.41811e-20 8.57404e-06 -4.2178e-21 8.93918e-06)
(9.05857e-06 1.10108e-06 -1.15879e-20 8.55417e-06 -1.61154e-21 8.80618e-06)
(8.82137e-06 1.10253e-06 -7.66266e-21 8.52443e-06 -2.15411e-22 8.67282e-06)
(8.58877e-06 1.09366e-06 -7.46734e-21 8.48341e-06 -1.49313e-21 8.53601e-06)
(1.08315e-05 -1.05875e-06 1.16724e-21 9.34273e-06 5.11636e-22 1.00865e-05)
(1.07939e-05 -9.22028e-07 2.83818e-20 9.04018e-06 6.20767e-21 9.91637e-06)
(1.07434e-05 -7.47357e-07 -3.13458e-20 8.73967e-06 -6.57998e-21 9.74236e-06)
(1.06633e-05 -5.37387e-07 7.15355e-20 8.45811e-06 1.58253e-20 9.56027e-06)
(1.05412e-05 -3.10592e-07 -3.69082e-20 8.21636e-06 -8.37712e-21 9.37868e-06)
(1.03734e-05 -6.9134e-08 5.61597e-20 8.01805e-06 1.09285e-20 9.19616e-06)
(1.01607e-05 1.72126e-07 -1.02152e-19 7.87303e-06 -2.27563e-20 9.01711e-06)
(9.91406e-06 3.89168e-07 -1.11446e-20 7.78173e-06 -1.8244e-21 8.8477e-06)
(9.64701e-06 5.69308e-07 1.58442e-19 7.73067e-06 3.31575e-20 8.68866e-06)
(9.37074e-06 7.12189e-07 -8.67443e-21 7.70654e-06 5.26428e-24 8.53855e-06)
(9.09807e-06 8.18563e-07 -2.3247e-20 7.69767e-06 -3.73178e-21 8.39756e-06)
(8.83798e-06 8.9232e-07 -6.60646e-21 7.69296e-06 3.64978e-22 8.26518e-06)
(8.59256e-06 9.4063e-07 5.72062e-20 7.68653e-06 9.13738e-21 8.13933e-06)
(8.36151e-06 9.69585e-07 3.40892e-20 7.67533e-06 5.36544e-21 8.01825e-06)
(8.14354e-06 9.83674e-07 -3.59176e-20 7.65684e-06 -5.84062e-21 7.90003e-06)
(7.93432e-06 9.86533e-07 5.43604e-20 7.63005e-06 8.48626e-21 7.78211e-06)
(7.72972e-06 9.80388e-07 9.41335e-21 7.59374e-06 1.14524e-21 7.66165e-06)
(7.52522e-06 9.66531e-07 -4.6062e-20 7.54633e-06 -5.78594e-21 7.53573e-06)
(9.69397e-06 -9.56766e-07 -3.4233e-21 8.38329e-06 -1.08083e-21 9.0381e-06)
(9.66292e-06 -8.35508e-07 -4.35653e-20 8.11111e-06 -9.5148e-21 8.88644e-06)
(9.62069e-06 -6.80009e-07 1.01376e-20 7.8404e-06 2.61031e-21 8.73128e-06)
(9.55285e-06 -4.92525e-07 7.17208e-21 7.58694e-06 7.85119e-22 8.56955e-06)
(9.44753e-06 -2.89628e-07 -4.48276e-20 7.36937e-06 -9.197e-21 8.40838e-06)
(9.30119e-06 -7.31322e-08 -4.60103e-20 7.19062e-06 -8.97223e-21 8.24631e-06)
(9.11453e-06 1.43631e-07 -4.91798e-20 7.0597e-06 -9.87521e-21 8.08736e-06)
(8.89707e-06 3.38968e-07 -1.17522e-19 6.97702e-06 -2.05945e-20 7.93689e-06)
(8.66058e-06 5.01357e-07 5.74793e-20 6.93029e-06 9.7781e-21 7.79528e-06)
(8.41545e-06 6.30408e-07 1.15702e-19 6.90767e-06 1.84726e-20 7.66146e-06)
(8.17311e-06 7.26796e-07 4.14397e-20 6.89865e-06 5.32049e-21 7.53559e-06)
(7.94184e-06 7.93901e-07 5.26498e-21 6.89325e-06 1.42777e-22 7.41726e-06)
(7.72384e-06 8.38255e-07 1.90459e-20 6.88654e-06 1.13679e-21 7.305e-06)
(7.5189e-06 8.65304e-07 3.31597e-20 6.87567e-06 4.10965e-21 7.19711e-06)