/*--------------------------------*- C++ -*----------------------------------*\
| =========                 |                                                 |
| \\      /  F ield         | OpenFOAM: The Open Source CFD Toolbox           |
|  \\    /   O peration     | Version:  2306                                  |
|   \\  /    A nd           | Website:  www.openfoam.com                      |
|    \\/     M anipulation  |                                                 |
\*---------------------------------------------------------------------------*/
FoamFile
{
    version     2.0;
    format      ascii;
    arch        "LSB;label=32;scalar=64";
    class       volScalarField;
    location    "425";
    object      turbulenceProperties:k;
}
// * * * * * * * * * * * * * * * * * * * * * * * * * * * * * * * * * * * * * //

dimensions      [0 2 -2 0 0 0 0];

internalField   nonuniform List<scalar> 
1340
(
0.0199781
0.0232532
0.0274179
0.0330499
0.0396728
0.0480532
0.0587086
0.0718506
0.0885051
0.109757
0.137256
0.17364
0.222542
0.289909
0.385877
0.526365
0.742768
1.07626
1.66179
2.57323
4.6275
7.73427
18.1067
35.342
39.1634
37.4703
36.8254
37.5018
38.3345
38.5429
38.0312
36.8954
35.0604
32.5501
29.3091
0.0170386
0.0146483
0.011955
0.00963848
0.00744357
0.00545905
0.00385212
0.00310761
0.00309043
0.0030551
0.00296698
0.00283057
0.00267373
0.0024886
0.00228038
0.00207426
0.0018721
0.00167936
0.00154523
0.00152589
0.00167372
0.00216394
0.00336942
0.00632356
0.0130705
0.0313536
0.076679
0.227177
0.627112
1.92709
6.17277
12.0696
18.1611
23.9062
27.983
28.7977
26.4226
22.518
18.5654
15.3597
12.9028
11.0154
0.00307934
0.00303751
0.00295211
0.00282555
0.00265253
0.00242442
0.00208395
0.00206749
0.00202087
0.0019496
0.00187506
0.00179316
0.00171036
0.0016359
0.00157187
0.0015222
0.00148378
0.00146172
0.00145573
0.00146825
0.00147288
0.00142749
0.00121356
0.00102767
1.8705e-05
0.00145242
0.000327994
0.00124939
4.51852e-05
0.016827
0.183752
0.652352
1.65158
3.72694
7.344
12.1184
16.4362
18.5587
18.1416
16.2885
14.1316
0.00210019
0.00209761
0.00209204
0.00205481
0.00198873
0.00187779
0.00175895
0.00176259
0.00175373
0.00173914
0.00170901
0.00166416
0.00160825
0.00153845
0.00145868
0.00137045
0.00127564
0.00117557
0.00107121
0.000964481
0.000856297
0.000742623
0.000628484
0.000530987
0.000406741
0.000292894
6.86338e-05
0.000125273
1.59911e-05
0.00427878
0.0217005
0.0449102
0.0252336
0.0120033
0.0384036
0.36686
1.59497
4.33792
8.12704
11.2771
12.6338
0.00174008
0.00171149
0.00166662
0.00161258
0.00154482
0.0013196
0.00131727
0.00130698
0.00128864
0.00126026
0.00122178
0.00117527
0.00112144
0.00106205
0.00100073
0.000939448
0.000880675
0.000827033
0.000780147
0.000741158
0.000708374
0.000673883
0.000630156
0.000580609
0.00050737
0.000424167
0.000195599
2.38702e-05
4.79534e-06
0
0
0.00912795
0.0113457
0.0244859
0.0779082
0.0160819
0.0534462
0.332735
1.94792
5.00208
0.00131619
0.00130687
0.00128834
0.00125865
0.0012168
0.00108163
0.00108624
0.00108581
0.00108193
0.0010713
0.00105408
0.00103101
0.00100118
0.000965219
0.000924085
0.000878138
0.000828461
0.00077623
0.00072237
0.000667839
0.000611316
0.000549726
0.000486518
0.000426915
0.000375257
0.00034124
0.000290226
0.000236247
6.16993e-05
1.06819e-05
4.99686e-06
1.7373e-06
0
0
0
0.00379202
0.0371446
0.00633742
0.0901476
0.197511
0.00107183
0.00105829
0.00103858
0.00101258
0.000874972
0.000878815
0.000879428
0.000877203
0.000870215
0.000858116
0.000841195
0.000818954
0.000791589
0.000759855
0.000724294
0.000685798
0.000645552
0.000604702
0.000564202
0.000525405
0.000490231
0.000457473
0.000423997
0.000388666
0.000355459
0.000328315
0.000308512
0.000255941
0.000167673
8.83847e-05
2.60743e-05
5.88981e-06
3.28535e-06
4.14805e-07
0
0
0.000804423
0.0284299
0.0210693
0.000867788
0.000858058
0.000843905
0.000824415
0.0007252
0.00073015
0.00073309
0.000734275
0.000732264
0.000726772
0.000718018
0.000705357
0.000688787
0.000668662
0.000644951
0.000618115
0.000588682
0.000557133
0.00052403
0.000490051
0.000454767
0.000417268
0.000379309
0.000343295
0.000311283
0.000286246
0.000268865
0.000256507
0.000231816
0.000194108
0.000148845
9.96412e-05
5.98623e-05
6.54602e-06
3.09442e-06
1.3336e-07
0
0
0.003201
0.000717762
0.000708798
0.000696782
0.000680834
0.000604942
0.00060971
0.000613183
0.000615352
0.000615273
0.000612633
0.000607494
0.000599287
0.000587941
0.000573561
0.0005561
0.000535805
0.000513034
0.000488153
0.000461703
0.000434109
0.000406
0.000378469
0.000351615
0.000325413
0.000300244
0.00027724
0.000257377
0.000240417
0.000222241
0.000199633
0.000175545
0.00015155
0.000127926
9.27922e-05
6.02754e-05
2.67924e-06
1.66982e-06
0
0
0.000598408
0.000590844
0.00058107
0.000522973
0.00052261
0.000520431
0.000515952
0.000509101
0.000499872
0.000488114
0.000473943
0.000457526
0.000439046
0.000418796
0.000397067
0.000374311
0.000350489
0.000325766
0.000301207
0.000278095
0.000257369
0.000239241
0.000222314
0.000204132
0.000183406
0.000162192
0.00014363
0.000129225
0.000117486
0.000105781
7.73004e-05
3.32508e-05
2.90353e-06
0
0.000447079
0.00044483
0.000440704
0.000434675
0.000426557
0.000416379
0.000404203
0.000390104
0.000374293
0.000357003
0.000338495
0.000319189
0.000299521
0.000279883
0.000260905
0.000243078
0.000226594
0.000210603
0.000193316
0.000173776
0.00015332
0.000134846
0.00012005
0.000109302
0.00010131
9.66043e-05
8.50171e-05
4.99481e-05
3.25128e-06
0.00038348
0.000379861
0.000374562
0.000367566
0.000358865
0.00034848
0.00033651
0.000323094
0.000308434
0.000292832
0.000276398
0.000259494
0.000242869
0.000227087
0.00021228
0.000197804
0.000182301
0.000164943
0.000146596
0.000129392
0.000114838
0.000103158
9.36438e-05
8.74481e-05
8.45227e-05
8.15466e-05
5.28134e-05
0.000332569
0.00032923
0.000324496
0.00031832
0.000310669
0.000301599
0.000291193
0.000279567
0.00026698
0.000253625
0.000239756
0.000225827
0.000212256
0.000199134
0.000186046
0.000172072
0.00015661
0.00014029
0.000124743
0.000111251
9.99276e-05
9.02544e-05
8.21955e-05
7.6571e-05
7.44302e-05
7.81768e-05
0.000290059
0.000287006
0.000282762
0.000277277
0.000270552
0.000262623
0.000253552
0.000243537
0.000232707
0.000221211
0.00020939
0.00019766
0.000186103
0.000174429
0.000161977
0.00014829
0.000133828
0.000119877
0.000107554
9.70325e-05
8.79437e-05
8.00078e-05
7.33418e-05
6.84015e-05
6.73447e-05
0.000255968
0.000254151
0.000251343
0.000247488
0.000242557
0.000236567
0.000229554
0.000221626
0.000212927
0.000203554
0.000193689
0.000183692
0.000173636
0.000163318
0.000152288
0.00014021
0.000127416
0.00011491
0.000103659
9.39202e-05
8.54529e-05
7.80863e-05
7.16259e-05
6.67811e-05
6.0129e-05
0.000225361
0.000223622
0.000221005
0.000217491
0.000213054
0.00020771
0.000201509
0.000194588
0.000186981
0.000178789
0.000170306
0.000161618
0.000152588
0.000142894
0.000132294
0.00012103
0.000109879
9.96533e-05
9.06573e-05
8.27589e-05
7.58853e-05
6.98304e-05
6.53516e-05
5.94958e-05
0.000199114
0.000197444
0.000195014
0.000191793
0.000187776
0.000182984
0.000177523
0.000171411
0.000164686
0.00015756
0.000150125
0.000142298
0.000133847
0.000124592
0.000114718
0.000104823
9.55807e-05
8.73105e-05
7.99666e-05
7.35132e-05
6.78743e-05
6.33168e-05
5.97736e-05
0.000177447
0.000176477
0.000174875
0.000172603
0.000169647
0.000166001
0.000161739
0.000156874
0.000151408
0.000145466
0.00013916
0.000132441
0.00012513
0.0001171
0.000108487
9.97538e-05
9.14521e-05
8.38948e-05
7.71058e-05
7.10608e-05
6.58088e-05
6.122e-05
5.86028e-05
0.000157798
0.000156828
0.000155293
0.000153173
0.000150455
0.000147172
0.000143341
0.000138944
0.000134036
0.00012874
0.000123026
0.000116755
0.000109829
0.000102354
9.46873e-05
8.72768e-05
8.0415e-05
7.41744e-05
6.85514e-05
6.36359e-05
5.92595e-05
5.64486e-05
0.000141173
0.000140675
0.000139707
0.000138242
0.000136261
0.000133766
0.000130789
0.000127294
0.000123286
0.000118878
0.000114061
0.000108726
0.000102793
9.63429e-05
8.96495e-05
8.30745e-05
7.68837e-05
7.11775e-05
6.5983e-05
6.13733e-05
5.73239e-05
5.41391e-05
0.000126201
0.000125664
0.000124706
0.000123307
0.000121456
0.000119184
0.000116443
0.000113209
0.000109578
0.000105556
0.000101055
9.60073e-05
9.04737e-05
8.46633e-05
7.88657e-05
7.3316e-05
6.81282e-05
6.33566e-05
5.90482e-05
5.53046e-05
5.19905e-05
0.000113237
0.000113022
0.000112457
0.00011152
0.000110186
0.000108483
0.000106361
0.000103786
0.000100829
9.75024e-05
9.37404e-05
8.94799e-05
8.47626e-05
7.97494e-05
7.46699e-05
6.97268e-05
6.50391e-05
6.06776e-05
5.66797e-05
5.31879e-05
4.997e-05
0.00010165
0.000101382
0.000100801
9.98787e-05
9.86312e-05
9.70203e-05
9.50043e-05
9.26245e-05
8.99031e-05
8.67881e-05
8.32199e-05
7.92252e-05
7.49272e-05
7.05059e-05
6.61327e-05
6.19228e-05
5.79552e-05
5.427e-05
5.0999e-05
4.79711e-05
9.14157e-05
9.13727e-05
9.10647e-05
9.04687e-05
8.95881e-05
8.83935e-05
8.68454e-05
8.49559e-05
8.27556e-05
8.02001e-05
7.72356e-05
7.38767e-05
7.02165e-05
6.63928e-05
6.25498e-05
5.87931e-05
5.52039e-05
5.18252e-05
4.87668e-05
4.59332e-05
8.22109e-05
8.23325e-05
8.22331e-05
8.18915e-05
8.13006e-05
8.04448e-05
7.92798e-05
7.78012e-05
7.60431e-05
7.39715e-05
7.15324e-05
6.87304e-05
6.56346e-05
6.23506e-05
5.8995e-05
5.56642e-05
5.24352e-05
4.9353e-05
4.65086e-05
4.38502e-05
7.41708e-05
7.42276e-05
7.40809e-05
7.37183e-05
7.31326e-05
7.22831e-05
7.11485e-05
6.97657e-05
6.81049e-05
6.61158e-05
6.37958e-05
6.11954e-05
5.83949e-05
5.54853e-05
5.25503e-05
4.96615e-05
4.68645e-05
4.42301e-05
4.17363e-05
6.68053e-05
6.69762e-05
6.69766e-05
6.6793e-05
6.64211e-05
6.58247e-05
6.49765e-05
6.39064e-05
6.25923e-05
6.09871e-05
5.90829e-05
5.69148e-05
5.45425e-05
5.20369e-05
4.9467e-05
4.68966e-05
4.43703e-05
4.19453e-05
3.96071e-05
6.01598e-05
6.04104e-05
6.05209e-05
6.04751e-05
6.02715e-05
5.98761e-05
5.9262e-05
5.84498e-05
5.74254e-05
5.6146e-05
5.45973e-05
5.28041e-05
5.08086e-05
4.86645e-05
4.6429e-05
4.41556e-05
4.18822e-05
3.9662e-05
3.74781e-05
5.44716e-05
5.46611e-05
5.47191e-05
5.46439e-05
5.44074e-05
5.39814e-05
5.33828e-05
5.25979e-05
5.15894e-05
5.03422e-05
4.88711e-05
4.7205e-05
4.53828e-05
4.34493e-05
4.14498e-05
3.94162e-05
3.73891e-05
3.53609e-05
4.91015e-05
4.93457e-05
4.94795e-05
4.95017e-05
4.93884e-05
4.9113e-05
4.86864e-05
4.8098e-05
4.73152e-05
4.63216e-05
4.51245e-05
4.37431e-05
4.22047e-05
4.05427e-05
3.87925e-05
3.69816e-05
3.51412e-05
3.32639e-05
4.42474e-05
4.45265e-05
4.47144e-05
4.48086e-05
4.47894e-05
4.46329e-05
4.4344e-05
4.39145e-05
4.33169e-05
4.25349e-05
4.15692e-05
4.04321e-05
3.91414e-05
3.77208e-05
3.61975e-05
3.45916e-05
3.29278e-05
3.11981e-05
4.01608e-05
4.03857e-05
4.05312e-05
4.05823e-05
4.05168e-05
4.03363e-05
4.00341e-05
3.95874e-05
3.89795e-05
3.82082e-05
3.72791e-05
3.62027e-05
3.49949e-05
3.3675e-05
3.2258e-05
3.07598e-05
2.91739e-05
3.62095e-05
3.64564e-05
3.66365e-05
3.67384e-05
3.67422e-05
3.66454e-05
3.64438e-05
3.61178e-05
3.56523e-05
3.50423e-05
3.42886e-05
3.33964e-05
3.23749e-05
3.12366e-05
2.99909e-05
2.86483e-05
2.72003e-05
3.26328e-05
3.28912e-05
3.30934e-05
3.32308e-05
3.32855e-05
3.32522e-05
3.31291e-05
3.28998e-05
3.25493e-05
3.20714e-05
3.14644e-05
3.0729e-05
2.98688e-05
2.8891e-05
2.78004e-05
2.66019e-05
2.96602e-05
2.98742e-05
3.00345e-05
3.0125e-05
3.01392e-05
3.00761e-05
2.99219e-05
2.96632e-05
2.92931e-05
2.88076e-05
2.82044e-05
2.74831e-05
2.66462e-05
2.5695e-05
2.46293e-05
2.67332e-05
2.69515e-05
2.7125e-05
2.72397e-05
2.7288e-05
2.72696e-05
2.71732e-05
2.69871e-05
2.6704e-05
2.63183e-05
2.58256e-05
2.52229e-05
2.45089e-05
2.36817e-05
2.2738e-05
2.40837e-05
2.43004e-05
2.44796e-05
2.46088e-05
2.46808e-05
2.46952e-05
2.46424e-05
2.45128e-05
2.42989e-05
2.39944e-05
2.35934e-05
2.30912e-05
2.24838e-05
2.17666e-05
2.09339e-05
2.1687e-05
2.18983e-05
2.20773e-05
2.22136e-05
2.23007e-05
2.23377e-05
2.23174e-05
2.22311e-05
2.20717e-05
2.18327e-05
2.15074e-05
2.10898e-05
2.0574e-05
1.99538e-05
1.92216e-05
1.95204e-05
1.97228e-05
1.98974e-05
2.00356e-05
2.01313e-05
2.01835e-05
2.01864e-05
2.01326e-05
2.00157e-05
1.98289e-05
1.95656e-05
1.92187e-05
1.87814e-05
1.82462e-05
1.76045e-05
1.77543e-05
1.79218e-05
1.8058e-05
1.81573e-05
1.82185e-05
1.82372e-05
1.82074e-05
1.81232e-05
1.79779e-05
1.77647e-05
1.74767e-05
1.71063e-05
1.66454e-05
1.60846e-05
1.59749e-05
1.61332e-05
1.62642e-05
1.6363e-05
1.64288e-05
1.64581e-05
1.64456e-05
1.6386e-05
1.62732e-05
1.61007e-05
1.58614e-05
1.55477e-05
1.51513e-05
1.46627e-05
1.43672e-05
1.4515e-05
1.46391e-05
1.4735e-05
1.48021e-05
1.48375e-05
1.48369e-05
1.47955e-05
1.47081e-05
1.45683e-05
1.43691e-05
1.41034e-05
1.37628e-05
1.33381e-05
1.29162e-05
1.30529e-05
1.31686e-05
1.32597e-05
1.33254e-05
1.33638e-05
1.33711e-05
1.33432e-05
1.32753e-05
1.31616e-05
1.29955e-05
1.27702e-05
1.24778e-05
1.21095e-05
1.16074e-05
1.17327e-05
1.18395e-05
1.19246e-05
1.19873e-05
1.20263e-05
1.20385e-05
1.20202e-05
1.19672e-05
1.18743e-05
1.17354e-05
1.15441e-05
1.12933e-05
1.09744e-05
1.05418e-05
1.06395e-05
1.07179e-05
1.07766e-05
1.08145e-05
1.08292e-05
1.08176e-05
1.0776e-05
1.06996e-05
1.0583e-05
1.04204e-05
1.02051e-05
9.92964e-06
9.46864e-06
9.55714e-06
9.62854e-06
9.68245e-06
9.71825e-06
9.73398e-06
9.72696e-06
9.69385e-06
9.6305e-06
9.53217e-06
9.39372e-06
9.20904e-06
8.50241e-06
8.58196e-06
8.64626e-06
8.69518e-06
8.72822e-06
8.74381e-06
8.7397e-06
8.71297e-06
8.66001e-06
8.57674e-06
8.4585e-06
8.29996e-06
7.63298e-06
7.70411e-06
7.7616e-06
7.80541e-06
7.8353e-06
7.85005e-06
7.84771e-06
7.82573e-06
7.78105e-06
7.71015e-06
7.60895e-06
7.47276e-06
6.85138e-06
6.91464e-06
6.96566e-06
7.00446e-06
7.03109e-06
7.0445e-06
7.04309e-06
7.02467e-06
6.98663e-06
6.92594e-06
6.8391e-06
6.72202e-06
6.20522e-06
6.2502e-06
6.28431e-06
6.30766e-06
6.31949e-06
6.31844e-06
6.3027e-06
6.27e-06
6.21776e-06
6.14302e-06
6.0423e-06
5.56824e-06
5.60767e-06
5.63739e-06
5.65762e-06
5.6678e-06
5.6668e-06
5.65305e-06
5.62467e-06
5.57947e-06
5.51493e-06
5.42814e-06
4.99675e-06
5.03111e-06
5.05682e-06
5.07415e-06
5.0827e-06
5.0815e-06
5.06925e-06
5.0444e-06
5.0051e-06
4.94923e-06
4.87432e-06
4.48435e-06
4.51415e-06
4.53621e-06
4.55088e-06
4.55786e-06
4.55635e-06
4.54527e-06
4.52333e-06
4.48899e-06
4.44049e-06
4.37574e-06
4.02516e-06
4.05086e-06
4.06969e-06
4.08198e-06
4.08751e-06
4.08566e-06
4.0755e-06
4.05598e-06
4.02583e-06
3.98357e-06
3.92749e-06
3.61389e-06
3.63599e-06
3.65195e-06
3.66211e-06
3.66632e-06
3.6641e-06
3.6547e-06
3.63721e-06
3.61061e-06
3.57369e-06
3.24573e-06
3.26467e-06
3.27809e-06
3.28639e-06
3.28945e-06
3.28688e-06
3.27808e-06
3.26232e-06
3.23874e-06
3.20637e-06
2.93254e-06
2.94375e-06
2.95041e-06
2.95248e-06
2.94959e-06
2.94129e-06
2.92699e-06
2.90599e-06
2.87749e-06
2.63565e-06
2.64493e-06
2.65017e-06
2.65135e-06
2.6482e-06
2.64033e-06
2.62728e-06
2.60848e-06
2.58329e-06
2.37013e-06
2.37777e-06
2.38181e-06
2.38227e-06
2.37892e-06
2.37146e-06
2.3595e-06
2.34261e-06
2.32026e-06
2.13223e-06
2.13848e-06
2.14153e-06
2.1414e-06
2.13794e-06
2.1309e-06
2.11996e-06
2.10478e-06
2.08494e-06
1.91827e-06
1.92334e-06
1.92558e-06
1.92503e-06
1.92158e-06
1.91501e-06
1.90507e-06
1.89148e-06
1.87392e-06
1.72531e-06
1.72937e-06
1.73094e-06
1.73007e-06
1.72667e-06
1.72057e-06
1.71157e-06
1.69946e-06
1.55171e-06
1.55489e-06
1.55585e-06
1.55466e-06
1.55127e-06
1.54554e-06
1.53733e-06
1.52648e-06
1.39642e-06
1.39878e-06
1.39917e-06
1.39764e-06
1.39416e-06
1.38866e-06
1.38102e-06
1.37113e-06
1.2601e-06
1.25994e-06
1.25805e-06
1.25442e-06
1.24901e-06
1.24173e-06
1.23254e-06
1.13666e-06
1.13599e-06
1.13374e-06
1.12994e-06
1.12453e-06
1.11745e-06
1.10875e-06
1.02798e-06
1.0272e-06
1.025e-06
1.02157e-06
1.01651e-06
1.00988e-06
1.00212e-06
9.422e-07
9.4118e-07
9.3876e-07
9.35524e-07
9.30537e-07
9.2392e-07
9.16935e-07
8.72723e-07
8.71304e-07
8.68351e-07
8.6468e-07
8.59181e-07
8.51864e-07
8.07192e-07
8.06025e-07
8.03308e-07
7.99841e-07
7.94626e-07
7.87489e-07
7.42832e-07
7.41142e-07
7.37848e-07
7.33778e-07
7.28228e-07
7.20489e-07
6.83117e-07
6.82222e-07
6.79814e-07
6.76461e-07
6.71875e-07
6.65583e-07
6.18491e-07
6.15404e-07
6.10762e-07
6.05509e-07
5.99434e-07
5.90167e-07
5.76961e-07
5.77202e-07
5.75905e-07
5.72703e-07
5.68981e-07
5.65551e-07
4.90312e-07
4.83731e-07
4.78241e-07
4.71713e-07
4.57538e-07
5.19305e-07
5.22177e-07
5.1907e-07
5.18167e-07
5.27801e-07
4.0866e-07
4.09518e-07
4.15638e-07
4.13109e-07
3.96845e-07
6.19934e-07
6.37247e-07
6.35604e-07
6.4306e-07
6.76843e-07
6.94088e-07
7.14454e-07
7.43606e-07
9.91263e-07
1.04911e-06
1.01152e-06
9.60316e-07
)
;

boundaryField
{
    inlet
    {
        type            calculated;
        value           nonuniform List<scalar> 4(4.37797e-06 4.65848e-06 4.71822e-06 4.77334e-06);
    }
    outlet
    {
        type            calculated;
        value           nonuniform List<scalar> 0();
    }
    walls
    {
        type            calculated;
        value           uniform 0;
    }
    frontAndBack
    {
        type            empty;
    }
    procBoundary5to0
    {
        type            processor;
        value           nonuniform List<scalar> 4(0.000509984 0.000504001 0.00049741 0.000489196);
    }
    procBoundary5to1
    {
        type            processor;
        value           nonuniform List<scalar> 
13
(
0.00288488
0.00215683
0.00215683
0.00172483
0.0014561
0.0014561
0.00115751
0.000979211
0.000979211
0.000799132
0.000660849
0.000568089
0.000568089
)
;
    }
    procBoundary5to4
    {
        type            processor;
        value           nonuniform List<scalar> 
95
(
0.000514657
0.000518554
0.00052157
0.00052157
0.000446723
0.000447598
0.000447598
0.000386287
0.000385603
0.000385603
0.000334551
0.000334551
0.000291965
0.000291965
0.000256862
0.000226292
0.000226292
0.00020006
0.00020006
0.00017782
0.00015825
0.00015825
0.000141238
0.000126349
0.000126349
0.000113127
0.000101625
0.000101625
9.12174e-05
8.18891e-05
7.39308e-05
7.39308e-05
6.64839e-05
5.97837e-05
5.41667e-05
5.41667e-05
4.87617e-05
4.38895e-05
3.98607e-05
3.98607e-05
3.58997e-05
3.23229e-05
2.93985e-05
2.93985e-05
2.64746e-05
2.38328e-05
2.14471e-05
1.92937e-05
1.7563e-05
1.7563e-05
1.57958e-05
1.42013e-05
1.27636e-05
1.14681e-05
1.04279e-05
1.04279e-05
9.36561e-06
8.40978e-06
7.55014e-06
6.77759e-06
6.1493e-06
6.1493e-06
5.51904e-06
4.95359e-06
4.4466e-06
3.99227e-06
3.58531e-06
3.22094e-06
2.91638e-06
2.91638e-06
2.6219e-06
2.3585e-06
2.12241e-06
1.91e-06
1.71843e-06
1.54601e-06
1.39177e-06
1.25847e-06
1.25847e-06
1.13568e-06
1.02725e-06
9.41708e-07
8.72527e-07
8.06792e-07
7.42893e-07
6.82523e-07
6.20204e-07
5.74922e-07
4.95619e-07
4.95619e-07
5.15129e-07
4.06092e-07
6.04606e-07
6.51193e-07
9.89334e-07
)
;
    }
    procBoundary5to6
    {
        type            processor;
        value           nonuniform List<scalar> 
86
(
25.4138
9.51838
12.1067
12.4508
8.10668
1.85205
0.126027
0.00840274
0.000902037
0
0
2.53972e-06
3.87345e-05
8.19995e-05
7.50806e-05
6.02732e-05
5.27485e-05
5.12969e-05
5.16519e-05
5.13066e-05
4.9878e-05
4.78595e-05
4.56959e-05
4.35664e-05
4.14912e-05
3.94388e-05
3.73952e-05
3.53616e-05
3.33421e-05
3.13507e-05
2.93979e-05
2.74883e-05
2.56326e-05
2.52864e-05
2.52864e-05
2.344e-05
2.16672e-05
1.99741e-05
1.83655e-05
1.68439e-05
1.54117e-05
1.40697e-05
1.28177e-05
1.16544e-05
1.05777e-05
9.58475e-06
8.97133e-06
8.97133e-06
8.09512e-06
7.29637e-06
6.5702e-06
5.91164e-06
5.31575e-06
4.77754e-06
4.29235e-06
3.85559e-06
3.525e-06
3.525e-06
3.16402e-06
2.84053e-06
2.55092e-06
2.29181e-06
2.05991e-06
1.85193e-06
1.68397e-06
1.68397e-06
1.51277e-06
1.35884e-06
1.22133e-06
1.09834e-06
9.92778e-07
9.086e-07
8.44558e-07
8.44558e-07
7.80179e-07
7.12713e-07
6.58282e-07
5.81991e-07
5.57602e-07
4.51034e-07
5.17638e-07
4.03074e-07
6.96357e-07
6.96357e-07
7.46998e-07
1.26412e-06
)
;
    }
}


// ************************************************************************* //
