/*--------------------------------*- C++ -*----------------------------------*\
| =========                 |                                                 |
| \\      /  F ield         | OpenFOAM: The Open Source CFD Toolbox           |
|  \\    /   O peration     | Version:  2306                                  |
|   \\  /    A nd           | Website:  www.openfoam.com                      |
|    \\/     M anipulation  |                                                 |
\*---------------------------------------------------------------------------*/
FoamFile
{
    version     2.0;
    format      ascii;
    arch        "LSB;label=32;scalar=64";
    class       volScalarField;
    location    "425";
    object      turbulenceProperties:L;
}
// * * * * * * * * * * * * * * * * * * * * * * * * * * * * * * * * * * * * * //

dimensions      [0 1 0 0 0 0 0];

internalField   nonuniform List<scalar> 
1340
(
0.00178916
0.00171338
0.00164699
0.00158336
0.00154548
0.00152527
0.00152699
0.0015552
0.00161195
0.0017001
0.00182524
0.0019934
0.00221098
0.00249244
0.00286019
0.00334528
0.00400926
0.00491162
0.00628111
0.00817044
0.0117151
0.016691
0.0291027
0.0467099
0.0546917
0.0564658
0.0575874
0.0591759
0.0606024
0.0614569
0.0618536
0.0620469
0.0621888
0.0623457
0.0625866
0.0018828
0.00198104
0.00214047
0.00233276
0.00260318
0.00298971
0.00351488
0.00386726
0.00387792
0.00390033
0.00395797
0.00405249
0.00417004
0.00432273
0.00451617
0.00473544
0.00498438
0.0052624
0.00548441
0.00552549
0.0053458
0.0050019
0.00478965
0.00499055
0.00555564
0.00656893
0.00776505
0.0101223
0.0130482
0.0187079
0.0300881
0.041448
0.054151
0.0690632
0.0853731
0.101207
0.115565
0.129252
0.143043
0.155784
0.166562
0.175303
0.00388514
0.00391215
0.00396875
0.00405742
0.00418866
0.00438255
0.00473349
0.00475256
0.00480736
0.00489476
0.00499151
0.00510471
0.00522736
0.00534568
0.00545432
0.00554361
0.00561617
0.00566
0.00567346
0.00565268
0.0056441
0.00572324
0.00618897
0.0067572
0.117497
0.00572617
0.013424
0.00675453
0.0339848
0.0157192
0.0253679
0.0341352
0.0444575
0.0588741
0.077355
0.0983744
0.119618
0.139446
0.158531
0.178011
0.197612
0.00471495
0.00471755
0.0047236
0.00476587
0.00484411
0.00498485
0.00514935
0.005144
0.00515696
0.00517856
0.00522403
0.00529399
0.0053853
0.00550622
0.00565495
0.00583439
0.00604764
0.00630024
0.00660063
0.00695714
0.00738482
0.00793136
0.0086181
0.0093672
0.0107052
0.0129608
0.0367044
0.0247681
0.118351
0.00643552
0.015424
0.0286409
0.0327594
0.058392
0.0719674
0.0821788
0.103077
0.127588
0.152179
0.175412
0.198487
0.00517721
0.0052203
0.00529015
0.0053781
0.00549485
0.00594552
0.00595079
0.00597417
0.00601656
0.00608395
0.00617905
0.00630018
0.00644969
0.00662767
0.00682784
0.00704718
0.00727877
0.00751144
0.0077343
0.00793573
0.00811803
0.00832438
0.00860871
0.00897055
0.00958421
0.0104674
0.0164976
0.0768335
0.263951
0
0
0.0116609
0.0130509
0.0198568
0.0401523
0.0255487
0.12725
0.186765
0.184879
0.20258
0.00595324
0.00597438
0.00601722
0.00608774
0.00619157
0.00656695
0.00655299
0.00655432
0.00656606
0.00659855
0.00665225
0.00672627
0.00682574
0.00695177
0.00710484
0.0072884
0.00750381
0.00775226
0.00803621
0.00835807
0.00873622
0.00921304
0.00979373
0.010456
0.0111561
0.0117202
0.0126786
0.0140299
0.0332366
0.121832
0.215122
0.474859
0
0
0
0.0118086
0.0348253
0.0162974
0.105923
0.312396
0.0065969
0.00663897
0.00670167
0.00678716
0.00730141
0.00728544
0.0072829
0.00729213
0.00732135
0.00737279
0.00744658
0.00754702
0.00767638
0.00783505
0.00802511
0.00824731
0.00850056
0.00878307
0.00909295
0.00942285
0.00975525
0.0100987
0.0104901
0.0109564
0.01146
0.0119356
0.0123381
0.0134942
0.0167611
0.0244337
0.0558681
0.163432
0.248851
1.17753
0
0
0.0107789
0.0443086
0.0410645
0.00733156
0.00737299
0.00743457
0.00752193
0.00802
0.00799277
0.00797674
0.0079703
0.00798123
0.00801133
0.00806002
0.00813203
0.00822926
0.00835218
0.00850432
0.00868698
0.00890151
0.00915009
0.00943469
0.00975635
0.0101278
0.0105732
0.0110897
0.0116569
0.0122414
0.0127673
0.0131809
0.0135164
0.0142217
0.0155154
0.0176737
0.0217109
0.0289518
0.136105
0.232992
2.43622
0
0
0.0256501
0.00806144
0.00811223
0.00818187
0.00827714
0.00878105
0.00874666
0.00872185
0.00870646
0.00870701
0.00872575
0.00876257
0.00882236
0.00890708
0.00901805
0.00915853
0.00933038
0.0095352
0.00977519
0.0100513
0.0103659
0.0107187
0.0111018
0.011518
0.0119728
0.0124645
0.0129712
0.0134626
0.0139336
0.0145015
0.015313
0.0163499
0.0176107
0.019149
0.0223799
0.0281371
0.251207
0.351272
0
0
0.00882884
0.00888515
0.00895955
0.00944415
0.00944742
0.00946717
0.00950817
0.00957192
0.00965988
0.00977552
0.00992059
0.010097
0.0103073
0.0105536
0.0108385
0.0111631
0.0115362
0.011966
0.0124443
0.0129511
0.0134625
0.0139631
0.0144849
0.0151171
0.0159509
0.0169688
0.0180462
0.0190509
0.0200144
0.0211167
0.0245209
0.0398032
0.228099
0
0.0102143
0.0102401
0.0102879
0.010359
0.0104571
0.0105841
0.0107424
0.0109348
0.0111634
0.0114305
0.0117388
0.0120887
0.0124793
0.0129097
0.013371
0.0138526
0.0143476
0.0148823
0.0155334
0.0163832
0.0174419
0.0185999
0.0197176
0.0206802
0.0215132
0.0221117
0.0235245
0.0307751
0.206727
0.0110288
0.0110812
0.0111593
0.011265
0.0114008
0.0115694
0.0117734
0.0120153
0.0122975
0.0126209
0.0129907
0.0134072
0.0138585
0.014332
0.0148234
0.0153563
0.015996
0.0168166
0.0178376
0.0189859
0.0201523
0.0212636
0.0223213
0.0231238
0.0235917
0.0240937
0.0297324
0.0118429
0.0119028
0.0119893
0.0121051
0.0122532
0.0124361
0.0126564
0.0129168
0.0132178
0.0135614
0.0139481
0.0143719
0.0148242
0.0153049
0.0158341
0.0164645
0.0172583
0.0182346
0.0193375
0.020476
0.0216041
0.0227308
0.0238189
0.0246912
0.0250954
0.0247089
0.0126811
0.0127483
0.0128436
0.0129701
0.0131303
0.013327
0.0135633
0.0138394
0.0141578
0.014521
0.0149253
0.0153618
0.0158316
0.0163528
0.0169698
0.0177357
0.0186696
0.0197262
0.0208257
0.0219256
0.02303
0.0241431
0.0252145
0.0261113
0.0263703
0.0134991
0.0135473
0.0136228
0.0137285
0.0138673
0.0140418
0.0142546
0.0145074
0.0148008
0.0151377
0.0155184
0.0159351
0.0163901
0.0168999
0.0175013
0.0182395
0.0191335
0.0201478
0.0212132
0.0222861
0.0233643
0.0244413
0.0255173
0.0264287
0.0278199
0.0143866
0.0144425
0.0145277
0.0146446
0.0147963
0.0149855
0.0152143
0.0154825
0.0157943
0.0161521
0.0165495
0.0169885
0.017484
0.0180674
0.0187773
0.0196317
0.0206038
0.0216352
0.0226835
0.0237414
0.0247938
0.0258451
0.0267212
0.0279782
0.0153055
0.0153701
0.0154656
0.0155949
0.0157608
0.0159659
0.0162096
0.0164961
0.0168295
0.0172059
0.0176268
0.0181051
0.018668
0.0193489
0.0201645
0.0210948
0.0220913
0.023114
0.0241522
0.0251903
0.0262157
0.0271437
0.0279423
0.016213
0.0162575
0.0163319
0.016439
0.0165816
0.0167627
0.0169821
0.0172435
0.0175519
0.0179068
0.0183081
0.0187668
0.0193072
0.0199583
0.0207355
0.0216241
0.0225844
0.0235797
0.024596
0.0256209
0.0266244
0.0276013
0.0282313
0.0171928
0.017246
0.017331
0.0174505
0.0176074
0.0178028
0.0180391
0.0183223
0.0186547
0.0190346
0.0194717
0.0199878
0.0206084
0.0213476
0.0221951
0.0231183
0.0240845
0.0250773
0.0260855
0.0270751
0.0280539
0.0287585
0.018177
0.0182092
0.0182722
0.0183687
0.0185018
0.0186735
0.0188849
0.0191424
0.019451
0.0198084
0.0202223
0.0207126
0.021302
0.0220035
0.0228102
0.0236957
0.0246313
0.0255997
0.0265883
0.0275694
0.028525
0.0293569
0.0192251
0.0192661
0.01934
0.0194494
0.019597
0.0197829
0.0200145
0.0202983
0.0206319
0.0210213
0.0214844
0.0220419
0.022706
0.0234723
0.0243198
0.0252235
0.0261663
0.0271338
0.0281065
0.0290422
0.029953
0.0202958
0.0203151
0.020366
0.0204515
0.0205748
0.0207358
0.0209416
0.0211997
0.0215084
0.0218722
0.0223068
0.0228317
0.0234585
0.0241846
0.0249937
0.0258645
0.0267805
0.0277264
0.0286876
0.0296148
0.0305517
0.0214214
0.0214496
0.0215114
0.0216105
0.0217467
0.0219265
0.0221579
0.0224408
0.0227779
0.0231831
0.0236749
0.0242644
0.0249507
0.0257212
0.026558
0.027446
0.0283701
0.0293175
0.0302436
0.0311823
0.0225886
0.0225939
0.0226321
0.0227066
0.0228179
0.0229716
0.0231754
0.0234317
0.0237412
0.0241165
0.024575
0.0251274
0.0257741
0.0265059
0.027308
0.0281671
0.0290684
0.030001
0.0309278
0.0318671
0.0238197
0.0238021
0.0238165
0.0238661
0.0239527
0.0240797
0.024256
0.0244854
0.0247669
0.0251113
0.0255359
0.0260512
0.0266585
0.0273516
0.0281188
0.0289479
0.0298259
0.0307433
0.0316696
0.0326155
0.0250775
0.0250679
0.0250927
0.0251544
0.0252549
0.0254029
0.0256046
0.0258571
0.0261705
0.0265613
0.02704
0.0276085
0.0282628
0.0289944
0.0297932
0.0306475
0.0315489
0.032475
0.0334313
0.0264238
0.0263901
0.02639
0.0264263
0.0265002
0.0266199
0.0267931
0.0270165
0.0272987
0.0276556
0.0280978
0.0286279
0.0292439
0.0299397
0.0307076
0.031538
0.0324235
0.0333477
0.0343181
0.027845
0.0277872
0.0277618
0.0277724
0.0278193
0.027911
0.0280552
0.0282495
0.0285003
0.0288233
0.0292292
0.0297214
0.0302995
0.0309598
0.0316964
0.0325022
0.0333727
0.0342941
0.0352793
0.0292628
0.0292121
0.0291966
0.0292167
0.0292801
0.0293954
0.0295598
0.0297796
0.0300692
0.0304395
0.0308942
0.0314347
0.0320596
0.0327652
0.0335462
0.0344008
0.0353211
0.03632
0.0308215
0.0307452
0.0307036
0.0306967
0.0307319
0.030818
0.0309527
0.0311415
0.031398
0.031733
0.0321512
0.0326549
0.0332448
0.0339194
0.0346762
0.0355151
0.0364333
0.0374474
0.0324681
0.0323663
0.0322982
0.0322642
0.0322712
0.0323277
0.0324328
0.0325911
0.0328151
0.0331154
0.0334979
0.0339657
0.0345212
0.0351653
0.0358977
0.0367215
0.0376379
0.0386673
0.0340801
0.0339851
0.033924
0.0339027
0.0339301
0.0340059
0.0341341
0.0343261
0.0345928
0.0349402
0.035373
0.035895
0.0365092
0.0372179
0.0380266
0.0389417
0.0399863
0.0358915
0.0357697
0.0356817
0.0356322
0.0356303
0.0356774
0.035776
0.0359371
0.0361709
0.0364844
0.0368833
0.0373727
0.0379578
0.0386433
0.0394377
0.0403513
0.0414115
0.0378072
0.0376585
0.0375433
0.0374656
0.0374348
0.0374536
0.0375231
0.0376537
0.0378559
0.0381369
0.038503
0.0389611
0.0395181
0.0401813
0.040962
0.0418746
0.0396566
0.0395144
0.0394088
0.0393496
0.0393403
0.0393816
0.0394829
0.0396548
0.0399045
0.0402394
0.0406674
0.0411976
0.0418396
0.0426071
0.0435192
0.0417712
0.0416018
0.0414685
0.0413812
0.0413445
0.0413585
0.0414318
0.0415744
0.0417943
0.0420994
0.0424991
0.043004
0.0436259
0.0443813
0.045293
0.044009
0.0438124
0.0436517
0.043537
0.0434735
0.0434609
0.0435074
0.0436223
0.0438139
0.044091
0.0444642
0.0449452
0.0455482
0.0462926
0.0472044
0.0463771
0.0461528
0.0459653
0.0458241
0.0457346
0.0456967
0.0457175
0.0458063
0.0459713
0.0462224
0.0465706
0.0470295
0.0476154
0.0483498
0.0492621
0.0488831
0.0486317
0.0484179
0.0482507
0.0481358
0.0480736
0.0480701
0.0481343
0.0482747
0.0485016
0.048827
0.0492657
0.049836
0.0505616
0.0514749
0.0512569
0.0510168
0.0508242
0.050685
0.0505998
0.0505738
0.0506152
0.0507328
0.0509374
0.0512421
0.0516627
0.052219
0.0529372
0.0538521
0.0540363
0.0537706
0.0535536
0.0533917
0.0532846
0.0532372
0.0532576
0.0533544
0.0535389
0.053825
0.0542296
0.054774
0.055486
0.056403
0.0569794
0.0566887
0.0564479
0.056264
0.0561364
0.0560693
0.0560706
0.0561489
0.0563155
0.0565852
0.056976
0.0575104
0.0582177
0.0591373
0.0600948
0.0597794
0.0595161
0.0593115
0.0591651
0.0590801
0.059064
0.0591258
0.0592769
0.0595324
0.0599116
0.0604379
0.0611419
0.0620649
0.0633923
0.0630531
0.0627679
0.0625437
0.0623799
0.0622787
0.0622473
0.0622946
0.0624326
0.0626764
0.0630463
0.0635664
0.0642687
0.0651956
0.0665192
0.0662132
0.0659706
0.0657908
0.0656755
0.0656309
0.065666
0.0657929
0.0660275
0.0663903
0.0669063
0.0676082
0.0685398
0.0701876
0.069862
0.0696026
0.0694086
0.0692807
0.0692247
0.0692498
0.069368
0.0695959
0.069954
0.0704677
0.0711708
0.0740685
0.0737245
0.0734499
0.0732431
0.0731043
0.0730392
0.0730565
0.0731685
0.073392
0.0737475
0.0742612
0.0749672
0.0781731
0.0778115
0.0775228
0.077305
0.0771575
0.0770851
0.0770966
0.0772049
0.0774264
0.0777816
0.0782973
0.0790076
0.0825116
0.0821334
0.0818321
0.0816052
0.0814507
0.0813732
0.0813814
0.0814881
0.0817098
0.0820671
0.0825866
0.0833028
0.0867013
0.0863889
0.0861542
0.0859947
0.0859143
0.0859215
0.0860288
0.0862529
0.0866146
0.0871401
0.0878635
0.091526
0.0912038
0.0909632
0.0908006
0.090719
0.0907272
0.0908376
0.0910666
0.0914348
0.0919684
0.0927008
0.0966183
0.096288
0.096043
0.0958789
0.0957984
0.0958098
0.0959256
0.0961617
0.0965387
0.0970822
0.0978254
0.101989
0.101652
0.101404
0.101241
0.101164
0.101181
0.101304
0.101549
0.101937
0.102493
0.103248
0.107649
0.107307
0.107059
0.106898
0.106826
0.10685
0.106983
0.10724
0.107641
0.108211
0.108981
0.113609
0.113264
0.113016
0.112859
0.112795
0.112829
0.112974
0.113246
0.113662
0.114248
0.119879
0.119531
0.119286
0.119136
0.119081
0.119127
0.119287
0.119575
0.12001
0.120614
0.126118
0.125878
0.125736
0.125692
0.125754
0.125931
0.126239
0.126694
0.12732
0.133032
0.132798
0.132667
0.132638
0.132717
0.132914
0.133244
0.133724
0.134375
0.140285
0.140059
0.139941
0.139928
0.140026
0.140247
0.140602
0.141108
0.141786
0.147904
0.147687
0.147582
0.147587
0.147707
0.147951
0.148332
0.148866
0.149573
0.155933
0.155728
0.155637
0.15566
0.1558
0.156067
0.156474
0.157035
0.15777
0.164421
0.164228
0.164154
0.164195
0.164357
0.164649
0.165081
0.165669
0.173373
0.173196
0.173143
0.17321
0.173399
0.173721
0.174184
0.174802
0.182758
0.182604
0.182579
0.182679
0.182907
0.18327
0.183776
0.184438
0.192389
0.192401
0.192546
0.192824
0.193242
0.193808
0.19453
0.202565
0.202625
0.202826
0.203167
0.203655
0.2043
0.2051
0.213002
0.213082
0.213311
0.21367
0.214201
0.214904
0.215735
0.222485
0.222606
0.222893
0.223278
0.223876
0.224677
0.225531
0.23117
0.231358
0.231751
0.232243
0.232986
0.233984
0.240368
0.240543
0.240949
0.241471
0.242263
0.243358
0.250563
0.250849
0.251409
0.252105
0.253064
0.25442
0.261284
0.261455
0.261918
0.262567
0.263461
0.264704
0.274594
0.275282
0.276326
0.277522
0.278925
0.281107
0.284306
0.284247
0.284567
0.285361
0.286293
0.287159
0.308408
0.310499
0.312276
0.314429
0.319263
0.299678
0.298853
0.299746
0.300007
0.297257
0.337822
0.337468
0.334975
0.335999
0.342814
0.274285
0.270534
0.270884
0.269308
0.262503
0.259223
0.255502
0.250444
0.21692
0.210855
0.214738
0.220389
)
;

boundaryField
{
    inlet
    {
        type            calculated;
        value           nonuniform List<scalar> 4(0.103219 0.100063 0.0994277 0.098852);
    }
    outlet
    {
        type            calculated;
        value           nonuniform List<scalar> 0();
    }
    walls
    {
        type            calculated;
        value           uniform 0;
    }
    frontAndBack
    {
        type            empty;
    }
    procBoundary5to0
    {
        type            processor;
        value           nonuniform List<scalar> 4(0.00956368 0.00962027 0.00968375 0.00976469);
    }
    procBoundary5to1
    {
        type            processor;
        value           nonuniform List<scalar> 
13
(
0.00403409
0.00464795
0.00464795
0.00520091
0.00565982
0.00565982
0.00634814
0.00690188
0.00690188
0.00764003
0.0084014
0.00906132
0.00906132
)
;
    }
    procBoundary5to4
    {
        type            processor;
        value           nonuniform List<scalar> 
95
(
0.00952016
0.00948432
0.00945685
0.00945685
0.0102184
0.0102084
0.0102084
0.0109887
0.0109984
0.0109984
0.0118078
0.0118078
0.0126396
0.0126396
0.0134756
0.014357
0.014357
0.0152693
0.0152693
0.016196
0.0171683
0.0171683
0.0181729
0.0192138
0.0192138
0.0203056
0.021424
0.021424
0.0226132
0.0238664
0.0251182
0.0251182
0.0264876
0.0279325
0.029345
0.029345
0.0309287
0.0326003
0.0342081
0.0342081
0.036046
0.0379881
0.0398327
0.0398327
0.0419747
0.04424
0.0466357
0.0491695
0.0515353
0.0515353
0.0543416
0.0573113
0.0604529
0.0637762
0.0668814
0.0668814
0.0705726
0.0744752
0.0786007
0.0829595
0.0870945
0.0870945
0.0919331
0.0970383
0.102421
0.108091
0.114061
0.12034
0.126467
0.126467
0.13338
0.14063
0.148245
0.15627
0.16475
0.173693
0.183063
0.192513
0.192513
0.202652
0.213077
0.222543
0.231195
0.240428
0.250553
0.261397
0.274215
0.28481
0.306753
0.306753
0.300891
0.338888
0.27774
0.267623
0.217131
)
;
    }
    procBoundary5to6
    {
        type            processor;
        value           nonuniform List<scalar> 
86
(
0.0629532
0.182075
0.216522
0.222846
0.224465
0.250111
0.220752
0.0336865
0.0238893
0
0
0.24763
0.0353722
0.0244436
0.025343
0.0278492
0.0296867
0.0301051
0.0300228
0.0301495
0.0305893
0.0312268
0.0319536
0.0327225
0.0335298
0.0343911
0.0353184
0.0363199
0.0374036
0.0385732
0.0398337
0.0411941
0.0426592
0.0429502
0.0429502
0.0446097
0.0463988
0.0483253
0.0503973
0.0526244
0.0550153
0.0575793
0.0603259
0.0632653
0.0664071
0.0697621
0.0721077
0.0721077
0.0759099
0.079957
0.0842599
0.0888292
0.0936758
0.0988116
0.104247
0.109993
0.115034
0.115034
0.121419
0.128146
0.135225
0.142664
0.15048
0.158704
0.166429
0.166429
0.175593
0.185271
0.195421
0.20607
0.216748
0.226564
0.234995
0.234995
0.244496
0.255804
0.266168
0.283074
0.289199
0.321556
0.30016
0.340156
0.258798
0.258798
0.249876
0.192089
)
;
    }
}


// ************************************************************************* //
