/*--------------------------------*- C++ -*----------------------------------*\
| =========                 |                                                 |
| \\      /  F ield         | OpenFOAM: The Open Source CFD Toolbox           |
|  \\    /   O peration     | Version:  2306                                  |
|   \\  /    A nd           | Website:  www.openfoam.com                      |
|    \\/     M anipulation  |                                                 |
\*---------------------------------------------------------------------------*/
FoamFile
{
    version     2.0;
    format      ascii;
    arch        "LSB;label=32;scalar=64";
    class       volScalarField;
    location    "425";
    object      turbulenceProperties:I;
}
// * * * * * * * * * * * * * * * * * * * * * * * * * * * * * * * * * * * * * //

dimensions      [0 0 0 0 0 0 0];

internalField   nonuniform List<scalar> 
1340
(
0.00417416
0.00414921
0.00416936
0.00429778
0.00446111
0.00469043
0.00500339
0.00538905
0.00586656
0.00645472
0.00717316
0.00806411
0.00918812
0.0106284
0.0125285
0.0150859
0.0186931
0.0238216
0.0320093
0.0443809
0.0693734
0.11145
0.228026
0.420907
0.507833
0.466933
0.408321
0.366393
0.339377
0.322246
0.311168
0.303451
0.298983
0.296874
0.296937
0.00422556
0.0043826
0.0045635
0.00498547
0.00568733
0.00704488
0.0101849
0.00181803
0.0016649
0.00152729
0.00139741
0.00127677
0.00116854
0.00106937
0.000977947
0.000896853
0.000824207
0.000759315
0.000711283
0.000692094
0.000711361
0.000795721
0.000979806
0.00132922
0.0019006
0.00294458
0.00464493
0.00817089
0.0141481
0.0265271
0.0521022
0.0805195
0.108774
0.136903
0.161277
0.175647
0.177673
0.171229
0.161868
0.153536
0.147636
0.144814
0.00198376
0.00219117
0.00247007
0.00286811
0.00346347
0.0043978
0.00157882
0.00145486
0.00133338
0.00121912
0.00112084
0.00103368
0.000958232
0.000895783
0.000844886
0.000805012
0.00077413
0.000752509
0.000739209
0.000734123
0.000729994
0.00071528
0.000657291
0.000602935
8.09545e-05
0.000707758
0.00033223
0.000639119
0.000120401
0.002336
0.00789171
0.0153819
0.0255263
0.0403422
0.0602712
0.0834595
0.105732
0.122365
0.13115
0.134238
0.135531
0.00172246
0.00189317
0.00212898
0.0024435
0.00286721
0.00342282
0.00149034
0.0013868
0.00128708
0.00119638
0.00111327
0.00103596
0.000965534
0.00090059
0.000840981
0.000786002
0.000735047
0.000687288
0.000641876
0.000598318
0.000555835
0.000512267
0.000468337
0.000429592
0.000376691
0.000321206
0.00015639
0.000212033
7.57039e-05
0.00123668
0.00279814
0.00407682
0.00310991
0.00218672
0.00399856
0.0127242
0.0276716
0.0484442
0.0716674
0.0923771
0.107728
0.00160011
0.00172814
0.00189097
0.00210534
0.00237238
0.00131461
0.0012294
0.00114556
0.00106632
0.000993194
0.000924208
0.000860469
0.000802014
0.000748385
0.000700075
0.000656908
0.000618874
0.000586192
0.00055887
0.000536886
0.000519368
0.000503025
0.000484597
0.000464782
0.000435319
0.000399755
0.000273123
9.60879e-05
4.34268e-05
0
0
0.00198558
0.00225444
0.00336606
0.00609397
0.00281151
0.00522772
0.0134583
0.0342815
0.0593099
0.00140572
0.00150916
0.00163746
0.00179531
0.00197622
0.00119682
0.00112923
0.0010615
0.000997579
0.000938218
0.000881797
0.000829332
0.000780562
0.000735072
0.00069283
0.000653433
0.000616638
0.000582302
0.000550185
0.0005201
0.00049099
0.000461036
0.000431002
0.000402611
0.000377636
0.000361313
0.000335161
0.000304938
0.000157676
6.66753e-05
4.65537e-05
2.80991e-05
0
0
0
0.00143362
0.0045693
0.00191906
0.00737775
0.0112794
0.00126679
0.00134423
0.00143799
0.00155024
0.00107725
0.00102236
0.00096646
0.000912784
0.000862546
0.000814035
0.000768244
0.000725226
0.000684565
0.000646395
0.000610574
0.000576987
0.000545714
0.000516799
0.00049023
0.000466249
0.000445443
0.000427047
0.000409339
0.000391378
0.000374771
0.000361505
0.000352618
0.000324317
0.000266332
0.000197155
0.000109559
5.33512e-05
4.0846e-05
1.48877e-05
0
0
0.000708955
0.00431206
0.00378918
0.00113336
0.00119407
0.00126593
0.00134886
0.000977362
0.000933365
0.000887888
0.000843818
0.000802387
0.000762034
0.000723782
0.000687674
0.000653353
0.000620946
0.000590243
0.00056113
0.000533581
0.00050751
0.000482849
0.000459604
0.000437254
0.000415005
0.000393334
0.000373137
0.000355329
0.00034165
0.000332871
0.000327921
0.000315759
0.000294006
0.000262892
0.000220042
0.000174653
5.92175e-05
4.18204e-05
8.9353e-06
0
0
0.00152002
0.00102152
0.00106852
0.00112331
0.00118507
0.000887761
0.000852073
0.000814683
0.000778015
0.000743366
0.000709269
0.000676651
0.000645613
0.000615834
0.00058743
0.000560269
0.000534246
0.000509376
0.000485628
0.000463031
0.000441565
0.00042131
0.000402601
0.000385281
0.000369122
0.000354117
0.00034078
0.000329733
0.000321063
0.000312236
0.000300611
0.000287338
0.000272681
0.00025618
0.0002234
0.000184689
4.00285e-05
3.25708e-05
0
0
0.000923122
0.000960164
0.0010028
0.000690657
0.000662071
0.000634566
0.000608266
0.000582904
0.00055859
0.000535196
0.000512632
0.000490906
0.000469983
0.000449863
0.000430545
0.000412093
0.000394282
0.000376983
0.000360578
0.000345638
0.000332644
0.000321763
0.000312188
0.00030224
0.00029062
0.000278183
0.000267044
0.000258743
0.000252357
0.000245354
0.000215335
0.000145344
4.43315e-05
0
0.000594551
0.000572147
0.000550397
0.00052942
0.000509094
0.000489333
0.000470143
0.000451488
0.00043339
0.000415882
0.000398987
0.000382801
0.00036743
0.000352954
0.000339612
0.000327608
0.00031703
0.000307315
0.000297127
0.000285393
0.000272496
0.000260385
0.000250735
0.000244536
0.00024105
0.000241478
0.00023291
0.000184022
4.85831e-05
0.000520015
0.000502036
0.000484527
0.000467403
0.000450666
0.000434286
0.000418271
0.000402651
0.00038747
0.000372813
0.000358629
0.000345018
0.00033234
0.000320874
0.000310664
0.000301238
0.000291514
0.000280553
0.000268501
0.000256725
0.000246595
0.000238701
0.000232708
0.000230563
0.000232923
0.00023567
0.000196045
0.000475726
0.000460638
0.000445798
0.000431199
0.000416802
0.00040262
0.000388687
0.000375031
0.000361765
0.000348931
0.00033661
0.00032502
0.000314364
0.000304649
0.000295522
0.000286182
0.000275896
0.000264745
0.000253772
0.00024411
0.000236092
0.000229419
0.000224334
0.000222372
0.00022573
0.000238993
0.000437822
0.000425009
0.000412343
0.000399783
0.000387327
0.000375001
0.000362833
0.000350933
0.000339337
0.000328088
0.000317362
0.000307396
0.000298192
0.000289468
0.000280599
0.000270992
0.000260687
0.000250513
0.000241458
0.000233839
0.00022745
0.00022214
0.000218297
0.00021694
0.000222255
0.000415973
0.000404948
0.000393988
0.000383057
0.000372141
0.00036127
0.000350473
0.000339826
0.000329408
0.000319254
0.000309458
0.000300247
0.000291623
0.000283358
0.000274983
0.000266028
0.000256497
0.000247046
0.000238523
0.000231287
0.000225225
0.000220294
0.000216406
0.000214894
0.000210406
0.000385684
0.000376234
0.000366757
0.00035725
0.000347722
0.000338199
0.000328731
0.000319424
0.000310284
0.000301366
0.000292877
0.000284841
0.000277083
0.000269231
0.000260919
0.000252133
0.000243382
0.00023538
0.000228498
0.000222697
0.000218032
0.000214375
0.000213133
0.00020969
0.000359086
0.000350912
0.000342663
0.000334348
0.000325984
0.00031761
0.000309329
0.00030115
0.000293098
0.000285335
0.000277908
0.000270688
0.000263383
0.000255698
0.00024762
0.000239545
0.000232062
0.000225535
0.000219988
0.000215488
0.000212072
0.000210354
0.000210587
0.000342582
0.000335553
0.000328427
0.000321204
0.000313901
0.000306538
0.000299208
0.000291927
0.000284703
0.000277645
0.00027083
0.000264167
0.000257417
0.00025035
0.000242949
0.000235523
0.000228561
0.000222402
0.000217124
0.000212778
0.000209561
0.00020742
0.000208934
0.000320688
0.000314565
0.000308325
0.000301979
0.000295548
0.000289093
0.000282648
0.000276207
0.000269832
0.000263629
0.000257531
0.000251341
0.000244874
0.000238117
0.000231314
0.000224867
0.000219087
0.000214088
0.000209924
0.000206832
0.000204665
0.000205483
0.000306357
0.000301118
0.000295757
0.000290274
0.000284686
0.000279027
0.000273354
0.000267652
0.00026194
0.000256333
0.000250794
0.000245158
0.000239274
0.000233133
0.000226926
0.000220983
0.000215586
0.00021087
0.000206911
0.000203898
0.0002019
0.000201667
0.000288086
0.000283505
0.000278794
0.000273966
0.000269042
0.000264088
0.000259074
0.000253997
0.000248968
0.000243976
0.000238884
0.000233562
0.000228004
0.000222365
0.000216914
0.000211902
0.000207472
0.000203725
0.00020079
0.000198929
0.00019806
0.000275485
0.000271595
0.000267577
0.000263437
0.000259184
0.00025488
0.000250498
0.000246022
0.000241549
0.000237084
0.00023252
0.000227739
0.000222738
0.000217639
0.000212665
0.000208035
0.000203895
0.00020036
0.000197526
0.000195712
0.000194616
0.000260046
0.000256641
0.000253115
0.000249468
0.000245753
0.000241953
0.000238044
0.000234099
0.00023014
0.000226081
0.000221817
0.000217341
0.000212755
0.000208241
0.000203988
0.000200138
0.000196812
0.000194097
0.000192277
0.000191131
0.000248857
0.000245999
0.000243019
0.000239921
0.000236742
0.000233473
0.000230093
0.000226643
0.000223165
0.000219584
0.000215807
0.000211825
0.000207725
0.000203649
0.000199766
0.000196206
0.000193088
0.000190496
0.000188663
0.000187479
0.000238041
0.000235663
0.000233171
0.000230564
0.000227865
0.000225083
0.000222186
0.000219195
0.000216164
0.000213036
0.00020972
0.000206204
0.00020256
0.000198904
0.000195376
0.000192101
0.00018919
0.000186724
0.000184889
0.000183634
0.000225641
0.00022358
0.00022141
0.000219143
0.000216798
0.000214345
0.000211781
0.000209169
0.000206461
0.000203572
0.000200489
0.00019727
0.000194012
0.000190828
0.00018783
0.000185123
0.000182783
0.000180951
0.000179611
0.000215937
0.000214256
0.000212473
0.000210595
0.000208643
0.000206589
0.000204419
0.000202192
0.000199872
0.000197379
0.000194697
0.000191874
0.000188987
0.000186132
0.000183403
0.000180894
0.000178678
0.000176863
0.000175428
0.000206552
0.000205204
0.000203765
0.000202233
0.000200633
0.000198936
0.000197124
0.000195247
0.000193282
0.000191154
0.000188842
0.000186386
0.000183846
0.000181299
0.000178828
0.000176515
0.000174415
0.000172627
0.000171107
0.000196432
0.000195294
0.000194069
0.000192779
0.000191402
0.000189912
0.000188356
0.000186712
0.000184913
0.000182939
0.000180819
0.000178601
0.000176344
0.000174118
0.000171992
0.000170013
0.000168248
0.000166661
0.000187942
0.000187066
0.00018611
0.000185095
0.000184
0.000182799
0.000181529
0.000180175
0.000178675
0.000177007
0.000175193
0.000173269
0.000171283
0.000169287
0.000167338
0.000165475
0.000163744
0.000162098
0.000179732
0.000179084
0.000178364
0.000177589
0.000176742
0.000175799
0.000174784
0.000173687
0.000172454
0.000171062
0.000169524
0.000167868
0.00016613
0.00016435
0.000162571
0.000160819
0.000159125
0.000157434
0.00017135
0.000170836
0.000170271
0.000169641
0.000168922
0.000168132
0.000167262
0.000166266
0.000165119
0.00016383
0.000162417
0.000160905
0.000159323
0.000157703
0.000156061
0.000154407
0.000152685
0.000163869
0.000163532
0.000163145
0.000162704
0.000162181
0.000161587
0.000160916
0.000160127
0.000159197
0.000158128
0.000156932
0.000155625
0.000154225
0.000152753
0.000151215
0.000149608
0.000147867
0.000156635
0.000156449
0.000156217
0.000155938
0.000155584
0.000155158
0.00015466
0.000154053
0.000153312
0.000152436
0.000151432
0.000150309
0.000149074
0.000147739
0.0001463
0.000144743
0.000149593
0.000149492
0.000149349
0.000149139
0.000148859
0.000148508
0.000148056
0.000147478
0.000146771
0.000145936
0.000144975
0.00014389
0.00014268
0.000141337
0.000139832
0.000142961
0.000142971
0.000142944
0.000142855
0.000142697
0.000142471
0.00014215
0.000141712
0.00014115
0.000140462
0.000139644
0.000138691
0.000137596
0.000136342
0.000134895
0.000136555
0.000136656
0.000136724
0.000136735
0.00013668
0.000136559
0.000136349
0.000136028
0.00013559
0.000135028
0.000134334
0.000133498
0.000132507
0.000131337
0.000129949
0.000130372
0.00013055
0.000130695
0.000130787
0.000130816
0.000130781
0.000130661
0.000130439
0.000130105
0.00012965
0.000129062
0.000128329
0.000127432
0.000126342
0.000125014
0.000124411
0.00012465
0.000124857
0.000125014
0.00012511
0.000125145
0.0001251
0.000124958
0.000124709
0.000124344
0.000123848
0.000123204
0.00012239
0.000121374
0.000120109
0.000118956
0.000119211
0.00011942
0.00011957
0.000119659
0.000119672
0.000119594
0.000119417
0.000119125
0.000118706
0.000118139
0.0001174
0.000116454
0.000115252
0.000113468
0.00011376
0.000114007
0.000114196
0.000114327
0.000114386
0.00011436
0.000114239
0.000114008
0.000113653
0.000113152
0.000112479
0.000111598
0.00011046
0.000108182
0.000108501
0.000108776
0.000108995
0.000109157
0.000109251
0.000109264
0.000109186
0.000109004
0.000108702
0.000108257
0.000107642
0.000106822
0.000105748
0.000103099
0.000103436
0.00010373
0.000103968
0.000104151
0.00010427
0.000104312
0.000104268
0.000104125
0.000103866
0.000103468
0.000102905
0.000102142
0.000101131
9.82153e-05
9.85624e-05
9.88669e-05
9.91182e-05
9.93146e-05
9.94494e-05
9.9512e-05
9.94929e-05
9.93796e-05
9.91555e-05
9.87981e-05
9.82811e-05
9.75703e-05
9.66207e-05
9.38788e-05
9.4188e-05
9.44452e-05
9.46487e-05
9.47926e-05
9.48685e-05
9.48672e-05
9.47768e-05
9.45804e-05
9.42567e-05
9.37805e-05
9.31189e-05
9.22293e-05
8.93834e-05
8.9692e-05
8.99496e-05
9.01544e-05
9.03025e-05
9.03861e-05
9.03968e-05
9.03229e-05
9.01484e-05
8.98531e-05
8.94133e-05
8.87974e-05
8.50742e-05
8.53777e-05
8.5631e-05
8.58333e-05
8.59811e-05
8.60678e-05
8.60856e-05
8.60233e-05
8.58658e-05
8.55946e-05
8.51869e-05
8.46135e-05
8.09471e-05
8.12426e-05
8.14886e-05
8.16849e-05
8.18289e-05
8.19152e-05
8.19364e-05
8.18818e-05
8.17376e-05
8.14867e-05
8.11078e-05
8.05739e-05
7.69994e-05
7.72845e-05
7.75208e-05
7.77083e-05
7.7846e-05
7.7929e-05
7.79505e-05
7.79008e-05
7.77669e-05
7.75332e-05
7.71802e-05
7.66831e-05
7.35002e-05
7.37249e-05
7.39022e-05
7.40317e-05
7.41092e-05
7.41289e-05
7.40817e-05
7.39558e-05
7.37367e-05
7.3407e-05
7.29442e-05
6.98862e-05
7.00982e-05
7.0264e-05
7.03839e-05
7.04549e-05
7.04713e-05
7.04249e-05
7.0305e-05
7.00986e-05
6.97898e-05
6.93586e-05
6.6439e-05
6.66374e-05
6.6791e-05
6.69007e-05
6.69641e-05
6.69761e-05
6.69291e-05
6.6814e-05
6.66186e-05
6.63289e-05
6.5927e-05
6.31545e-05
6.33388e-05
6.34797e-05
6.35787e-05
6.3634e-05
6.36409e-05
6.35927e-05
6.34811e-05
6.32955e-05
6.30233e-05
6.26485e-05
6.00278e-05
6.01978e-05
6.03261e-05
6.04145e-05
6.04614e-05
6.0463e-05
6.04131e-05
6.03042e-05
6.01273e-05
5.98709e-05
5.9521e-05
5.70544e-05
5.72105e-05
5.73265e-05
5.74043e-05
5.74427e-05
5.74387e-05
5.73867e-05
5.72801e-05
5.71108e-05
5.68689e-05
5.42296e-05
5.43722e-05
5.44761e-05
5.45437e-05
5.4574e-05
5.45643e-05
5.451e-05
5.44052e-05
5.42428e-05
5.40141e-05
5.16788e-05
5.17711e-05
5.18287e-05
5.18513e-05
5.1836e-05
5.17792e-05
5.16757e-05
5.15193e-05
5.13026e-05
4.91259e-05
4.9207e-05
4.92551e-05
4.927e-05
4.92496e-05
4.91902e-05
4.90877e-05
4.89367e-05
4.87307e-05
4.67063e-05
4.67771e-05
4.68164e-05
4.68244e-05
4.67991e-05
4.67375e-05
4.6636e-05
4.64899e-05
4.62936e-05
4.44096e-05
4.4471e-05
4.45025e-05
4.45042e-05
4.44749e-05
4.44117e-05
4.43116e-05
4.41706e-05
4.39839e-05
4.22219e-05
4.22746e-05
4.22991e-05
4.22958e-05
4.22635e-05
4.21999e-05
4.21021e-05
4.19669e-05
4.17901e-05
4.01321e-05
4.01766e-05
4.01948e-05
4.01871e-05
4.01525e-05
4.00889e-05
3.99941e-05
3.98652e-05
3.81409e-05
3.81777e-05
3.81895e-05
3.8177e-05
3.81395e-05
3.80753e-05
3.79827e-05
3.78593e-05
3.62556e-05
3.62845e-05
3.62895e-05
3.62714e-05
3.62299e-05
3.61637e-05
3.60713e-05
3.59512e-05
3.45056e-05
3.45034e-05
3.44791e-05
3.44324e-05
3.43626e-05
3.42685e-05
3.41491e-05
3.28325e-05
3.28228e-05
3.27916e-05
3.27392e-05
3.26646e-05
3.25667e-05
3.24462e-05
3.12785e-05
3.12667e-05
3.12342e-05
3.1184e-05
3.11099e-05
3.10125e-05
3.08985e-05
2.99875e-05
2.99712e-05
2.99335e-05
2.98837e-05
2.98067e-05
2.97044e-05
2.95966e-05
2.88941e-05
2.88703e-05
2.8822e-05
2.87626e-05
2.86734e-05
2.85544e-05
2.78207e-05
2.78002e-05
2.77538e-05
2.76952e-05
2.76068e-05
2.74855e-05
2.67202e-05
2.66893e-05
2.66302e-05
2.65578e-05
2.64589e-05
2.63205e-05
2.56542e-05
2.56367e-05
2.55915e-05
2.55292e-05
2.54439e-05
2.53267e-05
2.44396e-05
2.43779e-05
2.42858e-05
2.41818e-05
2.40613e-05
2.38765e-05
2.36319e-05
2.36359e-05
2.3609e-05
2.35436e-05
2.34678e-05
2.33985e-05
2.1811e-05
2.16639e-05
2.15409e-05
2.1394e-05
2.10713e-05
2.2467e-05
2.25282e-05
2.24609e-05
2.24417e-05
2.265e-05
1.99605e-05
1.99809e-05
2.01294e-05
2.00678e-05
1.96694e-05
2.45889e-05
2.49283e-05
2.48954e-05
2.5041e-05
2.57591e-05
2.60832e-05
2.64614e-05
2.69934e-05
3.10994e-05
3.19886e-05
3.14058e-05
3.05918e-05
)
;

boundaryField
{
    inlet
    {
        type            calculated;
        value           nonuniform List<scalar> 4(6.55108e-05 6.75737e-05 6.79962e-05 6.83772e-05);
    }
    outlet
    {
        type            calculated;
        value           nonuniform List<scalar> 0();
    }
    walls
    {
        type            calculated;
        value           uniform 0;
    }
    frontAndBack
    {
        type            empty;
    }
    procBoundary5to0
    {
        type            processor;
        value           nonuniform List<scalar> 4(0.000809574 0.000837916 0.000867273 0.000900731);
    }
    procBoundary5to1
    {
        type            processor;
        value           nonuniform List<scalar> 
13
(
0.0170031
0.00583364
0.00583364
0.00405581
0.00268423
0.00268423
0.00216722
0.00167238
0.00167238
0.0014348
0.00124698
0.00104972
0.00104972
)
;
    }
    procBoundary5to4
    {
        type            processor;
        value           nonuniform List<scalar> 
95
(
0.000780602
0.000749894
0.00071951
0.00071951
0.000641961
0.000617883
0.000617883
0.000557605
0.000538574
0.000538574
0.000491145
0.000491145
0.000450778
0.000450778
0.000427079
0.000395153
0.000395153
0.000367201
0.000367201
0.00034953
0.000326707
0.000326707
0.000311479
0.000292542
0.000292542
0.000279249
0.000263324
0.000263324
0.000251597
0.000240306
0.000227595
0.000227595
0.00021752
0.00020781
0.000197489
0.000197489
0.000188743
0.000180314
0.0001718
0.0001718
0.000164149
0.000156772
0.000149651
0.000149651
0.000142912
0.000136416
0.000130161
0.000124141
0.000118669
0.000118669
0.000113145
0.000107834
0.000102733
9.78389e-05
9.35278e-05
9.35278e-05
8.90332e-05
8.47291e-05
8.06105e-05
7.66738e-05
7.32279e-05
7.32279e-05
6.9628e-05
6.61954e-05
6.29258e-05
5.98143e-05
5.68559e-05
5.40457e-05
5.15492e-05
5.15492e-05
4.90085e-05
4.66008e-05
4.43151e-05
4.21376e-05
4.00576e-05
3.80756e-05
3.61994e-05
3.44848e-05
3.44848e-05
3.28197e-05
3.12686e-05
2.99809e-05
2.88921e-05
2.78152e-05
2.67228e-05
2.56445e-05
2.44749e-05
2.35919e-05
2.19294e-05
2.19294e-05
2.2378e-05
1.98984e-05
2.42854e-05
2.52682e-05
3.10753e-05
)
;
    }
    procBoundary5to6
    {
        type            processor;
        value           nonuniform List<scalar> 
86
(
0.299229
0.145249
0.137361
0.118669
0.0834
0.0366594
0.00949861
0.00252795
0.000843081
0
0
4.45804e-05
0.000174314
0.000254029
0.000243404
0.000218339
0.000204488
0.000201891
0.000202833
0.000202403
0.000199815
0.00019598
0.00019175
0.00018748
0.000183214
0.00017888
0.000174441
0.00016989
0.000165229
0.000160482
0.000155668
0.000150794
0.000145882
0.000142999
0.000142999
0.000138098
0.00013318
0.000128266
0.000123374
0.00011852
0.000113721
0.000108993
0.00010435
9.98054e-05
9.53702e-05
9.10538e-05
8.7966e-05
8.7966e-05
8.38382e-05
7.98521e-05
7.6012e-05
7.2321e-05
6.87808e-05
6.5391e-05
6.21517e-05
5.90607e-05
5.6542e-05
5.6542e-05
5.37084e-05
5.10161e-05
4.84616e-05
4.60402e-05
4.37454e-05
4.15664e-05
3.96987e-05
3.96987e-05
3.7702e-05
3.58007e-05
3.40028e-05
3.23013e-05
3.07607e-05
2.94675e-05
2.84361e-05
2.84361e-05
2.73616e-05
2.61817e-05
2.51906e-05
2.37133e-05
2.32359e-05
2.09229e-05
2.24327e-05
1.98242e-05
2.60572e-05
2.60572e-05
2.70546e-05
3.50896e-05
)
;
    }
}


// ************************************************************************* //
