/*--------------------------------*- C++ -*----------------------------------*\
| =========                 |                                                 |
| \\      /  F ield         | OpenFOAM: The Open Source CFD Toolbox           |
|  \\    /   O peration     | Version:  2306                                  |
|   \\  /    A nd           | Website:  www.openfoam.com                      |
|    \\/     M anipulation  |                                                 |
\*---------------------------------------------------------------------------*/
FoamFile
{
    version     2.0;
    format      ascii;
    arch        "LSB;label=32;scalar=64";
    class       volSymmTensorField;
    location    "425";
    object      turbulenceProperties:devReff;
}
// * * * * * * * * * * * * * * * * * * * * * * * * * * * * * * * * * * * * * //

dimensions      [0 2 -2 0 0 0 0];

internalField   nonuniform List<symmTensor> 
1340
(
(0.00163714 0.00425779 -9.50073e-22 -0.00177373 -2.23883e-20 0.000136593)
(0.00238852 0.00488002 -1.24266e-22 -0.00248646 1.40368e-19 9.79403e-05)
(0.00361105 0.00546062 -2.76483e-20 -0.00380828 -4.34987e-19 0.000197225)
(0.00524591 0.00621487 1.19073e-19 -0.00549189 8.78822e-19 0.00024598)
(0.00742491 0.00687339 -2.25915e-19 -0.00769355 -8.34223e-19 0.000268643)
(0.0104039 0.00726186 -1.72317e-19 -0.0107954 -4.50645e-19 0.000391442)
(0.014299 0.00737457 3.25999e-19 -0.0147852 1.25251e-18 0.000486257)
(0.0191876 0.00685904 -8.31323e-19 -0.0197702 -2.26133e-18 0.000582585)
(0.025239 0.00535156 -2.06509e-19 -0.0259856 6.04416e-19 0.000746564)
(0.0325644 0.00260623 6.13778e-19 -0.0334649 1.25948e-18 0.000900455)
(0.0413421 -0.00189799 1.57979e-18 -0.0424336 5.77708e-19 0.00109149)
(0.0519596 -0.00873399 -3.55239e-18 -0.0532774 -3.29927e-18 0.00131783)
(0.0649576 -0.0188219 6.7279e-19 -0.0665508 8.68394e-19 0.00159319)
(0.0812468 -0.0337492 2.68635e-18 -0.0832017 1.27312e-18 0.00195482)
(0.102368 -0.0561689 -4.07746e-18 -0.104834 -6.36944e-18 0.00246626)
(0.13053 -0.0904043 -4.36536e-18 -0.133705 -2.58501e-18 0.00317454)
(0.169882 -0.14506 1.92126e-17 -0.174189 1.77899e-17 0.00430664)
(0.224283 -0.232429 1.78592e-17 -0.230164 3.37909e-17 0.00588054)
(0.310931 -0.388886 -3.53876e-17 -0.319546 -5.48542e-17 0.00861515)
(0.426444 -0.641748 -1.37788e-18 -0.438619 1.45537e-17 0.0121748)
(0.666816 -1.21421 -2.72235e-17 -0.686211 5.20474e-17 0.0193953)
(0.945614 -2.11461 -1.24419e-17 -0.971732 4.18865e-17 0.026118)
(1.76575 -5.12909 -1.43151e-16 -1.81788 -6.41939e-16 0.0521287)
(2.42861 -10.3115 3.31443e-16 -2.51193 5.58942e-16 0.0833226)
(1.52832 -11.6476 4.23744e-17 -1.56937 -7.12353e-16 0.041049)
(0.526351 -11.2302 3.65821e-16 -0.514978 5.8112e-16 -0.0113727)
(-0.145848 -11.0475 -8.18364e-17 0.175553 -7.84275e-17 -0.0297043)
(-0.664915 -11.2312 2.74533e-16 0.689586 2.30554e-16 -0.0246709)
(-1.13626 -11.4444 7.29153e-16 1.15259 1.20856e-15 -0.0163386)
(-1.57173 -11.4561 4.00597e-16 1.58001 1.99778e-15 -0.00827346)
(-1.95794 -11.2414 -1.41158e-15 1.95617 -1.93162e-15 0.00177197)
(-2.27369 -10.8348 -4.74923e-16 2.26317 -7.26193e-16 0.0105163)
(-2.49372 -10.2211 -3.22986e-17 2.47876 -4.36829e-15 0.014959)
(-2.60523 -9.41424 -2.58323e-15 2.58985 -7.29997e-15 0.0153837)
(-2.58935 -8.40596 1.00633e-15 2.57515 9.23221e-16 0.0142081)
(0.000968053 0.00371301 2.39405e-21 -0.00101994 5.55971e-20 5.18854e-05)
(0.000549693 0.00319713 -3.57159e-21 -0.000639718 2.55647e-23 9.00252e-05)
(0.000179311 0.00261109 -1.95663e-20 -0.000226377 -1.37147e-19 4.70666e-05)
(-6.70756e-05 0.00208971 4.9814e-21 3.29476e-05 9.36017e-20 3.4128e-05)
(-0.000179256 0.00159689 3.91891e-21 0.000160969 -1.82533e-20 1.82876e-05)
(-0.000172603 0.0011672 -3.38579e-20 0.000172999 1.10834e-19 -3.95971e-07)
(-8.40068e-05 0.000835302 -2.02265e-19 0.000108115 1.62794e-19 -2.41079e-05)
(0.000579433 -0.000460527 1.22859e-22 -0.00052005 4.00304e-21 -5.93827e-05)
(0.000492605 -0.000547355 2.9033e-20 -0.000425489 7.03536e-20 -6.71159e-05)
(0.000371416 -0.000622949 -2.69199e-20 -0.000291097 -4.74604e-20 -8.03187e-05)
(0.000250519 -0.000652178 -1.81362e-20 -0.000158591 -5.16564e-20 -9.19289e-05)
(0.00013315 -0.00064511 1.2227e-19 -3.25568e-05 2.37307e-19 -0.000100593)
(2.31412e-05 -0.000610485 4.76158e-20 8.61799e-05 7.38712e-20 -0.000109321)
(-6.02899e-05 -0.000551403 2.2581e-19 0.000177197 2.07449e-19 -0.000116908)
(-0.000116636 -0.000479008 -1.16705e-19 0.000238471 -2.24589e-20 -0.000121835)
(-0.000149303 -0.000404777 1.64896e-19 0.000274582 1.14263e-19 -0.000125279)
(-0.000158012 -0.000336002 -5.85643e-21 0.000285259 2.50092e-22 -0.000127247)
(-0.000150113 -0.000278307 -2.23006e-19 0.000277009 -1.90525e-19 -0.000126896)
(-0.000132662 -0.000239949 2.87171e-19 0.00025889 3.57497e-19 -0.000126227)
(-0.000110888 -0.000226119 1.76602e-19 0.000240754 8.87439e-20 -0.000129866)
(-8.62533e-05 -0.000245787 -3.68419e-20 0.000231114 1.99824e-20 -0.00014486)
(-4.85461e-05 -0.000344619 -2.26872e-19 0.000241477 3.73457e-20 -0.000192931)
(6.24946e-05 -0.000658618 4.77379e-19 0.000258299 5.46281e-19 -0.000320793)
(0.000455305 -0.00154848 8.55333e-19 0.000142126 -9.35298e-19 -0.00059743)
(0.00150238 -0.00354966 -4.41953e-18 -0.000499295 -5.7283e-18 -0.00100309)
(0.00420311 -0.0086718 5.05742e-19 -0.00253605 7.46125e-18 -0.00166706)
(0.0104747 -0.0211356 7.36544e-18 -0.00789319 -2.0685e-18 -0.00258147)
(0.0295343 -0.0626407 1.55139e-17 -0.0251168 6.14803e-18 -0.00441748)
(0.0740769 -0.174702 -2.35671e-17 -0.067859 -2.25678e-17 -0.00621788)
(0.195461 -0.546206 7.43487e-17 -0.187655 1.8766e-16 -0.00780547)
(0.504294 -1.78316 1.58392e-19 -0.501554 -1.54642e-16 -0.00274026)
(0.747746 -3.54107 -2.72874e-16 -0.771485 1.69399e-16 0.0237396)
(0.788856 -5.38714 -9.70776e-17 -0.84317 -6.59161e-16 0.0543134)
(0.603352 -7.14327 1.17743e-18 -0.675087 7.56065e-17 0.0717343)
(0.204544 -8.39133 -2.94499e-16 -0.279896 -4.44713e-16 0.0753521)
(-0.295532 -8.63535 -4.93732e-16 0.22972 -2.83315e-15 0.0658123)
(-0.707254 -7.89723 -1.67037e-16 0.666148 -3.54706e-15 0.0411066)
(-0.93137 -6.69187 5.23003e-16 0.923038 4.89711e-15 0.00833242)
(-0.99834 -5.47802 -9.55268e-16 1.01655 -3.75921e-17 -0.0182096)
(-0.98444 -4.49829 -7.18953e-15 1.01426 1.3421e-15 -0.0298226)
(-0.930862 -3.75352 8.77236e-15 0.96052 1.59521e-14 -0.0296574)
(-0.86386 -3.18644 -1.48867e-15 0.887879 -8.63748e-16 -0.0240189)
(0.000645655 -0.000345009 9.36998e-21 -0.000595427 2.31773e-20 -5.02281e-05)
(0.00068442 -0.000224612 -1.27043e-20 -0.00063747 -9.60292e-20 -4.69501e-05)
(0.000691694 -7.63938e-05 -1.86442e-20 -0.000654663 -1.11218e-19 -3.70303e-05)
(0.000654248 8.66815e-05 -7.12346e-21 -0.000627664 1.6531e-19 -2.65841e-05)
(0.000565077 0.000235302 1.92665e-21 -0.000550956 4.34553e-20 -1.41213e-05)
(0.000429275 0.000348908 3.78249e-20 -0.000425618 -1.45277e-19 -3.6572e-06)
(0.000333682 -0.000312807 1.7258e-21 -0.000360069 2.3876e-21 2.63877e-05)
(0.00025836 -0.000372281 -2.72961e-20 -0.000290235 -6.63198e-20 3.18749e-05)
(0.000160851 -0.000413558 -6.02086e-21 -0.000197977 -3.03309e-21 3.71262e-05)
(5.2071e-05 -0.000426362 2.27884e-20 -9.69442e-05 4.92238e-20 4.48732e-05)
(-5.44251e-05 -0.000413077 -7.20971e-20 3.54518e-06 -1.46642e-19 5.08799e-05)
(-0.000154783 -0.000372457 -8.20728e-20 9.79074e-05 -1.34513e-19 5.68753e-05)
(-0.000238945 -0.00030849 -1.66416e-19 0.000175434 -2.45977e-19 6.3511e-05)
(-0.000299999 -0.000230744 -1.34057e-20 0.000231132 -1.99284e-21 6.8867e-05)
(-0.000337765 -0.000145421 -7.30693e-20 0.000264304 -1.74013e-19 7.34607e-05)
(-0.000352964 -6.11091e-05 3.05788e-19 0.000275454 3.47969e-19 7.75098e-05)
(-0.000348657 1.65897e-05 -5.0076e-20 0.000268535 6.81111e-20 8.01223e-05)
(-0.000331381 8.39146e-05 3.41327e-20 0.000250346 2.10024e-20 8.10347e-05)
(-0.000307321 0.000139288 -2.33528e-19 0.00022751 -2.97221e-19 7.98114e-05)
(-0.000281376 0.000184867 1.50381e-19 0.00020415 -1.39605e-20 7.72259e-05)
(-0.000254092 0.0002188 4.36507e-20 0.000181604 1.35457e-19 7.24883e-05)
(-0.000223478 0.000237245 5.33225e-20 0.000158659 2.55916e-20 6.48194e-05)
(-0.000180031 0.000227925 -2.41566e-19 0.000128085 -1.40694e-19 5.19465e-05)
(-0.000148151 0.000217072 2.02454e-19 0.000106936 1.50916e-19 4.1215e-05)
(-9.77614e-05 0.000161435 4.84398e-20 7.25561e-05 6.33049e-22 2.52053e-05)
(-0.00015567 0.000280593 -3.59991e-19 0.00012041 -5.41611e-20 3.52602e-05)
(-7.24791e-05 0.000138869 2.10715e-19 5.90191e-05 -8.27546e-20 1.34599e-05)
(-0.000126149 0.000249323 1.38848e-20 0.000109683 2.38052e-19 1.64657e-05)
(-1.02228e-05 1.16819e-05 4.53022e-20 1.09137e-05 -6.69096e-20 -6.90859e-07)
(0.00133551 -0.00497278 -2.42425e-18 -0.00107659 -2.59042e-18 -0.000258918)
(0.0122315 -0.0540707 4.47649e-18 -0.0103958 1.58035e-17 -0.00183568)
(0.0322309 -0.193531 -2.85949e-17 -0.0280556 7.82475e-18 -0.00417536)
(0.0534824 -0.493133 1.48129e-17 -0.0474216 1.15559e-18 -0.00606081)
(0.0640275 -1.11676 -1.43421e-17 -0.0567646 7.65801e-17 -0.0072629)
(0.025237 -2.20345 -4.40969e-16 -0.0184323 2.46577e-16 -0.00680473)
(-0.120136 -3.63385 2.17123e-16 0.123331 3.53506e-16 -0.00319525)
(-0.38748 -4.91619 1.56426e-15 0.382289 -5.86928e-16 0.00519152)
(-0.692079 -5.52563 -2.76546e-15 0.677668 2.16296e-15 0.0144106)
(-0.905777 -5.36813 5.1382e-16 0.890037 9.32827e-15 0.0157401)
(-0.983266 -4.7877 -4.86368e-17 0.974869 -6.36787e-15 0.008397)
(-0.964989 -4.12857 3.05761e-15 0.963519 -2.30084e-15 0.00146936)
(0.000395295 -0.000236803 -3.54254e-21 -0.000419381 -6.74351e-21 2.40861e-05)
(0.000435596 -0.000154351 -1.34281e-20 -0.000454967 -1.89997e-20 1.93711e-05)
(0.000460048 -5.3279e-05 5.56881e-20 -0.000474973 1.20065e-19 1.49256e-05)
(0.000454763 5.43801e-05 1.14453e-20 -0.000464206 -1.35571e-20 9.44308e-06)
(0.000415687 0.000160468 7.89571e-21 -0.000421151 -8.89554e-20 5.46415e-06)
(0.000342124 0.00024805 -2.4654e-20 -0.000344105 6.37278e-20 1.98092e-06)
(0.00030628 -0.000258222 9.51568e-21 -0.000296876 1.62784e-20 -9.4039e-06)
(0.000259298 -0.000306082 -1.32542e-20 -0.000248912 -2.38931e-20 -1.03863e-05)
(0.000195911 -0.000347409 -6.02783e-21 -0.000182639 -3.32176e-21 -1.32723e-05)
(0.000125025 -0.000374211 7.16064e-20 -0.000109147 1.04795e-19 -1.5878e-05)
(5.1775e-05 -0.000382634 4.5507e-20 -3.28947e-05 8.24867e-20 -1.88803e-05)
(-2.12929e-05 -0.000372943 5.77214e-20 4.36687e-05 1.10845e-19 -2.23758e-05)
(-8.66742e-05 -0.000347085 8.81562e-20 0.000112589 1.01992e-19 -2.59148e-05)
(-0.000139539 -0.000308085 -5.05817e-20 0.000168993 -7.85514e-20 -2.94546e-05)
(-0.000178415 -0.000260562 -1.80918e-19 0.00021168 -1.79248e-19 -3.32643e-05)
(-0.000202003 -0.000209912 2.34922e-19 0.000238692 1.323e-19 -3.6689e-05)
(-0.000211574 -0.000160037 1.97567e-19 0.000251484 1.67323e-19 -3.99102e-05)
(-0.000209291 -0.000114101 2.55705e-19 0.00025182 1.22495e-19 -4.25286e-05)
(-0.000197727 -7.4212e-05 -4.2085e-19 0.000241971 -1.34781e-19 -4.42446e-05)
(-0.000179866 -4.12316e-05 -3.58074e-19 0.000224685 -2.40538e-19 -4.48189e-05)
(-0.000157745 -1.50515e-05 4.73826e-19 0.000202218 1.49034e-19 -4.44734e-05)
(-0.000133075 7.47093e-06 9.57357e-20 0.000175229 5.89553e-20 -4.21545e-05)
(-0.000107595 2.66256e-05 -7.09837e-20 0.000145737 7.32641e-21 -3.81415e-05)
(-8.462e-05 4.29436e-05 -2.29714e-19 0.000117611 -1.50499e-19 -3.29908e-05)
(-6.13995e-05 5.41442e-05 5.13039e-20 8.61871e-05 -1.96843e-20 -2.47875e-05)
(-4.61019e-05 6.27802e-05 2.14607e-19 6.32443e-05 6.62105e-20 -1.71424e-05)
(-3.83543e-05 7.14057e-05 -2.70709e-19 4.94072e-05 -7.78655e-20 -1.10529e-05)
(-4.07813e-05 9.48454e-05 1.45401e-19 4.90745e-05 2.0769e-20 -8.29327e-06)
(-3.74371e-05 0.000112385 -4.38699e-20 4.35083e-05 -9.51228e-21 -6.07113e-06)
(-0.000263064 0.00119718 -9.29482e-19 0.000313904 4.55865e-19 -5.08398e-05)
(-0.000607996 0.00655272 3.63816e-18 0.00088633 -1.16121e-18 -0.000278334)
(0.000536502 0.0135194 -7.85758e-18 8.51181e-05 1.04269e-17 -0.00062162)
(0.00144435 0.00749602 6.44527e-20 -0.00103549 -1.47963e-19 -0.000408854)
(0.00216855 0.00297746 4.01242e-18 -0.00181692 -1.42522e-18 -0.000351632)
(0.00442598 -0.0107455 6.57001e-18 -0.00390259 1.66269e-17 -0.000523394)
(0.0101009 -0.109714 2.71333e-17 -0.00884327 -1.23186e-16 -0.00125763)
(-0.000338765 -0.478611 -6.65132e-17 0.00254868 -3.96448e-16 -0.00220992)
(-0.0768515 -1.2992 2.07723e-15 0.0795575 5.51613e-16 -0.00270607)
(-0.263576 -2.42398 2.97019e-15 0.264452 6.72451e-16 -0.000875524)
(-0.514219 -3.34431 -1.64324e-15 0.510804 -2.23424e-15 0.00341414)
(-0.715581 -3.72273 -7.3328e-15 0.709622 1.42202e-15 0.00595905)
(0.000342224 -0.000198497 -1.46076e-20 -0.000335899 -2.97425e-20 -6.32498e-06)
(0.000364714 -0.000135328 -5.02372e-21 -0.000359228 2.03042e-20 -5.48566e-06)
(0.000373312 -5.7245e-05 4.83501e-20 -0.000370622 9.21871e-20 -2.69011e-06)
(0.00036393 2.51559e-05 -2.06946e-20 -0.00036261 -1.16214e-21 -1.32002e-06)
(0.000332411 0.000105543 1.80247e-20 -0.000332513 1.1422e-19 1.02051e-07)
(0.000222634 -0.000196128 -1.35347e-20 -0.000225649 -2.01606e-20 3.0156e-06)
(0.000184148 -0.000231624 2.65854e-21 -0.000188508 4.23594e-21 4.35982e-06)
(0.000134444 -0.000261247 1.61108e-20 -0.000139278 1.74975e-20 4.83416e-06)
(7.79989e-05 -0.000279186 -9.89662e-20 -8.41634e-05 -1.40665e-19 6.16452e-06)
(1.89323e-05 -0.000283319 -7.24487e-20 -2.64811e-05 -8.47329e-20 7.54881e-06)
(-4.0442e-05 -0.00027307 1.69306e-19 3.16121e-05 2.02667e-19 8.82988e-06)
(-9.48347e-05 -0.000249163 -1.79755e-19 8.42686e-05 -2.23208e-19 1.05661e-05)
(-0.000140347 -0.000213788 -8.12619e-20 0.000127929 -5.40597e-20 1.2418e-05)
(-0.00017474 -0.000169936 -1.93186e-19 0.000160477 -1.44566e-19 1.42627e-05)
(-0.000196679 -0.000121817 -3.5999e-20 0.000180319 -6.55051e-20 1.63604e-05)
(-0.000206279 -7.28691e-05 2.41759e-20 0.000187824 -8.72364e-21 1.84546e-05)
(-0.000204704 -2.62635e-05 -1.32279e-19 0.000184162 -1.75438e-19 2.05422e-05)
(-0.000193971 1.54448e-05 4.30642e-19 0.000171446 2.94944e-19 2.25255e-05)
(-0.000176465 5.07375e-05 -1.41748e-19 0.000152269 -2.47891e-20 2.41961e-05)
(-0.000154505 7.94336e-05 -3.47391e-19 0.000128935 -1.5191e-19 2.55695e-05)
(-0.000130521 0.000100453 2.30336e-19 0.000104583 4.6097e-21 2.59379e-05)
(-0.000106118 0.000113123 -1.6734e-19 8.13069e-05 -9.65175e-20 2.48116e-05)
(-8.18097e-05 0.000118093 2.2869e-21 5.91231e-05 1.22271e-19 2.26866e-05)
(-5.91045e-05 0.000116973 -3.99251e-20 3.92137e-05 -3.13665e-20 1.98908e-05)
(-3.82897e-05 0.000108234 -2.78121e-19 2.21189e-05 -1.92158e-19 1.61709e-05)
(-2.24477e-05 9.58656e-05 2.00607e-19 1.04523e-05 1.94749e-19 1.19954e-05)
(-1.08687e-05 7.07789e-05 3.70255e-21 4.13708e-06 -1.1415e-19 6.73165e-06)
(-6.76587e-06 6.98621e-05 3.84162e-20 2.13154e-06 1.17547e-20 4.63432e-06)
(-2.52175e-06 7.98443e-05 1.11644e-19 -1.21864e-06 -5.00172e-21 3.74039e-06)
(3.77211e-06 8.69943e-05 -3.7645e-20 -6.74942e-06 -1.19908e-20 2.97731e-06)
(9.46706e-06 8.92008e-05 1.26741e-19 -1.1564e-05 2.02401e-20 2.09693e-06)
(0.000397409 0.0027741 -2.1558e-19 -0.00043529 4.82583e-21 3.78802e-05)
(0.00056133 0.00343108 -5.4536e-19 -0.000583662 -3.37771e-19 2.23314e-05)
(0.00136411 0.00730177 2.15285e-20 -0.00137644 1.88293e-18 1.23233e-05)
(0.00520602 0.0228683 -6.66031e-17 -0.00516025 5.49872e-18 -4.57706e-05)
(0.00147659 0.00465218 -5.89439e-18 -0.00145185 9.85812e-19 -2.47389e-05)
(0.0106445 0.0121127 2.79026e-17 -0.0104162 -1.62885e-16 -0.000228317)
(0.0186884 -0.09816 5.74484e-16 -0.0178616 -7.04906e-16 -0.000826806)
(-0.0256226 -0.583846 -2.98098e-15 0.0276112 1.58875e-16 -0.00198857)
(-0.182135 -1.48954 4.83324e-15 0.183947 1.81592e-15 -0.00181138)
(0.000253108 -0.000152902 8.63747e-21 -0.000256266 3.53068e-21 3.15743e-06)
(0.000274184 -0.000106572 -3.12487e-20 -0.000275956 -4.49324e-20 1.7728e-06)
(0.000285724 -4.96651e-05 3.99006e-21 -0.000287343 2.03317e-20 1.61917e-06)
(0.000283464 1.17713e-05 1.70416e-20 -0.000284288 -5.68582e-20 8.23689e-07)
(0.000264476 7.30936e-05 -1.38576e-19 -0.000265052 -1.99266e-19 5.76419e-07)
(0.00018413 -0.000161014 1.18697e-20 -0.000183018 1.37883e-20 -1.11164e-06)
(0.000155879 -0.000189721 -2.9849e-20 -0.000154872 -3.58774e-20 -1.00702e-06)
(0.000118628 -0.000214942 -2.41028e-21 -0.000117023 -4.98743e-21 -1.60467e-06)
(7.60893e-05 -0.00023239 -1.24403e-20 -7.41976e-05 -6.48762e-21 -1.89167e-06)
(3.10361e-05 -0.000239974 9.86365e-20 -2.8767e-05 1.13518e-19 -2.26911e-06)
(-1.54505e-05 -0.000237317 7.56356e-20 1.84272e-05 6.24058e-20 -2.97672e-06)
(-5.934e-05 -0.00022451 9.61828e-22 6.29576e-05 3.04984e-20 -3.61755e-06)
(-9.76926e-05 -0.000202637 1.87631e-19 0.000102082 1.81804e-19 -4.38912e-06)
(-0.00012879 -0.000173559 -2.34316e-20 0.000134176 -3.12875e-21 -5.38567e-06)
(-0.000151049 -0.000140082 -6.47895e-20 0.000157472 -3.04223e-20 -6.42341e-06)
(-0.000164113 -0.000104705 1.27242e-19 0.000171715 4.74846e-20 -7.60198e-06)
(-0.000168495 -6.98243e-05 -1.71248e-19 0.000177395 -6.63708e-20 -8.90001e-06)
(-0.000165282 -3.76053e-05 -3.02169e-19 0.000175526 -2.36204e-19 -1.02437e-05)
(-0.000155964 -9.36211e-06 -1.26175e-19 0.000167619 3.25218e-20 -1.16553e-05)
(-0.000142207 1.41205e-05 5.44196e-19 0.000155244 2.45774e-19 -1.30364e-05)
(-0.000125184 3.22701e-05 -3.93014e-19 0.000139473 -1.79134e-19 -1.42893e-05)
(-0.000105662 4.62046e-05 -9.43923e-20 0.000120198 8.18564e-20 -1.45352e-05)
(-8.50837e-05 5.58713e-05 1.7632e-19 9.89728e-05 1.14928e-19 -1.38891e-05)
(-6.50402e-05 6.17408e-05 -1.11026e-19 7.7547e-05 -9.01087e-22 -1.25068e-05)
(-4.68269e-05 6.43419e-05 -3.62848e-20 5.74638e-05 9.08443e-20 -1.0637e-05)
(-3.1481e-05 6.57575e-05 5.15006e-20 4.01271e-05 -3.30843e-20 -8.6461e-06)
(-1.68473e-05 6.17027e-05 -3.66509e-19 2.29607e-05 3.54788e-20 -6.11338e-06)
(-4.76818e-06 5.54086e-05 3.20637e-21 8.45259e-06 -5.38029e-20 -3.68441e-06)
(3.46894e-06 4.00014e-05 -1.60096e-19 -1.93859e-06 1.61047e-20 -1.53035e-06)
(9.17176e-06 3.89615e-05 4.21652e-20 -8.28103e-06 1.23524e-20 -8.9073e-07)
(1.29936e-05 3.78418e-05 -1.31989e-20 -1.22485e-05 -5.56336e-20 -7.45069e-07)
(1.44805e-05 3.72823e-05 -2.76898e-21 -1.37642e-05 -2.57912e-22 -7.16367e-07)
(1.47285e-05 3.90112e-05 6.52262e-21 -1.41616e-05 1.60198e-22 -5.66889e-07)
(1.50959e-05 4.33343e-05 6.6537e-20 -1.47237e-05 -2.2652e-20 -3.72132e-07)
(1.60519e-05 4.93472e-05 5.3116e-20 -1.57577e-05 8.57424e-20 -2.9415e-07)
(0.000349126 0.00110972 -3.24204e-19 -0.000342883 6.69216e-19 -6.24255e-06)
(0.00344379 0.0106698 -3.56002e-17 -0.00338815 1.15663e-17 -5.56402e-05)
(0.000673443 0.00182579 -9.7355e-18 -0.000666342 -6.56226e-18 -7.10098e-06)
(0.0136022 0.0234347 -9.1828e-17 -0.0135177 1.01494e-16 -8.44784e-05)
(0.0322667 -0.0498165 6.47887e-16 -0.0319478 -7.42754e-16 -0.000318872)
(0.000206326 -0.000126629 -1.3e-20 -0.000206073 -1.90252e-20 -2.53123e-07)
(0.000221507 -9.01456e-05 4.62528e-21 -0.000221021 1.27762e-21 -4.85374e-07)
(0.000229939 -4.55184e-05 1.2398e-20 -0.000230081 1.25918e-20 1.41693e-07)
(0.000228572 2.67003e-06 -1.11714e-20 -0.0002286 -5.19314e-20 2.77074e-08)
(0.000147374 -0.000131417 -5.84064e-21 -0.000147571 -5.50011e-21 1.97342e-07)
(0.000124516 -0.000154213 1.67082e-22 -0.000125117 -1.48063e-21 6.01324e-07)
(9.46634e-05 -0.000174373 4.14445e-20 -9.5177e-05 4.51987e-20 5.13592e-07)
(6.0517e-05 -0.000188434 1.62331e-21 -6.12773e-05 -8.72355e-22 7.60306e-07)
(2.41931e-05 -0.000194892 -1.42919e-19 -2.51766e-05 -1.51802e-19 9.83458e-07)
(-1.36275e-05 -0.000193275 3.28422e-20 1.24979e-05 3.87102e-20 1.1296e-06)
(-4.99328e-05 -0.000183401 3.2057e-20 4.85039e-05 1.98549e-20 1.42895e-06)
(-8.23751e-05 -0.000165934 -7.42299e-20 8.0589e-05 -1.08077e-19 1.78609e-06)
(-0.000109455 -0.000142037 -1.1091e-19 0.00010733 -6.5442e-20 2.12523e-06)
(-0.000129683 -0.00011369 4.20835e-20 0.00012709 5.5415e-20 2.59281e-06)
(-0.000142474 -8.27896e-05 -2.52053e-19 0.000139355 -2.08582e-19 3.11978e-06)
(-0.000147818 -5.12645e-05 1.6785e-19 0.000144114 1.06856e-19 3.70467e-06)
(-0.000146232 -2.10475e-05 3.41091e-19 0.00014184 1.93342e-19 4.39241e-06)
(-0.000138686 6.52057e-06 4.39601e-19 0.000133533 1.65659e-19 5.153e-06)
(-0.000126322 3.03981e-05 -5.8792e-19 0.000120323 -4.40357e-19 5.99967e-06)
(-0.000110476 5.00204e-05 3.16238e-19 0.000103483 2.41787e-19 6.99276e-06)
(-9.27074e-05 6.48372e-05 3.38242e-19 8.50172e-05 7.81708e-20 7.69023e-06)
(-7.44887e-05 7.43476e-05 2.15741e-19 6.67389e-05 -4.70253e-20 7.74983e-06)
(-5.67374e-05 7.87617e-05 1.10174e-19 4.95523e-05 5.87614e-20 7.18501e-06)
(-4.04983e-05 7.87372e-05 -1.44206e-20 3.43078e-05 8.0637e-20 6.19047e-06)
(-2.66266e-05 7.59185e-05 1.09988e-19 2.17094e-05 -1.81416e-20 4.91726e-06)
(-1.50073e-05 7.20892e-05 3.69935e-19 1.13921e-05 1.55771e-19 3.61517e-06)
(-4.1232e-06 6.8282e-05 -1.58805e-19 1.5973e-06 -2.14038e-20 2.5259e-06)
(6.68986e-06 5.74484e-05 3.97236e-19 -8.35153e-06 9.36122e-20 1.66167e-06)
(1.34628e-05 4.06852e-05 -5.39193e-20 -1.44893e-05 2.10054e-21 1.02651e-06)
(1.58083e-05 2.73531e-05 -1.79801e-20 -1.64331e-05 1.25136e-20 6.24852e-07)
(1.57665e-05 1.90122e-05 4.82122e-21 -1.61922e-05 2.08813e-21 4.25677e-07)
(1.53698e-05 1.50764e-05 -1.76537e-20 -1.57726e-05 7.49918e-21 4.02833e-07)
(1.47785e-05 1.36607e-05 -4.25944e-20 -1.52044e-05 -2.43526e-20 4.25932e-07)
(1.44142e-05 1.44188e-05 -3.75386e-21 -1.4804e-05 2.93205e-20 3.89768e-07)
(1.44385e-05 1.75827e-05 2.66385e-21 -1.47431e-05 -2.09972e-20 3.04644e-07)
(1.4982e-05 2.34764e-05 1.54795e-19 -1.51719e-05 1.21808e-19 1.89849e-07)
(9.41525e-05 0.000183813 -1.45e-18 -9.45339e-05 1.36225e-18 3.81365e-07)
(0.00357637 0.00778926 -1.63345e-17 -0.00357336 1.00726e-17 -3.01676e-06)
(0.00283596 0.0056902 -3.70071e-17 -0.0028422 1.43729e-18 6.24495e-06)
(0.000165498 -0.000104415 1.85118e-21 -0.000166032 6.08346e-21 5.33869e-07)
(0.000178238 -7.57514e-05 2.82461e-20 -0.000178351 2.49609e-20 1.12875e-07)
(0.000185937 -4.06945e-05 -2.81916e-20 -0.000186314 -1.01532e-20 3.76936e-07)
(0.000186051 -2.52142e-06 6.96958e-20 -0.000186163 6.73276e-20 1.12433e-07)
(0.000121489 -0.00010985 -2.61493e-22 -0.000121307 -7.60166e-22 -1.82098e-07)
(0.000103208 -0.000128531 -1.83375e-21 -0.000103203 -1.50081e-21 -5.19561e-09)
(7.93068e-05 -0.000145313 -5.40666e-21 -7.91154e-05 -4.81165e-21 -1.91373e-07)
(5.19066e-05 -0.000157458 -2.98911e-20 -5.17435e-05 -2.75682e-20 -1.63088e-07)
(2.26717e-05 -0.000163766 3.70022e-20 -2.24709e-05 4.13612e-20 -2.0081e-07)
(-8.10801e-06 -0.000163866 1.93461e-19 8.42771e-06 1.63695e-19 -3.19698e-07)
(-3.80685e-05 -0.000157519 -1.16696e-20 3.84527e-05 -3.19165e-20 -3.84278e-07)
(-6.53867e-05 -0.000145087 -8.46907e-20 6.58717e-05 -7.00796e-20 -4.84966e-07)
(-8.89603e-05 -0.000127306 2.23846e-19 8.9622e-05 2.05917e-19 -6.61711e-07)
(-0.000107463 -0.00010559 9.01128e-20 0.000108291 5.69578e-20 -8.27907e-07)
(-0.000120241 -8.13165e-05 -7.34011e-20 0.000121302 -1.25263e-20 -1.06156e-06)
(-0.000127147 -5.59479e-05 -2.73565e-19 0.000128498 -1.32807e-19 -1.3504e-06)
(-0.000128365 -3.10416e-05 -5.13251e-19 0.000130033 -3.90799e-19 -1.66791e-06)
(-0.000124465 -7.80964e-06 -5.90985e-19 0.000126524 -3.53037e-19 -2.05906e-06)
(-0.000116292 1.27658e-05 -3.34023e-20 0.000118805 1.34953e-19 -2.51232e-06)
(-0.000104885 2.99201e-05 2.94247e-20 0.000107924 -6.3858e-20 -3.03916e-06)
(-9.11357e-05 4.32508e-05 -4.43097e-19 9.47477e-05 -2.03423e-19 -3.61194e-06)
(-7.58292e-05 5.28197e-05 -2.88284e-19 7.96993e-05 -1.24185e-19 -3.8701e-06)
(-6.00152e-05 5.88629e-05 7.35402e-20 6.37946e-05 6.73643e-21 -3.77934e-06)
(-4.48397e-05 6.1759e-05 3.06103e-19 4.82005e-05 4.11883e-20 -3.36081e-06)
(-3.10679e-05 6.21977e-05 -1.28479e-19 3.38138e-05 -5.32217e-20 -2.74585e-06)
(-1.91201e-05 6.12425e-05 -8.00584e-20 2.11969e-05 -1.50832e-19 -2.07682e-06)
(-8.2802e-06 5.96849e-05 1.52945e-20 9.72468e-06 5.64984e-21 -1.44448e-06)
(2.46378e-06 5.71001e-05 -1.42809e-19 -1.57571e-06 -1.38553e-19 -8.8807e-07)
(1.24102e-05 5.01349e-05 1.01047e-19 -1.19005e-05 2.17214e-20 -5.09711e-07)
(1.8946e-05 3.93165e-05 3.20861e-20 -1.85512e-05 -2.29712e-20 -3.94803e-07)
(2.06519e-05 2.75589e-05 1.29973e-21 -2.02801e-05 -8.84078e-21 -3.71843e-07)
(1.84329e-05 1.73884e-05 3.05844e-20 -1.81686e-05 9.22707e-21 -2.64294e-07)
(1.56046e-05 1.06436e-05 1.74782e-20 -1.54714e-05 1.2747e-20 -1.33157e-07)
(1.28421e-05 6.17379e-06 1.25477e-19 -1.27831e-05 6.69901e-21 -5.89429e-08)
(1.23155e-05 4.21316e-06 -5.24664e-20 -1.2285e-05 5.99209e-20 -3.04832e-08)
(1.193e-05 3.78977e-06 1.31068e-19 -1.19305e-05 -1.76725e-19 5.28356e-10)
(1.19094e-05 5.78386e-06 3.1507e-19 -1.1936e-05 1.93561e-19 2.65735e-08)
(1.26009e-05 1.11995e-05 -6.6823e-21 -1.26043e-05 1.5186e-19 3.39364e-09)
(0.000567365 0.000800081 5.07475e-18 -0.000567515 -2.3226e-18 1.50365e-07)
(0.000135994 -8.80026e-05 -4.84431e-21 -0.000136137 -7.45094e-21 1.42797e-07)
(0.000146334 -6.48443e-05 -1.52512e-20 -0.000146262 -1.06644e-20 -7.19877e-08)
(0.00015289 -3.66112e-05 2.37003e-20 -0.000153093 8.92248e-21 2.03455e-07)
(0.000153599 -5.71468e-06 -9.81546e-20 -0.000153614 -7.16889e-20 1.53754e-08)
(0.000100425 -9.25806e-05 -9.23309e-21 -0.00010038 -6.74462e-21 -4.49077e-08)
(8.53481e-05 -0.000107944 -2.91098e-20 -8.54719e-05 -2.61262e-20 1.23832e-07)
(6.57064e-05 -0.000121835 -6.70306e-21 -6.57378e-05 -6.72511e-21 3.13633e-08)
(4.31743e-05 -0.000132024 9.97984e-20 -4.32836e-05 8.75874e-20 1.09303e-07)
(1.91524e-05 -0.000137568 -6.66524e-20 -1.92933e-05 -5.91476e-20 1.40901e-07)
(-6.30384e-06 -0.000138168 -7.02081e-20 6.17354e-06 -7.30981e-20 1.30307e-07)
(-3.1313e-05 -0.000133549 -1.72708e-19 3.11214e-05 -1.25347e-19 1.91562e-07)
(-5.44464e-05 -0.000123914 -1.18195e-19 5.41892e-05 -8.23756e-20 2.57252e-07)
(-7.481e-05 -0.000109743 1.30399e-19 7.45256e-05 8.50709e-20 2.84416e-07)
(-9.12691e-05 -9.204e-05 3.60546e-20 9.08951e-05 -1.69509e-21 3.73937e-07)
(-0.000103215 -7.18033e-05 5.63067e-20 0.000102756 6.35066e-20 4.59406e-07)
(-0.000110356 -5.01442e-05 5.07978e-19 0.000109803 3.09031e-19 5.53419e-07)
(-0.000112647 -2.83315e-05 -1.73611e-19 0.000111955 -1.94165e-20 6.91747e-07)
(-0.00011037 -7.40906e-06 3.80914e-19 0.000109528 3.28503e-19 8.42267e-07)
(-0.000104077 1.17011e-05 5.07885e-20 0.000103048 3.91608e-20 1.02957e-06)
(-9.44711e-05 2.82095e-05 -8.98628e-20 9.31966e-05 -4.38097e-20 1.27444e-06)
(-8.23741e-05 4.17092e-05 2.70925e-19 8.078e-05 1.86697e-19 1.59406e-06)
(-6.88486e-05 5.17386e-05 1.03127e-19 6.70112e-05 7.49947e-20 1.83741e-06)
(-5.48463e-05 5.81695e-05 4.94645e-20 5.30055e-05 -2.46526e-20 1.84075e-06)
(-4.12934e-05 6.12514e-05 -1.80672e-19 3.96243e-05 -1.57758e-19 1.66908e-06)
(-2.88411e-05 6.16074e-05 -2.09952e-21 2.74948e-05 4.03043e-21 1.34628e-06)
(-1.78013e-05 6.01264e-05 -1.01283e-19 1.68197e-05 3.54927e-21 9.81599e-07)
(-7.80212e-06 5.76042e-05 -1.4909e-19 7.13049e-06 -8.18707e-21 6.71631e-07)
(1.70383e-06 5.41055e-05 3.94024e-20 -2.20247e-06 5.09064e-20 4.98642e-07)
(1.04639e-05 4.86916e-05 -6.84322e-21 -1.08546e-05 -4.24788e-20 3.90733e-07)
(1.71474e-05 4.111e-05 -1.17823e-19 -1.73723e-05 3.908e-21 2.24926e-07)
(2.08686e-05 3.29357e-05 -1.13719e-20 -2.09197e-05 4.20949e-21 5.10527e-08)
(2.19594e-05 2.54058e-05 3.56518e-21 -2.19506e-05 -8.59921e-21 -8.79206e-09)
(2.14071e-05 1.87173e-05 -2.42791e-20 -2.14305e-05 4.26983e-21 2.3375e-08)
(1.83454e-05 1.1641e-05 2.80445e-20 -1.8379e-05 -1.42233e-19 3.35714e-08)
(1.5064e-05 6.12432e-06 1.66872e-19 -1.50775e-05 -3.24405e-20 1.34119e-08)
(1.12106e-05 2.08756e-06 -2.78395e-19 -1.12147e-05 -1.21457e-20 4.04084e-09)
(1.05717e-05 -6.46205e-08 3.19677e-19 -1.05864e-05 -1.77386e-19 1.46799e-08)
(1.01743e-05 -8.89988e-07 3.11958e-19 -1.01914e-05 -4.23005e-21 1.71242e-08)
(1.02504e-05 1.12167e-06 -3.70698e-19 -1.0282e-05 5.51495e-20 3.1608e-08)
(0.000112439 -7.47736e-05 5.95573e-21 -0.000112598 7.88154e-21 1.58454e-07)
(0.000121139 -5.58783e-05 4.48132e-20 -0.000121115 3.0328e-20 -2.38197e-08)
(0.000126915 -3.28601e-05 -2.87348e-20 -0.000127098 -3.1916e-20 1.82746e-07)
(1.64274e-05 -0.000116919 4.18179e-20 -1.64347e-05 3.67741e-20 7.2436e-09)
(-4.79067e-06 -0.000117889 5.93796e-20 4.82386e-06 4.9711e-20 -3.31921e-08)
(-2.57743e-05 -0.000114632 2.51055e-19 2.57943e-05 1.93038e-19 -1.99791e-08)
(-4.54006e-05 -0.000107268 -4.26514e-20 4.54278e-05 -3.26472e-20 -2.72455e-08)
(-6.2985e-05 -9.61253e-05 8.76575e-20 6.30456e-05 4.21686e-20 -6.05702e-08)
(-7.75823e-05 -8.19269e-05 -1.7335e-19 7.76522e-05 -1.00347e-19 -6.98138e-08)
(-8.86352e-05 -6.54151e-05 1.28584e-19 8.87378e-05 7.11103e-20 -1.02545e-07)
(-9.58332e-05 -4.74401e-05 -3.21099e-19 9.59893e-05 -2.51022e-19 -1.56098e-07)
(-9.90438e-05 -2.89843e-05 1.12596e-20 9.92486e-05 3.39851e-20 -2.04782e-07)
(-9.83848e-05 -1.09118e-05 5.13718e-20 9.86572e-05 -2.77581e-20 -2.72411e-07)
(-9.41839e-05 5.92574e-06 8.57209e-20 9.45459e-05 1.71489e-20 -3.62053e-07)
(-8.69634e-05 2.081e-05 1.39853e-20 8.74265e-05 1.21727e-20 -4.63096e-07)
(-7.73946e-05 3.3225e-05 -1.03641e-19 7.80017e-05 -9.67109e-20 -6.07155e-07)
(-6.61827e-05 4.27966e-05 -1.99867e-19 6.69167e-05 -6.29882e-20 -7.34057e-07)
(-5.40122e-05 4.94635e-05 -1.71869e-19 5.4822e-05 -5.02733e-20 -8.09733e-07)
(-4.17322e-05 5.33719e-05 -1.25546e-19 4.25142e-05 3.44712e-20 -7.81979e-07)
(-3.00036e-05 5.49555e-05 -7.9687e-20 3.06775e-05 -8.45398e-21 -6.73946e-07)
(-1.92436e-05 5.47277e-05 -8.5371e-21 1.97633e-05 3.7181e-20 -5.19721e-07)
(-9.35552e-06 5.31636e-05 9.7668e-20 9.71636e-06 6.16854e-20 -3.60839e-07)
(-1.1499e-07 5.01923e-05 -7.00401e-21 3.02336e-07 -3.86002e-20 -1.87346e-07)
(8.14213e-06 4.53476e-05 -5.29011e-20 -8.08215e-06 -8.14992e-21 -5.99789e-08)
(1.44482e-05 3.8745e-05 9.18798e-20 -1.43947e-05 2.71629e-20 -5.34954e-08)
(1.81453e-05 3.16542e-05 1.21301e-20 -1.80415e-05 4.41815e-21 -1.03769e-07)
(1.97107e-05 2.54262e-05 1.44365e-20 -1.96118e-05 -1.48816e-20 -9.89231e-08)
(2.02658e-05 2.04016e-05 1.00164e-20 -2.02282e-05 -4.87124e-21 -3.76102e-08)
(2.04305e-05 1.60434e-05 -2.41691e-19 -2.04324e-05 8.12903e-20 1.89361e-09)
(2.01197e-05 1.17831e-05 -2.03526e-19 -2.01182e-05 -5.87128e-20 -1.545e-09)
(1.67274e-05 6.49603e-06 1.31826e-19 -1.67167e-05 2.70626e-19 -1.06928e-08)
(1.17242e-05 2.04466e-06 -1.69185e-19 -1.1721e-05 -2.04796e-19 -3.25294e-09)
(9.82887e-06 -6.80859e-07 4.45332e-20 -9.8223e-06 -1.21476e-19 -6.57466e-09)
(9.20176e-06 -2.85118e-06 1.96476e-19 -9.22123e-06 4.276e-20 1.94712e-08)