/*--------------------------------*- C++ -*----------------------------------*\
| =========                 |                                                 |
| \\      /  F ield         | OpenFOAM: The Open Source CFD Toolbox           |
|  \\    /   O peration     | Version:  2306                                  |
|   \\  /    A nd           | Website:  www.openfoam.com                      |
|    \\/     M anipulation  |                                                 |
\*---------------------------------------------------------------------------*/
FoamFile
{
    version     2.0;
    format      ascii;
    arch        "LSB;label=32;scalar=64";
    class       volScalarField;
    location    "600";
    object      div(phi);
}
// * * * * * * * * * * * * * * * * * * * * * * * * * * * * * * * * * * * * * //

dimensions      [0 0 -1 0 0 0 0];

internalField   nonuniform List<scalar> 
1340
(
1.58693e-06
7.98621e-07
8.72999e-07
4.59041e-07
4.60224e-07
7.77103e-08
3.63886e-07
2.10501e-07
8.9533e-07
1.98342e-07
8.82959e-08
1.67492e-08
2.00019e-07
3.37634e-07
-5.0793e-07
2.77005e-07
1.30554e-07
2.84878e-08
1.14903e-07
1.40615e-07
5.717e-08
3.15511e-07
-1.38912e-06
2.9296e-07
9.39925e-08
1.13317e-08
5.04757e-08
2.2835e-07
2.49913e-07
-2.50667e-07
1.49974e-07
-7.0064e-07
2.38743e-07
1.47209e-08
4.22507e-08
1.3225e-07
1.50919e-07
1.12538e-07
1.48938e-07
-1.84909e-07
-9.3155e-08
1.58731e-07
7.87114e-08
1.51332e-09
5.64242e-08
2.50027e-07
2.43481e-07
-1.45685e-07
4.00828e-08
6.35932e-08
-1.47957e-07
1.86556e-07
-1.67859e-08
4.835e-08
1.51354e-07
1.43814e-07
1.08584e-07
2.11153e-07
-1.7731e-07
-1.21195e-07
2.64885e-07
8.24576e-09
1.12894e-07
7.53736e-08
-2.99951e-09
7.41013e-08
2.43547e-07
2.42594e-07
-1.23875e-07
4.63419e-08
4.7801e-08
-1.0851e-07
1.31622e-07
1.61312e-07
-3.28309e-08
6.62567e-08
1.48245e-07
1.30573e-07
9.3619e-08
2.20743e-07
-1.40717e-07
-8.85865e-08
1.04959e-07
6.13829e-08
-2.9382e-09
8.12416e-08
7.8624e-08
-4.31643e-10
6.27288e-08
2.35602e-07
2.21931e-07
-1.09836e-07
9.04146e-08
2.06258e-08
-1.31318e-07
-3.76008e-08
-6.38501e-08
1.35907e-07
-3.51097e-08
6.18398e-08
1.42275e-07
1.15125e-07
8.78077e-08
2.33531e-07
-1.12004e-07
-1.32885e-07
8.9486e-08
-1.41779e-07
-6.19529e-08
-2.3646e-07
6.63249e-08
7.50228e-08
-8.8256e-09
6.45144e-08
2.15168e-07
2.16054e-07
-9.65574e-08
7.75258e-08
3.04669e-08
-2.26318e-07
-6.82889e-08
-1.57946e-07
-7.86572e-08
1.19465e-07
-3.73131e-08
6.82098e-08
1.25608e-07
9.75778e-08
7.8575e-08
2.19907e-07
-1.05431e-07
-1.35061e-07
3.21008e-08
-1.42476e-07
-9.94849e-08
9.97194e-08
-6.60879e-07
5.49746e-08
8.09756e-08
-5.68422e-09
4.90504e-08
1.98886e-07
1.88944e-07
-9.30353e-08
7.96076e-08
1.61588e-08
-2.26605e-07
-8.98401e-08
1.42726e-08
-2.39434e-07
4.33084e-07
1.1804e-07
-2.84996e-08
6.34739e-08
1.13656e-07
8.17311e-08
6.86884e-08
2.07826e-07
-9.91144e-08
-1.45911e-07
3.62627e-08
-9.30084e-08
-2.64529e-08
2.78873e-07
-2.66932e-07
5.85312e-08
7.90092e-08
-8.15983e-09
5.01928e-08
1.74633e-07
1.74543e-07
-9.2952e-08
6.49301e-08
2.22599e-08
-2.02246e-07
-3.58207e-09
1.22691e-07
1.24888e-08
7.01842e-07
1.14668e-07
1.154e-07
-1.88726e-08
6.98485e-08
1.00105e-07
6.73699e-08
5.58026e-08
1.82405e-07
-9.25324e-08
-1.2617e-07
6.97594e-08
-5.65289e-09
1.02551e-07
3.81945e-07
1.37788e-07
6.70913e-07
2.66843e-08
7.5642e-08
6.43013e-10
4.06128e-08
1.58229e-07
1.46464e-07
-8.6663e-08
6.09372e-08
3.19393e-08
-1.31068e-07
6.64182e-08
1.9656e-07
1.33376e-07
6.29842e-07
6.10469e-08
2.33667e-07
7.25618e-10
6.56085e-08
9.3249e-08
5.72203e-08
4.85158e-08
1.66128e-07
-8.15585e-08
-9.37996e-08
9.63478e-08
5.44485e-08
1.50365e-07
4.12459e-07
7.68181e-08
6.17659e-07
-3.14745e-07
1.1027e-08
8.04001e-08
3.77826e-09
4.38699e-08
1.38683e-07
1.33653e-07
-8.09029e-08
5.95334e-08
3.8127e-08
-8.45726e-08
9.83588e-08
2.11783e-07
1.43168e-07
5.85926e-07
-1.15442e-07
4.1829e-07
1.25811e-07
-9.6406e-09
6.60799e-08
8.24438e-08
4.77621e-08
4.05694e-08
1.45831e-07
-7.07996e-08
-7.05209e-08
1.06347e-07
7.18588e-08
1.547e-07
3.83709e-07
1.07847e-08
5.20296e-07
-2.56131e-07
1.23446e-07
6.5106e-09
6.58761e-08
6.19275e-09
3.56424e-08
1.25014e-07
1.11644e-07
-7.10217e-08
5.74392e-08
4.3033e-08
-6.06852e-08
1.05093e-07
1.98707e-07
1.14261e-07
5.16655e-07
-1.02409e-07
5.00622e-07
-1.82618e-07
-6.77605e-09
3.35316e-08
-1.23992e-08
5.79427e-08
7.48829e-08
4.05974e-08
3.60482e-08
1.33525e-07
-5.9929e-08
-5.55828e-08
1.03509e-07
7.53597e-08
1.33549e-07
3.39906e-07
-1.35871e-08
4.96784e-07
-1.15573e-07
4.18341e-07
-1.32951e-08
-2.82276e-09
5.5782e-08
3.2873e-09
3.59806e-08
1.08804e-07
1.02209e-07
-6.50115e-08
5.48815e-08
4.16957e-08
-4.69542e-08
9.67307e-08
1.76378e-07
8.25499e-08
4.60159e-07
-9.01174e-08
4.62979e-07
-1.81174e-07
-2.78844e-09
2.38097e-08
-1.55451e-08
5.48006e-08
6.42562e-08
3.27185e-08
3.00484e-08
1.17692e-07
-5.21233e-08
-4.52281e-08
9.68006e-08
6.60205e-08
1.1535e-07
2.92954e-07
-1.59055e-08
4.68364e-07
-1.29807e-07
3.52202e-07
-7.12074e-08
-1.57551e-08
-5.11016e-09
4.94659e-08
3.07168e-09
2.71115e-08
9.7121e-08
8.50494e-08
-5.71691e-08
5.16412e-08
4.11569e-08
-4.07653e-08
8.61619e-08
1.52065e-07
6.16747e-08
4.03836e-07
-8.65294e-08
4.04096e-07
-1.35988e-08
2.36859e-07
1.23578e-09
1.94917e-08
-1.40814e-08
4.64238e-08
5.63238e-08
2.67298e-08
2.61318e-08
1.08082e-07
-4.51852e-08
-3.88489e-08
8.66304e-08
5.75249e-08
9.14653e-08
2.56221e-07
-4.38659e-08
4.12835e-07
-8.96509e-08
3.38683e-07
-1.97485e-07
-1.24095e-08
-4.94132e-09
4.36047e-08
-3.6977e-10
2.59654e-08
8.36127e-08
7.78312e-08
-5.33579e-08
4.80663e-08
3.67657e-08
-3.78656e-08
7.12789e-08
1.28207e-07
3.52737e-08
3.45906e-07
-7.29075e-08
3.93956e-07
-1.58794e-07
3.66787e-07
3.55947e-09
1.77287e-08
-1.45356e-08
4.27973e-08
4.73191e-08
2.02014e-08
2.08801e-08
9.52891e-08
-4.0985e-08
-3.48314e-08
7.70554e-08
4.40107e-08
7.29496e-08
2.1455e-07
-4.14865e-08
3.6007e-07
-1.06757e-07
3.65608e-07
-1.30894e-07
-9.37748e-09
-4.21069e-09
3.88343e-08
-6.6108e-10
1.82645e-08
7.4109e-08
6.42895e-08
-4.81933e-08
4.41625e-08
3.45207e-08
-3.73311e-08
5.93749e-08
1.05708e-07
2.20806e-08
2.97103e-07
-8.14554e-08
3.47846e-07
-1.23266e-07
2.63766e-07
2.39844e-07
5.05163e-09
1.54095e-08
-1.2816e-08
3.5659e-08
4.09903e-08
1.56725e-08
1.73135e-08
8.75392e-08
-3.6668e-08
-3.17952e-08
6.75881e-08
3.57294e-08
5.45234e-08
1.85715e-07
-6.14066e-08
3.09675e-07
-1.14675e-07
2.75729e-07
6.68182e-08
1.60822e-07
-7.23575e-09
-3.96246e-09
3.39759e-08
-3.26368e-09
1.72982e-08
6.32618e-08
5.88309e-08
-4.56816e-08
4.06738e-08
3.06574e-08
-3.57148e-08
4.75757e-08
8.72626e-08
2.94271e-09
2.58531e-07
-8.96198e-08
2.93331e-07
-1.16108e-07
2.63913e-07
8.03832e-09
4.64716e-09
1.36907e-08
-1.30307e-08
3.25326e-08
3.41225e-08
1.08524e-08
1.30397e-08
7.69859e-08
-3.33659e-08
-2.88963e-08
6.00454e-08
2.52863e-08
4.12797e-08
1.56511e-07
-6.30912e-08
2.69499e-07
-1.21453e-07
2.88257e-07
-1.47214e-07
2.35646e-07
-6.45355e-09
-3.73529e-09
2.98671e-08
-3.17634e-09
1.13585e-08
5.5712e-08
4.80566e-08
-4.13638e-08
3.70261e-08
2.87797e-08
-3.50815e-08
3.85306e-08
7.03003e-08
-7.50352e-09
2.26356e-07
-1.01668e-07
2.66362e-07
-1.72763e-07
2.53806e-07
-2.06394e-07
4.486e-09
1.14504e-08
-1.16236e-08
2.68291e-08
2.93711e-08
7.70401e-09
1.02375e-08
7.01618e-08
-2.99463e-08
-2.68555e-08
5.16822e-08
1.85101e-08
2.64744e-08
1.3582e-07
-8.11791e-08
2.39941e-07
-1.37053e-07
2.64928e-07
-1.90217e-07
1.43278e-07
-1.79496e-07
-5.66452e-09
-3.78158e-09
2.5829e-08
-4.89486e-09
1.08095e-08
4.70358e-08
4.36355e-08
-3.92333e-08
3.31805e-08
2.45682e-08
-3.45321e-08
2.80045e-08
5.53964e-08
-2.35787e-08
1.97852e-07
-1.07494e-07
2.3936e-07
-1.66318e-07
2.06748e-07
-1.06381e-07
7.79686e-08
3.46451e-09
9.87277e-09
-1.16311e-08
2.42584e-08
2.4154e-08
4.31207e-09
6.82618e-09
6.07546e-08
-2.79406e-08
-2.5768e-08
4.38957e-08
8.89717e-09
1.53085e-08
1.12312e-07
-8.07773e-08
2.09581e-07
-1.29017e-07
2.30612e-07
-1.69176e-07
1.37038e-07
-2.15732e-07
-5.4526e-09
-3.67178e-09
2.24202e-08
-4.53335e-09
6.35605e-09
4.088e-08
3.48128e-08
-3.58779e-08
2.88294e-08
2.14981e-08
-3.51933e-08
1.98048e-08
4.14384e-08
-2.98187e-08
1.70331e-07
-1.08366e-07
2.06343e-07
-1.61149e-07
2.06196e-07
-1.95285e-07
1.51054e-07
3.08632e-09
8.01521e-09
-1.0388e-08
1.97122e-08
2.04988e-08
2.10915e-09
4.50598e-09
5.42211e-08
-2.58826e-08
-2.51796e-08
3.58253e-08
3.30443e-09
4.63894e-09
9.53569e-08
-8.85486e-08
1.81326e-07
-1.31623e-07
2.0512e-07
-1.79225e-07
1.8923e-07
-1.75823e-07
-4.97048e-09
-3.70195e-09
1.91166e-08
-5.60868e-09
6.00738e-09
3.38193e-08
3.10491e-08
-3.40927e-08
2.45677e-08
1.70601e-08
-3.45473e-08
1.18589e-08
3.09397e-08
-3.79412e-08
1.45733e-07
-1.05706e-07
1.78425e-07
-1.44209e-07
1.99038e-07
-1.4273e-07
1.46387e-07
-2.15661e-07
2.18971e-09
6.73896e-09
-1.01917e-08
1.75405e-08
1.64521e-08
-1.72783e-10
1.84576e-09
4.58085e-08
-2.44296e-08
-2.42923e-08
2.93364e-08
-2.61188e-09
-1.19687e-09
7.75462e-08
-8.11072e-08
1.54494e-07
-1.13584e-07
1.76423e-07
-1.49847e-07
1.73252e-07
-1.20558e-07
4.70181e-08
-4.7814e-09
-3.56658e-09
1.6324e-08
-5.10548e-09
2.74646e-09
2.87509e-08
2.38977e-08
-3.10457e-08
2.04531e-08
1.42948e-08
-3.33938e-08
7.41551e-09
2.25714e-08
-3.67777e-08
1.23001e-07
-9.55045e-08
1.52389e-07
-1.27208e-07
1.77354e-07
-1.43342e-07
9.27355e-08
-1.58269e-07
1.85247e-09
5.2891e-09
-9.02796e-09
1.39299e-08
1.36241e-08
-1.60184e-09
1.6522e-10
3.98429e-08
-2.24106e-08
-2.29016e-08
2.372e-08
-4.22225e-09
-5.32122e-09
6.56094e-08
-7.78265e-08
1.31453e-07
-1.04079e-07
1.5295e-07
-1.29069e-07
1.49482e-07
-1.14824e-07
4.68528e-08
-4.41146e-09
-3.50693e-09
1.36419e-08
-5.66521e-09
2.55021e-09
2.3107e-08
2.07874e-08
-2.89434e-08
1.68778e-08
1.10868e-08
-3.04446e-08
3.97072e-09
1.76671e-08
-3.6619e-08
1.03726e-07
-8.46467e-08
1.3051e-07
-1.04055e-07
1.52845e-07
-1.17161e-07
8.16584e-08
-1.15233e-07
1.12114e-09
4.29959e-09
-8.64061e-09
1.20988e-08
1.05276e-08
-2.94912e-09
-1.62022e-09
3.27866e-08
-2.05701e-08
-2.07964e-08
1.98063e-08
-5.564e-09
-5.75034e-09
5.35695e-08
-6.49625e-08
1.09487e-07
-8.1805e-08
1.29606e-07
-1.0166e-07
1.27937e-07
-9.71763e-08
1.06073e-07
-4.16126e-09
-3.33031e-09
1.13771e-08
-5.08788e-09
2.8333e-10
1.90731e-08
1.52725e-08
-2.5797e-08
1.3813e-08
9.49509e-09
-2.69263e-08
3.24138e-09
1.41374e-08
-3.03847e-08
8.55746e-08
-6.97041e-08
1.0678e-07
-8.42505e-08
1.26658e-07
-9.78075e-08
1.26438e-07
-1.15973e-07
8.51053e-10
3.19287e-09
-7.55823e-09
9.28702e-09
8.41004e-09
-3.7058e-09
-2.55234e-09
2.786e-08
-1.81095e-08
-1.81929e-08
1.67253e-08
-4.1658e-09
-5.29624e-09
4.53105e-08
-5.7381e-08
8.90218e-08
-7.1967e-08
1.04118e-07
-8.47231e-08
1.22749e-07
-8.31046e-08
1.14833e-07
-1.36617e-07
-3.86614e-09
-3.19406e-09
9.22946e-09
-5.25595e-09
2.35958e-10
1.47923e-08
1.29493e-08
-2.32624e-08
1.13631e-08
7.6979e-09
-2.25693e-08
2.79146e-09
1.23633e-08
-2.74873e-08
7.04482e-08
-6.21034e-08
8.5563e-08
-7.20872e-08
1.01618e-07
-8.17426e-08
9.7944e-08
-5.11977e-08
4.77285e-08
3.02433e-10
2.45566e-09
-7.05169e-09
7.78722e-09
6.1662e-09
-4.2938e-09
-3.43589e-09
2.24022e-08
-1.58577e-08
-1.54133e-08
1.45352e-08
-3.4532e-09
-4.30307e-09
3.72836e-08
-4.88923e-08
7.25039e-08
-6.17335e-08
8.27355e-08
-7.25572e-08
9.86271e-08
-7.36341e-08
5.728e-08
-6.51774e-08
-3.52932e-09
-3.00971e-09
7.44946e-09
-4.66205e-09
-1.25986e-09
1.18104e-08
9.03271e-09
-2.01114e-08
9.26456e-09
6.77817e-09
-1.87786e-08
2.91149e-09
1.03965e-08
-2.29428e-08
5.86727e-08
-5.30758e-08
6.9538e-08
-6.36827e-08
8.09779e-08
-7.24817e-08
7.66753e-08
-5.19678e-08
4.0228e-08
5.82273e-11
1.63553e-09
-6.12894e-09
5.657e-09
4.63745e-09
-4.45922e-09
-3.72626e-09
1.86589e-08
-1.35746e-08
-1.29957e-08
1.23085e-08
-2.44125e-09
-3.7248e-09
3.18358e-08
-4.19708e-08
6.09275e-08
-5.44697e-08
6.81237e-08
-6.43321e-08
7.8477e-08
-6.26499e-08
4.07737e-08
-5.31432e-08
-3.27141e-09
-2.90954e-09
5.80669e-09
-4.58793e-09
-1.17304e-09
8.71052e-09
7.46431e-09
-1.77767e-08
7.49318e-09
5.34039e-09
-1.56972e-08
2.35197e-09
8.99174e-09
-1.97974e-08
4.98004e-08
-4.48143e-08
5.9757e-08
-5.39999e-08
6.78763e-08
-6.00349e-08
5.5956e-08
-4.26569e-08
2.62397e-08
-4.4151e-10
1.0422e-09
-5.49736e-09
4.50755e-09
3.05879e-09
-4.58531e-09
-4.09015e-09
1.47318e-08
-1.18081e-08
-1.10881e-08
1.0358e-08
-2.28204e-09
-3.35834e-09
2.66027e-08
-3.37747e-08
5.23658e-08
-4.23395e-08
5.95425e-08
-4.98427e-08
6.0534e-08
-4.83393e-08
8.01264e-09
-4.29798e-08
-3.04813e-09
-2.67282e-09
4.45999e-09
-4.0063e-09
-2.14655e-09
6.56607e-09
4.88296e-09
-1.51485e-08
6.17813e-09
4.6287e-09
-1.35822e-08
1.96555e-09
7.34097e-09
-1.56068e-08
4.12764e-08
-3.33804e-08
5.07196e-08
-3.93102e-08
5.56871e-08
-4.35755e-08
2.70469e-09
-3.6938e-08
-5.63287e-09
-5.84021e-10
3.16607e-10
-4.87063e-09
3.00291e-09
1.7443e-09
-4.73109e-09
-3.84159e-09
1.27783e-08
-9.6941e-09
-9.8921e-09
8.6751e-09
-1.83662e-09
-2.65243e-09
2.12805e-08
-2.67772e-08
4.11625e-08
-3.2064e-08
4.74941e-08
-3.65474e-08
7.43427e-09
-3.30983e-08
9.23507e-10
-1.90909e-08
1.16632e-08
-3.12166e-09
-2.16059e-09
3.65768e-09
-4.15702e-09
-1.35195e-09
5.46087e-09
4.2777e-09
-1.30666e-08
5.09825e-09
5.74951e-09
-9.40696e-09
1.82379e-09
5.00623e-09
-1.38384e-08
3.09348e-08
-2.89553e-08
3.70726e-08
-3.30585e-08
1.78584e-08
-2.00814e-08
6.86968e-09
-2.204e-08
3.33724e-08
-1.71128e-08
-6.26453e-10
-6.04077e-10
-4.23268e-09
3.39192e-09
4.27682e-10
-4.67718e-09
-3.15786e-09
1.12184e-08
-5.75876e-09
-7.82114e-09
6.44973e-09
-1.47578e-09
-2.45207e-09
1.52753e-08
-2.38634e-08
2.95724e-08
-3.04157e-08
2.67192e-08
-2.3053e-08
2.75589e-09
-1.11882e-08
4.21569e-08
-1.9821e-08
2.18803e-08
-3.85066e-09
-1.7377e-09
3.98001e-09
-4.96941e-09
-1.15415e-09
5.66856e-09
3.60082e-09
-1.05439e-08
2.94001e-09
5.75928e-09
-5.42135e-09
1.56489e-09
2.96288e-09
-1.21217e-08
2.28363e-08
-2.82867e-08
2.77904e-08
-3.4345e-08
1.35234e-08
-5.11492e-09
2.78977e-08
-2.81748e-08
3.13643e-08
-2.57352e-08
-5.88563e-10
-1.0611e-09
-4.43189e-09
3.54612e-09
5.74414e-10
-4.46839e-09
-3.45231e-09
9.17011e-09
-2.47658e-09
-5.4185e-09
5.06591e-09
-1.1036e-09
-3.00366e-09
1.152e-08
-2.18766e-08
2.34049e-08
-3.0892e-08
2.1446e-08
-2.08213e-08
5.07733e-09
-1.48566e-08
3.61149e-08
-2.43253e-08
1.61929e-08
-3.48518e-09
-1.91119e-09
3.00242e-09
-3.94073e-09
-1.38072e-09
3.39419e-09
3.39465e-09
-7.71826e-09
2.07838e-09
5.22388e-09
-4.19047e-09
1.13053e-09
2.76198e-09
-1.20707e-08
1.86531e-08
-2.6614e-08
2.15536e-08
-3.03854e-08
7.85651e-09
-9.55841e-09
1.85594e-08
-2.79395e-08
1.94367e-08
-2.33407e-08
-9.12096e-10
-7.59909e-10
-3.95502e-09
2.24218e-09
5.33945e-10
-3.3423e-09
-3.66636e-09
6.17967e-09
-1.54397e-09
-4.16402e-09
4.28853e-09
-1.24506e-09
-3.75265e-09
9.99861e-09
-2.06219e-08
1.97495e-08
-2.86856e-08
1.62458e-08
-1.75789e-08
3.25268e-09
-2.20977e-08
2.13213e-08
-2.29212e-08
1.24397e-08
-3.06013e-09
-2.14256e-09
1.88821e-09
-3.03651e-09
-1.95219e-09
1.49974e-09
1.92519e-09
-6.17867e-09
9.21214e-10
3.78094e-09
-4.39834e-09
3.46854e-10
2.30573e-09
-1.15279e-08
1.64587e-08
-2.37608e-08
1.84261e-08
-2.47494e-08
6.19197e-09
-1.82991e-08
6.78985e-09
-3.0446e-08
1.01386e-08
-2.345e-08
-1.41022e-09
-7.86006e-10
-3.37631e-09
8.74999e-10
1.81712e-10
-2.95017e-09
-3.80506e-09
3.7061e-09
-1.7732e-09
-4.28617e-09
3.33212e-09
-1.74341e-09
-3.94165e-09
9.16755e-09
-1.80924e-08
1.771e-08
-2.34098e-08
1.3724e-08
-2.03766e-08
-4.17571e-09
-2.81488e-08
1.14282e-08
-2.2342e-08
1.75702e-08
-2.93742e-09
-2.27794e-09
8.6486e-10
-2.38918e-09
-2.16775e-09
-1.33368e-10
8.24515e-10
-5.48868e-09
-3.59317e-10
2.63435e-09
-4.97727e-09
-5.88031e-11
2.23419e-09
-1.01775e-08
1.51067e-08
-1.91459e-08
1.55107e-08
-2.09068e-08
-3.39479e-09
-2.15211e-08
9.00048e-09
-2.28055e-08
2.1715e-08
-2.29495e-08
-1.57998e-09
-9.99887e-10
-2.70025e-09
-9.59197e-11
-4.40688e-10
-2.53456e-09
-3.99329e-09
1.43451e-09
-2.01964e-09
-4.29262e-09
2.88332e-09
-1.55513e-09
-3.49204e-09
8.67479e-09
-1.48464e-08
1.46983e-08
-1.78622e-08
-1.18628e-09
-1.90678e-08
5.32074e-09
-1.82161e-08
2.52641e-08
-1.44537e-08
1.63989e-08
-2.7525e-08
-2.48893e-09
-1.89075e-09
-1.58161e-11
-1.5771e-09
-2.25431e-09
-1.33895e-09
-6.64944e-10
-4.89207e-09
-1.27961e-09
1.90268e-09
-4.73418e-09
-8.72151e-11
2.38558e-09
-8.5732e-09
1.25985e-08
-1.47607e-08
-4.00669e-10
-1.72066e-08
3.17635e-09
-1.51211e-08
2.3502e-08
-1.54103e-08
1.45433e-08
-1.2761e-08
5.24115e-09
-2.05221e-09
-1.03326e-09
-1.62736e-09
-1.25059e-09
-1.02817e-09
-2.68396e-09
-3.44852e-09
-7.83862e-10
-2.21001e-09
-3.15673e-09
1.71857e-09
-1.56015e-09
-3.19197e-09
7.25121e-09
-1.16953e-08
5.98956e-10
-1.38944e-08
1.33305e-09
-1.32933e-08
1.78258e-08
-1.32673e-08
1.77943e-08
-1.46299e-08
5.66267e-09
-2.12354e-08
2.83798e-10
-1.35324e-09
-1.30491e-09
-1.69246e-09
-2.85603e-09
-1.59601e-09
-2.40367e-09
-4.5876e-09
-7.96357e-10
-8.72254e-10
-4.68851e-09
-3.37592e-09
9.70001e-11
-7.97393e-09
-1.60203e-10
-1.10554e-08
-2.08188e-09
-1.12481e-08
8.898e-09
-1.18746e-08
9.08091e-09
-1.66337e-08
1.83999e-09
-1.58496e-08
1.74082e-09
-2.92492e-09
-1.52039e-09
-1.72776e-09
-2.37215e-09
-1.5345e-09
-2.71701e-09
-4.05823e-09
-1.27172e-09
-3.03822e-09
-3.77836e-09
-4.88907e-09
-3.71564e-09
-4.98404e-09
-2.311e-09
-7.59308e-09
-4.63864e-09
-7.99947e-09
-6.32813e-11
-9.70437e-09
-2.27519e-09
-1.45223e-08
-5.23821e-09
-1.82022e-08
-6.22397e-09
-1.7069e-08
-3.2716e-10
-6.09662e-10
-6.47433e-10
-6.19694e-10
-9.01663e-10
-1.26919e-09
-7.75894e-10
-1.41438e-09
-1.2452e-09
-1.32634e-09
-2.3819e-09
-1.6508e-09
-1.44316e-09
-2.54244e-09
-2.38502e-09
-2.87742e-09
-1.86713e-09
-3.97348e-09
-3.80083e-09
-6.45316e-09
-6.64013e-09
-1.15699e-08
-1.02179e-08
-1.17206e-08
-9.37673e-09
)
;

boundaryField
{
    inlet
    {
        type            extrapolatedCalculated;
        value           nonuniform List<scalar> 
25
(
-3.2716e-10
-6.09662e-10
-6.47433e-10
-6.19694e-10
-9.01663e-10
-1.26919e-09
-7.75894e-10
-1.41438e-09
-1.2452e-09
-1.32634e-09
-2.3819e-09
-1.6508e-09
-1.44316e-09
-2.54244e-09
-2.38502e-09
-2.87742e-09
-1.86713e-09
-3.97348e-09
-3.80083e-09
-6.45316e-09
-6.64013e-09
-1.15699e-08
-1.02179e-08
-1.17206e-08
-9.37673e-09
)
;
    }
    outlet
    {
        type            extrapolatedCalculated;
        value           nonuniform List<scalar> 0();
    }
    walls
    {
        type            extrapolatedCalculated;
        value           nonuniform List<scalar> 0();
    }
    frontAndBack
    {
        type            empty;
    }
    procBoundary4to0
    {
        type            processor;
        value           nonuniform List<scalar> 
72
(
8.45142e-07
9.93846e-07
2.27873e-07
4.222e-07
2.75448e-07
2.3544e-07
2.49336e-07
1.91666e-07
2.1059e-07
1.52025e-07
1.73522e-07
1.25826e-07
1.42055e-07
1.0643e-07
1.25983e-07
8.7537e-08
1.22394e-07
6.39585e-08
2.01969e-07
-6.33217e-08
2.24499e-07
-7.96296e-08
-7.96296e-08
-5.55663e-08
-2.39331e-08
-1.24169e-08
-2.04304e-08
-2.65027e-09
-1.37556e-08
2.81553e-09
-9.03356e-09
5.55976e-09
-5.93862e-09
5.75518e-09
-4.61834e-09
5.75487e-09
-3.8532e-09
4.65195e-09
-3.58611e-09
4.1629e-09
-3.30022e-09
3.16135e-09
-3.17622e-09
2.68456e-09
-3.01065e-09
1.91474e-09
-2.87656e-09
1.47715e-09
-2.73616e-09
9.67345e-10
-2.55653e-09
6.05665e-10
-2.3613e-09
2.59944e-10
-2.17171e-09
-8.56399e-11
-2.079e-09
-5.20679e-10
-1.86978e-09
-1.06294e-09
-2.14473e-09
-1.10517e-09
-2.40486e-09
-1.34379e-09
-2.39389e-09
-1.55889e-09
-2.45626e-09
-1.57154e-09
-3.73428e-10
-3.75948e-09
1.32529e-09
-8.41794e-10
)
;
    }
    procBoundary4to5
    {
        type            processor;
        value           nonuniform List<scalar> 
95
(
4.01403e-07
1.03559e-06
4.21267e-07
3.06344e-07
3.06344e-07
1.43642e-07
1.73901e-07
1.73901e-07
2.24103e-07
5.19397e-07
5.19397e-07
6.20633e-07
6.20633e-07
1.29967e-07
2.8211e-07
2.8211e-07
3.61311e-07
3.61311e-07
2.70126e-07
5.62182e-08
5.62182e-08
-4.35603e-08
-1.47919e-07
-1.47919e-07
-1.62381e-07
3.57975e-08
3.57975e-08
4.27513e-07
-3.35892e-07
9.85025e-07
9.85025e-07
8.55791e-07
2.01736e-07
6.93865e-07
6.93865e-07
4.66961e-07
-2.5417e-07
6.14185e-07
6.14185e-07
5.30739e-07
-8.12147e-08
4.29246e-07
4.29246e-07
3.32344e-07
-2.53541e-08
3.84954e-07
-7.5989e-08
3.64628e-07
3.64628e-07
2.21596e-07
3.03762e-07
2.87345e-07
-1.32663e-07
1.65803e-07
1.65803e-07
8.61089e-08
-2.21162e-07
7.04404e-08
-2.79506e-07
1.13115e-07
1.13115e-07
4.7794e-08
-2.10976e-07
1.61035e-08
-1.21352e-07
5.02362e-08
-1.1395e-07
1.53055e-07
1.53055e-07
9.34879e-08
-4.22178e-08
3.63006e-08
-4.15442e-08
2.72056e-08
-3.47912e-08
6.98791e-10
-2.51136e-08
-2.51136e-08
-1.38075e-08
2.72246e-08
-1.17318e-08
1.56613e-08
-2.09367e-08
8.48745e-09
-1.97185e-08
6.0663e-09
-2.28351e-08
1.94281e-08
1.94281e-08
7.28757e-09
-1.79106e-08
-3.31913e-09
-2.00881e-08
-1.0661e-08
-2.19827e-08
)
;
    }
}


// ************************************************************************* //
