/*--------------------------------*- C++ -*----------------------------------*\
| =========                 |                                                 |
| \\      /  F ield         | OpenFOAM: The Open Source CFD Toolbox           |
|  \\    /   O peration     | Version:  2306                                  |
|   \\  /    A nd           | Website:  www.openfoam.com                      |
|    \\/     M anipulation  |                                                 |
\*---------------------------------------------------------------------------*/
FoamFile
{
    version     2.0;
    format      ascii;
    arch        "LSB;label=32;scalar=64";
    class       volSymmTensorField;
    location    "600";
    object      turbulenceProperties:devReff;
}
// * * * * * * * * * * * * * * * * * * * * * * * * * * * * * * * * * * * * * //

dimensions      [0 2 -2 0 0 0 0];

internalField   nonuniform List<symmTensor> 
1340
(
(7.13499e-05 -9.16826e-05 3.42253e-21 -7.13981e-05 7.80924e-22 4.82255e-08)
(5.50561e-05 -0.000103325 5.46839e-20 -5.50189e-05 4.39723e-20 -3.71925e-08)
(3.63548e-05 -0.000111997 -2.21774e-20 -3.63582e-05 -1.6912e-20 3.41771e-09)
(5.99159e-05 -7.84662e-05 1.57864e-20 -5.99625e-05 1.16944e-20 4.66942e-08)
(4.62169e-05 -8.82606e-05 -1.18485e-20 -4.62056e-05 -9.26544e-21 -1.1356e-08)
(3.05103e-05 -9.56213e-05 -3.49252e-20 -3.05365e-05 -2.38011e-20 2.61442e-08)
(1.37921e-05 -9.99054e-05 2.34287e-19 -1.38218e-05 1.7076e-19 2.97126e-08)
(-4.05482e-06 -0.000100972 -5.43302e-20 4.04369e-06 -4.22346e-20 1.11311e-08)
(5.06025e-05 -6.7633e-05 6.68109e-21 -5.0631e-05 5.20132e-21 2.8417e-08)
(3.89807e-05 -7.59226e-05 -2.66077e-20 -3.89652e-05 -1.74507e-20 -1.54535e-08)
(2.56663e-05 -8.21953e-05 -1.17726e-19 -2.56812e-05 -7.83441e-20 1.48961e-08)
(1.15139e-05 -8.59215e-05 -1.09241e-20 -1.15239e-05 -1.14101e-20 1.00609e-08)
(-3.6096e-06 -8.69917e-05 -1.69808e-20 3.61504e-06 -5.95932e-21 -5.43874e-09)
(-1.8717e-05 -8.51814e-05 1.52964e-19 1.87107e-05 9.75393e-20 6.27601e-09)
(-3.30352e-05 -8.05504e-05 2.20254e-20 3.30214e-05 2.39055e-20 1.38123e-08)
(4.29187e-05 -5.86328e-05 -1.49596e-20 -4.29395e-05 -8.0118e-21 2.08585e-08)
(3.29719e-05 -6.56819e-05 -8.91136e-20 -3.2961e-05 -5.6259e-20 -1.0907e-08)
(2.15955e-05 -7.10364e-05 3.55614e-20 -2.16095e-05 2.45513e-20 1.40083e-08)
(9.52593e-06 -7.42567e-05 2.63694e-20 -9.53453e-06 1.61775e-20 8.60031e-09)
(-3.38554e-06 -7.52613e-05 1.07484e-19 3.38656e-06 6.66994e-20 -1.02205e-09)
(-1.63123e-05 -7.38626e-05 -1.5564e-19 1.6302e-05 -1.05687e-19 1.03349e-08)
(-2.86166e-05 -7.01011e-05 2.00207e-19 2.8601e-05 1.0151e-19 1.55807e-08)
(-3.99806e-05 -6.40877e-05 -5.18976e-19 3.99724e-05 -2.8804e-19 8.26301e-09)
(3.65441e-05 -5.10848e-05 2.55298e-20 -3.65599e-05 1.5252e-20 1.58575e-08)
(2.79688e-05 -5.71066e-05 2.30678e-20 -2.79587e-05 1.44555e-20 -1.01558e-08)
(1.81819e-05 -6.16882e-05 7.58645e-21 -1.81939e-05 6.03051e-21 1.1975e-08)
(7.81887e-06 -6.44657e-05 -1.28178e-20 -7.8228e-06 -8.18497e-21 3.93616e-09)
(-3.27049e-06 -6.53805e-05 9.67727e-20 3.27492e-06 5.14027e-20 -4.42365e-09)
(-1.43872e-05 -6.42705e-05 -8.30125e-20 1.4381e-05 -4.6444e-20 6.23664e-09)
(-2.50057e-05 -6.11682e-05 -2.5925e-19 2.49967e-05 -1.50085e-19 9.00792e-09)
(-3.48721e-05 -5.61604e-05 2.77051e-19 3.48701e-05 1.90848e-19 1.94362e-09)
(-4.3533e-05 -4.95048e-05 9.18515e-20 4.3522e-05 5.8048e-20 1.10398e-08)
(3.12165e-05 -4.47013e-05 -4.33693e-21 -3.12292e-05 -1.16874e-21 1.27356e-08)
(2.37803e-05 -4.98639e-05 -1.23819e-20 -2.37716e-05 -6.06619e-21 -8.71296e-09)
(1.53087e-05 -5.37897e-05 -4.98411e-20 -1.53204e-05 -2.69216e-20 1.16874e-08)
(6.35603e-06 -5.61804e-05 2.37035e-20 -6.3579e-06 1.04715e-20 1.87079e-09)
(-3.21724e-06 -5.69923e-05 -7.50816e-20 3.22094e-06 -4.4958e-20 -3.70592e-09)
(-1.28242e-05 -5.60833e-05 1.75307e-19 1.28174e-05 1.00628e-19 6.74067e-09)
(-2.20193e-05 -5.3487e-05 -9.97799e-21 2.20117e-05 1.73531e-20 7.56373e-09)
(-3.05968e-05 -4.92753e-05 9.67673e-20 3.05952e-05 1.91615e-20 1.65276e-09)
(-3.8187e-05 -4.36509e-05 7.59294e-20 3.81784e-05 1.93381e-20 8.59882e-09)
(2.67419e-05 -3.92632e-05 -5.32092e-20 -2.67502e-05 -2.9189e-20 8.30174e-09)
(2.02599e-05 -4.37007e-05 8.14322e-20 -2.02526e-05 4.31468e-20 -7.34867e-09)
(1.28857e-05 -4.70718e-05 -6.08402e-20 -1.28962e-05 -3.06312e-20 1.05672e-08)
(5.11562e-06 -4.91278e-05 3.4547e-20 -5.1147e-06 1.27438e-20 -9.17344e-10)
(-3.18789e-06 -4.98329e-05 -2.02124e-19 3.19092e-06 -9.95971e-20 -3.02389e-09)
(-1.15249e-05 -4.90694e-05 1.10937e-19 1.15211e-05 5.00641e-20 3.82413e-09)
(-1.95156e-05 -4.68685e-05 2.7429e-19 1.9511e-05 1.28504e-19 4.64561e-09)
(-2.69944e-05 -4.32899e-05 -3.89511e-19 2.69935e-05 -1.99842e-19 8.88927e-10)
(-3.36517e-05 -3.85001e-05 -1.9116e-19 3.36468e-05 -8.45517e-20 4.94462e-09)
(-3.92974e-05 -3.26538e-05 1.60871e-19 3.92932e-05 6.56881e-20 4.19861e-09)
(2.29635e-05 -3.46001e-05 2.71282e-20 -2.29686e-05 1.3072e-20 5.123e-09)
(1.72863e-05 -3.84229e-05 1.41076e-20 -1.72816e-05 8.01375e-21 -4.68504e-09)
(1.08384e-05 -4.13238e-05 4.01733e-20 -1.08469e-05 2.01794e-20 8.4627e-09)
(4.06485e-06 -4.30879e-05 -1.16341e-19 -4.06431e-06 -5.74316e-20 -5.41709e-10)
(-3.16934e-06 -4.369e-05 2.19144e-19 3.17233e-06 1.09935e-19 -2.98766e-09)
(-1.04323e-05 -4.30314e-05 -4.1431e-19 1.04286e-05 -1.98046e-19 3.73625e-09)
(-1.73949e-05 -4.11437e-05 -1.719e-19 1.73917e-05 -8.10944e-20 3.13045e-09)
(-2.39299e-05 -3.80735e-05 2.20006e-19 2.39294e-05 1.28508e-19 5.40072e-10)
(-2.97747e-05 -3.39628e-05 1.12784e-19 2.97699e-05 5.57807e-20 4.871e-09)
(-3.47662e-05 -2.89434e-05 -1.04812e-19 3.4762e-05 -6.40743e-20 4.13302e-09)
(-3.87886e-05 -2.3148e-05 -2.93673e-20 3.87854e-05 -1.17985e-20 3.22021e-09)
(1.97622e-05 -3.05752e-05 -2.85202e-20 -1.97659e-05 -1.25287e-20 3.6805e-09)
(1.47671e-05 -3.3878e-05 -2.16819e-20 -1.4763e-05 -1.1296e-20 -4.08105e-09)
(9.10929e-06 -3.63776e-05 6.99472e-20 -9.11698e-06 3.30585e-20 7.6892e-09)
(3.17895e-06 -3.78883e-05 1.71689e-20 -3.17764e-06 8.7833e-21 -1.30561e-09)
(-3.14649e-06 -3.83958e-05 1.00917e-19 3.14901e-06 4.63578e-20 -2.51947e-09)
(-9.49383e-06 -3.7814e-05 5.86396e-19 9.49076e-06 2.85062e-19 3.07074e-09)
(-1.55807e-05 -3.61756e-05 1.01156e-19 1.55774e-05 4.62053e-20 3.21475e-09)
(-2.13012e-05 -3.35211e-05 9.82371e-20 2.13014e-05 2.90593e-20 -2.36152e-10)
(-2.64347e-05 -2.99731e-05 -7.9866e-20 2.64317e-05 -3.72767e-20 3.01758e-09)
(-3.085e-05 -2.56362e-05 -6.98655e-20 3.08469e-05 -2.53963e-20 3.06719e-09)
(-3.44479e-05 -2.0622e-05 -6.05397e-20 3.4446e-05 -2.37106e-20 1.90468e-09)
(1.70363e-05 -2.7085e-05 2.32691e-20 -1.70393e-05 9.41383e-21 2.96296e-09)
(1.2627e-05 -2.9946e-05 7.51255e-20 -1.26228e-05 3.37032e-20 -4.23604e-09)
(7.64443e-06 -3.20996e-05 7.86601e-20 -7.65216e-06 3.52309e-20 7.72507e-09)
(2.4346e-06 -3.33936e-05 -1.17182e-19 -2.43235e-06 -5.49563e-20 -2.25275e-09)
(-3.11365e-06 -3.38137e-05 -1.96099e-19 3.11581e-06 -9.25824e-20 -2.15604e-09)
(-8.6772e-06 -3.32911e-05 -1.29711e-19 8.67489e-06 -7.37471e-20 2.30578e-09)
(-1.40117e-05 -3.1854e-05 -1.34967e-19 1.40097e-05 -5.7273e-20 1.96985e-09)
(-1.90313e-05 -2.95412e-05 -7.79327e-20 1.90318e-05 -4.15032e-20 -4.32091e-10)
(-2.35467e-05 -2.64577e-05 1.28967e-19 2.3544e-05 6.01364e-20 2.72673e-09)
(-2.74486e-05 -2.26922e-05 -5.8979e-21 2.74466e-05 -2.99689e-21 2.0248e-09)
(-3.06565e-05 -1.83353e-05 2.45722e-20 3.06543e-05 1.25114e-20 2.20634e-09)
(-3.30761e-05 -1.35148e-05 -6.71775e-20 3.30731e-05 -3.07098e-20 2.96478e-09)
(1.47076e-05 -2.40461e-05 -8.81837e-21 -1.47092e-05 -2.88031e-21 1.55118e-09)
(1.0804e-05 -2.65272e-05 -7.16642e-20 -1.08012e-05 -3.12687e-20 -2.80375e-09)
(6.40236e-06 -2.83856e-05 -8.16793e-20 -6.40897e-06 -3.65975e-20 6.60968e-09)
(1.81173e-06 -2.94911e-05 -1.60247e-20 -1.80961e-06 -4.09379e-21 -2.11334e-09)
(-3.06951e-06 -2.98339e-05 6.25934e-20 3.07158e-06 2.7529e-20 -2.06614e-09)
(-7.9594e-06 -2.9355e-05 -4.89655e-20 7.95693e-06 -1.955e-20 2.46841e-09)
(-1.26462e-05 -2.80841e-05 2.28626e-19 1.2645e-05 1.01215e-19 1.18647e-09)
(-1.70567e-05 -2.60557e-05 -1.76092e-19 1.70571e-05 -7.23028e-20 -4.5009e-10)
(-2.10311e-05 -2.33612e-05 -2.33687e-20 2.10291e-05 -1.62095e-20 2.0208e-09)
(-2.44789e-05 -2.00767e-05 -6.43673e-20 2.44778e-05 -1.13803e-20 1.07732e-09)
(-2.7334e-05 -1.6277e-05 6.71918e-20 2.73335e-05 4.65164e-21 5.62038e-10)
(-2.95169e-05 -1.20687e-05 -1.21634e-19 2.95158e-05 -2.69797e-20 1.04395e-09)
(1.27137e-05 -2.13889e-05 -4.42608e-20 -1.27144e-05 -1.8197e-20 6.85026e-10)
(9.24814e-06 -2.35434e-05 3.88169e-20 -9.24552e-06 1.54236e-20 -2.62432e-09)
(5.34886e-06 -2.51479e-05 -1.33182e-20 -5.35523e-06 -5.1172e-21 6.36532e-09)
(1.29257e-06 -2.60909e-05 -2.95302e-20 -1.29012e-06 -1.05859e-20 -2.44767e-09)
(-3.01252e-06 -2.63651e-05 -9.81432e-20 3.01392e-06 -4.18621e-20 -1.39323e-09)
(-7.32094e-06 -2.59206e-05 -7.79298e-20 7.3188e-06 -2.87355e-20 2.13498e-09)
(-1.14465e-05 -2.4788e-05 1.00878e-19 1.14455e-05 3.98595e-20 9.771e-10)
(-1.53295e-05 -2.29977e-05 5.06105e-20 1.53296e-05 2.60421e-20 -6.90133e-11)
(-1.88326e-05 -2.06301e-05 -8.17717e-20 1.88304e-05 -3.09433e-20 2.24151e-09)
(-2.18797e-05 -1.77518e-05 2.83405e-19 2.18783e-05 1.08832e-19 1.3182e-09)
(-2.44173e-05 -1.4425e-05 -3.58045e-19 2.44165e-05 -1.35277e-19 8.15076e-10)
(-2.6379e-05 -1.07376e-05 3.65671e-19 2.63773e-05 1.34152e-19 1.69024e-09)
(-2.77123e-05 -6.77022e-06 -3.16146e-19 2.77109e-05 -7.72912e-20 1.45846e-09)
(1.10007e-05 -1.90569e-05 -2.93135e-21 -1.10007e-05 -1.18431e-21 5.6904e-11)
(7.91694e-06 -2.09309e-05 -5.43628e-20 -7.91484e-06 -2.116e-20 -2.1052e-09)
(4.45504e-06 -2.23158e-05 1.01715e-20 -4.4608e-06 4.79359e-21 5.76331e-09)
(8.63034e-07 -2.3119e-05 4.28521e-20 -8.60219e-07 1.79169e-20 -2.81499e-09)
(-2.94322e-06 -2.33329e-05 3.75211e-20 2.94444e-06 1.65914e-20 -1.22387e-09)
(-6.74753e-06 -2.29166e-05 1.26824e-19 6.74576e-06 5.42724e-20 1.76421e-09)
(-1.03851e-05 -2.19009e-05 1.98065e-19 1.03845e-05 6.87975e-20 5.73975e-10)
(-1.38082e-05 -2.03121e-05 8.7916e-20 1.38089e-05 2.68178e-20 -7.01743e-10)
(-1.68985e-05 -1.82225e-05 -1.12075e-19 1.68971e-05 -3.17252e-20 1.39369e-09)
(-1.9592e-05 -1.56896e-05 -4.679e-21 1.95911e-05 -1.61799e-20 9.14307e-10)
(-2.18452e-05 -1.27662e-05 1.61474e-20 2.18445e-05 3.72835e-20 7.58762e-10)
(-2.36011e-05 -9.52854e-06 -8.9235e-20 2.36001e-05 -5.68123e-20 1.0116e-09)
(-2.48181e-05 -6.03805e-06 3.1664e-19 2.48166e-05 1.28424e-19 1.4351e-09)
(9.52662e-06 -1.70041e-05 1.19227e-20 -9.5261e-06 5.16597e-21 -5.24947e-10)
(6.77673e-06 -1.86352e-05 -9.21166e-20 -6.77513e-06 -3.39135e-20 -1.6013e-09)
(3.69514e-06 -1.98315e-05 9.27233e-20 -3.70042e-06 3.49415e-20 5.28567e-09)
(5.08372e-07 -2.05137e-05 -5.28577e-20 -5.05834e-07 -2.07085e-20 -2.53707e-09)
(-2.86371e-06 -2.0675e-05 -4.98119e-20 2.86466e-06 -1.95139e-20 -9.51134e-10)
(-6.22867e-06 -2.02828e-05 1.38083e-19 6.2272e-06 4.90668e-20 1.47095e-09)
(-9.44258e-06 -1.93655e-05 -1.82365e-19 9.44189e-06 -8.08411e-20 6.91063e-10)
(-1.24646e-05 -1.79489e-05 -5.38392e-20 1.24651e-05 -1.92208e-20 -4.62834e-10)
(-1.51925e-05 -1.60967e-05 2.86166e-19 1.51913e-05 9.74209e-20 1.16071e-09)
(-1.75734e-05 -1.386e-05 -1.09058e-19 1.75731e-05 -4.11316e-20 3.31448e-10)
(-1.95718e-05 -1.12834e-05 3.77246e-19 1.95718e-05 1.12809e-19 -2.28697e-11)
(-2.11407e-05 -8.43132e-06 -2.03477e-19 2.11399e-05 -6.10437e-20 7.64088e-10)
(-2.22433e-05 -5.35542e-06 3.10781e-20 2.22429e-05 -3.29564e-20 4.2218e-10)
(-2.28466e-05 -2.11791e-06 4.68022e-20 2.28462e-05 1.31761e-20 3.80082e-10)
(8.25503e-06 -1.5192e-05 3.81025e-20 -8.25451e-06 1.40697e-20 -5.22817e-10)
(5.79846e-06 -1.66127e-05 -5.20108e-20 -5.79721e-06 -1.78939e-20 -1.25425e-09)
(3.05112e-06 -1.76463e-05 -1.23289e-20 -3.0555e-06 -5.32221e-21 4.37982e-09)
(2.18277e-07 -1.82236e-05 -8.66018e-20 -2.16313e-07 -3.24411e-20 -1.96446e-09)
(-2.77484e-06 -1.83398e-05 -1.33419e-19 2.77584e-06 -4.47967e-20 -1.00222e-09)
(-5.75632e-06 -1.79682e-05 1.27145e-19 5.75467e-06 3.76268e-20 1.65131e-09)
(-8.59938e-06 -1.71364e-05 -2.2412e-19 8.59903e-06 -7.46893e-20 3.47471e-10)
(-1.12706e-05 -1.58673e-05 -1.05107e-19 1.12708e-05 -3.70561e-20 -1.9991e-10)
(-1.36816e-05 -1.42188e-05 -2.91366e-19 1.36804e-05 -1.04462e-19 1.21219e-09)
(-1.57868e-05 -1.2236e-05 -7.95604e-20 1.57861e-05 -3.1585e-20 7.51969e-10)
(-1.75579e-05 -9.95819e-06 -3.80091e-19 1.75575e-05 -1.46187e-19 4.38796e-10)
(-1.89546e-05 -7.44044e-06 9.83216e-20 1.89539e-05 5.03023e-20 7.41406e-10)
(-1.99483e-05 -4.72533e-06 -5.2657e-19 1.99481e-05 -1.46557e-19 2.24796e-10)
(-2.051e-05 -1.86359e-06 9.2451e-20 2.05101e-05 4.93315e-20 -1.22189e-10)
(7.15633e-06 -1.35884e-05 -2.75922e-20 -7.15562e-06 -9.33768e-21 -7.15783e-10)
(4.95804e-06 -1.48266e-05 5.64726e-20 -4.95696e-06 2.04907e-20 -1.07691e-09)
(2.50539e-06 -1.57193e-05 9.99506e-21 -2.50933e-06 2.89176e-21 3.93236e-09)
(-1.74051e-08 -1.62062e-05 -1.83128e-19 1.94883e-08 -6.1214e-20 -2.08316e-09)
(-2.67779e-06 -1.62842e-05 2.06296e-19 2.67874e-06 7.20245e-20 -9.47613e-10)
(-5.32331e-06 -1.59308e-05 -2.86756e-19 5.32207e-06 -1.0372e-19 1.24012e-09)
(-7.84232e-06 -1.5173e-05 2.48315e-19 7.84202e-06 9.06415e-20 3.0121e-10)
(-1.0206e-05 -1.4032e-05 -4.19512e-20 1.02065e-05 -1.03814e-20 -5.21765e-10)
(-1.23374e-05 -1.25603e-05 2.2132e-19 1.23364e-05 8.22219e-20 1.00128e-09)
(-1.41989e-05 -1.0798e-05 -1.68197e-19 1.41987e-05 -5.68509e-20 1.42012e-10)
(-1.57677e-05 -8.77864e-06 -1.41911e-19 1.57675e-05 -1.50771e-20 1.10107e-10)
(-1.70103e-05 -6.54877e-06 2.45507e-19 1.70096e-05 8.20707e-20 7.1629e-10)
(-1.79018e-05 -4.1471e-06 4.25597e-19 1.79014e-05 1.5224e-19 4.47909e-10)
(-1.84178e-05 -1.61366e-06 2.91011e-19 1.84179e-05 7.22249e-20 -2.39491e-11)
(6.20555e-06 -1.21663e-05 2.74797e-20 -6.20454e-06 9.09102e-21 -1.01223e-09)
(4.23542e-06 -1.32459e-05 -2.77349e-20 -4.23462e-06 -8.41554e-21 -8.06049e-10)
(2.04285e-06 -1.40161e-05 1.7847e-20 -2.04655e-06 6.03836e-21 3.70112e-09)
(-2.07497e-07 -1.44254e-05 1.26173e-20 2.0945e-07 7.06216e-21 -1.95373e-09)
(-2.57547e-06 -1.44705e-05 -1.39422e-19 2.57614e-06 -4.94505e-20 -6.68935e-10)
(-4.92585e-06 -1.4134e-05 -1.59729e-19 4.92458e-06 -4.74241e-20 1.27152e-09)
(-7.16015e-06 -1.34409e-05 -1.16073e-19 7.15994e-06 -3.95775e-20 2.04131e-10)
(-9.25344e-06 -1.24121e-05 -3.51589e-20 9.25372e-06 -4.56496e-21 -2.77679e-10)
(-1.11396e-05 -1.10934e-05 1.07288e-20 1.11386e-05 3.97557e-21 9.95987e-10)
(-1.27861e-05 -9.52229e-06 -2.70852e-21 1.27857e-05 5.68832e-21 4.14733e-10)
(-1.41741e-05 -7.72781e-06 2.72871e-19 1.41739e-05 8.67218e-20 2.2747e-10)
(-1.52766e-05 -5.75051e-06 5.07482e-20 1.52766e-05 -4.97533e-21 3.05e-11)
(-1.60732e-05 -3.62194e-06 -1.01328e-19 1.60728e-05 -4.44354e-20 4.19767e-10)
(-1.65428e-05 -1.37635e-06 -7.56313e-20 1.65431e-05 -3.78232e-20 -3.18323e-10)
(-1.66653e-05 9.38578e-07 -4.11083e-19 1.6665e-05 -1.02546e-19 3.02129e-10)
(5.38188e-06 -1.09023e-05 3.70244e-20 -5.38087e-06 1.18443e-20 -1.01842e-09)
(3.61421e-06 -1.18442e-05 8.65453e-20 -3.6134e-06 2.83543e-20 -8.16896e-10)
(1.65153e-06 -1.25081e-05 -1.32157e-19 -1.65502e-06 -4.12235e-20 3.48559e-09)
(-3.57904e-07 -1.28504e-05 1.91652e-19 3.59838e-07 6.33982e-20 -1.93414e-09)
(-2.46843e-06 -1.28681e-05 3.22418e-20 2.46904e-06 1.27941e-20 -6.06736e-10)
(-4.55898e-06 -1.2547e-05 2.46488e-19 4.55769e-06 8.36297e-20 1.28784e-09)
(-6.54268e-06 -1.19116e-05 1.8939e-19 6.54277e-06 5.78698e-20 -9.4478e-11)
(-8.39791e-06 -1.09812e-05 1.47976e-19 8.39813e-06 5.07625e-20 -2.18604e-10)
(-1.00677e-05 -9.79689e-06 2.25969e-19 1.00672e-05 6.16727e-20 5.61295e-10)
(-1.15239e-05 -8.39287e-06 -9.89244e-20 1.15237e-05 -3.3012e-20 2.43423e-10)
(-1.27521e-05 -6.79388e-06 -1.19909e-19 1.27521e-05 -5.10705e-20 1.0276e-11)
(-1.37294e-05 -5.03582e-06 -1.58625e-19 1.37291e-05 -4.62672e-20 3.54556e-10)
(-1.44382e-05 -3.14628e-06 1.9361e-19 1.44382e-05 5.08793e-20 5.22307e-11)
(-1.48623e-05 -1.15365e-06 7.18808e-20 1.48624e-05 1.54606e-20 -1.73482e-10)
(-1.49832e-05 9.02989e-07 1.49679e-19 1.49828e-05 6.97212e-20 3.9129e-10)
(4.66742e-06 -9.77693e-06 -7.04591e-20 -4.66644e-06 -2.15307e-20 -9.80285e-10)
(3.07986e-06 -1.05989e-05 -7.22273e-21 -3.07908e-06 -2.33965e-21 -7.79707e-10)
(1.32076e-06 -1.11704e-05 2.18355e-19 -1.32396e-06 6.87343e-20 3.20465e-09)
(-4.75511e-07 -1.14552e-05 -4.45755e-21 4.77343e-07 -2.96434e-21 -1.83178e-09)
(-2.35822e-06 -1.14501e-05 -9.68934e-20 2.35887e-06 -2.92992e-20 -6.48133e-10)
(-4.2201e-06 -1.11435e-05 -3.01542e-20 4.21894e-06 -1.61115e-20 1.15761e-09)
(-5.98283e-06 -1.05598e-05 -2.41767e-19 5.98289e-06 -7.80007e-20 -5.37477e-11)
(-7.62833e-06 -9.71579e-06 6.43537e-20 7.62846e-06 2.16736e-20 -1.30038e-10)
(-9.10733e-06 -8.64964e-06 -2.86767e-19 9.1068e-06 -8.72291e-20 5.26406e-10)
(-1.03956e-05 -7.39156e-06 6.38127e-20 1.03953e-05 1.61173e-20 2.93661e-10)
(-1.14813e-05 -5.96454e-06 -1.20891e-19 1.14811e-05 -2.86093e-20 1.83956e-10)
(-1.23454e-05 -4.39899e-06 -2.38865e-20 1.23453e-05 -3.66723e-22 9.76103e-11)
(-1.29746e-05 -2.71877e-06 -2.50551e-19 1.29744e-05 -8.69022e-20 1.67683e-10)
(-1.33542e-05 -9.48426e-07 -1.30728e-19 1.33543e-05 -2.64804e-20 -7.65627e-11)
(-1.34688e-05 8.79089e-07 1.55138e-19 1.34688e-05 2.49762e-20 -2.25117e-11)
(4.04719e-06 -8.77371e-06 1.3802e-20 -4.04603e-06 4.28028e-21 -1.16047e-09)
(2.62001e-06 -9.49058e-06 -8.84567e-20 -2.6195e-06 -2.66972e-20 -5.0826e-10)
(1.04186e-06 -9.98221e-06 -1.4e-19 -1.04469e-06 -4.36582e-20 2.82248e-09)
(-5.65597e-07 -1.02174e-05 -2.92457e-20 5.67236e-07 -7.28036e-21 -1.63955e-09)
(-2.24684e-06 -1.01932e-05 1.34327e-19 2.24716e-06 4.045e-20 -3.19111e-10)
(-3.906e-06 -9.90088e-06 -1.55503e-19 3.90505e-06 -4.56642e-20 9.48475e-10)
(-5.47341e-06 -9.36351e-06 -1.5187e-20 5.47331e-06 5.09756e-21 9.34123e-11)
(-6.9341e-06 -8.59615e-06 2.79871e-19 6.93418e-06 7.57266e-20 -8.17369e-11)
(-8.24398e-06 -7.63469e-06 2.0311e-19 8.24331e-06 6.23337e-20 6.70455e-10)
(-9.38359e-06 -6.50525e-06 -2.5126e-19 9.38345e-06 -7.45682e-20 1.43168e-10)
(-1.0343e-05 -5.2289e-06 9.78188e-20 1.03426e-05 4.15857e-20 3.52609e-10)
(-1.11064e-05 -3.83219e-06 6.04248e-20 1.11063e-05 1.7941e-20 1.33404e-10)
(-1.16629e-05 -2.33661e-06 -1.90407e-19 1.16627e-05 -2.95488e-20 1.93682e-10)
(-1.20005e-05 -7.61258e-07 1.96469e-19 1.20007e-05 5.38101e-20 -1.71561e-10)
(-1.21064e-05 8.64735e-07 -1.69195e-19 1.21062e-05 -5.57899e-20 2.51619e-10)
(-1.19679e-05 2.51398e-06 1.5128e-19 1.19682e-05 4.60389e-20 -3.66683e-10)
(3.50846e-06 -7.87784e-06 6.66568e-21 -3.50735e-06 1.97954e-21 -1.10407e-09)
(2.22434e-06 -8.50295e-06 1.84912e-21 -2.22387e-06 8.90802e-22 -4.67176e-10)
(8.07389e-07 -8.92518e-06 -4.52378e-20 -8.09968e-07 -1.27228e-20 2.57926e-09)
(-6.31966e-07 -9.11791e-06 3.88987e-20 6.33563e-07 1.21089e-20 -1.59703e-09)
(-2.13453e-06 -9.0781e-06 -9.66515e-20 2.13488e-06 -2.68682e-20 -3.50399e-10)
(-3.61427e-06 -8.79971e-06 2.07439e-19 3.61342e-06 6.24809e-20 8.46946e-10)
(-5.00893e-06 -8.30411e-06 1.33798e-19 5.00898e-06 3.008e-20 -5.46614e-11)
(-6.30608e-06 -7.60551e-06 -4.67463e-19 6.30626e-06 -1.41127e-19 -1.80189e-10)
(-7.46678e-06 -6.73657e-06 4.84465e-20 7.46622e-06 1.90786e-20 5.6156e-10)
(-8.47486e-06 -5.72098e-06 1.81803e-20 8.4748e-06 1.05933e-20 5.83172e-11)
(-9.32213e-06 -4.57732e-06 2.40593e-19 9.32205e-06 5.91001e-20 7.1817e-11)
(-9.99565e-06 -3.3299e-06 1.57538e-19 9.99553e-06 2.71699e-20 1.14944e-10)
(-1.04865e-05 -1.99574e-06 2.88929e-19 1.04864e-05 8.68189e-20 6.89999e-11)
(-1.07849e-05 -5.93249e-07 -8.78249e-20 1.07851e-05 -2.63942e-20 -1.91234e-10)
(-1.08798e-05 8.54098e-07 -9.94722e-20 1.08798e-05 -1.67541e-20 -1.56945e-11)
(-1.07609e-05 2.32274e-06 2.21932e-19 1.07613e-05 4.3899e-20 -3.62279e-10)
(3.04025e-06 -7.07678e-06 1.98103e-20 -3.03917e-06 5.49865e-21 -1.08068e-09)
(1.88396e-06 -7.62185e-06 1.2042e-19 -1.88352e-06 3.41604e-20 -4.32874e-10)
(6.1085e-07 -7.9837e-06 8.06135e-21 -6.13196e-07 3.0583e-21 2.34592e-09)
(-6.79146e-07 -8.14003e-06 1.12352e-19 6.80588e-07 3.29413e-20 -1.442e-09)
(-2.023e-06 -8.08783e-06 2.26254e-20 2.02335e-06 5.68581e-21 -3.47337e-10)
(-3.34338e-06 -7.82278e-06 -1.05289e-19 3.34256e-06 -3.43559e-20 8.24077e-10)
(-4.58511e-06 -7.36516e-06 -2.29009e-19 4.5852e-06 -6.6433e-20 -8.9976e-11)
(-5.73733e-06 -6.72827e-06 -2.26495e-20 5.73757e-06 8.11264e-21 -2.44419e-10)
(-6.7662e-06 -5.94154e-06 1.88739e-19 6.76574e-06 5.34768e-20 4.61694e-10)
(-7.65759e-06 -5.02698e-06 -1.04942e-19 7.65755e-06 -2.97886e-20 3.34951e-11)
(-8.40543e-06 -4.00071e-06 -1.72397e-19 8.40535e-06 -5.49814e-20 7.77705e-11)
(-8.99875e-06 -2.88456e-06 -3.8107e-19 8.99862e-06 -9.99254e-20 1.29603e-10)
(-9.43038e-06 -1.69382e-06 2.10691e-19 9.4303e-06 4.72385e-20 7.94921e-11)
(-9.6925e-06 -4.43489e-07 2.24815e-19 9.6926e-06 4.5415e-20 -1.02824e-10)
(-9.77595e-06 8.46022e-07 -5.90155e-20 9.77598e-06 -1.35023e-20 -2.71329e-11)
(-9.67178e-06 2.15435e-06 -3.93677e-20 9.67193e-06 -7.4345e-21 -1.52679e-10)
(3.48941e-06 -5.79247e-06 -3.19795e-21 -3.48992e-06 -1.12044e-21 5.1014e-10)
(2.63314e-06 -6.35983e-06 6.98226e-21 -2.63207e-06 1.98818e-21 -1.07376e-09)
(1.59128e-06 -6.83477e-06 -7.09953e-20 -1.59094e-06 -1.9764e-20 -3.37288e-10)
(4.4665e-07 -7.14427e-06 -5.27297e-20 -4.48776e-07 -1.3924e-20 2.12647e-09)
(-7.10105e-07 -7.26946e-06 1.35189e-19 7.11423e-07 3.59324e-20 -1.31871e-09)
(-1.91269e-06 -7.20744e-06 -2.08048e-19 1.91294e-06 -5.66887e-20 -2.5242e-10)
(-3.0917e-06 -6.95534e-06 6.31271e-21 3.09089e-06 4.4316e-21 8.06629e-10)
(-4.19782e-06 -6.53236e-06 -5.42173e-20 4.1978e-06 -7.03956e-21 1.95512e-11)
(-5.22165e-06 -5.9509e-06 1.41649e-19 5.22172e-06 3.73788e-20 -6.59811e-11)
(-6.13355e-06 -5.2377e-06 1.11978e-19 6.13299e-06 2.66118e-20 5.6186e-10)
(-6.92158e-06 -4.41299e-06 1.30018e-19 6.92146e-06 3.71399e-20 1.14017e-10)
(-7.5811e-06 -3.49097e-06 7.43339e-21 7.581e-06 6.67314e-22 9.89974e-11)
(-8.1029e-06 -2.4915e-06 1.15469e-20 8.1028e-06 1.53351e-20 1.00819e-10)
(-8.48155e-06 -1.42732e-06 -3.71671e-20 8.48159e-06 -1.84724e-20 -4.20772e-11)
(-8.71054e-06 -3.11604e-07 -2.58036e-19 8.71068e-06 -6.43007e-20 -1.41773e-10)
(-8.78218e-06 8.37748e-07 -1.04513e-20 8.78223e-06 9.40261e-21 -5.42875e-11)
(-8.6889e-06 2.00356e-06 2.50155e-19 8.68914e-06 4.85936e-20 -2.48158e-10)
(-8.42518e-06 3.1627e-06 2.61952e-20 8.42519e-06 -4.96483e-21 -8.16326e-12)
(3.05275e-06 -5.21864e-06 9.00403e-21 -3.05324e-06 2.39193e-21 4.89663e-10)
(2.27906e-06 -5.71742e-06 -4.69899e-20 -2.27808e-06 -1.23854e-20 -9.849e-10)
(1.3398e-06 -6.13098e-06 -5.76955e-20 -1.3395e-06 -1.51648e-20 -3.0237e-10)
(3.10208e-07 -6.39508e-06 4.54932e-20 -3.12123e-07 1.25748e-20 1.91473e-09)
(-7.27642e-07 -6.49375e-06 -9.0114e-20 7.2884e-07 -2.3958e-20 -1.19785e-09)
(-1.80426e-06 -6.42417e-06 1.39543e-19 1.80451e-06 3.98308e-20 -2.53504e-10)
(-2.85731e-06 -6.18484e-06 8.31166e-20 2.85663e-06 2.34719e-20 6.79239e-10)
(-3.84288e-06 -5.79374e-06 2.43229e-19 3.843e-06 6.38932e-20 -1.24068e-10)
(-4.75284e-06 -5.26235e-06 -2.07199e-19 4.75287e-06 -5.77594e-20 -2.86373e-11)
(-5.56123e-06 -4.61507e-06 -1.37248e-20 5.56085e-06 -4.4594e-21 3.79858e-10)
(-6.25787e-06 -3.87046e-06 1.00058e-19 6.25772e-06 1.60512e-20 1.47582e-10)
(-6.8392e-06 -3.04092e-06 -2.11829e-19 6.83913e-06 -4.9106e-20 7.01498e-11)
(-7.29768e-06 -2.14447e-06 2.88214e-20 7.29743e-06 9.09553e-21 2.53627e-10)
(-7.62884e-06 -1.19258e-06 9.65941e-21 7.62868e-06 6.3462e-21 1.53365e-10)
(-7.82745e-06 -1.96524e-07 1.59229e-19 7.82763e-06 4.26835e-20 -1.75452e-10)
(-7.88764e-06 8.2826e-07 1.36782e-19 7.88763e-06 1.73119e-20 6.79423e-12)
(-7.80254e-06 1.86781e-06 -2.41261e-19 7.8028e-06 -5.83877e-20 -2.66326e-10)
(-7.56786e-06 2.90124e-06 -1.34227e-19 7.56795e-06 -1.4282e-20 -9.20495e-11)
(2.67046e-06 -4.70286e-06 -2.28968e-21 -2.67098e-06 -1.12997e-21 5.18222e-10)
(1.97111e-06 -5.14127e-06 4.38077e-21 -1.97017e-06 1.12633e-21 -9.4336e-10)
(1.1239e-06 -5.50115e-06 2.04088e-20 -1.12361e-06 5.80207e-21 -2.9173e-10)
(1.97453e-07 -5.72587e-06 1.52844e-19 -1.99196e-07 3.99975e-20 1.74387e-09)
(-7.34235e-07 -5.80197e-06 4.17573e-20 7.35351e-07 1.05652e-20 -1.11581e-09)
(-1.69849e-06 -5.72683e-06 5.94629e-20 1.6987e-06 1.27962e-20 -2.18011e-10)
(-2.6395e-06 -5.49983e-06 -3.43536e-20 2.63888e-06 -1.02586e-20 6.25576e-10)
(-3.51787e-06 -5.13808e-06 4.02405e-20 3.51797e-06 1.36383e-20 -1.03284e-10)
(-4.32661e-06 -4.65209e-06 9.92495e-21 4.32672e-06 5.16136e-21 -1.08943e-10)
(-5.04328e-06 -4.06416e-06 -6.46869e-20 5.04295e-06 -1.99302e-20 3.33211e-10)
(-5.65882e-06 -3.39106e-06 -1.90308e-19 5.65874e-06 -4.74763e-20 8.88119e-11)
(-6.17066e-06 -2.64441e-06 1.8459e-19 6.17066e-06 5.38804e-20 -9.10279e-13)
(-6.57276e-06 -1.83995e-06 -2.38868e-20 6.57276e-06 -3.97232e-21 -7.47437e-12)
(-6.86174e-06 -9.87614e-07 9.80734e-20 6.86173e-06 1.54082e-20 1.47375e-11)
(-7.0333e-06 -9.71188e-08 -1.31181e-19 7.0334e-06 -3.59607e-20 -1.00741e-10)
(-7.08241e-06 8.17277e-07 -2.73666e-19 7.08238e-06 -7.0096e-20 3.25494e-11)
(-7.00355e-06 1.74417e-06 1.64778e-19 7.00379e-06 4.68501e-20 -2.42612e-10)
(-6.79319e-06 2.66557e-06 3.21621e-19 6.79313e-06 6.54367e-20 5.62518e-11)
(2.33563e-06 -4.23892e-06 -4.57873e-21 -2.33613e-06 -8.46034e-22 5.03424e-10)
(1.70321e-06 -4.62417e-06 4.40535e-20 -1.70235e-06 1.11032e-20 -8.63913e-10)
(9.38761e-07 -4.93705e-06 3.60492e-20 -9.38486e-07 9.14305e-21 -2.75147e-10)
(1.04774e-07 -5.1276e-06 -7.22171e-20 -1.06397e-07 -1.85985e-20 1.62307e-09)
(-7.31902e-07 -5.18466e-06 -8.96724e-20 7.32943e-07 -2.39767e-20 -1.041e-09)
(-1.59579e-06 -5.10556e-06 -1.9758e-19 1.59593e-06 -4.88306e-20 -1.38451e-10)
(-2.43693e-06 -4.89058e-06 -6.0348e-20 2.43631e-06 -1.044e-20 6.2485e-10)
(-3.21988e-06 -4.55585e-06 4.86692e-19 3.21991e-06 1.19838e-19 -2.77901e-11)
(-3.93887e-06 -4.11108e-06 4.79509e-20 3.9389e-06 4.03349e-21 -3.10516e-11)
(-4.57397e-06 -3.57662e-06 -6.66986e-20 4.57361e-06 -1.72199e-20 3.58424e-10)
(-5.11766e-06 -2.96772e-06 -3.82824e-20 5.11759e-06 -1.57585e-21 6.61626e-11)
(-5.56819e-06 -2.29474e-06 1.10977e-19 5.56809e-06 1.80353e-20 9.99585e-11)
(-5.92039e-06 -1.57202e-06 9.56e-20 5.92021e-06 1.99824e-20 1.80441e-10)
(-6.17159e-06 -8.08538e-07 -1.81465e-19 6.17155e-06 -4.81037e-20 3.32849e-11)
(-6.3186e-06 -1.26941e-08 6.72248e-20 6.31881e-06 1.78999e-20 -2.09998e-10)
(-6.3575e-06 8.03728e-07 -1.89339e-19 6.35753e-06 -3.07316e-20 -2.17998e-11)
(-6.28354e-06 1.63037e-06 -5.23522e-20 6.28382e-06 -5.65781e-21 -2.78227e-10)
(-6.09373e-06 2.45173e-06 -1.71626e-19 6.09377e-06 -3.26137e-20 -3.9945e-11)
(-5.7852e-06 3.25295e-06 1.60351e-19 5.78545e-06 4.40548e-21 -2.44532e-10)
(2.04231e-06 -3.82134e-06 -1.20169e-20 -2.04277e-06 -2.94436e-21 4.62904e-10)
(1.47023e-06 -4.15973e-06 -2.64831e-20 -1.46943e-06 -6.45633e-21 -7.96775e-10)
(7.80268e-07 -4.43148e-06 4.97936e-20 -7.79994e-07 1.22415e-20 -2.74399e-10)
(2.93299e-08 -4.59246e-06 5.18091e-20 -3.07859e-08 1.32381e-20 1.45606e-09)
(-7.2224e-07 -4.63345e-06 9.20358e-20 7.23211e-07 2.28919e-20 -9.7157e-10)
(-1.4964e-06 -4.55184e-06 1.97093e-19 1.49655e-06 5.07804e-20 -1.5081e-10)
(-2.24823e-06 -4.3487e-06 3.82257e-20 2.24772e-06 3.00901e-21 5.13144e-10)
(-2.94638e-06 -4.03897e-06 -1.36562e-19 2.94655e-06 -4.0062e-20 -1.65076e-10)
(-3.58554e-06 -3.63177e-06 -1.9679e-19 3.58556e-06 -4.87233e-20 -2.61682e-11)
(-4.14839e-06 -3.14535e-06 -7.66189e-20 4.14811e-06 -8.88491e-21 2.81021e-10)
(-4.62844e-06 -2.5942e-06 7.91796e-20 4.62834e-06 1.57597e-20 9.71146e-11)
(-5.02439e-06 -1.98761e-06 -2.46799e-19 5.02435e-06 -5.88199e-20 3.02875e-11)
(-5.33238e-06 -1.33783e-06 -3.09582e-22 5.33229e-06 -1.66192e-21 9.21492e-11)
(-5.55031e-06 -6.53152e-07 -1.55717e-19 5.55023e-06 -2.69915e-20 7.99642e-11)
(-5.6756e-06 5.89839e-08 -4.11973e-20 5.67567e-06 -1.53517e-20 -6.81901e-11)
(-5.70511e-06 7.8791e-07 3.52196e-20 5.70504e-06 1.24113e-20 6.02254e-11)
(-5.63487e-06 1.52526e-06 2.85568e-19 5.63509e-06 6.60022e-20 -2.18946e-10)
(-5.46259e-06 2.25748e-06 3.32948e-19 5.46262e-06 6.36703e-20 -3.3032e-11)
(-5.18598e-06 2.97143e-06 -2.17313e-19 5.18616e-06 -4.03962e-20 -1.82516e-10)
(1.78528e-06 -3.4452e-06 2.31369e-21 -1.78577e-06 3.27156e-22 4.83468e-10)
(1.26759e-06 -3.74237e-06 1.88744e-20 -1.26685e-06 4.54324e-21 -7.33481e-10)
(6.44719e-07 -3.97812e-06 -9.68046e-20 -6.4447e-07 -2.28158e-20 -2.48995e-10)
(-3.16303e-08 -4.11349e-06 6.4567e-20 3.02676e-08 1.43856e-20 1.36274e-09)
(-7.06919e-07 -4.141e-06 -1.58632e-19 7.07806e-07 -3.74418e-20 -8.86773e-10)
(-1.40085e-06 -4.05808e-06 1.44419e-19 1.40096e-06 3.04844e-20 -1.08282e-10)
(-2.07311e-06 -3.8663e-06 -5.26437e-19 2.07262e-06 -1.25999e-19 4.86621e-10)
(-2.69562e-06 -3.57975e-06 3.13691e-20 2.69573e-06 1.1801e-20 -1.07015e-10)
(-3.26371e-06 -3.20667e-06 -5.97483e-20 3.26363e-06 -8.56538e-21 7.41828e-11)
(-3.7622e-06 -2.76415e-06 3.92611e-19 3.76194e-06 8.70717e-20 2.61163e-10)
(-4.18584e-06 -2.26495e-06 -1.17933e-19 4.18581e-06 -3.11596e-20 2.86711e-11)
(-4.53375e-06 -1.71753e-06 2.66009e-20 4.53363e-06 1.23522e-20 1.26705e-10)
(-4.80253e-06 -1.13311e-06 -2.09078e-21 4.8025e-06 2.94272e-21 3.36049e-11)
(-4.9909e-06 -5.19123e-07 1.09824e-19 4.99086e-06 3.01905e-20 3.98266e-11)
(-5.09687e-06 1.18249e-07 -2.21313e-19 5.09702e-06 -4.8968e-20 -1.49054e-10)
(-5.11796e-06 7.69466e-07 -9.9466e-20 5.1179e-06 -1.40703e-20 6.09842e-11)
(-5.05079e-06 1.42728e-06 1.26194e-19 5.05099e-06 1.62814e-20 -1.99259e-10)
(-4.89371e-06 2.07976e-06 -1.46888e-19 4.89375e-06 -4.29841e-20 -4.35295e-11)
(-4.64467e-06 2.71603e-06 2.21103e-19 4.64484e-06 4.25595e-20 -1.69416e-10)
(1.56003e-06 -3.10622e-06 -5.79718e-21 -1.56051e-06 -1.28767e-21 4.76053e-10)
(1.09153e-06 -3.36707e-06 -5.07398e-20 -1.09081e-06 -1.17021e-20 -7.15898e-10)
(5.29113e-07 -3.57132e-06 5.73899e-20 -5.28877e-07 1.34841e-20 -2.36384e-10)
(-8.02123e-08 -3.68458e-06 -1.09253e-19 7.89613e-08 -2.51081e-20 1.25103e-09)
(-6.87003e-07 -3.70088e-06 2.01779e-19 6.87848e-07 4.71944e-20 -8.45472e-10)
(-1.30917e-06 -3.61762e-06 -2.4346e-20 1.30925e-06 -7.81861e-21 -8.40983e-11)
(-1.91028e-06 -3.43689e-06 4.18637e-20 1.90981e-06 1.4956e-20 4.64907e-10)
(-2.46517e-06 -3.17188e-06 3.39965e-20 2.46526e-06 8.86043e-21 -9.29833e-11)
(-2.97006e-06 -2.83012e-06 -6.59608e-20 2.9701e-06 -1.66276e-20 -4.60863e-11)
(-3.41167e-06 -2.42723e-06 -2.44471e-19 3.41143e-06 -5.5253e-20 2.38464e-10)