/*--------------------------------*- C++ -*----------------------------------*\
| =========                 |                                                 |
| \\      /  F ield         | OpenFOAM: The Open Source CFD Toolbox           |
|  \\    /   O peration     | Version:  2306                                  |
|   \\  /    A nd           | Website:  www.openfoam.com                      |
|    \\/     M anipulation  |                                                 |
\*---------------------------------------------------------------------------*/
FoamFile
{
    version     2.0;
    format      ascii;
    arch        "LSB;label=32;scalar=64";
    class       volScalarField;
    location    "0.014";
    object      T;
}
// * * * * * * * * * * * * * * * * * * * * * * * * * * * * * * * * * * * * * //

dimensions      [0 0 0 1 0 0 0];

internalField   nonuniform List<scalar> 
20000
(
298.49334
298.58949
298.6117
298.55579
298.359
297.86334
297.52689
297.52524
297.56217
297.58441
297.62023
297.64897
297.685
297.71963
297.75917
297.79975
297.84428
297.8908
297.94069
297.99289
298.04753
298.10355
298.16
298.21501
298.26635
298.31152
298.34776
298.37367
298.3878
298.39055
298.38296
298.36701
298.34465
298.31814
298.2899
298.26215
298.23464
298.20737
298.18192
298.15868
298.13803
298.11988
298.10342
298.09145
298.07683
298.06142
298.05267
298.05555
298.05162
298.03906
298.49406
298.59067
298.6115
298.55088
298.34518
297.82731
297.53335
297.53796
297.57482
297.5969
297.63302
297.66194
297.6985
297.73356
297.77367
297.81493
297.86023
297.90767
297.95851
298.01171
298.06735
298.12428
298.18147
298.23689
298.28819
298.33274
298.36784
298.39203
298.40392
298.40438
298.39453
298.37636
298.35209
298.32398
298.29448
298.26566
298.23767
298.21005
298.18412
298.16048
298.13954
298.12115
298.1046
298.09248
298.07735
298.06179
298.05452
298.05622
298.05161
298.03863
298.49704
298.59264
298.61078
298.54391
298.32597
297.78831
297.54088
297.551
297.58842
297.61072
297.6473
297.67665
297.71367
297.74929
297.79003
297.832
297.87811
297.92641
297.97818
298.03235
298.0889
298.14663
298.20434
298.2599
298.31082
298.35433
298.38788
298.40987
298.41923
298.41712
298.40478
298.38436
298.35814
298.3284
298.29759
298.26788
298.23945
298.21161
298.18537
298.16147
298.14035
298.1218
298.10517
298.09299
298.07747
298.06199
298.05478
298.05654
298.05154
298.03833
298.49826
298.59406
298.61046
298.53755
298.30636
297.75572
297.55261
297.56573
297.6034
297.62577
297.66276
297.69246
297.72997
297.76615
297.80753
297.85025
297.89716
297.94641
297.99913
298.05429
298.11177
298.17032
298.22858
298.28427
298.33476
298.37718
298.40908
298.42871
298.43548
298.43066
298.41572
298.39294
298.36471
298.33329
298.30117
298.27055
298.24166
298.21352
298.18692
298.1627
298.14137
298.12263
298.10595
298.09367
298.07765
298.06235
298.05571
298.05685
298.0515
298.03802
298.50044
298.59631
298.61087
298.53126
298.28367
297.72811
297.56653
297.58141
297.61958
297.64214
297.67956
297.70967
297.74768
297.78446
297.82651
297.86999
297.91776
297.96793
298.02165
298.07783
298.13625
298.19558
298.25431
298.31002
298.35991
298.40106
298.43104
298.44803
298.45206
298.44435
298.42667
298.40145
298.37113
298.33798
298.3045
298.27295
298.2436
298.21521
298.18828
298.16377
298.14225
298.12335
298.10661
298.09428
298.07775
298.06263
298.05625
298.05715
298.05144
298.03771
298.5005
298.59776
298.6114
298.52515
298.25863
297.70536
297.58465
297.59872
297.63722
297.6599
297.69775
297.72827
297.76677
297.80417
297.84689
297.89117
297.93979
297.99096
298.04569
298.10288
298.16224
298.22233
298.28149
298.33711
298.38625
298.42597
298.4538
298.46796
298.46906
298.45829
298.43774
298.40998
298.37751
298.34261
298.30777
298.27533
298.24554
298.21688
298.18962
298.16483
298.14312
298.12405
298.10728
298.09489
298.07783
298.06298
298.05693
298.05746
298.05139
298.0374
298.50497
298.60246
298.61434
298.52095
298.23131
297.68778
297.60539
297.61729
297.65623
297.67908
297.71733
297.74827
297.78728
297.82531
297.86874
297.91383
297.96336
298.01552
298.0713
298.12954
298.18984
298.25067
298.31018
298.36558
298.41381
298.45191
298.47728
298.48847
298.48641
298.47243
298.44892
298.41855
298.38388
298.34717
298.31092
298.27754
298.24732
298.21842
298.19086
298.1658
298.14393
298.12471
298.10792
298.09548
298.07788
298.06331
298.05751
298.05778
298.05133
298.0371
298.50726
298.60608
298.61725
298.51698
298.20138
297.67553
297.62477
297.63739
297.67663
297.69961
297.73829
297.76966
297.8092
297.8479
297.89205
297.93801
297.98845
298.04168
298.0985
298.1578
298.21904
298.28056
298.34034
298.39539
298.44254
298.4788
298.50141
298.50947
298.50402
298.48668
298.46008
298.42701
298.3901
298.35158
298.31393
298.27967
298.24902
298.21987
298.192
298.1667
298.14468
298.12533
298.10853
298.09606
298.07792
298.06366
298.05809
298.05811
298.05128
298.0368
298.51151
298.61107
298.6215
298.51466
298.16929
297.6693
297.64659
297.65866
297.69832
297.72151
297.7606
297.79246
297.83254
297.87194
297.91687
297.96372
298.01513
298.06942
298.12735
298.18773
298.24989
298.31206
298.37202
298.42657
298.47246
298.5066
298.52616
298.53092
298.52188
298.50104
298.47126
298.43545
298.39627
298.3559
298.31682
298.28163
298.25057
298.22119
298.19304
298.1675
298.14534
298.12588
298.1091
298.09661
298.07795
298.06401
298.05864
298.05846
298.05122
298.03652
298.51508
298.61584
298.62549
298.51235
298.13522
297.66837
297.66933
297.68132
297.72133
297.74475
297.78431
297.81668
297.85733
297.89748
297.9432
297.991
298.0434
298.09883
298.15787
298.21932
298.28239
298.34516
298.40518
298.45906
298.5035
298.5352
298.5515
298.55271
298.53986
298.51538
298.48231
298.4437
298.40222
298.36001
298.31954
298.28348
298.25202
298.2224
298.19397
298.16821
298.14593
298.12637
298.10962
298.0971
298.07799
298.06437
298.05918
298.05882
298.05118
298.03625
298.52044
298.62171
298.63037
298.51151
298.1011
297.67382
297.69355
297.70529
297.74574
297.76941
297.80942
297.84233
297.88358
297.92451
297.97109
298.01987
298.07333
298.12989
298.19009
298.25265
298.31661
298.3799
298.43985
298.49288
298.53565
298.56456
298.57741
298.57478
298.55796
298.52972
298.49331
298.45186
298.40805
298.364
298.32211
298.28516
298.25331
298.22348
298.19478
298.16881
298.14644
298.12679
298.1101
298.0975
298.07802
298.06472
298.05969
298.05919
298.05113
298.036
298.52557
298.62753
298.63471
298.51007
298.0673
297.68506
297.71892
297.73061
297.77143
297.79539
297.83591
297.86943
297.91133
297.95309
298.00055
298.05038
298.10492
298.16269
298.22405
298.2877
298.35252
298.41626
298.476
298.52799
298.56882
298.59457
298.60376
298.59703
298.57605
298.54392
298.50408
298.45975
298.41363
298.36774
298.32449
298.2867
298.25449
298.22444
298.19548
298.16932
298.14686
298.12714
298.11052
298.09773
298.07807
298.06507
298.06018
298.05955
298.05109
298.03575
298.53088
298.63325
298.63886
298.50815
298.03538
297.70155
297.74548
297.75716
297.7985
297.82283
297.86387
297.89804
297.94062
297.98326
298.03167
298.08256
298.13825
298.19723
298.2598
298.32455
298.39019
298.45429
298.51364
298.56439
298.60294
298.62522
298.63052
298.61942
298.59411
298.55798
298.51467
298.46746
298.41901
298.37131
298.32669
298.28806
298.25551
298.22526
298.19605
298.16973
298.1472
298.12742
298.11088
298.09784
298.07812
298.06541
298.06065
298.05991
298.05103
298.03548
298.53638
298.63966
298.64277
298.50451
298.00686
297.72301
297.77353
297.78529
297.82707
297.85178
297.89339
297.92824
297.97152
298.01508
298.06445
298.11647
298.17333
298.2336
298.29737
298.3632
298.4296
298.49394
298.55273
298.60202
298.63789
298.65644
298.65752
298.64181
298.612
298.57178
298.52495
298.47484
298.42409
298.3746
298.32867
298.28927
298.25641
298.22596
298.19652
298.17005
298.14747
298.12763
298.1112
298.09789
298.07817
298.06574
298.0611
298.06024
298.05095
298.03518
298.5442
298.64781
298.64766
298.49959
297.98346
297.74741
297.80315
297.81496
297.85724
297.88236
297.9245
297.96007
298.00408
298.04859
298.09897
298.15214
298.21026
298.27181
298.3368
298.4037
298.47081
298.53525
298.59326
298.64084
298.67361
298.68819
298.6847
298.66416
298.6297
298.58532
298.53495
298.48195
298.42892
298.37768
298.33046
298.29029
298.25713
298.22652
298.19689
298.17028
298.14766
298.12778
298.11146
298.09785
298.07822
298.06607
298.06152
298.06055
298.05085
298.03484
298.55211
298.65677
298.65255
298.49123
297.96583
297.7793
297.8343
297.84625
297.88897
297.91451
297.95724
297.99356
298.03832
298.08383
298.13524
298.18968
298.24905
298.3119
298.37813
298.44606
298.51379
298.57817
298.6352
298.68075
298.70998
298.72033
298.71193
298.68633
298.64709
298.59847
298.54454
298.48867
298.43339
298.38046
298.33201
298.29114
298.25773
298.22696
298.1971
298.17037
298.14773
298.12789
298.11168
298.09773
298.0783
298.06641
298.0619
298.06083
298.05073
298.03447
298.56081
298.66693
298.65872
298.48011
297.95523
297.81036
297.86697
297.87905
297.9223
297.94834
297.99163
298.02875
298.07432
298.12085
298.17337
298.22904
298.28971
298.35392
298.42139
298.49033
298.55859
298.62273
298.67854
298.72166
298.74696
298.75276
298.73913
298.70826
298.66413
298.61124
298.55375
298.49504
298.43757
298.38298
298.33334
298.2918
298.25816
298.22725
298.19715
298.17035
298.14771
298.12792
298.11185
298.09751
298.07839
298.06677
298.06227
298.06109
298.05058
298.03406
298.56923
298.67811
298.66591
298.46492
297.95065
297.84283
297.90127
297.91356
297.95728
297.98383
298.02773
298.06569
298.11207
298.15968
298.21332
298.27033
298.33233
298.3979
298.46661
298.53651
298.60517
298.66888
298.72321
298.76343
298.78449
298.78532
298.76617
298.72983
298.68068
298.62348
298.56246
298.50096
298.44136
298.38518
298.33444
298.29232
298.25846
298.22734
298.19711
298.17025
298.14762
298.12787
298.11196
298.0972
298.07848
298.06716
298.06262
298.06134
298.05041
298.03361
298.57984
298.69145
298.67587
298.44716
297.95348
297.87788
297.93726
297.94972
297.99394
298.02102
298.06552
298.10434
298.15161
298.20033
298.25519
298.31353
298.37692
298.4439
298.51385
298.58464
298.65357
298.7166
298.76914
298.80596
298.82245
298.8179
298.79294
298.75096
298.69673
298.63523
298.57072
298.50648
298.44481
298.3871
298.33534
298.29265
298.25855
298.22732
298.19693
298.17003
298.14744
298.12777
298.112
298.09679
298.07852
298.06758
298.06299
298.06158
298.0502
298.03312
298.59055
298.7057
298.68735
298.42542
297.96364
297.91442
297.97471
297.98743
298.03213
298.05981
298.10498
298.14475
298.19294
298.24287
298.29896
298.35874
298.42356
298.49195
298.56312
298.63473
298.70374
298.76586
298.81624
298.84913
298.86073
298.85035
298.81931
298.77152
298.71215
298.64634
298.57839
298.5115
298.44783
298.38869
298.33601
298.29274
298.2585
298.22714
298.19663
298.16972
298.14717
298.12761
298.11199
298.09627
298.07849
298.06803
298.06339
298.06183
298.04996
298.03258
298.60158
298.72052
298.70069
298.40175
297.98042
297.95251
298.01361
298.02662
298.07191
298.10026
298.14613
298.18693
298.23614
298.28732
298.34475
298.40598
298.47229
298.54212
298.61449
298.6868
298.7557
298.81663
298.86437
298.89286
298.89913
298.88255
298.84517
298.79144
298.72691
298.65685
298.58553
298.51605
298.45045
298.38999
298.33637
298.29267
298.25829
298.22682
298.19618
298.1693
298.14682
298.1274
298.11194
298.09566
298.07844
298.06848
298.06384
298.06207
298.04969
298.032
298.6128
298.73598
298.71523
298.37678
298.00489
297.99205
298.05404
298.06745
298.11333
298.14242
298.18909
298.23099
298.28127
298.33379
298.39259
298.45537
298.52318
298.59445
298.66795
298.74083
298.80942
298.86882
298.91339
298.93709
298.93752
298.91435
298.87038
298.8106
298.74088
298.66661
298.59202
298.52004
298.45263
298.39096
298.33648
298.29243
298.25791
298.22633
298.19561
298.16878
298.14638
298.12713
298.11184
298.09495
298.07833
298.0689
298.06435
298.06232
298.04937
298.03136
298.6257
298.75257
298.73108
298.35257
298.03754
298.03334
298.09621
298.11006
298.15659
298.1865
298.23397
298.27703
298.32845
298.38234
298.44258
298.50692
298.57628
298.64899
298.72356
298.79685
298.86485
298.92236
298.96314
298.98162
298.97569
298.94559
298.89483
298.82894
298.75407
298.67568
298.5979
298.52352
298.45441
298.39154
298.33638
298.29199
298.25738
298.22568
298.1949
298.16815
298.14585
298.12681
298.11168
298.09417
298.07817
298.06928
298.06495
298.06256
298.049
298.03068
298.63998
298.77036
298.74752
298.33103
298.0732
298.0766
298.14035
298.15468
298.20182
298.23257
298.28088
298.32514
298.37772
298.43305
298.49477
298.56073
298.63165
298.70578
298.78132
298.85484
298.92196
298.97714
299.01353
299.02632
299.01351
298.97613
298.91838
298.84632
298.76634
298.68393
298.60307
298.52642
298.45578
298.39174
298.33602
298.29138
298.25666
298.22487
298.19406
298.16743
298.14525
298.12643
298.11144
298.09332
298.07798
298.06964
298.0656
298.06278
298.04859
298.02995
298.65551
298.78923
298.76359
298.3137
298.12087
298.12175
298.1864
298.20126
298.24905
298.2807
298.32985
298.37536
298.42918
298.48598
298.54925
298.61684
298.68935
298.76485
298.84126
298.91478
298.9807
299.03295
299.06439
299.07095
299.05077
299.00581
298.94094
298.8627
298.77771
298.69139
298.60757
298.52879
298.45665
298.39166
298.33543
298.29059
298.25579
298.22389
298.19309
298.1666
298.14457
298.126
298.11113
298.09243
298.07778
298.07001
298.06626
298.06297
298.04811
298.02918
298.67263
298.81
298.77854
298.30223
298.16502
298.16892
298.23446
298.24989
298.29831
298.33089
298.38093
298.42775
298.48284
298.54119
298.60604
298.67534
298.74943
298.82626
298.90338
298.97665
299.04098
299.08965
299.11566
299.11532
299.08732
299.03447
298.96236
298.87797
298.78805
298.69795
298.61132
298.53063
298.45698
298.39124
298.33461
298.28961
298.25474
298.22275
298.19199
298.16568
298.14381
298.1255
298.11068
298.09152
298.0776
298.07039
298.06693
298.0631
298.04757
298.02838
298.69158
298.8329
298.79146
298.29738
298.21328
298.21799
298.28441
298.3005
298.34958
298.38317
298.43415
298.48235
298.53879
298.59874
298.66524
298.73627
298.81195
298.89003
298.96767
299.04039
299.10267
299.14704
299.16706
299.15918
299.12294
299.06196
298.98255
298.89209
298.79739
298.70367
298.61442
298.53188
298.45694
298.39049
298.33355
298.28847
298.25352
298.22145
298.19075
298.16466
298.14297
298.12493
298.11006
298.09064
298.07744
298.07077
298.0676
298.06321
298.04697
298.02755
298.71108
298.8576
298.80084
298.30027
298.26375
298.26891
298.3363
298.35313
298.40292
298.4376
298.48957
298.53922
298.59707
298.6587
298.72692
298.79972
298.87697
298.95619
299.03414
299.10598
299.16565
299.20499
299.21844
299.20238
299.15746
299.08814
299.0014
298.90495
298.80561
298.70845
298.61683
298.5324
298.45646
298.38942
298.33227
298.28714
298.25213
298.21998
298.18939
298.16355
298.14206
298.12428
298.10919
298.08981
298.07729
298.07116
298.06826
298.0633
298.0463
298.02669
298.73219
298.88412
298.80716
298.31084
298.31678
298.32192
298.39024
298.40789
298.4584
298.49424
298.54725
298.59843
298.65778
298.72116
298.79116
298.86576
298.94454
299.02475
299.10276
299.1733
299.22964
299.26331
299.26945
299.24462
299.19065
299.11285
299.01882
298.91654
298.81276
298.7124
298.61853
298.53244
298.45553
298.38802
298.33078
298.28566
298.25057
298.21834
298.18791
298.16234
298.14106
298.12353
298.10809
298.08896
298.07713
298.07154
298.06894
298.06338
298.04555
298.02582
298.75379
298.91318
298.81024
298.33215
298.37175
298.3769
298.4462
298.46476
298.51604
298.55314
298.60726
298.66008
298.72101
298.78621
298.85805
298.93448
299.0147
299.09575
299.17349
299.24229
299.29448
299.32188
299.31988
299.28574
299.22237
299.13597
299.03472
298.92675
298.81874
298.71545
298.61929
298.5319
298.45418
298.38633
298.32907
298.284
298.24882
298.21655
298.18632
298.16104
298.13999
298.12268
298.10677
298.08807
298.07696
298.07191
298.06962
298.06336
298.04473
298.02492
298.77512
298.94525
298.81153
298.36314
298.42873
298.43393
298.50426
298.52383
298.57595
298.61442
298.66975
298.72428
298.78688
298.85395
298.92772
299.00591
299.08751
299.16914
299.24627
299.31272
299.3599
299.38033
299.36939
299.32541
299.25238
299.15736
299.04903
298.93561
298.82366
298.71765
298.61943
298.53083
298.45241
298.38433
298.32717
298.28219
298.24692
298.2146
298.18461
298.15965
298.13884
298.12171
298.10522
298.0871
298.07676
298.07228
298.07031
298.06325
298.04384
298.02401
298.79612
298.98016
298.81217
298.40372
298.48771
298.49312
298.56455
298.58527
298.63831
298.67824
298.73484
298.79118
298.8555
298.92456
299.00021
299.08015
299.16298
299.24493
299.32105
299.38444
299.42577
299.43845
299.41781
299.36349
299.28056
299.17693
299.06167
298.94304
298.82747
298.71868
298.61886
298.52919
298.45024
298.38206
298.32507
298.28019
298.24482
298.21251
298.18281
298.15818
298.13762
298.12063
298.10347
298.08606
298.07654
298.07265
298.07101
298.06304
298.04287
298.02309
298.81692
299.01796
298.81422
298.45367
298.54913
298.55484
298.62739
298.64935
298.70332
298.74478
298.80272
298.86092
298.92704
298.99809
299.07562
299.15724
299.24112
299.32308
299.39766
299.45709
299.49181
299.49579
299.46472
299.39964
299.30669
299.19456
299.07262
298.94912
298.8302
298.71892
298.61763
298.52704
298.44768
298.37952
298.32279
298.27806
298.24257
298.21027
298.18091
298.15662
298.13632
298.11945
298.10156
298.08499
298.07631
298.07301
298.07171
298.0627
298.04183
298.02218
298.83741
299.05791
298.81919
298.50693
298.61326
298.61935
298.69298
298.71622
298.77113
298.81416
298.87347
298.93359
299.00158
299.07463
299.15404
299.23724
299.32194
299.40355
299.476
299.5305
299.55782
299.55213
299.50995
299.43372
299.33067
299.21016
299.08181
298.95382
298.83149
298.71827
298.61567
298.52436
298.44476
298.37674
298.32033
298.27573
298.24013
298.2079
298.17892
298.15498
298.13497
298.11816
298.09955
298.08392
298.07609
298.07334
298.07237
298.0622
298.04072
298.02129
298.85718
299.09886
298.82949
298.56797
298.67997
298.68652
298.76124
298.78587
298.84176
298.88644
298.9472
299.0093
299.07921
299.15429
299.23555
299.32018
299.40543
299.48622
299.55578
299.60429
299.62332
299.60698
299.55307
299.46543
299.35231
299.22367
299.08931
298.95714
298.8318
298.7168
298.61309
298.5212
298.44148
298.37372
298.31773
298.27327
298.23753
298.20541
298.17685
298.15327
298.13356
298.11678
298.09752
298.08293
298.0759
298.07362
298.07298
298.06151
298.03955
298.02042
298.87719
299.13958
298.84622
298.63075
298.74926
298.75641
298.83227
298.85841
298.91534
298.96176
299.02403
299.08817
299.16005
299.23716
299.3202
299.40609
299.49156
299.571
299.63676
299.6783
299.68803
299.66014
299.59393
299.49464
299.37152
299.23504
299.09511
298.95875
298.83102
298.71444
298.60984
298.51757
298.43789
298.3705
298.31495
298.27062
298.23477
298.2028
298.1747
298.15149
298.1321
298.11527
298.09559
298.08205
298.07579
298.07384
298.07337
298.0606
298.03834
298.01958
298.89789
299.17902
298.87144
298.69922
298.82135
298.82922
298.90621
298.93398
298.99198
299.04022
299.10406
299.17031
299.24419
299.32334
299.40806
299.49497
299.58025
299.65767
299.71849
299.75213
299.75135
299.71107
299.63208
299.52108
299.38818
299.24431
299.09915
298.95911
298.82921
298.71131
298.60601
298.51351
298.434
298.36708
298.31204
298.26784
298.23185
298.2001
298.17247
298.14964
298.13059
298.11355
298.09388
298.08135
298.07573
298.07402
298.07366
298.05944
298.0371
298.01878
298.92059
299.21675
298.90591
298.77135
298.89626
298.90503
298.98314
299.01269
299.07179
299.12193
299.18741
299.25581
299.33176
299.4129
299.49917
299.58681
299.67143
299.74604
299.80073
299.82547
299.81305
299.75956
299.66741
299.54467
299.40227
299.25148
299.10114
298.95811
298.8263
298.70734
298.60156
298.50901
298.42984
298.36349
298.30897
298.26488
298.22879
298.19731
298.17017
298.14773
298.12902
298.11162
298.09238
298.08087
298.07585
298.07425
298.07389
298.05802
298.03583
298.01802
298.94514
299.25252
298.94894
298.84712
298.97407
298.98395
299.06315
299.09461
299.15485
299.20698
299.27417
299.3448
299.42283
299.50596
299.59358
299.68158
299.7649
299.83571
299.883
299.89769
299.87245
299.80506
299.69949
299.56518
299.41375
299.25646
299.10155
298.95584
298.82244
298.70266
298.5966
298.50416
298.42543
298.35975
298.30579
298.26178
298.22559
298.19444
298.16781
298.14575
298.12738
298.10953
298.09102
298.08055
298.07613
298.07469
298.07406
298.05634
298.03456
298.01731
298.97327
299.28778
298.99917
298.92629
299.05484
299.066
299.14624
299.17979
299.24125
299.29551
299.36451
299.43745
299.51762
299.60257
299.69129
299.77922
299.86053
299.92629
299.96512
299.96838
299.92931
299.84739
299.72825
299.5826
299.42265
299.25896
299.1003
298.95224
298.81757
298.69722
298.59108
298.49893
298.4208
298.35586
298.30246
298.25852
298.22228
298.19151
298.16538
298.1437
298.12565
298.10725
298.0897
298.08026
298.07648
298.07534
298.07419
298.05442
298.03327
298.01664
299.00446
299.32264
299.0611
299.00845
299.13842
299.15114
299.23247
299.26838
299.33121
299.38775
299.45866
299.53396
299.6162
299.70286
299.79232
299.87957
299.95796
300.01724
300.0464
300.03681
299.98293
299.88601
299.75334
299.5968
299.42884
299.25946
299.09746
298.94746
298.81182
298.69114
298.58511
298.4934
298.41599
298.35186
298.29905
298.25513
298.21885
298.18852
298.1629
298.1416
298.1238
298.1048
298.08836
298.07995
298.07683
298.0761
298.07399
298.05231
298.03197
298.01602
299.03779
299.35757
299.14193
299.09362
299.22503
299.23976
299.32231
299.36084
299.42514
299.48403
299.55688
299.63448
299.71872
299.80678
299.89658
299.98248
300.05687
300.10823
300.12643
300.10264
300.03307
299.9208
299.77478
299.60789
299.43204
299.25794
299.093
298.94144
298.80514
298.68436
298.57865
298.48757
298.411
298.34773
298.29548
298.25159
298.21533
298.18549
298.16035
298.13943
298.12177
298.10217
298.08698
298.07961
298.07715
298.07686
298.07336
298.05007
298.03068
298.01545
299.0746
299.39497
299.21731
299.18303
299.31578
299.33272
299.41636
299.45759
299.52333
299.58458
299.65931
299.73915
299.82519
299.91443
300.00396
300.08764
300.15657
300.19868
300.20429
300.16503
300.07903
299.95129
299.79232
299.61564
299.43273
299.25442
299.08707
298.93436
298.79768
298.67703
298.57181
298.4815
298.40588
298.34354
298.29185
298.24795
298.21174
298.1824
298.15775
298.13718
298.11946
298.09946
298.08565
298.07927
298.0774
298.07743
298.07222
298.04775
298.02942
298.01492
299.1157
299.4375
299.29929
299.27713
299.41088
299.43008
299.51474
299.55871
299.6259
299.68949
299.76607
299.84801
299.93567
300.02561
300.1143
300.19476
300.25665
300.28814
300.27953
300.22365
300.12063
299.97745
299.80605
299.61978
299.43094
299.24893
299.07966
298.92616
298.78938
298.66909
298.56456
298.47518
298.40061
298.33923
298.28808
298.24419
298.20807
298.17927
298.1551
298.13484
298.11671
298.09684
298.08443
298.07899
298.07756
298.07774
298.07046
298.04542
298.02818
298.01443
299.16148
299.48581
299.39457
299.37517
299.51009
299.53176
299.6174
299.66426
299.73293
299.79887
299.87725
299.96109
300.05015
300.14029
300.2273
300.30322
300.35634
300.37563
300.35115
300.27761
300.15723
299.99892
299.81574
299.62078
299.42665
299.24162
299.07093
298.91701
298.7804
298.66066
298.55699
298.4687
298.39527
298.33488
298.28424
298.24035
298.20435
298.17607
298.15239
298.13239
298.11353
298.09434
298.08334
298.07879
298.07769
298.07789
298.06814
298.04315
298.02698
298.01396
299.21233
299.54118
299.49352
299.47757
299.61343
299.63782
299.72454
299.7744
299.84456
299.91288
299.99295
300.07857
300.16855
300.25828
300.34265
300.41244
300.45526
300.46053
300.41872
300.32665
300.18878
300.0158
299.82109
299.61873
299.41997
299.23251
299.06085
298.90684
298.77067
298.6517
298.54908
298.46202
298.38981
298.33041
298.28027
298.23641
298.20058
298.17281
298.14962
298.1298
298.11001
298.09196
298.08234
298.07865
298.0779
298.07802
298.0653
298.04098
298.02581
298.01351
299.26852
299.60643
299.59878
299.58414
299.72102
299.74854
299.8363
299.88939
299.96101
300.03169
300.11335
300.20047
300.29085
300.37934
300.45979
300.52153
300.55239
300.54166
300.48114
300.36991
300.21475
300.02776
299.8225
299.61357
299.411
299.22177
299.04961
298.89586
298.76035
298.64232
298.54093
298.45523
298.38431
298.3259
298.27622
298.23241
298.19677
298.16948
298.14679
298.12703
298.10627
298.08968
298.0814
298.07848
298.07832
298.07808
298.06214
298.03885
298.02468
298.01307
299.33014
299.67913
299.70861
299.69547
299.83297
299.86435
299.95295
300.00945
300.08256
300.15541
300.2386
300.32665
300.4168
300.50308
300.57812
300.62991
300.647
300.61843
300.53802
300.40733
300.23521
300.03451
299.82018
299.60549
299.39987
299.20942
299.03719
298.884
298.74939
298.63251
298.53249
298.44829
298.37871
298.32128
298.27205
298.22834
298.19293
298.16606
298.14386
298.12394
298.10246
298.08752
298.08052
298.07826
298.07853
298.07808
298.05884
298.03677
298.0236
298.01266
299.39683
299.75959
299.82354
299.81261
299.94983
299.98546
300.07493
300.13455
300.20928
300.28421
300.36849
300.45712
300.54624
300.62899
300.69662
300.73659
300.73763
300.6895
300.58829
300.43812
300.2497
300.03636
299.81401
299.59457
299.3867
299.19564
299.02376
298.87142
298.73792
298.62235
298.52386
298.44128
298.37307
298.3166
298.26776
298.22422
298.18904
298.16255
298.1408
298.12035
298.09883
298.0855
298.07967
298.07798
298.07863
298.07787
298.05552
298.03479
298.02257
298.01227
299.47151
299.85161
299.94417
299.93588
300.07191
300.11188
300.20204
300.26489
300.34134
300.41809
300.50321
300.59156
300.67865
300.75637
300.81447
300.84068
300.82351
300.75434
300.63177
300.46236
300.25794
300.03365
299.80424
299.581
299.37161
299.18046
299.0093
298.85808
298.72589
298.61181
298.51501
298.43415
298.36733
298.31178
298.26333
298.22002
298.18511
298.15895
298.13756
298.11626
298.09543
298.08363
298.0788
298.07759
298.07872
298.07702
298.05226
298.03292
298.0216
298.01191
299.55337
299.95488
300.06956
300.06505
300.19918
300.24382
300.33434
300.40089
300.47886
300.55716
300.64242
300.72988
300.8135
300.88422
300.93043
300.94057
300.90305
300.81159
300.66745
300.47936
300.26016
300.02617
299.79095
299.56491
299.35476
299.16406
298.99399
298.84414
298.71344
298.60099
298.50601
298.42698
298.36155
298.30686
298.25874
298.21574
298.18112
298.15525
298.1341
298.11181
298.09223
298.0819
298.07795
298.07708
298.07855
298.07513
298.04917
298.03116
298.02067
298.01159
299.64306
300.07113
300.19971
300.20031
300.3314
300.3806
300.47249
300.54264
300.62199
300.70131
300.7862
300.87128
300.9499
301.01124
301.04358
301.03512
300.97551
300.86094
300.69531
300.48886
300.25681
300.01429
299.77442
299.54649
299.33624
299.14646
298.9778
298.82955
298.70053
298.58987
298.49684
298.41969
298.35564
298.30176
298.25396
298.21133
298.17706
298.15145
298.13032
298.10713
298.08922
298.0803
298.0771
298.07647
298.07814
298.07193
298.04627
298.02947
298.01978
298.0113
299.7374
300.20027
300.3339
300.34076
300.46912
300.52339
300.61688
300.69008
300.7707
300.85048
300.93375
301.01532
301.08676
301.1361
301.15205
301.12247
301.03919
300.90106
300.71443
300.49106
300.24753
299.99803
299.75478
299.52591
299.31623
299.12782
298.96088
298.81444
298.68725
298.57851
298.48754
298.41236
298.34964
298.29647
298.24892
298.20677
298.17293
298.14754
298.12608
298.10241
298.08644
298.0789
298.07635
298.0758
298.0775
298.06805
298.04343
298.02785
298.01895
298.01105
299.83963
300.34119
300.47438
300.48728
300.61206
300.67308
300.76703
300.84326
300.92482
301.00416
301.08477
301.16058
301.22244
301.25751
301.25431
301.20158
301.09357
300.93179
300.72452
300.48642
300.23287
299.97782
299.73231
299.50333
299.2948
299.10817
298.94322
298.79878
298.67358
298.56691
298.4781
298.4049
298.34347
298.29091
298.2436
298.202
298.16873
298.14354
298.12117
298.09795
298.0839
298.07763
298.07569
298.07528
298.07673
298.06398
298.04068
298.02633
298.01818
298.01082
299.94939
300.49444
300.62049
300.64016
300.76506
300.82929
300.92339
301.00207
301.08384
301.16171
301.23782
301.3061
301.35534
301.37336
301.34816
301.2704
301.13695
300.95191
300.72582
300.47446
300.21277
299.95374
299.70715
299.47893
299.27213
299.08765
298.92494
298.78267
298.6596
298.55511
298.46855
298.39735
298.33712
298.28503
298.23789
298.19694
298.16446
298.13942
298.11572
298.09378
298.0816
298.07647
298.07507
298.07495
298.07588
298.05988
298.03807
298.02492
298.01748
298.01062
300.07294
300.65623
300.77573
300.8026
300.92259
300.99048
301.08499
301.16565
301.24694
301.32205
301.39202
301.44948
301.4836
301.48164
301.43218
301.32813
301.16907
300.96137
300.71868
300.45596
300.18784
299.92624
299.67961
299.45286
299.24828
299.06628
298.90603
298.76611
298.6453
298.5431
298.45885
298.38964
298.33052
298.27876
298.23176
298.19155
298.16013
298.1351
298.11
298.08992
298.07953
298.07539
298.07444
298.07469
298.07499
298.05588
298.03564
298.02363
298.01685
298.01044
300.20812
300.82611
300.93522
300.97068
301.08688
301.15794
301.25141
301.33315
301.41302
301.48391
301.54509
301.58921
301.60487
301.57972
301.50384
301.37257
301.18818
300.9601
300.70257
300.43071
300.1581
299.89542
299.64983
299.42527
299.22339
299.04418
298.88659
298.74915
298.63071
298.5309
298.44903
298.38176
298.3236
298.27196
298.22503
298.18576
298.15573
298.13041
298.10436
298.08642
298.0777
298.0744
298.07374
298.07434
298.07393
298.05208
298.03341
298.02245
298.01626
298.01029
300.35905
301.00435
301.10211
301.14636
301.25618
301.32964
301.42165
301.50315
301.5804
301.64512
301.69503
301.72224
301.71647
301.66566
301.56197
301.40339
301.1948
300.94848
300.67848
300.3996
300.12421
299.86173
299.61807
299.39631
299.19751
299.02135
298.86661
298.73179
298.61584
298.51852
298.43905
298.37365
298.3163
298.26456
298.21767
298.17956
298.1512
298.12512
298.09919
298.08332
298.07608
298.07343
298.07283
298.07377
298.07212
298.04857
298.03138
298.02133
298.01571
298.01016
300.52338
301.18963
301.275
301.3267
301.43043
301.50521
301.59411
301.67368
301.74658
301.80292
301.83846
301.84596
301.81524
301.73641
301.60377
301.41819
301.18812
300.92587
300.6461
300.36255
300.08627
299.82529
299.58446
299.36608
299.17076
298.99789
298.84615
298.71405
298.60069
298.50594
298.42889
298.36524
298.30849
298.25636
298.20947
298.17296
298.14647
298.11937
298.09452
298.08062
298.07457
298.07226