# Force and moment coefficients
# dragDir       : (1.00000000e+00 0.00000000e+00 0.00000000e+00)
# sideDir       : (0.00000000e+00 1.00000000e+00 0.00000000e+00)
# liftDir       : (0.00000000e+00 0.00000000e+00 1.00000000e+00)
# rollAxis      : (1.00000000e+00 0.00000000e+00 0.00000000e+00)
# pitchAxis     : (0.00000000e+00 1.00000000e+00 0.00000000e+00)
# yawAxis       : (0.00000000e+00 0.00000000e+00 1.00000000e+00)
# magUInf       : 2.60000000e+02
# lRef          : 1.00000000e+00
# Aref          : 1.00000000e-01
# CofR          : (2.50000000e-01 0.00000000e+00 0.00000000e+00)
#
# Time          	Cd              	Cd(f)           	Cd(r)           	Cl              	Cl(f)           	Cl(r)           	CmPitch         	CmRoll          	CmYaw           	Cs              	Cs(f)           	Cs(r)           
2e-05           	8.19434094e-02	2.30848525e-02	5.88585569e-02	3.57737044e-01	6.43955658e-02	2.93341478e-01	-1.14472956e-01	-1.78868522e-02	4.09717047e-03	3.44755015e-21	4.09717047e-03	-4.09717047e-03
4e-05           	6.99058998e-02	2.65741807e-02	4.33317191e-02	1.67575384e-01	5.56199673e-02	1.11955417e-01	-2.81677248e-02	-8.37876921e-03	3.49529499e-03	1.78054402e-22	3.49529499e-03	-3.49529499e-03
6e-05           	7.60475954e-02	2.42602455e-02	5.17873499e-02	2.75271044e-01	6.05044530e-02	2.14766591e-01	-7.71310689e-02	-1.37635522e-02	3.80237977e-03	2.20078682e-21	3.80237977e-03	-3.80237977e-03
8e-05           	6.28498204e-02	2.16580500e-02	4.11917704e-02	1.95337204e-01	5.56947087e-02	1.39642496e-01	-4.19738935e-02	-9.76686022e-03	3.14249102e-03	8.34991545e-22	3.14249102e-03	-3.14249102e-03
0.0001          	6.22148292e-02	1.93031745e-02	4.29116547e-02	2.36084801e-01	5.64157064e-02	1.79669095e-01	-6.16266943e-02	-1.18042401e-02	3.11074146e-03	1.56426846e-21	3.11074146e-03	-3.11074146e-03
0.00012         	5.49345478e-02	1.72823529e-02	3.76521949e-02	2.03698420e-01	5.36095590e-02	1.50088861e-01	-4.82396512e-02	-1.01849210e-02	2.74672739e-03	1.12177228e-21	2.74672739e-03	-2.74672739e-03
0.00014         	5.22493561e-02	1.54295191e-02	3.68198370e-02	2.13903180e-01	5.37183673e-02	1.60184812e-01	-5.32332225e-02	-1.06951590e-02	2.61246781e-03	1.21060486e-21	2.61246781e-03	-2.61246781e-03
0.00016         	4.81754150e-02	1.39085482e-02	3.42668668e-02	2.03583186e-01	5.19579299e-02	1.51625256e-01	-4.98336632e-02	-1.01791593e-02	2.40877075e-03	1.17452256e-21	2.40877075e-03	-2.40877075e-03
0.00018         	4.54319138e-02	1.25449430e-02	3.28869708e-02	2.03420278e-01	5.13497530e-02	1.52070525e-01	-5.03603859e-02	-1.01710139e-02	2.27159569e-03	1.16316233e-21	2.27159569e-03	-2.27159569e-03
0.0002          	4.27153963e-02	1.13819132e-02	3.13334831e-02	1.99515700e-01	5.02640325e-02	1.49251667e-01	-4.94938173e-02	-9.97578499e-03	2.13576981e-03	1.16247139e-21	2.13576981e-03	-2.13576981e-03
0.00022         	4.03516904e-02	1.03375685e-02	3.00141218e-02	1.96765533e-01	4.94068266e-02	1.47358706e-01	-4.89759398e-02	-9.83827665e-03	2.01758452e-03	1.15378196e-21	2.01758452e-03	-2.01758452e-03
0.00024         	3.81810936e-02	9.38927466e-03	2.87918190e-02	1.94025443e-01	4.85612487e-02	1.45464194e-01	-4.84514728e-02	-9.70127215e-03	1.90905468e-03	1.14882222e-21	1.90905468e-03	-1.90905468e-03
0.00026         	3.61463172e-02	8.51410969e-03	2.76322075e-02	1.91180978e-01	4.77418080e-02	1.43439170e-01	-4.78486812e-02	-9.55904892e-03	1.80731586e-03	1.14341017e-21	1.80731586e-03	-1.80731586e-03
0.00028         	3.42428673e-02	7.70003455e-03	2.65428328e-02	1.88427982e-01	4.69542597e-02	1.41473723e-01	-4.72597314e-02	-9.42139911e-03	1.71214337e-03	1.13352123e-21	1.71214337e-03	-1.71214337e-03
0.0003          	3.24491622e-02	6.94424765e-03	2.55049146e-02	1.85606669e-01	4.61831814e-02	1.39423488e-01	-4.66201534e-02	-9.28033347e-03	1.62245811e-03	1.10971355e-21	1.62245811e-03	-1.62245811e-03
0.00032         	3.07554019e-02	6.23601328e-03	2.45193887e-02	1.82833754e-01	4.54633363e-02	1.37370418e-01	-4.59535406e-02	-9.14168769e-03	1.53777010e-03	1.10316754e-21	1.53777010e-03	-1.53777010e-03
0.00034         	2.91608920e-02	5.57758349e-03	2.35833085e-02	1.80057250e-01	4.47631493e-02	1.35294101e-01	-4.52654760e-02	-9.00286252e-03	1.45804460e-03	1.06610214e-21	1.45804460e-03	-1.45804460e-03
0.00036         	2.76516838e-02	4.95907621e-03	2.26926076e-02	1.77335314e-01	4.41120191e-02	1.33223295e-01	-4.45556380e-02	-8.86676571e-03	1.38258419e-03	1.03490802e-21	1.38258419e-03	-1.38258419e-03
0.00038         	2.62194516e-02	4.37755648e-03	2.18418951e-02	1.74643387e-01	4.35037957e-02	1.31139591e-01	-4.38178976e-02	-8.73216933e-03	1.31097258e-03	9.96154758e-22	1.31097258e-03	-1.31097258e-03
0.0004          	2.48572942e-02	3.82947171e-03	2.10278225e-02	1.71983508e-01	4.29380431e-02	1.29045465e-01	-4.30537107e-02	-8.59917538e-03	1.24286471e-03	9.51265883e-22	1.24286471e-03	-1.24286471e-03
0.00042         	2.35586970e-02	3.31169302e-03	2.02470040e-02	1.69353110e-01	4.24148272e-02	1.26938283e-01	-4.22617278e-02	-8.46765550e-03	1.17793485e-03	8.99740897e-22	1.17793485e-03	-1.17793485e-03
0.00044         	2.23188977e-02	2.82190913e-03	1.94969886e-02	1.66750794e-01	4.19332357e-02	1.24817559e-01	-4.14421615e-02	-8.33753972e-03	1.11594489e-03	8.43209649e-22	1.11594489e-03	-1.11594489e-03
0.00046         	2.11322244e-02	2.35730158e-03	1.87749228e-02	1.64176212e-01	4.14944660e-02	1.22681746e-01	-4.05936401e-02	-8.20881060e-03	1.05661122e-03	7.82055573e-22	1.05661122e-03	-1.05661122e-03
0.00048         	1.99981954e-02	1.91755441e-03	1.80806410e-02	1.61630866e-01	4.10992721e-02	1.20531594e-01	-3.97161610e-02	-8.08154331e-03	9.99909772e-04	7.15822609e-22	9.99909772e-04	-9.99909772e-04
0.0005          	1.89136182e-02	1.50086095e-03	1.74127572e-02	1.59118963e-01	4.07498737e-02	1.18369089e-01	-3.88096076e-02	-7.95594813e-03	9.45680908e-04	6.49180063e-22	9.45680908e-04	-9.45680908e-04
0.00052         	1.78711334e-02	1.10123202e-03	1.67699014e-02	1.56686694e-01	4.04721982e-02	1.16214496e-01	-3.78711488e-02	-7.83433470e-03	8.93556672e-04	5.93420618e-22	8.93556672e-04	-8.93556672e-04
0.00054         	1.68766881e-02	7.25629488e-04	1.61510586e-02	1.54254291e-01	4.02178439e-02	1.14036448e-01	-3.69093018e-02	-7.71271457e-03	8.43834406e-04	5.25654686e-22	8.43834406e-04	-8.43834406e-04
0.00056         	1.59211200e-02	3.69211618e-04	1.55519084e-02	1.51826967e-01	3.99965821e-02	1.11830385e-01	-3.59169016e-02	-7.59134837e-03	7.96055999e-04	4.57869362e-22	7.96055999e-04	-7.96055999e-04
0.00058         	1.50085101e-02	3.10737965e-05	1.49774363e-02	1.49463625e-01	3.98146240e-02	1.09649001e-01	-3.49171887e-02	-7.47318127e-03	7.50425507e-04	3.91672189e-22	7.50425507e-04	-7.50425507e-04
0.0006          	1.41336883e-02	-2.89902430e-04	1.44235908e-02	1.47134932e-01	3.96656777e-02	1.07469254e-01	-3.39017883e-02	-7.35674660e-03	7.06684417e-04	3.28097220e-22	7.06684417e-04	-7.06684417e-04
0.00062         	1.32942149e-02	-5.94915982e-04	1.38891309e-02	1.44840469e-01	3.95481930e-02	1.05292275e-01	-3.28720412e-02	-7.24202343e-03	6.64710744e-04	2.65792822e-22	6.64710744e-04	-6.64710744e-04
0.00064         	1.24886136e-02	-8.84644707e-04	1.33732583e-02	1.42579030e-01	3.94593236e-02	1.03119707e-01	-3.18301916e-02	-7.12895152e-03	6.24430681e-04	2.04015442e-22	6.24430681e-04	-6.24430681e-04
0.00066         	1.17146997e-02	-1.15996089e-03	1.28746606e-02	1.40346215e-01	3.93970631e-02	1.00949152e-01	-3.07760443e-02	-7.01731074e-03	5.85734984e-04	1.44140448e-22	5.85734984e-04	-5.85734984e-04
0.00068         	1.09706857e-02	-1.42170050e-03	1.23923862e-02	1.38140867e-01	3.93603315e-02	9.87805353e-02	-2.97101019e-02	-6.90704334e-03	5.48534284e-04	8.41717189e-23	5.48534284e-04	-5.48534284e-04
0.0007          	1.02559593e-02	-1.67014414e-03	1.19261035e-02	1.35962476e-01	3.93473384e-02	9.66151378e-02	-2.86338997e-02	-6.79812381e-03	5.12797967e-04	2.46800675e-23	5.12797967e-04	-5.12797967e-04
0.00072         	9.56899132e-03	-1.90574964e-03	1.14747410e-02	1.33804906e-01	3.93538181e-02	9.44510879e-02	-2.75486349e-02	-6.69024530e-03	4.78449566e-04	-3.46831892e-23	4.78449566e-04	-4.78449566e-04
0.00074         	8.90929644e-03	-2.12894269e-03	1.10382391e-02	1.31671818e-01	3.93813109e-02	9.22905072e-02	-2.64545982e-02	-6.58359091e-03	4.45464822e-04	-9.37053381e-23	4.45464822e-04	-4.45464822e-04
0.00076         	8.27581772e-03	-2.34003536e-03	1.06158531e-02	1.29558884e-01	3.94257525e-02	9.01331320e-02	-2.53536897e-02	-6.47794422e-03	4.13790886e-04	-1.52947553e-22	4.13790886e-04	-4.13790886e-04
0.00078         	7.66694224e-03	-2.53972912e-03	1.02066714e-02	1.27464005e-01	3.94846856e-02	8.79793191e-02	-2.42473167e-02	-6.37320024e-03	3.83347112e-04	-2.12429503e-22	3.83347112e-04	-3.83347112e-04
0.0008          	7.08319393e-03	-2.72774151e-03	9.81093544e-03	1.25386769e-01	3.95566322e-02	8.58301372e-02	-2.31367525e-02	-6.26933847e-03	3.54159696e-04	-2.71927004e-22	3.54159696e-04	-3.54159696e-04
0.00082         	6.52342999e-03	-2.90446361e-03	9.42789360e-03	1.23323572e-01	3.96378920e-02	8.36856802e-02	-2.20238941e-02	-6.16617861e-03	3.26171500e-04	-3.30378478e-22	3.26171500e-04	-3.26171500e-04
0.00084         	5.99249834e-03	-3.07018796e-03	9.06268629e-03	1.21328743e-01	3.97345731e-02	8.15941694e-02	-2.09297981e-02	-6.06643713e-03	2.99624917e-04	-3.88547205e-22	2.99624917e-04	-2.99624917e-04
0.00086         	5.48476865e-03	-3.22537281e-03	8.71014146e-03	1.19355143e-01	3.98350946e-02	7.95200481e-02	-1.98424767e-02	-5.96775714e-03	2.74238433e-04	-4.46391529e-22	2.74238433e-04	-2.74238433e-04
0.00088         	5.00096321e-03	-3.37034875e-03	8.37131196e-03	1.17416607e-01	3.99400333e-02	7.74765737e-02	-1.87682702e-02	-5.87083035e-03	2.50048160e-04	-5.03904028e-22	2.50048160e-04	-2.50048160e-04
0.0009          	4.54051981e-03	-3.50546740e-03	8.04598721e-03	1.15514546e-01	4.00477621e-02	7.54667841e-02	-1.77095110e-02	-5.77572731e-03	2.27025991e-04	-5.59974611e-22	2.27025991e-04	-2.27025991e-04
0.00092         	4.10305385e-03	-3.63065334e-03	7.73370719e-03	1.13643605e-01	4.01539536e-02	7.34896517e-02	-1.66678491e-02	-5.68218027e-03	2.05152692e-04	-6.28722125e-22	2.05152692e-04	-2.05152692e-04
0.00094         	3.68709176e-03	-3.74713570e-03	7.43422746e-03	1.11813632e-01	4.02621669e-02	7.15514646e-02	-1.56446488e-02	-5.59068158e-03	1.84354588e-04	-6.83015932e-22	1.84354588e-04	-1.84354588e-04
0.00096         	3.29203415e-03	-3.85506214e-03	7.14709629e-03	1.10021584e-01	4.03697443e-02	6.96518400e-02	-1.46410478e-02	-5.50107921e-03	1.64601707e-04	-7.35571206e-22	1.64601707e-04	-1.64601707e-04
0.00098         	2.91729498e-03	-3.95459252e-03	6.87188750e-03	1.08264800e-01	4.04743505e-02	6.77904497e-02	-1.36580496e-02	-5.41324001e-03	1.45864749e-04	-7.86884832e-22	1.45864749e-04	-1.45864749e-04
0.001           	2.56227571e-03	-4.04590129e-03	6.60817700e-03	1.06540783e-01	4.05740295e-02	6.59667534e-02	-1.26963619e-02	-5.32703914e-03	1.28113786e-04	-8.36309796e-22	1.28113786e-04	-1.28113786e-04
0.00102         	2.22596156e-03	-4.12939959e-03	6.35536115e-03	1.04847607e-01	4.06676950e-02	6.41799124e-02	-1.17561087e-02	-5.24238037e-03	1.11298078e-04	-8.84047271e-22	1.11298078e-04	-1.11298078e-04
0.00104         	1.90756400e-03	-4.20543507e-03	6.11299907e-03	1.03184341e-01	4.07549900e-02	6.24293514e-02	-1.08371807e-02	-5.15921707e-03	9.53782001e-05	-9.28692404e-22	9.53782001e-05	-9.53782001e-05
0.00106         	1.60631883e-03	-4.27422870e-03	5.88054753e-03	1.01547762e-01	4.08344246e-02	6.07133378e-02	-9.93945662e-03	-5.07738812e-03	8.03159416e-05	-9.70414194e-22	8.03159416e-05	-8.03159416e-05
0.00108         	1.32119853e-03	-4.33613644e-03	5.65733497e-03	9.99347140e-02	4.09048251e-02	5.90298890e-02	-9.06253195e-03	-4.99673570e-03	6.60599265e-05	-1.00894731e-21	6.60599265e-05	-6.60599265e-05
0.0011          	1.05175262e-03	-4.39232034e-03	5.44407296e-03	9.83639330e-02	4.09609867e-02	5.74029463e-02	-8.22097977e-03	-4.91819665e-03	5.25876312e-05	-1.04337256e-21	5.25876312e-05	-5.25876312e-05
0.00112         	7.97868953e-04	-4.44282906e-03	5.24069801e-03	9.68352707e-02	4.10106729e-02	5.58245977e-02	-7.40696241e-03	-4.84176353e-03	3.98934477e-05	-1.07416924e-21	3.98934477e-05	-3.98934477e-05
0.00114         	5.58451564e-04	-4.48793218e-03	5.04638375e-03	9.53431593e-02	4.10506633e-02	5.42924960e-02	-6.62091638e-03	-4.76715796e-03	2.79225782e-05	-1.10106235e-21	2.79225782e-05	-2.79225782e-05
0.00116         	3.32674324e-04	-4.52781010e-03	4.86048442e-03	9.38829452e-02	4.10785853e-02	5.28043599e-02	-5.86288733e-03	-4.69414726e-03	1.66337162e-05	-1.12409535e-21	1.66337162e-05	-1.66337162e-05
0.00118         	1.19473740e-04	-4.56292408e-03	4.68239782e-03	9.24532189e-02	4.10937644e-02	5.13594545e-02	-5.13284507e-03	-4.62266095e-03	5.97368700e-06	-1.14306483e-21	5.97368700e-06	-5.97368700e-06
0.0012          	-8.20301218e-05	-4.59360580e-03	4.51157568e-03	9.10518147e-02	4.10955181e-02	4.99562967e-02	-4.43038930e-03	-4.55259074e-03	-4.10150609e-06	-1.15936670e-21	-4.10150609e-06	4.10150609e-06
0.00122         	-2.72656845e-04	-4.62015155e-03	4.34749470e-03	8.96764625e-02	4.10825763e-02	4.85938862e-02	-3.75565497e-03	-4.48382312e-03	-1.36328423e-05	-1.17251229e-21	-1.36328423e-05	1.36328423e-05
0.00124         	-4.53616363e-04	-4.64316699e-03	4.18955063e-03	8.83271762e-02	4.10548286e-02	4.72723476e-02	-3.10875948e-03	-4.41635881e-03	-2.26808182e-05	-1.18292565e-21	-2.26808182e-05	2.26808182e-05
0.00126         	-6.25921818e-04	-4.66308704e-03	4.03716522e-03	8.70025226e-02	4.10116331e-02	4.59908895e-02	-2.48962819e-03	-4.35012613e-03	-3.12960909e-05	-1.19099580e-21	-3.12960909e-05	3.12960909e-05
0.00128         	-7.90538192e-04	-4.68036956e-03	3.88983136e-03	8.57020092e-02	4.09526261e-02	4.47493831e-02	-1.89837846e-03	-4.28510046e-03	-3.95269096e-05	-1.19763717e-21	-3.95269096e-05	3.95269096e-05
0.0013          	-9.47992528e-04	-4.69589393e-03	3.74790140e-03	8.44379533e-02	4.08789043e-02	4.35590491e-02	-1.34007238e-03	-4.22189767e-03	-4.73996264e-05	-1.20361456e-21	-4.73996264e-05	4.73996264e-05
0.00132         	-1.09880453e-03	-4.70984355e-03	3.61103902e-03	8.32088256e-02	4.07903610e-02	4.24184646e-02	-8.14051796e-04	-4.16044128e-03	-5.49402264e-05	-1.20853407e-21	-5.49402264e-05	5.49402264e-05
0.00134         	-1.24320823e-03	-4.72228088e-03	3.47907265e-03	8.20135352e-02	4.06870313e-02	4.13265039e-02	-3.19736304e-04	-4.10067676e-03	-6.21604114e-05	-1.21253094e-21	-6.21604114e-05	6.21604114e-05
0.00136         	-1.38142326e-03	-4.73322926e-03	3.35180600e-03	8.08503526e-02	4.05689744e-02	4.02813782e-02	1.43798090e-04	-4.04251763e-03	-6.90711631e-05	-1.21598998e-21	-6.90711631e-05	6.90711631e-05
0.00138         	-1.51396458e-03	-4.74284561e-03	3.22888103e-03	7.97172664e-02	4.04363292e-02	3.92809372e-02	5.77696007e-04	-3.98586332e-03	-7.56982290e-05	-1.21817492e-21	-7.56982290e-05	7.56982290e-05
0.0014          	-1.64119669e-03	-4.75125182e-03	3.11005513e-03	7.86130694e-02	4.02896058e-02	3.83234637e-02	9.83071041e-04	-3.93065347e-03	-8.20598344e-05	-1.22133093e-21	-8.20598344e-05	8.20598344e-05
0.00142         	-1.76359100e-03	-4.75862312e-03	2.99503212e-03	7.75365524e-02	4.01294660e-02	3.74070864e-02	1.36118977e-03	-3.87682762e-03	-8.81795498e-05	-1.22494879e-21	-8.81795498e-05	8.81795498e-05
0.00144         	-1.88189816e-03	-4.76525832e-03	2.88336016e-03	7.64861847e-02	3.99566200e-02	3.65295648e-02	1.71352758e-03	-3.82430924e-03	-9.40949079e-05	-1.22743399e-21	-9.40949079e-05	9.40949079e-05
0.00146         	-1.99680136e-03	-4.77144127e-03	2.77463991e-03	7.54608119e-02	3.97718224e-02	3.56889895e-02	2.04141646e-03	-3.77304059e-03	-9.98400678e-05	-1.23099445e-21	-9.98400678e-05	9.98400678e-05
0.00148         	-2.10882235e-03	-4.77738231e-03	2.66855996e-03	7.44594227e-02	3.95759184e-02	3.48835043e-02	2.34620701e-03	-3.72297114e-03	-1.05441117e-04	-1.23462060e-21	-1.05441117e-04	1.05441117e-04
0.0015          	-2.21822983e-03	-4.78317284e-03	2.56494301e-03	7.34811585e-02	3.93700206e-02	3.41111380e-02	2.62944130e-03	-3.67405793e-03	-1.10911491e-04	-1.23779805e-21	-1.10911491e-04	1.10911491e-04
0.00152         	-2.32481867e-03	-4.78914068e-03	2.46432200e-03	7.25346268e-02	3.91569983e-02	3.33776285e-02	2.88968490e-03	-3.62673134e-03	-1.16240934e-04	-1.24179902e-21	-1.16240934e-04	1.16240934e-04
0.00154         	-2.42843435e-03	-4.79497859e-03	2.36654424e-03	7.16152283e-02	3.89374207e-02	3.26778077e-02	3.12980649e-03	-3.58076142e-03	-1.21421717e-04	-1.24467550e-21	-1.21421717e-04	1.21421717e-04
0.00156         	-2.52876471e-03	-4.80045388e-03	2.27168917e-03	7.07214305e-02	3.87121227e-02	3.20093078e-02	3.35140747e-03	-3.53607153e-03	-1.26438236e-04	-1.24727295e-21	-1.26438236e-04	1.26438236e-04
0.00158         	-2.62526577e-03	-4.80522825e-03	2.17996248e-03	6.98519073e-02	3.84814824e-02	3.13704249e-02	3.55552874e-03	-3.49259537e-03	-1.31263289e-04	-1.24914318e-21	-1.31263289e-04	1.31263289e-04
0.0016          	-2.71735143e-03	-4.80896436e-03	2.09161293e-03	6.90057729e-02	3.82459787e-02	3.07597942e-02	3.74309222e-03	-3.45028864e-03	-1.35867571e-04	-1.25012389e-21	-1.35867571e-04	1.35867571e-04
0.00162         	-2.80464905e-03	-4.81143490e-03	2.00678585e-03	6.81822076e-02	3.80059998e-02	3.01762078e-02	3.91489597e-03	-3.40911038e-03	-1.40232452e-04	-1.25001295e-21	-1.40232452e-04	1.40232452e-04
0.00164         	-2.88700508e-03	-4.81253675e-03	1.92553167e-03	6.73806842e-02	3.77618588e-02	2.96188254e-02	4.07151668e-03	-3.36903421e-03	-1.44350254e-04	-1.24894969e-21	-1.44350254e-04	1.44350254e-04
0.00166         	-2.96453879e-03	-4.81229240e-03	1.84775361e-03	6.66004601e-02	3.75137855e-02	2.90866746e-02	4.21355547e-03	-3.33002301e-03	-1.48226939e-04	-1.24661605e-21	-1.48226939e-04	1.48226939e-04
0.00168         	-3.03758903e-03	-4.81085032e-03	1.77326129e-03	6.58411161e-02	3.72620372e-02	2.85790789e-02	4.34147915e-03	-3.29205580e-03	-1.51879451e-04	-1.24312154e-21	-1.51879451e-04	1.51879451e-04
0.0017          	-3.10663981e-03	-4.80843944e-03	1.70179963e-03	6.51023907e-02	3.70068839e-02	2.80955068e-02	4.45568857e-03	-3.25511953e-03	-1.55331991e-04	-1.23978380e-21	-1.55331991e-04	1.55331991e-04
0.00172         	-3.17230354e-03	-4.80534642e-03	1.63304289e-03	6.43838931e-02	3.67485939e-02	2.76352992e-02	4.55664733e-03	-3.21919466e-03	-1.58615177e-04	-1.23470234e-21	-1.58615177e-04	1.58615177e-04
0.00174         	-3.23510518e-03	-4.80197085e-03	1.56686567e-03	6.36883652e-02	3.64885196e-02	2.71998457e-02	4.64433694e-03	-3.18441826e-03	-1.61755259e-04	-1.22906305e-21	-1.61755259e-04	1.61755259e-04
0.00176         	-3.29579233e-03	-4.79863598e-03	1.50284365e-03	6.30147963e-02	3.62269685e-02	2.67878278e-02	4.71957035e-03	-3.15073982e-03	-1.64789616e-04	-1.22242813e-21	-1.64789616e-04	1.64789616e-04
0.00178         	-3.35481431e-03	-4.79556881e-03	1.44075450e-03	6.23632331e-02	3.59645769e-02	2.63986562e-02	4.78296037e-03	-3.11816165e-03	-1.67740716e-04	-1.21577038e-21	-1.67740716e-04	1.67740716e-04
0.0018          	-3.41238936e-03	-4.79289421e-03	1.38050484e-03	6.17339905e-02	3.57020563e-02	2.60319342e-02	4.83506106e-03	-3.08669952e-03	-1.70619468e-04	-1.20833900e-21	-1.70619468e-04	1.70619468e-04
0.00182         	-3.46849729e-03	-4.79060825e-03	1.32211095e-03	6.11271920e-02	3.54399751e-02	2.56872169e-02	4.87637907e-03	-3.05635960e-03	-1.73424865e-04	-1.20078640e-21	-1.73424865e-04	1.73424865e-04
0.00184         	-3.52287559e-03	-4.78857539e-03	1.26569980e-03	6.05427519e-02	3.51787101e-02	2.53640418e-02	4.90733418e-03	-3.02713760e-03	-1.76143780e-04	-1.19292153e-21	-1.76143780e-04	1.76143780e-04
0.00186         	-3.57502187e-03	-4.78653181e-03	1.21150994e-03	5.99804175e-02	3.49185126e-02	2.50619049e-02	4.92830387e-03	-2.99902087e-03	-1.78751094e-04	-1.18491501e-21	-1.78751094e-04	1.78751094e-04
0.00188         	-3.62428929e-03	-4.78413359e-03	1.15984430e-03	5.94397789e-02	3.46595126e-02	2.47802663e-02	4.93962318e-03	-2.97198894e-03	-1.81214464e-04	-1.17622322e-21	-1.81214464e-04	1.81214464e-04
0.0019          	-3.66996276e-03	-4.78098704e-03	1.11102428e-03	5.89201132e-02	3.44016815e-02	2.45184317e-02	4.94162490e-03	-2.94600566e-03	-1.83498138e-04	-1.16824984e-21	-1.83498138e-04	1.83498138e-04
0.00192         	-3.71144691e-03	-4.77675728e-03	1.06531037e-03	5.84206764e-02	3.41449606e-02	2.42757159e-02	4.93462235e-03	-2.92103382e-03	-1.85572346e-04	-1.16037878e-21	-1.85572346e-04	1.85572346e-04
0.00194         	-3.74838345e-03	-4.77123956e-03	1.02285611e-03	5.79409567e-02	3.38893753e-02	2.40515814e-02	4.91889693e-03	-2.89704783e-03	-1.87419173e-04	-1.15180411e-21	-1.87419173e-04	1.87419173e-04
0.00196         	-3.78067704e-03	-4.76436096e-03	9.83683920e-04	5.74804488e-02	3.36349740e-02	2.38454748e-02	4.89474963e-03	-2.87402244e-03	-1.89033852e-04	-1.14346311e-21	-1.89033852e-04	1.89033852e-04
0.00198         	-3.80841324e-03	-4.75608513e-03	9.47671892e-04	5.70375702e-02	3.33822513e-02	2.36553189e-02	4.86346621e-03	-2.85187851e-03	-1.90420662e-04	-1.13638156e-21	-1.90420662e-04	1.90420662e-04
0.002           	-3.83210509e-03	-4.74666974e-03	9.14564646e-04	5.66123439e-02	3.31312110e-02	2.34811328e-02	4.82503910e-03	-2.83061719e-03	-1.91605255e-04	-1.12945940e-21	-1.91605255e-04	1.91605255e-04
0.00202         	-3.85252324e-03	-4.73649253e-03	8.83969288e-04	5.62046182e-02	3.28822768e-02	2.33223414e-02	4.77996767e-03	-2.81023091e-03	-1.92626162e-04	-1.12319183e-21	-1.92626162e-04	1.92626162e-04
0.00204         	-3.87060195e-03	-4.72602492e-03	8.55422973e-04	5.58144790e-02	3.26360542e-02	2.31784248e-02	4.72881471e-03	-2.79072395e-03	-1.93530098e-04	-1.11756798e-21	-1.93530098e-04	1.93530098e-04
0.00206         	-3.88731240e-03	-4.71576812e-03	8.28455727e-04	5.54422385e-02	3.23933007e-02	2.30489379e-02	4.67218140e-03	-2.77211193e-03	-1.94365620e-04	-1.11330733e-21	-1.94365620e-04	1.94365620e-04
0.00208         	-3.90353245e-03	-4.70618639e-03	8.02653942e-04	5.50884034e-02	3.21548576e-02	2.29335458e-02	4.61065591e-03	-2.75442017e-03	-1.95176623e-04	-1.10938830e-21	-1.95176623e-04	1.95176623e-04
0.0021          	-3.91992366e-03	-4.69763943e-03	7.77715777e-04	5.47535521e-02	3.19215727e-02	2.28319794e-02	4.54479668e-03	-2.73767760e-03	-1.95996183e-04	-1.10597847e-21	-1.95996183e-04	1.95996183e-04
0.00212         	-3.93686325e-03	-4.69034817e-03	7.53484923e-04	5.44383309e-02	3.16943155e-02	2.27440154e-02	4.47515009e-03	-2.72191655e-03	-1.96843162e-04	-1.10308833e-21	-1.96843162e-04	1.96843162e-04
0.00214         	-3.95433573e-03	-4.68431484e-03	7.29979104e-04	5.41429394e-02	3.14736796e-02	2.26692598e-02	4.40220987e-03	-2.70714697e-03	-1.97716787e-04	-1.10066740e-21	-1.97716787e-04	1.97716787e-04
