# p  FACE_DATA 150
# x y z  p
0.29576437 -0.05 0.059999701 96153.974
0.28738431 -0.05 0.059968924 96075.074
0.27918472 -0.05 0.059906283 95998.155
0.27116186 -0.05 0.05981265 95921.118
0.26331203 -0.05 0.059689027 95844.018
0.25563166 -0.05 0.059536266 95767.237
0.24811723 -0.05 0.059355154 95690.699
0.24076528 -0.05 0.059146557 95614.36
0.23357246 -0.05 0.058911358 95537.758
0.22653546 -0.05 0.058650341 95460.957
0.21965107 -0.05 0.058364202 95383.982
0.21291613 -0.05 0.058053757 95306.581
0.20632755 -0.05 0.057719714 95229.581
0.19988232 -0.05 0.057362758 95152.257
0.19357748 -0.05 0.056983702 95074.572
0.18741014 -0.05 0.056583118 94997.206
0.18137746 -0.05 0.056161624 94919.311
0.17547671 -0.05 0.055719844 94841.169
0.16970518 -0.05 0.055258362 94762.256
0.16406021 -0.05 0.05477783 94682.969
0.15853921 -0.05 0.054278745 94603.52
0.15313967 -0.05 0.053761636 94523.311
0.14785914 -0.05 0.053226963 94443.027
0.14269518 -0.05 0.052675259 94361.627
0.13764543 -0.05 0.052106992 94280.152
0.13270762 -0.05 0.051522466 94198.009
0.12787949 -0.05 0.050922169 94114.649
0.12315883 -0.05 0.050306449 94030.843
0.11854353 -0.05 0.049675628 93945.858
0.11403148 -0.05 0.04903008 93859.774
0.10962065 -0.05 0.04837006 93772.612
0.10530908 -0.05 0.047695796 93684.493
0.10109483 -0.05 0.047007509 93595.336
0.096976017 -0.05 0.046305459 93504.64
0.092950808 -0.05 0.04558984 93412.539
0.08901745 -0.05 0.044860715 93318.894
0.085174232 -0.05 0.044118143 93223.042
0.081419479 -0.05 0.043362243 93124.747
0.077751578 -0.05 0.042593081 93024.134
0.074168981 -0.05 0.041810614 92921.585
0.070670198 -0.05 0.041014781 92817.649
0.06725379 -0.05 0.040205491 92712.716
0.06391837 -0.05 0.039382651 92605.721
0.060662655 -0.05 0.038545988 92497.698
0.057485397 -0.05 0.037695273 92387.052
0.054385413 -0.05 0.036830261 92275.412
0.051361621 -0.05 0.035950545 92161.635
0.048412992 -0.05 0.035055749 92045.346
0.045538629 -0.05 0.034145316 91926.911
0.042737712 -0.05 0.03321865 91805.811
0.040009498 -0.05 0.032275149 91682.148
0.037353406 -0.05 0.031314032 91555.558
0.034768993 -0.05 0.030334375 91424.571
0.032255944 -0.05 0.02933521 91290.497
0.029814132 -0.05 0.028315426 91157.159
0.027443661 -0.05 0.027273729 91024.429
0.025144824 -0.05 0.026208776 90889.643
0.022918276 -0.05 0.02511886 90755.005
0.020764984 -0.05 0.02400217 90623.493
0.018686283 -0.05 0.022856725 90504.67
0.016684024 -0.05 0.021680228 90404.852
0.01476059 -0.05 0.020470219 90340.691
0.012919252 -0.05 0.019223865 90316.545
0.011164249 -0.05 0.017938283 90336.992
0.0095007128 -0.05 0.016610449 90409.56
0.0079348886 -0.05 0.015236971 90552.79
0.006474941 -0.05 0.013814774 90833.168
0.0051312596 -0.05 0.012341958 91268.013
0.0039150106 -0.05 0.010816511 91891.502
0.0028396284 -0.05 0.009238845 92734.229
0.0019206554 -0.05 0.007613688 93852.124
0.0011720639 -0.05 0.0059475212 95221.604
0.00060615611 -0.05 0.004252283 96803.547
0.00023063831 -0.05 0.0025452878 98479.098
4.5460517e-05 -0.05 0.0008455405 100140.74
0.99536103 -0.05 0.00067021835 101152.85
0.98608198 -0.05 0.0020028877 101068.09
0.97680071 -0.05 0.0033200849 100948.7
0.96751731 -0.05 0.0046220425 100844.35
0.95823181 -0.05 0.0059090613 100741.6
0.94894428 -0.05 0.0071813587 100644.22
0.93965479 -0.05 0.0084391859 100550.84
0.93036339 -0.05 0.0096828487 100460.93
0.92107012 -0.05 0.010912491 100374.87
0.91177504 -0.05 0.012128333 100291.88
0.90247819 -0.05 0.013330648 100212.06
0.89317963 -0.05 0.014519511 100134.94
0.88387936 -0.05 0.015695054 100060.66
0.87457746 -0.05 0.016857552 99988.733
0.86527394 -0.05 0.01800713 99919.253
0.85596885 -0.05 0.019143875 99851.593
0.84666223 -0.05 0.020267984 99785.849
0.8373541 -0.05 0.021379502 99721.769
0.82804448 -0.05 0.022478516 99659.061
0.8187334 -0.05 0.023565119 99597.581
0.8094209 -0.05 0.024639397 99537.277
0.80010698 -0.05 0.025701394 99478.193
0.79079168 -0.05 0.026751168 99419.977
0.78147501 -0.05 0.027788748 99362.686
0.77215699 -0.05 0.028814138 99306.052
0.76283764 -0.05 0.029827333 99250.3
0.75351698 -0.05 0.030828337 99195.064
0.74419501 -0.05 0.03181713 99140.564
0.73487174 -0.05 0.032793639 99086.388
0.72554719 -0.05 0.033757832 99032.695
0.71622136 -0.05 0.034709535 98979.26
0.70689427 -0.05 0.03564879 98925.781
0.69756592 -0.05 0.036575541 98872.324
0.68823633 -0.05 0.037489546 98819.083
0.67890547 -0.05 0.03839067 98765.906
0.66957337 -0.05 0.039278803 98712.806
0.66024004 -0.05 0.040153805 98659.522
0.65090546 -0.05 0.04101549 98606.25
0.64156964 -0.05 0.041863622 98552.975
0.63223258 -0.05 0.042697993 98499.718
0.62289428 -0.05 0.043518409 98446.076
0.61355475 -0.05 0.04432459 98392.399
0.60421397 -0.05 0.045116236 98338.446
0.59487195 -0.05 0.045893096 98283.918
0.58552869 -0.05 0.046654869 98228.632
0.57618419 -0.05 0.047401205 98172.966
0.56683843 -0.05 0.048131797 98116.913
0.55749143 -0.05 0.048846241 98060.687
0.54814318 -0.05 0.049544112 98003.826
0.53879368 -0.05 0.050225066 97946.372
0.52944294 -0.05 0.050888717 97888.327
0.52009095 -0.05 0.051534504 97830.169
0.51073771 -0.05 0.052161963 97771.264
0.50138323 -0.05 0.052770675 97711.654
0.49202751 -0.05 0.05336005 97651.134
0.48267057 -0.05 0.053929509 97589.871
0.47331239 -0.05 0.054478508 97527.601
0.46395301 -0.05 0.055006444 97464.57
0.45459243 -0.05 0.05551264 97400.723
0.44523065 -0.05 0.055996468 97336.079
0.43586772 -0.05 0.056457197 97270.758
0.42650365 -0.05 0.05689408 97204.505
0.41713847 -0.05 0.057306402 97137.392
0.4077722 -0.05 0.057693321 97069.409
0.39840488 -0.05 0.058053993 96999.951
0.38903656 -0.05 0.058387503 96929.116
0.37966728 -0.05 0.058692933 96856.964
0.3702971 -0.05 0.058969274 96783.931
0.36092607 -0.05 0.059215505 96709.382
0.35155429 -0.05 0.059430617 96633.641
0.34218182 -0.05 0.059613395 96557.268
0.33280876 -0.05 0.059762649 96479.797
0.3234352 -0.05 0.059877122 96400.026
0.31406128 -0.05 0.059955444 96316.655
0.30468712 -0.05 0.059996221 96231.51
