/*--------------------------------*- C++ -*----------------------------------*\
| =========                 |                                                 |
| \\      /  F ield         | OpenFOAM: The Open Source CFD Toolbox           |
|  \\    /   O peration     | Version:  2306                                  |
|   \\  /    A nd           | Website:  www.openfoam.com                      |
|    \\/     M anipulation  |                                                 |
\*---------------------------------------------------------------------------*/
FoamFile
{
    version     2.0;
    format      ascii;
    arch        "LSB;label=32;scalar=64";
    class       volScalarField;
    location    "0.011";
    object      p;
}
// * * * * * * * * * * * * * * * * * * * * * * * * * * * * * * * * * * * * * //

dimensions      [1 -1 -2 0 0 0 0];

internalField   nonuniform List<scalar> 
20000
(
99671.868
99673.74
99675.669
99678.566
99682.506
99687.763
99694.397
99702.24
99711.655
99722.904
99736.108
99751.98
99770.358
99792.343
99817.613
99847.396
99881.361
99920.552
99964.56
100013.84
100067.57
100125.13
100184.69
100244.16
100300.5
100350.57
100391.26
100420.51
100436.76
100440.3
100432.41
100414.91
100390.05
100360.6
100328.65
100295.52
100262.73
100231.63
100202.43
100175.93
100150.63
100132.25
100112.59
100085.97
100069.83
100073.08
100081.48
100064.22
100036.23
100017.38
99684.574
99686.672
99688.647
99691.664
99695.81
99701.343
99708.335
99716.538
99726.319
99737.982
99751.619
99768.015
99786.946
99809.6
99835.6
99866.246
99901.155
99941.394
99986.514
100036.94
100091.77
100150.27
100210.52
100270.22
100326.21
100375.21
100414.18
100441.1
100454.43
100455.12
100444.41
100424.37
100397.34
100366.19
100333.04
100299.06
100265.56
100233.85
100204.31
100177.45
100151.9
100133.48
100113.17
100086.04
100070.99
100074.53
100081.43
100064.17
100036.18
100017.38
99699.316
99701.422
99703.507
99706.636
99710.953
99716.674
99723.878
99732.345
99742.431
99754.47
99768.521
99785.445
99804.951
99828.309
99855.077
99886.622
99922.509
99963.83
100010.09
100061.67
100117.61
100177.05
100237.92
100297.77
100353.27
100401.02
100438.11
100462.42
100472.69
100470.35
100456.7
100434.01
100404.75
100371.85
100337.46
100302.6
100268.37
100236.06
100206.15
100178.94
100153.15
100134.68
100113.65
100086.31
100072.19
100075.79
100081.45
100064.12
100036.13
100017.38
99715.301
99717.429
99719.616
99722.857
99727.345
99733.247
99740.674
99749.433
99759.871
99772.339
99786.851
99804.347
99824.467
99848.567
99876.142
99908.621
99945.526
99987.965
100035.4
100088.17
100145.22
100205.58
100267.03
100326.93
100381.78
100428.1
100463.08
100484.48
100491.55
100485.96
100469.22
100443.78
100412.2
100377.49
100341.84
100306.09
100271.12
100238.21
100207.93
100180.37
100154.37
100135.83
100114.03
100086.74
100073.37
100076.85
100081.55
100064.07
100036.08
100017.37
99732.63
99734.822
99737.134
99740.519
99745.224
99751.358
99759.064
99768.118
99778.898
99791.794
99806.763
99824.837
99845.578
99870.437
99898.84
99932.284
99970.241
100013.84
100062.48
100116.46
100174.63
100235.89
100297.85
100357.68
100411.71
100456.41
100489.02
100507.22
100510.94
100501.89
100481.91
100453.61
100419.65
100383.1
100346.17
100309.51
100273.81
100240.3
100209.65
100181.75
100155.56
100136.93
100114.34
100087.29
100074.54
100077.77
100081.71
100064.01
100036.03
100017.36
99751.619
99753.882
99756.319
99759.845
99764.769
99771.135
99779.112
99788.448
99799.55
99812.867
99828.288
99846.944
99868.316
99893.952
99923.211
99957.652
99996.699
100041.49
100091.37
100146.59
100205.89
100268.01
100330.41
100390.03
100443.05
100485.94
100515.88
100530.6
100530.79
100518.09
100494.74
100463.48
100427.06
100388.62
100350.39
100312.83
100276.4
100242.31
100211.3
100183.06
100156.71
100137.98
100114.59
100087.92
100075.74
100078.55
100081.91
100063.94
100035.98
100017.34
99772.131
99774.467
99777.029
99780.703
99785.853
99792.451
99800.686
99810.324
99821.761
99835.513
99851.399
99870.659
99892.685
99919.129
99949.279
99984.755
100024.93
100070.95
100122.12
100178.59
100239.01
100301.97
100364.72
100423.99
100475.79
100516.64
100543.57
100554.62
100551.03
100534.51
100507.65
100473.34
100434.41
100394.06
100354.51
100316.04
100278.87
100244.22
100212.86
100184.31
100157.82
100138.98
100114.79
100088.59
100076.97
100079.17
100082.15
100063.86
100035.94
100017.32
99794.128
99796.543
99799.22
99803.047
99808.432
99815.26
99823.754
99833.705
99845.49
99859.704
99876.084
99895.983
99918.7
99945.992
99977.074
100013.63
100054.99
100102.28
100154.76
100212.51
100274.05
100337.79
100400.79
100459.54
100509.91
100548.46
100572.01
100579.22
100571.59
100551.07
100520.59
100483.16
100441.66
100399.37
100358.49
100319.11
100281.21
100246
100214.31
100185.47
100158.87
100139.92
100114.98
100089.29
100078.16
100079.68
100082.41
100063.78
100035.89
100017.3
99817.365
99819.906
99822.703
99826.711
99832.366
99839.46
99848.255
99858.568
99870.741
99885.458
99902.368
99922.943
99946.388
99974.569
100006.63
100044.31
100086.89
100135.51
100189.34
100248.39
100311.04
100375.51
100438.63
100496.68
100545.4
100581.33
100601.14
100604.32
100592.39
100567.73
100533.52
100492.89
100448.79
100404.54
100362.34
100322.05
100283.42
100247.66
100215.65
100186.51
100159.84
100140.8
100115.11
100089.97
100079.25
100080.17
100082.68
100063.69
100035.85
100017.3
99842.159
99844.837
99847.766
99851.964
99857.898
99865.258
99874.352
99885.032
99897.598
99912.833
99930.287
99951.568
99975.774
100004.89
100037.97
100076.83
100120.69
100170.68
100225.91
100286.26
100350
100415.13
100478.25
100535.37
100582.21
100615.15
100630.92
100629.83
100613.36
100584.4
100546.36
100502.49
100455.76
100409.54
100366.03
100324.84
100285.49
100249.19
100216.86
100187.44
100160.72
100141.59
100115.16
100090.64
100080.33
100080.68
100082.98
100063.61
100035.8
100017.3
99868.57
99871.375
99874.419
99878.795
99884.996
99892.614
99901.996
99913.051
99926.022
99941.801
99959.833
99981.861
100006.88
100036.97
100071.14
100111.23
100156.44
100207.84
100264.5
100326.18
100390.98
100456.69
100519.64
100575.61
100620.3
100649.82
100661.33
100655.64
100634.43
100601.03
100559.08
100511.91
100462.55
100414.36
100369.55
100327.46
100287.4
100250.59
100217.95
100188.27
100161.52
100142.31
100115.16
100091.27
100081.39
100081.2
100083.29
100063.53
100035.74
100017.3
99896.119
99899.089
99902.288
99906.898
99913.422
99921.353
99931.081
99942.567
99955.991
99972.368
99991.026
100013.86
100039.74
100070.88
100106.19
100147.58
100194.18
100247.05
100305.17
100368.18
100434.01
100500.19
100562.78
100617.36
100659.59
100685.25
100692.26
100681.65
100655.51
100617.53
100571.61
100521.12
100469.11
100418.98
100372.87
100329.91
100289.15
100251.84
100218.91
100188.97
100162.22
100142.95
100115.1
100091.87
100082.4
100081.75
100083.6
100063.43
100035.67
100017.3
99925.401
99928.52
99931.85
99936.669
99943.47
99951.677
99961.755
99973.695
99987.601
100004.62
100023.94
100047.63
100074.42
100106.66
100143.18
100185.91
100233.97
100288.36
100347.97
100412.31
100479.11
100545.64
100607.67
100660.61
100699.98
100721.37
100723.62
100707.78
100676.51
100633.85
100583.89
100530.07
100475.43
100423.36
100376
100332.17
100290.73
100252.94
100219.73
100189.55
100162.83
100143.5
100114.99
100092.44
100083.33
100082.35
100083.93
100063.29
100035.57
100017.29
99956.192
99959.48
99962.953
99968.003
99975.095
99983.622
99994.084
100006.52
100020.95
100038.64
100058.67
100083.26
100111.01
100144.39
100182.16
100226.31
100275.87
100331.82
100392.95
100458.6
100526.32
100593.06
100654.29
100705.31
100741.36
100758.13
100755.27
100733.93
100697.35
100649.91
100595.87
100538.72
100481.46
100427.5
100378.91
100334.24
100292.13
100253.89
100220.42
100190.03
100163.35
100143.89
100114.81
100092.97
100084.22
100082.99
100084.25
100063.11
100035.44
100017.24
99988.573
99992.065
99995.72
100001.06
100008.51
100017.42
100028.27
100041.21
100056.16
100074.55
100095.3
100120.81
100149.56
100184.13
100223.22
100268.82
100319.95
100377.49
100440.16
100507.11
100575.65
100642.42
100702.61
100751.37
100783.6
100795.46
100787.09
100759.98
100717.94
100665.63
100607.5
100547.04
100487.19
100431.37
100381.59
100336.1
100293.34
100254.68
100220.99
100190.41
100163.79
100144.09
100114.57
100093.47
100085.08
100083.68
100084.57
100062.88
100035.28
100017.17
100022.91
100026.59
100030.41
100036.03
100043.82
100053.09
100064.32
100077.76
100093.24
100112.35
100133.86
100160.33
100190.13
100225.94
100266.39
100313.5
100366.24
100425.42
100489.65
100557.86
100627.13
100693.72
100752.59
100798.73
100826.59
100833.23
100818.96
100785.84
100738.18
100680.95
100618.73
100554.97
100492.58
100434.96
100384.02
100337.75
100294.35
100255.34
100221.44
100190.65
100164.11
100144.15
100114.29
100093.94
100085.92
100084.44
100084.87
100062.61
100035.08
100017.08
100058.8
100062.71
100066.73
100072.66
100080.84
100090.5
100102.17
100116.18
100132.23
100152.12
100174.41
100201.89
100232.77
100269.86
100311.73
100360.41
100414.82
100475.68
100541.47
100610.9
100680.76
100746.96
100804.21
100847.24
100870.24
100871.3
100850.74
100811.39
100757.98
100695.8
100629.49
100562.49
100497.62
100438.25
100386.2
100339.15
100295.19
100255.86
100221.72
100190.73
100164.27
100144.04
100113.98
100094.38
100086.76
100085.23
100085.14
100062.3
100034.85
100016.95
100096.81
100100.95
100105.14
100111.39
100119.93
100129.96
100142.05
100156.61
100173.22
100193.89
100216.98
100245.49
100277.51
100315.94
100359.29
100409.6
100465.73
100528.31
100595.66
100666.26
100736.55
100802.09
100857.39
100896.74
100914.49
100909.5
100882.32
100836.51
100777.26
100710.1
100639.74
100569.56
100502.27
100441.21
100388.1
100340.33
100295.86
100256.17
100221.82
100190.73
100164.31
100143.69
100113.66
100094.79
100087.57
100086.06
100085.4
100061.92
100034.58
100016.81
100136.57
100140.94
100145.33
100151.93
100160.87
100171.27
100183.79
100198.93
100216.12
100237.61
100261.55
100291.15
100324.36
100364.2
100409.11
100461.12
100519.05
100583.38
100652.29
100723.96
100794.5
100859.1
100912.05
100947.11
100959.22
100947.67
100913.55
100861.09
100795.92
100723.79
100649.44
100576.15
100506.53
100443.85
100389.71
100341.29
100296.28
100256.29
100221.82
100190.61
100164.24
100143.1
100113.33
100095.17
100088.35
100086.91
100085.64
100061.48
100034.27
100016.64
100177.92
100182.56
100187.18
100194.16
100203.49
100214.3
100227.28
100243.07
100260.88
100283.26
100308.11
100338.88
100373.37
100414.7
100461.26
100515.05
100574.84
100640.94
100711.39
100784.03
100854.61
100917.94
100968.07
100998.2
101004.25
100985.66
100944.29
100885.01
100813.88
100736.81
100658.54
100582.22
100510.36
100446.12
100391.05
100342.02
100296.44
100256.27
100221.67
100190.37
100164.04
100142.27
100112.97
100095.52
100089.09
100087.76
100085.84
100060.98
100033.92
100016.46
100220.97
100225.87
100230.72
100238.07
100247.79
100259.04
100272.52
100289.01
100307.51
100330.86
100356.71
100388.74
100424.61
100467.52
100515.82
100571.48
100633.17
100701.08
100773.02
100846.5
100916.84
100978.57
101025.29
101049.89
101049.41
101023.3
100974.39
100908.17
100831.05
100749.09
100666.99
100587.77
100513.75
100448.04
100392.13
100342.42
100296.43
100256.08
100221.38
100190.03
100163.72
100141.26
100112.55
100095.83
100089.82
100088.61
100086
100060.39
100033.53
100016.26
100265.49
100270.69
100275.83
100283.59
100293.77
100305.54
100319.58
100336.88
100356.14
100380.54
100407.48
100440.85
100478.19
100522.77
100572.9
100630.47
100694.13
100763.85
100837.22
100911.35
100981.18
101040.89
101083.5
101102.11
101094.46
101060.42
101003.73
100930.45
100847.36
100760.6
100674.78
100592.75
100516.68
100449.63
100392.9
100342.54
100296.2
100255.72
100220.95
100189.58
100163.26
100140.08
100112.09
100096.12
100090.52
100089.45
100086.1
100059.71
100033.09
100016.04
100312.17
100317.64
100323.05
100331.15
100341.78
100354.12
100368.74
100386.9
100406.98
100432.5
100460.58
100495.36
100534.24
100580.55
100632.57
100692.14
100757.79
100829.31
100904.03
100978.6
101047.58
101104.8
101142.56
101154.65
101139.22
101096.85
101032.14
100951.74
100862.73
100771.27
100681.86
100597.15
100519.15
100450.88
100393.26
100342.43
100295.76
100255.2
100220.37
100189.01
100162.68
100138.76
100111.58
100096.39
100091.2
100090.28
100086.15
100058.94
100032.61
100015.81
100360.64
100366.48
100372.26
100380.79
100392.03
100405.02
100420.25
100439.3
100460.21
100486.87
100516.14
100552.37
100592.84
100640.95
100694.94
100756.55
100824.24
100897.53
100973.47
101048.24
101116
101170.13
101202.28
101207.31
101183.48
101132.4
101059.49
100971.95
100877.09
100781.06
100688.2
100600.94
100521.18
100451.71
100393.33
100342.04
100295.1
100254.51
100219.66
100188.35
100161.98
100137.31
100111.03
100096.64
100091.87
100091.11
100086.18
100058.06
100032.09
100015.58
100411.65
100417.84
100424.02
100433.02
100444.81
100458.4
100474.19
100494.14
100515.88
100543.71
100574.21
100611.94
100654.08
100704.06
100760.09
100823.79
100893.54
100968.56
101045.57
101120.25
101186.37
101236.67
101262.51
101259.83
101227.03
101166.9
101085.64
100990.98
100890.39
100789.94
100693.79
100604.14
100522.78
100452.07
100393.08
100341.37
100294.23
100253.65
100218.8
100187.58
100161.17
100135.74
100110.45
100096.91
100092.54
100091.96
100086.13
100057.07
100031.53
100015.33
100464.92
100471.46
100478.06
100487.51
100499.8
100514.07
100530.45
100551.34
100573.97
100603.04
100634.83
100674.13
100718.02
100769.95
100828.1
100893.96
100965.77
101042.46
101120.33
101194.58
101258.56
101304.19
101323.12
101311.94
101269.65
101200.16
101110.47
101008.75
100902.56
100797.87
100698.59
100606.75
100523.85
100452.1
100392.5
100340.43
100293.14
100252.63
100217.81
100186.71
100160.25
100134.04
100109.84
100097.19
100093.23
100092.82
100085.97
100055.99
100030.92
100015.08
100520.21
100527.16
100534.26
100544.21
100557.03
100572.05
100589.05
100610.96
100634.53
100664.9
100698.06
100739.02
100784.76
100838.72
100899.06
100967.13
101041.01
101119.27
101197.77
101271.2
101332.43
101372.48
101383.85
101363.39
101311.12
101232.02
101133.85
101025.16
100913.56
100804.82
100702.6
100608.8
100524.33
100451.73
100391.59
100339.21
100291.85
100251.43
100216.67
100185.76
100159.22
100132.23
100109.22
100097.5
100093.94
100093.7
100085.67
100054.81
100030.26
100014.82
100577.93
100585.28
100592.88
100603.3
100616.6
100632.41
100650.07
100673.04
100697.62
100729.36
100763.98
100806.68
100854.37
100910.46
100973.09
101043.41
101119.34
101199.02
101277.86
101350.03
101407.77
101441.33
101444.4
101413.91
101351.21
101262.29
101155.66
101040.16
100923.36
100810.76
100705.88
100610.18
100524.39
100450.98
100390.35
100337.71
100290.35
100250.07
100215.4
100184.72
100158.07
100130.31
100108.59
100097.85
100094.71
100094.61
100085.22
100053.55
100029.57
100014.55
100637.77
100645.57
100653.69
100664.63
100678.46
100695.15
100713.52
100737.65
100763.3
100796.49
100832.68
100877.22
100926.97
100985.3
101050.29
101122.9
101200.82
101281.75
101360.58
101430.97
101484.29
101510.56
101504.44
101463.24
101389.7
101290.83
101175.81
101053.69
100931.9
100815.71
100708.42
100610.82
100523.97
100449.83
100388.76
100335.95
100288.65
100248.54
100213.98
100183.59
100156.79
100128.33
100107.97
100098.25
100095.52
100095.55
100084.56
100052.21
100028.84
100014.28
100699.92
100708.19
100716.9
100728.42
100742.77
100760.39
100779.51
100804.85
100831.66
100866.4
100904.26
100950.76
101002.69
101063.35
101130.78
101205.69
101285.54
101367.47
101445.89
101513.85
101561.72
101579.91
101563.64
101511.09
101426.35
101317.48
101194.2
101065.69
100939.18
100819.72
100710.09
100610.9
100523.08
100448.3
100386.85
100333.91
100286.75
100246.84
100212.44
100182.38
100155.32
100126.36
100107.34
100098.69
100096.37
100096.51
100083.64
100050.8
100028.07
100014
100764.38
100773.17
100782.47
100794.62
100809.51
100828.14
100848.07
100874.73
100902.8
100939.21
100978.88
101027.46
101081.68
101144.77
101214.7
101291.9
101373.53
101456.18
101533.71
101598.48
101639.79
101649.06
101621.67
101557.18
101460.98
101342.1
101210.76
101076.12
100945.2
100822.77
100710.84
100610.38
100521.72
100446.38
100384.6
100331.61
100284.65
100244.97
100210.76
100181.08
100153.61
100124.5
100106.72
100099.15
100097.27
100097.49
100082.43
100049.35
100027.26
100013.71
100831.26
100840.6
100850.49
100863.31
100878.8
100898.55
100919.4
100947.51
100976.96
101015.15
101056.75
101107.5
101164.13
101229.7
101302.16
101381.61
101464.84
101547.85
101623.95
101684.56
101718.21
101717.6
101678.2
101601.23
101493.36
101364.57
101225.4
101084.96
100950.01
100824.7
100710.89
100609.27
100519.88
100444.08
100382.02
100329.06
100282.36
100242.92
100208.96
100179.67
100151.67
100122.77
100106.12
100099.6
100098.19
100098.52
100080.9
100047.86
100026.43
100013.41
100900.82
100910.74
100921.21
100934.86
100951.05
100972.03
100993.86
101023.49
101054.41
101094.45
101138.06
101191.06
101250.17
101318.29
101393.3
101474.91
101559.51
101642.45
101716.42
101771.7
101796.77
101785.1
101732.87
101642.95
101523.34
101384.79
101238.09
101092.22
100953.62
100825.53
100710.18
100607.56
100517.59
100441.4
100379.13
100326.25
100279.88
100240.71
100207.03
100178.14
100149.57
100121.16
100105.55
100099.98
100099.11
100099.58
100079.03
100046.33
100025.57
100013.09
100973.4
100983.98
100995.12
101009.81
101026.68
101048.91
101071.7
101102.88
101135.3
101177.24
101222.95
101278.28
101339.95
101410.68
101488.22
101571.86
101657.52
101739.89
101810.92
101859.58
101875.07
101851.15
101785.33
101682.1
101550.72
101402.65
101248.79
101097.97
100955.8
100825.47
100708.73
100605.28
100514.84
100438.36
100375.92
100323.21
100277.21
100238.32
100204.97
100176.48
100147.32
100119.69
100105.11
100100.27
100099.98
100100.62
100076.86
100044.75
100024.69
100012.77
101049.2
101060.51
101072.38
101088.1
101105.56
101129.12
101152.92
101185.73
101219.73
101263.66
101311.56
101369.31
101433.62
101506.99
101587.02
101672.52
101758.87
101840.06
101907.14
101947.84
101952.63
101915.31
101835.22
101718.41
101575.37
101418.08
101257.55
101102.18
100956.66
100824.47
100706.54
100602.43
100511.66
100434.96
100372.41
100319.93
100274.35
100235.75
100202.8
100174.67
100144.92
100118.33
100104.83
100100.53
100100.72
100101.49
100074.46
100043.1
100023.79
100012.44
101128.26
101140.34
101152.91
101169.69
101187.79
101212.75
101237.63
101272.13
101307.82
101353.83
101404.04
101464.3
101531.33
101607.35
101689.81
101776.92
101863.5
101942.81
102004.62
102036.17
102028.92
101977.16
101882.19
101751.67
101597.16
101431.07
101264.41
101104.58
100956.39
100822.53
100703.63
100599.02
100508.05
100431.21
100368.61
100316.42
100271.3
100233.02
100200.49
100172.68
100142.37
100117.05
100104.73
100100.9
100101.31
100102
100071.87
100041.4
100022.88
100012.1
101210.63
101223.56
101236.8
101254.72
101273.48
101299.91
101325.96
101362.25
101399.74
101447.92
101500.55
101563.4
101633.21
101711.9
101796.66
101885.07
101971.35
102047.85
102102.94
102124.13
102103.41
102036.25
101925.92
101781.66
101615.97
101441.65
101269.28
101105.42
100954.94
100819.69
100700.03
100595.09
100504.02
100427.13
100364.52
100312.68
100268.06
100230.11
100198.05
100170.47
100139.67
100115.84
100104.72
100101.49
100101.9
100102.22
100069.14
100039.67
100021.98
100011.75
101296.31
101310.19
101324.11
101343.28
101362.77
101390.78
101418.08
101456.26
101495.64
101546.08
101601.23
101666.76
101739.43
101820.76
101907.64
101996.97
102082.28
102154.86
102201.63
102211.17
102175.55
102092.13
101966.09
101808.2
101631.79
101449.87
101271.91
101104.82
100952.35
100815.96
100695.76
100590.64
100499.59
100422.73
100360.17
100308.74
100264.63
100227.04
100195.46
100167.98
100136.86
100114.75
100104.94
100102.32
100102.72
100102.37
100066.31
100037.94
100021.07
100011.4
101385.54
101400.52
101415.13
101435.62
101455.9
101485.56
101514.15
101554.26
101595.64
101648.43
101706.26
101774.58
101850.16
101934.07
102022.81
102112.56
102196.09
102263.33
102300.26
102296.65
102244.8
102144.36
102002.42
101831.15
101644.63
101455.55
101272.67
101102.76
100948.64
100811.4
100690.84
100585.69
100494.78
100418.03
100355.57
100304.58
100261.01
100223.8
100192.7
100165.08
100134.01
100113.83
100105.34
100103.29
100103.8
100101.76
100063.46
100036.24
100020.18
100011.05
101478.48
101494.7
101509.98
101531.78
101552.83
101584.18
101614.11
101656.3
101699.85
101755.18
101815.85
101887.07
101965.58
102051.94
102142.2
102231.75
102312.48
102372.69
102398.36
102379.84
102310.59
102192.52
102034.64
101850.44
101654.52
101458.47
101271.61
101099.29
100943.86
100806.03
100685.31
100580.27
100489.59
100413.04
100350.72
100300.23
100257.2
100220.42
100189.73
100161.61
100131.24
100113.11
100105.92
100104.35
100105.01
100100.19
100060.67
100034.57
100019.29
100010.7
101574.82
101592.47
101608.23
101631.4
101653.32
101686.62
101718.14
101762.64
101808.63
101866.67
101930.33
102004.51
102085.9
102174.48
102265.78
102354.38
102431.03
102482.34
102495.22
102460.08
102372.36
102236.22
102062.57
101866.08
101661.24
101459.12
101268.75
101094.45
100938.06
100799.88
100679.19
100574.39
100484.04
100407.77
100345.65
100295.67
100253.22
100216.9
100186.53
100157.56
100128.54
100112.54
100106.67
100105.5
100106.29
100097.61
100057.97
100032.9
100018.4
100010.35
101674.78
101693.87
101709.97
101734.92
101757.95
101793.56
101826.92
101873.91
101922.49
101983.32
102050.02
102127.13
102211.26
102301.72
102393.49
102480.18
102551.16
102591.72
102590.05
102536.67
102429.54
102275.1
102086.08
101878.06
101664.6
101457.49
101264.15
101088.3
100931.28
100793
100672.51
100568.08
100478.15
100402.24
100340.36
100290.93
100249.05
100213.26
100183.04
100153.02
100125.91
100112.04
100107.53
100106.79
100107.59
100094.16
100055.29
100031.24
100017.53
100010.01
101779.09
101799.74
101816.76
101844.01
101868.06
101905.94
101941.12
101990.57
102041.77
102105.37
102175.11
102255.08
102341.74
102433.65
102525.17
102608.77
102672.09
102700.24
102681.94
102608.89
102481.62
102308.89
102105.12
101886.11
101665.14
101453.63
101257.86
101080.91
100923.57
100785.42
100665.29
100561.34
100471.93
100396.47
100334.88
100286
100244.73
100209.49
100179.23
100148.17
100123.42
100111.63
100108.24
100108.23
100109.01
100090.21
100052.53
100029.58
100016.69
100009.67
101889.36
101911.71
101929.58
101958.68
101983.69
102023.8
102060.82
102112.71
102166.61
102233
102305.78
102388.49
102477.39
102570.21
102660.57
102739.6
102793.11
102807.01
102770.03
102676.01
102528.09
102337.38
102119.67
101890.09
101662.85
101447.61
101249.98
101072.34
100914.98
100777.17
100657.56
100554.2
100465.4
100390.47
100329.21
100280.89
100240.27
100205.6
100175
100143.24
100121.16
100111.44
100108.86
100109.64
100110.09
100086
100049.73
100027.96
100015.88
100009.35
102004.49
102028.75
102047.33
102078.61
102104.61
102147.1
102186.07
102240.46
102297.16
102366.4
102442.2
102527.5
102618.23
102711.28
102799.35
102871.93
102913.46
102911
102853.42
102737.34
102568.58
102360.46
102129.38
101890.56
101657.78
101439.53
101240.59
101062.65
100905.56
100768.3
100649.35
100546.69
100458.56
100384.26
100323.38
100275.62
100235.68
100201.57
100170.24
100138.52
100119.15
100111.39
100109.62
100110.76
100110.96
100081.6
100046.96
100026.41
100015.11
100009.04
102125.27
102151.48
102170.61
102204.14
102231.1
102276.02
102317.11
102374.05
102433.68
102505.81
102584.56
102672.16
102764.22
102856.62
102940.97
103004.78
103032.35
103011.07
102931.2
102792.22
102602.76
102378.02
102134.15
101887.5
101650.05
101429.5
101229.77
101051.91
100895.36
100758.84
100640.68
100538.8
100451.43
100377.83
100317.39
100270.2
100230.99
100197.36
100164.9
100134.22
100117.36
100111.39
100110.39
100111.66
100111.4
100077.17
100044.26
100024.94
100014.37
100008.75
102251.1
102279.32
102298.91
102335.02
102363.1
102410.74
102454.32
102513.9
102576.47
102651.45
102733
102822.52
102915.21
103005.86
103084.7
103137.23
103148.6
103106.11
103002.45
102840.11
102630.43
102389.7
102134.57
101881.01
101639.78
101417.63
101217.62
101040.19
100884.42
100748.82
100631.57
100530.56
100444.01
100371.2
100311.24
100264.64
100226.23
100192.93
100159.23
100130.33
100115.77
100111.27
100111.05
100112.33
100111.51
100072.85
100041.71
100023.55
100013.67
100008.47
102381.96
102412.59
102432.74
102471.8
102501.13
102551.61
102598.02
102660.38
102725.84
102803.49
102887.58
102978.52
103070.97
103158.47
103229.49
103268.28
103260.86
103194.96
103066.31
102880.53
102651.39
102395.36
102130.6
101871.21
101627.1
101404.02
101204.2
101027.55
100872.8
100738.27
100622.05
100521.98
100436.31
100364.35
100304.96
100258.96
100221.4
100188.23
100153.41
100126.81
100114.36
100110.84
100111.51
100112.66
100111.24
100068.79
100039.32
100022.21
100013
100008.2
102519.33
102552.66
102573.11
102615.44
102646.18
102699.16
102748.07
102813.43
102881.92
102962.05
103048.32
103140.04
103231.14
103313.68
103374.13
103396.76
103367.7
103276.46
103122.01
102913.15
102665.16
102395.66
102122.38
101858.29
101612.18
101388.8
101189.62
101014.04
100860.53
100727.23
100612.12
100513.05
100428.31
100357.29
100298.55
100253.18
100216.51
100183.14
100147.63
100123.6
100113.09
100110.32
100111.68
100112.75
100108.99
100065.07
100037.02
100020.92
100012.37
100007.96
102664.06
102700.49
102721.1
102766.6
102798.45
102854.12
102905.31
102973.13
103044.83
103127.31
103215.24
103306.82
103395.11
103470.41
103517.34
103521.09
103467.66
103349.47
103168.92
102937.62
102671.69
102390.52
102110.08
101842.41
101595.15
101372.08
101173.95
100999.73
100847.65
100715.71
100601.81
100503.79
100420.02
100349.99
100292.01
100247.32
100211.5
100177.48
100142.15
100120.69
100111.96
100110
100111.7
100112.73
100104.8
100061.46
100034.75
100019.7
100011.79
100007.73
102815.87
102855.92
102876.2
102925.27
102958.4
103016.47
103070.24
103140.38
103214.94
103299.37
103388.2
103478.44
103562.02
103627.14
103657.82
103639.47
103559.27
103412.98
103206.47
102953.36
102671.58
102380.12
102093.91
101823.77
101576.17
101353.96
101157.27
100984.67
100834.21
100703.75
100591.12
100494.19
100411.41
100342.43
100285.35
100241.4
100206.31
100171.2
100137.14
100118.19
100111.13
100109.83
100112.1
100113.22
100099.41
100057.74
100032.55
100018.54
100011.24
100007.52
102974.91
103018.86
103038.47
103091.08
103125.6
103185.96
103242.76
103315.43
103392.45
103478.13
103566.83
103654.15
103730.62
103782.3
103793.71
103750.05
103641.07
103466.09
103234.18
102960.4
102664.76
102364.68
102074.11
101802.56
101555.38
101334.56
101139.65
100968.91
100820.23
100691.37
100580.06
100484.23
100402.45
100334.59
100278.57
100235.43
100200.86
100164.49
100132.56
100116.13
100110.71
100110.13
100112.64
100113.72
100093.52
100054.05
100030.47
100017.47
100010.73
100007.32
103141.91
103189.27
103208.06
103264.06
103300.49
103363.3
103423.34
103498.15
103577.24
103663.32
103750.51
103832.88
103899.16
103934.16
103922.84
103851
103711.73
103508.01
103251.27
102959.24
102651.46
102344.48
102050.93
101778.97
101532.93
101313.98
101121.17
100952.5
100805.75
100678.57
100568.64
100473.9
100393.12
100326.42
100271.67
100229.42
100195.04
100157.58
100128.46
100114.52
100110.38
100111.2
100113.68
100114.34
100087.64
100050.51
100028.52
100016.48
100010.26
100007.15
103317.37
103367.79
103385.98
103444.83
103484.18
103549.53
103612.42
103688.69
103769.05
103854.37
103938.26
104013.07
104065.57
104080.58
104042.87
103940.45
103770.03
103537.99
103257.96
102949.82
102631.94
102319.81
102024.6
101753.21
101508.95
101292.3
101101.88
100935.48
100790.79
100665.39
100556.84
100463.18
100383.38
100317.9
100264.65
100223.35
100188.69
100150.72
100124.83
100113.28
100110.19
100112.38
100114.29
100114.57
100082.01
100047.2
100026.73
100015.55
100009.82
100006.99
103501.26
103555.25
103573.95
103634.63
103677.14
103744.73
103809.94
103886.94
103967.33
104050.32
104128.61
104192.57
104227.61
104218.87
104151.47
104016.66
103814.86
103555.07
103254.5
102932.44
102606.57
102290.99
101995.39
101725.45
101483.57
101269.61
101081.84
100917.89
100775.38
100651.82
100544.66
100452.02
100373.18
100309.02
100257.51
100217.13
100181.58
100144.22
100121.64
100112.3
100110.09
100113.04
100114.68
100114.59
100076.74
100044.15
100025.07
100014.68
100009.42
100006.84
103693.71
103751.13
103771.54
103835.41
103879.99
103947.9
104015.08
104092.02
104171.05
104249.73
104319.54
104368.73
104382.64
104346.1
104246.28
104077.96
103844.98
103559.7
103240.95
102907.43
102575.72
102258.34
101963.54
101695.86
101456.9
101245.99
101061.1
100899.75
100759.54
100637.88
100532.09
100440.4
100362.5
100299.75
100250.26
100210.68
100173.67
100138.23
100118.84
100111.48
100109.95
100113.23
100114.87
100114.44
100071.9
100041.37
100023.5
100013.87
100009.04
100006.71
103896.24
103956.93
103978.42
104043.56
104091.12
104159.34
104227.34
104302.99
104378.82
104450.59
104508.25
104538.66
104527.27
104459.32
104325.04
104122.85
103859.73
103551.84
103217.62
102875.24
102539.79
102222.18
101929.28
101664.61
101429.05
101221.5
101039.7
100881.1
100743.28
100623.57
100519.11
100428.27
100351.29
100290.11
100242.87
100203.87
100165.23
100132.65
100116.33
100110.71
100109.65
100112.8
100114.26
100112.29
100067.59
100038.75
100022.01
100013.1
100008.69
100006.59
104108.53
104171.58
104194.52
104260.45
104310.07
104377.95
104445.57
104518.27
104588.51
104650.08
104691.29
104698.84
104657.82
104555.53
104385.54
104149.66
103859.38
103531.65
103184.98
102836.35
102499.2
102182.84
101892.85
101631.84
101400.13
101196.21
101017.68
100861.95
100726.61
100608.89
100505.7
100415.61
100339.56
100280.1
100235.29
100196.52
100156.6
100127.42
100113.93
100109.85
100109.11
100111.52
100112.56
100107.43
100063.51
100036.18
100020.59
100012.4
100008.37
100006.48
104329.87
104395.12
104419.64
104485.17
104535.87
104602.38
104668.11
104735.67
104797.18
104844.36
104864.83
104844.92
104770.54
104631.75
104425.59
104158.2
103843.71
103499.54
103143.58
102791.28
102454.37
102140.6
101854.43
101597.69
101370.19
101170.16
100995.06
100842.33
100709.55
100593.85
100491.86
100402.4
100327.31
100269.78
100227.42
100188.35
100148.12
100122.51
100111.49
100108.58
100108.38
100109.8