/*--------------------------------*- C++ -*----------------------------------*\
| =========                 |                                                 |
| \\      /  F ield         | OpenFOAM: The Open Source CFD Toolbox           |
|  \\    /   O peration     | Version:  2306                                  |
|   \\  /    A nd           | Website:  www.openfoam.com                      |
|    \\/     M anipulation  |                                                 |
\*---------------------------------------------------------------------------*/
FoamFile
{
    version     2.0;
    format      ascii;
    arch        "LSB;label=32;scalar=64";
    class       volVectorField;
    location    "0.011";
    object      U;
}
// * * * * * * * * * * * * * * * * * * * * * * * * * * * * * * * * * * * * * //

dimensions      [0 1 -1 0 0 0 0];

internalField   nonuniform List<vector> 
20000
(
(65.240237 1.6605823e-17 -0.19733344)
(77.794038 -7.4113914e-18 -0.11974409)
(85.860954 2.7286792e-17 -0.19270663)
(92.678843 -1.6783805e-17 -0.2295251)
(98.730464 -1.5578734e-17 -0.28206394)
(103.69212 2.1488094e-17 -0.34770701)
(105.29558 -1.7350085e-17 -0.36116854)
(105.26704 -2.2649468e-17 -0.3107017)
(105.10557 1.2995929e-17 -0.32807494)
(105.00556 3.6633518e-17 -0.25216379)
(104.83816 -4.8071924e-17 -0.26601056)
(104.68623 -1.3742693e-17 -0.17880752)
(104.4877 6.6049773e-17 -0.16727305)
(104.27827 -7.5699914e-17 -0.071184712)
(104.02793 4.2567212e-17 -0.018823273)
(103.74977 -2.6516489e-17 0.098055075)
(103.42963 3.8503518e-17 0.20544979)
(103.0707 -4.4590852e-17 0.36696541)
(102.66788 8.7224323e-17 0.54990269)
(102.2229 1.4260029e-17 0.79003082)
(101.73836 -6.3265635e-17 1.0794658)
(101.22149 -6.0813486e-18 1.4392162)
(100.68503 -4.3722151e-17 1.8713245)
(100.14696 4.048764e-17 2.3852062)
(99.631302 3.2639884e-18 2.9779137)
(99.164874 2.8219619e-17 3.6414507)
(98.774226 -2.7174e-17 4.355202)
(98.478583 9.837981e-17 5.0919189)
(98.292073 1.4749987e-16 5.8210329)
(98.215475 -5.1138371e-17 6.5108474)
(98.23805 2.4724592e-17 7.1371011)
(98.344111 -8.5231941e-17 7.6879277)
(98.514402 1.9385363e-16 8.159674)
(98.727304 4.1413831e-17 8.5563396)
(98.962387 -1.3937291e-16 8.8888953)
(99.201404 1.641429e-16 9.1715746)
(99.431885 -1.0728706e-17 9.4144278)
(99.645527 -6.9093552e-17 9.6261347)
(99.834512 2.3096497e-16 9.8135654)
(99.99284 9.494801e-17 9.9825956)
(100.12631 -1.6058915e-16 10.137882)
(100.22132 -1.2502974e-16 10.273393)
(100.30012 -2.8366896e-16 10.408122)
(100.37552 -1.6536399e-16 10.538354)
(100.40987 4.4618316e-17 10.620251)
(100.39802 2.6843408e-17 10.649951)
(100.4118 -7.2848166e-17 10.686881)
(100.45839 2.8353313e-17 10.775263)
(100.49138 -1.0652375e-16 10.870222)
(100.50197 4.3772129e-18 10.923752)
(65.338001 4.5690258e-17 -0.46925832)
(77.953305 -8.717607e-18 -0.42045003)
(86.067579 1.6993061e-17 -0.53188292)
(92.924656 -4.037094e-17 -0.59404934)
(98.986283 2.3364169e-17 -0.67015901)
(103.81537 -2.6665881e-17 -0.74860233)
(105.18488 7.8893087e-17 -0.76426878)
(105.13522 -3.5375264e-17 -0.70954252)
(104.97032 1.4481789e-17 -0.73196426)
(104.86946 -2.8470767e-17 -0.65029831)
(104.69829 -3.5170362e-17 -0.66687774)
(104.54352 8.8786024e-17 -0.57334239)
(104.34031 -6.6016711e-17 -0.56102132)
(104.12613 9.8839275e-18 -0.45824932)
(103.86984 -2.8654594e-17 -0.40124045)
(103.58494 8.3906245e-17 -0.27623505)
(103.25717 -2.6310349e-17 -0.16015637)
(102.8898 5.7435154e-18 0.012699459)
(102.47793 -5.780872e-17 0.20925001)
(102.02361 3.0778609e-17 0.46601393)
(101.53 -4.6757334e-17 0.77555919)
(101.0052 -2.1092531e-17 1.1591605)
(100.46298 6.4606175e-17 1.61913)
(99.922689 -1.3063421e-16 2.1645154)
(99.409591 -4.7862154e-17 2.7916744)
(98.951499 -8.8613251e-17 3.4911245)
(98.574616 7.287808e-17 4.2401673)
(98.297709 -6.0692278e-17 5.0099066)
(98.134843 -3.0237547e-16 5.7682219)
(98.081363 -5.2150832e-18 6.4820315)
(98.126612 -2.2834836e-17 7.1268666)
(98.253071 1.9353165e-17 7.6912918)
(98.440611 7.3477779e-17 8.1722372)
(98.667471 -1.7365691e-16 8.5742979)
(98.913348 -1.6611198e-16 8.9090727)
(99.160612 -2.2849962e-16 9.1917784)
(99.397821 -4.1118778e-16 9.4334938)
(99.616988 1.7368509e-16 9.6431867)
(99.810365 -7.1815776e-16 9.8278477)
(99.972803 1.1603467e-16 9.9941132)
(100.10949 -2.9245088e-16 10.146576)
(100.20696 6.2626231e-16 10.279159)
(100.28949 -2.2366966e-16 10.412222)
(100.36955 3.9587192e-16 10.541922)
(100.40186 1.061586e-16 10.623747)
(100.39084 -2.5463052e-16 10.653039)
(100.40775 6.0614229e-16 10.687894)
(100.45429 -4.2777981e-16 10.774269)
(100.48923 -9.3199118e-17 10.868993)
(100.50102 -1.9157911e-17 10.923113)
(65.451356 -1.7459612e-16 -0.72661047)
(78.132867 -1.004227e-16 -0.73859981)
(86.295748 6.703083e-17 -0.87847934)
(93.192549 9.2589417e-17 -0.96982615)
(99.265667 -1.2196972e-16 -1.0739674)
(103.92971 -6.8927681e-18 -1.165577)
(105.05174 6.6397574e-17 -1.1823854)
(104.99278 8.6425129e-17 -1.1205083)
(104.82353 -6.2863689e-17 -1.1452124)
(104.72092 -6.5429575e-17 -1.0560552)
(104.54545 5.5843661e-17 -1.0737377)
(104.38717 1.7476726e-17 -0.97328419)
(104.17895 -6.8131569e-17 -0.95895998)
(103.95948 3.958684e-17 -0.84939927)
(103.69685 -8.4734423e-17 -0.78685221)
(103.40481 -5.753489e-17 -0.65343178)
(103.06904 1.074263e-16 -0.52775541)
(102.69282 -2.1633822e-17 -0.34284671)
(102.27155 -3.3780452e-17 -0.13149407)
(101.80756 -4.8273853e-17 0.14315765)
(101.30469 -2.8508432e-17 0.47443963)
(100.7719 4.5660463e-17 0.88372591)
(100.22418 1.4760182e-16 1.37364)
(99.682265 -6.1774235e-17 1.9526926)
(99.172799 -8.741649e-17 2.6163776)
(98.724578 8.7814692e-17 3.3533454)
(98.363104 -7.4710474e-17 4.1387026)
(98.107496 -2.2175309e-17 4.9419481)
(97.970161 4.1674935e-16 5.7289386)
(97.941919 -1.4155446e-16 6.4654438)
(98.011843 2.7311072e-16 7.1273999)
(98.160271 6.2766467e-17 7.703811)
(98.366354 -4.5519639e-16 8.1923961)
(98.608215 -3.1856548e-16 8.5985006)
(98.865635 4.3140286e-16 8.9344392)
(99.12165 -3.9260072e-16 9.2163441)
(99.365582 1.4391908e-16 9.4562686)
(99.590044 -5.0760163e-16 9.6634818)
(99.787557 2.084876e-16 9.8450611)
(99.953749 -8.8932702e-16 10.008289)
(100.09339 2.544065e-16 10.157623)
(100.19328 5.7685212e-16 10.287256)
(100.27966 5.2715646e-16 10.418491)
(100.36281 -7.2565562e-16 10.546564)
(100.39406 1.0493019e-15 10.627465)
(100.38489 6.4729993e-18 10.657047)
(100.40347 -1.7607904e-15 10.690398)
(100.45051 1.1038659e-16 10.774606)
(100.48727 3.2284955e-17 10.868473)
(100.50037 3.9165177e-16 10.922704)
(65.555951 1.3509109e-16 -0.98958101)
(78.301429 -1.4743587e-16 -1.0607463)
(86.511462 7.1258048e-17 -1.2309405)
(93.445534 -7.2886446e-17 -1.3511649)
(99.530964 7.3602016e-17 -1.4836236)
(104.00712 1.051022e-16 -1.5846795)
(104.88319 -4.8328092e-17 -1.6030537)
(104.83606 -1.3333009e-16 -1.5348552)
(104.6626 1.0644118e-16 -1.562821)
(104.55839 -7.9450304e-17 -1.4659432)
(104.37856 2.5305327e-17 -1.4851893)
(104.21669 -3.5723414e-17 -1.3776489)
(104.00325 1.3225266e-17 -1.3612732)
(103.77826 2.8300451e-17 -1.2445932)
(103.50904 7.613345e-17 -1.1761709)
(103.20959 -4.4907834e-17 -1.0339237)
(102.86555 3.5424409e-17 -0.89813903)
(102.48021 -2.5441169e-17 -0.70059792)
(102.04932 1.1243649e-17 -0.47373862)
(101.57552 3.1839769e-17 -0.18035205)
(101.06339 1.016324e-16 0.17367513)
(100.52284 8.8993362e-18 0.60979834)
(99.970143 5.4281826e-17 1.130905)
(99.427538 2.8081057e-16 1.7448907)
(98.923101 4.8576251e-17 2.4462351)
(98.486435 -1.5149814e-16 3.2214472)
(98.142241 -1.6725623e-16 4.0435324)
(97.910524 1.3678615e-16 4.8803085)
(97.799972 -7.8676064e-17 5.6954027)
(97.79878 1.9133164e-16 6.4537458)
(97.894582 2.4624014e-16 7.1319373)
(98.065999 9.8672102e-17 7.7193962)
(98.291346 -3.0392816e-16 8.2148142)
(98.54858 2.1771035e-16 8.62433)
(98.817773 3.7528846e-16 8.9609701)
(99.082671 2.2523714e-16 9.2417676)
(99.333442 -4.8562386e-16 9.4796639)
(99.563292 1.2866046e-16 9.6842397)
(99.765003 -4.5841068e-16 9.8626793)
(99.934953 -6.5742045e-17 10.022819)
(100.07748 5.9839645e-16 10.168954)
(100.17981 -6.3918298e-16 10.295702)
(100.27015 2.5142503e-15 10.425048)
(100.35537 -1.8339574e-16 10.551212)
(100.38641 -1.0909044e-15 10.630869)
(100.37934 -1.7774985e-16 10.661258)
(100.3993 2.3209722e-15 10.693396)
(100.4467 3.6651737e-16 10.775331)
(100.4852 5.7368662e-16 10.868141)
(100.49956 -4.4919617e-16 10.922369)
(65.65743 9.4735503e-17 -1.2588764)
(78.46726 1.5389487e-16 -1.3872267)
(86.723876 -9.9521793e-17 -1.5896701)
(93.692855 6.283228e-17 -1.7393243)
(99.789788 -1.6995099e-19 -1.9012559)
(104.05328 -1.3912347e-16 -2.0089303)
(104.69981 -1.1965754e-17 -2.029675)
(104.66501 1.1744026e-16 -1.9551199)
(104.48715 -7.265278e-17 -1.9866903)
(104.38118 2.1096715e-17 -1.881304)
(104.19681 -3.8475966e-17 -1.9017517)
(104.03117 1.3036981e-16 -1.786659)
(103.81235 -1.4552985e-16 -1.7677554)
(103.58164 -2.0513221e-17 -1.6435988)
(103.3056 6.9568306e-17 -1.5687652)
(102.99845 -2.4996948e-17 -1.4172634)
(102.64584 3.9592517e-17 -1.2707275)
(102.25108 1.1966078e-16 -1.0598883)
(101.81029 -8.5544075e-17 -0.81661957)
(101.32648 -1.0051084e-16 -0.50346994)
(100.80504 -1.6429068e-17 -0.12544623)
(100.25693 -2.9094003e-16 0.33893175)
(99.699832 -8.2194637e-17 0.89277645)
(99.157543 -2.3187414e-16 1.5432554)
(98.659643 -2.1067308e-16 2.2836331)
(98.23626 2.616575e-16 3.0979864)
(97.911622 3.4854627e-16 3.9573516)
(97.706504 1.5355975e-16 4.8275726)
(97.624169 6.7432129e-17 5.6700263)
(97.652034 -5.1369139e-16 6.4491724)
(97.77512 -8.4623546e-16 7.1424203)
(97.970551 3.489575e-16 7.7397633)
(98.215912 1.4195988e-15 8.2409731)
(98.489143 1.1111186e-16 8.6530009)
(98.770496 -1.5295066e-15 8.9896608)
(99.04442 5.9322923e-16 9.2688957)
(99.302053 -3.7017753e-16 9.5044202)
(99.537228 9.1948364e-16 9.706109)
(99.743089 4.8519574e-16 9.881274)
(99.91669 -4.8611846e-16 10.03822)
(100.06197 -2.5093742e-15 10.181022)
(100.16673 5.9823602e-16 10.304939)
(100.26107 -3.650868e-15 10.432288)
(100.34765 -3.1776731e-16 10.556162)
(100.37886 1.9987141e-16 10.634124)
(100.37425 3.7680637e-16 10.665539)
(100.39511 -1.3602658e-15 10.697029)
(100.44298 4.0994723e-16 10.776697)
(100.48313 -1.0983059e-16 10.868149)
(100.49868 8.6639073e-17 10.922161)
(65.752323 -4.4417482e-17 -1.534498)
(78.625922 1.098367e-16 -1.7207699)
(86.929442 -5.3221574e-17 -1.9567968)
(93.930958 1.0417754e-16 -2.1361532)
(100.03649 -1.6286788e-17 -2.3285708)
(104.06432 1.003471e-16 -2.439328)
(104.51851 -4.3482327e-17 -2.4618037)
(104.47826 -3.7375892e-17 -2.379356)
(104.29609 3.28953e-18 -2.4150423)
(104.18845 -5.2027299e-17 -2.3007535)
(103.99955 -7.7082075e-17 -2.3223571)
(103.83012 5.8121107e-18 -2.1994955)
(103.60583 6.5005017e-17 -2.177808)
(103.36922 1.0116645e-16 -2.0459545)
(103.08616 -3.0805072e-17 -1.9642731)
(102.77105 -3.5655009e-17 -1.8031263)
(102.40956 -9.1586822e-18 -1.6452025)
(102.00508 -1.1020986e-18 -1.4203772)
(101.55412 -3.6961647e-17 -1.1597917)
(101.06013 1.4751288e-17 -0.82579973)
(100.52939 -4.2253686e-17 -0.42247945)
(99.974017 1.7943664e-16 0.071622121)
(99.413182 2.5695242e-16 0.65978653)
(98.872386 3.8420729e-16 1.3483281)
(98.382694 5.207319e-16 2.129033)
(97.974404 -7.502129e-17 2.9833803)
(97.671953 6.7635325e-17 3.8805198)
(97.495903 5.0389291e-16 4.7838736)
(97.44343 -9.7338482e-17 5.6527836)
(97.502194 -1.7178809e-16 6.451666)
(97.653866 4.1467332e-17 7.1587045)
(97.874265 -1.0675131e-15 7.7647208)
(98.140287 -1.7882136e-15 8.2706636)
(98.429883 -1.1250329e-15 8.6843546)
(98.723648 1.6721366e-15 9.0203714)
(99.006815 1.1005379e-15 9.2975463)
(99.271395 4.8817622e-16 9.5303598)
(99.511828 -1.9823521e-16 9.7289229)
(99.721771 -8.3014344e-16 9.9006805)
(99.898908 1.5881218e-15 10.05434)
(100.04682 2.5681031e-15 10.193689)
(100.15401 -6.0516435e-16 10.314829)
(100.25229 1.7576641e-15 10.440094)
(100.33964 -1.6264179e-16 10.561374)
(100.37125 -2.5664153e-16 10.637348)
(100.36966 -1.1292358e-15 10.669695)
(100.39098 -8.797338e-16 10.701134)
(100.43934 -5.8638422e-16 10.778645)
(100.48098 -1.7555547e-16 10.868496)
(100.49777 1.5512198e-16 10.922102)
(65.841344 -3.0554501e-16 -1.8152842)
(78.77888 -7.0587814e-17 -2.0598381)
(87.129281 9.0991525e-17 -2.3312379)
(94.159784 -5.8418187e-17 -2.5404066)
(100.26835 3.5341864e-17 -2.7644673)
(104.03904 3.8598952e-17 -2.874271)
(104.3158 -1.2094972e-16 -2.8983702)
(104.27638 4.8820317e-17 -2.8067781)
(104.08974 -5.9910226e-18 -2.8470538)
(103.98038 1.4279991e-16 -2.7236461)
(103.78681 -5.2744495e-17 -2.7464763)
(103.61342 -3.4072746e-17 -2.6157261)
(103.38347 6.1357651e-18 -2.5910358)
(103.14071 2.7425974e-17 -2.4513101)
(102.85034 -5.7622717e-17 -2.3623482)
(102.52695 7.3481926e-17 -2.1911617)
(102.15627 -2.1850346e-17 -2.0211923)
(101.74173 1.371013e-16 -1.7816454)
(101.28032 -6.4745945e-17 -1.5027455)
(100.77598 -1.7506903e-17 -1.1467464)
(100.23598 2.3071117e-17 -0.71672928)
(99.673684 -2.5268868e-16 -0.19132874)
(99.109897 -2.2953834e-16 0.43284116)
(98.571928 -3.905208e-17 1.1610862)
(98.092277 -8.0407028e-17 1.9833896)
(97.701077 -1.3410885e-16 2.878594)
(97.423806 -4.0577758e-16 3.8139058)
(97.278783 -1.5070668e-16 4.7499224)
(97.258355 -1.1379879e-16 5.6442178)
(97.349702 1.3758823e-15 6.4616623)
(97.531226 -2.1203181e-16 7.1811056)
(97.77747 -5.4580479e-17 7.7944974)
(98.06474 1.3628461e-15 8.3040466)
(98.371078 1.072458e-15 8.7184879)
(98.677459 8.9039393e-17 9.0531707)
(98.969932 -1.4546217e-15 9.3277922)
(99.241499 -6.8723564e-16 9.5575303)
(99.487284 5.2003256e-16 9.7526936)
(99.701193 -3.8095992e-16 9.9208942)
(99.881721 1.8740917e-15 10.071169)
(100.0321 -4.0156265e-16 10.206952)
(100.14164 -5.7943216e-16 10.325376)
(100.24378 -2.0231248e-15 10.448497)
(100.33159 1.9901732e-17 10.566887)
(100.3637 2.904112e-16 10.640677)
(100.36537 -1.2708978e-15 10.673696)
(100.38691 2.9432434e-15 10.705612)
(100.4358 8.6104047e-16 10.781171)
(100.47878 5.5075579e-16 10.86921)
(100.49681 5.0293676e-17 10.922221)
(65.923838 2.1823835e-16 -2.1016571)
(78.926528 -2.5013928e-16 -2.40326)
(87.324841 4.1377756e-17 -2.7129654)
(94.38143 -3.4684463e-17 -2.951833)
(100.48263 1.209105e-16 -3.2081576)
(103.97896 -5.9677216e-17 -3.3123956)
(104.09851 7.1870443e-17 -3.3388033)
(104.05963 -1.0333464e-16 -3.2374293)
(103.8683 -9.3224487e-17 -3.282659)
(103.75704 1.3302006e-16 -3.1498292)
(103.55854 -6.1118361e-17 -3.1738995)
(103.38092 1.8937569e-17 -3.0351457)
(103.14504 -5.6744051e-17 -3.0072051)
(102.8958 -3.2231977e-17 -2.8594267)
(102.5978 -9.5131745e-17 -2.7627111)
(102.26575 7.3008683e-17 -2.5810583)
(101.8855 -8.069076e-17 -2.3983247)
(101.46056 8.189524e-19 -2.1432597)
(100.98841 -1.9013791e-17 -1.8449922)
(100.47358 -4.8361802e-17 -1.465725)
(99.924401 1.5983699e-16 -1.0075098)
(99.355614 1.5293677e-17 -0.44913106)
(98.789788 -2.0053806e-16 0.21282527)
(98.256153 -4.922402e-16 0.98246318)
(97.788489 -9.9967668e-17 1.8475943)
(97.416671 -2.8797872e-16 2.7845277)
(97.167814 -5.5227197e-17 3.7582005)
(97.055513 -7.4810228e-16 4.7262465)
(97.069568 -5.3946581e-16 5.6447619)
(97.19507 -1.0065732e-15 6.4794237)
(97.407628 1.6436308e-15 7.2097941)
(97.680508 5.0315445e-16 7.8291918)
(97.989525 1.9085059e-16 8.3411733)
(98.312891 -6.1153447e-16 8.755423)
(98.632043 -8.3986244e-16 9.0880577)
(98.933901 -5.4991447e-16 9.359611)
(99.212439 2.630855e-15 9.585909)
(99.463433 -3.6978992e-15 9.7774169)
(99.68131 4.4408662e-15 9.9418736)
(99.86524 -4.3364936e-15 10.088646)
(100.01789 -1.2727654e-16 10.220765)
(100.12969 1.8510739e-16 10.336538)
(100.23549 -1.5614869e-15 10.457492)
(100.32353 8.8834569e-16 10.572724)
(100.35659 -1.8396228e-15 10.644172)
(100.36121 1.8914561e-15 10.677599)
(100.38289 -1.6294211e-15 10.710344)
(100.43237 -6.1878687e-16 10.784252)
(100.47659 -2.2243702e-15 10.87032)
(100.49577 -1.4578856e-16 10.922545)
(66.000816 -4.0300186e-17 -2.3958782)
(79.069899 -5.0954329e-17 -2.7504017)
(87.517502 -7.41642e-17 -3.101974)
(94.597885 3.2199593e-17 -3.3708654)
(100.67578 -3.3253821e-18 -3.659625)
(103.87794 -9.6550601e-17 -3.7537043)
(103.8658 8.5180832e-17 -3.7831913)
(103.82792 1.3556442e-16 -3.6712986)
(103.63158 -3.1743186e-16 -3.7219188)
(103.51818 2.6641255e-16 -3.5794206)
(103.31447 6.946762e-17 -3.6046801)
(103.13232 -9.3854112e-20 -3.4577394)
(102.89018 2.654323e-17 -3.4261955)
(102.63411 -4.3668276e-17 -3.2701175)
(102.32812 7.030554e-17 -3.1651049)
(101.98701 -1.9670288e-16 -2.9725029)
(101.5968 1.0063747e-16 -2.7762358)
(101.16109 4.5867721e-17 -2.5047803)
(100.67791 -2.7347206e-19 -2.1859871)
(100.15244 5.0407624e-17 -1.7820902)
(99.594226 -2.7312955e-16 -1.2940679)
(99.019477 4.2927204e-16 -0.70092106)
(98.45268 3.3535687e-16 0.00069763598)
(97.925058 2.1559316e-16 0.81344213)
(97.471384 1.3279549e-16 1.7226191)
(97.121725 4.1084952e-16 2.7021263)
(96.904458 7.2510992e-16 3.7141305)
(96.826738 -1.6134394e-16 4.7133626)
(96.877631 1.3721864e-16 5.6548461)
(97.038835 -1.9479775e-16 6.5052107)
(97.283523 -1.2171244e-15 7.2449347)
(97.583734 -9.9483502e-17 7.8688985)
(97.914912 -3.4654077e-16 8.3820923)
(98.255522 -6.7471742e-17 8.795179)
(98.587541 -1.2724522e-15 9.1250352)
(98.898808 6.6446027e-16 9.3929978)
(99.184303 1.1452178e-15 9.6154797)
(99.440459 6.6341016e-16 9.8030556)
(99.66216 -1.2641958e-15 9.9635938)
(99.849321 2.7737743e-15 10.106715)
(100.00417 1.3038163e-15 10.23508)
(100.11823 1.1187576e-15 10.348255)
(100.22756 5.0565762e-15 10.467028)
(100.31558 5.6372314e-16 10.578906)
(100.34947 3.7429499e-15 10.647853)
(100.35699 3.3883408e-16 10.681446)
(100.37891 -9.5831643e-16 10.715233)
(100.42903 1.5464901e-15 10.787865)
(100.47444 1.5599844e-15 10.871858)
(100.49461 -2.4441347e-16 10.923093)
(66.071912 8.0021642e-17 -2.6958196)
(79.208082 4.4304496e-17 -3.1048113)
(87.706722 1.2127342e-16 -3.4994361)
(94.810089 -1.0549351e-16 -3.7990616)
(100.84368 -2.8937952e-16 -4.119665)
(103.73185 1.1449271e-16 -4.1988762)
(103.61766 1.8987511e-17 -4.2324485)
(103.58065 1.0797248e-16 -4.1091051)
(103.37908 -1.1809399e-16 -4.1651765)
(103.26336 4.4254852e-18 -4.0125284)
(103.0542 1.456387e-16 -4.0387544)
(102.86724 -1.5351696e-16 -3.8833802)
(102.61856 1.7099875e-16 -3.8478137)
(102.35526 -1.2282961e-16 -3.6831747)
(102.04088 9.1866699e-17 -3.5692742)
(101.69027 8.8916524e-17 -3.3651925)
(101.28968 -2.349282e-16 -3.1545426)
(100.84279 2.7724009e-16 -2.8657373)
(100.34829 -1.48465e-16 -2.5251758)
(99.812104 -8.2685256e-17 -2.0951686)
(99.24504 4.4505414e-16 -1.5756093)
(98.664974 5.2303354e-17 -0.94578248)
(98.098453 -6.0949369e-16 -0.20253453)
(97.578708 2.7597836e-16 0.65501421)
(97.141174 -4.1838852e-16 1.6094817)
(96.816936 1.5073614e-16 2.6323358)
(96.634104 9.6275524e-17 3.6824088)
(96.593213 3.8133607e-16 4.7117485)
(96.68316 6.552129e-16 5.6748502)
(96.881559 3.6773801e-16 6.53924)
(97.159373 -5.4990382e-16 7.2866496)
(97.487513 8.662763e-16 7.913678)
(97.841169 -1.745807e-16 8.426827)
(98.199162 2.2886956e-16 8.8377565)
(98.544085 4.0299665e-16 9.1640906)
(98.864752 -1.9378166e-15 9.4279321)
(99.157154 -4.6740159e-15 9.6462188)
(99.418368 3.5216826e-15 9.8295891)
(99.643797 -1.3222487e-15 9.986029)
(99.834089 -1.7630703e-15 10.125357)
(99.990942 -3.6908793e-15 10.249866)
(100.10716 -1.7618684e-15 10.360443)
(100.22008 -3.3970322e-15 10.476932)
(100.30786 8.3204823e-16 10.585414)
(100.34229 -8.5001898e-16 10.651744)
(100.35298 -2.8212434e-15 10.68525)
(100.37497 -7.3252678e-16 10.720205)
(100.42574 -3.3519734e-15 10.791974)
(100.47233 2.3809178e-15 10.873849)
(100.49339 7.4374825e-18 10.92388)
(66.136121 4.6913144e-16 -3.0011822)
(79.340168 1.601451e-16 -3.4657794)
(87.892322 -1.0416999e-16 -3.9048399)
(95.018319 2.2024013e-16 -4.2357912)
(100.97969 -1.9307084e-16 -4.5866717)
(103.54323 1.9639456e-16 -4.6465932)
(103.35389 -2.0865575e-16 -4.6855841)
(103.31761 1.998393e-17 -4.5500848)
(103.1106 2.2770949e-18 -4.6118613)
(102.9924 1.8646784e-17 -4.4487616)
(102.77752 -3.6306436e-17 -4.4758558)
(102.5854 6.6590901e-17 -4.3118957)
(102.3298 -1.8397485e-17 -4.2718992)
(102.05884 3.931569e-17 -4.0984292)
(101.73561 -1.3978049e-16 -3.9749951)
(101.37503 -1.4484487e-17 -3.7588282)
(100.96358 9.8011607e-17 -3.5328685)
(100.50513 -1.765779e-16 -3.2256486)
(99.999029 3.0439493e-16 -2.8619487)
(99.452056 2.073585e-16 -2.4042296)
(98.876427 4.5492693e-17 -1.8512776)
(98.291823 -1.2506713e-16 -1.1827325)
(97.727028 3.4781045e-17 -0.39580538)
(97.217223 -4.7630964e-16 0.50821959)
(96.798236 4.5787837e-16 1.5092443)
(96.503094 -1.1014584e-16 2.5760384)
(96.357056 -8.8631218e-16 3.6637376)
(96.355792 -4.4868215e-16 4.7218821)
(96.486818 7.9363112e-17 5.7050918)
(96.723828 -6.5596235e-16 6.5816879)
(97.035654 8.9509173e-16 7.3350243)
(97.392212 1.6838648e-15 7.9635601)
(97.768571 -8.8471165e-16 8.475376)
(98.144003 -4.1096272e-16 8.8831389)
(98.501809 2.1690309e-15 9.2052012)
(98.831825 9.5498457e-16 9.4643889)
(99.131059 -1.0731645e-16 9.6780983)
(99.397215 -1.7973395e-15 9.8569871)
(99.626255 -1.8896585e-15 10.009149)
(99.819554 5.7090855e-16 10.144539)
(99.978249 5.3410693e-15 10.265102)
(100.09653 2.0906478e-15 10.373103)
(100.21297 4.0343191e-15 10.487126)
(100.30037 3.2769907e-16 10.592078)
(100.33543 -1.6466673e-15 10.655885)
(100.34882 6.8461521e-16 10.689067)
(100.37104 5.8296061e-16 10.725221)
(100.42255 3.8125354e-15 10.796514)
(100.47025 -3.1661466e-15 10.876288)
(100.49223 -4.5282549e-16 10.924921)
(66.195753 8.0663089e-16 -3.3108084)
(79.467696 -6.6266943e-16 -3.831633)
(88.074516 9.1187514e-17 -4.3166962)
(95.224912 1.3339358e-16 -4.6802845)
(101.07909 -1.0880242e-16 -5.0591398)
(103.31305 4.0214321e-16 -5.0964046)
(103.07492 -2.2117828e-16 -5.1422868)
(103.03896 2.5486477e-17 -4.9941757)
(102.82609 -1.0869195e-16 -5.0620759)
(102.70507 6.0159551e-17 -4.8882708)
(102.48408 -1.4697114e-16 -4.9160933)
(102.28635 5.4115265e-17 -4.7433542)
(102.02341 2.6982214e-17 -4.6984156)
(101.74428 8.0384548e-17 -4.5157675)
(101.41174 -1.6154102e-16 -4.3820494)
(101.04068 5.1549225e-17 -4.1530949)
(100.61793 2.0968062e-16 -3.9107878)
(100.14751 -2.7472351e-16 -3.583977)
(99.629553 -2.0835024e-16 -3.1956624)
(99.071793 -1.7541366e-16 -2.7084923)
(98.487974 -4.4047011e-18 -2.1201541)
(97.899772 -6.8990602e-17 -1.4107174)
(97.338362 3.195095e-16 -0.57798957)
(96.840709 4.0624014e-16 0.37415906)
(96.443073 2.0475498e-16 1.4230237)
(96.180944 -9.9020328e-16 2.5340843)
(96.073923 -1.0320888e-16 3.6587476)
(96.115283 -9.7383483e-16 4.7442523)
(96.289309 -5.9510684e-16 5.7458279)
(96.566244 1.6331442e-15 6.6326869)
(96.912851 -5.4749127e-16 7.3901056)
(97.298203 -3.8673286e-15 8.018545)
(97.697389 -1.940008e-16 8.5277163)
(98.090238 6.5624022e-16 8.9312941)
(98.460848 -3.3359632e-16 9.2483319)
(98.800122 1.5222356e-15 9.5023332)
(99.106077 9.3090465e-16 9.7110845)
(99.377044 1.5994932e-15 9.8852181)
(99.609582 5.2224315e-16 10.032924)
(99.805777 2.156285e-15 10.164229)
(99.966138 -3.9568232e-15 10.280759)
(100.08634 -1.2073991e-15 10.38621)
(100.20618 -9.8359295e-16 10.497616)
(100.29315 -2.7224794e-16 10.598921)
(100.32875 1.9233875e-15 10.660275)
(100.34458 9.5485252e-16 10.693097)
(100.36711 1.8349293e-15 10.730292)
(100.41956 -2.3938288e-15 10.801361)
(100.46827 5.2590296e-16 10.879107)
(100.49119 1.3222068e-15 10.926226)
(66.250653 -3.0921163e-16 -3.6275403)
(79.590146 2.2431716e-16 -4.2061902)
(88.251787 1.0323127e-16 -4.738575)
(95.431125 -7.0558956e-17 -5.1358717)
(101.13695 -2.7056029e-16 -5.5383192)
(103.03883 4.2550046e-16 -5.5505541)
(102.77984 -3.0661578e-16 -5.6043107)
(102.74389 3.2685916e-16 -5.4425231)
(102.52479 -1.2149039e-16 -5.5164942)
(102.40061 -1.5296651e-16 -5.3314779)
(102.17314 9.6914457e-17 -5.3596631)
(101.96937 -6.0277238e-17 -5.1778286)
(101.69867 1.4315409e-16 -5.1272802)
(101.41091 -8.7364097e-17 -4.9350089)
(101.06859 6.74343e-17 -4.7901516)
(100.68658 -1.4517086e-17 -4.54761)
(100.25206 -1.3319338e-16 -4.2878297)
(99.769301 1.9317292e-16 -3.9401344)
(99.23928 6.7561952e-17 -3.5255905)
(98.6708 -1.7566581e-16 -3.007098)
(98.079284 -1.7134213e-16 -2.3812385)
(97.488617 -5.0892542e-16 -1.6286089)
(96.932452 4.5701736e-16 -0.74791753)
(96.449293 6.9510216e-16 0.25401443)
(96.076419 -1.8249547e-16 1.3519494)
(95.851111 1.0958281e-15 2.5073429)
(95.785609 1.4215183e-15 3.6680021)
(95.872469 1.9155498e-15 4.7793014)
(96.09137 -6.0767001e-16 5.7972707)
(96.409427 -2.0913892e-15 6.6923228)
(96.791455 1.315774e-15 7.451902)
(97.205858 1.2639661e-15 8.0786011)
(97.627893 -6.1589554e-17 8.583801)
(98.038057 -1.5812449e-15 8.9821727)
(98.421334 -1.3093098e-16 9.2934374)
(98.76973 2.1267225e-15 9.541724)
(99.082277 -7.3639863e-16 9.7451381)
(99.357915 -3.0193344e-15 9.9142456)
(99.593819 -2.9177889e-16 10.057321)
(99.792759 3.7609263e-16 10.184397)
(99.954633 1.4929046e-15 10.296805)
(100.07665 2.5918678e-15 10.399734)
(100.19977 -1.2892452e-15 10.50837)
(100.28618 7.354943e-16 10.605929)
(100.32232 4.1181176e-16 10.66488)
(100.3402 -3.6857209e-15 10.697298)
(100.36317 -1.2943936e-15 10.735441)
(100.41667 -4.636801e-16 10.806223)
(100.46642 4.0454229e-15 10.882087)
(100.49023 -8.8345662e-17 10.927758)
(66.296773 -1.2231973e-15 -3.9480492)
(79.703423 9.0841609e-16 -4.5845314)
(88.420667 -4.1840952e-16 -5.1658886)
(95.635537 -2.3431742e-16 -5.5979154)
(101.15159 4.0631681e-16 -6.0192644)
(102.72346 -7.7107945e-17 -6.0069121)
(102.46744 -1.5154262e-16 -6.0707309)
(102.43134 6.5273377e-17 -5.8947167)
(102.20566 -1.7635801e-16 -5.974932)
(102.07806 4.3245389e-17 -5.778234)
(101.8438 1.3783947e-16 -5.8063935)
(101.63363 4.5690508e-17 -5.6151357)
(101.35482 -2.0620606e-16 -5.5582355)
(101.05799 -1.4865353e-18 -5.3558457)
(100.70545 1.8924213e-16 -5.1989325)
(100.31203 -1.8275475e-17 -4.9419348)
(99.86531 1.9852205e-16 -4.6634609)
(99.369869 -1.5264763e-16 -4.2934733)
(98.827612 2.7157964e-16 -3.8509702)
(98.248558 6.2331624e-16 -3.2991369)
(97.649977 -4.8207497e-16 -2.6334672)
(97.058197 5.4994417e-16 -1.8352226)
(96.50937 -4.3462307e-16 -0.90440748)
(96.043279 -6.3012336e-16 0.14902641)
(95.699205 -6.386273e-16 1.2971219)
(95.514056 -5.4582427e-17 2.4966768)
(95.493142 -7.8088375e-16 3.6920195)
(95.628199 -1.0197654e-15 4.8273955)
(95.893769 1.3918022e-15 5.8595734)
(96.254005 1.6378762e-15 6.7606273)
(96.671957 -1.2077666e-15 7.5203781)
(97.115544 -1.0162236e-16 8.1436647)
(97.560349 7.1179949e-16 8.6435598)
(97.987646 2.4894509e-15 9.0357094)
(98.383393 -1.154791e-15 9.3404604)
(98.740737 -1.6108863e-15 9.5825115)
(99.059739 2.7261217e-15 9.7802122)
(99.339882 4.5742408e-15 9.9440291)
(99.578951 -3.017219e-16 10.082311)
(99.780404 -2.7682924e-15 10.205029)
(99.943662 -2.9994008e-17 10.313231)
(100.06763 -2.6626458e-15 10.413624)
(100.19375 -8.3041692e-16 10.519366)
(100.27945 -4.7888551e-15 10.613089)
(100.31613 9.768368e-17 10.66969)
(100.3357 9.9463709e-15 10.701671)
(100.35924 1.7466839e-16 10.74068)
(100.41395 7.7896315e-16 10.811158)
(100.46468 -6.2982991e-15 10.885082)
(100.48929 -1.3211774e-15 10.929296)
(66.336933 4.1124067e-16 -4.2742088)
(79.808901 4.2794942e-17 -4.9693096)
(88.58003 -4.0858043e-16 -5.6009466)
(95.836449 2.5576461e-16 -6.0687096)
(101.1221 2.2801124e-16 -6.5047887)
(102.40117 -4.9578111e-16 -6.4674313)
(102.13638 2.5961987e-16 -6.5420905)
(102.10012 -1.1350991e-16 -6.3509567)
(101.86767 1.6820483e-16 -6.4373224)
(101.73647 -7.6867985e-19 -6.2283265)
(101.49522 -4.6193211e-17 -6.255909)
(101.27833 1.1720862e-16 -6.0548988)
(100.9911 -6.2828521e-17 -5.9908615)
(100.6848 2.1874082e-17 -5.7778539)
(100.32162 -7.7254129e-17 -5.6079348)
(99.916327 1.5754632e-16 -5.3355431)
(99.457001 -2.5160228e-16 -5.037071)
(98.948552 -1.2556899e-16 -4.6432713)
(98.393943 -4.9745743e-18 -4.1709432)
(97.804549 -5.0417778e-17 -3.583597)
(97.199705 4.7489653e-16 -2.8756681)
(96.608401 -2.6683797e-16 -2.0292747)
(96.069255 -1.4512924e-16 -1.0461852)
(95.623165 -5.2892053e-16 0.060520784)
(95.312397 9.0407893e-17 1.2595889)
(95.170343 1.6527497e-16 2.5029156)
(95.197623 1.3460998e-16 3.7313396)
(95.383375 1.5168421e-15 4.8888218)
(95.697288 -2.3078082e-17 5.932837)
(96.100613 4.4087275e-16 6.8375855)
(96.554845 -1.2814675e-15 7.5954615)
(97.027621 -1.5106965e-15 8.2136427)
(97.495015 -1.4984695e-15 8.7069007)
(97.939184 -2.815802e-15 9.0918237)
(98.347141 -3.6718833e-15 9.3893351)
(98.713238 3.9020753e-16 9.6246398)
(99.03854 1.2684826e-15 9.8162556)
(99.322941 -1.2817197e-15 9.9745298)
(99.564915 1.239697e-15 10.107865)
(99.768673 3.3392879e-15 10.226099)
(99.933177 -2.8939571e-16 10.330046)
(100.05945 -9.025723e-16 10.427834)
(100.18811 5.3902477e-16 10.530574)
(100.27295 2.4000272e-15 10.620389)
(100.31013 -3.5908892e-15 10.674692)
(100.33105 -3.6102924e-15 10.706215)
(100.35534 -2.5285224e-15 10.746015)
(100.4114 -5.920267e-15 10.816161)
(100.46309 2.946556e-16 10.888132)
(100.48843 -2.4794402e-15 10.930857)
(66.369715 7.1379686e-16 -4.6074983)
(79.904498 -5.7844374e-16 -5.3626694)
(88.726752 2.2435905e-16 -6.0460124)
(96.030401 1.6231714e-16 -6.5505213)
(101.04331 -1.7499834e-16 -6.9964706)
(102.07162 3.7248543e-17 -6.9318992)
(101.78601 -1.9225354e-16 -7.0168783)
(101.74964 1.1151932e-16 -6.8098158)
(101.51025 -1.6146627e-16 -6.9025667)
(101.37526 -1.1928989e-16 -6.6809466)
(101.12679 -3.8861771e-17 -6.7075544)
(100.90285 1.0774396e-17 -6.4966215)
(100.60687 4.6688314e-17 -6.424693)
(100.29067 4.4987686e-17 -6.2005731)
(99.916428 1.0376972e-16 -6.0166567)
(99.498806 -9.6480925e-17 -5.7278676)
(99.026448 1.9461945e-16 -5.4080178)
(98.504691 -1.4302674e-17 -4.9887645)
(97.937662 -1.3284641e-17 -4.4846049)
(97.33827 -5.3874581e-16 -3.8594052)
(96.728155 -4.725957e-16 -3.1065959)
(96.139167 3.6150702e-16 -2.2094232)
(95.612252 -6.8485569e-17 -1.1719078)
(95.189608 1.1587482e-15 -0.010142304)
(94.916914 1.0313247e-16 1.24038)
(94.820912 -1.0721338e-15 2.5267714)
(94.900095 -5.3447623e-16 3.7864765)
(95.138941 -6.5566559e-16 4.9637848)
(95.502725 2.3874241e-16 6.0170957)
(95.949884 -4.5060093e-16 6.923127)
(96.440596 -6.1594423e-17 7.6770364)
(96.94244 4.1316717e-16 8.2884114)
(97.432138 -1.6799861e-16 8.7737104)
(97.892837 2.4649269e-15 9.1504209)
(98.312695 7.5394812e-15 9.4399859)
(98.687335 -3.6969884e-15 9.6680425)
(99.018683 -1.4189385e-15 9.8532208)
(99.307024 -2.3704324e-15 10.005715)
(99.551737 1.4532992e-15 10.133942)
(99.757845 -7.316871e-16 10.247522)