/*--------------------------------*- C++ -*----------------------------------*\
| =========                 |                                                 |
| \\      /  F ield         | OpenFOAM: The Open Source CFD Toolbox           |
|  \\    /   O peration     | Version:  2306                                  |
|   \\  /    A nd           | Website:  www.openfoam.com                      |
|    \\/     M anipulation  |                                                 |
\*---------------------------------------------------------------------------*/
FoamFile
{
    version     2.0;
    format      ascii;
    arch        "LSB;label=32;scalar=64";
    class       volScalarField;
    location    "0.011";
    object      yPlus;
}
// * * * * * * * * * * * * * * * * * * * * * * * * * * * * * * * * * * * * * //

dimensions      [0 0 0 0 0 0 0];

internalField   uniform 0;

boundaryField
{
    upper
    {
        type            calculated;
        value           nonuniform List<scalar> 
150
(
52.740168
52.704413
52.698309
52.693298
52.699525
52.715609
52.740705
52.774393
52.816734
52.867976
52.927385
52.996015
53.074755
53.160925
53.257555
53.363876
53.477979
53.601702
53.734919
53.879955
54.034135
54.195761
54.366181
54.541239
54.722018
54.902565
55.084839
55.270162
55.456489
55.648227
55.846533
56.052782
56.265838
56.487512
56.719177
56.958831
57.205935
57.466016
57.739653
58.025022
58.321189
58.631136
58.957012
59.30824
59.676891
60.07048
60.47874
60.904156
61.332982
61.756666
62.166765
62.55533
62.923469
63.283553
63.660444
64.05315
64.440498
64.864583
65.333167
65.942239
66.7493
67.851992
69.480917
71.731499
74.336834
77.079193
79.808165
82.2902
84.365297
85.824934
86.449031
85.972179
84.0505
80.208849
74.519868
16.53132
21.608216
23.021385
24.721032
26.054293
27.263818
28.326156
29.283443
30.148148
30.936561
31.660715
32.328758
32.94642
33.520572
34.05628
34.558343
35.030885
35.477281
35.901022
36.306205
36.693533
37.064821
37.421115
37.765736
38.097647
38.418957
38.729655
39.032645
39.327365
39.618073
39.908785
40.217383
40.552473
40.906489
41.17554
41.439621
41.700954
41.960385
42.21747
42.473592
42.72797
42.981178
43.232681
43.485394
43.739255
43.994332
44.250509
44.508648
44.766807
45.026871
45.289126
45.553176
45.817157
46.083783
46.353424
46.628064
46.905783
47.184802
47.464106
47.746958
48.033261
48.322391
48.615575
48.913004
49.214896
49.523874
49.840126
50.162847
50.490139
50.82295
51.157563
51.492773
51.83229
52.185873
52.554993
)
;
    }
    lower
    {
        type            calculated;
        value           nonuniform List<scalar> 
150
(
58.256696
57.993449
57.754996
57.522619
57.30032
57.08571
56.879198
56.679962
56.488355
56.304346
56.127083
55.957395
55.795889
55.638762
55.488006
55.343087
55.203476
55.069674
54.938508
54.810203
54.684337
54.558302
54.429267
54.292343
54.149072
53.99755
53.842503
53.687242
53.531696
53.378894
53.231243
53.089458
52.946393
52.79745
52.637541
52.460381
52.257076
52.03021
51.778055
51.506361
51.224141
50.951978
50.687305
50.408447
50.100371
49.766495
49.392524
48.97685
48.518307
48.000767
47.417246
46.783449
46.139025
45.513293
44.860887
44.134224
43.276201
42.248607
41.01091
39.535335
37.770254
35.661798
33.116422
29.816392
25.551039
19.534838
13.081896
4.325365
12.67459
22.910078
33.9217
45.990684
57.673364
68.771865
78.190526
38.560615
41.857678
42.91562
44.022349
44.828922
45.523552
46.107501
46.617559
47.066519
47.467103
47.829556
48.160197
48.462579
48.742742
49.004064
49.248978
49.480042
49.698815
49.905869
50.103902
50.293155
50.475577
50.651166
50.822283
50.987399
51.148583
51.305577
51.461038
51.613714
51.764989
51.912974
52.054626
52.195425
52.33469
52.470555
52.605365
52.739508
52.873163
53.006587
53.13943
53.272918
53.406687
53.541299
53.677268
53.815166
53.953772
54.093843
54.233571
54.374046
54.514872
54.656027
54.793849
54.927324
55.059646
55.195892
55.337312
55.483489
55.63195
55.782176
55.933962
56.088118
56.243223
56.400418
56.557504
56.714791
56.871839
57.02856
57.184788
57.340937
57.499563
57.66011
57.819582
57.978315
58.138616
58.301293
)
;
    }
    inlet
    {
        type            calculated;
        value           uniform 0;
    }
    outlet
    {
        type            calculated;
        value           uniform 0;
    }
    back
    {
        type            empty;
    }
    front
    {
        type            empty;
    }
}


// ************************************************************************* //
