# p  FACE_DATA 600
# x y z  p
0.29893883 -0.05 0.060006728 11648.627
0.29682219 -0.05 0.060005155 11656.651
0.29471691 -0.05 0.060001576 11666.643
0.29262294 -0.05 0.05999591 11676.469
0.29054021 -0.05 0.059988277 11685.73
0.28846868 -0.05 0.059978645 11696.289
0.28640827 -0.05 0.059967018 11705.691
0.28435895 -0.05 0.059953476 11715.898
0.28232063 -0.05 0.05993795 11726.263
0.28029328 -0.05 0.059920485 11736.441
0.27827682 -0.05 0.059901123 11746.679
0.27627121 -0.05 0.059879855 11757.247
0.27427639 -0.05 0.05985667 11767.961
0.2722923 -0.05 0.059831621 11778.364
0.27031889 -0.05 0.059804697 11789.428
0.26835611 -0.05 0.05977592 11799.809
0.26640388 -0.05 0.059745343 11810.586
0.26446217 -0.05 0.059712935 11821.57
0.26253092 -0.05 0.059678711 11832.655
0.26061007 -0.05 0.059642689 11843.919
0.25869957 -0.05 0.059604861 11855.334
0.25679937 -0.05 0.059565286 11866.305
0.25490941 -0.05 0.05952394 11878.218
0.25302965 -0.05 0.059480841 11889.224
0.25116001 -0.05 0.059436049 11900.751
0.24930047 -0.05 0.059389522 11912.416
0.24745095 -0.05 0.059341283 11924.19
0.24561142 -0.05 0.059291325 11936.394
0.24378182 -0.05 0.05923967 11948.234
0.24196209 -0.05 0.059186367 11960.1
0.24015219 -0.05 0.059131421 11972.036
0.23835206 -0.05 0.059074821 11984.215
0.23656166 -0.05 0.059016618 11995.945
0.23478094 -0.05 0.058956769 12009.089
0.23300984 -0.05 0.05889526 12021.215
0.23124831 -0.05 0.05883224 12032.966
0.22949632 -0.05 0.058767617 12046.418
0.22775381 -0.05 0.058701363 12058.974
0.22602071 -0.05 0.058633589 12071.489
0.22429701 -0.05 0.058564274 12084.159
0.22258262 -0.05 0.058493448 12096.628
0.22087753 -0.05 0.058421069 12110.392
0.21918166 -0.05 0.058347132 12123.262
0.21749499 -0.05 0.058271731 12136.119
0.21581745 -0.05 0.058194856 12149.08
0.21414901 -0.05 0.058116493 12162.375
0.21248962 -0.05 0.05803665 12175.707
0.21083923 -0.05 0.057955337 12189.256
0.20919779 -0.05 0.057872577 12202.605
0.20756526 -0.05 0.057788393 12216.177
0.20594158 -0.05 0.057702763 12230.104
0.20432673 -0.05 0.057615706 12243.659
0.20272065 -0.05 0.057527277 12257.003
0.20112329 -0.05 0.057437457 12270.944
0.19953461 -0.05 0.05734625 12284.854
0.19795458 -0.05 0.057253621 12299.676
0.19638314 -0.05 0.057159665 12312.608
0.19482023 -0.05 0.05706438 12327.5
0.19326584 -0.05 0.056967732 12341.142
0.19171991 -0.05 0.056869749 12355.959
0.19018239 -0.05 0.056770463 12369.507
0.18865324 -0.05 0.056669846 12385.086
0.18713243 -0.05 0.056567899 12399.037
0.18561991 -0.05 0.056464666 12414.389
0.18411563 -0.05 0.056360132 12428.698
0.18261956 -0.05 0.056254318 12443.938
0.18113166 -0.05 0.056147258 12457.703
0.17965186 -0.05 0.056038987 12472.807
0.17818015 -0.05 0.05592942 12488.278
0.17671648 -0.05 0.055818588 12503.445
0.1752608 -0.05 0.05570656 12518.091
0.17381309 -0.05 0.055593325 12533.51
0.17237329 -0.05 0.055478844 12548.9
0.17094135 -0.05 0.055363199 12563.731
0.16951726 -0.05 0.055246341 12580.262
0.16810097 -0.05 0.055128259 12595.572
0.16669242 -0.05 0.05500905 12611.002
0.16529159 -0.05 0.054888659 12627.239
0.16389844 -0.05 0.054767078 12643.069
0.16251292 -0.05 0.054644372 12658.592
0.161135 -0.05 0.054520532 12674.585
0.15976465 -0.05 0.054395554 12690.417
0.15840181 -0.05 0.054269449 12706.889
0.15704647 -0.05 0.054142171 12723.782
0.15569857 -0.05 0.05401378 12739.52
0.15435807 -0.05 0.053884336 12755.487
0.15302494 -0.05 0.053753791 12771.94
0.15169915 -0.05 0.053622161 12788.385
0.15038066 -0.05 0.053489407 12806.025
0.14906942 -0.05 0.053355551 12822.321
0.1477654 -0.05 0.053220679 12838.884
0.14646858 -0.05 0.053084715 12856.432
0.1451789 -0.05 0.052947683 12872.915
0.14389634 -0.05 0.052809659 12889.659
0.14262085 -0.05 0.05267058 12907.471
0.14135242 -0.05 0.052530426 12925.206
0.14009099 -0.05 0.052389231 12942.826
0.13883652 -0.05 0.052247036 12959.882
0.137589 -0.05 0.052103837 12977.58
0.13634838 -0.05 0.051959625 12994.607
0.13511461 -0.05 0.051814476 13011.883
0.1338877 -0.05 0.051668228 13031.966
0.13266759 -0.05 0.051520967 13047.849
0.13145422 -0.05 0.051372868 13065.291
0.13024759 -0.05 0.051223701 13085.127
0.12904768 -0.05 0.051073499 13103.117
0.12785442 -0.05 0.050922382 13121.259
0.12666779 -0.05 0.050770303 13139.851
0.12548777 -0.05 0.050617245 13158.728
0.12431431 -0.05 0.050463216 13177.033
0.12314738 -0.05 0.050308326 13194.231
0.12198694 -0.05 0.050152493 13214.624
0.12083299 -0.05 0.049995623 13234.335
0.11968547 -0.05 0.049837846 13253.1
0.11854435 -0.05 0.049679176 13272.284
0.11740961 -0.05 0.049519574 13291.811
0.11628122 -0.05 0.049359037 13311.507
0.11515913 -0.05 0.049197589 13330.942
0.11404333 -0.05 0.049035234 13350.528
0.11293377 -0.05 0.048871989 13369.723
0.11183042 -0.05 0.048707847 13389.476
0.11073327 -0.05 0.048542821 13409.094
0.10964229 -0.05 0.048376866 13430.454
0.10855744 -0.05 0.048209982 13450.691
0.10747868 -0.05 0.048042235 13471.283
0.106406 -0.05 0.04787359 13492.132
0.10533935 -0.05 0.047704062 13512.811
0.10427873 -0.05 0.047533647 13533.708
0.10322407 -0.05 0.047362394 13553.24
0.10217537 -0.05 0.04719032 13574.099
0.10113259 -0.05 0.047017348 13596.141
0.10009572 -0.05 0.046843455 13618.774
0.099064719 -0.05 0.046668685 13640.154
0.098039551 -0.05 0.046493118 13660.684
0.097020189 -0.05 0.046316733 13682.423
0.096006622 -0.05 0.046139442 13705.611
0.094998822 -0.05 0.045961241 13728.365
0.09399675 -0.05 0.045782217 13750.107
0.093000378 -0.05 0.045602371 13772.581
0.092009685 -0.05 0.045421665 13795.113
0.091024643 -0.05 0.045240119 13817.858
0.090045231 -0.05 0.045057701 13841.6
0.089071419 -0.05 0.044874428 13864.276
0.088103174 -0.05 0.044690349 13887.175
0.087140475 -0.05 0.044505439 13910.627
0.086183303 -0.05 0.044319663 13934.862
0.08523163 -0.05 0.044133032 13958.579
0.084285425 -0.05 0.043945577 13982.356
0.083344663 -0.05 0.043757308 14006.377
0.082409326 -0.05 0.043568191 14031.926
0.081479394 -0.05 0.04337819 14057.394
0.080554831 -0.05 0.043187382 14081.536
0.079635605 -0.05 0.042995792 14106.795
0.078721718 -0.05 0.042803304 14133.749
0.077813136 -0.05 0.042609969 14158.819
0.076909826 -0.05 0.042415818 14185.432
0.07601178 -0.05 0.042220793 14211.669
0.075118966 -0.05 0.042024933 14237.836
0.074231361 -0.05 0.041828237 14263.84
0.073348934 -0.05 0.04163074 14289.761
0.072471679 -0.05 0.041432371 14317.742
0.071599572 -0.05 0.041233139 14344.251
0.070732583 -0.05 0.041033074 14372.201
0.069870697 -0.05 0.040832148 14399.392
0.069013884 -0.05 0.040630397 14427.208
0.068162134 -0.05 0.040427777 14455.625
0.067315419 -0.05 0.040224307 14483.869
0.06647372 -0.05 0.040019973 14513.82
0.065637027 -0.05 0.039814748 14543.946
0.06480531 -0.05 0.039608654 14574.324
0.063978543 -0.05 0.039401719 14603.973
0.063156705 -0.05 0.039193946 14634.506
0.062339788 -0.05 0.038985286 14665.723
0.061527775 -0.05 0.038775725 14697.617
0.060720649 -0.05 0.038565255 14729.878
0.059918385 -0.05 0.038353894 14761.986
0.059120963 -0.05 0.03814165 14794.468
0.058328367 -0.05 0.037928504 14827.107
0.057540575 -0.05 0.037714473 14859.098
0.056757564 -0.05 0.037499567 14891.583
0.055979327 -0.05 0.037283751 14925.494
0.055205861 -0.05 0.03706696 14961.068
0.054437144 -0.05 0.036849222 14995.665
0.053673142 -0.05 0.036630582 15030.492
0.052913841 -0.05 0.036411033 15065.199
0.052159229 -0.05 0.036190552 15101.199
0.051409301 -0.05 0.035969101 15138.004
0.050664044 -0.05 0.035746666 15175.391
0.049923426 -0.05 0.035523297 15212.614
0.049187444 -0.05 0.035298949 15252.774
0.048456093 -0.05 0.035073588 15292.184
0.047729344 -0.05 0.034847258 15332.022
0.047007184 -0.05 0.034619944 15372.04
0.046289611 -0.05 0.034391604 15413.272
0.045576607 -0.05 0.034162252 15453.843
0.044868158 -0.05 0.033931882 15496.029
0.044164259 -0.05 0.033700465 15537.919
0.043464894 -0.05 0.033468005 15580.653
0.042770054 -0.05 0.033234487 15624.134
0.042079734 -0.05 0.032999885 15669.701
0.041393929 -0.05 0.032764174 15715.894
0.040712625 -0.05 0.032527361 15762.473
0.040035798 -0.05 0.032289471 15808.684
0.039363443 -0.05 0.032050489 15856.555
0.038695563 -0.05 0.031810365 15905.779
0.038032168 -0.05 0.031569045 15956.366
0.037373226 -0.05 0.031326581 16005.657
0.036718733 -0.05 0.03108296 16057.129
0.036068678 -0.05 0.030838173 16108.183
0.035423063 -0.05 0.030592193 16163.509
0.034781926 -0.05 0.030344893 16219.025
0.034145213 -0.05 0.030096392 16272.739
0.033512917 -0.05 0.029846677 16329.077
0.032885063 -0.05 0.029595666 16386.754
0.032261651 -0.05 0.029343341 16446.83
0.031642677 -0.05 0.029089693 16506.847
0.031028119 -0.05 0.028834753 16567.223
0.030417982 -0.05 0.028578493 16629.342
0.029812303 -0.05 0.028320809 16693.901
0.029211079 -0.05 0.0280617 16757.464
0.028614285 -0.05 0.027801211 16821.994
0.028021925 -0.05 0.027539318 16888.032
0.027434034 -0.05 0.027275938 16957.415
0.026850619 -0.05 0.027011044 17026.472
0.026271654 -0.05 0.026744689 17097.215
0.025697179 -0.05 0.02647678 17171.496
0.025127212 -0.05 0.026207275 17245.936
0.024561729 -0.05 0.025936225 17321.167
0.024000753 -0.05 0.025663583 17399.488
0.023444336 -0.05 0.025389243 17479.944
0.022892447 -0.05 0.025113275 17560.067
0.022345135 -0.05 0.024835581 17646.201
0.02180243 -0.05 0.024556113 17729.543
0.021264293 -0.05 0.024274957 17815.511
0.0207308 -0.05 0.023991978 17904.787
0.020201992 -0.05 0.023707108 17995.574
0.019677842 -0.05 0.023420417 18085.942
0.019158403 -0.05 0.023131824 18180.85
0.018643727 -0.05 0.022841258 18275.638
0.018133826 -0.05 0.022548716 18373.62
0.017628739 -0.05 0.022254151 18472.215
0.017128471 -0.05 0.021957583 18574.438
0.016633127 -0.05 0.021658866 18683.139
0.016142724 -0.05 0.021358 18793.147
0.015657283 -0.05 0.021054987 18911.687
0.015176888 -0.05 0.020749728 19036.408
0.014701579 -0.05 0.020442196 19168.696
0.014231398 -0.05 0.020132367 19307.032
0.013766434 -0.05 0.019820157 19453.147
0.013306742 -0.05 0.019505528 19601.772
0.012852374 -0.05 0.019188457 19756.032
0.012403439 -0.05 0.018868841 19912.801
0.01195997 -0.05 0.018546687 20072.087
0.011522076 -0.05 0.018221915 20236.063
0.011089809 -0.05 0.017894514 20402.671
0.0106633 -0.05 0.017564386 20577.998
0.010242659 -0.05 0.01723145 20754.579
0.009827894 -0.05 0.016895788 20937.331
0.0094192167 -0.05 0.016557218 21130.066
0.0090167438 -0.05 0.016215673 21325.288
0.0086204858 -0.05 0.015871238 21526.636
0.0082306648 -0.05 0.015523765 21739.585
0.0078474301 -0.05 0.015173187 21957.032
0.00747084 -0.05 0.014819531 22181.194
0.0071010571 -0.05 0.014462741 22413.775
0.0067383047 -0.05 0.014102727 22657.603
0.0063827544 -0.05 0.013739427 22907.432
0.0060345067 -0.05 0.013372862 23161.326
0.0056937565 -0.05 0.013003011 23420.089
0.0053606882 -0.05 0.012629837 23684.996
0.0050354824 -0.05 0.012253323 23961.929
0.0047183926 -0.05 0.01187344 24251.068
0.0044096379 -0.05 0.011490161 24549.751
0.0041094132 -0.05 0.011103483 24857.939
0.0038179536 -0.05 0.010713443 25175.068
0.0035354728 -0.05 0.01032007 25500.809
0.0032621919 -0.05 0.0099233916 25835.928
0.0029983702 -0.05 0.0095234712 26179.658
0.0027442429 -0.05 0.0091203468 26530.867
0.0025000604 -0.05 0.0087141009 26888.965
0.0022660754 -0.05 0.0083048554 27253.973
0.0020425146 -0.05 0.0078926699 27625.963
0.0018296563 -0.05 0.0074776735 28004.066
0.0016277487 -0.05 0.0070600557 28385.928
0.0014369745 -0.05 0.006639968 28770.369
0.0012575291 -0.05 0.0062175973 29156.736
0.0010896146 -0.05 0.0057931737 29545.804
0.00093341056 -0.05 0.0053669215 29933.984
0.00078906403 -0.05 0.0049390744 30319.384
0.00065670868 -0.05 0.0045099018 30700.89
0.00053653171 -0.05 0.0040796665 31078.356
0.00042862038 -0.05 0.003648665 31446.987
0.00033294635 -0.05 0.003217232 31805.648
0.00024951873 -0.05 0.002785685 32154.276
0.00017832254 -0.05 0.0023543467 32491.177
0.00011930806 -0.05 0.0019235435 32813.998
7.2389968e-05 -0.05 0.0014936046 33121.391
3.7448892e-05 -0.05 0.0010648563 33412.783
1.4332163e-05 -0.05 0.0006376208 33687.953
2.8544133e-06 -0.05 0.00021221054 33943.658
0.99884037 -0.05 0.00016828408 26521.771
0.99652103 -0.05 0.00050440213 26514.779
0.99420154 -0.05 0.0008395204 26482.054
0.99188191 -0.05 0.0011736208 26456.466
0.98956214 -0.05 0.0015067636 26427.983
0.98724223 -0.05 0.001838948 26400.664
0.9849222 -0.05 0.0021701636 26373.041
0.98260202 -0.05 0.0025004302 26345.644
0.98028169 -0.05 0.0028297328 26318.298
0.97796124 -0.05 0.0031580577 26291.018
0.97564065 -0.05 0.0034854377 26263.792
0.97331994 -0.05 0.0038118591 26236.614
0.97099908 -0.05 0.0041373159 26209.479
0.96867809 -0.05 0.0044618578 26182.342
0.96635696 -0.05 0.0047854478 26155.288
0.96403572 -0.05 0.0051081172 26128.173
0.96171435 -0.05 0.0054299032 26101.127
0.95939284 -0.05 0.0057507069 26074.119
0.95707121 -0.05 0.0060705875 26047.091
0.95474946 -0.05 0.0063895914 26020.095
0.95242757 -0.05 0.0067076389 25993.174
0.95010556 -0.05 0.0070248024 25966.17
0.94778344 -0.05 0.0073411105 25939.254
0.94546118 -0.05 0.0076564368 25912.407
0.94313881 -0.05 0.007970866 25885.519
0.94081631 -0.05 0.0082844406 25858.695
0.93849369 -0.05 0.0085971026 25831.919
0.93617096 -0.05 0.0089088655 25805.179
0.9338481 -0.05 0.0092197817 25778.43
0.93152513 -0.05 0.0095298292 25751.773
0.92920205 -0.05 0.00983897 25725.149
0.92687884 -0.05 0.010147248 25698.566
0.92455553 -0.05 0.01045465 25672.052
0.92223209 -0.05 0.010761189 25645.55
0.91990855 -0.05 0.011066875 25619.144
0.91758488 -0.05 0.011371653 25592.836
0.91526111 -0.05 0.011675608 25566.465
0.91293723 -0.05 0.011978761 25540.215
0.91061324 -0.05 0.012281 25514.088
0.90828913 -0.05 0.012582372 25487.955
0.90596492 -0.05 0.012882964 25461.841
0.90364059 -0.05 0.013182677 25435.954
0.90131615 -0.05 0.013481494 25410.056
0.89899162 -0.05 0.013779572 25384.1
0.89666698 -0.05 0.014076842 25358.357
0.89434222 -0.05 0.014373142 25332.787
0.89201737 -0.05 0.014668681 25306.999
0.88969241 -0.05 0.014963453 25281.516
0.88736734 -0.05 0.0152573 25256.087
0.88504217 -0.05 0.015550344 25230.666
0.8827169 -0.05 0.015842646 25205.258
0.88039152 -0.05 0.016134071 25180.141
0.87806604 -0.05 0.016424635 25154.94
0.87574046 -0.05 0.016714466 25129.83
0.87341478 -0.05 0.017003468 25104.858
0.871089 -0.05 0.017291665 25079.892
0.86876312 -0.05 0.017579058 25055.082
0.86643714 -0.05 0.017865646 25030.265
0.86411107 -0.05 0.018151445 25005.606
0.86178489 -0.05 0.018436407 24981.022
0.85945862 -0.05 0.018720606 24956.414
0.85713225 -0.05 0.019004019 24931.994
0.85480578 -0.05 0.019286574 24907.694
0.85247921 -0.05 0.019568355 24883.357
0.85015256 -0.05 0.019849418 24859.083
0.84782581 -0.05 0.020129657 24835.016
0.84549896 -0.05 0.020409081 24810.928
0.84317202 -0.05 0.020687756 24786.9
0.84084499 -0.05 0.020965643 24762.998
0.83851786 -0.05 0.021242672 24739.296
0.83619063 -0.05 0.021518954 24715.436
0.83386332 -0.05 0.021794529 24691.753
0.83153592 -0.05 0.022069294 24668.149
0.82920841 -0.05 0.022343258 24644.646
0.82688083 -0.05 0.02261648 24621.09
0.82455316 -0.05 0.022888925 24597.74
0.82222538 -0.05 0.023160547 24574.435
0.81989751 -0.05 0.023431389 24551.224
0.81756956 -0.05 0.023701494 24527.981
0.81524153 -0.05 0.023970846 24504.893
0.8129134 -0.05 0.024239417 24481.806
0.81058518 -0.05 0.02450723 24458.819
0.80825687 -0.05 0.024774258 24435.898
0.80592849 -0.05 0.02504053 24413.018
0.8036 -0.05 0.025306023 24390.247
0.80127144 -0.05 0.025570774 24367.403
0.79894279 -0.05 0.025834763 24344.773
0.79661404 -0.05 0.026097924 24322.162
0.79428522 -0.05 0.026360374 24299.491
0.79195631 -0.05 0.026622048 24277.058
0.78962731 -0.05 0.026882938 24254.513
0.78729823 -0.05 0.027143126 24232.059
0.78496906 -0.05 0.027402517 24209.717
0.78263981 -0.05 0.02766117 24187.245
0.78031048 -0.05 0.027919081 24164.98
0.77798106 -0.05 0.028176144 24142.782
0.77565155 -0.05 0.028432494 24120.43
0.77332196 -0.05 0.028688107 24098.288
0.77099228 -0.05 0.028942908 24076.116
0.76866253 -0.05 0.029196968 24053.952
0.7663327 -0.05 0.029450285 24031.808
0.76400278 -0.05 0.029702803 24009.772
0.76167277 -0.05 0.029954568 23987.628
0.75934268 -0.05 0.030205573 23965.647
0.75701251 -0.05 0.030455803 23943.555
0.75468227 -0.05 0.030705313 23921.505
0.75235193 -0.05 0.030954045 23899.471
0.75002152 -0.05 0.031202018 23877.407
0.74769103 -0.05 0.031449207 23855.421
0.74536045 -0.05 0.031695625 23833.35
0.7430298 -0.05 0.031941289 23811.318
0.74069906 -0.05 0.032186181 23789.227
0.73836824 -0.05 0.032430305 23767.169
0.73603734 -0.05 0.032673645 23745.088
0.73370637 -0.05 0.032916233 23722.918
0.73137531 -0.05 0.033158092 23700.681
0.72904417 -0.05 0.033399148 23678.538
0.72671295 -0.05 0.033639377 23656.319
0.72438166 -0.05 0.03387888 23633.94
0.72205028 -0.05 0.034117645 23611.566
0.71971882 -0.05 0.034355552 23589.251
0.71738729 -0.05 0.034592685 23566.678
0.71505567 -0.05 0.034829099 23544.12
0.71272397 -0.05 0.035064674 23521.525
0.71039219 -0.05 0.035299486 23498.713
0.70806035 -0.05 0.035533544 23475.905
0.70572841 -0.05 0.035766778 23452.97
0.70339641 -0.05 0.035999269 23429.846
0.70106433 -0.05 0.03623098 23406.669
0.69873216 -0.05 0.036461892 23383.3
0.69639992 -0.05 0.036691978 23359.884
0.69406759 -0.05 0.036921269 23336.198
0.69173519 -0.05 0.03714974 23312.532
0.68940271 -0.05 0.037377398 23288.534
0.68707015 -0.05 0.037604327 23264.373
0.68473752 -0.05 0.03783047 23239.983
0.68240481 -0.05 0.038055756 23215.501
0.68007201 -0.05 0.038280206 23190.707
0.67773914 -0.05 0.038503859 23165.746
0.67540619 -0.05 0.03872673 23140.433
0.67307317 -0.05 0.038948784 23114.979
0.67074007 -0.05 0.039170028 23089.112
0.66840689 -0.05 0.039390456 23063.085
0.66607364 -0.05 0.039610024 23036.67
0.6637403 -0.05 0.039828774 23010
0.66140688 -0.05 0.040046679 22982.955
0.6590734 -0.05 0.040263799 22955.506
0.65673983 -0.05 0.040480084 22927.757
0.65440618 -0.05 0.040695489 22899.599
0.65207246 -0.05 0.040910082 22870.999
0.64973866 -0.05 0.041123838 22842.009
0.64740478 -0.05 0.04133674 22812.536
0.64507083 -0.05 0.041548788 22782.639
0.6427368 -0.05 0.04175995 22752.256
0.64040268 -0.05 0.041970278 22721.331
0.6380685 -0.05 0.042179753 22689.919
0.63573424 -0.05 0.042388355 22657.927
0.63339989 -0.05 0.042596094 22625.398
0.63106547 -0.05 0.042802945 22592.268
0.62873097 -0.05 0.04300894 22558.511
0.6263964 -0.05 0.043214055 22524.151
0.62406174 -0.05 0.043418269 22489.13
0.62172702 -0.05 0.043621601 22453.441
0.61939221 -0.05 0.043824069 22417.028
0.61705733 -0.05 0.044025645 22379.934
0.61472237 -0.05 0.044226271 22342.115
0.61238733 -0.05 0.044426006 22303.506
0.61005222 -0.05 0.04462488 22264.126
0.60771702 -0.05 0.044822825 22223.96
0.60538174 -0.05 0.045019806 22182.979
0.6030464 -0.05 0.045215861 22141.149
0.60071097 -0.05 0.045411024 22098.482
0.59837546 -0.05 0.045605254 22054.967
0.59603988 -0.05 0.045798556 22010.551
0.59370423 -0.05 0.045990938 21965.246
0.59136849 -0.05 0.046182352 21919.03
0.58903267 -0.05 0.046372791 21871.89
0.58669678 -0.05 0.046562266 21823.814
0.5843608 -0.05 0.046750814 21774.774
0.58202475 -0.05 0.046938396 21724.786
0.57968862 -0.05 0.047124972 21673.823
0.57735242 -0.05 0.047310579 21621.917
0.57501614 -0.05 0.047495251 21569.055
0.57267978 -0.05 0.047678924 21515.219
0.57034334 -0.05 0.04786155 21460.336
0.56800683 -0.05 0.048043188 21404.506
0.56567024 -0.05 0.048223861 21347.685
0.56333356 -0.05 0.048403536 21289.872
0.56099681 -0.05 0.048582153 21231.107
0.55865998 -0.05 0.04875972 21171.378
0.55632308 -0.05 0.048936314 21110.596
0.55398609 -0.05 0.049111879 21048.907
0.55164903 -0.05 0.049286359 20986.338
0.54931189 -0.05 0.049459794 20922.837
0.54697467 -0.05 0.049632163 20858.408
0.54463737 -0.05 0.049803468 20793.075
0.5423 -0.05 0.049973719 20726.849
0.53996254 -0.05 0.050142913 20659.756
0.53762502 -0.05 0.050311035 20591.814
0.53528742 -0.05 0.050478054 20523.048
0.53294973 -0.05 0.050643972 20453.475
0.53061196 -0.05 0.050808824 20383.127
0.52827412 -0.05 0.050972558 20312.037
0.5259362 -0.05 0.051135143 20240.218
0.5235982 -0.05 0.051296612 20167.715
0.52126012 -0.05 0.051456922 20094.564
0.51892198 -0.05 0.051616121 20020.783
0.51658374 -0.05 0.051774162 19946.449
0.51424543 -0.05 0.051931036 19871.544
0.51190704 -0.05 0.05208678 19796.163
0.50956857 -0.05 0.052241321 19720.299
0.50723003 -0.05 0.052394685 19644.021
0.50489141 -0.05 0.052546885 19567.362
0.50255271 -0.05 0.05269791 19490.378
0.50021394 -0.05 0.052847701 19413.128
0.49787509 -0.05 0.052996281 19335.66
0.49553616 -0.05 0.053143654 19258.058
0.49319715 -0.05 0.053289801 19180.349
0.49085807 -0.05 0.053434697 19102.6
0.48851891 -0.05 0.05357832 19024.809
0.48617967 -0.05 0.053720679 18947.001
0.48384036 -0.05 0.053861795 18869.153
0.48150096 -0.05 0.054001669 18791.288
0.4791615 -0.05 0.054140241 18713.414
0.47682195 -0.05 0.054277501 18635.605
0.47448234 -0.05 0.054413462 18557.941
0.47214264 -0.05 0.054548109 18480.539
0.46980287 -0.05 0.054681459 18403.482
0.46746302 -0.05 0.054813494 18326.808
0.4651231 -0.05 0.054944177 18250.416
0.4627831 -0.05 0.055073496 18174.088
0.46044304 -0.05 0.055201437 18097.328
0.45810288 -0.05 0.055328007 18019.412
0.45576266 -0.05 0.055453195 17939.351
0.45342237 -0.05 0.055576996 17855.974
0.451082 -0.05 0.05569938 17767.919
0.44874156 -0.05 0.055820362 17673.783
0.44640104 -0.05 0.055939944 17571.935
0.44406046 -0.05 0.056058044 17460.874
0.4417198 -0.05 0.056174717 17335.688
0.43937906 -0.05 0.05628996 17190.163
0.43703826 -0.05 0.056403696 17018.88
0.43469738 -0.05 0.056515954 16810.644
0.43235643 -0.05 0.056626691 16556.242
0.43001541 -0.05 0.056735938 16247.828
0.42767432 -0.05 0.056843696 15855.522
0.42533317 -0.05 0.056949929 15324.095
0.42299193 -0.05 0.057054582 14636.359
0.42065064 -0.05 0.05715767 13852.833
0.41830927 -0.05 0.057259222 13093.715
0.41596783 -0.05 0.057359191 12469.483
0.41362633 -0.05 0.057457551 12023.117
0.41128476 -0.05 0.057554292 11734.182
0.40894313 -0.05 0.057649427 11560.448
0.40660142 -0.05 0.057742965 11460.947
0.40425966 -0.05 0.057834838 11407.343
0.40191783 -0.05 0.057925023 11380.609
0.39957593 -0.05 0.058013541 11368.322
0.39723398 -0.05 0.058100378 11363.287
0.39489196 -0.05 0.058185525 11362.003
0.39254988 -0.05 0.058268918 11362.256
0.39020774 -0.05 0.058350591 11364.2
0.38786553 -0.05 0.058430541 11367.422
0.38552326 -0.05 0.058508715 11371.635
0.38318094 -0.05 0.058585094 11376.19
0.38083857 -0.05 0.058659688 11380.941
0.37849613 -0.05 0.058732482 11385.889
0.37615364 -0.05 0.058803471 11390.923
0.37381109 -0.05 0.058872605 11396.624
0.37146848 -0.05 0.058939856 11402.193
0.36912583 -0.05 0.059005237 11407.977
0.36678312 -0.05 0.059068742 11413.646
0.36444037 -0.05 0.059130353 11419.649
0.36209757 -0.05 0.059190049 11425.568
0.35975471 -0.05 0.059247824 11431.841
0.35741181 -0.05 0.059303603 11438.624
0.35506885 -0.05 0.059357402 11444.943
0.35272586 -0.05 0.059409225 11451.741
0.35038283 -0.05 0.059459045 11458.263
0.34803975 -0.05 0.059506859 11465.287
0.34569662 -0.05 0.059552581 11472.736
0.34335347 -0.05 0.059596249 11479.548
0.34101027 -0.05 0.059637862 11487.127
0.33866703 -0.05 0.059677333 11494.788
0.33632377 -0.05 0.059714702 11502.322
0.33398046 -0.05 0.059749909 11510.639
0.33163713 -0.05 0.059782951 11518.228
0.32929376 -0.05 0.059813858 11526.371
0.32695037 -0.05 0.059842535 11534.939
0.32460696 -0.05 0.059868968 11543.508
0.32226351 -0.05 0.059893141 11552.359
0.31992004 -0.05 0.059915067 11560.778
0.31757656 -0.05 0.059934727 11569.835
0.31523306 -0.05 0.059952066 11578.911
0.31288954 -0.05 0.059967055 11588.456
0.31054601 -0.05 0.059979678 11597.688
0.30820247 -0.05 0.059989926 11607.217
0.30585891 -0.05 0.059997793 11616.513
0.30351535 -0.05 0.060003209 11627.066
0.30117178 -0.05 0.060006157 11637.711
