/*--------------------------------*- C++ -*----------------------------------*\
| =========                 |                                                 |
| \\      /  F ield         | OpenFOAM: The Open Source CFD Toolbox           |
|  \\    /   O peration     | Version:  2306                                  |
|   \\  /    A nd           | Website:  www.openfoam.com                      |
|    \\/     M anipulation  |                                                 |
\*---------------------------------------------------------------------------*/
FoamFile
{
    version     2.0;
    format      ascii;
    arch        "LSB;label=32;scalar=64";
    class       volScalarField;
    location    "275";
    object      nuTilda;
}
// * * * * * * * * * * * * * * * * * * * * * * * * * * * * * * * * * * * * * //

dimensions      [0 2 -1 0 0 0 0];

internalField   nonuniform List<scalar> 
1340
(
0.106571
0.104425
0.101989
0.0924546
0.0699921
0.0717246
0.0752983
0.0784609
0.0395964
0.0469996
0.0536727
0.063161
0.00688419
0.0131275
0.0218489
0.0392283
0.000717002
0.00123966
0.00164231
0.0137162
0.000171491
0.00029386
0.000431848
0.00239734
1.20396e-05
8.04683e-06
0
0.000573919
3.99147e-05
3.48026e-05
9.11157e-06
0
4.02171e-05
4.11548e-05
3.74281e-05
5.90062e-06
4.02216e-05
3.95814e-05
4.46682e-05
2.29704e-05
4.01809e-05
3.96125e-05
4.19715e-05
3.66988e-05
4.00956e-05
3.99872e-05
4.02726e-05
4.02695e-05
4.00652e-05
4.00921e-05
3.99766e-05
4.03705e-05
4.00637e-05
4.00835e-05
4.00265e-05
4.01528e-05
4.00656e-05
4.00702e-05
4.0064e-05
4.00752e-05
4.00656e-05
4.00661e-05
4.00706e-05
4.00653e-05
4.0065e-05
4.00653e-05
4.00689e-05
4.00666e-05
4.00645e-05
4.00649e-05
4.00673e-05
4.00669e-05
4.00642e-05
4.00646e-05
4.00664e-05
4.00664e-05
4.0064e-05
4.00643e-05
4.00659e-05
4.00658e-05
4.00639e-05
4.00641e-05
4.00655e-05
4.00654e-05
4.00639e-05
4.0064e-05
4.00651e-05
4.00651e-05
4.00638e-05
4.00638e-05
4.00648e-05
4.00648e-05
4.00637e-05
4.00637e-05
4.00645e-05
4.00645e-05
4.00636e-05
4.00636e-05
4.00642e-05
4.00643e-05
4.00634e-05
4.00634e-05
4.00638e-05
4.0064e-05
4.00631e-05
4.00633e-05
4.00636e-05
4.00638e-05
4.00628e-05
4.00631e-05
4.00633e-05
4.00636e-05
4.00624e-05
4.00628e-05
4.00629e-05
4.00633e-05
4.0062e-05
4.00625e-05
4.00626e-05
4.00631e-05
4.00615e-05
4.00621e-05
4.00623e-05
4.00629e-05
4.0061e-05
4.00616e-05
4.00618e-05
4.00626e-05
4.00604e-05
4.0061e-05
4.00614e-05
4.00623e-05
4.00597e-05
4.00604e-05
4.00608e-05
4.00618e-05
4.00589e-05
4.00596e-05
4.00601e-05
4.00612e-05
4.0058e-05
4.00588e-05
4.00593e-05
4.00605e-05
4.0057e-05
4.00578e-05
4.00584e-05
4.00597e-05
4.00559e-05
4.00567e-05
4.00573e-05
4.00587e-05
4.0054e-05
4.00547e-05
4.00555e-05
4.00561e-05
4.00576e-05
4.00527e-05
4.00533e-05
4.00542e-05
4.00548e-05
4.00563e-05
4.00512e-05
4.00519e-05
4.00527e-05
4.00533e-05
4.00548e-05
4.00496e-05
4.00503e-05
4.00511e-05
4.00517e-05
4.00532e-05
4.00479e-05
4.00486e-05
4.00494e-05
4.005e-05
4.00515e-05
4.00462e-05
4.00468e-05
4.00476e-05
4.00482e-05
4.00497e-05
4.00444e-05
4.0045e-05
4.00457e-05
4.00463e-05
4.00478e-05
4.00426e-05
4.00432e-05
4.00439e-05
4.00445e-05
4.00459e-05
4.00408e-05
4.00413e-05
4.00421e-05
4.00426e-05
4.00439e-05
4.00391e-05
4.00396e-05
4.00403e-05
4.00408e-05
4.00421e-05
4.00373e-05
4.00378e-05
4.00385e-05
4.0039e-05
4.00402e-05
4.00356e-05
4.00361e-05
4.00367e-05
4.00372e-05
4.00384e-05
4.00337e-05
4.00342e-05
4.00348e-05
4.00354e-05
4.00365e-05
4.00316e-05
4.00321e-05
4.00327e-05
4.00332e-05
4.00344e-05
4.00287e-05
4.00291e-05
4.00296e-05
4.00302e-05
4.00307e-05
4.00318e-05
4.00258e-05
4.00261e-05
4.00265e-05
4.00271e-05
4.00276e-05
4.00287e-05
4.00223e-05
4.00226e-05
4.00229e-05
4.00234e-05
4.00239e-05
4.0025e-05
4.00185e-05
4.00187e-05
4.0019e-05
4.00194e-05
4.00197e-05
4.00207e-05
4.00146e-05
4.00147e-05
4.00149e-05
4.00152e-05
4.00155e-05
4.00163e-05
4.00111e-05
4.00112e-05
4.00113e-05
4.00115e-05
4.00117e-05
4.00123e-05
4.00085e-05
4.00086e-05
4.00086e-05
4.00087e-05
4.00088e-05
4.00092e-05
4.00075e-05
4.00075e-05
4.00075e-05
4.00075e-05
4.00075e-05
4.00076e-05
4.00085e-05
4.00086e-05
4.00086e-05
4.00086e-05
4.00086e-05
4.00085e-05
4.00112e-05
4.00114e-05
4.00115e-05
4.00116e-05
4.00117e-05
4.00118e-05
4.00115e-05
4.00154e-05
4.00157e-05
4.0016e-05
4.00162e-05
4.00163e-05
4.00165e-05
4.00162e-05
4.0021e-05
4.00214e-05
4.00218e-05
4.00222e-05
4.00224e-05
4.00227e-05
4.00225e-05
4.00276e-05
4.00282e-05
4.00287e-05
4.00292e-05
4.00296e-05
4.003e-05
4.00299e-05
4.00348e-05
4.00355e-05
4.00362e-05
4.00368e-05
4.00373e-05
4.00379e-05
4.0038e-05
4.00422e-05
4.0043e-05
4.00437e-05
4.00444e-05
4.00451e-05
4.00458e-05
4.0046e-05
4.00482e-05
4.00491e-05
4.005e-05
4.00508e-05
4.00516e-05
4.00525e-05
4.0053e-05
4.00524e-05
4.00534e-05
4.00544e-05
4.00553e-05
4.00563e-05
4.00573e-05
4.00581e-05
4.00557e-05
4.00567e-05
4.00577e-05
4.00587e-05
4.00597e-05
4.00608e-05
4.00618e-05
4.00582e-05
4.00592e-05
4.00602e-05
4.00612e-05
4.00623e-05
4.00635e-05
4.00646e-05
4.00595e-05
4.00606e-05
4.00616e-05
4.00627e-05
4.00638e-05
4.00649e-05
4.00662e-05
4.00673e-05
4.00632e-05
4.00645e-05
4.00658e-05
4.00671e-05
4.00684e-05
4.00697e-05
4.00712e-05
4.00724e-05
4.00704e-05
4.00721e-05
4.00739e-05
4.00756e-05
4.00774e-05
4.00792e-05
4.00813e-05
4.00829e-05
4.00814e-05
4.00836e-05
4.00859e-05
4.00882e-05
4.00905e-05
4.00929e-05
4.00956e-05
4.0098e-05
4.00903e-05
4.00926e-05
4.00949e-05
4.00971e-05
4.00995e-05
4.0102e-05
4.01048e-05
4.01074e-05
4.00864e-05
4.00878e-05
4.00892e-05
4.00906e-05
4.0092e-05
4.00935e-05
4.0095e-05
4.00967e-05
4.00729e-05
4.00747e-05
4.00766e-05
4.00786e-05
4.00807e-05
4.00829e-05
4.00856e-05
4.00877e-05
4.00854e-05
4.00909e-05
4.00965e-05
4.01023e-05
4.01083e-05
4.01147e-05
4.01219e-05
4.01287e-05
4.00789e-05
4.00813e-05
4.00835e-05
4.00854e-05
4.00873e-05
4.0089e-05
4.00908e-05
4.00924e-05
0.12655
0.0831098
0.0542976
0.0293576
0.00867367
0.000787733
0.000186428
0
6.41183e-06
2.76808e-05
3.8661e-05
4.05252e-05
4.03396e-05
4.01349e-05
4.0081e-05
4.00765e-05
4.00769e-05
4.00757e-05
4.00739e-05
4.00723e-05
4.00709e-05
4.00698e-05
4.00688e-05
4.00679e-05
4.00672e-05
4.00665e-05
4.0066e-05
4.00655e-05
4.0065e-05
4.00646e-05
4.00642e-05
4.00638e-05
4.00634e-05
4.00628e-05
4.00621e-05
4.00613e-05
4.00604e-05
4.00594e-05
4.00582e-05
4.00568e-05
4.00553e-05
4.00537e-05
4.00519e-05
4.005e-05
4.00481e-05
4.00462e-05
4.00442e-05
4.00424e-05
4.00405e-05
4.00387e-05
4.00367e-05
4.00346e-05
4.0032e-05
4.00288e-05
4.0025e-05
4.00207e-05
4.00162e-05
4.00122e-05
4.00092e-05
4.00078e-05
4.00088e-05
4.00118e-05
4.00167e-05
4.00231e-05
4.00307e-05
4.00388e-05
4.0047e-05
4.0054e-05
4.00591e-05
4.00628e-05
4.00655e-05
4.00683e-05
4.00737e-05
4.00847e-05
4.01002e-05
4.01091e-05
4.00977e-05
4.00896e-05
4.01331e-05
4.00939e-05
0.149744
0.0867506
0.0432579
0.0175133
0.00342913
0.000832093
0
2.73827e-06
1.2211e-05
3.51463e-05
4.0169e-05
4.05364e-05
4.02455e-05
4.01125e-05
4.0088e-05
4.00866e-05
4.00852e-05
4.00824e-05
4.00796e-05
4.00771e-05
4.0075e-05
4.00733e-05
4.00718e-05
4.00705e-05
4.00694e-05
4.00684e-05
4.00676e-05
4.00669e-05
4.00662e-05
4.00657e-05
4.00652e-05
4.00647e-05
4.00642e-05
4.00635e-05
4.00628e-05
4.00619e-05
4.0061e-05
4.00599e-05
4.00586e-05
4.00572e-05
4.00557e-05
4.0054e-05
4.00522e-05
4.00503e-05
4.00483e-05
4.00463e-05
4.00444e-05
4.00425e-05
4.00407e-05
4.00389e-05
4.00369e-05
4.00347e-05
4.0032e-05
4.00287e-05
4.00248e-05
4.00205e-05
4.0016e-05
4.0012e-05
4.00091e-05
4.00078e-05
4.0009e-05
4.00122e-05
4.00172e-05
4.00238e-05
4.00315e-05
4.00397e-05
4.00479e-05
4.0055e-05
4.006e-05
4.00636e-05
4.00663e-05
4.00691e-05
4.00748e-05
4.00862e-05
4.0102e-05
4.01103e-05
4.00984e-05
4.00914e-05
4.0136e-05
4.00948e-05
0.151028
0.0808323
0.0296101
0.00716263
0.000421349
0.000100824
0
5.99227e-06
2.53627e-05
3.99355e-05
4.06144e-05
4.03972e-05
4.01641e-05
4.01022e-05
4.00954e-05
4.0094e-05
4.00908e-05
4.0087e-05
4.00835e-05
4.00806e-05
4.0078e-05
4.00759e-05
4.0074e-05
4.00724e-05
4.00711e-05
4.00699e-05
4.00689e-05
4.00681e-05
4.00674e-05
4.00667e-05
4.00662e-05
4.00656e-05
4.0065e-05
4.00642e-05
4.00634e-05
4.00625e-05
4.00615e-05
4.00604e-05
4.00591e-05
4.00576e-05
4.0056e-05
4.00543e-05
4.00524e-05
4.00505e-05
4.00485e-05
4.00466e-05
4.00446e-05
4.00428e-05
4.00409e-05
4.00391e-05
4.00371e-05
4.00348e-05
4.0032e-05
4.00287e-05
4.00247e-05
4.00202e-05
4.00157e-05
4.00118e-05
4.00089e-05
4.00078e-05
4.00092e-05
4.00126e-05
4.00178e-05
4.00245e-05
4.00324e-05
4.00407e-05
4.00489e-05
4.0056e-05
4.0061e-05
4.00645e-05
4.00671e-05
4.007e-05
4.0076e-05
4.00878e-05
4.01039e-05
4.01114e-05
4.00992e-05
4.00935e-05
4.01389e-05
4.00956e-05
0.134897
0.0642117
0.0150378
0.000812785
0.000202428
0
3.66306e-06
1.55129e-05
3.64744e-05
4.14812e-05
4.04695e-05
4.02581e-05
4.01201e-05
4.0103e-05
4.01016e-05
4.00986e-05
4.00941e-05
4.00898e-05
4.0086e-05
4.00827e-05
4.008e-05
4.00776e-05
4.00755e-05
4.00738e-05
4.00723e-05
4.00711e-05
4.007e-05
4.00691e-05
4.00683e-05
4.00677e-05
4.0067e-05
4.00664e-05
4.00657e-05
4.00649e-05
4.00641e-05
4.00631e-05
4.00621e-05
4.00609e-05
4.00595e-05
4.0058e-05
4.00564e-05
4.00546e-05
4.00527e-05
4.00508e-05
4.00488e-05
4.00468e-05
4.00449e-05
4.0043e-05
4.00412e-05
4.00393e-05
4.00373e-05
4.00349e-05
4.00321e-05
4.00286e-05
4.00245e-05
4.002e-05
4.00154e-05
4.00115e-05
4.00088e-05
4.00079e-05
4.00095e-05
4.00131e-05
4.00185e-05
4.00254e-05
4.00333e-05
4.00417e-05
4.005e-05
4.00571e-05
4.0062e-05
4.00654e-05
4.0068e-05
4.0071e-05
4.00773e-05
4.00896e-05
4.01059e-05
4.01125e-05
4.00999e-05
4.00959e-05
4.0142e-05
4.00965e-05
0.104094
0.0387025
0.00304134
0.000748644
0
2.00279e-06
8.77428e-06
3.0853e-05
4.15021e-05
4.11927e-05
4.02357e-05
4.01758e-05
4.01062e-05
4.01087e-05
4.01062e-05
4.01015e-05
4.00963e-05
4.00917e-05
4.00877e-05
4.00843e-05
4.00813e-05
4.00788e-05
4.00767e-05
4.00748e-05
4.00733e-05
4.0072e-05
4.00709e-05
4.007e-05
4.00692e-05
4.00685e-05
4.00678e-05
4.00672e-05
4.00664e-05
4.00656e-05
4.00647e-05
4.00637e-05
4.00626e-05
4.00614e-05
4.006e-05
4.00584e-05
4.00567e-05
4.00549e-05
4.0053e-05
4.0051e-05
4.0049e-05
4.00471e-05
4.00451e-05
4.00433e-05
4.00414e-05
4.00395e-05
4.00375e-05
4.00351e-05
4.00321e-05
4.00285e-05
4.00243e-05
4.00197e-05
4.00151e-05
4.00113e-05
4.00086e-05
4.00079e-05
4.00098e-05
4.00136e-05
4.00192e-05
4.00263e-05
4.00344e-05
4.00428e-05
4.00512e-05
4.00582e-05
4.0063e-05
4.00663e-05
4.00688e-05
4.0072e-05
4.00787e-05
4.00915e-05
4.01079e-05
4.01137e-05
4.01007e-05
4.00985e-05
4.01453e-05
4.00972e-05
0.0645635
0.0145479
0.00358418
0
0
6.40069e-06
2.65525e-05
4.02927e-05
4.20595e-05
4.05047e-05
4.01232e-05
4.01415e-05
4.01081e-05
4.01143e-05
4.01088e-05
4.01031e-05
4.00977e-05
4.00929e-05
4.00889e-05
4.00853e-05
4.00823e-05
4.00798e-05
4.00776e-05
4.00757e-05
4.00742e-05
4.00729e-05
4.00717e-05
4.00708e-05
4.007e-05
4.00693e-05
4.00686e-05
4.00679e-05
4.00672e-05
4.00663e-05
4.00654e-05
4.00644e-05
4.00632e-05
4.00619e-05
4.00604e-05
4.00588e-05
4.00571e-05
4.00553e-05
4.00533e-05
4.00513e-05
4.00493e-05
4.00473e-05
4.00454e-05
4.00435e-05
4.00417e-05
4.00398e-05
4.00377e-05
4.00352e-05
4.00321e-05
4.00284e-05
4.0024e-05
4.00194e-05
4.00148e-05
4.0011e-05
4.00085e-05
4.0008e-05
4.00101e-05
4.00142e-05
4.002e-05
4.00272e-05
4.00354e-05
4.0044e-05
4.00524e-05
4.00594e-05
4.00641e-05
4.00673e-05
4.00698e-05
4.00731e-05
4.00802e-05
4.00936e-05
4.01101e-05
4.0115e-05
4.01016e-05
4.01014e-05
0.0255868
0.000618745
0.000151125
0
5.37494e-06
2.23421e-05
3.93111e-05
4.24908e-05
4.10338e-05
4.01152e-05
4.01165e-05
4.01304e-05
4.01148e-05
4.01173e-05
4.01097e-05
4.01038e-05
4.00983e-05
4.00936e-05
4.00896e-05
4.00861e-05
4.00831e-05
4.00805e-05
4.00783e-05
4.00765e-05
4.00749e-05
4.00736e-05
4.00725e-05
4.00716e-05
4.00708e-05
4.00701e-05
4.00694e-05
4.00687e-05
4.00679e-05
4.0067e-05
4.0066e-05
4.0065e-05
4.00637e-05
4.00624e-05
4.00609e-05
4.00593e-05
4.00575e-05
4.00556e-05
4.00536e-05
4.00516e-05
4.00496e-05
4.00476e-05
4.00457e-05
4.00438e-05
4.0042e-05
4.004e-05
4.00379e-05
4.00353e-05
4.00321e-05
4.00282e-05
4.00238e-05
4.0019e-05
4.00145e-05
4.00107e-05
4.00084e-05
4.00082e-05
4.00105e-05
4.00148e-05
4.00208e-05
4.00282e-05
4.00366e-05
4.00452e-05
4.00536e-05
4.00607e-05
4.00652e-05
4.00683e-05
4.00708e-05
4.00742e-05
4.00818e-05
4.00958e-05
4.01123e-05
4.01162e-05
0.00290818
0.000720651
0
4.2107e-06
1.7624e-05
3.90407e-05
4.28368e-05
4.14704e-05
4.02364e-05
4.0053e-05
4.01361e-05
4.01269e-05
4.01203e-05
4.01175e-05
4.01095e-05
4.01037e-05
4.00984e-05
4.00938e-05
4.00899e-05
4.00864e-05
4.00835e-05
4.0081e-05
4.00789e-05
4.00771e-05
4.00756e-05
4.00744e-05
4.00733e-05
4.00724e-05
4.00716e-05
4.00709e-05
4.00702e-05
4.00694e-05
4.00686e-05
4.00677e-05
4.00667e-05
4.00656e-05
4.00643e-05
4.00629e-05
4.00614e-05
4.00597e-05
4.00579e-05
4.00559e-05
4.00539e-05
4.00519e-05
4.00499e-05
4.00479e-05
4.0046e-05
4.00441e-05
4.00422e-05
4.00403e-05
4.0038e-05
4.00354e-05
4.0032e-05
4.00281e-05
4.00235e-05
4.00187e-05
4.00141e-05
4.00104e-05
4.00083e-05
4.00083e-05
4.00109e-05
4.00154e-05
4.00217e-05
4.00293e-05
4.00378e-05
4.00465e-05
4.0055e-05
4.0062e-05
4.00664e-05
4.00694e-05
4.00718e-05
4.00755e-05
4.00836e-05
4.00982e-05
0.000783565
0
2.59408e-06
1.10679e-05
3.93202e-05
4.32469e-05
4.17144e-05
4.03668e-05
4.00209e-05
4.01087e-05
4.01422e-05
4.01259e-05
4.01222e-05
4.01159e-05
4.01085e-05
4.0103e-05
4.0098e-05
4.00936e-05
4.00899e-05
4.00866e-05
4.00838e-05
4.00814e-05
4.00794e-05
4.00777e-05
4.00762e-05
4.0075e-05
4.0074e-05
4.00732e-05
4.00724e-05
4.00717e-05
4.00709e-05
4.00701e-05
4.00693e-05
4.00684e-05
4.00673e-05
4.00661e-05
4.00648e-05
4.00634e-05
4.00618e-05
4.00601e-05
4.00582e-05
4.00563e-05
4.00542e-05
4.00522e-05
4.00502e-05
4.00482e-05
4.00463e-05
4.00444e-05
4.00425e-05
4.00405e-05
4.00382e-05
4.00354e-05
4.0032e-05
4.00278e-05
4.00231e-05
4.00183e-05
4.00137e-05
4.00102e-05
4.00082e-05
4.00085e-05
4.00114e-05
4.00162e-05
4.00227e-05
4.00305e-05
4.00391e-05
4.00479e-05
4.00564e-05
4.00634e-05
4.00676e-05
4.00705e-05
4.00729e-05
0
4.37079e-07
1.87137e-06
3.69478e-05
4.43941e-05
4.16834e-05
4.04118e-05
4.00122e-05
4.00782e-05
4.01453e-05
4.01368e-05
4.01255e-05
4.01208e-05
4.01134e-05
4.01071e-05
4.01019e-05
4.00972e-05
4.00932e-05
4.00896e-05
4.00865e-05
4.00839e-05
4.00817e-05
4.00798e-05
4.00782e-05
4.00768e-05
4.00757e-05
4.00748e-05
4.0074e-05
4.00732e-05
4.00725e-05
4.00717e-05
4.00709e-05
4.007e-05
4.0069e-05
4.00679e-05
4.00667e-05
4.00654e-05
4.00639e-05
4.00622e-05
4.00605e-05
4.00586e-05
4.00566e-05
4.00545e-05
4.00525e-05
4.00505e-05
4.00485e-05
4.00466e-05
4.00447e-05
4.00428e-05
4.00408e-05
4.00384e-05
4.00355e-05
4.00319e-05
4.00276e-05
4.00228e-05
4.00178e-05
4.00133e-05
4.00099e-05
4.00081e-05
4.00088e-05
4.0012e-05
4.0017e-05
4.00237e-05
4.00318e-05
4.00405e-05
4.00493e-05
0
8.43018e-06
3.47191e-05
4.51954e-05
4.18563e-05
4.02381e-05
4.00185e-05
4.00585e-05
4.01418e-05
4.01458e-05
4.01303e-05
4.01237e-05
4.01176e-05
4.01107e-05
4.01053e-05
4.01005e-05
4.00962e-05
4.00924e-05
4.00892e-05
4.00863e-05
4.00839e-05
4.00819e-05
4.00801e-05
4.00787e-05
4.00774e-05
4.00764e-05
4.00755e-05
4.00747e-05
4.0074e-05
4.00732e-05
4.00724e-05
4.00716e-05
4.00707e-05
4.00697e-05
4.00685e-05
4.00673e-05
4.00659e-05
4.00643e-05
4.00626e-05
4.00608e-05
4.00589e-05
4.00569e-05
4.00548e-05
4.00528e-05
4.00507e-05
4.00488e-05
4.00469e-05
4.0045e-05
4.00431e-05
4.0041e-05
4.00385e-05
4.00355e-05
4.00317e-05
4.00272e-05
4.00223e-05
4.00174e-05
4.00129e-05
4.00096e-05
4.00081e-05
4.00091e-05
4.00126e-05
7.9952e-06
3.27802e-05
4.43232e-05
4.213e-05
4.00239e-05
3.99714e-05
4.00683e-05
4.01365e-05
4.01516e-05
4.01351e-05
4.01258e-05
4.01202e-05
4.01138e-05
4.0108e-05
4.01032e-05
4.00988e-05
4.0095e-05
4.00916e-05
4.00886e-05
4.00861e-05
4.00839e-05
4.0082e-05
4.00805e-05
4.00791e-05
4.0078e-05
4.00771e-05
4.00762e-05
4.00755e-05
4.00747e-05
4.0074e-05
4.00732e-05
4.00723e-05
4.00714e-05
4.00703e-05
4.00691e-05
4.00678e-05
4.00664e-05
4.00648e-05
4.0063e-05
4.00612e-05
4.00592e-05
4.00572e-05
4.00551e-05
4.00531e-05
4.0051e-05
4.00491e-05
4.00472e-05
4.00454e-05
4.00434e-05
4.00412e-05
4.00386e-05
4.00354e-05
4.00315e-05
4.00269e-05
3.50073e-05
4.33495e-05
4.20324e-05
3.99692e-05
3.98855e-05
4.0092e-05
4.014e-05
4.01526e-05
4.01388e-05
4.01271e-05
4.01215e-05
4.01158e-05
4.01101e-05
4.01053e-05
4.0101e-05
4.00971e-05
4.00937e-05
4.00907e-05
4.00881e-05
4.00858e-05
4.00839e-05
4.00822e-05
4.00808e-05
4.00797e-05
4.00787e-05
4.00778e-05
4.0077e-05
4.00763e-05
4.00755e-05
4.00747e-05
4.00739e-05
4.0073e-05
4.0072e-05
4.00709e-05
4.00697e-05
4.00683e-05
4.00668e-05
4.00652e-05
4.00634e-05
4.00615e-05
4.00595e-05
4.00575e-05
)
;

boundaryField
{
    inlet
    {
        type            freestream;
        freestreamValue uniform 4e-05;
        value           uniform 4e-05;
    }
    outlet
    {
        type            freestream;
        freestreamValue nonuniform List<scalar> 0();
        value           nonuniform List<scalar> 0();
    }
    walls
    {
        type            fixedValue;
        value           uniform 0;
    }
    frontAndBack
    {
        type            empty;
    }
    procBoundary2to1
    {
        type            processor;
        value           nonuniform List<scalar> 
84
(
0.107968
0.0680012
0.0311535
0.00304102
0.000728841
5.67357e-06
3.41121e-05
4.04527e-05
4.01068e-05
4.00394e-05
4.00478e-05
4.00627e-05
4.00686e-05
4.00674e-05
4.00658e-05
4.00649e-05
4.00644e-05
4.00641e-05
4.0064e-05
4.00639e-05
4.00638e-05
4.00638e-05
4.00637e-05
4.00636e-05
4.00633e-05
4.00631e-05
4.00628e-05
4.00624e-05
4.0062e-05
4.00615e-05
4.0061e-05
4.00604e-05
4.00598e-05
4.00591e-05
4.00583e-05
4.00574e-05
4.00564e-05
4.00553e-05
4.00553e-05
4.00534e-05
4.00521e-05
4.00506e-05
4.0049e-05
4.00474e-05
4.00457e-05
4.00439e-05
4.00421e-05
4.00403e-05
4.00386e-05
4.00369e-05
4.00351e-05
4.00333e-05
4.00312e-05
4.00312e-05
4.00284e-05
4.00255e-05
4.00221e-05
4.00184e-05
4.00145e-05
4.00111e-05
4.00085e-05
4.00075e-05
4.00084e-05
4.00084e-05
4.0011e-05
4.00151e-05
4.00205e-05
4.0027e-05
4.00341e-05
4.00413e-05
4.00472e-05
4.00514e-05
4.00546e-05
4.00572e-05
4.00572e-05
4.00584e-05
4.00619e-05
4.00686e-05
4.00791e-05
4.0088e-05
4.0085e-05
4.00712e-05
4.00799e-05
4.00764e-05
)
;
    }
    procBoundary2to3
    {
        type            processor;
        value           nonuniform List<scalar> 
88
(
4.01487e-05
4.00979e-05
4.01025e-05
4.01487e-05
4.01045e-05
4.01146e-05
4.01025e-05
4.01175e-05
4.00768e-05
4.00855e-05
4.01146e-05
4.01007e-05
4.00579e-05
4.00648e-05
4.00689e-05
4.00716e-05
4.00768e-05
4.00741e-05
4.00179e-05
4.00249e-05
4.00331e-05
4.0042e-05
4.00579e-05
4.00509e-05
4.00218e-05
4.00168e-05
4.00125e-05
4.00093e-05
4.00081e-05
4.00095e-05
4.00179e-05
4.00133e-05
4.00554e-05
4.00533e-05
4.00513e-05
4.00494e-05
4.00475e-05
4.00457e-05
4.00437e-05
4.00414e-05
4.00387e-05
4.00353e-05
4.00312e-05
4.00218e-05
4.00264e-05
4.27408e-05
4.15468e-05
3.99726e-05
3.98547e-05
4.01033e-05
4.01538e-05
4.01501e-05
4.01397e-05
4.01275e-05
4.01215e-05
4.01165e-05
4.01112e-05
4.01065e-05
4.01024e-05
4.00987e-05
4.00953e-05
4.00924e-05
4.00898e-05
4.00875e-05
4.00856e-05
4.00839e-05
4.00825e-05
4.00812e-05
4.00802e-05
4.00793e-05
4.00785e-05
4.00777e-05
4.0077e-05
4.00763e-05
4.00755e-05
4.00746e-05
4.00737e-05
4.00727e-05
4.00715e-05
4.00702e-05
4.00688e-05
4.00673e-05
4.00656e-05
4.00637e-05
4.00618e-05
4.00598e-05
4.00554e-05
4.00577e-05
)
;
    }
    procBoundary2to6
    {
        type            processor;
        value           nonuniform List<scalar> 
13
(
0.17268
0.213596
0.217346
0.202136
0.17215
0.129642
0.0783645
0.0296511
0.00312671
0.000399052
0
0
8.734e-06
)
;
    }
}


// ************************************************************************* //
