/*--------------------------------*- C++ -*----------------------------------*\
| =========                 |                                                 |
| \\      /  F ield         | OpenFOAM: The Open Source CFD Toolbox           |
|  \\    /   O peration     | Version:  2306                                  |
|   \\  /    A nd           | Website:  www.openfoam.com                      |
|    \\/     M anipulation  |                                                 |
\*---------------------------------------------------------------------------*/
FoamFile
{
    version     2.0;
    format      ascii;
    arch        "LSB;label=32;scalar=64";
    class       surfaceScalarField;
    location    "275";
    object      phi;
}
// * * * * * * * * * * * * * * * * * * * * * * * * * * * * * * * * * * * * * //

dimensions      [0 3 -1 0 0 0 0];

oriented        oriented;

internalField   nonuniform List<scalar> 
2579
(
0.201718
0.00470718
0.194903
0.00681605
0.181076
0.0138268
0.161178
0.0198992
0.228728
0.00873247
0.223772
0.0117725
0.213424
0.0241754
0.195362
0.0379624
0.248111
0.0123472
0.242957
0.0169267
0.232669
0.0344643
0.214858
0.055774
0.265363
0.0153342
0.260635
0.0216551
0.250901
0.0441983
0.232526
0.0741502
0.279287
0.018101
0.27494
0.0260021
0.266391
0.052747
0.248591
0.0919511
0.294564
0.0210051
0.289894
0.030673
0.281526
0.0611154
0.26414
0.109338
0.310213
0.0240009
0.305339
0.0355464
0.296956
0.0694991
0.28008
0.126214
0.32693
0.0270979
0.32187
0.0406073
0.313363
0.0780064
0.296998
0.142579
0.344471
0.0302688
0.339234
0.0458444
0.330701
0.0865403
0.314919
0.158361
0.362968
0.0335318
0.357609
0.0512043
0.349064
0.0950861
0.333841
0.173585
0.382474
0.0368462
0.376981
0.0566977
0.368447
0.10362
0.35385
0.188182
0.403006
0.0402239
0.397406
0.0622983
0.388945
0.112082
0.374984
0.202143
0.424673
0.0436241
0.418995
0.0679759
0.410572
0.120505
0.397291
0.215424
0.44748
0.0470532
0.441757
0.0736992
0.433459
0.128804
0.420831
0.228053
0.471535
0.0504931
0.465795
0.0794396
0.457594
0.137005
0.445663
0.239983
0.49689
0.0539202
0.491148
0.0851826
0.483107
0.145046
0.471894
0.251197
0.523609
0.0573236
0.517925
0.0908661
0.510038
0.152932
0.499512
0.261723
0.551802
0.060639
0.546167
0.0965009
0.538513
0.160587
0.528682
0.271554
0.581507
0.0638918
0.575999
0.102008
0.568553
0.168034
0.559428
0.280678
0.612841
0.0670262
0.607472
0.107378
0.600273
0.175233
0.591834
0.289117
0.645877
0.0700533
0.640698
0.112558
0.633789
0.182141
0.625995
0.296911
0.680747
0.0728915
0.675753
0.117552
0.669146
0.188748
0.662045
0.304011
0.717514
0.0755612
0.712776
0.122291
0.706499
0.195025
0.700009
0.310501
0.756308
0.0780095
0.751855
0.126744
0.745907
0.200973
0.740034
0.316374
0.797233
0.080297
0.793117
0.13086
0.787522
0.206567
0.782232
0.321664
0.840425
0.0822932
0.836577
0.134708
0.831481
0.211664
0.826739
0.326406
0.886048
0.0839273
0.88265
0.138106
0.877799
0.216514
0.873597
0.330608
0.934315
0.0852982
0.931016
0.141404
0.926737
0.220794
0.923078
0.334267
0.98498
0.0863949
0.982316
0.144069
0.978347
0.224763
0.975286
0.337328
1.0387
0.0871848
1.03641
0.146364
1.03292
0.228249
1.0303
0.339945
1.09546
0.08767
1.09346
0.148368
1.09043
0.231273
1.08813
0.342246
1.1553
0.0878332
1.15383
0.149829
1.1513
0.233807
1.14941
0.344137
1.21871
0.0874301
1.21753
0.151008
1.21524
0.2361
1.21401
0.345363
1.28535
0.08709
1.28473
0.151624
1.28293
0.237899
1.28196
0.346336
1.35613
0.0861713
1.35566
0.152097
1.35447
0.239091
1.35389
0.346911
1.4308
0.0850661
1.43086
0.152031
1.42978
0.240171
1.42956
0.34713
1.50964
0.0836548
1.50997
0.151704
1.50948
0.240662
1.50962
0.346987
1.59316
0.0819722
1.59388
0.150987
1.59361
0.240931
1.59396
0.346639
1.67947
0.0228245
1.68131
0.0801292
1.68227
0.150029
1.6823
0.240903
1.6831
0.345833
1.77248
0.0198774
1.77457
0.0780352
1.77574
0.148857
1.7762
0.240442
1.77718
0.344854
1.87091
0.0167794
1.87312
0.0758259
1.87461
0.147362
1.87524
0.239812
1.87649
0.343602
1.97492
0.0136708
1.97734
0.0734041
1.97903
0.145674
1.97977
0.239068
1.98129
0.342078
2.08504
0.0104382
2.08753
0.0709127
2.08949
0.143712
2.09049
0.238066
2.092
0.340572
2.20142
0.00721336
2.20411
0.0682247
2.20608
0.141741
2.20716
0.236988
2.20903
0.3387
2.3246
0.00400943
2.32734
0.0654878
2.32929
0.139793
2.33059
0.235688
2.33251
0.336778
2.45486
0.000581611
2.45749
0.0628546
2.45968
0.137609
2.46089
0.234473
2.46287
0.334798
2.59248
-0.00270359
2.59526
0.0600769
2.5974
0.135464
2.59879
0.233083
2.60065
0.33294
2.73797
-0.00594176
2.74077
0.0572725
2.74285
0.133385
2.74426
0.231672
2.74627
0.330929
2.89191
-0.00917107
2.89457
0.0546119
2.89684
0.131118
2.89802
0.23049
2.90002
0.328931
3.05465
-0.0124947
3.05722
0.0520403
3.05928
0.12906
3.06059
0.229187
3.06256
0.326958
3.22651
-0.0155588
3.22908
0.0494739
3.23119
0.12695
3.23226
0.228118
3.23405
0.325173
3.40815
-0.0186249
3.41085
0.0467696
3.41263
0.125166
3.4137
0.227052
3.41543
0.323444
3.59723
-0.0817451
3.6003
-0.0216916
3.60266
0.0444069
3.60448
0.123345
3.60531
0.226229
3.60686
0.321889
3.80006
-0.085515
3.80305
-0.0246833
3.80541
0.0420458
3.80721
0.12155
3.80777
0.225663
3.80925
0.320411
4.01446
-0.0893495
4.01748
-0.027709
4.01968
0.0398531
4.02125
0.119973
4.02172
0.225197
4.02301
0.31912
4.24081
-0.0930236
4.24377
-0.0306679
4.24602
0.037594
4.24732
0.118672
4.24759
0.224935
4.24855
0.318155
4.47999
-0.0969332
4.48281
-0.0334904
4.48477
0.0356317
4.48606
0.117385
4.48611
0.224883
4.48701
0.317256
4.7323
-0.100753
4.7351
-0.0362867
4.73719
0.033543
4.73821
0.116365
4.73796
0.225129
4.73856
0.316653
4.99885
-0.104738
5.00168
-0.0391217
5.00351
0.0317189
5.00445
0.115426
5.00394
0.225631
5.00425
0.316351
5.28021
-0.108684
5.28296
-0.0418734
5.28473
0.0299551
5.28544
0.11471
5.28469
0.226389
5.28484
0.316197
5.57715
-0.112623
5.57987
-0.0445925
5.58144
0.0283896
5.58212
0.114026
5.58102
0.227485
5.58092
0.316302
5.88647
-0.186109
5.89058
-0.116729
5.89327
-0.0472832
5.89494
0.0267195
5.89525
0.113721
5.89397
0.228758
5.89348
0.316792
6.21729
-0.192112
6.22132
-0.120761
6.22405
-0.0500119
6.22561
0.0251621
6.22581
0.113521
6.22414
0.230427
6.22345
0.317475
6.56612
-0.198269
6.57037
-0.125017
6.57316
-0.0527985
6.5744
0.0239201
6.57453
0.11339
6.57255
0.232409
6.57164
0.31839
6.9343
-0.204745
6.93883
-0.129548
6.9416
-0.0555666
6.9428
0.0227199
6.94279
0.113402
6.93959
0.235602
6.9388
0.319186
7.32243
-0.212228
7.32651
-0.133625
7.32878
-0.0578428
7.32985
0.0216536
7.33036
0.112888
7.32833
0.237637
7.32588
0.321633
7.73046
-0.217958
7.73528
-0.138441
7.73824
-0.0608046
7.73999
0.0199076
7.73868
0.114195
7.73617
0.240147
7.73503
0.322776
5.66324
-0.245982
5.69462
-0.169827
5.73095
-0.0971377
5.77022
-0.0193612
5.81689
0.0675311
5.8752
0.181839
5.92672
0.271253
6.23297
-0.277802
6.2681
-0.204959
6.30561
-0.13465
6.34992
-0.0636655
6.40171
0.0157363
6.46543
0.118118
6.5231
0.213582
6.85853
-0.312253
6.89754
-0.243965
6.94015
-0.177267
6.98962
-0.113134
7.04542
-0.0400595
7.11596
0.0475711
7.17731
0.152234
7.54893
-0.349466
7.59063
-0.285664
7.63724
-0.223873
7.69071
-0.166602
7.75316
-0.102512
7.82947
-0.0287373
7.89965
0.0820475
8.26547
-0.4576
8.30815
-0.392141
8.35271
-0.330228
8.40595
-0.277107
8.46354
-0.224193
8.53285
-0.171825
8.61758
-0.113461
8.69295
0.00667762
9.09683
-0.49795
9.14255
-0.437862
9.19391
-0.381589
9.24882
-0.332023
9.31456
-0.289928
9.38955
-0.246819
9.48171
-0.205622
9.56621
-0.0778193
10.0108
-0.542848
10.0597
-0.486771
10.1154
-0.437317
10.1785
-0.395119
10.2486
-0.360046
10.3307
-0.328893
10.4341
-0.309042
10.5251
-0.168842
11.0154
-0.592439
11.0701
-0.541545
11.1317
-0.498845
11.1993
-0.462703
11.2765
-0.437284
11.3672
-0.419602
11.48
-0.421832
11.5808
-0.26963
12.1164
-0.646611
12.1769
-0.602071
12.2428
-0.564758
12.3173
-0.537188
12.4028
-0.522713
12.5016
-0.518471
12.6234
-0.54361
12.7321
-0.378308
13.3267
-0.704723
13.3923
-0.667612
13.4657
-0.638131
13.5475
-0.619057
13.6405
-0.615739
13.7504
-0.628308
13.8889
-0.682131
14.0118
-0.501241
14.6506
-0.768855
14.7223
-0.739268
14.8018
-0.717652
14.8911
-0.708354
14.9936
-0.718296
15.1115
-0.746159
15.2532
-0.823828
15.3793
-0.627373
16.1468
-0.841478
16.2277
-0.820135
16.3186
-0.80855
16.4194
-0.809111
16.5336
-0.832587
16.6715
-0.884029
16.8497
-1.00199
17.0084
-0.786073
17.778
17.8662
17.9633
18.0721
18.1951
18.3325
18.4902
18.6387
-0.178618
0.177391
-0.191113
0.207856
-0.203849
0.227594
-0.21556
0.244237
-0.226544
0.259575
-0.236898
0.274494
-0.246703
0.289886
-0.255912
0.306207
-0.264507
0.323514
-0.272472
0.341806
-0.279837
0.361215
-0.286577
0.381724
-0.292715
0.403429
-0.298267
0.426383
-0.303258
0.450654
-0.307704
0.476341
-0.311674
0.503482
-0.31517
0.532179
-0.31825
0.562509
-0.320959
0.594543
-0.323344
0.628381
-0.325454
0.664155
-0.327338
0.701893
-0.329046
0.741742
-0.330621
0.783807
-0.332106
0.828224
-0.333542
0.875032
-0.334964
0.9245
-0.336405
0.976727
-0.337891
1.03179
-0.339448
1.08969
-0.341083
1.15104
-0.342851
1.21578
-0.34473
1.28384
-0.346742
1.3559
-0.348896
1.43172
-0.351198
1.51193
-0.35365
1.59641
-0.356253
1.68571
-0.359004
1.77993
-0.361899
1.87939
-0.364928
1.98432
-0.368083
2.09515
-0.371338
2.21229
-0.374704
2.33587
-0.378167
2.46633
-0.381683
2.60417
-0.385249
2.74984
-0.388844
2.90361
-0.392453
3.06617
-0.396056
3.23765
-0.399636
3.41901
-0.403176
3.6104
-0.40666
3.81274
-0.410074
4.02642
-0.413403
4.25188
-0.416637
4.49024
-0.419766
4.74169
-0.422786
5.00727
-0.425691
5.28775
-0.428462
5.58369
-0.431141
5.89616
-0.433678
6.22599
-0.436085
6.57404
-0.438359
6.94107
-0.440502
7.32802
-0.442516
7.73704
-0.443902
5.9281
-0.445294
6.5245
-0.446669
7.17869
-0.448069
7.90105
-0.449438
8.69431
-0.450767
9.56754
-0.452046
10.5264
-0.45308
11.5818
-0.45419
12.7332
-0.454313
14.012
-0.457123
15.3821
-0.455313
17.0066
18.648
-0.192317
0.191167
-0.200196
0.215734
-0.206573
0.233972
-0.211533
0.249196
-0.215791
0.263833
-0.220047
0.27875
-0.224619
0.294458
-0.229508
0.311096
-0.234675
0.328681
-0.240088
0.34722
-0.245683
0.36681
-0.251446
0.387487
-0.257324
0.409307
-0.263274
0.432333
-0.269251
0.456631
-0.275218
0.482308
-0.281104
0.509368
-0.286895
0.53797
-0.292548
0.568161
-0.298029
0.600024
-0.303314
0.633665
-0.308381
0.669223
-0.31322
0.706732
-0.317826
0.746347
-0.322199
0.78818
-0.326348
0.832374
-0.330288
0.878972
-0.334037
0.928249
-0.337619
0.980308
-0.341057
1.03523
-0.34438
1.09301
-0.347626
1.15429
-0.350788
1.21894
-0.353925
1.28697
-0.35705
1.35903
-0.360184
1.43485
-0.363346
1.51509
-0.366551
1.59962
-0.369812
1.68897
-0.373137
1.78326
-0.376532
1.88278
-0.38
1.98779
-0.383541
2.09869
-0.387164
2.21591
-0.390837
2.33955
-0.394553
2.47005
-0.398325
2.60794
-0.402131
2.75364
-0.405956
2.90744
-0.409786
3.07
-0.413606
3.24147
-0.417402
3.4228
-0.421157
3.61416
-0.424857
3.81644
-0.428488
4.03005
-0.432036
4.25543
-0.435504
4.49371
-0.438854
4.74504
-0.442078
5.01049
-0.445202
5.29087
-0.44822
5.58671
-0.451083
5.89902
-0.453829
6.22874
-0.456456
6.57667
-0.458914
6.94353
-0.461249
7.33036
-0.46345
7.73924
-0.464983
5.92964
-0.466495
6.52601
-0.46804
7.18023
-0.469552
7.90257
-0.471065
8.69583
-0.47254
9.56901
-0.473964
10.5278
-0.475129
11.583
-0.47639
12.7345
-0.47664
14.0122
-0.479718
15.3852
-0.478436
17.0053
18.6575
-0.221552
0.203293
-0.22945
0.223631
-0.235572
0.240093
-0.240584
0.254208
-0.245107
0.268356
-0.249517
0.28316
-0.253894
0.298834
-0.258227
0.315429
-0.262488
0.332943
-0.266706
0.351437
-0.270889
0.370993
-0.275032
0.39163
-0.279154
0.41343
-0.283259
0.436437
-0.287374
0.460746
-0.2915
0.486435
-0.295656
0.513523
-0.299817
0.542132
-0.304014
0.572359
-0.308238
0.604248
-0.312495
0.637922
-0.316749
0.673477
-0.32102
0.711003
-0.325298
0.750625
-0.329551
0.792434
-0.333768
0.83659
-0.337958
0.883162
-0.342103
0.932394
-0.346195
0.984401
-0.350232
1.03926
-0.35421
1.09699
-0.358134
1.15822
-0.362009
1.22282
-0.365853
1.29082
-0.369653
1.36283
-0.373432
1.43863
-0.3772
1.51886
-0.380968
1.60339
-0.384735
1.69273
-0.388546
1.78707
-0.392361
1.8866
-0.39622
1.99165
-0.400127
2.1026
-0.404047
2.21983
-0.408014
2.34351
-0.412012
2.47405
-0.416049
2.61198
-0.420091
2.75768
-0.424141
2.91149
-0.428175
3.07403
-0.432208
3.2455
-0.436227
3.42682
-0.440179
3.61811
-0.444089
3.82035
-0.447945
4.03391
-0.451691
4.25918
-0.455358
4.49738
-0.458923
4.74861
-0.462379
5.01395
-0.465719
5.29421
-0.468938
5.58993
-0.472029
5.90212
-0.474987
6.2317
-0.477806
6.57949
-0.480497
6.94622
-0.483029
7.33289
-0.485408
7.74162
-0.487062
5.93129
-0.488745
6.52769
-0.490405
7.18189
-0.492096
7.90426
-0.493747
8.69748
-0.495389
9.57066
-0.496974
10.5294
-0.498264
11.5843
-0.499709
12.7359
-0.500044
14.0126
-0.50349
15.3886
-0.502548
17.0043
18.6673
-0.250304
0.211585
-0.255674
0.229001
-0.259426
0.243845
-0.262671
0.257453
-0.265923
0.271608
-0.269326
0.286564
-0.272869
0.302377
-0.276524
0.319084
-0.280273
0.336692
-0.284104
0.355268
-0.288005
0.374894
-0.291961
0.395586
-0.29596
0.417429
-0.29999
0.440467
-0.304049
0.464805
-0.3081
0.490486
-0.312162
0.517585
-0.31622
0.54619
-0.320273
0.576411
-0.324316
0.608292
-0.328351
0.641957
-0.332389
0.677515
-0.336403
0.715017
-0.340426
0.754648
-0.34445
0.796458
-0.348479
0.840619
-0.352514
0.887198
-0.356557
0.936437
-0.360609
0.988452
-0.364668
1.04332
-0.368732
1.10105
-0.372802
1.16229
-0.376877
1.22689
-0.380954
1.29489
-0.385034
1.36691
-0.389117
1.44271
-0.393207
1.52294
-0.397303
1.60748
-0.401423
1.69685
-0.405532
1.79118
-0.40967
1.89073
-0.413827
1.99581
-0.418004
2.10678
-0.422202
2.22403
-0.426421
2.34773
-0.430657
2.47828
-0.434906
2.61623
-0.439164
2.76194
-0.443423
2.91575
-0.447674
3.07828
-0.451907
3.24973
-0.456112
3.43103
-0.460277
3.62227
-0.464388
3.82446
-0.468433
4.03796
-0.472413
4.26316
-0.476274
4.50124
-0.48005
4.75238
-0.483733
5.01763
-0.487288
5.29776
-0.490707
5.59335
-0.494014
5.90542
-0.497185
6.23487
-0.500215
6.58252
-0.503098
6.94911
-0.505835
7.33563
-0.508429
7.74422
-0.510226
5.93309
-0.512042
6.52951
-0.51387
7.18372
-0.515703
7.90609
-0.517532
8.69931
-0.519324
9.57245
-0.521073
10.5312
-0.522519
11.5857
-0.524146
12.7375
-0.524654
14.0131
-0.528359
15.3923
-0.527974
17.004
18.6772
-0.286027
0.217461
-0.289528
0.232502
-0.291704
0.246021
-0.2937
0.259449
-0.295809
0.273717
-0.298059
0.288814
-0.300406
0.304724
-0.302873
0.321551
-0.305455
0.339274
-0.308156
0.357969
-0.310979
0.377717
-0.313924
0.398532
-0.316992
0.420498
-0.320191
0.443666
-0.323489
0.468102
-0.326909
0.493906
-0.330435
0.521111
-0.334059
0.549815
-0.337774
0.580125
-0.341568
0.612086
-0.345432
0.645822
-0.349356
0.681439
-0.35333
0.718991
-0.357346
0.758664
-0.361395
0.800508
-0.365472
0.844696
-0.369571
0.891297
-0.373689
0.940555
-0.377824
0.992587
-0.381974
1.04747
-0.386139
1.10522
-0.390318
1.16646
-0.394513
1.23108
-0.398724
1.2991
-0.402951
1.37114
-0.407196
1.44696
-0.411458
1.52721
-0.415738
1.61176
-0.420038
1.70115
-0.424357
1.7955
-0.428695
1.89507
-0.433065
2.00018
-0.437429
2.11114
-0.441824
2.22842
-0.446235
2.35214
-0.45066
2.48271
-0.455094
2.62066
-0.459533
2.76638
-0.463971
2.92018
-0.468401
3.08271
-0.472827
3.25416
-0.477198
3.4354
-0.481545
3.62662
-0.485843
3.82876
-0.490077
4.04219
-0.494237
4.26731
-0.49831
4.50531
-0.502289
4.75636
-0.506164
5.0215
-0.509928
5.30153
-0.513575
5.59699
-0.51711
5.90896
-0.52048
6.23824
-0.523722
6.58576
-0.526817
6.9522
-0.529763
7.33857
-0.532563
7.74702
-0.534507
5.93503
-0.536478
6.53148
-0.538467
7.18571
-0.540467
7.90809
-0.542467
8.70131
-0.544436
9.57442
-0.546358
10.5331
-0.547983
11.5873
-0.549764
12.7393
-0.550538
14.0138
-0.554405
15.3962
-0.554727
-0.323173
0.221327
-0.325289
0.234618
-0.326783
0.247515
-0.328369
0.261035
-0.330067
0.275415
-0.331844
0.290591
-0.333715
0.306595
-0.335646
0.323482
-0.337677
0.341305
-0.339783
0.360075
-0.341966
0.379901
-0.34425
0.400816
-0.346627
0.422875
-0.349102
0.446141
-0.351677
0.470677
-0.354355
0.496584
-0.357139
0.523896
-0.360042
0.552718
-0.363045
0.583128
-0.366158
0.615199
-0.369371
0.649035
-0.372702
0.68477
-0.376149
0.722438
-0.379677
0.762191
-0.383311
0.804142
-0.387045
0.848431
-0.390852
0.895104
-0.394735
0.944438
-0.398687
0.996539
-0.402702
1.05149
-0.406771
1.10929
-0.410891
1.17058
-0.415056
1.23525
-0.419251
1.3033
-0.423495
1.37538
-0.427775
1.45124
-0.43209
1.53152
-0.436436
1.61611
-0.440814
1.70553
-0.445222
1.79991
-0.449672
1.89952
-0.454124
2.00463
-0.458614
2.11563
-0.463141
2.23295
-0.467676
2.35668
-0.472229
2.48726
-0.476782
2.62521
-0.481356
2.77096
-0.485933
2.92476
-0.490519
3.0873
-0.495066
3.25871
-0.499604
3.43994
-0.504123
3.63114
-0.508585
3.83322
-0.512976
4.04658
-0.517313
4.27165
-0.52157
4.50957
-0.525738
4.76053
-0.529809
5.02558
-0.533775
5.30549
-0.537627
5.60085
-0.541356
5.91269
-0.544967
6.24185
-0.548406
6.5892
-0.551713
6.95551
-0.55487
7.34173
-0.557895
7.75004
-0.559977
5.93711
-0.562107
6.53361
-0.564263
7.18786
-0.566438
7.91027
-0.568635
8.70351
-0.570774
9.57656
-0.572879
10.5352
-0.574696
11.5892
-0.57666
12.7413
-0.577702
-0.360459
0.223417
-0.361659
0.235817
-0.362813
0.24867
-0.36412
0.262342
-0.365501
0.276797
-0.366951
0.29204
-0.368469
0.308113
-0.370057
0.32507
-0.37172
0.342968
-0.373461
0.361815
-0.37528
0.38172
-0.377181
0.402716
-0.379165
0.42486
-0.381236
0.448211
-0.383394
0.472835
-0.385641
0.498832
-0.387981
0.526236
-0.390414
0.555151
-0.392943
0.585657
-0.39557
0.617826
-0.398295
0.65176
-0.401123
0.687598
-0.404053
0.725368
-0.407086
0.765225
-0.410225
0.80728
-0.413468
0.851674
-0.416816
0.898451
-0.420266
0.947889
-0.423818
1.00009
-0.427467
1.05514
-0.43121
1.11303
-0.435043
1.17442
-0.438961
1.23917
-0.442958
1.3073
-0.447031
1.37945
-0.451173
1.45538
-0.455381
1.53573
-0.459649
1.62038
-0.463973
1.70986
-0.46835
1.80428
-0.472776
1.90395
-0.477247
2.0091
-0.48176
2.12015
-0.48631
2.2375
-0.490894
2.36126
-0.495507
2.49187
-0.500144
2.62985
-0.5048
2.77561
-0.509468
2.92943
-0.514141
3.09197
-0.51881
3.26338
-0.523467
3.44459
-0.5281
3.63577
-0.532699
3.83782
-0.53725
4.05113
-0.541742
4.27614
-0.546164
4.51399
-0.550506
4.76487
-0.554759
5.02983
-0.558914
5.30965
-0.562977
5.60491
-0.566892
5.9166
-0.570693
6.24565
-0.574356
6.59286
-0.577874
6.95903
-0.581244
7.3451
-0.584467
7.75326
-0.586719
5.93937
-0.589013
6.5359
-0.591342
7.19019
-0.593698
7.91262
-0.596068
8.70588
-0.59842
9.57891
-0.600718
10.5375
-0.602737
-0.398455
0.22442
-0.399277
0.236639
-0.400246
0.249639
-0.401299
0.263394
-0.402398
0.277897
-0.403552
0.293194
-0.404763
0.309324
-0.406045
0.326352
-0.407371
0.344294
-0.408775
0.363218
-0.410259
0.383204
-0.411807
0.404265
-0.413433
0.426486
-0.415129
0.449907
-0.416919
0.474625
-0.418807
0.500719
-0.420773
0.528202
-0.422823
0.5572
-0.424977
0.587812
-0.427228
0.620077
-0.429589
0.654122
-0.43203
0.690039
-0.434585
0.727922
-0.437253
0.767894
-0.440016
0.810043
-0.442874
0.854532
-0.445848
0.901426
-0.44893
0.95097
-0.452119
1.00328
-0.455414
1.05843
-0.458815
1.11643
-0.462322
1.17792
-0.465932
1.24278
-0.469654
1.31102
-0.473463
1.38326
-0.477368
1.45929
-0.481364
1.53973
-0.485447
1.62446
-0.4896
1.71401
-0.493856
1.80854
-0.498161
1.90825
-0.502546
2.01349
-0.507007
2.12461
-0.5115
2.24199
-0.516058
2.36582
-0.520663
2.49648
-0.525322
2.63451
-0.530001
2.78029
-0.534708
2.93414
-0.539421
3.09668
-0.544156
3.26811
-0.548907
3.44934
-0.553619
3.64048
-0.558322
3.84252
-0.563005
4.05582
-0.567613
4.28075
-0.57219
4.51857
-0.576685
4.76937
-0.581087
5.03423
-0.585417
5.31398
-0.589648
5.60914
-0.593769
5.92072
-0.597768
6.24965
-0.601649
6.59674
-0.605374
6.96275
-0.608956
7.34868
-0.612377
7.75669
-0.614801
5.94179
-0.617263
6.53836
-0.619769
7.1927
-0.622313
7.91517
-0.624866
-0.627438
-0.437403
0.225032
-0.438146
0.237382
-0.438957
0.25045
-0.439814
0.264251
-0.440709
0.278792
-0.44166
0.294145
-0.442637
0.310301
-0.443676
0.327391
-0.444767
0.345386
-0.445915
0.364366
-0.447121
0.384411
-0.448391
0.405534
-0.449726
0.427821
-0.451142
0.451322
-0.452619
0.476103
-0.454164
0.502263
-0.455799
0.529838
-0.457519
0.55892
-0.459328
0.58962
-0.461228
0.621977
-0.463224
0.656118
-0.465329
0.692144
-0.467515
0.730108
-0.469816
0.770195
-0.472225
0.812451
-0.474742
0.857049
-0.477371
0.904055
-0.480112
0.953712
-0.482967
1.00613
-0.485935
1.0614
-0.489028
1.11952
-0.492213
1.18111
-0.495522
1.24609
-0.498943
1.31444
-0.502476
1.3868
-0.506118
1.46293
-0.509867
1.54347
-0.51372
1.62832
-0.517687
1.71798
-0.521727
1.81258
-0.525885
1.91241
-0.53012
2.01772
-0.534425
2.12891
-0.538822
2.24639
-0.543292
2.37029
-0.547827
2.50101
-0.552423
2.63911
-0.557071
2.78494
-0.561765
2.93883
-0.566495
3.10141
-0.571266
3.27288
-0.576027
3.45411
-0.580821
3.64528
-0.585595
3.84729
-0.590335
4.06056
-0.595071
4.28549
-0.599735
4.52324
-0.604359
4.77399
-0.608934
5.0388
-0.613419
5.31846
-0.617803
5.61352
-0.622117
5.92504
-0.626288
6.25382
-0.630349
6.6008
-0.634276
6.96668
-0.638066
7.35247
-0.64173
-0.644282
-0.646914
-0.649602
-0.477457
0.225602
-0.478109
0.238033
-0.478803
0.251144
-0.479513
0.264962
-0.480259
0.279538
-0.481032
0.294918
-0.481866
0.311135
-0.482722
0.328246
-0.483644
0.346308
-0.484603
0.365325
-0.485602
0.38541
-0.486665
0.406597
-0.487784
0.428941
-0.488964
0.452502
-0.490206
0.477346
-0.491516
0.503573
-0.492896
0.531218
-0.494362
0.560386
-0.495894
0.591153
-0.497509
0.623592
-0.499199
0.657807
-0.50099
0.693935
-0.502886
0.732004
-0.504857
0.772167
-0.506942
0.814536
-0.509143
0.859251
-0.511441
0.906353
-0.513851
0.956122
-0.516376
1.00866
-0.519017
1.06404
-0.521764
1.12227
-0.524655
1.184
-0.527654
1.24909
-0.530763
1.31755
-0.534004
1.39004
-0.537366
1.46629
-0.540846
1.54695
-0.544444
1.63191
-0.548158
1.72169
-0.551984
1.81641
-0.555919
1.91635
-0.559961
2.02176
-0.564103
2.13305
-0.568356
2.25064
-0.572687
2.37462
-0.577104
2.50543
-0.581587
2.64359
-0.586156
2.78951
-0.590789
2.94346
-0.595491
3.10612
-0.600213
3.27761
-0.604984
3.45888
-0.60978
3.65007
-0.614586
3.8521
-0.619391
4.06536
-0.624182
4.29028
-0.628946
4.528
-0.633673
4.77872
-0.638353
5.04348
-0.642972
5.32308
-0.647535
5.61809
-0.651981
-0.656355
-0.660585
-0.664706
-0.518714
0.226124
-0.519265
0.238584
-0.519824
0.251703
-0.520421
0.265559
-0.521049
0.280166
-0.52172
0.295589
-0.522403
0.311818
-0.523144
0.328988
-0.523902
0.347065
-0.524712
0.366134
-0.525576
0.386274
-0.526476
0.407496
-0.527424
0.429889
-0.528414
0.453492
-0.529482
0.478414
-0.530597
0.504688
-0.531774
0.532396
-0.533007
0.561618
-0.53432
0.592466
-0.535707
0.624979
-0.537183
0.659283
-0.538729
0.695481
-0.540349
0.733624
-0.542082
0.7739
-0.543898
0.816351
-0.545799
0.861152
-0.547814
0.908368
-0.549934
0.958242
-0.552163
1.01089
-0.554506
1.06638
-0.556964
1.12473
-0.559541
1.18658
-0.562239
1.25179
-0.565073
1.32038
-0.56802
1.39298
-0.571093
1.46936
-0.574292
1.55015
-0.577617
1.63524
-0.581068
1.72514
-0.584644
1.81998
-0.588329
1.92003
-0.592146
2.02558
-0.596093
2.137
-0.600127
2.25468
-0.604282
2.37878
-0.608541
2.50969
-0.61291
2.64796
-0.617357
2.79396
-0.621888
2.94799
-0.626482
3.11071
-0.631154
3.28228
-0.635897
3.46362
-0.640655
3.65483
-0.645459
3.8569
-0.650294
-0.655121
-0.659941
-0.664742
-0.669501
-0.674246
-0.561236
0.22657
-0.561698
0.239046
-0.562192
0.252197
-0.562699
0.266067
-0.563233
0.280699
-0.563783
0.296139
-0.564384
0.31242
-0.564994
0.329597
-0.56566
0.347731
-0.56635
0.366824
-0.567065
0.38699
-0.567833
0.408264
-0.568643
0.430699
-0.56951
0.454359
-0.570403
0.479307
-0.571358
0.505644
-0.572369
0.533407
-0.573451
0.562699
-0.574582
0.593598
-0.57578
0.626177
-0.577035
0.660539
-0.578377
0.696823
-0.579807
0.735055
-0.581297
0.775389
-0.582884
0.817938
-0.584574
0.862842
-0.586346
0.91014
-0.588218
0.960113
-0.590192
1.01286
-0.592274
1.06847
-0.594466
1.12692
-0.596761
1.18887
-0.599198
1.25422
-0.601731
1.32292
-0.604401
1.39565
-0.607198
1.47216
-0.610123
1.55308
-0.613177
1.63829
-0.616362
1.72833
-0.619679
1.8233
-0.623138
1.92349
-0.626715
2.02916
-0.630407
-0.634236
-0.638202
-0.642272
-0.646444
-0.650737
-0.655132
-0.659634
-0.664209
-0.668846
-0.673574
-0.605169
-0.605552
-0.605967
-0.606403
-0.606861
-0.607343
-0.60785
-0.608395
-0.608946
-0.609539
-0.610165
-0.610838
-0.611536
-0.612262
-0.613043
-0.613881
-0.614755
-0.61567
-0.616652
-0.617692
-0.618807
-0.619964
-0.621204
-0.622517
-0.623922
-0.625385
-0.626948
-0.628602
-0.630353
-0.632204
-0.634159
-0.636236
-0.638402
-0.640697
-0.643113
-0.645652
-0.648319
-0.651128
-0.654044
-0.657106
-0.660303
)
;

boundaryField
{
    inlet
    {
        type            calculated;
        value           nonuniform List<scalar> 
13
(
-0.919726
-0.908379
-0.905694
-0.917893
-0.955555
-1.02148
-1.15967
-0.934597
-0.464614
-0.48789
-0.512341
-0.537864
-0.564578
)
;
    }
    outlet
    {
        type            calculated;
        value           nonuniform List<scalar> 0();
    }
    walls
    {
        type            calculated;
        value           uniform 0;
    }
    frontAndBack
    {
        type            empty;
        value           nonuniform List<scalar> 0();
    }
    procBoundary2to1
    {
        type            processor;
        value           nonuniform List<scalar> 
84
(
-0.206425
-0.232753
-0.251726
-0.26835
-0.282053
-0.297468
-0.313208
-0.330027
-0.347642
-0.366231
-0.385789
-0.406383
-0.428073
-0.450909
-0.474975
-0.500317
-0.527012
-0.555117
-0.58476
-0.615976
-0.648905
-0.683585
-0.720184
-0.758756
-0.799521
-0.842421
-0.887682
-0.935686
-0.986077
-1.03949
-1.09594
-1.15546
-1.21831
-1.28501
-1.35521
-1.42969
-1.50823
-1.59148
-0.0257318
-1.67656
-1.76953
-1.86781
-1.97181
-2.0818
-2.1982
-2.3214
-2.45143
-2.5892
-2.73473
-2.88868
-3.05133
-3.22345
-3.40508
0.0778922
-3.59338
-3.79629
-4.01062
-4.23713
-4.47608
-4.72848
-4.99486
-5.27627
-5.57321
0.180472
-5.88084
-6.21128
-6.55996
-6.92782
-7.31495
-7.72473
-5.63521
-6.20115
-6.82408
-7.51172
0.42039
-8.22826
-9.05648
-9.96586
-10.9658
-12.0622
-13.2686
-14.5865
-16.0742
-17.6997
)
;
    }
    procBoundary2to3
    {
        type            processor;
        value           nonuniform List<scalar> 
88
(
17.0043
18.687
14.0149
-0.581767
15.4003
11.5912
-0.604871
12.7434
8.70843
9.58148
-0.629939
10.54
7.76035
5.94434
6.54099
7.19539
-0.652339
7.9179
5.92948
6.25819
6.60503
6.9708
-0.668698
7.35646
4.0702
4.2951
4.53282
4.78352
5.04824
5.32783
-0.678907
5.62275
2.14069
2.25851
2.38274
2.51376
2.65213
2.79825
2.95239
3.11521
3.28685
3.46826
3.65956
-0.678339
3.86167
0.226959
0.239429
0.252611
0.266503
0.281157
0.29662
0.312927
0.330143
0.348282
0.367417
0.387615
0.408937
0.431397
0.455085
0.480087
0.506482
0.534282
0.563614
0.594579
0.627217
0.661654
0.69798
0.736295
0.776703
0.819342
0.864305
0.911703
0.961767
1.01461
1.07032
1.12888
1.19095
1.25639
1.32521
1.39807
1.4747
1.55575
1.6411
1.73124
1.82636
1.92669
-0.663635
2.03249
)
;
    }
    procBoundary2to6
    {
        type            processor;
        value           nonuniform List<scalar> 
13
(
0.162408
0.178543
0.209428
0.242013
0.280151
0.319307
0.358369
0.397453
0.436791
0.476888
0.518192
0.56079
0.604781
)
;
    }
}


// ************************************************************************* //
