/*--------------------------------*- C++ -*----------------------------------*\
| =========                 |                                                 |
| \\      /  F ield         | OpenFOAM: The Open Source CFD Toolbox           |
|  \\    /   O peration     | Version:  2306                                  |
|   \\  /    A nd           | Website:  www.openfoam.com                      |
|    \\/     M anipulation  |                                                 |
\*---------------------------------------------------------------------------*/
FoamFile
{
    version     2.0;
    format      ascii;
    arch        "LSB;label=32;scalar=64";
    class       volScalarField;
    location    "275";
    object      turbulenceProperties:L;
}
// * * * * * * * * * * * * * * * * * * * * * * * * * * * * * * * * * * * * * //

dimensions      [0 1 0 0 0 0 0];

internalField   nonuniform List<scalar> 
1340
(
0.0560832
0.0562073
0.0564337
0.0565283
0.212395
0.2074
0.198322
0.175218
0.258864
0.26174
0.273195
0.246066
0.234493
0.245977
0.257566
0.242425
0.0780537
0.113413
0.110072
0.192314
0.0485006
0.064814
0.0603372
0.0993838
0.180819
0.328412
0
0.0512513
0.0478378
0.0551331
0.284053
0
0.0436991
0.0421175
0.0403312
0.411301
0.0475394
0.0478042
0.0373348
0.0591907
0.0472658
0.0473244
0.0398906
0.0353642
0.0490703
0.048789
0.0430361
0.0339886
0.0500312
0.0496793
0.0448451
0.0355205
0.0514854
0.0512569
0.0466142
0.0374495
0.0529082
0.0528129
0.0484672
0.0394321
0.054573
0.0546247
0.0505442
0.0415315
0.0563979
0.0566143
0.0528026
0.0438092
0.0584547
0.0588615
0.055276
0.0462943
0.060761
0.0613908
0.0579984
0.0490122
0.0633636
0.0642597
0.0610026
0.0519744
0.0663121
0.0675308
0.0643465
0.0552151
0.069672
0.0712821
0.0680868
0.058761
0.0735227
0.0756243
0.0722991
0.0626385
0.0779649
0.080694
0.077087
0.0668919
0.083133
0.0866911
0.0825619
0.0715483
0.0891994
0.0938939
0.0888805
0.0766512
0.0963923
0.102717
0.0962295
0.0822262
0.105013
0.113821
0.104845
0.0882952
0.11545
0.128319
0.114986
0.0948472
0.128147
0.148299
0.126878
0.101819
0.143429
0.178381
0.140508
0.109073
0.160809
0.231564
0.155142
0.116361
0.177344
0.372762
0.16855
0.123325
0.186843
0.529993
0.177123
0.129542
0.185562
0.283958
0.178685
0.13464
0.17743
0.222251
0.174816
0.138421
0.167919
0.192594
0.168715
0.140932
0.159595
0.175163
0.162579
0.142421
0.136116
0.153042
0.163951
0.157332
0.143221
0.135093
0.148156
0.15644
0.15321
0.143657
0.134342
0.144688
0.15137
0.150177
0.143987
0.13399
0.142396
0.148037
0.148125
0.144396
0.134094
0.141089
0.146012
0.146929
0.145004
0.134671
0.140616
0.145023
0.146485
0.145885
0.135719
0.140866
0.144883
0.146711
0.147087
0.137225
0.141752
0.145463
0.147531
0.148631
0.139175
0.143211
0.146674
0.148897
0.15053
0.141554
0.145193
0.148449
0.150766
0.152794
0.144352
0.147663
0.15074
0.153108
0.155421
0.147561
0.1506
0.15352
0.155905
0.158423
0.151186
0.153991
0.156771
0.159148
0.161808
0.15524
0.157845
0.160496
0.162846
0.165597
0.157385
0.159747
0.162177
0.164709
0.167018
0.169819
0.162556
0.164743
0.167019
0.16944
0.171694
0.174513
0.168231
0.170265
0.172404
0.174719
0.176907
0.179723
0.174439
0.176338
0.178351
0.180565
0.18268
0.185476
0.181184
0.182961
0.184859
0.186976
0.189009
0.191777
0.18844
0.190105
0.191896
0.193921
0.195868
0.198601
0.196173
0.197737
0.199427
0.201364
0.203222
0.205912
0.204391
0.205863
0.207461
0.209311
0.211078
0.213715
0.213193
0.214583
0.216095
0.21786
0.219533
0.222098
0.221574
0.222786
0.224105
0.225538
0.227217
0.228788
0.231263
0.23226
0.233422
0.234678
0.236034
0.237625
0.239079
0.241451
0.244204
0.245329
0.246531
0.247813
0.249313
0.250634
0.252896
0.2575
0.258597
0.259748
0.260958
0.262365
0.263529
0.265684
0.272163
0.27324
0.274348
0.275487
0.276802
0.2778
0.279874
0.287857
0.288928
0.290001
0.291059
0.292258
0.293053
0.294978
0.303179
0.3043
0.305391
0.306424
0.307566
0.308198
0.309936
0.317457
0.318681
0.319849
0.320935
0.322115
0.322687
0.324371
0.332187
0.33356
0.334862
0.336055
0.337321
0.337888
0.339553
0.348529
0.350071
0.351534
0.352849
0.354218
0.3548
0.356471
0.365412
0.367485
0.369395
0.371147
0.372654
0.374093
0.374469
0.375344
0.387535
0.390503
0.393351
0.396035
0.398455
0.400773
0.402334
0.404904
0.42212
0.426194
0.429808
0.432881
0.435169
0.436588
0.434705
0.43039
0.490378
0.503043
0.515512
0.527307
0.538092
0.547675
0.555811
0.568612
0.548197
0.553231
0.554693
0.55215
0.544076
0.530393
0.501524
0.466477
0.519117
0.520479
0.522178
0.524596
0.526515
0.518917
0.478273
0.443583
0.316265
0.310535
0.305794
0.301603
0.296967
0.290494
0.276189
0.265776
0.230776
0.230419
0.230164
0.229993
0.229875
0.22949
0.22721
0.232754
0.166965
0.166937
0.166982
0.16707
0.167258
0.167354
0.16804
0.174461
0.142961
0.180572
0.22906
0.222579
0.157177
0.0565681
0.0299866
0
0.359897
0.0455889
0.0330577
0.0331151
0.0347583
0.0365555
0.0383823
0.0403155
0.0424099
0.0446814
0.0471395
0.0498043
0.0526893
0.0558112
0.0591864
0.0628288
0.0667545
0.0709704
0.0754792
0.080275
0.0853363
0.0906225
0.0960686
0.101583
0.107052
0.112341
0.117318
0.121871
0.125931
0.129482
0.132561
0.135246
0.137638
0.139846
0.141968
0.144096
0.146303
0.148648
0.151177
0.15393
0.156932
0.160217
0.163808
0.167742
0.17206
0.176808
0.182036
0.187777
0.194039
0.200803
0.208039
0.215754
0.22404
0.233097
0.243156
0.254441
0.267027
0.280996
0.2958
0.310472
0.324631
0.339556
0.356288
0.374511
0.404677
0.425627
0.574002
0.44671
0.465045
0.268194
0.247629
0.185142
0.21811
0.221965
0.253881
0.259718
0.162339
0.0887794
0
1.77301
0.193987
0.0479622
0.0432854
0.0439492
0.0453251
0.0466744
0.0480314
0.0494916
0.0510911
0.0528523
0.0547736
0.0568743
0.059163
0.0616551
0.0643635
0.0672864
0.0704368
0.0738185
0.0774252
0.0812468
0.0852714
0.0894711
0.0938114
0.0982465
0.102723
0.10718
0.111551
0.115783
0.119822
0.123638
0.127221
0.130577
0.133735
0.136739
0.139634
0.142478
0.145325
0.148224
0.151222
0.154361
0.157676
0.161209
0.164993
0.169071
0.173493
0.178313
0.183582
0.189335
0.195585
0.202311
0.209491
0.217143
0.225364
0.234353
0.244339
0.255528
0.267982
0.281792
0.296431
0.311005
0.325031
0.339758
0.356357
0.374381
0.404564
0.42441
0.576693
0.436178
0.497015
0.267699
0.248764
0.183057
0.27701
0.260352
0.258892
0.246274
0.079559
0.0424325
0
0.712167
0.0897118
0.0553841
0.0558642
0.0573486
0.0589736
0.0604368
0.0618829
0.0633902
0.0649599
0.0666071
0.0683452
0.0701553
0.0720635
0.0740734
0.0762072
0.0784563
0.0808374
0.0833702
0.0860539
0.0888884
0.0918824
0.0950259
0.0983096
0.101717
0.105225
0.108806
0.112426
0.116058
0.119665
0.123225
0.126717
0.130132
0.133468
0.13674
0.139962
0.143162
0.146372
0.14962
0.152946
0.156379
0.159954
0.16371
0.167681
0.171914
0.176461
0.181379
0.18672
0.19252
0.198793
0.205517
0.212678
0.2203
0.22849
0.237452
0.247409
0.258559
0.270947
0.284669
0.299224
0.313744
0.327635
0.342107
0.358523
0.376317
0.406287
0.425695
0.573011
0.431999
0.514382
0.268801
0.251297
0.18283
0.318856
0.292191
0.253306
0.138134
0.0727198
0
1.86044
0.219991
0.0736931
0.0665455
0.068848
0.0701517
0.0715211
0.0727567
0.0740696
0.0754789
0.0769509
0.0784991
0.0801222
0.0817917
0.0835344
0.085328
0.0871869
0.0891154
0.0911092
0.0931809
0.0953409
0.0975909
0.0999413
0.102396
0.104959
0.107634
0.110414
0.113296
0.116271
0.119325
0.122445
0.125618
0.128828
0.132068
0.135327
0.138605
0.141908
0.145241
0.148619
0.152058
0.155582
0.15921
0.16297
0.166892
0.171011
0.175372
0.180025
0.185026
0.19043
0.196271
0.202559
0.209278
0.216416
0.224003
0.232157
0.241083
0.251
0.262098
0.274406
0.288019
0.302448
0.316824
0.330492
0.344653
0.360805
0.378244
0.407761
0.426604
0.564694
0.42905
0.522792
0.270161
0.254562
0.183503
0.350019
0.312487
0.200763
0.15344
0
5.36063
0.59796
0.103043
0.0769685
0.0779397
0.0799618
0.0806375
0.0814077
0.082107
0.0829223
0.0838225
0.0848132
0.0859176
0.0871189
0.0884268
0.0898535
0.0913896
0.0930243
0.094779
0.0966374
0.0985839
0.100637
0.10278
0.105009
0.107325
0.109724
0.11221
0.114773
0.117422
0.120153
0.122957
0.125842
0.128799
0.131826
0.134923
0.138081
0.141303
0.144594
0.147952
0.151385
0.154904
0.158521
0.162251
0.166113
0.170132
0.174338
0.178775
0.18349
0.188536
0.193968
0.199816
0.206088
0.212772
0.219857
0.227383
0.235473
0.244331
0.254168
0.265165
0.27733
0.290762
0.304986
0.319135
0.332512
0.346327
0.362153
0.379168
0.408041
0.426058
0.553873
0.424471
0.529152
0.270102
0.256326
0.183589
0.375
0.320787
0.405316
0
0
1.07211
0.13798
0.0877827
0.0849111
0.0878643
0.0889109
0.0893104
0.0898664
0.090435
0.0911175
0.0918604
0.0927007
0.093635
0.0946429
0.0957463
0.096942
0.0982356
0.0996166
0.101107
0.102699
0.104386
0.106192
0.108099
0.110112
0.112233
0.114455
0.11678
0.119197
0.12171
0.124312
0.126995
0.129766
0.132612
0.135541
0.138549
0.141631
0.144797
0.14805
0.151385
0.154817
0.158348
0.16199
0.165753
0.169653
0.173711
0.177953
0.182422
0.187158
0.192215
0.197643
0.20347
0.209702
0.216326
0.223339
0.230785
0.238791
0.247559
0.257291
0.268152
0.280134
0.29334
0.307319
0.321202
0.334245
0.347684
0.363136
0.379679
0.407789
0.424801
0.542281
0.419103
0.536973
0.269503
0.392426
0.209033
0.0775658
0
1.61693
0.199291
0.1029
0.0961693
0.0988239
0.10073
0.100768
0.100878
0.101128
0.101435
0.101854
0.102335
0.102925
0.103615
0.104385
0.105255
0.106215
0.107274
0.108434
0.109686
0.111029
0.112475
0.114026
0.115664
0.117409
0.119255
0.121202
0.123257
0.125412
0.127671
0.130036
0.132501
0.135069
0.137732
0.140498
0.143361
0.146318
0.14938
0.15254
0.155804
0.159181
0.162669
0.166282
0.170025
0.173913
0.177964
0.182201
0.186663
0.191388
0.196428
0.201827
0.20761
0.213781
0.220328
0.227253
0.234605
0.242515
0.251178
0.260789
0.271494
0.283266
0.296221
0.309931
0.323514
0.336178
0.349205
0.36423
0.380244
0.407486
0.423335
0.530519
0.413863
0.443442
0.173166
0
2.72472
0.31873
0.118312
0.10885
0.111177
0.113645
0.113803
0.113379
0.113283
0.113278
0.113363
0.113554
0.113829
0.114211
0.114691
0.115259
0.115926
0.116684
0.117535
0.118489
0.11953
0.120656
0.121886
0.123209
0.124617
0.126126
0.127729
0.129427
0.131229
0.133128
0.13513
0.137239
0.139453
0.141778
0.144211
0.146759
0.14942
0.152195
0.155091
0.158104
0.161241
0.164508
0.167901
0.171434
0.17511
0.17894
0.182941
0.187132
0.191549
0.19623
0.201221
0.206561
0.212274
0.218361
0.224809
0.231627
0.238868
0.246663
0.255204
0.26467
0.275193
0.286724
0.299397
0.312803
0.326034
0.338271
0.350847
0.365386
0.380816
0.407057
0.421616
0.178545
0
6.07142
0.724192
0.131794
0.121304
0.123724
0.126408
0.126646
0.12581
0.125252
0.124927
0.124688
0.12457
0.124564
0.124669
0.12489
0.125211
0.125635
0.126164
0.126794
0.127517
0.128331
0.129247
0.130245
0.131331
0.13251
0.133775
0.135129
0.13657
0.138106
0.139736
0.141453
0.143275
0.145197
0.147218
0.149349
0.151589
0.153943
0.156416
0.15901
0.161729
0.16458
0.167565
0.17069
0.173955
0.177373
0.180943
0.184676
0.188588
0.192695
0.197032
0.201632
0.206539
0.211788
0.217399
0.223371
0.229696
0.236381
0.243486
0.251144
0.259535
0.268825
0.27913
0.290381
0.302728
0.315783
0.328605
0.34037
0.352459
0.366456
0
0.557089
9.50691
0.157707
0.132225
0.138042
0.140246
0.140416
0.13921
0.138148
0.137444
0.136867
0.136404
0.136085
0.135888
0.135804
0.13585
0.136013
0.136285
0.13667
0.137161
0.137754
0.138442
0.139232
0.14011
0.141074
0.142133
0.143276
0.144504
0.145815
0.147221
0.148714
0.150289
0.151969
0.15374
0.155609
0.157585
0.159665
0.161858
0.164169
0.166601
0.169161
0.171853
0.174684
0.17766
0.180783
0.184064
0.187505
0.191115
0.194907
0.1989
0.203123
0.207607
0.212397
0.21752
0.222995
0.228822
0.234992
0.241518
0.248462
0.255953
0.264163
0.273241
0.283286
0.294211
0.306189
0
1.4555
0.184194
0.145788
0.15228
0.156123
0.155203
0.153743
0.152205
0.151107
0.150202
0.149416
0.148782
0.148286
0.147934
0.147703
0.147604
0.147639
0.147783
0.148043
0.148409
0.148881
0.14945
0.150116
0.150868
0.151709
0.152642
0.153653
0.154749
0.155926
0.157192
0.158542
0.159974
0.161502
0.16312
0.164834
0.166651
0.16857
0.170602
0.172749
0.175016
0.177413
0.179942
0.182613
0.185432
0.188401
0.191531
0.194824
0.198289
0.201939
0.205788
0.209868
0.214207
0.218845
0.22381
0.229118
0.234768
0.240753
0.247091
0.253843
0.261136
1.64776
0.228668
0.160617
0.167833
0.172525
0.17106
0.168842
0.167024
0.165512
0.164297
0.163211
0.162273
0.161502
0.160872
0.160406
0.160067
0.159864
0.159804
0.159855
0.160026
0.160304
0.160691
0.161171
0.161745
0.162404
0.163147
0.163976
0.164878
0.165858
0.166916
0.168054
0.169269
0.170562
0.171946
0.173411
0.174969
0.176625
0.178377
0.180242
0.182218
0.184311
0.186534
0.188892
0.19139
0.194038
0.196839
0.199801
0.202928
0.206228
0.209712
0.213394
0.217302
0.221466
0.22592
0.221517
0.186746
0.181828
0.189977
0.187237
0.184531
0.182344
0.180568
0.179031
0.177691
0.176468
0.175432
0.17457
0.173851
0.173297
0.172879
0.172605
0.172469
0.172451
0.172552
0.172763
0.173075
0.173488
0.173987
0.174568
0.175236
0.175978
0.176791
0.177677
0.178634
0.179666
0.180763
0.181938
0.183191
0.184518
0.185935
0.187437
0.189034
0.190736
0.192542
0.194465
0.196511
)
;

boundaryField
{
    inlet
    {
        type            calculated;
        value           nonuniform List<scalar> 
13
(
0.0987875
0.098133
0.0975681
0.0970674
0.0965895
0.0961029
0.0954824
0.0953035
0.0957538
0.0960247
0.0963827
0.0966951
0.0969524
)
;
    }
    outlet
    {
        type            calculated;
        value           nonuniform List<scalar> 0();
    }
    walls
    {
        type            calculated;
        value           uniform 0;
    }
    frontAndBack
    {
        type            empty;
    }
    procBoundary2to1
    {
        type            processor;
        value           nonuniform List<scalar> 
84
(
0.0559807
0.217004
0.252162
0.239727
0.0728644
0.63166
0.0441921
0.0456225
0.043877
0.0469428
0.0469609
0.0483362
0.0492041
0.0504376
0.0516831
0.0531079
0.0546692
0.0564131
0.0583558
0.0605264
0.0629588
0.0656923
0.0687705
0.0722432
0.076169
0.0806111
0.0856324
0.0912861
0.0975989
0.104525
0.111893
0.119335
0.126245
0.131891
0.135694
0.137549
0.137834
0.137165
0.137165
0.121562
0.122866
0.124078
0.125333
0.126736
0.128358
0.130247
0.132436
0.134943
0.137782
0.140962
0.144494
0.148391
0.152677
0.152677
0.15513
0.16048
0.166312
0.172658
0.179527
0.186895
0.19473
0.203039
0.211919
0.211919
0.220443
0.231166
0.243131
0.256435
0.271091
0.286766
0.302019
0.316171
0.330735
0.346888
0.346888
0.363221
0.384502
0.417663
0.47793
0.540083
0.517274
0.323187
0.231303
0.167102
)
;
    }
    procBoundary2to3
    {
        type            processor;
        value           nonuniform List<scalar> 
88
(
0.257249
0.183417
0.544452
0.257249
0.268936
0.518519
0.544452
0.408933
0.381255
0.406347
0.518519
0.419537
0.318841
0.331196
0.342448
0.35402
0.381255
0.367422
0.26913
0.277958
0.287699
0.298252
0.318841
0.309814
0.230693
0.235802
0.241242
0.247012
0.253132
0.259662
0.26913
0.266725
0.19869
0.20101
0.203478
0.206102
0.208882
0.211827
0.214943
0.218239
0.221729
0.225438
0.229396
0.230693
0.233637
0.196435
0.207537
0.20451
0.204583
0.200367
0.198213
0.196151
0.194417
0.192822
0.191393
0.190126
0.189047
0.188141
0.187366
0.186765
0.186308
0.18599
0.185802
0.185734
0.185783
0.185942
0.186198
0.186545
0.18698
0.187497
0.188089
0.188749
0.189482
0.190277
0.19114
0.192067
0.193057
0.194117
0.195244
0.196443
0.197722
0.199077
0.200524
0.202067
0.203707
0.205462
0.19869
0.207337
)
;
    }
    procBoundary2to6
    {
        type            processor;
        value           nonuniform List<scalar> 
13
(
0.162143
0.2357
0.297224
0.341351
0.373182
0.398067
0.418906
0.436878
0.502229
0.130253
0
0
1.42611
)
;
    }
}


// ************************************************************************* //
