/*--------------------------------*- C++ -*----------------------------------*\
| =========                 |                                                 |
| \\      /  F ield         | OpenFOAM: The Open Source CFD Toolbox           |
|  \\    /   O peration     | Version:  2306                                  |
|   \\  /    A nd           | Website:  www.openfoam.com                      |
|    \\/     M anipulation  |                                                 |
\*---------------------------------------------------------------------------*/
FoamFile
{
    version     2.0;
    format      ascii;
    arch        "LSB;label=32;scalar=64";
    class       volScalarField;
    location    "275";
    object      turbulenceProperties:I;
}
// * * * * * * * * * * * * * * * * * * * * * * * * * * * * * * * * * * * * * //

dimensions      [0 0 0 0 0 0 0];

internalField   nonuniform List<scalar> 
1340
(
0.244663
0.246104
0.249521
0.255951
0.0396035
0.0424692
0.0476558
0.0612008
0.017901
0.0214171
0.0239684
0.0337489
0.00339494
0.00626686
0.0101617
0.0207164
0.00106571
0.00128535
0.0017844
0.00901594
0.00041059
0.000533325
0.000856643
0.00303332
5.58401e-05
3.79094e-05
0
0.00140488
0.000143886
0.000126723
4.19747e-05
0
0.000157816
0.000166114
0.000175696
3.74151e-05
0.000145259
0.000146072
0.000192949
0.000137907
0.000146291
0.000147701
0.000178893
0.000207522
0.000141084
0.000143475
0.000165229
0.000215756
0.000138558
0.000141054
0.000158536
0.000206
0.00013483
0.00013683
0.000152568
0.000194864
0.000131386
0.000132908
0.000146768
0.000184629
0.000127553
0.000128604
0.000140753
0.000174914
0.000123594
0.000124182
0.000134738
0.000165475
0.000119405
0.000119531
0.000128706
0.000156278
0.000115026
0.000114689
0.000122655
0.000147329
0.000110444
0.000109643
0.0001166
0.000138677
0.000105667
0.0001044
0.000110522
0.00013031
0.000100695
9.8966e-05
0.000104429
0.000122243
9.55341e-05
9.33365e-05
9.83214e-05
0.000114496
9.01929e-05
8.75184e-05
9.21898e-05
0.000107056
8.46766e-05
8.15033e-05
8.60512e-05
9.99474e-05
7.89974e-05
7.52837e-05
7.99086e-05
9.31695e-05
7.31711e-05
6.88435e-05
7.37816e-05
8.67436e-05
6.72222e-05
6.21482e-05
6.76949e-05
8.06857e-05
6.11927e-05
5.51419e-05
6.17028e-05
7.50282e-05
5.51676e-05
4.77237e-05
5.58985e-05
6.98175e-05
4.93188e-05
3.96821e-05
5.04568e-05
6.51093e-05
4.40105e-05
3.05717e-05
4.56792e-05
6.09739e-05
3.99228e-05
1.89921e-05
4.20283e-05
5.74793e-05
3.79039e-05
1.3357e-05
3.99767e-05
5.46742e-05
3.81726e-05
2.49291e-05
3.96095e-05
5.25609e-05
3.99249e-05
3.18454e-05
4.0467e-05
5.10848e-05
4.21844e-05
3.67407e-05
4.19096e-05
5.01359e-05
4.43777e-05
4.03846e-05
4.34683e-05
4.95745e-05
5.21044e-05
4.62658e-05
4.31299e-05
4.48929e-05
4.92607e-05
5.248e-05
4.77739e-05
4.51799e-05
4.60733e-05
4.90746e-05
5.27479e-05
4.88959e-05
4.66686e-05
4.69739e-05
4.89257e-05
5.28548e-05
4.96541e-05
4.76905e-05
4.75926e-05
4.87502e-05
5.27762e-05
5.00809e-05
4.83194e-05
4.79457e-05
4.85087e-05
5.25072e-05
5.02111e-05
4.86131e-05
4.80544e-05
4.81778e-05
5.20549e-05
5.00802e-05
4.86208e-05
4.79421e-05
4.77455e-05
5.14327e-05
4.97216e-05
4.83851e-05
4.76354e-05
4.72106e-05
5.06583e-05
4.91669e-05
4.79412e-05
4.71566e-05
4.65751e-05
4.97511e-05
4.84454e-05
4.73219e-05
4.65289e-05
4.58447e-05
4.87295e-05
4.75829e-05
4.6555e-05
4.57734e-05
4.50289e-05
4.76114e-05
4.6602e-05
4.56632e-05
4.49074e-05
4.41344e-05
4.64114e-05
4.5522e-05
4.4667e-05
4.39468e-05
4.31697e-05
4.51415e-05
4.43571e-05
4.35811e-05
4.29035e-05
4.21406e-05
4.45001e-05
4.38106e-05
4.3119e-05
4.24173e-05
4.17867e-05
4.10516e-05
4.30249e-05
4.2426e-05
4.18168e-05
4.11847e-05
4.06041e-05
3.99066e-05
4.15162e-05
4.0996e-05
4.04603e-05
3.98935e-05
3.93641e-05
3.87099e-05
3.99841e-05
3.95325e-05
3.90625e-05
3.85563e-05
3.8078e-05
3.74704e-05
3.84439e-05
3.80524e-05
3.7641e-05
3.71908e-05
3.67625e-05
3.62021e-05
3.69152e-05
3.65763e-05
3.62169e-05
3.58177e-05
3.54367e-05
3.49225e-05
3.54148e-05
3.51214e-05
3.4808e-05
3.44549e-05
3.41179e-05
3.36487e-05
3.39487e-05
3.36945e-05
3.34214e-05
3.311e-05
3.28137e-05
3.23882e-05
3.2508e-05
3.22876e-05
3.205e-05
3.17765e-05
3.15176e-05
3.11354e-05
3.12491e-05
3.10722e-05
3.08809e-05
3.06747e-05
3.0436e-05
3.02125e-05
2.98732e-05
2.97777e-05
2.96236e-05
2.94579e-05
2.928e-05
2.90737e-05
2.88841e-05
2.85866e-05
2.8291e-05
2.81563e-05
2.8013e-05
2.78607e-05
2.76843e-05
2.75274e-05
2.72692e-05
2.68033e-05
2.66856e-05
2.65622e-05
2.64328e-05
2.62836e-05
2.61581e-05
2.59354e-05
2.53359e-05
2.52327e-05
2.51265e-05
2.50174e-05
2.48921e-05
2.47946e-05
2.46018e-05
2.39344e-05
2.38429e-05
2.37511e-05
2.36603e-05
2.35578e-05
2.3487e-05
2.3326e-05
2.27099e-05
2.26239e-05
2.254e-05
2.24601e-05
2.2372e-05
2.232e-05
2.21879e-05
2.16775e-05
2.15921e-05
2.15106e-05
2.14344e-05
2.13516e-05
2.13082e-05
2.11913e-05
2.07058e-05
2.06188e-05
2.05362e-05
2.04603e-05
2.03797e-05
2.03406e-05
2.02352e-05
1.97252e-05
1.96368e-05
1.9553e-05
1.94775e-05
1.93989e-05
1.93627e-05
1.92669e-05
1.88057e-05
1.86988e-05
1.86008e-05
1.85112e-05
1.84341e-05
1.83603e-05
1.8338e-05
1.82908e-05
1.77239e-05
1.75886e-05
1.74602e-05
1.73405e-05
1.72332e-05
1.71311e-05
1.70613e-05
1.69492e-05
1.6265e-05
1.61092e-05
1.5973e-05
1.58586e-05
1.57737e-05
1.57206e-05
1.5786e-05
1.59413e-05
1.39969e-05
1.36444e-05
1.3314e-05
1.30155e-05
1.27536e-05
1.25291e-05
1.23438e-05
1.20633e-05
1.252e-05
1.24065e-05
1.2374e-05
1.24309e-05
1.2615e-05
1.29398e-05
1.36839e-05
1.47112e-05
1.32222e-05
1.31882e-05
1.31456e-05
1.30851e-05
1.30372e-05
1.32274e-05
1.43495e-05
1.54673e-05
2.17192e-05
2.21215e-05
2.24652e-05
2.27775e-05
2.31328e-05
2.36484e-05
2.48764e-05
2.58585e-05
2.97e-05
2.9746e-05
2.97787e-05
2.98005e-05
2.98139e-05
2.98588e-05
3.01433e-05
2.94008e-05
4.1046e-05
4.10472e-05
4.1029e-05
4.09999e-05
4.09486e-05
4.09248e-05
4.07763e-05
3.93057e-05
0.141758
0.0645957
0.0318777
0.017337
0.00716743
0.00179818
0.000799754
0
4.19013e-05
0.000172102
0.000225907
0.000225154
0.000213609
0.000202279
0.000191946
0.000182114
0.000172554
0.000163272
0.000154301
0.000145638
0.000137302
0.000129301
0.000121646
0.000114346
0.000107404
0.000100834
9.46448e-05
8.88457e-05
8.34499e-05
7.84716e-05
7.39263e-05
6.98282e-05
6.61853e-05
6.30017e-05
6.02687e-05
5.79617e-05
5.60424e-05
5.44585e-05
5.3149e-05
5.20517e-05
5.11065e-05
5.02602e-05
4.94703e-05
4.87018e-05
4.79291e-05
4.71353e-05
4.6309e-05
4.5443e-05
4.45357e-05
4.35848e-05
4.25911e-05
4.15543e-05
4.04738e-05
3.93495e-05
3.81828e-05
3.69798e-05
3.57519e-05
3.45146e-05
3.32828e-05
3.20628e-05
3.08487e-05
2.96235e-05
2.83735e-05
2.70927e-05
2.57957e-05
2.44957e-05
2.32543e-05
2.21437e-05
2.11691e-05
2.02304e-05
1.92727e-05
1.8328e-05
1.69557e-05
1.61172e-05
1.19483e-05
1.53613e-05
1.47511e-05
2.56269e-05
2.76244e-05
3.70415e-05
0.0971936
0.0509031
0.0214925
0.00840418
0.00262103
0.00116155
0
1.26094e-05
5.49311e-05
0.000152316
0.000168399
0.000165736
0.00016039
0.00015549
0.000150865
0.00014619
0.000141395
0.00013647
0.000131478
0.000126425
0.000121347
0.000116265
0.000111206
0.00010622
0.000101326
9.65511e-05
9.19316e-05
8.74959e-05
8.32646e-05
7.92637e-05
7.55124e-05
7.20271e-05
6.88188e-05
6.58934e-05
6.32532e-05
6.08878e-05
5.87856e-05
5.69248e-05
5.5278e-05
5.38157e-05
5.25055e-05
5.1314e-05
5.02131e-05
4.91745e-05
4.81756e-05
4.71982e-05
4.62275e-05
4.52527e-05
4.42662e-05
4.32614e-05
4.22344e-05
4.11809e-05
4.00965e-05
3.89784e-05
3.78261e-05
3.66438e-05
3.54411e-05
3.42324e-05
3.30299e-05
3.18382e-05
3.06504e-05
2.94498e-05
2.82232e-05
2.69663e-05
2.56942e-05
2.44183e-05
2.31979e-05
2.20997e-05
2.11378e-05
2.02138e-05
1.9265e-05
1.83309e-05
1.69577e-05
1.61612e-05
1.18913e-05
1.57306e-05
1.38018e-05
2.56692e-05
2.7501e-05
3.74434e-05
0.0714571
0.0386331
0.0139171
0.00351847
0.000639909
0.000290285
0
2.07355e-05
8.52731e-05
0.000128821
0.00012782
0.000124414
0.000120891
0.000117906
0.000115104
0.00011232
0.000109557
0.000106798
0.000104031
0.000101295
9.85592e-05
9.58302e-05
9.30915e-05
9.03666e-05
8.76481e-05
8.49287e-05
8.22239e-05
7.95463e-05
7.68998e-05
7.43028e-05
7.17695e-05
6.93156e-05
6.69572e-05
6.47079e-05
6.25803e-05
6.05802e-05
5.87138e-05
5.69794e-05
5.53724e-05
5.38835e-05
5.25021e-05
5.12125e-05
5.0001e-05
4.8851e-05
4.77482e-05
4.66801e-05
4.56339e-05
4.46011e-05
4.3573e-05
4.25424e-05
4.15037e-05
4.04505e-05
3.9377e-05
3.82785e-05
3.71532e-05
3.60042e-05
3.48394e-05
3.36717e-05
3.25113e-05
3.1361e-05
3.02126e-05
2.90494e-05
2.78589e-05
2.6638e-05
2.54026e-05
2.41627e-05
2.29738e-05
2.19003e-05
2.09641e-05
2.007e-05
1.91443e-05
1.8233e-05
1.68827e-05
1.61098e-05
1.19664e-05
1.58808e-05
1.33357e-05
2.55572e-05
2.7228e-05
3.74656e-05
0.0531067
0.0267035
0.00711989
0.000704481
0.000333351
0
1.00538e-05
4.19567e-05
9.59174e-05
0.000106625
0.000102801
0.000100825
9.88461e-05
9.71393e-05
9.53919e-05
9.35853e-05
9.17694e-05
8.9934e-05
8.80868e-05
8.62634e-05
8.44382e-05
8.26377e-05
8.08497e-05
7.90737e-05
7.73163e-05
7.55699e-05
7.38299e-05
7.20992e-05
7.03746e-05
6.86582e-05
6.69518e-05
6.5258e-05
6.35854e-05
6.19378e-05
6.03231e-05
5.87499e-05
5.72234e-05
5.57493e-05
5.43317e-05
5.29707e-05
5.16669e-05
5.04177e-05
4.9217e-05
4.80604e-05
4.69412e-05
4.58526e-05
4.47873e-05
4.37398e-05
4.27037e-05
4.16727e-05
4.06418e-05
3.96036e-05
3.85525e-05
3.7483e-05
3.63922e-05
3.52827e-05
3.41616e-05
3.30397e-05
3.19259e-05
3.08214e-05
2.97167e-05
2.85955e-05
2.74461e-05
2.62659e-05
2.50717e-05
2.38725e-05
2.27211e-05
2.16807e-05
2.07769e-05
1.99165e-05
1.90187e-05
1.81361e-05
1.68185e-05
1.60728e-05
1.21411e-05
1.59878e-05
1.31207e-05
2.54222e-05
2.68804e-05
3.73081e-05
0.0361653
0.0147856
0.00179901
0.000579641
0
4.63209e-06
2.012e-05
6.94772e-05
9.15516e-05
9.03333e-05
8.78681e-05
8.71149e-05
8.62728e-05
8.55301e-05
8.46804e-05
8.37615e-05
8.27732e-05
8.16988e-05
8.05614e-05
7.93584e-05
7.80863e-05
7.67613e-05
7.53991e-05
7.39894e-05
7.25521e-05
7.11045e-05
6.96383e-05
6.81704e-05
6.67065e-05
6.52497e-05
6.38048e-05
6.23729e-05
6.09611e-05
5.95669e-05
5.81934e-05
5.68461e-05
5.55225e-05
5.42274e-05
5.29614e-05
5.17248e-05
5.05207e-05
4.93473e-05
4.82025e-05
4.70869e-05
4.5997e-05
4.49301e-05
4.38823e-05
4.2851e-05
4.18318e-05
4.08202e-05
3.98118e-05
3.87998e-05
3.77789e-05
3.67437e-05
3.56909e-05
3.46228e-05
3.3546e-05
3.24699e-05
3.14017e-05
3.03415e-05
2.9279e-05
2.81984e-05
2.70892e-05
2.59493e-05
2.47963e-05
2.36377e-05
2.25239e-05
2.15166e-05
2.06444e-05
1.98147e-05
1.89431e-05
1.80878e-05
1.68035e-05
1.60904e-05
1.23767e-05
1.61581e-05
1.29623e-05
2.54217e-05
2.66952e-05
3.72722e-05
0.0204756
0.00535071
0.00104274
0
0
1.30239e-05
5.34441e-05
7.95143e-05
8.25437e-05
7.94681e-05
7.84789e-05
7.81308e-05
7.76442e-05
7.71585e-05
7.6582e-05
7.59644e-05
7.52777e-05
7.45284e-05
7.37366e-05
7.28884e-05
7.19905e-05
7.10431e-05
7.00581e-05
6.90243e-05
6.79526e-05
6.68516e-05
6.57108e-05
6.45469e-05
6.33611e-05
6.21573e-05
6.0943e-05
5.97207e-05
5.85004e-05
5.72825e-05
5.6072e-05
5.48756e-05
5.36914e-05
5.25257e-05
5.13771e-05
5.02471e-05
4.91386e-05
4.80486e-05
4.69771e-05
4.59256e-05
4.48906e-05
4.38721e-05
4.28677e-05
4.1876e-05
4.08945e-05
3.99196e-05
3.89481e-05
3.79738e-05
3.69921e-05
3.59981e-05
3.49886e-05
3.3966e-05
3.29364e-05
3.19081e-05
3.08869e-05
2.98717e-05
2.88521e-05
2.7813e-05
2.67448e-05
2.56466e-05
2.45363e-05
2.34198e-05
2.23441e-05
2.13704e-05
2.05306e-05
1.97314e-05
1.88865e-05
1.80588e-05
1.681e-05
1.61349e-05
1.26393e-05
1.63626e-05
1.27726e-05
2.54718e-05
0.00765795
0.000347151
0.000228936
0
9.36763e-06
3.89868e-05
6.73873e-05
7.26e-05
7.03691e-05
6.89144e-05
6.889e-05
6.88185e-05
6.86503e-05
6.84468e-05
6.81689e-05
6.78529e-05
6.74692e-05
6.7025e-05
6.65363e-05
6.59925e-05
6.54019e-05
6.47628e-05
6.40756e-05
6.33491e-05
6.25882e-05
6.17875e-05
6.0951e-05
6.00903e-05
5.91992e-05
5.82838e-05
5.73476e-05
5.63906e-05
5.54194e-05
5.44355e-05
5.34417e-05
5.24425e-05
5.14393e-05
5.04377e-05
4.94369e-05
4.8441e-05
4.74526e-05
4.64697e-05
4.54961e-05
4.45313e-05
4.35741e-05
4.26267e-05
4.16869e-05
4.07546e-05
3.98285e-05
3.89061e-05
3.7985e-05
3.70603e-05
3.61279e-05
3.51832e-05
3.42244e-05
3.32533e-05
3.22758e-05
3.12996e-05
3.03289e-05
2.9362e-05
2.83883e-05
2.73938e-05
2.63698e-05
2.53167e-05
2.42526e-05
2.31813e-05
2.21465e-05
2.12095e-05
2.04053e-05
1.9639e-05
1.88242e-05
1.8027e-05
1.68184e-05
1.61872e-05
1.29174e-05
1.65669e-05
0.000766104
0.000486441
0
6.24274e-06
2.67299e-05
5.83659e-05
6.39665e-05
6.23734e-05
6.08587e-05
6.07571e-05
6.09951e-05
6.1049e-05
6.10546e-05
6.10134e-05
6.09146e-05
6.07728e-05
6.05753e-05
6.03277e-05
6.0037e-05
5.96984e-05
5.93174e-05
5.88951e-05
5.84281e-05
5.79259e-05
5.73923e-05
5.68197e-05
5.62159e-05
5.55863e-05
5.49263e-05
5.42416e-05
5.35338e-05
5.28017e-05
5.20507e-05
5.1281e-05
5.04934e-05
4.96912e-05
4.8875e-05
4.80482e-05
4.72109e-05
4.63659e-05
4.55156e-05
4.46599e-05
4.3802e-05
4.29422e-05
4.20811e-05
4.12216e-05
4.0362e-05
3.9504e-05
3.8647e-05
3.77895e-05
3.693e-05
3.60648e-05
3.51903e-05
3.43028e-05
3.3401e-05
3.24872e-05
3.15666e-05
3.06464e-05
2.97297e-05
2.88142e-05
2.78895e-05
2.69427e-05
2.59663e-05
2.49616e-05
2.39471e-05
2.29241e-05
2.19334e-05
2.1037e-05
2.02713e-05
1.95402e-05
1.87585e-05
1.79946e-05
1.68316e-05
1.62494e-05
0.000511324
0
3.46209e-06
1.455e-05
5.22443e-05
5.73006e-05
5.5907e-05
5.45535e-05
5.44202e-05
5.47914e-05
5.5041e-05
5.5186e-05
5.52952e-05
5.53516e-05
5.53588e-05
5.53171e-05
5.52249e-05
5.50896e-05
5.49101e-05
5.46867e-05
5.4422e-05
5.41207e-05
5.37849e-05
5.34113e-05
5.30093e-05
5.25782e-05
5.21177e-05
5.16316e-05
5.11205e-05
5.05872e-05
5.00304e-05
4.94516e-05
4.88557e-05
4.82383e-05
4.76028e-05
4.69517e-05
4.62831e-05
4.56e-05
4.49028e-05
4.41919e-05
4.34692e-05
4.27358e-05
4.19921e-05
4.12399e-05
4.04798e-05
3.97141e-05
3.89422e-05
3.81662e-05
3.73862e-05
3.66015e-05
3.58112e-05
3.50122e-05
3.42021e-05
3.33777e-05
3.25381e-05
3.1686e-05
3.08263e-05
2.99651e-05
2.91052e-05
2.82435e-05
2.73703e-05
2.64737e-05
2.55477e-05
2.45943e-05
2.36322e-05
2.26601e-05
2.17161e-05
2.08633e-05
2.01381e-05
1.94435e-05
1.86972e-05
0
4.79038e-07
2.21337e-06
4.35233e-05
5.26693e-05
4.99723e-05
4.90456e-05
4.89534e-05
4.93839e-05
4.97711e-05
5.00276e-05
5.02408e-05
5.04141e-05
5.05361e-05
5.06134e-05
5.06493e-05
5.06373e-05
5.05822e-05
5.0487e-05
5.03514e-05
5.01778e-05
4.99686e-05
4.97274e-05
4.94525e-05
4.91501e-05
4.88216e-05
4.8465e-05
4.80856e-05
4.76837e-05
4.72616e-05
4.68164e-05
4.63523e-05
4.58722e-05
4.53701e-05
4.48518e-05
4.43172e-05
4.37648e-05
4.31973e-05
4.26138e-05
4.20153e-05
4.14027e-05
4.07759e-05
4.01362e-05
3.94841e-05
3.882e-05
3.81462e-05
3.7462e-05
3.67697e-05
3.60693e-05
3.53608e-05
3.46436e-05
3.39152e-05
3.31737e-05
3.24163e-05
3.1643e-05
3.08559e-05
3.006e-05
2.92605e-05
2.84594e-05
2.76538e-05
2.68342e-05
2.59902e-05
2.51172e-05
2.42178e-05
2.33106e-05
2.23918e-05
0
8.22554e-06
3.7317e-05
4.78379e-05
4.52228e-05
4.39482e-05
4.41931e-05
4.46163e-05
4.50747e-05
4.54043e-05
4.56788e-05
4.59214e-05
4.61199e-05
4.6277e-05
4.63906e-05
4.64673e-05
4.65029e-05
4.64968e-05
4.64567e-05
4.63809e-05
4.62725e-05
4.61319e-05
4.59624e-05
4.57652e-05
4.55436e-05
4.5298e-05
4.50279e-05
4.47383e-05
4.44282e-05
4.40993e-05
4.37505e-05
4.33841e-05
4.30015e-05
4.26e-05
4.21826e-05
4.17487e-05
4.12977e-05
4.08315e-05
4.03484e-05
3.98495e-05
3.93354e-05
3.88055e-05
3.82608e-05
3.77012e-05
3.71275e-05
3.65412e-05
3.59418e-05
3.53316e-05
3.47105e-05
3.40787e-05
3.34359e-05
3.27799e-05
3.21093e-05
3.14216e-05
3.07169e-05
2.99974e-05
2.92673e-05
2.85314e-05
2.77911e-05
2.70433e-05
2.62795e-05
7.44245e-06
3.02034e-05
4.31727e-05
4.09895e-05
3.96831e-05
4.00199e-05
4.05525e-05
4.09995e-05
4.13761e-05
4.16826e-05
4.19615e-05
4.22058e-05
4.24098e-05
4.25785e-05
4.27053e-05
4.27991e-05
4.28572e-05
4.28775e-05
4.28685e-05
4.28275e-05
4.27582e-05
4.26605e-05
4.25392e-05
4.23939e-05
4.22275e-05
4.20414e-05
4.18348e-05
4.1612e-05
4.1372e-05
4.11159e-05
4.08433e-05
4.05561e-05
4.02541e-05
3.99356e-05
3.96032e-05
3.92555e-05
3.88921e-05
3.85142e-05
3.81197e-05
3.77096e-05
3.72844e-05
3.68425e-05
3.63845e-05
3.59109e-05
3.54216e-05
3.49178e-05
3.43994e-05
3.38681e-05
3.33242e-05
3.27678e-05
3.21991e-05
3.16157e-05
3.10166e-05
3.03997e-05
3.0903e-05
3.69309e-05
3.77649e-05
3.59785e-05
3.65005e-05
3.70481e-05
3.74962e-05
3.78667e-05
3.8192e-05
3.84807e-05
3.87489e-05
3.89794e-05
3.91739e-05
3.93382e-05
3.94666e-05
3.95651e-05
3.9631e-05
3.96658e-05
3.96738e-05
3.96546e-05
3.96106e-05
3.95436e-05
3.94543e-05
3.93458e-05
3.922e-05
3.90757e-05
3.89161e-05
3.87423e-05
3.85544e-05
3.83531e-05
3.81383e-05
3.7912e-05
3.76723e-05
3.74196e-05
3.71555e-05
3.68771e-05
3.65861e-05
3.62812e-05
3.59615e-05
3.56278e-05
3.52789e-05
3.49145e-05
)
;

boundaryField
{
    inlet
    {
        type            calculated;
        value           nonuniform List<scalar> 
13
(
7.48457e-05
7.53405e-05
7.57713e-05
7.61563e-05
7.6529e-05
7.69166e-05
7.74319e-05
7.76031e-05
7.72412e-05
7.70053e-05
7.66977e-05
7.6432e-05
7.62127e-05
)
;
    }
    outlet
    {
        type            calculated;
        value           nonuniform List<scalar> 0();
    }
    walls
    {
        type            calculated;
        value           uniform 0;
    }
    frontAndBack
    {
        type            empty;
    }
    procBoundary2to1
    {
        type            processor;
        value           nonuniform List<scalar> 
84
(
0.243552
0.0371134
0.0142949
0.00145472
0.00115179
2.29178e-05
0.000155069
0.000149936
0.000156065
0.000146082
0.000146265
0.000142339
0.000140063
0.000136867
0.000133796
0.000130429
0.000126922
0.00012321
0.000119311
0.000115227
0.00011096
0.000106516
0.000101909
9.7159e-05
9.22862e-05
8.73218e-05
8.23085e-05
7.73039e-05
7.23835e-05
6.76541e-05
6.3254e-05
5.93531e-05
5.61383e-05
5.37605e-05
5.2271e-05
5.15758e-05
5.14713e-05
5.17176e-05
5.17176e-05
5.8457e-05
5.7812e-05
5.72154e-05
5.66032e-05
5.59317e-05
5.51748e-05
5.43198e-05
5.33639e-05
5.23118e-05
5.11716e-05
4.99536e-05
4.86689e-05
4.73271e-05
4.59357e-05
4.59357e-05
4.5176e-05
4.36064e-05
4.20168e-05
4.0415e-05
3.88146e-05
3.72339e-05
3.56888e-05
3.41846e-05
3.27118e-05
3.27118e-05
3.14152e-05
2.99234e-05
2.84198e-05
2.69179e-05
2.54388e-05
2.40276e-05
2.27988e-05
2.17671e-05
2.0798e-05
1.98196e-05
1.98196e-05
1.89196e-05
1.7864e-05
1.64386e-05
1.43613e-05
1.27074e-05
1.32685e-05
2.12519e-05
2.96325e-05
4.10164e-05
)
;
    }
    procBoundary2to3
    {
        type            processor;
        value           nonuniform List<scalar> 
88
(
2.65982e-05
3.72882e-05
1.25959e-05
2.65982e-05
2.55185e-05
1.32139e-05
1.25959e-05
1.67637e-05
1.79682e-05
1.68562e-05
1.32139e-05
1.63258e-05
2.14971e-05
2.06905e-05
2.00073e-05
1.93501e-05
1.79682e-05
1.86411e-05
2.54905e-05
2.4673e-05
2.38303e-05
2.29806e-05
2.14971e-05
2.21171e-05
2.9765e-05
2.91141e-05
2.84512e-05
2.77801e-05
2.71017e-05
2.64132e-05
2.54905e-05
2.57068e-05
3.45341e-05
3.41377e-05
3.37252e-05
3.3297e-05
3.28544e-05
3.23974e-05
3.1927e-05
3.14434e-05
3.09465e-05
3.04346e-05
2.99063e-05
2.9765e-05
2.93596e-05
3.49872e-05
3.29981e-05
3.33772e-05
3.33594e-05
3.40749e-05
3.44485e-05
3.48111e-05
3.5122e-05
3.54128e-05
3.56782e-05
3.59172e-05
3.61236e-05
3.62994e-05
3.64514e-05
3.65711e-05
3.66632e-05
3.67287e-05
3.67688e-05
3.67855e-05
3.67791e-05
3.67513e-05
3.67046e-05
3.66402e-05
3.65591e-05
3.64624e-05
3.6352e-05
3.62294e-05
3.60937e-05
3.59475e-05
3.57898e-05
3.56217e-05
3.54435e-05
3.52545e-05
3.50556e-05
3.4846e-05
3.46251e-05
3.43936e-05
3.41494e-05
3.38925e-05
3.36233e-05
3.33395e-05
3.45341e-05
3.30412e-05
)
;
    }
    procBoundary2to6
    {
        type            processor;
        value           nonuniform List<scalar> 
13
(
0.249905
0.146392
0.102964
0.0779343
0.0578729
0.0394501
0.0221498
0.00793984
0.00072491
0.00035602
0
0
8.22209e-06
)
;
    }
}


// ************************************************************************* //
