/*--------------------------------*- C++ -*----------------------------------*\
| =========                 |                                                 |
| \\      /  F ield         | OpenFOAM: The Open Source CFD Toolbox           |
|  \\    /   O peration     | Version:  2306                                  |
|   \\  /    A nd           | Website:  www.openfoam.com                      |
|    \\/     M anipulation  |                                                 |
\*---------------------------------------------------------------------------*/
FoamFile
{
    version     2.0;
    format      ascii;
    arch        "LSB;label=32;scalar=64";
    class       volSymmTensorField;
    location    "275";
    object      turbulenceProperties:devReff;
}
// * * * * * * * * * * * * * * * * * * * * * * * * * * * * * * * * * * * * * //

dimensions      [0 2 -2 0 0 0 0];

internalField   nonuniform List<symmTensor> 
1340
(
(-3.53724 14.0094 1.0244e-15 3.50198 1.64481e-16 0.0352591)
(-3.77482 13.2862 1.45029e-15 3.74274 2.66842e-16 0.0320836)
(-3.91888 12.4687 -2.90372e-16 3.88889 -3.66596e-17 0.029989)
(-3.63939 10.0645 -4.55373e-15 3.63282 -7.83918e-16 0.00656959)
(-0.108438 0.415536 -4.90886e-16 0.133591 -8.63126e-17 -0.0251531)
(-0.128773 0.456181 -1.2249e-15 0.151559 -5.15961e-16 -0.0227856)
(-0.147317 0.552377 -2.5251e-15 0.17416 -2.91974e-18 -0.0268428)
(-0.207641 0.776029 -2.03945e-15 0.197406 1.36005e-15 0.0102349)
(-0.0113153 0.0929544 2.15588e-16 0.0108074 -1.75449e-17 0.000507938)
(-0.0190649 0.127589 -1.17305e-15 0.019021 2.11946e-16 4.39606e-05)
(-0.00962398 0.154087 2.94698e-15 0.0104553 5.32994e-16 -0.000831321)
(-0.0374165 0.261185 4.63644e-15 0.0294255 9.507e-16 0.00799103)
(0.000880036 0.00332987 -1.73519e-16 -0.000936196 -2.65023e-17 5.61602e-05)
(0.0015771 0.0112329 7.43716e-16 -0.0020564 1.1e-16 0.000479297)
(0.0067283 0.0279297 -4.86362e-16 -0.00721865 -1.685e-16 0.000490348)
(-0.00281482 0.104517 -3.29412e-16 -0.00196732 -1.41164e-15 0.00478214)
(0.000248948 -0.000202518 -3.97544e-18 -0.00028902 1.58602e-18 4.00712e-05)
(0.000435228 -0.00015565 -2.12863e-17 -0.000470365 -1.77609e-17 3.51372e-05)
(0.000882756 0.00020064 5.27492e-17 -0.00086233 3.76136e-18 -2.0426e-05)
(0.00384311 0.0197442 -2.90921e-16 -0.00521804 5.24539e-17 0.00137494)
(2.82327e-05 -3.89727e-05 4.31901e-18 -1.08183e-05 3.84373e-19 -1.74144e-05)
(7.6983e-05 -4.14568e-05 -1.44869e-17 -5.71107e-05 -2.82257e-19 -1.98724e-05)
(0.00021745 -2.2909e-05 -1.55458e-17 -0.000189734 -5.06388e-18 -2.77155e-05)
(0.000984565 0.00206356 6.95554e-18 -0.00115184 4.77707e-17 0.000167277)
(3.46665e-06 -2.03586e-06 -2.0453e-19 -4.29202e-06 -2.57799e-20 8.25369e-07)
(3.90832e-06 -1.1192e-06 3.42318e-19 -4.63592e-06 8.95904e-20 7.27596e-07)
(5.50102e-06 -8.81581e-08 5.13465e-21 -5.81838e-06 7.67583e-20 3.17368e-07)
(0.000274348 0.000396156 2.22475e-17 -0.000338006 1.97425e-18 6.36572e-05)
(3.18817e-06 -3.45412e-06 3.43682e-19 -2.29825e-06 6.10377e-20 -8.89925e-07)
(3.65397e-06 -1.63331e-06 -1.451e-19 -3.09679e-06 -6.20258e-20 -5.57182e-07)
(4.3714e-06 8.79473e-08 2.8403e-20 -3.91727e-06 6.76124e-21 -4.54129e-07)
(3.94267e-06 6.23857e-06 4.29605e-21 -4.51931e-06 -1.23318e-19 5.76645e-07)
(4.34647e-06 -3.06024e-06 -1.31256e-20 -4.73584e-06 -1.47704e-20 3.89367e-07)
(5.40853e-06 -1.5506e-06 8.80025e-20 -5.86832e-06 9.61287e-20 4.59783e-07)
(6.67912e-06 4.97534e-07 6.53883e-20 -6.72759e-06 -6.70804e-20 4.84706e-08)
(3.77985e-06 5.95573e-06 -3.40629e-20 -4.48991e-06 3.64529e-20 7.10059e-07)
(3.5893e-06 -3.07754e-06 1.04191e-19 -3.35534e-06 1.37855e-20 -2.33964e-07)
(4.43955e-06 -1.45504e-06 5.86873e-19 -4.34954e-06 2.07678e-21 -9.00118e-08)
(7.59336e-06 6.92636e-07 -5.38367e-19 -7.27752e-06 4.82722e-20 -3.15835e-07)
(3.62232e-06 5.94116e-06 1.49153e-19 -4.21989e-06 7.00447e-20 5.97566e-07)
(3.70686e-06 -2.87102e-06 1.09211e-20 -3.75635e-06 -2.18373e-20 4.94968e-08)
(4.48092e-06 -1.25734e-06 -6.68355e-19 -4.61689e-06 -1.05184e-19 1.35971e-07)
(6.54986e-06 7.9696e-07 7.58493e-19 -6.42874e-06 1.16648e-19 -1.21124e-07)
(4.45033e-06 7.37853e-06 2.8126e-19 -5.17787e-06 -1.06795e-19 7.27543e-07)
(3.422e-06 -2.76078e-06 -2.49197e-19 -3.35597e-06 -1.16439e-20 -6.60317e-08)
(4.24906e-06 -1.16882e-06 4.24171e-19 -4.29068e-06 6.24462e-20 4.16269e-08)
(5.67907e-06 8.48832e-07 -3.77388e-19 -5.53569e-06 -1.68308e-19 -1.43383e-07)
(4.51189e-06 7.61776e-06 -4.75085e-19 -5.2149e-06 -2.6623e-19 7.03013e-07)
(3.30291e-06 -2.61356e-06 2.87672e-19 -3.29075e-06 3.53471e-20 -1.21538e-08)
(4.09568e-06 -1.04481e-06 -5.92298e-19 -4.17297e-06 -7.87371e-20 7.72888e-08)
(5.20841e-06 9.27915e-07 -3.97606e-20 -5.10292e-06 6.35189e-20 -1.05492e-07)
(4.08468e-06 7.0111e-06 -7.57578e-19 -4.6987e-06 8.34372e-20 6.14016e-07)
(3.11168e-06 -2.48789e-06 -2.11261e-19 -3.08267e-06 -3.93254e-20 -2.90081e-08)
(3.86563e-06 -9.40918e-07 3.87161e-19 -3.92369e-06 1.1968e-19 5.80656e-08)
(4.79202e-06 9.91365e-07 6.08337e-20 -4.69532e-06 5.23091e-20 -9.66975e-08)
(3.63474e-06 6.36441e-06 4.44277e-19 -4.15626e-06 1.52027e-19 5.21523e-07)
(2.94244e-06 -2.35495e-06 4.40415e-20 -2.92489e-06 1.95704e-20 -1.75408e-08)
(3.64956e-06 -8.40244e-07 1.6803e-19 -3.70977e-06 -3.70439e-20 6.0204e-08)
(4.39935e-06 1.03703e-06 3.18937e-19 -4.32047e-06 -2.06714e-20 -7.88849e-08)
(3.23521e-06 5.78524e-06 -2.18171e-19 -3.67874e-06 -1.39985e-19 4.43531e-07)
(2.75673e-06 -2.22505e-06 2.96391e-20 -2.73935e-06 1.38417e-23 -1.73786e-08)
(3.4208e-06 -7.50811e-07 -2.45443e-19 -3.47434e-06 -3.37422e-20 5.35375e-08)
(4.01441e-06 1.06361e-06 -4.20497e-19 -3.94785e-06 -1.09e-19 -6.65522e-08)
(2.86926e-06 5.25526e-06 -2.48882e-19 -3.2438e-06 9.3188e-20 3.74546e-07)
(2.57058e-06 -2.09465e-06 -1.1617e-20 -2.55739e-06 3.88125e-21 -1.31866e-08)
(3.19109e-06 -6.69232e-07 1.32371e-19 -3.24067e-06 4.96978e-21 4.95777e-08)
(3.64726e-06 1.07373e-06 -1.72618e-19 -3.59319e-06 5.73142e-20 -5.40633e-08)
(2.53067e-06 4.76039e-06 5.95384e-19 -2.84471e-06 4.42075e-20 3.14044e-07)
(2.37927e-06 -1.96554e-06 1.08878e-19 -2.36843e-06 -6.70956e-21 -1.08415e-08)
(2.95758e-06 -5.95488e-07 -3.87615e-19 -3.00218e-06 -4.89045e-20 4.45978e-08)
(3.29739e-06 1.06962e-06 2.56752e-19 -3.25412e-06 6.97451e-20 -4.32725e-08)
(2.21652e-06 4.29937e-06 -4.57047e-19 -2.47698e-06 -4.38041e-20 2.60458e-07)
(2.18598e-06 -1.83735e-06 -3.02081e-19 -2.17781e-06 -3.04813e-20 -8.17451e-09)
(2.72309e-06 -5.28713e-07 9.33138e-20 -2.76314e-06 6.49951e-20 4.00474e-08)
(2.96516e-06 1.05215e-06 1.91636e-19 -2.93103e-06 -2.48109e-20 -3.4137e-08)
(1.92641e-06 3.87072e-06 7.411e-19 -2.13971e-06 9.233e-20 2.13302e-07)
(1.99116e-06 -1.7109e-06 1.53049e-19 -1.98513e-06 3.24444e-20 -6.02453e-09)
(2.48859e-06 -4.68646e-07 3.01216e-19 -2.52406e-06 9.86493e-21 3.54663e-08)
(2.6511e-06 1.02333e-06 -1.85892e-19 -2.62511e-06 -5.07963e-20 -2.59886e-08)
(1.66074e-06 3.47512e-06 -4.44859e-19 -1.83414e-06 -1.29545e-19 1.73397e-07)
(1.79629e-06 -1.58626e-06 -4.12569e-20 -1.7922e-06 -1.28727e-20 -4.08724e-09)
(2.25574e-06 -4.14424e-07 -2.29808e-19 -2.28681e-06 -4.54528e-20 3.10708e-08)
(2.35436e-06 9.85175e-07 -1.09343e-19 -2.33503e-06 1.81893e-20 -1.93263e-08)
(1.41753e-06 3.11077e-06 8.45613e-20 -1.5566e-06 6.03882e-20 1.39062e-07)
(1.60263e-06 -1.4636e-06 1.21921e-20 -1.60022e-06 9.29997e-21 -2.40384e-09)
(2.02619e-06 -3.65398e-07 3.51937e-20 -2.05325e-06 2.14425e-20 2.70584e-08)
(2.07531e-06 9.38918e-07 1.29467e-19 -2.06158e-06 3.83533e-20 -1.37334e-08)
(1.1961e-06 2.77657e-06 5.03514e-21 -1.30629e-06 -2.1375e-20 1.10187e-07)
(1.41148e-06 -1.34335e-06 8.64124e-20 -1.41048e-06 4.44304e-21 -9.98708e-10)
(1.80126e-06 -3.2084e-07 8.27992e-21 -1.82456e-06 -6.29447e-21 2.32987e-08)
(1.81339e-06 8.87129e-07 1.75181e-19 -1.80421e-06 -1.92017e-20 -9.17909e-09)
(9.95275e-07 2.47162e-06 -1.25439e-19 -1.08163e-06 -6.42116e-21 8.63578e-08)
(1.22426e-06 -1.22582e-06 -6.88189e-20 -1.2244e-06 -9.33561e-21 1.47828e-10)
(1.58257e-06 -2.80351e-07 -6.21726e-20 -1.60252e-06 2.11943e-21 1.99473e-08)
(1.56831e-06 8.30661e-07 -3.44901e-19 -1.56255e-06 -4.18988e-20 -5.7635e-09)
(8.13559e-07 2.19364e-06 7.04454e-20 -8.80191e-07 2.4871e-20 6.6632e-08)
(1.04225e-06 -1.11114e-06 4.92656e-20 -1.04328e-06 1.65505e-21 1.03336e-09)
(1.37134e-06 -2.43067e-07 1.37762e-19 -1.38828e-06 1.94111e-20 1.69458e-08)
(1.33988e-06 7.71833e-07 1.29094e-19 -1.33678e-06 5.78751e-20 -3.09795e-09)
(6.4996e-07 1.94165e-06 7.39102e-20 -7.00889e-07 9.9621e-21 5.09292e-08)
(8.6681e-07 -9.9951e-07 -1.27765e-19 -8.68539e-07 -9.96307e-21 1.72858e-09)
(1.16886e-06 -2.08515e-07 -6.17447e-21 -1.18316e-06 -4.41678e-21 1.4299e-08)
(1.12762e-06 7.12016e-07 2.31947e-19 -1.12642e-06 2.59588e-21 -1.20473e-09)
(5.02786e-07 1.71376e-06 1.19145e-19 -5.41137e-07 -1.35856e-20 3.83512e-08)
(6.99158e-07 -8.9121e-07 1.09744e-19 -7.01396e-07 1.86329e-20 2.23794e-09)
(9.76314e-07 -1.76057e-07 8.89223e-20 -9.88339e-07 8.11783e-21 1.20259e-08)
(9.3125e-07 6.5271e-07 -1.75644e-19 -9.31362e-07 -2.60896e-20 1.12541e-10)
(3.70912e-07 1.50859e-06 -2.81901e-19 -3.99552e-07 -2.52349e-20 2.86397e-08)
(5.40418e-07 -7.86458e-07 5.94418e-21 -5.4301e-07 -5.72166e-21 2.59223e-09)
(7.94615e-07 -1.45345e-07 -2.86921e-20 -8.04683e-07 -1.32649e-20 1.00685e-08)
(7.50297e-07 5.95141e-07 1.29e-19 -7.51198e-07 1.35646e-20 9.01225e-10)
(2.52888e-07 1.32451e-06 1.8414e-19 -2.74041e-07 2.41655e-20 2.11525e-08)
(3.91616e-07 -6.85437e-07 -7.75575e-21 -3.94392e-07 -2.43902e-21 2.77666e-09)
(6.24684e-07 -1.15783e-07 -8.50519e-20 -6.33091e-07 -1.05661e-20 8.40617e-09)
(5.84434e-07 5.40446e-07 -1.89767e-19 -5.85757e-07 -2.26669e-20 1.32274e-09)
(1.47565e-07 1.16007e-06 -2.2773e-19 -1.63112e-07 -3.67755e-20 1.55467e-08)
(2.53673e-07 -5.88371e-07 -2.47626e-20 -2.56529e-07 -3.45919e-21 2.8565e-09)
(4.67205e-07 -8.71084e-08 -5.9483e-20 -4.74287e-07 -2.32018e-21 7.08278e-09)
(4.33239e-07 4.89519e-07 9.2142e-20 -4.34705e-07 2.18702e-20 1.46583e-09)
(5.37781e-08 1.01395e-06 -2.14762e-20 -6.51865e-08 2.49427e-20 1.14084e-08)
(1.27256e-07 -4.95475e-07 -2.44271e-20 -1.30085e-07 -2.69839e-21 2.82896e-09)
(3.22568e-07 -5.90911e-08 -1.54935e-20 -3.28485e-07 5.55246e-21 5.91698e-09)
(2.96333e-07 4.43058e-07 8.34459e-21 -2.97787e-07 -2.93305e-21 1.45351e-09)
(-2.94706e-08 8.84755e-07 2.19974e-19 2.10372e-08 3.51421e-20 8.43339e-09)
(1.29446e-08 -4.06982e-07 -3.37209e-20 -1.57023e-08 -2.85094e-21 2.75773e-09)
(1.91227e-07 -3.14881e-08 8.07017e-20 -1.96203e-07 7.8083e-21 4.97606e-09)
(1.73208e-07 4.01521e-07 3.23534e-20 -1.74486e-07 -1.51121e-21 1.27849e-09)
(-1.03127e-07 7.71286e-07 2.20034e-19 9.67883e-08 1.56575e-22 6.33907e-09)
(-8.89296e-08 -3.23165e-07 -1.00073e-20 8.62956e-08 3.14015e-21 2.63402e-09)
(7.3303e-08 -4.27197e-09 -2.60046e-20 -7.75094e-08 -4.96644e-21 4.20639e-09)
(6.34568e-08 3.65138e-07 -7.73265e-20 -6.4516e-08 -9.60572e-21 1.05917e-09)
(-1.67941e-07 6.72331e-07 -1.91865e-19 1.6302e-07 -3.72837e-20 4.92108e-09)
(-1.78266e-07 -2.44241e-07 6.14642e-20 1.7579e-07 6.24693e-21 2.47624e-09)
(-3.12121e-08 2.26004e-08 3.6071e-20 2.7645e-08 -3.96575e-22 3.56702e-09)
(-3.3429e-08 3.34058e-07 5.42119e-22 3.26089e-08 8.64648e-21 8.20109e-10)
(-2.24574e-07 5.86743e-07 -1.38379e-19 2.20604e-07 -1.45693e-21 3.97003e-09)
(-2.55079e-07 -1.7043e-07 -1.30525e-20 2.52819e-07 -3.03571e-21 2.25994e-09)
(-1.22496e-07 4.90224e-08 -1.23218e-19 1.19457e-07 -1.11597e-20 3.0395e-09)
(-1.17959e-07 3.08146e-07 9.4231e-20 1.17365e-07 4.33455e-21 5.94255e-10)
(-2.73608e-07 5.13359e-07 6.62689e-20 2.70232e-07 7.79949e-21 3.37556e-09)
(-3.19637e-07 -1.01936e-07 2.10067e-20 3.17593e-07 1.88782e-21 2.04356e-09)
(-2.00879e-07 7.49016e-08 7.86761e-20 1.98283e-07 1.19693e-20 2.59655e-09)
(-1.90722e-07 2.87149e-07 -1.15956e-19 1.90342e-07 -1.35846e-20 3.80721e-10)
(-3.15541e-07 4.51084e-07 -1.24416e-19 3.1253e-07 -1.4022e-20 3.01064e-09)
(-3.72369e-07 -3.89563e-08 -1.9766e-20 3.7056e-07 -1.55902e-21 1.80863e-09)
(-2.66828e-07 1.00013e-07 -3.74704e-20 2.64596e-07 -6.80856e-21 2.2326e-09)
(-2.52298e-07 2.70727e-07 5.8026e-20 2.52084e-07 8.11772e-21 2.13424e-10)
(-3.50779e-07 3.98844e-07 3.72186e-20 3.47962e-07 1.55373e-20 2.81723e-09)
(-4.13865e-07 1.83981e-08 3.43779e-20 4.12287e-07 4.73781e-21 1.57804e-09)
(-3.20965e-07 1.24149e-07 9.31291e-21 3.19047e-07 9.196e-22 1.91811e-09)
(-3.03349e-07 2.58383e-07 -7.37715e-20 3.03281e-07 -5.36348e-21 6.80258e-11)
(-3.79722e-07 3.55544e-07 1.72241e-19 3.77003e-07 1.49305e-20 2.71895e-09)
(-5.6811e-07 3.39185e-08 -2.3419e-20 5.66769e-07 -2.31557e-22 1.34086e-09)
(-4.44856e-07 7.00012e-08 1.01877e-20 4.43506e-07 -3.68451e-21 1.35079e-09)
(-3.64e-07 1.47017e-07 -4.37158e-20 3.62358e-07 6.27525e-22 1.64159e-09)
(-3.44546e-07 2.49606e-07 1.26018e-19 3.44585e-07 1.61154e-20 -3.91981e-11)
(-4.02715e-07 3.20161e-07 -2.43383e-20 4.00026e-07 -8.44206e-21 2.68865e-09)
(-5.69304e-07 9.78761e-08 6.33596e-20 5.68177e-07 6.9746e-21 1.12702e-09)
(-4.66192e-07 1.15852e-07 -1.02754e-19 4.65052e-07 -1.06961e-20 1.14015e-09)
(-3.9673e-07 1.68405e-07 1.57085e-19 3.9531e-07 1.49645e-20 1.41907e-09)
(-3.76597e-07 2.43821e-07 1.01374e-20 3.76711e-07 -8.31666e-21 -1.14343e-10)
(-4.20093e-07 2.91667e-07 7.93686e-21 4.174e-07 1.71449e-21 2.69297e-09)
(-5.63705e-07 1.52747e-07 -1.77898e-20 5.6277e-07 -4.64928e-21 9.35251e-10)
(-4.78797e-07 1.55952e-07 2.01561e-20 4.77852e-07 7.4059e-21 9.45716e-10)
(-4.20057e-07 1.88011e-07 -8.72573e-20 4.18847e-07 -1.5001e-20 1.20996e-09)
(-4.00262e-07 2.40413e-07 -1.4436e-19 4.00446e-07 -1.36983e-20 -1.83973e-10)
(-4.32222e-07 2.69072e-07 -4.63681e-21 4.29519e-07 -3.62096e-21 2.70344e-09)
(-5.5229e-07 1.9893e-07 -2.51198e-20 5.51526e-07 -9.9247e-22 7.63735e-10)
(-4.83658e-07 1.9042e-07 6.07576e-20 4.82887e-07 7.39305e-21 7.71427e-10)
(-4.34895e-07 2.05648e-07 -1.68628e-20 4.33858e-07 2.49439e-21 1.03665e-09)
(-4.16285e-07 2.38846e-07 5.31744e-20 4.16496e-07 1.07979e-20 -2.10441e-10)
(-4.3943e-07 2.51485e-07 -9.15595e-20 4.36695e-07 -6.77271e-21 2.73441e-09)
(-5.36021e-07 2.36922e-07 4.0667e-20 5.35405e-07 5.31134e-21 6.16046e-10)
(-4.81787e-07 2.19419e-07 5.00853e-20 4.8117e-07 3.19881e-21 6.16748e-10)
(-4.42218e-07 2.2113e-07 4.80796e-20 4.41336e-07 4.12299e-21 8.82768e-10)
(-4.25473e-07 2.38543e-07 1.50248e-20 4.25713e-07 1.81169e-21 -2.40765e-10)
(-4.42119e-07 2.37999e-07 8.89834e-20 4.39375e-07 1.3137e-20 2.74394e-09)
(-5.15839e-07 2.67294e-07 6.3851e-21 5.1535e-07 -5.39801e-22 4.892e-10)
(-4.74186e-07 2.43167e-07 -1.39898e-20 4.73708e-07 -4.44412e-21 4.77918e-10)
(-4.42993e-07 2.3429e-07 -5.61096e-20 4.42249e-07 -6.41815e-21 7.44342e-10)
(-4.28599e-07 2.39009e-07 6.50006e-20 4.28862e-07 5.08574e-21 -2.63807e-10)
(-4.40681e-07 2.27835e-07 4.45806e-20 4.37939e-07 1.88066e-21 2.74206e-09)
(-4.92639e-07 2.90689e-07 -2.75342e-21 4.92253e-07 -1.01457e-22 3.86058e-10)
(-4.61833e-07 2.61988e-07 -6.13075e-20 4.6147e-07 -6.02388e-21 3.63271e-10)
(-4.3817e-07 2.45098e-07 3.90199e-20 4.37526e-07 5.15934e-21 6.43625e-10)
(-4.26427e-07 2.39815e-07 -4.75448e-20 4.26696e-07 -8.24891e-21 -2.6925e-10)
(-4.35509e-07 2.20278e-07 -1.68404e-20 4.32771e-07 -5.22083e-21 2.73871e-09)
(-4.67229e-07 3.07779e-07 1.30472e-20 4.66931e-07 1.34438e-21 2.97986e-10)
(-4.45668e-07 2.76204e-07 1.24215e-20 4.45398e-07 4.26446e-21 2.70189e-10)
(-4.28687e-07 2.535e-07 -2.3388e-20 4.28145e-07 -3.58871e-21 5.41642e-10)
(-4.19752e-07 2.40586e-07 -5.34131e-20 4.20036e-07 -2.94856e-21 -2.84121e-10)
(-4.27067e-07 2.14679e-07 -9.81759e-20 4.24354e-07 -8.71522e-21 2.71237e-09)
(-4.40352e-07 3.19244e-07 -1.24735e-20 4.40128e-07 -1.33453e-21 2.23887e-10)
(-4.26557e-07 2.86181e-07 5.91578e-20 4.26367e-07 5.30324e-21 1.89774e-10)
(-4.15403e-07 2.59532e-07 -3.83003e-21 4.14945e-07 -3.76273e-24 4.58036e-10)
(-4.09291e-07 2.4101e-07 6.04251e-20 4.09585e-07 8.29409e-21 -2.93804e-10)
(-4.15781e-07 2.10482e-07 6.18472e-20 4.13107e-07 6.88325e-21 2.67471e-09)
(-4.12667e-07 3.25777e-07 1.93771e-20 4.12495e-07 3.16095e-21 1.71632e-10)
(-4.05282e-07 2.92352e-07 -4.61916e-20 4.05154e-07 -7.71397e-21 1.27716e-10)
(-3.99139e-07 2.6329e-07 -7.08086e-21 3.98741e-07 -2.8694e-22 3.97841e-10)
(-3.95737e-07 2.40873e-07 2.24381e-20 3.96029e-07 2.47906e-21 -2.92141e-10)
(-4.02085e-07 2.0721e-07 -9.55363e-20 3.9945e-07 -1.14912e-20 2.63539e-09)
(-3.84729e-07 3.27999e-07 3.74878e-20 3.84604e-07 3.58287e-21 1.24558e-10)
(-3.82549e-07 2.95078e-07 -6.05428e-20 3.82475e-07 -5.83662e-21 7.4169e-11)
(-3.80635e-07 2.64857e-07 1.67491e-20 3.80298e-07 1.27672e-21 3.37085e-10)
(-3.79765e-07 2.39951e-07 6.4168e-20 3.80069e-07 7.10685e-21 -3.0404e-10)
(-3.86435e-07 2.04438e-07 1.02197e-20 3.8387e-07 2.63591e-21 2.56521e-09)
(-3.56993e-07 3.26541e-07 -2.13755e-20 3.56901e-07 -2.78693e-21 9.20615e-11)
(-3.58958e-07 2.94752e-07 2.72199e-21 3.58918e-07 2.03058e-21 3.93072e-11)
(-3.60534e-07 2.64348e-07 -3.56085e-20 3.60246e-07 -4.42978e-21 2.88254e-10)
(-3.61946e-07 2.38119e-07 2.35003e-20 3.6225e-07 1.70924e-23 -3.04185e-10)
(-3.69218e-07 2.01829e-07 -2.38784e-20 3.66719e-07 -3.45567e-21 2.49948e-09)
(-3.29836e-07 3.21913e-07 2.1477e-20 3.29769e-07 2.7142e-21 6.63641e-11)
(-3.35019e-07 2.91725e-07 3.25429e-20 3.35008e-07 2.74631e-21 1.03195e-11)
(-3.39411e-07 2.61897e-07 -2.21137e-21 3.39157e-07 1.78493e-21 2.53423e-10)
(-3.42814e-07 2.35252e-07 -6.9898e-20 3.43121e-07 -9.30812e-21 -3.0629e-10)
(-3.50833e-07 1.99054e-07 -3.837e-20 3.48413e-07 -3.61904e-21 2.41943e-09)
(-3.03539e-07 3.1457e-07 -8.35165e-21 3.03489e-07 -1.50932e-21 4.98742e-11)
(-3.11133e-07 2.86286e-07 -5.82707e-20 3.11148e-07 -7.48523e-21 -1.49749e-11)
(-3.17747e-07 2.57583e-07 7.86701e-20 3.17526e-07 9.60138e-21 2.20976e-10)
(-3.22831e-07 2.31242e-07 -5.88916e-20 3.23139e-07 -4.12352e-21 -3.08063e-10)
(-3.31622e-07 1.95836e-07 1.48985e-20 3.29293e-07 2.04281e-21 2.32971e-09)
(-2.66921e-07 3.31112e-07 5.03818e-21 2.66903e-07 1.64231e-22 1.82999e-11)
(-2.78299e-07 3.04917e-07 -1.18274e-20 2.78261e-07 -2.13228e-21 3.81079e-11)
(-2.87635e-07 2.78716e-07 -1.23663e-20 2.87664e-07 7.74302e-22 -2.901e-11)
(-2.95931e-07 2.51528e-07 3.37056e-20 2.95732e-07 1.9132e-21 1.99121e-10)
(-3.02386e-07 2.26022e-07 7.80853e-20 3.02689e-07 1.07954e-20 -3.02342e-10)
(-3.11892e-07 1.9194e-07 -1.0902e-20 3.09663e-07 -1.80176e-21 2.22936e-09)
(-2.41896e-07 3.16914e-07 -1.31152e-20 2.41885e-07 -1.23288e-21 1.12712e-11)
(-2.54262e-07 2.93304e-07 -6.45805e-20 2.54237e-07 -7.3039e-21 2.54423e-11)
(-2.64785e-07 2.6926e-07 9.17109e-20 2.64823e-07 1.03373e-20 -3.84867e-11)
(-2.74286e-07 2.4384e-07 -4.59419e-20 2.74112e-07 -5.43448e-21 1.73774e-10)
(-2.81828e-07 2.19541e-07 5.98898e-20 2.82126e-07 5.51921e-21 -2.97261e-10)
(-2.91922e-07 1.87192e-07 -2.29421e-20 2.89806e-07 -2.21114e-21 2.11578e-09)
(-2.18645e-07 3.01273e-07 3.47236e-20 2.18638e-07 4.46281e-21 6.55284e-12)
(-2.31526e-07 2.80114e-07 1.5387e-20 2.31505e-07 2.50876e-21 2.05692e-11)
(-2.4278e-07 2.58221e-07 -4.62066e-20 2.42823e-07 -6.53848e-21 -4.29224e-11)
(-2.53082e-07 2.34717e-07 3.05177e-20 2.52927e-07 3.86249e-21 1.55298e-10)
(-2.61438e-07 2.11881e-07 -7.15436e-21 2.61715e-07 -1.94533e-21 -2.77545e-10)
(-2.71956e-07 1.81523e-07 1.76217e-20 2.69961e-07 2.32321e-21 1.9948e-09)
(-1.97143e-07 2.84632e-07 9.85121e-21 1.97139e-07 4.11661e-22 4.468e-12)
(-2.10173e-07 2.65759e-07 -1.06235e-20 2.10159e-07 -9.90858e-22 1.39366e-11)
(-2.2179e-07 2.4597e-07 1.14432e-20 2.21834e-07 2.14055e-21 -4.43064e-11)
(-2.32559e-07 2.24426e-07 -2.79962e-20 2.32419e-07 -3.16046e-21 1.39779e-10)
(-2.4148e-07 2.03198e-07 -1.91713e-20 2.41744e-07 -2.25789e-21 -2.64132e-10)
(-2.52252e-07 1.74981e-07 -1.21464e-21 2.50391e-07 -1.02899e-22 1.86074e-09)
(-1.77371e-07 2.67485e-07 -3.78937e-20 1.77368e-07 -4.5317e-21 3.82601e-12)
(-1.90271e-07 2.50724e-07 4.30616e-20 1.9026e-07 5.79627e-21 1.03124e-11)
(-2.01959e-07 2.32941e-07 1.84281e-20 2.02005e-07 1.63021e-21 -4.60183e-11)
(-2.1292e-07 2.13344e-07 4.38718e-20 2.12796e-07 5.14049e-21 1.24477e-10)
(-2.22184e-07 1.93801e-07 -1.07645e-20 2.22427e-07 -8.09463e-22 -2.43054e-10)
(-2.33042e-07 1.67784e-07 2.38921e-20 2.31314e-07 2.25787e-21 1.72817e-09)
(-1.59307e-07 2.50327e-07 1.78367e-20 1.59307e-07 2.48237e-21 6.71968e-13)
(-1.71872e-07 2.35496e-07 4.74207e-20 1.71863e-07 5.09256e-21 8.70431e-12)
(-1.83403e-07 2.19601e-07 -4.05577e-20 1.83447e-07 -4.62068e-21 -4.37041e-11)
(-1.94332e-07 2.01888e-07 -3.62126e-20 1.94219e-07 -5.43248e-21 1.12904e-10)
(-2.03746e-07 1.84035e-07 1.53142e-20 2.03967e-07 1.82629e-21 -2.2092e-10)
(-2.14548e-07 1.60199e-07 -5.01063e-20 2.12954e-07 -5.48096e-21 1.59327e-09)
(-1.42902e-07 2.33544e-07 -6.89239e-21 1.42901e-07 -1.60186e-21 5.96439e-13)
(-1.54978e-07 2.20461e-07 -2.12567e-20 1.5497e-07 -2.47431e-21 8.21635e-12)
(-1.66182e-07 2.06314e-07 4.48642e-20 1.66224e-07 5.70533e-21 -4.14419e-11)
(-1.7691e-07 1.9039e-07 -6.42833e-20 1.76806e-07 -7.17404e-21 1.03098e-10)
(-1.86308e-07 1.74191e-07 -1.41787e-20 1.86512e-07 -1.86979e-21 -2.03789e-10)
(-1.96944e-07 1.52482e-07 6.55349e-20 1.95479e-07 7.69059e-21 1.46476e-09)
(-1.28053e-07 2.17297e-07 -7.24393e-20 1.28055e-07 -8.6473e-21 -1.88297e-12)
(-1.39537e-07 2.05783e-07 6.00082e-20 1.39531e-07 7.0124e-21 6.50817e-12)
(-1.50293e-07 1.93234e-07 -1.20715e-20 1.50332e-07 -1.55901e-21 -3.93143e-11)
(-1.60686e-07 1.78988e-07 1.2833e-20 1.60593e-07 2.23966e-21 9.27446e-11)
(-1.69931e-07 1.64382e-07 5.86737e-21 1.70117e-07 1.26811e-22 -1.8569e-10)
(-1.80313e-07 1.44725e-07 -4.97809e-20 1.78967e-07 -6.17585e-21 1.34562e-09)
(-1.146e-07 2.01515e-07 2.27249e-20 1.14601e-07 3.21868e-21 -7.17929e-13)
(-1.25424e-07 1.91396e-07 -6.31308e-20 1.25419e-07 -8.12373e-21 5.66665e-12)
(-1.35649e-07 1.80297e-07 4.08457e-20 1.35685e-07 5.16593e-21 -3.60337e-11)
(-1.45612e-07 1.67605e-07 1.50177e-20 1.45528e-07 1.45863e-21 8.43845e-11)
(-1.54603e-07 1.54496e-07 -7.30846e-20 1.54774e-07 -8.8935e-21 -1.70126e-10)
(-1.64651e-07 1.36804e-07 3.30104e-20 1.63425e-07 4.45988e-21 1.22598e-09)
(-9.1789e-08 1.93991e-07 7.92908e-22 9.17875e-08 -3.72316e-22 1.58296e-12)
(-1.02346e-07 1.8598e-07 -1.49398e-20 1.02348e-07 -1.80937e-21 -1.20005e-12)
(-1.12478e-07 1.77092e-07 1.10501e-20 1.12472e-07 1.99712e-21 6.3301e-12)
(-1.22119e-07 1.67294e-07 1.32637e-20 1.2215e-07 1.25146e-21 -3.06008e-11)
(-1.31588e-07 1.56027e-07 -3.14137e-20 1.31511e-07 -3.56046e-21 7.76025e-11)
(-1.40256e-07 1.44309e-07 -1.45034e-20 1.40405e-07 -1.48999e-21 -1.48984e-10)
(-1.49883e-07 1.28488e-07 1.81093e-20 1.48772e-07 1.7287e-21 1.11106e-09)
(-8.13522e-08 1.77561e-07 -7.07159e-20 8.13521e-08 -8.80578e-21 6.90883e-14)
(-9.11273e-08 1.70551e-07 2.57981e-20 9.11307e-08 3.64605e-21 -3.34381e-12)
(-1.00558e-07 1.62744e-07 2.22582e-20 1.00556e-07 2.40753e-21 2.09507e-12)
(-1.09595e-07 1.54106e-07 -7.54532e-21 1.09627e-07 -1.29373e-21 -3.20125e-11)
(-1.18531e-07 1.4413e-07 4.44267e-20 1.18466e-07 5.90966e-21 6.42504e-11)
(-1.26834e-07 1.33687e-07 -4.56856e-20 1.26964e-07 -4.66684e-21 -1.30106e-10)
(-1.35957e-07 1.19611e-07 -2.38569e-20 1.34977e-07 -3.21615e-21 9.7958e-10)
(-7.18085e-08 1.61411e-07 -1.88493e-21 7.18025e-08 3.04333e-22 6.07133e-12)
(-8.08268e-08 1.55268e-07 4.97555e-20 8.08219e-08 5.99283e-21 4.93812e-12)
(-8.95625e-08 1.48414e-07 -3.89297e-20 8.9553e-08 -4.99028e-21 9.54947e-12)
(-9.79905e-08 1.40805e-07 -4.51143e-20 9.80078e-08 -5.49086e-21 -1.73608e-11)
(-1.06365e-07 1.3199e-07 3.62961e-20 1.06302e-07 4.49063e-21 6.28783e-11)
(-1.14289e-07 1.22698e-07 9.52899e-20 1.1438e-07 1.17854e-20 -9.10929e-11)
(-1.2283e-07 1.1023e-07 -3.28781e-20 1.21971e-07 -4.30995e-21 8.58569e-10)
(-6.31345e-08 1.45794e-07 1.74939e-20 6.31445e-08 2.0331e-21 -9.92806e-12)
(-7.143e-08 1.40406e-07 -2.23725e-21 7.14414e-08 -3.38181e-22 -1.13293e-11)
(-7.94966e-08 1.34384e-07 -4.11288e-21 7.95042e-08 -2.10105e-22 -7.66041e-12)
(-8.73292e-08 1.27677e-07 -2.26152e-21 8.73567e-08 -1.21262e-22 -2.75661e-11)
(-9.51322e-08 1.19892e-07 6.36362e-20 9.50975e-08 7.34377e-21 3.46709e-11)
(-1.02672e-07 1.11627e-07 -1.04167e-20 1.02746e-07 -1.85621e-21 -7.35092e-11)
(-1.1058e-07 1.00601e-07 -8.86348e-20 1.09876e-07 -1.04461e-20 7.04254e-10)
(-5.52322e-08 1.31049e-07 -3.62443e-20 5.522e-08 -4.53852e-21 1.22099e-11)
(-6.28579e-08 1.26319e-07 4.35334e-20 6.28424e-08 5.32178e-21 1.55457e-11)
(-7.02872e-08 1.21027e-07 1.10975e-20 7.02717e-08 1.68753e-21 1.54404e-11)
(-7.75443e-08 1.15115e-07 -2.37262e-20 7.75453e-08 -3.19951e-21 -1.02253e-12)
(-8.47848e-08 1.08242e-07 -3.12162e-20 8.47396e-08 -3.82178e-21 4.52442e-11)
(-9.19387e-08 1.00881e-07 1.12807e-20 9.19487e-08 1.22052e-21 -9.97181e-12)
(-9.92044e-08 9.11175e-08 8.61006e-21 9.85946e-08 1.95352e-21 6.09844e-10)
(-4.82372e-08 1.17607e-07 1.5733e-20 4.82544e-08 1.89986e-21 -1.71288e-11)
(-5.52358e-08 1.13441e-07 -2.51368e-20 5.52478e-08 -3.33828e-21 -1.20036e-11)
(-6.20697e-08 1.08778e-07 6.46792e-20 6.20801e-08 7.75494e-21 -1.04358e-11)
(-6.87717e-08 1.03574e-07 -5.15459e-20 6.87958e-08 -6.22197e-21 -2.41548e-11)
(-7.5473e-08 9.75242e-08 7.22496e-20 7.54647e-08 8.89931e-21 8.27024e-12)
(-8.22053e-08 9.10101e-08 -3.94061e-20 8.22237e-08 -4.98502e-21 -1.83519e-11)
(-8.88897e-08 8.24161e-08 8.0209e-20 8.84267e-08 9.77943e-21 4.62968e-10)
(-4.28116e-08 1.06286e-07 -4.10612e-20 4.28266e-08 -5.52684e-21 -1.49936e-11)
(-4.92795e-08 1.0251e-07 -1.0285e-21 4.92978e-08 -2.7609e-23 -1.83329e-11)
(-5.56185e-08 9.82803e-08 -2.85723e-20 5.56375e-08 -3.67097e-21 -1.9012e-11)
(-6.18767e-08 9.35519e-08 -1.67175e-21 6.19007e-08 1.05348e-22 -2.405e-11)
(-6.8131e-08 8.80558e-08 -1.24697e-20 6.81383e-08 -2.14656e-21 -7.2853e-12)
(-7.45263e-08 8.20947e-08 -2.06086e-20 7.45373e-08 -2.22725e-21 -1.10052e-11)
(-8.07032e-08 7.43952e-08 2.869e-20 8.0369e-08 2.73722e-21 3.34204e-10)
(-3.84158e-08 9.71933e-08 -5.95029e-20 3.84016e-08 -7.21111e-21 1.42099e-11)
(-4.44479e-08 9.36995e-08 -9.13292e-21 4.44379e-08 -9.65395e-22 9.97168e-12)
(-5.03667e-08 8.97887e-08 3.44983e-20 5.03577e-08 4.3789e-21 8.93545e-12)
(-5.62299e-08 8.54055e-08 4.74861e-23 5.62211e-08 -1.32323e-22 8.83484e-12)
(-6.20761e-08 8.03143e-08 -2.99341e-20 6.20601e-08 -3.91343e-21 1.59932e-11)
(-6.81428e-08 7.47601e-08 2.95906e-21 6.81017e-08 1.27752e-21 4.10512e-11)
(-7.38342e-08 6.77405e-08 -4.49839e-20 7.35406e-08 -6.07427e-21 2.93584e-10)
(-3.42976e-08 8.90662e-08 8.51425e-21 3.42955e-08 1.49296e-21 2.09345e-12)
(-3.99141e-08 8.58306e-08 2.60693e-20 3.99082e-08 3.25685e-21 5.87601e-12)
(-4.54367e-08 8.22035e-08 -2.02794e-20 4.54197e-08 -2.701e-21 1.70146e-11)
(-5.08989e-08 7.81445e-08 -2.86005e-20 5.08809e-08 -3.76957e-21 1.80368e-11)
(-5.6356e-08 7.34278e-08 -5.4392e-20 5.63328e-08 -6.20939e-21 2.32044e-11)
(-6.20521e-08 6.82726e-08 1.15405e-19 6.20065e-08 1.38457e-20 4.56122e-11)
(-6.73109e-08 6.18549e-08 -7.70059e-20 6.71046e-08 -8.72077e-21 2.06241e-10)
(-3.0316e-08 8.12216e-08 2.43552e-20 3.03377e-08 3.08567e-21 -2.17289e-11)
(-3.55346e-08 7.82375e-08 -8.48807e-21 3.5566e-08 -1.25807e-21 -3.13887e-11)
(-4.06779e-08 7.48784e-08 7.80172e-21 4.07069e-08 1.01489e-21 -2.89448e-11)
(-4.57685e-08 7.1124e-08 -4.48229e-20 4.58007e-08 -5.56889e-21 -3.21944e-11)
(-5.08622e-08 6.67565e-08 6.79139e-20 5.08882e-08 8.58254e-21 -2.60244e-11)
(-5.62023e-08 6.19689e-08 -6.63609e-20 5.61956e-08 -8.48764e-21 6.71855e-12)
(-6.10411e-08 5.61297e-08 9.14012e-20 6.09002e-08 1.1435e-20 1.40816e-10)
(-2.14401e-08 7.59126e-08 3.3105e-20 2.1356e-08 4.21652e-21 8.41218e-11)
(-2.63351e-08 7.34176e-08 1.69851e-20 2.62453e-08 2.12661e-21 8.9745e-11)
(-3.11358e-08 7.0638e-08 -1.46091e-20 3.10472e-08 -1.92538e-21 8.86168e-11)
(-3.58693e-08 6.75334e-08 -1.31725e-20 3.57913e-08 -1.78621e-21 7.80178e-11)
(-4.06e-08 6.40684e-08 -2.91758e-20 4.05361e-08 -3.34802e-21 6.38784e-11)
(-4.53541e-08 6.00559e-08 -2.90073e-20 4.53256e-08 -3.72695e-21 2.85313e-11)
(-5.03771e-08 5.5691e-08 7.50659e-20 5.03816e-08 9.60269e-21 -4.56561e-12)
(-5.50299e-08 5.05469e-08 -4.2174e-20 5.50977e-08 -5.4912e-21 -6.78354e-11)
(-1.81075e-08 6.77163e-08 -1.66503e-20 1.82941e-08 -2.0463e-21 -1.86556e-10)
(-2.25816e-08 6.5234e-08 2.80706e-20 2.27352e-08 3.27792e-21 -1.53551e-10)
(-2.69619e-08 6.24711e-08 -2.91216e-20 2.7058e-08 -3.37577e-21 -9.60811e-11)
(-3.12458e-08 5.94174e-08 -2.57951e-20 3.12797e-08 -3.35552e-21 -3.39107e-11)
(-3.55274e-08 5.60248e-08 2.39641e-20 3.54761e-08 2.89545e-21 5.13246e-11)
(-3.98171e-08 5.21397e-08 4.7844e-20 3.96701e-08 6.43351e-21 1.46978e-10)
(-4.44505e-08 4.76658e-08 -8.71433e-21 4.40788e-08 -1.67154e-21 3.71698e-10)
(-4.83004e-08 4.26725e-08 2.20063e-20 4.76871e-08 3.02774e-21 6.13273e-10)
(-1.3515e-08 5.75472e-08 5.38058e-20 1.33643e-08 6.86853e-21 1.50661e-10)
(-1.76761e-08 5.52087e-08 -6.32491e-20 1.76857e-08 -8.24247e-21 -9.58828e-12)
(-2.18218e-08 5.26181e-08 7.33506e-20 2.20024e-08 9.43287e-21 -1.80574e-10)
(-2.59551e-08 4.97397e-08 -5.78792e-20 2.63197e-08 -7.22302e-21 -3.64654e-10)
(-3.01284e-08 4.65417e-08 -6.64338e-20 3.06881e-08 -8.50233e-21 -5.59697e-10)
(-3.428e-08 4.29534e-08 9.55123e-20 3.51394e-08 1.20814e-20 -8.59393e-10)
(-3.86631e-08 3.94243e-08 -5.93406e-20 3.99831e-08 -7.53817e-21 -1.32004e-09)
(-4.30633e-08 3.5704e-08 4.67726e-20 4.51653e-08 5.74607e-21 -2.10207e-09)
(-8.17699e-09 4.30712e-08 8.04111e-21 7.36656e-09 7.72237e-22 8.1043e-10)
(-1.13866e-08 4.01433e-08 -5.62089e-20 1.01762e-08 -6.98268e-21 1.21038e-09)
(-1.44957e-08 3.70961e-08 3.66102e-20 1.2892e-08 4.29414e-21 1.60373e-09)
(-1.75594e-08 3.39151e-08 -9.86379e-21 1.55746e-08 -8.56229e-22 1.98478e-09)
(-2.07686e-08 3.04351e-08 -4.06736e-20 1.83427e-08 -4.84515e-21 2.42584e-09)
(-2.42123e-08 2.63809e-08 1.07683e-19 2.11818e-08 1.30538e-20 3.03057e-09)
(-2.86824e-08 2.04024e-08 -5.5958e-20 2.42822e-08 -6.53395e-21 4.40013e-09)
(-3.0628e-08 1.46458e-08 1.13091e-20 2.52011e-08 9.70604e-22 5.42686e-09)
(-5.72728e-09 3.3289e-08 -2.8091e-20 1.05639e-08 -3.50173e-21 -4.83657e-09)
(-9.93663e-09 3.08511e-08 -2.84948e-20 1.54957e-08 -3.41919e-21 -5.55902e-09)
(-1.41498e-08 2.80389e-08 -4.60939e-20 2.03569e-08 -5.98792e-21 -6.20707e-09)
(-1.82381e-08 2.48576e-08 7.92905e-20 2.50776e-08 9.90905e-21 -6.83954e-09)
(-2.20934e-08 2.15608e-08 1.32789e-20 2.96808e-08 1.80106e-21 -7.58734e-09)
(-2.50227e-08 1.85534e-08 -2.57173e-20 3.40521e-08 -3.48227e-21 -9.02934e-09)
(-2.7528e-08 1.83267e-08 6.68494e-20 3.91516e-08 8.38833e-21 -1.16236e-08)