/*--------------------------------*- C++ -*----------------------------------*\
| =========                 |                                                 |
| \\      /  F ield         | OpenFOAM: The Open Source CFD Toolbox           |
|  \\    /   O peration     | Version:  2306                                  |
|   \\  /    A nd           | Website:  www.openfoam.com                      |
|    \\/     M anipulation  |                                                 |
\*---------------------------------------------------------------------------*/
FoamFile
{
    version     2.0;
    format      ascii;
    arch        "LSB;label=32;scalar=64";
    class       volScalarField;
    location    "400";
    object      div(phi);
}
// * * * * * * * * * * * * * * * * * * * * * * * * * * * * * * * * * * * * * //

dimensions      [0 0 -1 0 0 0 0];

internalField   nonuniform List<scalar> 
10720
(
7.2978e-06
-5.52575e-06
4.02755e-06
-3.24416e-06
2.54579e-06
7.53697e-07
3.50126e-06
2.05207e-06
9.43669e-07
-6.67572e-07
-8.99551e-07
-1.17717e-06
-6.90558e-07
-6.37289e-07
-2.73648e-07
-3.39133e-07
-5.2602e-08
-2.22191e-07
2.45062e-07
-9.95345e-09
9.86668e-07
1.13975e-06
4.18501e-06
5.89603e-06
7.83181e-06
5.02294e-06
1.65888e-06
4.48851e-06
4.36188e-06
2.55723e-06
-1.09589e-05
2.35468e-05
4.49926e-06
1.23231e-06
-6.71704e-06
3.0024e-05
7.78176e-05
-2.21103e-05
6.0161e-05
-5.56353e-06
5.9523e-06
-2.68837e-08
1.20606e-06
9.11556e-07
-4.46518e-06
-2.06475e-06
-7.00484e-06
-1.39267e-06
-1.31047e-07
-6.02549e-08
4.70407e-07
3.12558e-07
6.24693e-07
3.56695e-07
5.37886e-07
2.9351e-07
5.83293e-07
2.46103e-07
6.67866e-07
4.81504e-08
3.77549e-07
-1.0411e-06
-1.64719e-06
-1.82074e-06
-1.77087e-06
-1.24171e-06
-1.17548e-06
1.63829e-06
-2.84251e-06
-1.08076e-06
-1.46937e-06
-1.52872e-06
-2.53493e-06
-2.53671e-06
-4.59792e-07
-1.40752e-05
-9.94242e-06
-1.10802e-05
3.4616e-06
-1.53126e-06
2.52432e-06
-2.41342e-06
2.72356e-06
1.4036e-06
2.7899e-06
1.90701e-06
2.37192e-07
-7.74213e-07
-9.73251e-07
-1.06828e-06
-6.44116e-07
-6.16815e-07
-2.48002e-07
-3.05836e-07
2.07863e-08
-3.90812e-08
3.61936e-07
2.6094e-07
7.75309e-07
6.59841e-07
1.58092e-06
1.7972e-06
2.54701e-06
2.53774e-06
1.69613e-06
1.28061e-06
1.78266e-06
2.01752e-06
-4.51458e-06
1.51924e-05
5.7046e-06
6.14816e-06
2.82325e-06
1.28782e-05
7.01174e-05
5.18494e-05
8.16837e-05
-1.06503e-07
2.8095e-06
-1.12042e-06
5.94065e-07
-2.44589e-06
-7.73915e-07
-5.26347e-06
-1.24708e-06
-3.97607e-07
-1.85505e-07
1.06664e-07
2.69611e-07
4.29615e-07
6.44372e-07
5.53774e-07
6.60361e-07
4.72646e-07
6.20212e-07
4.02176e-07
5.85591e-07
1.98141e-07
2.76257e-07
-7.02513e-07
-1.10513e-06
-1.54868e-06
-1.48501e-06
-1.45799e-06
-1.0552e-06
1.16736e-06
-2.17738e-06
-8.77964e-07
-1.38582e-06
-1.37539e-06
-2.69648e-06
-2.73477e-06
-3.48515e-08
-1.39515e-05
-1.19624e-05
-1.88362e-05
-6.47079e-06
4.22156e-06
-4.22104e-06
3.11707e-06
-4.32714e-07
2.91651e-06
2.15054e-06
9.22309e-07
-2.61884e-07
-6.847e-07
-1.24004e-06
-8.81111e-07
-9.0973e-07
-5.33139e-07
-5.28579e-07
-3.26874e-07
-3.14468e-07
-2.40362e-07
-1.20725e-07
-1.27895e-07
2.2764e-07
3.6592e-07
1.37476e-06
1.95291e-06
3.20599e-06
1.9501e-06
1.62185e-06
2.58173e-06
2.90203e-06
1.21162e-06
-5.06022e-06
1.12678e-05
1.45792e-06
-1.78956e-06
-6.78232e-06
1.93416e-05
2.66535e-05
-4.10168e-05
1.39241e-05
4.46242e-06
-2.99063e-06
4.32142e-07
-2.57715e-06
-9.75831e-07
-1.71714e-06
-1.30411e-06
-9.95428e-08
3.44301e-08
-4.5665e-08
1.10147e-07
1.12015e-07
4.71526e-07
4.15542e-07
5.81345e-07
3.99002e-07
4.6951e-07
3.95842e-07
4.00725e-07
4.28292e-07
2.46941e-07
1.8317e-07
-6.34251e-07
-1.20342e-06
-1.60261e-06
-1.4723e-06
-1.48017e-06
-9.83167e-07
1.09779e-06
-2.31968e-06
-9.74691e-07
-1.46018e-06
-1.3314e-06
-2.18193e-06
-2.01359e-06
-1.00192e-06
-1.07245e-05
-6.76641e-06
-5.77058e-06
3.04988e-06
-2.71778e-06
1.3024e-06
-7.69102e-07
2.29548e-06
1.88927e-06
1.3375e-06
4.34684e-07
-3.5427e-07
-9.21769e-07
-1.06651e-06
-8.61924e-07
-8.28006e-07
-4.81683e-07
-5.45254e-07
-2.00093e-07
-2.72648e-07
8.16147e-08
7.42658e-08
4.05644e-07
4.2561e-07
7.37438e-07
9.50528e-07
1.483e-06
1.79998e-06
2.47485e-06
2.0488e-06
1.68644e-06
1.97478e-06
2.05106e-06
-1.39488e-06
1.01561e-05
5.08746e-06
5.2011e-06
3.12012e-06
8.68965e-06
4.65826e-05
3.32277e-05
6.23463e-05
-2.14649e-06
-6.22995e-07
-2.29958e-06
-2.00053e-06
-1.28491e-06
-1.66451e-06
1.61764e-07
2.72225e-07
7.83726e-08
8.69265e-08
-3.39488e-08
1.6711e-07
4.09444e-07
5.51733e-07
6.91734e-07
5.69442e-07
6.08435e-07
4.63731e-07
5.50458e-07
3.84548e-07
3.74263e-07
1.0729e-07
-2.78128e-07
-8.1827e-07
-1.09697e-06
-1.4028e-06
-1.42626e-06
-1.18222e-06
6.48388e-07
-1.73101e-06
-9.31417e-07
-1.38328e-06
-1.41046e-06
-2.65443e-06
-2.59066e-06
-6.00436e-07
-1.38057e-05
-1.25911e-05
-2.00812e-05
1.24821e-06
-2.15292e-07
-1.80208e-07
1.35186e-06
1.30402e-06
1.68679e-06
8.5186e-07
3.39037e-08
-3.87148e-07
-1.00341e-06
-8.31826e-07
-9.96743e-07
-6.55799e-07
-7.50818e-07
-4.79471e-07
-5.28479e-07
-3.38423e-07
-3.59828e-07
-2.2958e-07
-2.19722e-07
-4.71158e-08
1.86998e-07
6.89779e-07
1.45702e-06
2.43211e-06
2.3755e-06
1.60428e-06
3.87607e-06
2.66176e-06
1.3823e-06
-2.91904e-06
7.46714e-06
1.40828e-06
-3.69891e-06
-7.56328e-06
1.97162e-05
1.83939e-05
-4.49581e-05
3.90364e-06
-1.74133e-06
-1.45039e-06
-2.76134e-06
-1.01082e-06
-1.1268e-06
-3.66648e-07
2.30214e-07
4.2221e-07
3.06251e-07
2.16764e-08
-4.65306e-08
1.76694e-07
3.18314e-07
6.46078e-07
5.41026e-07
6.46082e-07
4.18623e-07
5.17906e-07
3.63862e-07
4.57295e-07
2.46526e-07
2.36558e-07
-3.6382e-07
-6.85496e-07
-1.29542e-06
-1.33298e-06
-1.56152e-06
-1.02318e-06
3.79338e-07
-1.44845e-06
-9.77886e-07
-1.19699e-06
-1.25249e-06
-1.71011e-06
-1.63202e-06
-1.69954e-06
-8.77741e-06
-4.30092e-06
-3.06932e-06
-9.06522e-07
7.8508e-08
1.26905e-06
3.20088e-07
1.66043e-06
8.94361e-07
4.22904e-07
1.82863e-08
-6.14531e-07
-7.63025e-07
-8.20702e-07
-7.66124e-07
-6.11274e-07
-6.69391e-07
-4.0899e-07
-4.59249e-07
-1.32401e-07
-1.69061e-07
1.88824e-07
1.46622e-07
4.81123e-07
3.91434e-07
8.10569e-07
8.69959e-07
1.61009e-06
2.11137e-06
2.70723e-06
2.3712e-06
2.94467e-06
2.54143e-06
3.902e-07
8.38923e-06
5.41553e-06
5.1498e-06
3.08032e-06
9.77312e-06
3.92881e-05
2.23896e-05
4.89929e-05
-9.63197e-07
-2.25591e-06
-2.08962e-06
-1.06176e-06
-1.75188e-06
-1.26655e-07
4.98388e-07
4.1283e-07
2.37421e-07
-4.63858e-08
-5.62781e-08
7.45877e-08
3.97319e-07
6.00393e-07
7.05654e-07
6.46016e-07
5.35417e-07
5.46064e-07
4.61518e-07
4.38269e-07
3.16301e-07
1.73069e-07
-9.12454e-08
-4.7643e-07
-7.60569e-07
-1.21039e-06
-1.31036e-06
-1.32933e-06
2.55636e-07
-1.41406e-06
-1.05087e-06
-1.30905e-06
-1.33997e-06
-2.32956e-06
-2.21525e-06
-1.34654e-06
-1.19032e-05
-1.20518e-05
-1.88685e-05
-2.04462e-06
1.50979e-06
9.14322e-08
1.2654e-06
7.46856e-07
5.98661e-07
2.52923e-07
-9.86998e-08
-5.35893e-07
-5.78635e-07
-7.37048e-07
-5.53981e-07
-7.36031e-07
-5.56953e-07
-6.71561e-07
-4.50378e-07
-4.79201e-07
-3.19868e-07
-3.32324e-07
-2.57419e-07
-2.14906e-07
-7.32078e-08
1.6316e-07
6.52612e-07
1.49877e-06
1.65324e-06
1.96346e-06
3.43805e-06
3.45734e-06
9.46478e-07
-1.64097e-06
5.04724e-06
3.51865e-07
-4.60125e-06
-8.92462e-06
2.20049e-05
1.71514e-05
-4.87566e-05
2.20149e-06
-7.36e-07
-2.72442e-06
-6.20704e-07
-1.57735e-06
2.90667e-07
-1.65458e-07
1.44078e-07
4.48537e-07
1.43576e-07
-4.47581e-08
-1.16635e-07
5.43387e-08
4.09025e-07
5.72283e-07
7.37538e-07
5.6455e-07
5.79785e-07
4.28366e-07
5.16507e-07
3.22433e-07
4.20402e-07
1.00363e-07
8.29983e-08
-5.63988e-07
-6.12407e-07
-1.38543e-06
-1.16884e-06
-1.43433e-06
3.81832e-07
-1.29694e-06
-7.43948e-07
-1.12455e-06
-9.36051e-07
-1.40243e-06
-1.08421e-06
-1.80354e-06
-5.32296e-06
-2.26436e-06
1.03298e-07
1.26903e-06
7.57654e-07
8.58487e-07
7.63727e-07
4.92133e-07
3.67439e-07
2.24095e-07
-2.2842e-07
-3.44771e-07
-5.91456e-07
-4.45677e-07
-4.54551e-07
-5.65779e-07
-5.0179e-07
-5.7768e-07
-3.22888e-07
-3.48965e-07
-2.465e-08
-6.51031e-08
2.49384e-07
1.58019e-07
4.1603e-07
3.06455e-07
6.95483e-07
8.94732e-07
1.83446e-06
2.35494e-06
2.90015e-06
3.24964e-06
3.19225e-06
1.43732e-06
6.73453e-06
5.36073e-06
4.74722e-06
2.89349e-06
1.1412e-05
3.61805e-05
1.53125e-05
3.82685e-05
-1.78777e-06
-4.75086e-07
-1.82405e-06
1.99768e-06
-1.19358e-06
-1.07851e-07
2.04873e-07
3.06936e-07
5.70933e-08
-1.40884e-07
-1.74701e-07
7.24991e-08
3.38677e-07
6.56429e-07
6.61591e-07
6.2367e-07
5.20407e-07
5.31207e-07
4.55601e-07
4.3454e-07
2.89365e-07
2.30087e-07
1.32801e-08
-2.05474e-07
-4.94962e-07
-8.9255e-07
-1.12906e-06
-1.22464e-06
-4.49851e-08
-1.23457e-06
-1.29447e-06
-1.37068e-06
-1.33781e-06
-2.04753e-06
-1.94354e-06
-1.96858e-06
-9.87729e-06
-1.09031e-05
-1.57093e-05
2.00826e-07
5.11603e-07
1.07157e-06
5.20502e-07
4.97025e-07
2.68831e-07
6.63865e-08
-1.20501e-08
-3.55982e-07
-2.50592e-07
-3.17048e-07
-4.49636e-07
-4.13151e-07
-6.64598e-07
-5.12825e-07
-5.96097e-07
-3.6818e-07
-4.3049e-07
-2.65181e-07
-3.7902e-07
-2.34841e-07
-3.53685e-07
-1.13167e-07
-6.91744e-08
7.82089e-07
7.07693e-07
1.63172e-06
2.90493e-06
3.34196e-06
9.08894e-07
-6.63108e-07
2.33379e-06
6.11614e-08
-5.74364e-06
-8.7295e-06
2.10946e-05
1.45275e-05
-5.16287e-05
1.28427e-06
1.70694e-07
-1.75295e-06
1.4067e-06
-2.76969e-06
9.81245e-07
-1.24242e-07
-1.50075e-09
2.53293e-08
5.07779e-08
-1.92238e-07
-1.79997e-07
3.78768e-08
3.575e-07
6.11645e-07
6.35085e-07
5.99179e-07
4.8932e-07
5.37974e-07
4.15966e-07
4.64953e-07
2.6975e-07
3.20287e-07
2.2715e-08
-5.89169e-08
-5.18941e-07
-7.23078e-07
-1.17928e-06
-1.0125e-06
3.55883e-09
-8.01365e-07
-1.04391e-06
-8.28427e-07
-8.82358e-07
-9.43003e-07
-8.34067e-07
-1.91486e-06
-3.16141e-06
-2.89284e-07
2.21795e-06
9.48497e-07
1.672e-06
9.71268e-07
9.061e-07
3.6946e-07
2.18373e-07
1.333e-07
-1.17097e-07
-2.55346e-09
-8.04005e-07
7.24386e-08
-2.20734e-07
-3.72234e-07
-5.20434e-07
-4.48412e-07
-4.65988e-07
-2.51877e-07
-2.05268e-07
2.64179e-09
3.82271e-08
1.63838e-07
1.62683e-07
1.99333e-07
3.31961e-07
5.58522e-07
1.24316e-06
1.84426e-06
2.80818e-06
3.15216e-06
3.72307e-06
1.78956e-06
5.82768e-06
5.3384e-06
4.2982e-06
2.62955e-06
1.119e-05
2.90486e-05
1.0423e-05
2.97387e-05
-1.15045e-06
-4.40894e-08
-1.94106e-06
1.9285e-06
-1.18755e-06
8.05626e-08
-1.06396e-07
6.43717e-07
-2.06373e-07
-2.57388e-07
-1.91138e-07
1.5882e-08
3.87618e-07
5.41869e-07
6.18058e-07
4.95209e-07
5.34888e-07
4.56601e-07
5.14369e-07
3.47855e-07
3.5688e-07
1.79719e-07
1.65775e-07
-1.02553e-07
-1.9194e-07
-6.39793e-07
-7.45453e-07
-1.01949e-06
-1.42311e-07
-1.17099e-06
-1.43523e-06
-1.5644e-06
-1.44644e-06
-1.85496e-06
-1.81124e-06
-2.52811e-06
-8.27783e-06
-9.69004e-06
-1.25413e-05
1.07931e-06
5.58682e-07
4.69285e-07
1.26482e-07
4.30659e-07
1.93807e-07
2.29563e-07
3.16325e-07
-1.09404e-06
3.40985e-07
-1.83612e-07
8.67432e-08
-3.43636e-07
-3.98252e-07
-6.04573e-07
-4.44269e-07
-5.31912e-07
-2.86878e-07
-4.39567e-07
-2.20067e-07
-4.7897e-07
-2.08397e-07
-5.94273e-07
-3.96234e-08
-2.58463e-07
6.21436e-07
3.02764e-07
2.70155e-06
1.97307e-06
1.87869e-06
-1.79398e-06
1.23849e-06
-1.0697e-06
-5.72917e-06
-8.07265e-06
1.77086e-05
1.25639e-05
-5.02622e-05
2.35724e-06
-1.82438e-07
-6.74251e-07
-1.33738e-07
-3.47056e-07
9.51038e-07
-6.29239e-07
7.14234e-07
-3.00632e-08
-1.79062e-07
-3.45953e-07
-2.38493e-07
5.02747e-08
3.18854e-07
5.28419e-07
5.14238e-07
4.96172e-07
4.78477e-07
4.85515e-07
4.78555e-07
3.9032e-07
3.56676e-07
2.48249e-07
2.29028e-07
-7.09095e-09
-7.71543e-08
-5.25391e-07
-5.5678e-07
-8.54559e-07
1.23694e-07
-7.48839e-07
-8.62447e-07
-1.05523e-06
-6.18786e-07
-7.91594e-07
-5.15347e-07
-1.66461e-06
-1.19523e-06
8.84752e-07
2.90537e-06
2.91409e-07
9.45208e-07
2.62431e-07
1.00784e-07
2.25726e-08
2.49142e-07
4.02957e-07
-5.56456e-07
6.49015e-07
-9.46679e-07
3.37983e-07
1.64384e-07
-1.63064e-07
-3.22711e-07
-4.32335e-07
-4.52146e-07
-3.23879e-07
-2.49212e-07
-5.80892e-08
-4.12559e-08
1.14291e-07
4.0763e-08
1.48546e-07
1.1673e-07
3.68808e-07
7.15559e-07
1.31502e-06
2.21539e-06
2.81392e-06
3.53664e-06
1.96779e-06
5.15031e-06
5.58645e-06
4.06068e-06
2.46376e-06
1.02937e-05
2.17375e-05
6.45719e-06
2.23999e-05
-2.6924e-07
-2.32272e-07
-2.06963e-07
1.30055e-07
-2.31782e-07
3.77343e-07
-2.61018e-07
4.5882e-07
-3.59511e-07
-4.67036e-07
-2.51271e-07
5.49832e-08
2.98679e-07
4.61567e-07
4.27001e-07
4.6122e-07
4.16665e-07
5.26963e-07
4.04145e-07
4.26397e-07
2.56537e-07
2.92286e-07
1.24938e-07
1.08704e-07
-1.04738e-07
-2.64074e-07
-4.94908e-07
-5.88186e-07
-2.63315e-07
-9.5133e-07
-1.50719e-06
-1.66003e-06
-1.67234e-06
-1.80343e-06
-1.73997e-06
-2.83343e-06
-6.92709e-06
-8.32507e-06
-9.80549e-06
4.66982e-07
3.45173e-07
1.29263e-07
5.83543e-08
1.5024e-07
1.51622e-07
6.98537e-08
3.99313e-07
-1.4489e-06
7.03885e-07
1.62835e-07
7.78719e-08
-6.68605e-08
-3.45273e-07
-4.11749e-07
-5.7254e-07
-4.27169e-07
-4.81511e-07
-2.70278e-07
-4.19725e-07
-2.25579e-07
-4.90014e-07
-2.80819e-07
-5.49824e-07
-8.21373e-08
-3.4636e-07
3.04099e-07
9.10451e-07
1.75923e-06
7.09015e-07
-1.63806e-06
-3.29775e-07
-1.60133e-06
-6.15157e-06
-7.2975e-06
1.42502e-05
1.05414e-05
-4.5548e-05
2.3108e-06
-1.45275e-08
-1.4377e-07
3.96455e-08
-8.324e-08
1.39777e-07
-1.0934e-07
7.47087e-07
-2.33347e-07
-3.06428e-07
-3.64719e-07
-1.74671e-07
3.73084e-08
3.00786e-07
3.47478e-07
4.12341e-07
3.67788e-07
4.64473e-07
4.49711e-07
4.71186e-07
3.69396e-07
3.47599e-07
2.83461e-07
2.5584e-07
1.60062e-07
7.22856e-08
-1.40976e-07
-2.29479e-07
-3.69324e-07
1.09868e-07
-4.57387e-07
-8.83128e-07
-8.52122e-07
-8.18945e-07
-4.58127e-07
-4.23153e-07
-1.39947e-06
-5.26853e-08
1.7253e-06
3.29012e-06
3.19051e-07
3.13486e-07
1.35268e-07
1.85554e-08
5.75946e-08
2.62318e-07
2.91295e-07
-2.57713e-07
2.05848e-07
-6.87683e-07
1.45961e-07
8.58096e-08
1.88513e-08
-2.1248e-07
-4.28721e-07
-4.22947e-07
-4.69437e-07
-1.99953e-07
-2.279e-07
4.58725e-08
-5.28289e-08
1.5912e-07
-2.26227e-08
2.17111e-07
7.59182e-08
5.51077e-07
6.52178e-07
1.71943e-06
1.96551e-06
3.07715e-06
1.76123e-06
4.77211e-06
5.38807e-06
4.19114e-06
2.05685e-06
9.20287e-06
1.53222e-05
3.42464e-06
1.64084e-05
4.74686e-08
1.38172e-08
-3.37597e-08
1.44172e-07
-6.72448e-08
1.41063e-07
2.25227e-08
3.75021e-07
-3.9036e-07
-2.67596e-07
-1.53665e-07
7.67556e-08
2.41365e-07
2.97254e-07
3.34939e-07
3.35505e-07
4.56207e-07
4.24326e-07
4.52122e-07
3.20241e-07
3.36042e-07
2.17867e-07
2.40408e-07
1.0704e-07
9.35351e-08
-1.19748e-07
-1.59163e-07
-3.39676e-07
-1.69332e-07
-8.25918e-07
-1.26871e-06
-1.72462e-06
-1.74872e-06
-1.93892e-06
-1.7347e-06
-3.04228e-06
-5.73543e-06
-6.97755e-06
-7.49201e-06
2.7239e-07
2.79278e-07
1.08963e-08
6.83431e-08
1.58796e-07
1.60102e-07
1.20178e-07
1.98332e-07
-1.80809e-07
-9.18638e-08
3.49669e-07
7.64089e-08
6.10127e-09
-1.9375e-07
-4.31944e-07
-5.42148e-07
-5.25955e-07
-4.23772e-07
-3.68114e-07
-2.69077e-07
-3.1245e-07
-2.52229e-07
-4.08566e-07
-2.94829e-07
-4.5185e-07
-2.56658e-07
-4.95372e-07
4.34093e-07
2.47399e-07
3.79985e-07
-2.19554e-06
-1.21615e-06
-2.023e-06
-6.97552e-06
-6.57098e-06
1.10665e-05
1.0496e-05
-4.09244e-05
3.00187e-06
1.23843e-07
5.12162e-08
8.1056e-08
-5.00579e-08
1.10002e-07
-2.42497e-08
1.14427e-07
-9.41534e-08
-2.90141e-07
-3.07294e-07
-1.03541e-07
8.93816e-08
1.72641e-07
2.79901e-07
2.47491e-07
3.77862e-07
3.73626e-07
4.742e-07
3.67938e-07
3.8697e-07
2.90491e-07
3.18489e-07
2.51536e-07
2.5759e-07
1.70983e-07
1.09452e-07
1.08316e-08
6.98357e-09
1.18014e-07
-2.13312e-07
-6.19136e-07
-8.00139e-07
-6.8949e-07
-4.72857e-07
-2.21374e-07
-1.04756e-06
8.47322e-07
2.25601e-06
2.83702e-06
2.79525e-07
1.74161e-07
1.11644e-07
8.40898e-09
6.40543e-08
2.77756e-07
2.7264e-07
-1.57322e-07
6.7739e-08
9.72169e-08
-1.76292e-07
4.10461e-07
-8.22968e-08
-1.32907e-07
-3.93902e-07
-5.36076e-07
-3.71232e-07
-3.59332e-07
-8.1705e-08
-1.35233e-07
1.26117e-07
-1.88444e-08
1.92721e-07
-1.49063e-09
2.27656e-07
1.25271e-07
5.21522e-07
9.07829e-07
1.46978e-06
2.06582e-06
1.73732e-06
3.99668e-06
5.10339e-06
3.9891e-06
1.75794e-06
7.75011e-06
1.06959e-05
1.3197e-06
1.24021e-05
1.24687e-07
8.25213e-08
2.17511e-08
1.15553e-07
-5.99888e-08
8.52705e-08
-3.03209e-10
-2.44114e-09
-8.81374e-08
-1.69302e-07
-3.32158e-08
6.76669e-08
1.36427e-07
1.96848e-07
2.38223e-07
3.44261e-07
3.85165e-07
4.23289e-07
3.47015e-07
3.48302e-07
2.53546e-07
2.80333e-07
1.82615e-07
2.15128e-07
8.22592e-08
8.24221e-08
-7.30841e-08
-6.54211e-08
-2.04135e-07
-5.3506e-07
-1.07761e-06
-1.48623e-06
-1.80261e-06
-1.96935e-06
-1.8203e-06
-2.99771e-06
-4.69208e-06
-5.59689e-06
-5.7208e-06
2.18141e-07
2.20365e-07
-1.7652e-08
7.07573e-08
1.73897e-07
1.50718e-07
1.13819e-07
2.47677e-07
-1.82014e-07
-1.25352e-07
2.97022e-07
-1.75064e-08
2.83675e-07
-1.43379e-07
-4.37237e-07
-4.89639e-07
-5.19464e-07
-3.46169e-07
-3.36098e-07
-1.97461e-07
-2.34639e-07
-1.69287e-07
-2.89181e-07
-2.55139e-07
-4.08574e-07
-3.91927e-07
-6.6133e-07
-2.02443e-07
-5.0143e-07
-3.00138e-07
-2.40344e-06
-1.3536e-06
-2.76999e-06
-6.39184e-06
-6.93897e-06
8.37589e-06
9.82153e-06
-3.54513e-05
3.10355e-06
1.43036e-07
9.31796e-08
8.29177e-08
-3.78541e-08
7.5111e-08
-4.54322e-08
5.3098e-08
2.41099e-09
-5.29803e-08
-1.41774e-07
-8.16145e-08
-2.41942e-08
1.37368e-07
1.27519e-07
2.69544e-07
2.78583e-07
4.12701e-07
3.29332e-07
3.74685e-07
2.71814e-07
3.09699e-07
2.43622e-07
2.84129e-07
2.36225e-07
2.58249e-07
1.66327e-07
2.00961e-07
1.11441e-07
2.25184e-07
-1.07937e-07
-2.51615e-07
-6.47036e-07
-5.05101e-07
-4.47582e-07
2.90335e-08
-6.16487e-07
1.37437e-06
2.26606e-06
2.57004e-06
2.31377e-07
1.26521e-07
1.01735e-07
2.73194e-09
8.28665e-08
2.66204e-07
2.65175e-07
-1.35133e-07
6.52687e-08
6.30365e-08
-1.2319e-07
1.33445e-07
5.37049e-08
-2.5303e-07
-3.37329e-07
-4.17972e-07
-3.74893e-07
-1.85641e-07
-1.72711e-07
1.40532e-08
7.16796e-09
1.40862e-07
7.38805e-08
1.39734e-07
6.8513e-08
1.20752e-07
2.27841e-07
5.30971e-07
9.20782e-07
1.31544e-06
1.58579e-06
3.2719e-06
4.42108e-06
3.68133e-06
1.41747e-06
6.01601e-06
6.64488e-06
3.26789e-08
9.31345e-06
1.2628e-07
9.30319e-08
3.47016e-08
9.07537e-08
-5.74685e-08
4.5288e-08
-2.48914e-08
4.45585e-08
9.6143e-09
-5.05674e-08
-1.03405e-07
2.28147e-07
-4.3853e-08
1.01153e-07
2.20972e-07
3.03204e-07
3.4603e-07
3.19758e-07
3.17715e-07
2.51422e-07
2.67795e-07
1.96965e-07
2.28795e-07
1.44132e-07
1.39146e-07
7.07257e-08
3.08355e-08
-2.81453e-08
-1.38175e-07
-3.91975e-07
-8.10785e-07
-1.21309e-06
-1.67326e-06
-1.88022e-06
-1.94564e-06
-2.79688e-06
-3.73134e-06
-4.40152e-06
-4.22325e-06
1.7914e-07
1.83984e-07
-3.34248e-08
8.68172e-08
1.66477e-07
1.36166e-07
9.77539e-08
2.48526e-07
-1.4547e-07
-9.3263e-08
1.16038e-07
5.78482e-08
-1.50953e-08
-5.09597e-08
-2.73758e-07
-3.97493e-07
-2.8122e-07
-3.11376e-07
-1.51913e-07
-2.28249e-07
-5.34397e-08
-1.93495e-07
-7.37169e-08
-3.01607e-07
-1.9944e-07
-5.59371e-07
-4.66832e-07
-7.56305e-07
-5.05412e-07
-1.14513e-06
-1.59098e-06
-1.82023e-06
-2.32255e-06
-6.11022e-06
-6.64479e-06
6.17663e-06
9.56863e-06
-3.07877e-05
3.24929e-06
1.29824e-07
9.2659e-08
7.12886e-08
-3.36445e-08
5.64933e-08
-6.37254e-08
5.25404e-08
-1.8695e-10
3.84465e-08
-6.88826e-08
2.15176e-07
-2.63586e-07
-9.68175e-09
5.53418e-08
1.4708e-07
3.11559e-07
2.53273e-07
3.20337e-07
2.22218e-07
2.70035e-07
1.93562e-07
2.44064e-07
1.94482e-07
2.42747e-07
1.67539e-07
2.34394e-07
1.36801e-07
2.39586e-07
1.06145e-07
1.32625e-07
-2.07841e-07
-2.09279e-07
-5.07581e-07
-1.44854e-07
7.66024e-10
-3.37427e-07
1.56009e-06
2.26105e-06
1.92334e-06
1.89473e-07
9.35417e-08
1.01537e-07
5.42379e-09
7.04289e-08
2.55168e-07
2.38713e-07
-1.18653e-07
1.06317e-07
2.92558e-08
-1.43726e-07
-4.33118e-08
-7.25322e-08
-1.56557e-07
-3.07388e-07
-2.63278e-07
-1.34568e-07
-1.12295e-07
-7.19797e-08
-1.50847e-08
6.45942e-08
1.19358e-07
1.30985e-07
1.23439e-07
8.81359e-08
6.80187e-08
1.56381e-07
2.8643e-07
6.3731e-07
8.38325e-07
1.50581e-06
2.53795e-06
3.6758e-06
3.08559e-06
1.07454e-06
4.30239e-06
3.61414e-06
-9.51905e-07
7.17856e-06
1.10894e-07
7.68701e-08
3.18865e-08
7.01235e-08
-6.26991e-08
2.968e-08
-5.15814e-08
7.40045e-08
-2.29156e-09
8.45775e-08
-1.41562e-07
2.76292e-07
-1.96904e-07
-2.46252e-08
1.51527e-07
2.21906e-07
2.48337e-07
2.4141e-07
2.13455e-07
2.1616e-07
1.74156e-07
1.94336e-07
1.42778e-07
1.04418e-07
7.46807e-08
5.01952e-08
8.79798e-09
-2.52068e-08
-1.46876e-07
-2.85268e-07
-6.53329e-07
-9.21035e-07
-1.48094e-06
-1.65636e-06
-1.9909e-06
-2.37312e-06
-2.91426e-06
-3.19845e-06
-3.03847e-06
1.45703e-07
1.57258e-07
-3.40353e-08
7.93583e-08
1.58067e-07
1.19597e-07
9.2358e-08
2.56213e-07
-1.15611e-07
-1.36621e-07
9.61333e-08
-1.52009e-07
-6.7374e-08
-2.57741e-07
-1.64318e-07
-2.11202e-08
-1.59141e-07
-8.30285e-08
-1.70865e-07
-5.85535e-08
-1.12583e-07
4.70467e-09
-1.17427e-07
-5.98378e-08
-2.55058e-07
-2.81676e-07
-5.41764e-07
-5.43887e-07
-7.47128e-07
-9.04614e-07
-1.34034e-06
-1.37468e-06
-2.18401e-06
-4.87941e-06
-6.3071e-06
4.59736e-06
9.18623e-06
-2.53048e-05
3.15073e-06
1.063e-07
7.83222e-08
5.5122e-08
-3.64566e-08
3.51425e-08
-7.66322e-08
3.75413e-08
-1.69185e-08
3.44305e-08
-1.74024e-08
2.11661e-07
-3.45001e-07
-1.729e-08
-2.18335e-08
1.64746e-07
1.48699e-07
2.29969e-07
1.51171e-07
2.05939e-07
1.27191e-07
1.789e-07
1.2328e-07
1.52249e-07
8.72117e-08
1.39509e-07
1.0064e-07
1.48666e-07
1.14169e-07
1.41246e-07
6.11005e-08
-2.19391e-08
-1.34763e-07
-2.26179e-07
-8.16256e-08
1.46851e-07
1.97977e-07
1.93531e-06
1.90346e-06
1.69764e-06
1.53426e-07
7.77618e-08
9.37374e-08
-3.98201e-09
7.22967e-08
2.31817e-07
2.30231e-07
-1.02639e-07
9.0325e-08
3.60467e-08
-2.36708e-07
-7.21983e-08
-1.69861e-07
-7.87377e-08
1.95335e-08
-5.24721e-07
6.4842e-08
-2.08682e-10
-3.54443e-08
-1.74352e-08
8.92316e-08
1.2315e-07
1.71509e-07
1.43411e-07
1.2319e-07
1.02859e-07
1.53047e-07
2.42709e-07
4.98206e-07
6.88772e-07
1.34791e-06
1.99656e-06
2.9402e-06
2.45009e-06
8.25117e-07
3.02378e-06
1.54674e-06
-1.60382e-06
5.44049e-06
9.2472e-08
6.52239e-08
2.37981e-08
5.1741e-08
-6.65321e-08
1.74359e-08
-7.07054e-08
5.31143e-08
7.49337e-09
5.86612e-08
-1.25251e-07
1.40471e-07
-1.872e-07
4.50943e-08
8.84905e-08
1.54474e-07
1.48562e-07
1.48052e-07
1.31493e-07
1.20227e-07
1.28228e-07
1.03279e-07
4.8334e-08
1.07389e-08
-1.00669e-08
-1.03686e-08
-3.90567e-08
-7.16647e-08
-1.67795e-07
-2.65628e-07
-5.45626e-07
-7.30253e-07
-1.24597e-06
-1.39042e-06
-1.8195e-06
-1.90266e-06
-2.13277e-06
-2.20332e-06
-2.06443e-06
1.27568e-07
1.34179e-07
-3.61292e-08
8.40542e-08
1.38808e-07
1.01574e-07
8.34465e-08
2.38052e-07
-1.08262e-07
-1.35718e-07
3.56582e-08
-1.49968e-07
-1.02901e-07
9.15273e-08
-6.66637e-07
4.26688e-07
2.82123e-07
8.83166e-08
-2.51014e-08
-7.68517e-08
1.02253e-09
2.24769e-09
4.49813e-08
-2.8721e-08
-4.45741e-08
-2.01706e-07
-2.64393e-07
-4.65612e-07
-4.59218e-07
-7.75369e-07
-7.7798e-07
-1.14022e-06
-1.66391e-06
-3.63105e-06
-5.45812e-06
3.69873e-06
7.36018e-06
-2.10077e-05
3.23179e-06
8.90675e-08
6.37572e-08
4.17614e-08
-3.78384e-08
2.62275e-08
-8.55219e-08
2.52042e-08
-3.96034e-08
4.09404e-08
6.50361e-09
2.93547e-08
-3.22068e-08
-9.4275e-08
7.28871e-08
7.06173e-08
1.51263e-07
7.66552e-08
1.35612e-07
6.15723e-08
1.0955e-07
5.60132e-08
5.70369e-08
-1.17065e-08
-2.10681e-09
-2.57254e-09
3.88289e-08
3.76e-08
6.76737e-08
3.17081e-08
5.85791e-08
-6.01611e-08
-7.71754e-10
-1.70451e-07
1.01021e-07
2.49487e-07
2.92593e-07
1.76949e-06
1.91934e-06
1.25e-06
1.3542e-07
6.58955e-08
9.79766e-08
-5.5128e-10
5.59552e-08
2.13841e-07
2.0015e-07
-9.67113e-08
9.11832e-08
1.99702e-08
-2.32611e-07
-9.17301e-08
1.06208e-08
-2.39805e-07
4.3628e-07
-3.33916e-07
4.2298e-07
3.38546e-07
6.01906e-08
3.55233e-08
7.53397e-08
1.76913e-07
1.77904e-07
2.13879e-07
1.44388e-07
1.97157e-07
1.61465e-07
3.17254e-07
4.20362e-07
6.88868e-07
1.14914e-06
1.61245e-06
2.34502e-06
1.85101e-06
9.20756e-07
2.07953e-06
3.60495e-07
-1.9672e-06
4.21148e-06
7.42058e-08
4.88654e-08
1.73546e-08
3.89594e-08
-6.7628e-08
6.14905e-09
-8.62125e-08
4.18405e-08
1.01163e-08
3.57377e-08
-3.66392e-08
-5.0358e-08
1.96957e-08
-4.26279e-08
7.80602e-08
3.90851e-08
1.7303e-07
3.99714e-08
6.89562e-08
5.43072e-08
4.34205e-08
-9.41602e-09
-5.60364e-08
-1.00925e-07
-7.76185e-08
-7.65259e-08
-7.99066e-08
-1.28387e-07
-1.89744e-07
-2.82607e-07
-4.72605e-07
-6.14633e-07
-1.02721e-06
-1.12508e-06
-1.59428e-06
-1.46539e-06
-1.54552e-06
-1.43902e-06
-1.43236e-06
1.04522e-07
1.32608e-07
-2.65297e-08
7.74317e-08
1.2539e-07
8.54623e-08
7.4165e-08
2.23364e-07
-1.00416e-07
-1.44682e-07
4.0646e-08
-9.54822e-08
-2.36337e-08
2.82103e-07
-2.62251e-07
1.00173e-06
4.29177e-07
2.44833e-07
2.23091e-08
-1.1491e-08
2.49137e-08
8.5437e-08
9.53379e-08
9.69835e-08
4.75825e-08
-2.61179e-09
-1.20517e-07
-1.88063e-07
-2.95038e-07
-4.17781e-07
-4.7999e-07
-7.65381e-07
-1.14724e-06
-2.67065e-06
-3.92998e-06
2.53992e-06
4.89007e-06
-1.5699e-05
3.05726e-06
7.60564e-08
4.95147e-08
3.02904e-08
-3.76724e-08
1.41388e-08
-8.83138e-08
1.00335e-08
-5.03534e-08
3.69292e-08
1.23193e-08
3.29124e-08
-1.12109e-08
-2.62301e-08
2.18774e-08
2.7117e-08
2.3059e-07
7.95982e-08
5.06637e-08
1.69218e-08
3.38822e-09
-9.07483e-09
-8.04719e-08
-1.19789e-07
-1.23177e-07
-8.13873e-08
-4.01415e-08
-2.22084e-08
-1.82156e-08
-2.6057e-08
-1.52907e-08
-6.43794e-08
-5.85713e-09
-1.05613e-07
1.58118e-07
2.2071e-07
4.17041e-07
1.67432e-06
1.55412e-06
1.02056e-06
1.28096e-07
6.92392e-08
9.40097e-08
-4.03426e-09
5.72757e-08
1.87846e-07
1.84711e-07
-9.4777e-08
7.54183e-08
2.67544e-08
-2.0449e-07
2.44165e-10
1.26889e-07
2.13474e-08
7.16926e-07
1.30829e-07
8.75065e-07
1.70185e-07
6.90364e-08
2.00701e-08
1.3025e-07
1.54727e-07
2.48138e-07
1.95337e-07
2.37432e-07
1.8801e-07
2.57573e-07
2.99456e-07
4.35128e-07
6.36449e-07
9.66651e-07
1.34457e-06
1.81532e-06
1.43437e-06
1.54473e-06
1.61404e-06
2.68142e-08
-1.67964e-06
3.26187e-06
5.16648e-08
4.18358e-08
1.25795e-08
2.93999e-08
-6.5181e-08
8.94685e-10
-9.30261e-08
3.52498e-08
1.25074e-08
2.70571e-08
-4.68846e-08
-1.36618e-08
3.0806e-08
-2.2678e-08
2.71448e-07
1.48194e-07
1.53842e-07
-1.9056e-08
1.76687e-08
-5.22548e-08
-7.42572e-08
-1.09068e-07
-1.6546e-07
-1.56482e-07
-1.26736e-07
-1.02713e-07
-1.11645e-07
-1.56868e-07
-2.02984e-07
-2.89325e-07
-4.09613e-07
-5.40835e-07
-8.17884e-07
-9.43187e-07
-1.2578e-06
-1.10343e-06
-1.1007e-06
-9.92517e-07
-1.05114e-06
8.22556e-08
1.2452e-07
-1.79837e-08
8.30891e-08
1.10136e-07
7.08891e-08
6.15011e-08
1.95895e-07
-9.24212e-08
-1.23052e-07
7.70957e-08
-2.09087e-09
1.11294e-07
3.93516e-07
1.48929e-07
6.88864e-07
2.19532e-07
1.61583e-07
-4.85577e-09
2.02515e-08
4.57657e-08
1.31155e-07
1.31059e-07
1.65595e-07
1.26883e-07
1.13552e-07
2.51113e-08
-1.32463e-08
-1.11827e-07
-1.59546e-07
-2.45729e-07
-4.2045e-07
-7.67688e-07
-1.72963e-06
-2.65391e-06
1.78243e-06
2.64375e-06
-1.16529e-05
2.93729e-06
7.37762e-08
2.99647e-08
2.30886e-08
-3.44099e-08
1.18257e-08
-8.74275e-08
7.23404e-09
-5.78012e-08
2.90537e-08
5.84374e-10
3.54688e-08
1.10308e-08
-7.60593e-08
2.9415e-07
-1.71477e-08
3.75262e-07
-2.9983e-08
1.67636e-07
-1.81565e-07
-8.15209e-08
-1.54978e-07
-1.89012e-07
-1.97658e-07
-1.76865e-07
-1.14282e-07
-7.79101e-08
-6.4211e-08
-6.95124e-08
-6.78862e-08
-6.7953e-08
-7.52725e-08
-3.73804e-08
-6.39025e-08
1.23611e-07
2.65654e-07
3.30271e-07
1.24139e-06
1.2967e-06
7.19803e-07
2.04778e-07
3.6941e-08
8.96898e-08
4.16185e-09
4.69083e-08
1.70519e-07
1.55267e-07
-8.70547e-08
7.11875e-08
3.80251e-08
-1.29534e-07
7.43408e-08
2.05648e-07
1.44549e-07
6.48435e-07
7.22173e-08
7.14529e-07
-3.37321e-07
2.99154e-09
4.3283e-08
9.27426e-08
1.92077e-07
2.10038e-07
2.37688e-07
2.12082e-07
2.29069e-07
2.40389e-07
3.04569e-07
3.86082e-07
5.68385e-07
7.85208e-07
1.09499e-06
1.43393e-06
9.58012e-07
2.22583e-06
1.24561e-06
1.5894e-07
-1.15786e-06
2.55433e-06
-3.00491e-08
1.05249e-08
3.25537e-09
2.2694e-08
-6.09117e-08
-2.95794e-09
-9.425e-08
2.48163e-08
-1.47806e-09
1.88124e-08
-4.92507e-08
-6.27411e-08
2.0294e-07
-1.62102e-07
7.63247e-07
-2.98039e-08
3.59057e-07
-2.49573e-07
-8.94041e-08
-2.39729e-07
-2.38664e-07
-2.2736e-07
-2.06912e-07
-1.72375e-07
-1.21438e-07
-1.04002e-07
-1.16784e-07
-1.55302e-07
-1.94842e-07
-2.68333e-07
-3.46253e-07
-4.63249e-07
-6.45326e-07
-7.51983e-07
-9.85801e-07
-8.4306e-07
-8.56885e-07
-7.78879e-07
-8.8696e-07
-5.02981e-08
2.4085e-07
5.90445e-10
7.73492e-08
1.02108e-07
6.05934e-08
5.44472e-08
1.79011e-07
-8.02336e-08
-8.94218e-08
1.06089e-07
6.10986e-08
1.60883e-07
4.26055e-07
8.59623e-08
6.36569e-07
-3.05785e-07
4.84294e-07
1.73819e-07
7.4776e-08
1.268e-07
1.19679e-07
1.86528e-07
1.56572e-07
1.983e-07
1.41038e-07
1.36529e-07
6.35737e-08
4.38092e-08
-1.67849e-08
-5.84546e-08
-1.66379e-07
-5.25484e-07
-9.25006e-07
-2.26877e-07
1.22823e-06
7.51775e-07
-7.87094e-06
2.63844e-06
3.54256e-08
-2.82003e-08
3.5328e-09
-3.35678e-08
6.46277e-09
-8.27108e-08
9.53372e-10
-6.49757e-08
1.63195e-08
-1.46091e-08
2.4259e-08
3.68389e-08
-1.34355e-07
4.51833e-07
-1.293e-07
4.02347e-07
-1.2967e-08
-1.22317e-07
-2.03694e-07
-3.659e-07
-2.85083e-07
-2.32218e-07
-2.19598e-07
-1.599e-07
-1.10809e-07
-8.17484e-08
-8.12587e-08
-8.75869e-08
-9.13792e-08
-8.97216e-08
-8.48249e-08
-5.76983e-08
-5.07403e-08
9.14389e-08
2.17141e-07
1.68721e-07
8.23771e-07
9.01815e-07
4.63221e-07
2.26494e-07
2.13196e-08
9.30394e-08
5.88215e-09
4.99688e-08
1.498e-07
1.42283e-07
-8.07286e-08
6.9741e-08
4.53545e-08
-8.16298e-08
1.07857e-07
2.21573e-07
1.53484e-07
6.04971e-07
-1.09742e-07
4.34682e-07
-2.44356e-07
1.70096e-07
2.94128e-07
1.8174e-07
2.09531e-07
2.12414e-07
2.22432e-07
2.0185e-07
2.05329e-07
2.1929e-07
2.57879e-07
3.29551e-07
4.55777e-07
6.18544e-07
8.39903e-07
1.09165e-06
1.26597e-06
2.38926e-09
1.59299e-06
3.17995e-07
-3.96321e-07
1.91e-06
-8.54371e-08
-4.1513e-08
-1.16143e-08
1.59043e-08
-5.59523e-08
-2.45218e-09
-9.17776e-08
2.01323e-08
-1.45556e-08
1.62841e-08
-5.93712e-08
-7.1521e-08
9.89418e-08
7.2486e-08
4.81363e-07
3.88091e-07
-1.66032e-07
7.47822e-09
-4.40522e-07
-3.10695e-07
-2.29454e-07
-2.44905e-07
-2.02221e-07
-1.33538e-07
-9.67479e-08
-8.37334e-08
-9.87691e-08
-1.34669e-07
-1.64228e-07
-2.26444e-07
-2.73668e-07
-3.80294e-07
-4.83263e-07
-6.05736e-07
-7.44281e-07
-6.60466e-07
-6.9204e-07
-7.06931e-07
-7.90004e-07
-6.31326e-08
1.3421e-07
-1.03205e-08
7.68112e-08
8.99449e-08
5.0641e-08
4.62398e-08
1.58032e-07
-6.89492e-08
-6.59137e-08
1.17212e-07
7.89843e-08
1.65187e-07
3.96924e-07
1.73093e-08
5.40178e-07
-2.50893e-07
6.38501e-07
2.31712e-07
2.12031e-07