/*--------------------------------*- C++ -*----------------------------------*\
| =========                 |                                                 |
| \\      /  F ield         | OpenFOAM: The Open Source CFD Toolbox           |
|  \\    /   O peration     | Version:  2306                                  |
|   \\  /    A nd           | Website:  www.openfoam.com                      |
|    \\/     M anipulation  |                                                 |
\*---------------------------------------------------------------------------*/
FoamFile
{
    version     2.0;
    format      ascii;
    arch        "LSB;label=32;scalar=64";
    class       volSymmTensorField;
    location    "400";
    object      turbulenceProperties:R;
}
// * * * * * * * * * * * * * * * * * * * * * * * * * * * * * * * * * * * * * //

dimensions      [0 2 -2 0 0 0 0];

internalField   nonuniform List<symmTensor> 
10720
(
(0.0144987 0.00306875 -6.84742e-22 0.0120404 -1.61361e-20 0.0134172)
(0.0172866 0.00364568 -9.29161e-23 0.0136447 1.04864e-19 0.0155754)
(0.0210787 0.00423416 -2.14383e-20 0.0153257 -3.37289e-19 0.0184316)
(0.0262504 0.00499595 9.57189e-20 0.0176186 7.06458e-19 0.0222311)
(0.0326217 0.00571451 -1.87825e-19 0.0200522 -6.9357e-19 0.026672)
(0.0409539 0.00622487 -1.4771e-19 0.0227818 -3.86293e-19 0.0323712)
(0.0517331 0.00649517 2.87124e-19 0.0261171 1.10315e-18 0.0395675)
(0.0651916 0.00618103 -7.49147e-19 0.0300847 -2.0378e-18 0.0484256)
(0.0821905 0.00491641 -1.89718e-19 0.035131 5.5527e-19 0.0596895)
(0.10357 0.0024329 5.72957e-19 0.0419322 1.17571e-18 0.074012)
(0.130615 -0.00179553 1.49451e-18 0.0513614 5.46522e-19 0.092537)
(0.165469 -0.00835551 -3.39845e-18 0.0647919 -3.15631e-18 0.117021)
(0.21109 -0.0181759 6.49698e-19 0.0840952 8.38588e-19 0.1499)
(0.272354 -0.0328491 2.61471e-18 0.112291 1.23916e-18 0.195176)
(0.357553 -0.0550346 -3.99511e-18 0.154536 -6.24081e-18 0.259669)
(0.479505 -0.0890631 -4.30059e-18 0.219191 -2.54667e-18 0.354039)
(0.663287 -0.143543 1.90118e-17 0.322814 1.7604e-17 0.499443)
(0.940196 -0.230775 1.7732e-17 0.488982 3.35506e-17 0.723347)
(1.4174 -0.387142 -3.5229e-17 0.789752 -5.46086e-17 1.11644)
(2.14081 -0.639983 -1.37398e-18 1.27813 1.45139e-17 1.72768)
(3.75097 -1.21249 -2.71844e-17 2.39986 5.1973e-17 3.10447)
(6.10075 -2.11284 -1.24358e-17 4.18499 4.18536e-17 5.18201)
(13.836 -5.12746 -1.43102e-16 10.2536 -6.41779e-16 12.123)
(25.9898 -10.3103 3.31424e-16 21.0501 5.58853e-16 23.6451)
(27.6393 -11.6472 4.23715e-17 24.5413 -7.12213e-16 26.1522)
(25.5075 -11.2293 3.65782e-16 24.4654 5.81124e-16 24.9695)
(24.4023 -11.0453 -8.18268e-17 24.7232 -7.8434e-17 24.5181)
(24.332 -11.2281 2.74507e-16 25.6864 2.30565e-16 24.972)
(24.4165 -11.4416 7.29002e-16 26.7054 1.20846e-15 25.5363)
(24.1216 -11.4541 4.00506e-16 27.2734 1.9975e-15 25.6849)
(23.3953 -11.2398 -1.41139e-15 27.3092 -1.93132e-15 25.3548)
(22.3231 -10.8335 -4.7487e-16 26.8596 -7.2609e-16 24.6071)
(20.8803 -10.2202 -3.2284e-17 25.8524 -4.3678e-15 23.3887)
(19.0955 -9.41343 -2.58302e-15 24.2901 -7.29939e-15 21.7158)
(16.9505 -8.40513 1.00624e-15 22.1144 9.23179e-16 19.5537)
(14.5068 -7.22636 1.21985e-15 19.366 1.14384e-15 16.953)
(11.3432 -5.67273 -1.224e-16 15.4773 -5.25045e-16 13.4304)
(8.32959 -4.17099 -1.51837e-15 11.5006 -2.44672e-17 9.91764)
(1.83897 -0.926447 -1.88562e-16 2.78469 -1.90264e-15 2.31064)
(0.0120301 0.00257346 1.65926e-21 0.0106522 3.85338e-20 0.0113951)
(0.0101308 0.00212442 -2.37321e-21 0.00934049 1.7071e-23 0.00982538)
(0.00808315 0.00164666 -1.23391e-20 0.00782731 -8.64907e-20 0.00799975)
(0.0063859 0.00123968 2.95487e-21 0.00644524 5.55275e-20 0.00644594)
(0.00486371 0.000879186 2.15764e-21 0.00505103 -1.00497e-20 0.00497248)
(0.00355263 0.000586712 -1.7019e-20 0.00372635 5.57119e-20 0.00363919)
(0.00253013 0.000377468 -9.14022e-20 0.00261695 7.35653e-20 0.0025572)
(0.00194574 0.000261406 5.73461e-20 0.00191625 -2.26473e-20 0.00190779)
(0.00211346 0.000277939 1.01429e-19 0.00191824 -5.13045e-20 0.00199814)
(0.00295784 0.000385224 -8.01637e-20 0.0024703 2.02627e-20 0.00271151)
(0.00451443 0.000623823 -2.35967e-20 0.00352083 1.11287e-19 0.00402733)
(0.0069353 0.00109498 1.74296e-19 0.00509622 7.25003e-20 0.00603462)
(0.010512 0.00197148 3.5865e-19 0.0073282 -5.58414e-20 0.00895542)
(0.0156729 0.00349525 -6.87686e-21 0.0104664 -2.18647e-19 0.0131347)
(0.0229295 0.00591752 -7.16462e-20 0.0148956 -1.54513e-19 0.0190127)
(0.0330184 0.00952973 2.48016e-20 0.0213044 -5.36568e-20 0.0273117)
(0.0472599 0.0147525 -1.86026e-19 0.0308193 6.32301e-19 0.0392459)
(0.0681597 0.0224734 7.12235e-19 0.0454427 2.64746e-19 0.0570864)
(0.100399 0.0344353 3.18637e-19 0.0687663 -1.18362e-18 0.0849736)
(0.152284 0.0539241 -1.29505e-18 0.107411 -3.39672e-19 0.130422)
(0.240272 0.0874852 -4.38414e-18 0.174648 -2.00334e-18 0.208335)
(0.393912 0.147341 -3.32819e-18 0.295579 -8.90074e-19 0.346203)
(0.682852 0.262512 6.19828e-18 0.530387 -5.76126e-19 0.609273)
(1.22834 0.486477 -7.44719e-18 0.992767 1.2049e-18 1.11599)
(2.39606 0.978112 4.06398e-18 2.02224 -7.21413e-18 2.2209)
(4.80348 2.01625 -1.26328e-16 4.23161 2.61477e-18 4.54209)
(10.5254 4.53131 -7.82998e-17 9.66706 1.2295e-17 10.1539)
(21.2649 9.36759 6.59152e-17 20.3424 8.24681e-19 20.9241)
(29.545 13.2905 8.6975e-18 29.4246 -1.25638e-19 29.641)
(32.6386 14.9583 6.28529e-17 33.7977 4.36044e-19 33.3657)
(33.0578 15.3972 -4.37144e-16 35.511 -4.89453e-18 34.4077)
(32.6456 15.4171 1.57295e-16 36.2844 2.0927e-17 34.566)
(31.9227 15.2549 -1.88886e-15 36.6213 -1.53184e-16 34.3557)
(30.9818 14.9548 -3.45824e-15 36.6007 -2.36973e-16 33.8616)
(29.8495 14.5327 1.05836e-15 36.2457 1.08371e-16 33.1081)
(28.5629 14.0096 1.0245e-15 35.6023 1.64273e-16 32.1355)
(26.9098 13.2866 1.45041e-15 34.4276 2.66656e-16 30.7168)
(25.1172 12.4694 -2.90366e-16 32.9255 -3.67413e-17 29.0663)
(20.143 10.0655 -4.55423e-15 27.4161 -7.84125e-16 23.7894)
(0.00226708 -0.000155249 4.14167e-23 0.00189643 1.34947e-21 0.00205172)
(0.00222406 -0.000181973 9.65228e-21 0.00191884 2.33897e-20 0.00203798)
(0.00215864 -0.000204454 -8.83522e-21 0.0019412 -1.55767e-20 0.00201038)
(0.00205931 -0.000211721 -5.88764e-21 0.0019265 -1.67695e-20 0.00194814)
(0.00192973 -0.000206756 3.91872e-20 0.00187662 7.60563e-20 0.00185481)
(0.00178982 -0.000193311 1.50776e-20 0.00180978 2.33914e-20 0.00174787)
(0.00164015 -0.000173016 7.08533e-20 0.00171467 6.50923e-20 0.00162239)
(0.00148395 -0.000149084 -3.63229e-20 0.00159447 -6.99e-21 0.00148233)
(0.00133653 -0.000125537 5.11405e-20 0.001468 3.54371e-20 0.00134399)
(0.00119891 -0.000104531 -1.82195e-21 0.00133681 7.78055e-23 0.00120848)
(0.00107268 -8.69448e-05 -6.96685e-20 0.00120611 -5.95213e-20 0.00107993)
(0.000987019 -7.80234e-05 9.33783e-20 0.00111434 1.16246e-19 0.000989112)
(0.000976211 -8.37162e-05 6.53835e-20 0.0011064 3.28556e-20 0.000969184)
(0.00107582 -0.000114017 -1.70904e-20 0.00122304 9.26958e-21 0.00104863)
(0.00141247 -0.000214139 -1.40973e-19 0.00159268 2.32057e-20 0.00132275)
(0.00229545 -0.000517915 3.75393e-19 0.00244942 4.29575e-19 0.00199405)
(0.00462257 -0.00138356 7.64236e-19 0.00434272 -8.35683e-19 0.00368195)
(0.0101338 -0.00334591 -4.16581e-18 0.00824698 -5.39946e-18 0.00777216)
(0.0250002 -0.00841322 4.90649e-19 0.0184619 7.23873e-18 0.0193051)
(0.0614751 -0.020801 7.24877e-18 0.0433976 -2.03584e-18 0.0486255)
(0.180191 -0.0619729 1.53484e-17 0.126122 6.08172e-18 0.146601)
(0.491215 -0.173849 -2.34513e-17 0.349976 -2.24575e-17 0.411315)
(1.47334 -0.543022 7.39128e-17 1.09248 1.86568e-16 1.27127)
(4.60675 -1.77747 1.58815e-19 3.60408 -1.54146e-16 4.1013)
(8.79427 -3.54022 -2.72834e-16 7.27521 1.69346e-16 8.07019)
(12.9121 -5.39294 -9.71816e-17 11.2784 -6.59936e-16 12.1766)
(16.556 -7.14921 1.18047e-18 15.277 7.56738e-17 16.0241)
(18.8673 -8.39411 -2.94541e-16 18.3833 -4.44852e-16 18.7385)
(18.906 -8.63623 -4.93644e-16 19.4315 -2.83313e-15 19.2677)
(16.9093 -7.8974 -1.66952e-16 18.2825 -3.54663e-15 17.6578)
(14.0809 -6.69155 5.22898e-16 15.935 4.89645e-15 15.0206)
(11.3784 -5.47754 -9.55151e-16 13.3929 -3.76154e-17 12.3584)
(9.25517 -4.4979 -7.18896e-15 11.2535 1.34198e-15 10.2097)
(7.67099 -3.75325 8.77199e-15 9.56209 1.59515e-14 8.57211)
(6.47983 -3.18625 -1.48863e-15 8.23135 -8.63836e-16 7.31958)
(5.56406 -2.74338 3.42246e-15 7.14762 -4.99308e-15 6.32511)
(4.91721 -2.43218 -1.50347e-15 6.39228 1.52299e-15 5.63469)
(4.36051 -2.13697 3.24898e-15 5.51653 4.02516e-16 4.88559)
(4.4973 -2.25513 5.36239e-15 5.9829 7.29063e-15 5.37353)
(0.00227291 -0.000117567 3.19296e-21 0.00184999 7.89804e-21 0.00203578)
(0.00226158 -7.76374e-05 -4.39125e-21 0.00180467 -3.31925e-20 0.00200878)
(0.00221 -2.67196e-05 -6.5209e-21 0.00173911 -3.88995e-20 0.00195513)
(0.00211613 3.07931e-05 -2.5306e-21 0.00166073 5.87263e-20 0.00187426)
(0.00197223 8.48926e-05 6.95057e-22 0.00156958 1.5678e-20 0.00176326)
(0.00177352 0.000127801 1.38547e-20 0.00146038 -5.32127e-20 0.00161494)
(0.00153865 0.000150826 2.61013e-20 0.00133586 -8.34673e-20 0.00143916)
(0.00131418 0.000152955 -1.19466e-19 0.0012122 3.15463e-21 0.00126831)
(0.00111353 0.000139696 1.82434e-20 0.00109252 8.08319e-20 0.00110891)
(0.000921925 0.000116357 4.57818e-22 0.000968417 -4.75428e-20 0.000948605)
(0.000751499 8.77026e-05 -2.99751e-20 0.000839679 -2.84208e-20 0.000794822)
(0.000614981 6.18778e-05 -2.10392e-20 0.000717195 -2.97618e-20 0.000661715)
(0.000506783 4.21461e-05 -3.79578e-21 0.000605967 6.32185e-21 0.000549866)
(0.000418993 2.8212e-05 1.2222e-20 0.000507056 3.28892e-20 0.000455566)
(0.000346715 1.88844e-05 2.00767e-20 0.000420698 7.75654e-21 0.00037605)
(0.000286783 1.28387e-05 -2.688e-20 0.000346638 -1.3711e-21 0.000309375)
(0.000236368 8.97551e-06 2.22336e-20 0.000283086 2.29653e-21 0.000253107)
(0.000193789 6.45643e-06 -2.36637e-21 0.000228972 -6.93831e-21 0.000205739)
(0.000156382 4.6166e-06 -6.86643e-21 0.000181427 1.09234e-20 0.000164439)
(0.000121922 3.10752e-06 -4.01243e-21 0.000138142 4.36764e-21 0.000126849)
(8.72591e-05 1.73924e-06 -6.01331e-21 9.58647e-05 6.76497e-21 8.97094e-05)
(5.24492e-05 6.64629e-07 -3.52394e-21 5.55806e-05 1.82817e-21 5.32735e-05)
(1.84809e-05 8.35053e-08 -6.76922e-22 1.88623e-05 5.83203e-23 1.85707e-05)
(3.036e-06 2.27634e-09 8.24219e-24 3.0459e-06 7.82757e-25 3.03794e-06)
(7.72707e-06 1.60513e-08 -3.71421e-24 7.78685e-06 5.09306e-24 7.73592e-06)
(0.000851209 0.000192919 4.75924e-19 0.00142944 1.24496e-19 0.000910851)
(0.00451842 0.0013322 2.64764e-18 0.0078225 -1.89063e-19 0.00474149)
(0.0372388 0.0119652 1.08094e-18 0.0620986 -4.50422e-19 0.0383234)
(0.128091 0.0458986 -7.53602e-19 0.204223 1.03144e-19 0.130584)
(0.256254 0.10268 4.96279e-17 0.386152 2.01535e-18 0.261142)
(0.390995 0.170639 4.02561e-16 0.554227 9.71975e-18 0.401639)
(0.51255 0.235199 2.39491e-16 0.689725 1.3115e-17 0.53327)
(0.614424 0.289335 1.76218e-15 0.79943 1.20924e-16 0.648433)
(0.701293 0.334888 2.54436e-15 0.897989 1.69259e-16 0.750519)
(0.778819 0.375321 -5.70497e-16 0.995062 -9.71606e-17 0.84499)
(0.856919 0.415505 -4.90904e-16 1.09894 -8.61416e-17 0.940201)
(0.934335 0.456125 -1.22502e-15 1.21466 -5.1504e-16 1.04032)
(1.13396 0.552249 -2.52489e-15 1.45541 -3.46662e-18 1.25442)
(1.5742 0.775671 -2.0389e-15 1.97925 1.35832e-15 1.79202)
(0.00151784 -0.000120502 6.64824e-22 0.00125059 9.19764e-22 0.00139947)
(0.00147803 -0.000143657 -1.05331e-20 0.00126634 -2.55917e-20 0.00139063)
(0.00140943 -0.000159865 -2.32742e-21 0.00127072 -1.17246e-21 0.0013616)
(0.0013199 -0.000165124 8.82562e-21 0.00126219 1.90637e-20 0.00131711)
(0.00122892 -0.000160346 -2.79862e-20 0.00125142 -5.69225e-20 0.0012698)
(0.0011352 -0.000144947 -3.19399e-20 0.00123354 -5.23478e-20 0.00121757)
(0.00104699 -0.000120402 -6.49512e-20 0.00120872 -9.60035e-20 0.00116503)
(0.000973124 -9.03615e-05 -5.24981e-21 0.00118112 -7.80413e-22 0.00111758)
(0.000915123 -5.71728e-05 -2.87275e-20 0.00115183 -6.84141e-20 0.0010768)
(0.0008754 -2.41351e-05 1.20772e-19 0.0011236 1.37432e-19 0.00104542)
(0.000850748 6.58757e-06 -1.98841e-20 0.00109582 2.70454e-20 0.00102101)
(0.000842035 3.35381e-05 1.36417e-20 0.00107453 8.39395e-21 0.00100686)
(0.000846812 5.60663e-05 -9.39993e-20 0.00106209 -1.19637e-19 0.00100264)
(0.000864166 7.53519e-05 6.12952e-20 0.00106207 -5.69033e-21 0.00101033)
(0.000877936 8.92149e-05 1.77983e-20 0.00105559 5.52321e-20 0.0010111)
(0.000863842 9.31465e-05 2.09353e-20 0.00101388 1.00477e-20 0.000977033)
(0.00077172 7.75919e-05 -8.22356e-20 0.000876612 -4.78959e-20 0.000850692)
(0.000675529 6.16475e-05 5.74962e-20 0.000747973 4.28594e-20 0.000729308)
(8.13386e-05 8.87142e-07 2.6619e-22 8.22745e-05 3.47825e-24 8.20143e-05)
(0.00356406 0.00156625 -2.00944e-18 0.00510514 -3.02321e-19 0.00462983)
(0.00155951 0.000450981 6.84325e-19 0.00198657 -2.68739e-19 0.00183861)
(0.00246694 0.00115696 6.44519e-20 0.00356127 1.10473e-18 0.00312869)
(0.000281245 0.0001148 4.44862e-19 0.000488634 -6.57012e-19 0.000374689)
(0.0178354 -0.00695861 -3.39298e-18 0.0144589 -3.62517e-18 0.0156028)
(0.146216 -0.0585023 4.84161e-18 0.12174 1.70934e-17 0.130999)
(0.474695 -0.196434 -2.90102e-17 0.413539 7.9395e-18 0.43777)
(1.15467 -0.492915 1.4801e-17 1.05389 1.15481e-18 1.09522)
(2.54588 -1.11522 -1.43233e-17 2.42533 7.64686e-17 2.47476)
(4.91964 -2.20236 -4.40702e-16 4.87599 2.46438e-16 4.88764)
(7.95631 -3.6323 2.17026e-16 8.19948 3.53246e-16 8.07315)
(10.5669 -4.91433 1.56358e-15 11.3361 -5.86728e-16 10.9594)
(11.6772 -5.5237 -2.76456e-15 13.0461 2.16217e-15 12.3833)
(11.1865 -5.36675 5.13849e-16 12.9815 9.32659e-15 12.1076)
(9.87473 -4.78692 -4.87204e-17 11.8323 -6.36745e-15 10.8661)
(8.45583 -4.12822 3.05758e-15 10.384 -2.30075e-15 9.42214)
(7.19266 -3.52381 -1.4366e-14 8.9527 5.20202e-16 8.06822)
(6.21503 -3.05356 4.95809e-15 7.8114 -1.62561e-15 7.0146)
(5.27498 -2.5565 5.13595e-15 6.35413 -1.52196e-15 5.79043)
(5.68051 -2.81465 -1.00213e-14 7.35043 2.903e-15 6.54247)
(0.00155221 -9.11047e-05 -1.3629e-21 0.00123878 -2.59439e-21 0.00140939)
(0.00156568 -5.9272e-05 -5.15644e-21 0.0012237 -7.29604e-21 0.00140585)
(0.0015711 -2.04302e-05 2.13536e-20 0.00121257 4.60392e-20 0.00140042)
(0.00154388 2.08072e-05 4.37932e-21 0.00119225 -5.18726e-21 0.00137349)
(0.00148458 6.12863e-05 3.01558e-21 0.00116498 -3.39742e-20 0.00132791)
(0.00138227 9.45469e-05 -9.39709e-21 0.0011207 2.42905e-20 0.00125262)
(0.0012428 0.000115289 9.03945e-21 0.00105709 5.48267e-20 0.00114977)
(0.00108704 0.000121547 5.94069e-20 0.000979564 6.37739e-20 0.00103373)
(0.000943523 0.000117563 2.02112e-20 0.000906371 -5.07553e-20 0.00092578)
(0.000803107 0.000104287 4.50909e-20 0.000824286 2.67234e-20 0.0008143)
(0.000664138 8.44542e-05 -3.18648e-20 0.000723572 8.18944e-21 0.000694616)
(0.000538861 6.38435e-05 -4.60994e-21 0.00061641 2.70063e-20 0.000579073)
(0.000432622 4.57752e-05 2.017e-21 0.000514432 -2.4334e-20 0.000475865)
(0.000344877 3.11658e-05 4.36091e-20 0.000422742 -3.07001e-20 0.000387132)
(0.000274805 2.00997e-05 3.30653e-21 0.000344662 -4.84104e-21 0.000313889)
(0.000219731 1.20344e-05 -4.90925e-21 0.000280097 2.02968e-20 0.000254778)
(0.000177755 6.39072e-06 3.15944e-20 0.000228859 -3.7321e-20 0.000208693)
(0.000146505 2.47151e-06 5.16391e-21 0.000189416 4.53526e-21 0.000173739)
(0.000124168 -3.00181e-07 3.68393e-20 0.000160366 -2.57637e-21 0.000148286)
(0.000108451 -2.41422e-06 3.96674e-20 0.000139158 8.88753e-21 0.000130018)
(9.79627e-05 -4.16498e-06 1.02386e-19 0.000124202 -1.35247e-20 0.000117436)
(9.16475e-05 -5.84957e-06 1.33983e-19 0.000113942 -2.02684e-20 0.000109335)
(8.90453e-05 -7.67577e-06 8.09272e-20 0.000107318 7.01067e-21 0.000105008)
(8.91715e-05 -9.44685e-06 1.89348e-20 0.000101839 -3.87241e-21 0.000102932)
(9.23412e-05 -1.05781e-05 -2.07362e-20 9.77674e-05 1.00154e-20 0.000103494)
(9.5234e-05 -1.00467e-05 7.57195e-20 9.33033e-05 -1.23043e-20 0.000103183)
(0.000104347 -9.47638e-06 -2.05287e-20 9.58622e-05 -1.99765e-21 0.000110096)
(6.26072e-05 -2.75257e-06 -6.24729e-21 5.80047e-05 1.28794e-22 6.39411e-05)
(0.000474072 -6.55465e-05 2.46678e-20 0.000295501 -7.75867e-22 0.000501943)
(0.00325923 -0.000272186 -1.42216e-18 0.00168559 -5.38184e-20 0.00340787)
(0.00933503 0.000424172 -8.62159e-18 0.00467941 -7.86092e-20 0.00965403)
(0.0187834 0.00468277 -5.47627e-17 0.0112649 -3.17624e-18 0.0193704)
(0.0386036 0.0154364 -1.34236e-16 0.0316804 -4.43163e-18 0.0399559)
(0.0759817 0.0342759 -3.33928e-16 0.0747651 -2.28643e-17 0.0792583)
(0.130186 0.060843 -8.54809e-16 0.13971 -7.65122e-17 0.137256)
(0.196711 0.0929593 2.15566e-16 0.218894 -1.74456e-17 0.208539)
(0.267594 0.127587 -1.17275e-15 0.305708 2.10913e-16 0.286711)
(0.33348 0.154072 2.94673e-15 0.353597 5.32843e-16 0.342289)
(0.548248 0.261161 4.63644e-15 0.615188 9.50559e-16 0.593687)
(0.00128852 -9.76979e-05 3.60023e-21 0.00106031 6.15889e-21 0.00116908)
(0.00127314 -0.000115777 -5.01348e-21 0.00108091 -9.03768e-21 0.00117113)
(0.00124326 -0.000131401 -2.27991e-21 0.00110008 -1.25638e-21 0.00116414)
(0.00120672 -0.000141544 2.70848e-20 0.00111814 3.96383e-20 0.00115342)
(0.00115892 -0.000144743 1.72144e-20 0.0011269 3.12032e-20 0.0011322)
(0.00110138 -0.000141116 2.18409e-20 0.00112596 4.1942e-20 0.00110097)
(0.00103936 -0.000131397 3.33736e-20 0.00111479 3.86113e-20 0.00106236)
(0.000972774 -0.000116713 -1.91621e-20 0.00108966 -2.97579e-20 0.00101448)
(0.000904795 -9.88106e-05 -6.86081e-20 0.00105273 -6.79746e-20 0.000959839)
(0.000836922 -7.97131e-05 8.92103e-20 0.00100427 5.02402e-20 0.000899699)
(0.000769939 -6.08836e-05 7.51613e-20 0.000946103 6.36553e-20 0.000835246)
(0.000703906 -4.35106e-05 9.75093e-20 0.000879744 4.67116e-20 0.000767498)
(0.000638515 -2.83865e-05 -1.60978e-19 0.000806702 -5.15545e-20 0.000697223)
(0.000573918 -1.5832e-05 -1.37493e-19 0.000729257 -9.23613e-20 0.000625774)
(0.00050996 -5.8083e-06 1.82848e-19 0.000648869 5.75119e-20 0.000553671)
(0.000443541 2.89979e-06 3.71581e-20 0.000563204 2.28825e-20 0.00047883)
(0.000378385 1.02481e-05 -2.73212e-20 0.00047589 2.81988e-21 0.000405117)
(0.000320814 1.57419e-05 -8.42059e-20 0.000394945 -5.51683e-20 0.000339739)
(0.000249411 1.5263e-05 1.44623e-20 0.000291015 -5.54883e-21 0.000259732)
(0.000147584 6.47455e-06 2.21328e-20 0.000158861 6.82861e-21 0.000150571)
(3.23879e-10 2.95112e-17 -1.11878e-31 3.23879e-10 -3.21779e-32 3.23879e-10)
(0.00033711 2.91806e-05 4.47329e-20 0.000364754 6.38977e-21 0.000347107)
(0.000245899 1.37953e-05 -5.38522e-21 0.000255834 -1.16751e-21 0.00024975)
(0.00385654 0.00175718 -1.36465e-18 0.00470329 6.69221e-19 0.0041681)
(0.0150473 0.00699853 3.88721e-18 0.0166426 -1.24061e-18 0.0153993)
(0.0309547 0.0136504 -7.93652e-18 0.030497 1.05315e-17 0.0297843)
(0.0186671 0.00761162 6.54712e-20 0.0161509 -1.50212e-19 0.016786)
(0.0101906 0.0029766 3.996e-18 0.0062258 -1.41957e-18 0.00768276)
(0.0289222 -0.0103199 6.32869e-18 0.020904 1.60171e-17 0.0241553)
(0.249189 -0.107265 2.65576e-17 0.230631 -1.20289e-16 0.238059)
(1.05893 -0.476633 -6.62571e-17 1.0617 -3.94965e-16 1.05701)
(2.8123 -1.29768 2.07496e-15 2.96835 5.51003e-16 2.88625)
(5.15362 -2.42335 2.96967e-15 5.68135 6.72337e-16 5.41616)
(7.00344 -3.34386 -1.64325e-15 8.02823 -2.23407e-15 7.52095)
(7.70696 -3.72252 -7.33315e-15 9.13203 1.42198e-15 8.42842)
(7.50794 -3.65053 4.79358e-15 9.09122 4.89514e-15 8.30337)
(7.00493 -3.42073 -1.01674e-14 8.60286 -1.30403e-16 7.81092)
(6.25838 -3.01947 -1.3026e-14 7.4166 1.88147e-15 6.82197)
(6.54321 -3.21255 9.21189e-15 8.14428 -3.43358e-15 7.38625)
(0.00128954 -7.5106e-05 -5.52713e-21 0.00103296 -1.12538e-20 0.00115766)
(0.00127903 -5.12171e-05 -1.90129e-21 0.00100504 7.68437e-21 0.00113892)
(0.00125242 -2.16723e-05 1.83046e-20 0.000970774 3.49007e-20 0.00111007)
(0.00121287 9.52555e-06 -7.83639e-21 0.000937748 -4.401e-22 0.00107456)
(0.00115581 3.9981e-05 6.82799e-21 0.000903922 4.32683e-20 0.00102992)
(0.00107627 6.6081e-05 2.09412e-20 0.000865085 -5.98761e-21 0.000970838)
(0.000980823 8.44565e-05 2.26462e-20 0.000822616 -5.87483e-22 0.000901574)
(0.000879004 9.33553e-05 -5.58951e-20 0.000777356 -3.37802e-20 0.000828197)
(0.000775195 9.3505e-05 -3.05327e-20 0.000727844 2.63968e-21 0.000751977)
(0.000668448 8.57801e-05 5.06152e-20 0.000668379 2.28418e-20 0.000669063)
(0.000565378 7.27343e-05 2.36166e-20 0.00059985 -1.93792e-21 0.000583177)
(0.00047446 5.81125e-05 2.7952e-20 0.000530018 -1.72579e-20 0.000502532)
(0.000398356 4.43963e-05 -4.31502e-20 0.000464232 -2.82827e-20 0.000431151)
(0.000335841 3.26782e-05 -5.34779e-20 0.000404538 1.00951e-20 0.000369554)
(0.000285193 2.33523e-05 4.87957e-21 0.000351991 1.41313e-20 0.000317447)
(0.000244166 1.62558e-05 1.65267e-20 0.000306526 -4.91834e-21 0.000273745)
(0.000211305 1.10711e-05 -4.05725e-20 0.000268254 -3.21227e-21 0.000237765)
(0.00018506 7.34811e-06 -1.55775e-21 0.000236569 -6.45834e-21 0.000208459)
(0.000164284 4.64475e-06 -1.55664e-20 0.000210853 -3.04699e-21 0.000184936)
(0.000147525 2.56367e-06 3.26928e-20 0.000189739 -1.8834e-20 0.00016581)
(0.000134023 8.48411e-07 -3.559e-20 0.000172462 -1.23658e-20 0.000150274)
(0.000122794 -7.19005e-07 -7.3967e-20 0.000157829 -8.73152e-21 0.000137235)
(0.00011289 -2.26747e-06 3.34749e-21 0.000144556 -1.12039e-20 0.00012555)
(0.00010263 -3.70515e-06 1.89359e-20 0.000130416 -1.07745e-20 0.000113287)
(9.22026e-05 -4.6064e-06 5.73466e-20 0.000115835 -4.00104e-21 0.000100628)
(8.3629e-05 -4.88957e-06 -5.37416e-20 0.000103765 -3.11261e-21 8.99641e-05)
(7.72222e-05 -4.8354e-06 -9.2384e-21 9.46598e-05 2.87348e-21 8.18249e-05)
(7.26563e-05 -4.67175e-06 5.59228e-21 8.81581e-05 4.89186e-22 7.58981e-05)
(6.69045e-05 -4.28745e-06 -2.56154e-21 8.02392e-05 -1.02992e-22 6.89623e-05)
(5.91244e-05 -3.80642e-06 -3.71132e-21 7.0162e-05 1.80425e-22 6.02544e-05)
(4.48903e-05 -2.80205e-06 -5.48085e-21 5.21796e-05 -2.89481e-22 4.5265e-05)
(2.86596e-05 -1.69089e-06 1.35413e-20 3.24271e-05 3.90714e-22 2.86022e-05)
(0.000200261 -5.49613e-05 1.9288e-18 0.000303515 1.25486e-19 0.000184245)
(0.000395621 -4.56116e-05 1.86688e-17 0.000505647 1.73633e-18 0.000287332)
(0.001675 0.000601029 7.86544e-17 0.00130143 1.0362e-17 0.00133775)
(0.00859508 0.00334398 -1.74219e-16 0.00676089 -2.65986e-17 0.00776825)
(0.0268664 0.0112127 7.42367e-16 0.0232374 1.098e-16 0.0257719)
(0.0706284 0.0278947 -4.85914e-16 0.056703 -1.68207e-16 0.0644016)
(0.229861 0.104463 -3.29535e-16 0.230734 -1.40981e-15 0.237466)
(0.000964185 -7.43943e-05 -5.13391e-21 0.000794145 -7.64721e-21 0.00088088)
(0.000948037 -8.78635e-05 1.00848e-21 0.000806675 1.60685e-21 0.000879837)
(0.000922324 -9.91034e-05 6.11158e-21 0.000818489 6.63759e-21 0.000873157)
(0.000888687 -0.000105918 -3.75458e-20 0.000827166 -5.33657e-20 0.000861435)
(0.000847359 -0.000107503 -2.749e-20 0.000830128 -3.21511e-20 0.00084304)
(0.000799174 -0.000103635 6.42544e-20 0.00082652 7.69154e-20 0.000817873)
(0.000747514 -9.45869e-05 -6.82383e-20 0.000815506 -8.47341e-20 0.000787527)
(0.000694331 -8.11873e-05 -3.08597e-20 0.000796211 -2.05295e-20 0.000752344)
(0.000641644 -6.45651e-05 -7.33984e-20 0.000769005 -5.4926e-20 0.000713453)
(0.00059238 -4.63119e-05 -1.36859e-20 0.000735705 -2.49034e-20 0.000673372)
(0.000547814 -2.77255e-05 9.19858e-21 0.000697765 -3.31923e-21 0.000633322)
(0.000509148 -1.00034e-05 -5.0384e-20 0.000657264 -6.68228e-20 0.000594942)
(0.000477371 5.89111e-06 1.64257e-19 0.000616749 1.12498e-19 0.000559948)
(0.000452673 1.93872e-05 -5.41628e-20 0.000578284 -9.47206e-21 0.000529347)
(0.000434923 3.04249e-05 -1.33058e-19 0.000543486 -5.81849e-20 0.000503895)
(0.00042212 3.85838e-05 8.84719e-20 0.000512423 1.77055e-21 0.000482215)
(0.000408341 4.36395e-05 -6.45548e-20 0.000480644 -3.72337e-20 0.00045885)
(0.000389439 4.58349e-05 8.87596e-22 0.000444138 4.74564e-20 0.000429996)
(0.000367961 4.64531e-05 -1.58554e-20 0.000407006 -1.24565e-20 0.000399333)
(0.000333214 4.27386e-05 -1.09822e-19 0.000357068 -7.58786e-20 0.00035472)
(0.000229424 2.22788e-05 4.66202e-20 0.000237071 4.52575e-20 0.000237428)
(7.47887e-05 2.4439e-06 1.27833e-22 7.5307e-05 -3.94136e-21 7.53965e-05)
(1.23816e-05 6.18476e-08 3.40071e-23 1.23895e-05 1.0405e-23 1.23917e-05)
(1.97498e-06 1.38637e-09 1.93839e-24 1.97501e-06 -8.68926e-26 1.97509e-06)
(0 0 0 0 0 0)
(0 0 0 0 0 0)
(0.0066165 0.00274707 -2.13477e-19 0.00579155 4.78154e-21 0.00626024)
(0.00812576 0.00334888 -5.32155e-19 0.00700789 -3.29641e-19 0.00759939)
(0.0173684 0.00709304 2.32134e-20 0.0147074 1.82772e-18 0.0160557)
(0.0077841 0.00309708 -9.01582e-18 0.00638134 7.44263e-19 0.00707338)
(0.0213736 0.00807452 -1.0228e-17 0.0162933 1.71046e-18 0.0187693)
(0.0456431 0.0119282 2.75098e-17 0.02488 -1.60562e-16 0.0349228)
(0.241262 -0.0984498 5.75573e-16 0.204655 -7.06222e-16 0.221713)
(1.27451 -0.584468 -2.9831e-15 1.32785 1.59001e-16 1.29819)
(3.15458 -1.49037 4.83538e-15 3.52095 1.81674e-15 3.33504)
(5.00541 -2.3995 -9.96133e-16 5.80777 4.27538e-16 5.40553)
(6.12736 -2.96404 -1.75015e-15 7.29555 3.98573e-15 6.71741)
(6.43279 -3.08587 6.73182e-16 7.49447 2.4434e-16 6.94768)
(6.97182 -3.40218 -1.72597e-14 8.48096 4.31249e-15 7.78262)
(0.000973467 -5.79985e-05 3.27633e-21 0.000780253 1.33925e-21 0.000878657)
(0.000975238 -4.04188e-05 -1.18514e-20 0.000766591 -1.70412e-20 0.000871923)
(0.000967264 -1.88376e-05 1.5134e-21 0.000749906 7.71161e-21 0.000859506)
(0.000946607 4.46407e-06 6.46301e-21 0.000731288 -2.15634e-20 0.000839416)
(0.000911514 2.7723e-05 -5.25596e-20 0.000710673 -7.55783e-20 0.000811422)
(0.000858162 4.83613e-05 -5.38319e-20 0.000685183 2.76305e-20 0.000771677)
(0.00079199 6.39222e-05 7.53603e-20 0.000656884 3.91253e-20 0.000724252)
(0.000720102 7.29081e-05 -2.43792e-20 0.000627121 -7.08136e-20 0.000673544)
(0.000644751 7.53647e-05 -3.32865e-20 0.000594064 9.44901e-21 0.00061951)
(0.000566067 7.16192e-05 -2.26981e-20 0.000553814 -3.94162e-20 0.000560133)
(0.000489212 6.33213e-05 7.94995e-21 0.000507018 1.20024e-20 0.000498287)
(0.000418537 5.28388e-05 -1.48982e-20 0.000456694 -1.94839e-20 0.000437774)
(0.000355885 4.20687e-05 -3.07706e-20 0.000405684 4.13951e-20 0.000380972)
(0.000301273 3.21409e-05 3.26394e-20 0.000355941 1.91488e-20 0.000328872)
(0.000254411 2.36691e-05 2.77382e-20 0.000309161 -1.27569e-20 0.000282169)
(0.000214677 1.68086e-05 -5.70001e-21 0.00026656 -1.14175e-20 0.000241161)
(0.00018147 1.14775e-05 1.65647e-20 0.000228955 3.6895e-21 0.000205931)
(0.000154125 7.42268e-06 -2.45444e-20 0.000196707 6.27138e-21 0.000176316)
(0.000131986 4.34743e-06 1.73811e-20 0.000169794 -4.57135e-22 0.000151958)
(0.000114178 1.94893e-06 -2.28838e-20 0.000147598 -1.06867e-20 0.000132113)
(0.0001 -8.71003e-09 2.20833e-20 0.000129479 1.84576e-21 0.000116094)
(8.86494e-05 -1.71741e-06 2.96116e-20 0.000114493 6.47753e-21 0.000103034)
(7.93352e-05 -3.28686e-06 -2.06734e-21 0.000101568 2.71819e-21 9.20009e-05)
(7.07568e-05 -4.65785e-06 -5.55255e-20 8.89128e-05 2.65291e-23 8.14992e-05)
(6.22256e-05 -5.5308e-06 -2.06713e-20 7.58557e-05 -8.82707e-21 7.08384e-05)
(5.44202e-05 -5.80778e-06 -6.09319e-21 6.37347e-05 9.39002e-21 6.09833e-05)
(4.83914e-05 -5.71929e-06 2.25746e-20 5.38814e-05 2.80326e-22 5.32193e-05)
(4.4556e-05 -5.39401e-06 8.12314e-22 4.66695e-05 -1.85043e-22 4.79331e-05)
(4.35216e-05 -5.06205e-06 -1.29351e-21 4.27174e-05 1.10498e-22 4.57563e-05)
(4.12518e-05 -4.09787e-06 1.36265e-20 3.83527e-05 6.31202e-23 4.23697e-05)
(5.17156e-05 -5.4937e-06 1.54839e-20 4.50152e-05 5.00604e-22 5.23147e-05)
(1.1905e-05 -3.20449e-07 -4.938e-21 1.13911e-05 -2.7327e-22 1.1887e-05)
(8.48314e-05 -1.23699e-05 -5.48012e-19 6.20579e-05 -4.25054e-20 8.20416e-05)
(0.000439446 -0.000103853 -1.01635e-18 0.000233753 -1.24122e-19 0.000397017)
(0.0011113 -0.000257511 1.99338e-18 0.000562242 2.13186e-20 0.000951523)
(0.00229376 -0.000460332 -9.02624e-18 0.00107083 3.58852e-18 0.00181943)
(0.000888154 -9.18923e-05 -1.25518e-17 0.000354241 -1.04469e-17 0.000652354)
(0.00285999 0.00019927 5.25213e-17 0.00112304 3.75105e-18 0.00196103)
(0.0489442 0.0196838 -2.90185e-16 0.0399075 5.22039e-17 0.046483)
(0.000790889 -6.1037e-05 4.49953e-21 0.000651711 5.22685e-21 0.000720668)
(0.000783253 -7.19176e-05 -1.13148e-20 0.000665457 -1.36e-20 0.000723782)
(0.000768842 -8.14805e-05 -9.13693e-22 0.000679511 -1.89064e-21 0.000723264)
(0.000750132 -8.80969e-05 -4.71601e-21 0.00069316 -2.45939e-21 0.000720571)
(0.000725968 -9.09728e-05 3.73926e-20 0.000703297 4.30341e-20 0.000713342)
(0.000696863 -8.99694e-05 2.86742e-20 0.000709706 2.36587e-20 0.000701592)
(0.000664844 -8.51193e-05 3.64651e-22 0.000711211 1.1563e-20 0.00068597)
(0.000630416 -7.68324e-05 7.11429e-20 0.000706163 6.89333e-20 0.000665793)
(0.000594642 -6.58154e-05 -8.88551e-21 0.000694362 -1.18646e-21 0.000641438)
(0.000558768 -5.31295e-05 -2.45731e-20 0.000675783 -1.15384e-20 0.000613621)
(0.000523167 -3.97213e-05 4.8271e-20 0.000650569 1.8014e-20 0.000582542)
(0.000488366 -2.64975e-05 -6.49867e-20 0.000619628 -2.51869e-20 0.000548931)
(0.000454737 -1.42771e-05 -1.1472e-19 0.000584127 -8.96763e-20 0.000513599)
(0.000422334 -3.55649e-06 -4.79318e-20 0.000545257 1.23546e-20 0.000477154)
(0.000391158 5.36855e-06 2.069e-19 0.000504248 9.3442e-20 0.000440268)
(0.000359898 1.22824e-05 -1.49586e-19 0.000460629 -6.81805e-20 0.000402106)
(0.000326228 1.76143e-05 -3.59847e-20 0.000412331 3.12057e-20 0.000360968)
(0.000291867 2.13315e-05 6.73187e-20 0.000362139 4.38793e-20 0.000319049)
(0.000259813 2.36621e-05 -4.25508e-20 0.00031446 -3.45338e-22 0.000279947)
(0.000232202 2.49065e-05 -1.40457e-20 0.000272572 3.51655e-20 0.000246211)
(0.00021065 2.5548e-05 2.00089e-20 0.000238471 -1.28539e-20 0.000219521)
(0.000178782 2.144e-05 -1.27352e-19 0.000192615 1.2328e-20 0.000182512)
(0.000130313 1.22214e-05 7.07248e-22 0.00013323 -1.18669e-20 0.000130552)
(2.55274e-05 4.72707e-07 -1.89174e-21 2.54636e-05 1.90301e-22 2.54684e-05)
(6.71947e-06 3.13839e-08 3.39605e-23 6.70542e-06 9.94866e-24 6.71137e-06)
(3.37492e-06 7.7071e-09 -2.68785e-24 3.36979e-06 -1.13294e-23 3.37213e-06)
(1.45192e-06 1.40811e-09 -1.04582e-25 1.45085e-06 -9.74369e-27 1.45134e-06)
(2.07135e-12 2.75786e-21 4.61296e-37 2.07135e-12 1.13715e-38 2.07135e-12)
(0 0 0 0 0 0)
(0.00104841 0.00031648 3.40635e-19 0.000844418 5.48934e-19 0.000943581)