# p  FACE_DATA 150
# x y z  p
0.29576437 -0.05 0.059999702 11850.808
0.28738431 -0.05 0.059968924 11883.928
0.27918472 -0.05 0.059906283 11923.132
0.27116186 -0.05 0.05981265 11962.783
0.26331203 -0.05 0.059689027 12004.178
0.25563166 -0.05 0.059536266 12047.291
0.24811723 -0.05 0.059355154 12091.948
0.24076528 -0.05 0.059146558 12137.762
0.23357246 -0.05 0.058911358 12184.848
0.22653546 -0.05 0.058650342 12233.36
0.21965107 -0.05 0.058364202 12283.243
0.21291613 -0.05 0.058053757 12334.038
0.20632755 -0.05 0.057719714 12386.331
0.19988233 -0.05 0.057362758 12438.686
0.19357748 -0.05 0.056983702 12491.787
0.18741014 -0.05 0.056583118 12545.542
0.18137746 -0.05 0.056161624 12599.998
0.17547671 -0.05 0.055719844 12656.865
0.16970518 -0.05 0.055258363 12716.194
0.1640602 -0.05 0.05477783 12776.894
0.15853921 -0.05 0.054278745 12839.66
0.15313967 -0.05 0.053761636 12903.755
0.14785914 -0.05 0.053226963 12970.063
0.14269518 -0.05 0.052675259 13036.886
0.13764543 -0.05 0.052106992 13105.765
0.13270762 -0.05 0.051522466 13175.881
0.12787949 -0.05 0.050922169 13247.065
0.12315884 -0.05 0.050306449 13320.18
0.11854353 -0.05 0.049675628 13394.506
0.11403148 -0.05 0.04903008 13469.772
0.10962066 -0.05 0.04837006 13544.538
0.10530908 -0.05 0.047695796 13619.127
0.10109483 -0.05 0.047007509 13697.441
0.096976017 -0.05 0.046305459 13780.877
0.092950808 -0.05 0.04558984 13867.101
0.08901745 -0.05 0.044860715 13954.771
0.085174232 -0.05 0.044118143 14043.218
0.081419479 -0.05 0.043362242 14132.937
0.077751578 -0.05 0.042593081 14225.839
0.074168981 -0.05 0.041810614 14323.769
0.070670198 -0.05 0.041014781 14426.621
0.06725379 -0.05 0.040205492 14534.562
0.06391837 -0.05 0.039382651 14653.074
0.060662655 -0.05 0.038545988 14785.6
0.057485397 -0.05 0.037695273 14927.942
0.054385413 -0.05 0.036830261 15078.496
0.051361621 -0.05 0.035950545 15236.712
0.048412992 -0.05 0.035055749 15405.598
0.045538629 -0.05 0.034145316 15586.117
0.042737712 -0.05 0.03321865 15773.395
0.040009498 -0.05 0.032275148 15966.063
0.037353406 -0.05 0.031314032 16170.238
0.034768993 -0.05 0.030334375 16388.363
0.032255944 -0.05 0.02933521 16621.231
0.029814132 -0.05 0.028315426 16867.376
0.027443661 -0.05 0.027273729 17129.25
0.025144824 -0.05 0.026208776 17411.935
0.022918276 -0.05 0.02511886 17722.736
0.020764984 -0.05 0.02400217 18070.382
0.018686283 -0.05 0.022856725 18469.447
0.016684024 -0.05 0.021680228 18922.414
0.01476059 -0.05 0.020470219 19429.908
0.012919252 -0.05 0.019223865 20004.593
0.011164249 -0.05 0.017938283 20650.244
0.0095007128 -0.05 0.016610449 21377.817
0.0079348886 -0.05 0.015236971 22214.436
0.006474941 -0.05 0.013814774 23177.567
0.0051312596 -0.05 0.012341958 24270.342
0.0039150106 -0.05 0.010816511 25493.633
0.0028396284 -0.05 0.009238845 26834.963
0.0019206554 -0.05 0.007613688 28262.614
0.0011720639 -0.05 0.0059475212 29769.357
0.0006061561 -0.05 0.004252283 31272.557
0.00023063831 -0.05 0.0025452878 32620.554
4.5460517e-05 -0.05 0.0008455405 33732.492
0.99536103 -0.05 0.00067021835 26459.935
0.98608198 -0.05 0.0020028877 26381.63
0.97680071 -0.05 0.0033200849 26271.504
0.96751731 -0.05 0.0046220425 26166.888
0.95823181 -0.05 0.0059090613 26059.177
0.94894428 -0.05 0.0071813587 25951.902
0.93965479 -0.05 0.0084391859 25844.361
0.93036339 -0.05 0.0096828487 25737.171
0.92107012 -0.05 0.010912491 25630.447
0.91177504 -0.05 0.012128333 25524.343
0.90247819 -0.05 0.013330648 25419.004
0.89317963 -0.05 0.014519511 25314.63
0.88387936 -0.05 0.015695054 25211.231
0.87457746 -0.05 0.016857552 25108.889
0.86527395 -0.05 0.01800713 25007.786
0.85596885 -0.05 0.019143875 24907.873
0.84666223 -0.05 0.020267984 24809.051
0.8373541 -0.05 0.021379502 24711.346
0.82804448 -0.05 0.022478516 24614.752
0.8187334 -0.05 0.023565119 24519.37
0.8094209 -0.05 0.024639397 24425.008
0.80010698 -0.05 0.025701394 24331.6
0.79079168 -0.05 0.026751168 24239.019
0.78147501 -0.05 0.027788748 24147.359
0.77215699 -0.05 0.028814138 24056.48
0.76283764 -0.05 0.029827333 23966.44
0.75351698 -0.05 0.030828337 23877.064
0.74419501 -0.05 0.03181713 23788.22
0.73487174 -0.05 0.032793639 23699.438
0.72554719 -0.05 0.033757832 23610.642
0.71622136 -0.05 0.034709535 23521.879
0.70689427 -0.05 0.03564879 23432.946
0.69756592 -0.05 0.036575541 23343.654
0.68823633 -0.05 0.037489546 23253.663
0.67890547 -0.05 0.03839067 23162.694
0.66957337 -0.05 0.039278803 23070.406
0.66024004 -0.05 0.040153805 22976.367
0.65090546 -0.05 0.04101549 22879.948
0.64156964 -0.05 0.041863622 22780.526
0.63223258 -0.05 0.042697993 22677.468
0.62289428 -0.05 0.043518409 22570.098
0.61355475 -0.05 0.04432459 22457.329
0.60421397 -0.05 0.045116235 22338.23
0.59487195 -0.05 0.045893096 22211.8
0.58552869 -0.05 0.046654869 22075.961
0.57618419 -0.05 0.047401205 21927.966
0.56683843 -0.05 0.048131797 21766.151
0.55749143 -0.05 0.04884624 21589.468
0.54814318 -0.05 0.049544113 21398.375
0.53879368 -0.05 0.050225066 21194.032
0.52944294 -0.05 0.050888717 20976.175
0.52009095 -0.05 0.051534504 20742.174
0.51073771 -0.05 0.052161963 20487.142
0.50138323 -0.05 0.052770675 20208.698
0.49202751 -0.05 0.05336005 19910.46
0.48267056 -0.05 0.053929509 19601.203
0.47331239 -0.05 0.054478508 19290.071
0.46395301 -0.05 0.055006444 18977.042
0.45459243 -0.05 0.05551264 18646.885
0.44523065 -0.05 0.055996468 18301.438
0.43586773 -0.05 0.056457197 17312.507
0.42650365 -0.05 0.05689408 15325.681
0.41713847 -0.05 0.057306403 13433.808
0.4077722 -0.05 0.057693321 12413.52
0.39840488 -0.05 0.058053993 11964.189
0.38903656 -0.05 0.058387504 11776.883
0.37966728 -0.05 0.058692934 11700.197
0.3702971 -0.05 0.058969274 11672.435
0.36092607 -0.05 0.059215505 11665.581
0.35155429 -0.05 0.059430617 11670.553
0.34218182 -0.05 0.059613395 11688.498
0.33280875 -0.05 0.059762648 11712.971
0.3234352 -0.05 0.059877122 11742.456
0.31406128 -0.05 0.059955444 11774.929
0.30468712 -0.05 0.059996221 11811.195
