# p  FACE_DATA 600
# x y z  p
0.29893883 -0.05 0.060006728 11960.786
0.29682219 -0.05 0.060005155 11968.663
0.29471691 -0.05 0.060001576 11978.498
0.29262294 -0.05 0.05999591 11988.183
0.29054021 -0.05 0.059988277 11997.302
0.28846868 -0.05 0.059978645 12007.738
0.28640827 -0.05 0.059967018 12017.032
0.28435895 -0.05 0.059953476 12027.146
0.28232063 -0.05 0.05993795 12037.432
0.28029328 -0.05 0.059920485 12047.531
0.27827682 -0.05 0.059901123 12057.687
0.27627121 -0.05 0.059879855 12068.179
0.27427639 -0.05 0.05985667 12078.826
0.2722923 -0.05 0.059831621 12089.175
0.27031889 -0.05 0.059804697 12100.205
0.26835611 -0.05 0.05977592 12110.567
0.26640388 -0.05 0.059745343 12121.323
0.26446217 -0.05 0.059712935 12132.28
0.26253092 -0.05 0.059678711 12143.338
0.26061007 -0.05 0.059642689 12154.591
0.25869957 -0.05 0.059604861 12166.012
0.25679937 -0.05 0.059565286 12176.997
0.25490941 -0.05 0.05952394 12188.927
0.25302965 -0.05 0.059480841 12199.95
0.25116001 -0.05 0.059436049 12211.49
0.24930047 -0.05 0.059389522 12223.179
0.24745095 -0.05 0.059341283 12234.995
0.24561142 -0.05 0.059291325 12247.266
0.24378182 -0.05 0.05923967 12259.181
0.24196209 -0.05 0.059186367 12271.114
0.24015219 -0.05 0.059131421 12283.105
0.23835206 -0.05 0.059074821 12295.345
0.23656166 -0.05 0.059016618 12307.141
0.23478094 -0.05 0.058956769 12320.375
0.23300984 -0.05 0.05889526 12332.61
0.23124831 -0.05 0.05883224 12344.467
0.22949632 -0.05 0.058767617 12358.025
0.22775381 -0.05 0.058701363 12370.685
0.22602071 -0.05 0.058633589 12383.304
0.22429701 -0.05 0.058564274 12396.09
0.22258262 -0.05 0.058493448 12408.679
0.22087753 -0.05 0.058421069 12422.572
0.21918166 -0.05 0.058347132 12435.569
0.21749499 -0.05 0.058271731 12448.543
0.21581745 -0.05 0.058194856 12461.63
0.21414901 -0.05 0.058116493 12475.071
0.21248962 -0.05 0.05803665 12488.572
0.21083923 -0.05 0.057955337 12502.301
0.20919779 -0.05 0.057872577 12515.822
0.20756526 -0.05 0.057788393 12529.557
0.20594158 -0.05 0.057702763 12543.648
0.20432673 -0.05 0.057615706 12557.376
0.20272065 -0.05 0.057527277 12570.909
0.20112329 -0.05 0.057437457 12585.065
0.19953461 -0.05 0.05734625 12599.205
0.19795458 -0.05 0.057253621 12614.254
0.19638314 -0.05 0.057159665 12627.391
0.19482023 -0.05 0.05706438 12642.484
0.19326584 -0.05 0.056967732 12656.347
0.19171991 -0.05 0.056869749 12671.395
0.19018239 -0.05 0.056770463 12685.178
0.18865324 -0.05 0.056669846 12700.991
0.18713243 -0.05 0.056567899 12715.176
0.18561991 -0.05 0.056464666 12730.76
0.18411563 -0.05 0.056360132 12745.32
0.18261956 -0.05 0.056254318 12760.826
0.18113166 -0.05 0.056147258 12774.862
0.17965186 -0.05 0.056038987 12790.221
0.17818015 -0.05 0.05592942 12805.943
0.17671648 -0.05 0.055818588 12821.353
0.1752608 -0.05 0.05570656 12836.246
0.17381309 -0.05 0.055593325 12851.934
0.17237329 -0.05 0.055478844 12867.621
0.17094135 -0.05 0.055363199 12882.748
0.16951726 -0.05 0.055246341 12899.56
0.16810097 -0.05 0.055128259 12915.137
0.16669242 -0.05 0.05500905 12930.829
0.16529159 -0.05 0.054888659 12947.351
0.16389844 -0.05 0.054767078 12963.475
0.16251292 -0.05 0.054644372 12979.281
0.161135 -0.05 0.054520532 12995.541
0.15976465 -0.05 0.054395554 13011.643
0.15840181 -0.05 0.054269449 13028.41
0.15704647 -0.05 0.054142171 13045.636
0.15569857 -0.05 0.05401378 13061.726
0.15435807 -0.05 0.053884336 13078.032
0.15302494 -0.05 0.053753791 13094.807
0.15169915 -0.05 0.053622161 13111.561
0.15038066 -0.05 0.053489407 13129.518
0.14906942 -0.05 0.053355551 13146.151
0.1477654 -0.05 0.053220679 13163.084
0.14646858 -0.05 0.053084715 13181.042
0.1451789 -0.05 0.052947683 13197.928
0.14389634 -0.05 0.052809659 13215.021
0.14262085 -0.05 0.05267058 13233.158
0.14135242 -0.05 0.052530426 13251.239
0.14009099 -0.05 0.052389231 13269.232
0.13883652 -0.05 0.052247036 13286.672
0.137589 -0.05 0.052103837 13304.748
0.13634838 -0.05 0.051959625 13322.137
0.13511461 -0.05 0.051814476 13339.762
0.1338877 -0.05 0.051668228 13360.228
0.13266759 -0.05 0.051520967 13376.522
0.13145422 -0.05 0.051372868 13394.37
0.13024759 -0.05 0.051223701 13414.626
0.12904768 -0.05 0.051073499 13433.025
0.12785442 -0.05 0.050922382 13451.556
0.12666779 -0.05 0.050770303 13470.545
0.12548777 -0.05 0.050617245 13489.858
0.12431431 -0.05 0.050463216 13508.64
0.12314738 -0.05 0.050308326 13526.311
0.12198694 -0.05 0.050152493 13547.14
0.12083299 -0.05 0.049995623 13567.264
0.11968547 -0.05 0.049837846 13586.434
0.11854435 -0.05 0.049679176 13606.038
0.11740961 -0.05 0.049519574 13625.995
0.11628122 -0.05 0.049359037 13646.111
0.11515913 -0.05 0.049197589 13665.95
0.11404333 -0.05 0.049035234 13685.941
0.11293377 -0.05 0.048871989 13705.565
0.11183042 -0.05 0.048707847 13725.783
0.11073327 -0.05 0.048542821 13745.868
0.10964229 -0.05 0.048376866 13767.695
0.10855744 -0.05 0.048209982 13788.387
0.10747868 -0.05 0.048042235 13809.434
0.106406 -0.05 0.04787359 13830.766
0.10533935 -0.05 0.047704062 13851.923
0.10427873 -0.05 0.047533647 13873.283
0.10322407 -0.05 0.047362394 13893.313
0.10217537 -0.05 0.04719032 13914.705
0.10113259 -0.05 0.047017348 13937.261
0.10009572 -0.05 0.046843455 13960.359
0.099064719 -0.05 0.046668685 13982.19
0.098039551 -0.05 0.046493118 14003.178
0.097020189 -0.05 0.046316733 14025.388
0.096006622 -0.05 0.046139442 14049.065
0.094998822 -0.05 0.045961241 14072.318
0.09399675 -0.05 0.045782217 14094.545
0.093000378 -0.05 0.045602371 14117.497
0.092009685 -0.05 0.045421665 14140.524
0.091024643 -0.05 0.045240119 14163.785
0.090045231 -0.05 0.045057701 14188.054
0.089071419 -0.05 0.044874428 14211.252
0.088103174 -0.05 0.044690349 14234.646
0.087140475 -0.05 0.044505439 14258.578
0.086183303 -0.05 0.044319663 14283.312
0.08523163 -0.05 0.044133032 14307.596
0.084285425 -0.05 0.043945577 14332.007
0.083344663 -0.05 0.043757308 14356.67
0.082409326 -0.05 0.043568191 14382.798
0.081479394 -0.05 0.04337819 14408.785
0.080554831 -0.05 0.043187382 14433.426
0.079635605 -0.05 0.042995792 14459.178
0.078721718 -0.05 0.042803304 14486.611
0.077813136 -0.05 0.042609969 14512.118
0.076909826 -0.05 0.042415818 14539.195
0.07601178 -0.05 0.042220793 14565.96
0.075118966 -0.05 0.042024933 14592.699
0.074231361 -0.05 0.041828237 14619.268
0.073348934 -0.05 0.04163074 14645.72
0.072471679 -0.05 0.041432371 14674.233
0.071599572 -0.05 0.041233139 14701.328
0.070732583 -0.05 0.041033074 14729.867
0.069870697 -0.05 0.040832148 14757.625
0.069013884 -0.05 0.040630397 14785.999
0.068162134 -0.05 0.040427777 14815.038
0.067315419 -0.05 0.040224307 14843.989
0.06647372 -0.05 0.040019973 14874.666
0.065637027 -0.05 0.039814748 14905.488
0.06480531 -0.05 0.039608654 14936.526
0.063978543 -0.05 0.039401719 14966.737
0.063156705 -0.05 0.039193946 14997.76
0.062339788 -0.05 0.038985286 15029.482
0.061527775 -0.05 0.038775725 15061.944
0.060720649 -0.05 0.038565255 15094.83
0.059918385 -0.05 0.038353894 15127.576
0.059120963 -0.05 0.03814165 15160.658
0.058328367 -0.05 0.037928504 15193.825
0.057540575 -0.05 0.037714473 15226.309
0.056757564 -0.05 0.037499567 15259.349
0.055979327 -0.05 0.037283751 15293.942
0.055205861 -0.05 0.03706696 15330.241
0.054437144 -0.05 0.036849222 15365.498
0.053673142 -0.05 0.036630582 15400.883
0.052913841 -0.05 0.036411033 15436.133
0.052159229 -0.05 0.036190552 15472.863
0.051409301 -0.05 0.035969101 15510.759
0.050664044 -0.05 0.035746666 15549.454
0.049923426 -0.05 0.035523297 15587.804
0.049187444 -0.05 0.035298949 15628.679
0.048456093 -0.05 0.035073588 15668.536
0.047729344 -0.05 0.034847258 15708.757
0.047007184 -0.05 0.034619944 15749.252
0.046289611 -0.05 0.034391604 15791.073
0.045576607 -0.05 0.034162252 15832.233
0.044868158 -0.05 0.033931882 15874.885
0.044164259 -0.05 0.033700465 15917.33
0.043464894 -0.05 0.033468005 15961.001
0.042770054 -0.05 0.033234487 16005.599
0.042079734 -0.05 0.032999885 16052.321
0.041393929 -0.05 0.032764174 16099.611
0.040712625 -0.05 0.032527361 16147.258
0.040035798 -0.05 0.032289471 16194.506
0.039363443 -0.05 0.032050489 16243.325
0.038695563 -0.05 0.031810365 16293.363
0.038032168 -0.05 0.031569045 16344.795
0.037373226 -0.05 0.031326581 16395.013
0.036718733 -0.05 0.03108296 16447.452
0.036068678 -0.05 0.030838173 16499.284
0.035423063 -0.05 0.030592193 16555.113
0.034781926 -0.05 0.030344893 16611.203
0.034145213 -0.05 0.030096392 16665.525
0.033512917 -0.05 0.029846677 16722.712
0.032885063 -0.05 0.029595666 16781.349
0.032261651 -0.05 0.029343341 16842.343
0.031642677 -0.05 0.029089693 16903.071
0.031028119 -0.05 0.028834753 16963.972
0.030417982 -0.05 0.028578493 17026.558
0.029812303 -0.05 0.028320809 17091.834
0.029211079 -0.05 0.0280617 17156.373
0.028614285 -0.05 0.027801211 17221.868
0.028021925 -0.05 0.027539318 17288.84
0.027434034 -0.05 0.027275938 17359.135
0.026850619 -0.05 0.027011044 17429.179
0.026271654 -0.05 0.026744689 17500.957
0.025697179 -0.05 0.02647678 17576.271
0.025127212 -0.05 0.026207275 17651.727
0.024561729 -0.05 0.025936225 17727.942
0.024000753 -0.05 0.025663583 17807.221
0.023444336 -0.05 0.025389243 17888.602
0.022892447 -0.05 0.025113275 17969.635
0.022345135 -0.05 0.024835581 18056.69
0.02180243 -0.05 0.024556113 18141.171
0.021264293 -0.05 0.024274957 18228.491
0.0207308 -0.05 0.023991978 18319.212
0.020201992 -0.05 0.023707108 18411.239
0.019677842 -0.05 0.023420417 18502.684
0.019158403 -0.05 0.023131824 18598.685
0.018643727 -0.05 0.022841258 18694.725
0.018133826 -0.05 0.022548716 18793.91
0.017628739 -0.05 0.022254151 18893.716
0.017128471 -0.05 0.021957583 18997.148
0.016633127 -0.05 0.021658866 19107.193
0.016142724 -0.05 0.021358 19218.518
0.015657283 -0.05 0.021054987 19338.317
0.015176888 -0.05 0.020749728 19464.125
0.014701579 -0.05 0.020442196 19597.061
0.014231398 -0.05 0.020132367 19735.521
0.013766434 -0.05 0.019820157 19881.263
0.013306742 -0.05 0.019505528 20029.237
0.012852374 -0.05 0.019188457 20182.718
0.012403439 -0.05 0.018868841 20338.863
0.01195997 -0.05 0.018546687 20497.745
0.011522076 -0.05 0.018221915 20661.448
0.011089809 -0.05 0.017894514 20827.892
0.0106633 -0.05 0.017564386 21003.031
0.010242659 -0.05 0.01723145 21179.569
0.009827894 -0.05 0.016895788 21362.249
0.0094192167 -0.05 0.016557218 21554.923
0.0090167438 -0.05 0.016215673 21750.479
0.0086204858 -0.05 0.015871238 21952.093
0.0082306648 -0.05 0.015523765 22164.989
0.0078474301 -0.05 0.015173187 22381.619
0.00747084 -0.05 0.014819531 22604.986
0.0071010571 -0.05 0.014462741 22836.851
0.0067383047 -0.05 0.014102727 23078.873
0.0063827544 -0.05 0.013739427 23325.263
0.0060345067 -0.05 0.013372862 23575.475
0.0056937565 -0.05 0.013003011 23832.588
0.0053606882 -0.05 0.012629837 24097.639
0.0050354824 -0.05 0.012253323 24373.966
0.0047183926 -0.05 0.01187344 24660.76
0.0044096379 -0.05 0.011490161 24956.347
0.0041094132 -0.05 0.011103483 25260.927
0.0038179536 -0.05 0.010713443 25574.812
0.0035354728 -0.05 0.01032007 25897.212
0.0032621919 -0.05 0.0099233916 26228.207
0.0029983702 -0.05 0.0095234712 26566.701
0.0027442429 -0.05 0.0091203468 26912.351
0.0025000604 -0.05 0.0087141009 27264.777
0.0022660754 -0.05 0.0083048554 27623.532
0.0020425146 -0.05 0.0078926699 27988.561
0.0018296563 -0.05 0.0074776735 28358.951
0.0016277487 -0.05 0.0070600557 28732.495
0.0014369745 -0.05 0.006639968 29108.334
0.0012575291 -0.05 0.0062175973 29486.794
0.0010896146 -0.05 0.0057931737 29866.262
0.00093341056 -0.05 0.0053669215 30244.112
0.00078906403 -0.05 0.0049390744 30618.456
0.00065670868 -0.05 0.0045099018 30988.349
0.00053653171 -0.05 0.0040796665 31353.485
0.00042862038 -0.05 0.003648665 31709.326
0.00033294635 -0.05 0.003217232 32054.73
0.00024951873 -0.05 0.002785685 32389.526
0.00017832254 -0.05 0.0023543467 32712.164
0.00011930806 -0.05 0.0019235435 33020.361
7.2389968e-05 -0.05 0.0014936046 33312.768
3.7448892e-05 -0.05 0.0010648563 33588.708
1.4332163e-05 -0.05 0.0006376208 33848.127
2.8544133e-06 -0.05 0.00021221054 34088.815
0.99884037 -0.05 0.00016828408 26709.77
0.99652103 -0.05 0.00050440213 26690.63
0.99420154 -0.05 0.0008395204 26648.663
0.99188191 -0.05 0.0011736208 26614.364
0.98956214 -0.05 0.0015067636 26578.009
0.98724223 -0.05 0.001838948 26543.194
0.9849222 -0.05 0.0021701636 26508.488
0.98260202 -0.05 0.0025004302 26474.257
0.98028169 -0.05 0.0028297328 26440.337
0.97796124 -0.05 0.0031580577 26406.663
0.97564065 -0.05 0.0034854377 26373.219
0.97331994 -0.05 0.0038118591 26339.972
0.97099908 -0.05 0.0041373159 26306.911
0.96867809 -0.05 0.0044618578 26273.959
0.96635696 -0.05 0.0047854478 26241.239
0.96403572 -0.05 0.0051081172 26208.528
0.96171435 -0.05 0.0054299032 26176.02
0.95939284 -0.05 0.0057507069 26143.664
0.95707121 -0.05 0.0060705875 26111.371
0.95474946 -0.05 0.0063895914 26079.216
0.95242757 -0.05 0.0067076389 26047.265
0.95010556 -0.05 0.0070248024 26015.278
0.94778344 -0.05 0.0073411105 25983.51
0.94546118 -0.05 0.0076564368 25951.933
0.94313881 -0.05 0.007970866 25920.377
0.94081631 -0.05 0.0082844406 25888.993
0.93849369 -0.05 0.0085971026 25857.76
0.93617096 -0.05 0.0089088655 25826.65
0.9338481 -0.05 0.0092197817 25795.597
0.93152513 -0.05 0.0095298292 25764.745
0.92920205 -0.05 0.00983897 25734.012
0.92687884 -0.05 0.010147248 25703.4
0.92455553 -0.05 0.01045465 25672.949
0.92223209 -0.05 0.010761189 25642.573
0.91990855 -0.05 0.011066875 25612.397
0.91758488 -0.05 0.011371653 25582.423
0.91526111 -0.05 0.011675608 25552.404
0.91293723 -0.05 0.011978761 25522.613
0.91061324 -0.05 0.012281 25493.052
0.90828913 -0.05 0.012582372 25463.53
0.90596492 -0.05 0.012882964 25434.081
0.90364059 -0.05 0.013182677 25405.007
0.90131615 -0.05 0.013481494 25375.955
0.89899162 -0.05 0.013779572 25346.854
0.89666698 -0.05 0.014076842 25318.104
0.89434222 -0.05 0.014373142 25289.643
0.89201737 -0.05 0.014668681 25260.898
0.88969241 -0.05 0.014963453 25232.629
0.88736734 -0.05 0.0152573 25204.475
0.88504217 -0.05 0.015550344 25176.354
0.8827169 -0.05 0.015842646 25148.282
0.88039152 -0.05 0.016134071 25120.662
0.87806604 -0.05 0.016424635 25092.947
0.87574046 -0.05 0.016714466 25065.379
0.87341478 -0.05 0.017003468 25038.037
0.871089 -0.05 0.017291665 25010.721
0.86876312 -0.05 0.017579058 24983.654
0.86643714 -0.05 0.017865646 24956.597
0.86411107 -0.05 0.018151445 24929.789
0.86178489 -0.05 0.018436407 24903.103
0.85945862 -0.05 0.018720606 24876.401
0.85713225 -0.05 0.019004019 24849.986
0.85480578 -0.05 0.019286574 24823.764
0.85247921 -0.05 0.019568355 24797.494
0.85015256 -0.05 0.019849418 24771.333
0.84782581 -0.05 0.020129657 24745.481
0.84549896 -0.05 0.020409081 24719.611
0.84317202 -0.05 0.020687756 24693.835
0.84084499 -0.05 0.020965643 24668.262
0.83851786 -0.05 0.021242672 24642.992
0.83619063 -0.05 0.021518954 24617.493
0.83386332 -0.05 0.021794529 24592.26
0.83153592 -0.05 0.022069294 24567.159
0.82920841 -0.05 0.022343258 24542.21
0.82688083 -0.05 0.02261648 24517.182
0.82455316 -0.05 0.022888925 24492.47
0.82222538 -0.05 0.023160547 24467.835
0.81989751 -0.05 0.023431389 24443.345
0.81756956 -0.05 0.023701494 24418.811
0.81524153 -0.05 0.023970846 24394.517
0.8129134 -0.05 0.024239417 24370.235
0.81058518 -0.05 0.02450723 24346.108
0.80825687 -0.05 0.024774258 24322.094
0.80592849 -0.05 0.02504053 24298.144
0.8036 -0.05 0.025306023 24274.372
0.80127144 -0.05 0.025570774 24250.498
0.79894279 -0.05 0.025834763 24226.96
0.79661404 -0.05 0.026097924 24203.463
0.79428522 -0.05 0.026360374 24179.891
0.79195631 -0.05 0.026622048 24156.692
0.78962731 -0.05 0.026882938 24133.347
0.78729823 -0.05 0.027143126 24110.152
0.78496906 -0.05 0.027402517 24087.142
0.78263981 -0.05 0.02766117 24063.956
0.78031048 -0.05 0.027919081 24041.104
0.77798106 -0.05 0.028176144 24018.375
0.77565155 -0.05 0.028432494 23995.434
0.77332196 -0.05 0.028688107 23972.836
0.77099228 -0.05 0.028942908 23950.221
0.76866253 -0.05 0.029196968 23927.64
0.7663327 -0.05 0.029450285 23905.125
0.76400278 -0.05 0.029702803 23882.817
0.76167277 -0.05 0.029954568 23860.384
0.75934268 -0.05 0.030205573 23838.248
0.75701251 -0.05 0.030455803 23815.99
0.75468227 -0.05 0.030705313 23793.844
0.75235193 -0.05 0.030954045 23771.789
0.75002152 -0.05 0.031202018 23749.742
0.74769103 -0.05 0.031449207 23727.892
0.74536045 -0.05 0.031695625 23705.971
0.7430298 -0.05 0.031941289 23684.191
0.74069906 -0.05 0.032186181 23662.398
0.73836824 -0.05 0.032430305 23640.751
0.73603734 -0.05 0.032673645 23619.153
0.73370637 -0.05 0.032916233 23597.506
0.73137531 -0.05 0.033158092 23575.855
0.72904417 -0.05 0.033399148 23554.479
0.72671295 -0.05 0.033639377 23533.089
0.72438166 -0.05 0.03387888 23511.559
0.72205028 -0.05 0.034117645 23490.175
0.71971882 -0.05 0.034355552 23469.046
0.71738729 -0.05 0.034592685 23447.634
0.71505567 -0.05 0.034829099 23426.41
0.71272397 -0.05 0.035064674 23405.304
0.71039219 -0.05 0.035299486 23384.013
0.70806035 -0.05 0.035533544 23362.922
0.70572841 -0.05 0.035766778 23341.826
0.70339641 -0.05 0.035999269 23320.611
0.70106433 -0.05 0.03623098 23299.536
0.69873216 -0.05 0.036461892 23278.367
0.69639992 -0.05 0.036691978 23257.379
0.69406759 -0.05 0.036921269 23236.197
0.69173519 -0.05 0.03714974 23215.345
0.68940271 -0.05 0.037377398 23194.201
0.68707015 -0.05 0.037604327 23173.076
0.68473752 -0.05 0.03783047 23151.889
0.68240481 -0.05 0.038055756 23130.908
0.68007201 -0.05 0.038280206 23109.742
0.67773914 -0.05 0.038503859 23088.663
0.67540619 -0.05 0.03872673 23067.361
0.67307317 -0.05 0.038948784 23046.242
0.67074007 -0.05 0.039170028 23024.824
0.66840689 -0.05 0.039390456 23003.601
0.66607364 -0.05 0.039610024 22982.177
0.6637403 -0.05 0.039828774 22960.81
0.66140688 -0.05 0.040046679 22939.304
0.6590734 -0.05 0.040263799 22917.605
0.65673983 -0.05 0.040480084 22895.971
0.65440618 -0.05 0.040695489 22874.203
0.65207246 -0.05 0.040910082 22852.244
0.64973866 -0.05 0.041123838 22830.233
0.64740478 -0.05 0.04133674 22808.017
0.64507083 -0.05 0.041548788 22785.743
0.6427368 -0.05 0.04175995 22763.32
0.64040268 -0.05 0.041970278 22740.636
0.6380685 -0.05 0.042179753 22717.861
0.63573424 -0.05 0.042388355 22694.823
0.63339989 -0.05 0.042596094 22671.64
0.63106547 -0.05 0.042802945 22648.208
0.62873097 -0.05 0.04300894 22624.482
0.6263964 -0.05 0.043214055 22600.567
0.62406174 -0.05 0.043418269 22576.361
0.62172702 -0.05 0.043621601 22551.851
0.61939221 -0.05 0.043824069 22526.951
0.61705733 -0.05 0.044025645 22501.808
0.61472237 -0.05 0.044226271 22476.366
0.61238733 -0.05 0.044426006 22450.435
0.61005222 -0.05 0.04462488 22424.108
0.60771702 -0.05 0.044822825 22397.412
0.60538174 -0.05 0.045019806 22370.315
0.6030464 -0.05 0.045215861 22342.684
0.60071097 -0.05 0.045411024 22314.547
0.59837546 -0.05 0.045605254 22285.924
0.59603988 -0.05 0.045798556 22256.684
0.59370423 -0.05 0.045990938 22226.886
0.59136849 -0.05 0.046182352 22196.515
0.58903267 -0.05 0.046372791 22165.526
0.58669678 -0.05 0.046562266 22133.86
0.5843608 -0.05 0.046750814 22101.426
0.58202475 -0.05 0.046938396 22068.341
0.57968862 -0.05 0.047124972 22034.473
0.57735242 -0.05 0.047310579 21999.786
0.57501614 -0.05 0.047495251 21964.197
0.57267978 -0.05 0.047678924 21927.845
0.57034334 -0.05 0.04786155 21890.569
0.56800683 -0.05 0.048043188 21852.35
0.56567024 -0.05 0.048223861 21813.115
0.56333356 -0.05 0.048403536 21772.915
0.56099681 -0.05 0.048582153 21731.696
0.55865998 -0.05 0.04875972 21689.39
0.55632308 -0.05 0.048936314 21645.896
0.55398609 -0.05 0.049111879 21601.344
0.55164903 -0.05 0.049286359 21555.559
0.54931189 -0.05 0.049459794 21508.591
0.54697467 -0.05 0.049632163 21460.373
0.54463737 -0.05 0.049803468 21410.894
0.5423 -0.05 0.049973719 21360.086
0.53996254 -0.05 0.050142913 21307.937
0.53762502 -0.05 0.050311035 21254.425
0.53528742 -0.05 0.050478054 21199.577
0.53294973 -0.05 0.050643972 21143.306
0.53061196 -0.05 0.050808824 21085.605
0.52827412 -0.05 0.050972558 21026.474
0.5259362 -0.05 0.051135143 20965.862
0.5235982 -0.05 0.051296612 20903.762
0.52126012 -0.05 0.051456922 20840.175
0.51892198 -0.05 0.051616121 20775.013
0.51658374 -0.05 0.051774162 20708.399
0.51424543 -0.05 0.051931036 20640.233
0.51190704 -0.05 0.05208678 20570.632
0.50956857 -0.05 0.052241321 20499.422
0.50723003 -0.05 0.052394685 20426.638
0.50489141 -0.05 0.052546885 20352.359
0.50255271 -0.05 0.05269791 20276.558
0.50021394 -0.05 0.052847701 20199.215
0.49787509 -0.05 0.052996281 20120.399
0.49553616 -0.05 0.053143654 20040.123
0.49319715 -0.05 0.053289801 19958.274
0.49085807 -0.05 0.053434697 19875.038
0.48851891 -0.05 0.05357832 19790.491
0.48617967 -0.05 0.053720679 19704.573
0.48384036 -0.05 0.053861795 19617.309
0.48150096 -0.05 0.054001669 19528.793
0.4791615 -0.05 0.054140241 19439.047
0.47682195 -0.05 0.054277501 19348.117
0.47448234 -0.05 0.054413462 19256.011
0.47214264 -0.05 0.054548109 19162.707
0.46980287 -0.05 0.054681459 19068.145
0.46746302 -0.05 0.054813494 18972.337
0.4651231 -0.05 0.054944177 18875.256
0.4627831 -0.05 0.055073496 18776.998
0.46044304 -0.05 0.055201437 18677.595
0.45810288 -0.05 0.055328007 18577.178
0.45576266 -0.05 0.055453195 18475.718
0.45342237 -0.05 0.055576996 18373.147
0.451082 -0.05 0.05569938 18269.011
0.44874156 -0.05 0.055820362 18162.48
0.44640104 -0.05 0.055939944 18052.289
0.44406046 -0.05 0.056058044 17936.849
0.4417198 -0.05 0.056174717 17812.225
0.43937906 -0.05 0.05628996 17673.512
0.43703826 -0.05 0.056403696 17516.006
0.43469738 -0.05 0.056515954 17331.357
0.43235643 -0.05 0.056626691 17110.459
0.43001541 -0.05 0.056735938 16846.198
0.42767432 -0.05 0.056843696 16527.409
0.42533317 -0.05 0.056949929 16122.746
0.42299193 -0.05 0.057054582 15594.937
0.42065064 -0.05 0.05715767 14936.605
0.41830927 -0.05 0.057259222 14197.992
0.41596783 -0.05 0.057359191 13478.138
0.41362633 -0.05 0.057457551 12872.974
0.41128476 -0.05 0.057554292 12425.407
0.40894313 -0.05 0.057649427 12124.839
0.40660142 -0.05 0.057742965 11936.903
0.40425966 -0.05 0.057834838 11825.844
0.40191783 -0.05 0.057925023 11762.077
0.39957593 -0.05 0.058013541 11727.571
0.39723398 -0.05 0.058100378 11710.359
0.39489196 -0.05 0.058185525 11702.666
0.39254988 -0.05 0.058268918 11699.685
0.39020774 -0.05 0.058350591 11698.854
0.38786553 -0.05 0.058430541 11699.539
0.38552326 -0.05 0.058508715 11701.9
0.38318094 -0.05 0.058585094 11705.056
0.38083857 -0.05 0.058659688 11708.686
0.37849613 -0.05 0.058732482 11712.676
0.37615364 -0.05 0.058803471 11716.846
0.37381109 -0.05 0.058872605 11721.756
0.37146848 -0.05 0.058939856 11726.588
0.36912583 -0.05 0.059005237 11731.674
0.36678312 -0.05 0.059068742 11736.676
0.36444037 -0.05 0.059130353 11742.036
0.36209757 -0.05 0.059190049 11747.335
0.35975471 -0.05 0.059247824 11753.014
0.35741181 -0.05 0.059303603 11759.235
0.35506885 -0.05 0.059357402 11765.015
0.35272586 -0.05 0.059409225 11771.289
0.35038283 -0.05 0.059459045 11777.296
0.34803975 -0.05 0.059506859 11783.811
0.34569662 -0.05 0.059552581 11790.754
0.34335347 -0.05 0.059596249 11797.074
0.34101027 -0.05 0.059637862 11804.194
0.33866703 -0.05 0.059677333 11811.428
0.33632377 -0.05 0.059714702 11818.562
0.33398046 -0.05 0.059749909 11826.505
0.33163713 -0.05 0.059782951 11833.736
0.32929376 -0.05 0.059813858 11841.532
0.32695037 -0.05 0.059842535 11849.776
0.32460696 -0.05 0.059868968 11858.045
0.32226351 -0.05 0.059893141 11866.618
0.31992004 -0.05 0.059915067 11874.77
0.31757656 -0.05 0.059934727 11883.567
0.31523306 -0.05 0.059952066 11892.402
0.31288954 -0.05 0.059967055 11901.729
0.31054601 -0.05 0.059979678 11910.762
0.30820247 -0.05 0.059989926 11920.094
0.30585891 -0.05 0.059997793 11929.184
0.30351535 -0.05 0.060003209 11939.539
0.30117178 -0.05 0.060006157 11950.014
