/*--------------------------------*- C++ -*----------------------------------*\
| =========                 |                                                 |
| \\      /  F ield         | OpenFOAM: The Open Source CFD Toolbox           |
|  \\    /   O peration     | Version:  2306                                  |
|   \\  /    A nd           | Website:  www.openfoam.com                      |
|    \\/     M anipulation  |                                                 |
\*---------------------------------------------------------------------------*/
FoamFile
{
    version     2.0;
    format      ascii;
    arch        "LSB;label=32;scalar=64";
    class       volScalarField;
    location    "375";
    object      turbulenceProperties:k;
}
// * * * * * * * * * * * * * * * * * * * * * * * * * * * * * * * * * * * * * //

dimensions      [0 2 -2 0 0 0 0];

internalField   nonuniform List<scalar> 
1340
(
0.00288495
0.00301489
0.00406973
0.00603115
0.00903285
0.0133975
0.0196366
0.0284183
0.0408165
0.0586615
0.0853429
0.127067
0.195055
0.311621
0.517837
0.911237
1.66852
3.31952
6.78845
15.1728
31.2652
44.3049
49.9007
51.488
51.7477
51.4497
50.7218
49.6015
0.00215684
0.00189735
0.00165748
0.00141948
0.00119301
0.00099695
0.00083131
0.000690809
0.000571734
0.0004714
0.000386282
0.000314251
0.000251125
0.000193458
0.000136417
8.06521e-05
2.79572e-05
4.5601e-06
1.16214e-05
0.00159568
0.00854071
0.0688275
0.231443
0.451766
0.67342
0.867761
1.03113
1.17489
1.30942
0.00172484
0.00155017
0.00138785
0.00122086
0.00104117
0.000867179
0.000711465
0.000577381
0.000466682
0.000377307
0.000307657
0.000254832
0.000216412
0.000188815
0.000169802
0.000157463
0.000150686
0.000146971
0.000146801
0.00014586
0.000155153
9.22778e-05
0.000635718
0.00417622
0.011834
0.0247087
0.0551184
0.115
0.203558
0.00145611
0.00135252
0.00124229
0.00112751
0.00100295
0.000874209
0.00075351
0.000646872
0.000554969
0.000477318
0.00041222
0.000358663
0.000315045
0.000280037
0.000251538
0.00022838
0.000208929
0.000191498
0.000173167
0.000154333
0.000138679
0.000126853
0.000118356
0.000108053
9.47703e-05
7.119e-05
4.49363e-05
0.000344174
0.000593899
0.00214547
0.00115752
0.00108657
0.00101039
0.000929168
0.000840012
0.000747264
0.000656507
0.000571274
0.000493046
0.000422873
0.000361201
0.00030818
0.000263576
0.000226871
0.000196946
0.000172788
0.000153089
0.000136453
0.000120585
0.00010446
8.95692e-05
7.77459e-05
6.9579e-05
6.59971e-05
6.09865e-05
7.45217e-05
1.76014e-05
0.000114597
0.000540139
0.000150495
0.000979219
0.000935352
0.000884866
0.000830695
0.000771792
0.000706676
0.000638481
0.000570605
0.000505651
0.000445132
0.000390101
0.000341244
0.000298775
0.000262573
0.000232216
0.000206925
0.000185814
0.000167764
0.000151532
0.000135381
0.00011861
0.000102643
8.87153e-05
7.70599e-05
6.7285e-05
5.91577e-05
5.21828e-05
4.58225e-05
3.64805e-05
2.58932e-05
1.44358e-05
0.000799138
0.000766696
0.00073024
0.000690501
0.00064674
0.000598754
0.000548317
0.000497334
0.000447351
0.000399434
0.000354477
0.000313198
0.000275996
0.00024311
0.00021454
0.000189951
0.000168867
0.000150586
0.000134203
0.000118461
0.000102697
8.77605e-05
7.46305e-05
6.35798e-05
5.43805e-05
4.69124e-05
4.13285e-05
3.77129e-05
3.56608e-05
3.28445e-05
2.36914e-05
0.000660854
0.000636089
0.000609034
0.000579212
0.000546189
0.000510364
0.000472542
0.000433909
0.000395418
0.00035779
0.00032176
0.000288026
0.000257014
0.000229094
0.000204407
0.000182809
0.000163954
0.000147311
0.000132156
0.000117541
0.000102967
8.90606e-05
7.65856e-05
6.57555e-05
5.63434e-05
4.81398e-05
4.10865e-05
3.50483e-05
2.98786e-05
2.54319e-05
2.22141e-05
0.000568093
0.000552266
0.000533156
0.000512559
0.000489744
0.000464517
0.000437396
0.000408762
0.000379292
0.000349556
0.000319997
0.000291125
0.000263469
0.000237445
0.000213396
0.000191539
0.000171904
0.000154344
0.000138523
0.000123936
0.000109945
9.62016e-05
8.31055e-05
7.12879e-05
6.09874e-05
5.20711e-05
4.43863e-05
3.7899e-05
3.26522e-05
2.86522e-05
2.58663e-05
2.42619e-05
0.000465649
0.000450735
0.000434687
0.000416923
0.000397463
0.000376684
0.000354776
0.000332144
0.000309082
0.000285826
0.000262752
0.000240248
0.000218631
0.000198251
0.000179325
0.000161967
0.00014614
0.000131642
0.000118127
0.000105171
9.251e-05
8.04351e-05
6.94417e-05
5.9743e-05
5.12427e-05
4.38016e-05
3.73666e-05
3.19104e-05
2.73568e-05
2.37787e-05
2.11631e-05
0.000383817
0.000371093
0.000357057
0.000341892
0.000325817
0.000308889
0.000291366
0.000273407
0.000255115
0.000236699
0.000218432
0.000200549
0.000183321
0.00016698
0.000151661
0.000137384
0.000124063
0.00011149
9.93933e-05
8.76204e-05
7.63917e-05
6.60899e-05
5.69206e-05
4.8843e-05
4.17653e-05
3.56592e-05
3.05337e-05
2.63864e-05
2.32754e-05
2.11484e-05
0.000318616
0.000307401
0.00029546
0.000282882
0.000269694
0.000256045
0.000241997
0.000227555
0.000212864
0.000198082
0.000183353
0.000168896
0.000154891
0.000141498
0.000128788
0.000116734
0.000105209
9.40579e-05
8.32276e-05
7.28823e-05
6.33243e-05
5.47383e-05
4.71166e-05
4.03946e-05
3.4544e-05
2.95708e-05
2.54506e-05
2.22409e-05
1.99631e-05
0.000265867
0.00025637
0.000246446
0.000236087
0.000225372
0.000214321
0.000202908
0.00019117
0.000179212
0.000167121
0.000155047
0.000143129
0.000131502
0.000120252
0.000109397
9.88834e-05
8.86493e-05
7.86944e-05
6.91651e-05
6.02971e-05
5.22597e-05
4.50734e-05
3.87015e-05
3.31317e-05
2.83835e-05
2.4457e-05
2.14102e-05
1.92659e-05
0.000223249
0.000215345
0.000207137
0.000198678
0.000189948
0.000180884
0.000171507
0.000161846
0.000151936
0.000141888
0.0001318
0.000121776
0.000111893
0.000102198
9.26875e-05
8.33677e-05
7.42758e-05
6.55385e-05
5.73541e-05
4.98707e-05
4.31273e-05
3.71107e-05
3.18183e-05
2.72742e-05
2.34783e-05
2.04877e-05
1.83355e-05
0.000188672
0.000182125
0.000175394
0.000168455
0.000161237
0.000153722
0.000145916
0.000137818
0.00012948
0.000120971
0.000112369
0.000103749
9.51615e-05
8.66263e-05
7.81746e-05
6.98903e-05
6.19031e-05
5.43715e-05
4.74247e-05
4.11148e-05
3.54478e-05
3.0432e-05
2.60985e-05
2.2457e-05
1.95677e-05
1.74629e-05
0.000165691
0.000160424
0.000155042
0.0001495
0.000143724
0.00013769
0.000131369
0.000124749
0.000117847
0.0001107
0.000103359
9.58811e-05
8.83176e-05
8.07018e-05
7.30956e-05
6.55933e-05
5.83217e-05
5.14154e-05
4.49911e-05
3.91084e-05
3.37879e-05
2.90468e-05
2.49212e-05
2.14252e-05
1.86195e-05
1.6539e-05
0.000141553
0.000137213
0.000132757
0.000128118
0.000123254
0.000118133
0.000112719
0.000107016
0.00010103
9.47934e-05
8.83433e-05
8.17193e-05
7.49631e-05
6.81494e-05
6.13858e-05
5.47867e-05
4.84761e-05
4.25562e-05
3.70896e-05
3.21091e-05
2.76393e-05
2.37198e-05
2.03714e-05
1.76555e-05
1.56084e-05
0.000125086
0.000121567
0.000117965
0.000114216
0.000110282
0.000106121
0.00010169
9.69785e-05
9.19761e-05
8.66919e-05
8.11528e-05
7.53907e-05
6.94389e-05
6.33647e-05
5.7282e-05
5.13171e-05
4.55728e-05
4.01379e-05
3.5076e-05
3.04279e-05
2.62248e-05
2.25083e-05
1.93052e-05
1.66761e-05
1.46589e-05
0.00010781
0.00010488
0.000101835
9.86371e-05
9.52462e-05
9.16153e-05
8.77206e-05
8.3545e-05
7.90855e-05
7.43462e-05
6.93481e-05
6.41215e-05
5.87379e-05
5.33039e-05
4.7933e-05
4.27202e-05
3.77459e-05
3.3073e-05
2.87472e-05
2.48042e-05
2.12869e-05
1.82278e-05
1.56853e-05
1.36997e-05
9.56951e-05
9.32942e-05
9.0808e-05
8.81977e-05
8.5423e-05
8.24406e-05
7.92206e-05
7.57357e-05
7.19744e-05
6.79346e-05
6.3622e-05
5.90552e-05
5.43012e-05
4.94623e-05
4.46416e-05
3.99268e-05
3.53897e-05
3.10903e-05
2.70762e-05
2.33867e-05
2.00643e-05
1.71467e-05
1.46894e-05
1.27353e-05
8.50078e-05
8.30293e-05
8.09862e-05
7.8845e-05
7.65656e-05
7.4107e-05
7.14403e-05
6.85343e-05
6.53675e-05
6.19272e-05
5.82162e-05
5.42451e-05
5.00653e-05
4.57678e-05
4.14547e-05
3.72054e-05
3.3081e-05
2.91375e-05
2.54228e-05
2.19782e-05
1.88456e-05
1.60665e-05
1.36927e-05
1.17709e-05
7.39296e-05
7.22386e-05
7.04702e-05
6.85902e-05
6.65579e-05
6.43431e-05
6.19155e-05
5.92502e-05
5.63292e-05
5.31429e-05
4.96961e-05
4.60318e-05
4.22328e-05
3.83887e-05
3.45696e-05
3.08311e-05
2.72236e-05
2.37945e-05
2.05854e-05
1.76375e-05
1.49932e-05
1.27014e-05
1.08124e-05
6.58533e-05
6.44461e-05
6.29791e-05
6.14184e-05
5.97307e-05
5.78875e-05
5.58565e-05
5.36115e-05
5.11321e-05
4.84026e-05
4.54197e-05
4.22181e-05
3.88684e-05
3.54522e-05
3.20281e-05
2.86482e-05
2.53574e-05
2.22002e-05
1.92172e-05
1.64478e-05
1.39343e-05
1.17229e-05
9.86678e-06
5.75052e-05
5.62775e-05
5.49759e-05
5.35689e-05
5.20294e-05
5.03268e-05
4.84351e-05
4.63317e-05
4.39964e-05
4.14202e-05
3.86282e-05
3.56809e-05
3.26497e-05
2.95902e-05
2.65425e-05
2.35481e-05
2.06483e-05
1.78811e-05
1.52835e-05
1.28974e-05
1.0765e-05
8.94165e-06
5.132e-05
5.02883e-05
4.91955e-05
4.80159e-05
4.67249e-05
4.52946e-05
4.36972e-05
4.19108e-05
3.99133e-05
3.76919e-05
3.52626e-05
3.26768e-05
2.99938e-05
2.7265e-05
2.4523e-05
2.18048e-05
1.91467e-05
1.65845e-05
1.41524e-05
1.189e-05
9.83536e-06
8.04435e-06
4.58091e-05
4.49353e-05
4.40137e-05
4.302e-05
4.1932e-05
4.0726e-05
3.93759e-05
3.78578e-05
3.61485e-05
3.42323e-05
3.21201e-05
2.98538e-05
2.74858e-05
2.50563e-05
2.25952e-05
2.01331e-05
1.77018e-05
1.53346e-05
1.30615e-05
1.09187e-05
8.9412e-06
7.18291e-06
4.01537e-05
3.93708e-05
3.85293e-05
3.76101e-05
3.65892e-05
3.54439e-05
3.4152e-05
3.26896e-05
3.10377e-05
2.92037e-05
2.72201e-05
2.5132e-05
2.29731e-05
2.07676e-05
1.85413e-05
1.63224e-05
1.4139e-05
1.20182e-05
9.9922e-06
8.09135e-06
6.36591e-06
3.58845e-05
3.52155e-05
3.4499e-05
3.37172e-05
3.28502e-05
3.18764e-05
3.07741e-05
2.95211e-05
2.80971e-05
2.65048e-05
2.47705e-05
2.29314e-05
2.10154e-05
1.90426e-05
1.70337e-05
1.50127e-05
1.30033e-05
1.1029e-05
9.11764e-06
7.29405e-06
5.60244e-06
3.2073e-05
3.14981e-05
3.08846e-05
3.02171e-05
2.94777e-05
2.8647e-05
2.77052e-05
2.66298e-05
2.54013e-05
2.40186e-05
2.25022e-05
2.08844e-05
1.91865e-05
1.74248e-05
1.56156e-05
1.37785e-05
1.19337e-05
1.01002e-05
8.30157e-06
6.55679e-06
4.90171e-06
2.81741e-05
2.76461e-05
2.70741e-05
2.64413e-05
2.57302e-05
2.49232e-05
2.39987e-05
2.29376e-05
2.17369e-05
2.04124e-05
1.89895e-05
1.74868e-05
1.59157e-05
1.42895e-05
1.26232e-05
1.09338e-05
9.23634e-06
7.54959e-06
5.88728e-06
4.27412e-06
2.52047e-05
2.47478e-05
2.42548e-05
2.37109e-05
2.31005e-05
2.24072e-05
2.16117e-05
2.06942e-05
1.96504e-05
1.84935e-05
1.72433e-05
1.59148e-05
1.45161e-05
1.3057e-05
1.15497e-05
1.00072e-05
8.44162e-06
6.86695e-06
5.29224e-06
3.73007e-06
2.21557e-05
2.17292e-05
2.12599e-05
2.07346e-05
2.01379e-05
1.94515e-05
1.86574e-05
1.775e-05
1.67389e-05
1.56413e-05
1.44679e-05
1.32247e-05
1.19186e-05
1.05591e-05
9.1559e-06
7.71811e-06
6.25649e-06
4.77625e-06
3.27939e-06
1.9839e-05
1.94687e-05
1.90626e-05
1.86089e-05
1.80935e-05
1.75006e-05
1.68129e-05
1.60238e-05
1.51408e-05
1.41774e-05
1.31422e-05
1.20394e-05
1.08736e-05
9.65118e-06
8.37995e-06
7.06669e-06
5.71965e-06
4.34226e-06
2.92996e-06
1.77696e-05
1.74469e-05
1.70947e-05
1.67021e-05
1.6257e-05
1.57439e-05
1.51471e-05
1.44602e-05
1.36891e-05
1.28446e-05
1.19333e-05
1.0957e-05
9.91924e-06
8.82427e-06
7.67827e-06
6.48645e-06
5.25549e-06
3.98934e-06
2.68394e-06
1.56405e-05
1.53344e-05
1.49937e-05
1.46081e-05
1.41638e-05
1.36463e-05
1.30486e-05
1.23754e-05
1.16358e-05
1.08346e-05
9.97271e-06
9.05205e-06
8.07589e-06
7.04844e-06
5.97464e-06
4.86072e-06
3.71287e-06
2.53481e-06
1.40275e-05
1.37606e-05
1.34649e-05
1.31308e-05
1.27456e-05
1.22963e-05
1.17765e-05
1.11894e-05
1.05428e-05
9.84e-06
9.08126e-06
8.26779e-06
7.40158e-06
6.48626e-06
5.52644e-06
4.5291e-06
3.50386e-06
2.46603e-06
1.25876e-05
1.2355e-05
1.20981e-05
1.18081e-05
1.14743e-05
1.10845e-05
1.06326e-05
1.01214e-05
9.55693e-06
8.94202e-06
8.27647e-06
7.56077e-06
6.7963e-06
5.98654e-06
5.13592e-06
4.25272e-06
3.35043e-06
2.45502e-06
1.11001e-05
1.08767e-05
1.06253e-05
1.03361e-05
9.99806e-06
9.60558e-06
9.16093e-06
8.66951e-06
8.13329e-06
7.55174e-06
6.92499e-06
6.2545e-06
5.54311e-06
4.79597e-06
4.02235e-06
3.23885e-06
2.47837e-06
9.98e-06
9.78593e-06
9.56805e-06
9.31759e-06
9.02479e-06
8.68467e-06
8.29891e-06
7.87212e-06
7.40599e-06
6.89993e-06
6.354e-06
5.76952e-06
5.14924e-06
4.4987e-06
3.82805e-06
3.15551e-06
8.98037e-06
8.81188e-06
8.62327e-06
8.40677e-06
8.15373e-06
7.85943e-06
7.52558e-06
7.15607e-06
6.75245e-06
6.31415e-06
5.84121e-06
5.33488e-06
4.7981e-06
4.23648e-06
3.66046e-06
3.08849e-06
7.94221e-06
7.77918e-06
7.59231e-06
7.37398e-06
7.12001e-06
6.8319e-06
6.51325e-06
6.1652e-06
5.78738e-06
5.37994e-06
4.94416e-06
4.48296e-06
4.00193e-06
3.51119e-06
3.02818e-06
7.16538e-06
7.02467e-06
6.8638e-06
6.67604e-06
6.45754e-06
6.20972e-06
5.93587e-06
5.63701e-06
5.31297e-06
4.96396e-06
4.59128e-06
4.19773e-06
3.78866e-06
3.37344e-06
2.96759e-06
6.47093e-06
6.35005e-06
6.21205e-06
6.05089e-06
5.86344e-06
5.65109e-06
5.41674e-06
5.16137e-06
4.88483e-06
4.58751e-06
4.27067e-06
3.93699e-06
3.5913e-06
3.24192e-06
2.90211e-06
5.74636e-06
5.62811e-06
5.49036e-06
5.33026e-06
5.14899e-06
4.94925e-06
4.73199e-06
4.49718e-06
4.24526e-06
3.97745e-06
3.69615e-06
3.40564e-06
3.113e-06
2.82912e-06
5.20543e-06
5.10472e-06
4.9874e-06
4.8511e-06
4.69698e-06
4.52746e-06
4.34348e-06
4.14512e-06
3.93278e-06
3.70758e-06
3.47166e-06
3.22865e-06
2.98437e-06
2.74756e-06
4.72042e-06
4.63483e-06
4.53525e-06
4.41971e-06
4.28928e-06
4.14609e-06
3.99103e-06
3.82421e-06
3.6461e-06
3.45764e-06
3.26067e-06
3.05818e-06
2.85485e-06
2.65743e-06
4.21246e-06
4.12838e-06
4.03081e-06
3.92089e-06
3.80047e-06
3.67036e-06
3.53072e-06
3.38198e-06
3.22497e-06
3.06114e-06
2.89298e-06
2.72408e-06
2.55956e-06
3.8323e-06
3.76155e-06
3.67957e-06
3.58734e-06
3.48652e-06
3.37783e-06
3.26145e-06
3.13775e-06
3.00742e-06
2.87164e-06
2.73234e-06
2.59223e-06
2.45516e-06
3.48957e-06
3.43036e-06
3.3618e-06
3.28474e-06
3.20067e-06
3.11025e-06
3.01363e-06
2.91113e-06
2.80332e-06
2.6911e-06
2.57593e-06
2.45985e-06
2.34562e-06
3.18014e-06
3.13078e-06
3.07368e-06
3.00957e-06
2.93978e-06
2.86484e-06
2.7849e-06
2.70025e-06
2.6113e-06
2.51875e-06
2.42369e-06
2.32758e-06
2.23237e-06
2.85925e-06
2.8119e-06
2.75877e-06
2.70098e-06
2.63905e-06
2.57312e-06
2.50337e-06
2.43014e-06
2.35395e-06
2.27556e-06
2.19601e-06
2.11664e-06
2.61251e-06
2.57331e-06
2.52937e-06
2.48166e-06
2.43061e-06
2.37632e-06
2.31893e-06
2.25873e-06
2.19607e-06
2.13147e-06
2.06563e-06
1.99947e-06
2.3875e-06
2.3551e-06
2.31878e-06
2.27941e-06
2.23734e-06
2.19266e-06
2.14549e-06
2.09602e-06
2.0445e-06
1.99127e-06
1.93679e-06
2.18147e-06
2.15462e-06
2.12456e-06
2.09203e-06
2.05733e-06
2.02053e-06
1.98175e-06
1.94109e-06
1.89872e-06
1.85486e-06
1.80979e-06
1.96961e-06
1.94465e-06
1.9177e-06
1.88902e-06
1.85868e-06
1.82676e-06
1.79333e-06
1.75849e-06
1.72236e-06
1.68509e-06
1.79835e-06
1.77753e-06
1.75515e-06
1.73142e-06
1.70639e-06
1.68012e-06
1.65264e-06
1.624e-06
1.59426e-06
1.56347e-06
1.63973e-06
1.62237e-06
1.60379e-06
1.58418e-06
1.56356e-06
1.54197e-06
1.51943e-06
1.49594e-06
1.4715e-06
1.44611e-06
1.49334e-06
1.47893e-06
1.4636e-06
1.44748e-06
1.43057e-06
1.41291e-06
1.39447e-06
1.37526e-06
1.35522e-06
1.33433e-06
1.35915e-06
1.34733e-06
1.33477e-06
1.32161e-06
1.30782e-06
1.29342e-06
1.27839e-06
1.26269e-06
1.24629e-06
1.22911e-06
1.22732e-06
1.21708e-06
1.20634e-06
1.1951e-06
1.18334e-06
1.17104e-06
1.15819e-06
1.14472e-06
1.13057e-06
1.11788e-06
1.10942e-06
1.10052e-06
1.09121e-06
1.08148e-06
1.07131e-06
1.06067e-06
1.04953e-06
1.03782e-06
1.01711e-06
1.00984e-06
1.00222e-06
9.94267e-07
9.85994e-07
9.77395e-07
9.6845e-07
9.5912e-07
9.22891e-07
9.16317e-07
9.09495e-07
9.02452e-07
8.95212e-07
8.87774e-07
8.80119e-07
8.72216e-07
8.33862e-07
8.27671e-07
8.21351e-07
8.14943e-07
8.08461e-07
8.019e-07
7.9525e-07
7.88492e-07
7.49949e-07
7.44023e-07
7.38089e-07
7.32173e-07
7.26296e-07
7.20443e-07
7.14617e-07
7.08809e-07
6.66252e-07
6.60644e-07
6.55128e-07
6.49732e-07
6.44446e-07
6.39299e-07
6.34249e-07
5.96305e-07
5.9096e-07
5.85769e-07
5.80738e-07
5.75911e-07
5.71283e-07
5.66814e-07
5.3903e-07
5.33882e-07
5.28891e-07
5.24083e-07
5.19508e-07
5.15141e-07
5.11007e-07
4.93378e-07
4.88447e-07
4.83631e-07
4.78987e-07
4.74525e-07
4.70276e-07
4.66286e-07
4.52248e-07
4.47581e-07
4.42993e-07
4.38524e-07
4.34185e-07
4.30046e-07
4.26126e-07
4.12945e-07
4.08441e-07
4.03975e-07
3.99572e-07
3.95305e-07
3.9123e-07
3.87364e-07
3.76328e-07
3.71741e-07
3.67071e-07
3.62373e-07
3.5776e-07
3.53309e-07
3.40613e-07
3.35678e-07
3.30607e-07
3.25465e-07
3.20335e-07
3.15278e-07
3.00371e-07
2.93607e-07
2.86726e-07
2.79908e-07
2.73347e-07
2.67191e-07
2.45343e-07
2.35445e-07
2.2511e-07
2.14556e-07
2.04029e-07
1.93121e-07
1.83233e-07
1.74138e-07
1.66193e-07
1.59751e-07
1.90813e-07
1.84464e-07
1.79668e-07
1.76321e-07
1.74234e-07
3.49788e-07
3.75545e-07
4.00591e-07
4.24391e-07
4.46432e-07
8.32468e-07
8.46476e-07
8.57568e-07
8.65827e-07
8.7164e-07
1.61848e-06
1.63894e-06
1.65406e-06
1.66411e-06
1.67007e-06
)
;

boundaryField
{
    inlet
    {
        type            calculated;
        value           nonuniform List<scalar> 5(5.06275e-06 5.2029e-06 5.3292e-06 5.44188e-06 5.54122e-06);
    }
    outlet
    {
        type            calculated;
        value           nonuniform List<scalar> 0();
    }
    walls
    {
        type            calculated;
        value           uniform 0;
    }
    frontAndBack
    {
        type            empty;
    }
    procBoundary1to0
    {
        type            processor;
        value           nonuniform List<scalar> 
94
(
0.000478409
0.000478409
0.000395596
0.000395596
0.000328842
0.000328842
0.000274919
0.000274919
0.000230877
0.000230877
0.00019502
0.00019502
0.00017083
0.000145817
0.000145817
0.000128565
0.000110686
0.000110686
9.80606e-05
8.697e-05
7.55735e-05
7.55735e-05
6.72289e-05
5.86865e-05
5.86865e-05
5.23166e-05
4.66575e-05
4.08995e-05
4.08995e-05
3.65239e-05
3.26247e-05
2.86713e-05
2.86713e-05
2.56368e-05
2.25523e-05
2.25523e-05
2.01844e-05
1.80722e-05
1.5922e-05
1.5922e-05
1.42737e-05
1.28033e-05
1.1303e-05
1.1303e-05
1.01569e-05
9.13457e-06
8.08811e-06
8.08811e-06
7.29167e-06
6.57992e-06
5.85011e-06
5.85011e-06
5.29404e-06
4.79581e-06
4.28483e-06
4.28483e-06
3.89318e-06
3.54057e-06
3.22267e-06
2.90018e-06
2.90018e-06
2.64637e-06
2.41546e-06
2.20464e-06
1.99195e-06
1.99195e-06
1.81703e-06
1.65538e-06
1.5064e-06
1.36991e-06
1.23697e-06
1.23697e-06
1.12584e-06
1.02395e-06
9.29126e-07
8.39811e-07
7.55727e-07
6.71934e-07
6.71934e-07
6.01786e-07
5.44346e-07
4.98411e-07
4.56941e-07
4.1743e-07
3.80787e-07
3.45351e-07
3.06798e-07
2.54617e-07
2.54617e-07
2.03487e-07
1.98672e-07
3.23244e-07
8.16239e-07
1.59213e-06
)
;
    }
    procBoundary1to2
    {
        type            processor;
        value           nonuniform List<scalar> 
84
(
48.1501
1.44802
0.312037
0.0115103
0.000490789
6.42797e-05
7.12254e-06
1.85581e-05
2.45063e-05
2.06296e-05
2.08829e-05
1.93711e-05
1.86331e-05
1.75958e-05
1.66628e-05
1.56622e-05
1.46656e-05
1.36523e-05
1.26362e-05
1.162e-05
1.06103e-05
9.61234e-06
8.63255e-06
7.67761e-06
6.75348e-06
5.86698e-06
5.02497e-06
4.23481e-06
3.50479e-06
2.84576e-06
2.27269e-06
1.80879e-06
1.48734e-06
1.33895e-06
1.3558e-06
1.48144e-06
1.65309e-06
1.82957e-06
2.51626e-06
2.51626e-06
2.55418e-06
2.58261e-06
2.59608e-06
2.59197e-06
2.56975e-06
2.53022e-06
2.47497e-06
2.4061e-06
2.32592e-06
2.23665e-06
2.14042e-06
2.03903e-06
1.93395e-06
1.88164e-06
1.88164e-06
1.76383e-06
1.64683e-06
1.53169e-06
1.41976e-06
1.31252e-06
1.21109e-06
1.11565e-06
1.02544e-06
9.49347e-07
9.49347e-07
8.64015e-07
7.81574e-07
7.02953e-07
6.2926e-07
5.62525e-07
5.07105e-07
4.62515e-07
4.22407e-07
3.83724e-07
3.49082e-07
3.49082e-07
3.10361e-07
2.61576e-07
1.93795e-07
1.55056e-07
1.73005e-07
4.66191e-07
8.75634e-07
1.67281e-06
)
;
    }
    procBoundary1to5
    {
        type            processor;
        value           nonuniform List<scalar> 
13
(
0.00385226
0.00385226
0.00242444
0.0018778
0.0018778
0.00154484
0.00121681
0.00121681
0.00101259
0.000824422
0.000680839
0.000680839
0.000581074
)
;
    }
}


// ************************************************************************* //
