/*--------------------------------*- C++ -*----------------------------------*\
| =========                 |                                                 |
| \\      /  F ield         | OpenFOAM: The Open Source CFD Toolbox           |
|  \\    /   O peration     | Version:  2306                                  |
|   \\  /    A nd           | Website:  www.openfoam.com                      |
|    \\/     M anipulation  |                                                 |
\*---------------------------------------------------------------------------*/
FoamFile
{
    version     2.0;
    format      ascii;
    arch        "LSB;label=32;scalar=64";
    class       volSymmTensorField;
    location    "375";
    object      turbulenceProperties:R;
}
// * * * * * * * * * * * * * * * * * * * * * * * * * * * * * * * * * * * * * //

dimensions      [0 2 -2 0 0 0 0];

internalField   nonuniform List<symmTensor> 
1340
(
(0.00194578 0.000261416 5.73474e-20 0.0019163 -2.26476e-20 0.00190783)
(0.00211343 0.000277939 1.01428e-19 0.00191823 -5.13041e-20 0.00199811)
(0.00295776 0.000385218 -8.01662e-20 0.00247025 2.02643e-20 0.00271144)
(0.00451431 0.000623808 -2.35963e-20 0.00352076 1.11288e-19 0.00402723)
(0.00693512 0.00109495 1.74294e-19 0.00509612 7.2502e-20 0.00603447)
(0.0105117 0.00197143 3.58648e-19 0.00732805 -5.58406e-20 0.00895522)
(0.0156725 0.00349516 -6.87385e-21 0.0104662 -2.18648e-19 0.0131344)
(0.0229291 0.00591738 -7.1651e-20 0.0148953 -1.54511e-19 0.0190123)
(0.0330177 0.00952954 2.47955e-20 0.021304 -5.36551e-20 0.0273112)
(0.047259 0.0147522 -1.8602e-19 0.0308188 6.32299e-19 0.0392452)
(0.0681585 0.022473 7.12228e-19 0.045442 2.64748e-19 0.0570854)
(0.100397 0.0344347 3.18633e-19 0.0687651 -1.18361e-18 0.0849721)
(0.152282 0.0539231 -1.29503e-18 0.107409 -3.39673e-19 0.13042)
(0.240267 0.0874836 -4.38407e-18 0.174645 -2.00333e-18 0.208331)
(0.393905 0.147338 -3.32814e-18 0.295574 -8.9007e-19 0.346197)
(0.682838 0.262507 6.19816e-18 0.530376 -5.76109e-19 0.609261)
(1.22832 0.486468 -7.44702e-18 0.992747 1.20487e-18 1.11597)
(2.396 0.978089 4.06387e-18 2.02219 -7.21401e-18 2.22085)
(4.80338 2.01621 -1.26326e-16 4.23152 2.61471e-18 4.542)
(10.5251 4.5312 -7.82979e-17 9.66683 1.22946e-17 10.1537)
(21.2646 9.36744 6.59142e-17 20.3421 8.24566e-19 20.9238)
(29.5447 13.2904 8.69744e-18 29.4243 -1.2561e-19 29.6407)
(32.6384 14.9583 6.2852e-17 33.7975 4.3515e-19 33.3654)
(33.0576 15.3971 -4.37142e-16 35.5108 -4.89374e-18 34.4076)
(32.6454 15.417 1.57293e-16 36.2842 2.09279e-17 34.5658)
(31.9226 15.2548 -1.88885e-15 36.6211 -1.53191e-16 34.3556)
(30.9817 14.9548 -3.45823e-15 36.6006 -2.36926e-16 33.8615)
(29.8494 14.5326 1.05837e-15 36.2456 1.08384e-16 33.108)
(0.00153866 0.000150826 2.61023e-20 0.00133586 -8.34666e-20 0.00143916)
(0.00131418 0.000152955 -1.19465e-19 0.00121221 3.15402e-21 0.00126831)
(0.00111353 0.000139696 1.82448e-20 0.00109252 8.08334e-20 0.00110891)
(0.00092193 0.000116358 4.58596e-22 0.00096842 -4.75443e-20 0.00094861)
(0.000751503 8.77035e-05 -2.99759e-20 0.000839682 -2.84214e-20 0.000794826)
(0.000614984 6.18785e-05 -2.10395e-20 0.000717197 -2.97627e-20 0.000661718)
(0.000506784 4.21466e-05 -3.7959e-21 0.000605969 6.32188e-21 0.000549868)
(0.000418994 2.82123e-05 1.22222e-20 0.000507057 3.28898e-20 0.000455567)
(0.000346716 1.88846e-05 2.00768e-20 0.0004207 7.75677e-21 0.000376052)
(0.000286784 1.28388e-05 -2.688e-20 0.000346639 -1.37126e-21 0.000309376)
(0.000236369 8.97553e-06 2.22335e-20 0.000283087 2.29666e-21 0.000253108)
(0.000193789 6.45642e-06 -2.36631e-21 0.000228973 -6.93844e-21 0.000205739)
(0.000156382 4.61657e-06 -6.86639e-21 0.000181428 1.09236e-20 0.00016444)
(0.000121923 3.10749e-06 -4.01242e-21 0.000138143 4.36769e-21 0.00012685)
(8.72593e-05 1.73922e-06 -6.01331e-21 9.5865e-05 6.76506e-21 8.97097e-05)
(5.24495e-05 6.64624e-07 -3.52398e-21 5.55809e-05 1.8282e-21 5.32738e-05)
(1.84811e-05 8.35052e-08 -6.76935e-22 1.88625e-05 5.8321e-23 1.85709e-05)
(3.03612e-06 2.27647e-09 8.24285e-24 3.04602e-06 7.82835e-25 3.03806e-06)
(7.72476e-06 1.60414e-08 -3.71199e-24 7.78451e-06 5.09008e-24 7.73361e-06)
(0.000851173 0.000192906 4.759e-19 0.00142937 1.2449e-19 0.000910814)
(0.00451815 0.00133211 2.6475e-18 0.00782206 -1.89052e-19 0.00474121)
(0.0372372 0.0119646 1.08089e-18 0.0620961 -4.50385e-19 0.0383218)
(0.128088 0.045897 -7.53576e-19 0.204218 1.0313e-19 0.13058)
(0.256249 0.102678 4.96272e-17 0.386146 2.01557e-18 0.261137)
(0.390988 0.170636 4.02557e-16 0.55422 9.71827e-18 0.401633)
(0.512542 0.235196 2.3949e-16 0.689717 1.31154e-17 0.533262)
(0.614416 0.289331 1.76217e-15 0.799421 1.20919e-16 0.648424)
(0.701285 0.334884 2.54435e-15 0.89798 1.69219e-16 0.750511)
(0.77881 0.375317 -5.70499e-16 0.995053 -9.71396e-17 0.844981)
(0.00124281 0.00011529 9.03833e-21 0.0010571 5.4826e-20 0.00114978)
(0.00108705 0.000121547 5.9406e-20 0.000979569 6.37748e-20 0.00103373)
(0.000943529 0.000117564 2.02102e-20 0.000906376 -5.07561e-20 0.000925785)
(0.000803114 0.000104288 4.50923e-20 0.000824291 2.67236e-20 0.000814305)
(0.000664143 8.44551e-05 -3.18649e-20 0.000723578 8.18937e-21 0.000694621)
(0.000538865 6.38443e-05 -4.61015e-21 0.000616415 2.70068e-20 0.000579077)
(0.000432626 4.57758e-05 2.01651e-21 0.000514436 -2.43341e-20 0.000475868)
(0.00034488 3.11663e-05 4.36089e-20 0.000422746 -3.07002e-20 0.000387135)
(0.000274807 2.01002e-05 3.30675e-21 0.000344665 -4.84118e-21 0.000313892)
(0.000219734 1.20347e-05 -4.90929e-21 0.0002801 2.02971e-20 0.00025478)
(0.000177757 6.39099e-06 3.15941e-20 0.000228862 -3.73213e-20 0.000208695)
(0.000146506 2.47172e-06 5.16395e-21 0.000189418 4.53532e-21 0.00017374)
(0.000124169 -3.00026e-07 3.68391e-20 0.000160368 -2.57627e-21 0.000148287)
(0.000108452 -2.41411e-06 3.96673e-20 0.000139159 8.88772e-21 0.000130019)
(9.79633e-05 -4.1649e-06 1.02386e-19 0.000124203 -1.35246e-20 0.000117437)
(9.16479e-05 -5.84951e-06 1.33983e-19 0.000113943 -2.02683e-20 0.000109336)
(8.90455e-05 -7.67574e-06 8.09273e-20 0.000107318 7.01083e-21 0.000105008)
(8.91715e-05 -9.44684e-06 1.89348e-20 0.000101839 -3.87243e-21 0.000102932)
(9.2341e-05 -1.05781e-05 -2.07362e-20 9.77675e-05 1.00154e-20 0.000103494)
(9.52337e-05 -1.00467e-05 7.57197e-20 9.33032e-05 -1.23043e-20 0.000103183)
(0.000104347 -9.47649e-06 -2.05288e-20 9.58622e-05 -1.99763e-21 0.000110096)
(6.26081e-05 -2.75268e-06 -6.2475e-21 5.80055e-05 1.28796e-22 6.3942e-05)
(0.000474041 -6.55418e-05 2.46656e-20 0.000295486 -7.75732e-22 0.00050191)
(0.00325913 -0.000272189 -1.42211e-18 0.00168554 -5.38111e-20 0.00340776)
(0.00933481 0.00042411 -8.62139e-18 0.0046793 -7.84882e-20 0.00965381)
(0.0187829 0.00468254 -5.47617e-17 0.0112646 -3.17616e-18 0.0193699)
(0.0386026 0.0154359 -1.34235e-16 0.0316794 -4.42985e-18 0.0399548)
(0.07598 0.034275 -3.33925e-16 0.0747627 -2.28605e-17 0.0792566)
(0.130182 0.0608381 -8.54775e-16 0.139684 -7.65286e-17 0.137251)
(0.00107628 6.60807e-05 2.0941e-20 0.000865091 -5.98689e-21 0.000970845)
(0.00098083 8.44566e-05 2.26464e-20 0.000822621 -5.87443e-22 0.00090158)
(0.00087901 9.33556e-05 -5.58953e-20 0.00077736 -3.37805e-20 0.000828202)
(0.000775201 9.35055e-05 -3.05333e-20 0.000727847 2.63966e-21 0.000751981)
(0.000668453 8.57808e-05 5.0615e-20 0.000668383 2.28427e-20 0.000669068)
(0.000565382 7.2735e-05 2.36169e-20 0.000599853 -1.93788e-21 0.000583181)
(0.000474464 5.81131e-05 2.7952e-20 0.000530021 -1.7258e-20 0.000502535)
(0.000398358 4.43968e-05 -4.31498e-20 0.000464234 -2.82834e-20 0.000431153)
(0.000335842 3.26786e-05 -5.34779e-20 0.00040454 1.00949e-20 0.000369556)
(0.000285195 2.33526e-05 4.87941e-21 0.000351993 1.41315e-20 0.000317449)
(0.000244167 1.62561e-05 1.65267e-20 0.000306527 -4.91836e-21 0.000273746)
(0.000211306 1.10713e-05 -4.05723e-20 0.000268255 -3.21249e-21 0.000237766)
(0.00018506 7.34825e-06 -1.55784e-21 0.000236569 -6.45839e-21 0.00020846)
(0.000164285 4.64485e-06 -1.55664e-20 0.000210853 -3.04707e-21 0.000184936)
(0.000147525 2.56374e-06 3.26927e-20 0.000189739 -1.88341e-20 0.000165811)
(0.000134023 8.48451e-07 -3.55898e-20 0.000172462 -1.2366e-20 0.000150274)
(0.000122794 -7.18982e-07 -7.39668e-20 0.000157829 -8.73172e-21 0.000137235)
(0.00011289 -2.26746e-06 3.34742e-21 0.000144556 -1.12039e-20 0.00012555)
(0.00010263 -3.70515e-06 1.89358e-20 0.000130416 -1.07745e-20 0.000113287)
(9.22026e-05 -4.60641e-06 5.73464e-20 0.000115835 -4.00102e-21 0.000100628)
(8.3629e-05 -4.88958e-06 -5.37415e-20 0.000103765 -3.11261e-21 8.99641e-05)
(7.72221e-05 -4.83542e-06 -9.23838e-21 9.46597e-05 2.87345e-21 8.18249e-05)
(7.26561e-05 -4.67176e-06 5.59225e-21 8.81578e-05 4.89163e-22 7.58978e-05)
(6.69046e-05 -4.2875e-06 -2.56155e-21 8.02394e-05 -1.02986e-22 6.89624e-05)
(5.91243e-05 -3.80644e-06 -3.7113e-21 7.01619e-05 1.8035e-22 6.02544e-05)
(4.49038e-05 -2.80377e-06 -5.48412e-21 5.21975e-05 -2.8975e-22 4.52787e-05)
(2.87159e-05 -1.69762e-06 1.35949e-20 3.24984e-05 3.92289e-22 2.86582e-05)
(0.000200356 -5.49901e-05 1.92974e-18 0.00030366 1.25566e-19 0.000184331)
(0.000395349 -4.5555e-05 1.86525e-17 0.000505313 1.73471e-18 0.000287135)
(0.00166514 0.000597847 7.82352e-17 0.00129617 1.03052e-17 0.00132963)
(0.000858168 4.83611e-05 -5.38315e-20 0.000685188 2.76296e-20 0.000771683)
(0.000791995 6.39222e-05 7.53602e-20 0.000656887 3.9126e-20 0.000724256)
(0.000720108 7.29083e-05 -2.4379e-20 0.000627125 -7.08144e-20 0.000673548)
(0.000644755 7.53651e-05 -3.32868e-20 0.000594067 9.4491e-21 0.000619514)
(0.000566071 7.16198e-05 -2.26984e-20 0.000553817 -3.94166e-20 0.000560137)
(0.000489216 6.33219e-05 7.95016e-21 0.000507021 1.20025e-20 0.000498291)
(0.00041854 5.28393e-05 -1.48981e-20 0.000456697 -1.94842e-20 0.000437777)
(0.000355887 4.20692e-05 -3.07704e-20 0.000405687 4.13954e-20 0.000380975)
(0.000301275 3.21413e-05 3.26391e-20 0.000355943 1.91492e-20 0.000328874)
(0.000254413 2.36695e-05 2.77382e-20 0.000309163 -1.27569e-20 0.000282171)
(0.000214678 1.68089e-05 -5.7e-21 0.000266561 -1.14176e-20 0.000241163)
(0.000181471 1.14777e-05 1.65647e-20 0.000228956 3.68961e-21 0.000205933)
(0.000154126 7.42288e-06 -2.45442e-20 0.000196709 6.27135e-21 0.000176317)
(0.000131987 4.34759e-06 1.7381e-20 0.000169795 -4.57082e-22 0.000151959)
(0.000114179 1.94906e-06 -2.28838e-20 0.000147599 -1.06869e-20 0.000132114)
(0.000100001 -8.604e-09 2.20832e-20 0.00012948 1.84584e-21 0.000116094)
(8.86499e-05 -1.71733e-06 2.96115e-20 0.000114494 6.47763e-21 0.000103035)
(7.93356e-05 -3.28679e-06 -2.0673e-21 0.000101568 2.71819e-21 9.20014e-05)
(7.0757e-05 -4.6578e-06 -5.55254e-20 8.89132e-05 2.64855e-23 8.14995e-05)
(6.22257e-05 -5.53076e-06 -2.06713e-20 7.58559e-05 -8.8271e-21 7.08386e-05)
(5.44201e-05 -5.80774e-06 -6.09318e-21 6.37349e-05 9.39e-21 6.09833e-05)
(4.83913e-05 -5.71926e-06 2.25746e-20 5.38814e-05 2.8032e-22 5.32192e-05)
(4.45557e-05 -5.394e-06 8.1231e-22 4.66694e-05 -1.85036e-22 4.79329e-05)
(4.35212e-05 -5.06202e-06 -1.2935e-21 4.27172e-05 1.10489e-22 4.57559e-05)
(4.12514e-05 -4.09785e-06 1.36265e-20 3.83524e-05 6.31544e-23 4.23693e-05)
(5.17148e-05 -5.49361e-06 1.54836e-20 4.50147e-05 5.0061e-22 5.23139e-05)
(1.19118e-05 -3.20808e-07 -4.94356e-21 1.13973e-05 -2.73591e-22 1.18937e-05)
(8.49365e-05 -1.23947e-05 -5.49112e-19 6.21173e-05 -4.25901e-20 8.21412e-05)
(0.000443606 -0.000104877 -1.02628e-18 0.000235906 -1.25284e-19 0.000400765)
(0.000121532 -2.31122e-05 1.78944e-19 7.22677e-05 1.93891e-21 0.000107191)
(0.000734338 1.9323e-05 -1.09625e-20 0.000571234 2.80501e-21 0.000652866)
(0.000695141 3.59243e-05 4.74919e-20 0.000552061 3.38528e-20 0.000623501)
(0.000647599 4.91036e-05 -2.97895e-20 0.000532308 -5.08286e-20 0.000589824)
(0.000595482 5.75829e-05 1.50194e-20 0.000512131 2.50733e-20 0.000553776)
(0.000539667 6.10593e-05 -1.72419e-20 0.000489364 -3.62307e-21 0.000514552)
(0.000480749 5.96845e-05 -5.23554e-20 0.000461415 -2.17051e-21 0.000471188)
(0.000422472 5.45352e-05 3.75189e-20 0.000428757 8.41402e-21 0.000425733)
(0.000367798 4.7171e-05 -7.13662e-21 0.000392935 1.02739e-20 0.000380477)
(0.000318335 3.8992e-05 2.14274e-20 0.000355802 1.69168e-20 0.000337165)
(0.000274592 3.09799e-05 7.72536e-21 0.000318882 -1.93159e-20 0.000296791)
(0.000236649 2.37722e-05 -5.82237e-21 0.000283495 -1.40674e-20 0.000260059)
(0.000204273 1.76497e-05 -2.25055e-20 0.00025078 8.86199e-21 0.000227435)
(0.000177052 1.26808e-05 -2.73657e-20 0.000221437 1.27899e-20 0.00019906)
(0.00015446 8.75936e-06 1.1251e-20 0.000195827 -7.80396e-22 0.000174858)
(0.00013591 5.6964e-06 -4.58286e-21 0.000173968 -5.25857e-21 0.000154554)
(0.000120717 3.26286e-06 -2.31614e-20 0.000155504 -6.83476e-25 0.000137629)
(0.00010823 1.2661e-06 -2.59963e-20 0.000139904 -6.14164e-21 0.000123495)
(9.77288e-05 -4.63644e-07 -2.19594e-20 0.000126391 1.58955e-21 0.000111408)
(8.84775e-05 -2.02922e-06 2.3338e-20 0.000114047 -1.03621e-20 0.00010054)
(7.94635e-05 -3.39698e-06 -5.73865e-21 0.000101557 1.07191e-20 8.97417e-05)
(7.02078e-05 -4.33974e-06 -3.49931e-20 8.84815e-05 8.25625e-21 7.85313e-05)
(6.14038e-05 -4.75595e-06 4.66336e-20 7.60574e-05 -2.71993e-21 6.78247e-05)
(5.36989e-05 -4.81142e-06 3.70764e-21 6.52641e-05 -2.77861e-21 5.84677e-05)
(4.72289e-05 -4.66561e-06 6.8037e-22 5.62708e-05 -2.71475e-22 5.06201e-05)
(4.17713e-05 -4.38268e-06 1.69104e-21 4.87911e-05 3.80541e-23 4.40076e-05)
(3.71886e-05 -4.01223e-06 -1.71827e-20 4.26536e-05 -7.16934e-22 3.84732e-05)
(3.31917e-05 -3.56884e-06 -9.9036e-21 3.74623e-05 -1.03595e-21 3.37116e-05)
(2.94805e-05 -3.15079e-06 5.06226e-20 3.27583e-05 4.05281e-21 2.94062e-05)
(2.3819e-05 -2.38134e-06 3.50313e-20 2.58022e-05 2.46428e-21 2.33399e-05)
(1.72157e-05 -1.50925e-06 -2.28669e-20 1.79778e-05 -1.61965e-21 1.65929e-05)
(9.76725e-06 -6.11059e-07 1.17001e-20 9.75648e-06 1.47699e-21 9.34797e-06)
(0.000599753 1.36722e-05 -1.33099e-21 0.000465729 -9.63024e-21 0.000532794)
(0.000570881 2.71852e-05 -1.60438e-20 0.000451442 8.25331e-21 0.000511069)
(0.000536196 3.83449e-05 1.82408e-20 0.000437512 1.77612e-20 0.000486771)
(0.000497364 4.60432e-05 4.27938e-20 0.000423312 1.87789e-20 0.000460327)
(0.000455135 4.98709e-05 2.92033e-20 0.00040718 -7.45388e-22 0.000431165)
(0.000410602 4.99326e-05 -8.26878e-21 0.000387709 7.2997e-21 0.000399196)
(0.000366159 4.6907e-05 -3.9354e-20 0.000364899 -1.47855e-20 0.000365575)
(0.00032373 4.18257e-05 2.77302e-20 0.000339352 1.90515e-20 0.000331587)
(0.000284407 3.5694e-05 1.38462e-21 0.000312025 -2.171e-20 0.000298271)
(0.000248682 2.92995e-05 1.48345e-21 0.000283857 -9.89761e-21 0.000266328)
(0.000216801 2.32271e-05 -2.21788e-20 0.000255798 8.80696e-21 0.000236355)
(0.000188751 1.78024e-05 1.2768e-20 0.000228804 1.3566e-20 0.000208842)
(0.000164381 1.31836e-05 5.59899e-20 0.00020356 4.65351e-21 0.000184051)
(0.000143472 9.37372e-06 -2.04077e-20 0.000180606 -3.40191e-22 0.000162142)
(0.000125735 6.28042e-06 -4.24217e-21 0.00016023 -4.68157e-22 0.000143115)
(0.000110765 3.75481e-06 -2.9209e-20 0.000142389 1.89309e-20 0.000126747)
(9.81559e-05 1.65305e-06 -2.21646e-20 0.000126861 3.38214e-21 0.000112718)
(8.74259e-05 -1.55336e-07 2.51757e-20 0.00011319 6.29806e-21 0.000100556)
(7.80271e-05 -1.75087e-06 -5.84635e-20 0.00010072 6.17867e-21 8.96599e-05)
(6.92201e-05 -3.11581e-06 1.96246e-20 8.85021e-05 1.8149e-22 7.91989e-05)
(6.05596e-05 -4.08399e-06 3.87651e-20 7.6105e-05 5.82804e-22 6.87298e-05)
(5.24122e-05 -4.56368e-06 -1.59564e-20 6.43138e-05 -4.43314e-21 5.8795e-05)
(4.52717e-05 -4.67785e-06 -1.73433e-20 5.39237e-05 3.08143e-22 5.00655e-05)
(3.92934e-05 -4.56551e-06 -4.17074e-21 4.51279e-05 2.3709e-22 4.27383e-05)
(3.43535e-05 -4.29371e-06 -5.10851e-22 3.77494e-05 1.84128e-23 3.66581e-05)
(3.03855e-05 -3.90241e-06 2.07727e-21 3.16987e-05 5.45769e-22 3.17406e-05)
(2.75054e-05 -3.43931e-06 -2.70032e-20 2.7057e-05 -8.68802e-22 2.80947e-05)
(2.57707e-05 -2.95488e-06 6.20116e-20 2.38981e-05 2.06864e-21 2.57569e-05)
(2.49264e-05 -2.50315e-06 2.64158e-21 2.19592e-05 -5.6198e-22 2.4436e-05)
(2.33256e-05 -1.90821e-06 3.9488e-20 1.98571e-05 4.06938e-21 2.25064e-05)
(1.67612e-05 -8.69917e-07 1.21274e-20 1.45019e-05 -3.74529e-22 1.61198e-05)
(0.000496282 9.72098e-06 -4.75875e-22 0.00038486 2.56801e-21 0.000440566)
(0.00047436 2.08682e-05 -2.45595e-21 0.00037381 -2.3023e-20 0.000424008)
(0.000448405 3.03479e-05 -7.99362e-20 0.000363671 -3.77043e-20 0.000405993)
(0.000418869 3.72185e-05 1.76096e-20 0.000353419 2.76607e-20 0.000386135)
(0.000386456 4.10511e-05 -5.21086e-21 0.000341799 1.88081e-21 0.000364122)
(0.000352383 4.19404e-05 4.23e-20 0.000328089 1.44599e-20 0.000340256)
(0.000318087 4.03106e-05 -2.81626e-21 0.000311952 1.39983e-20 0.000315044)
(0.000284914 3.68658e-05 1.78895e-20 0.000293615 -6.28114e-21 0.000289289)
(0.000253642 3.23294e-05 -1.55423e-20 0.000273559 5.07748e-21 0.000263635)
(0.000224683 2.73066e-05 -2.84385e-20 0.000252345 8.22833e-21 0.000238552)
(0.000198346 2.22909e-05 7.50377e-21 0.000230649 3.75478e-21 0.000214526)
(0.000174769 1.76046e-05 1.23886e-20 0.000209253 -5.05812e-21 0.000192031)
(0.000153938 1.34414e-05 1.16493e-20 0.000188742 -2.22683e-20 0.000171347)
(0.000135801 9.87137e-06 1.63272e-20 0.000169666 5.72813e-21 0.000152722)
(0.000120204 6.87861e-06 -1.50023e-20 0.00015236 8.4607e-21 0.00013625)
(0.000106876 4.37707e-06 5.58651e-20 0.000136906 2.44131e-21 0.000121836)
(9.54857e-05 2.26693e-06 -1.31323e-20 0.000123171 7.78048e-21 0.000109251)
(8.56457e-05 4.48748e-07 2.59334e-20 0.000110836 -1.01854e-20 9.81398e-05)
(7.68966e-05 -1.14103e-06 3.98148e-20 9.93938e-05 2.53985e-21 8.80224e-05)
(6.86643e-05 -2.49467e-06 7.9428e-22 8.8147e-05 -8.95891e-21 7.82701e-05)
(6.06052e-05 -3.4908e-06 -1.09416e-20 7.67801e-05 -7.15571e-21 6.85491e-05)
(5.29778e-05 -4.04786e-06 -1.00223e-20 6.58852e-05 1.52015e-21 5.92583e-05)
(4.61455e-05 -4.2508e-06 2.02551e-21 5.61104e-05 1.32018e-22 5.09153e-05)
(4.0208e-05 -4.22231e-06 4.19643e-21 4.76289e-05 1.96069e-22 4.3674e-05)
(3.50245e-05 -4.03097e-06 1.71055e-21 4.02846e-05 -3.10153e-23 3.73776e-05)
(3.04609e-05 -3.72006e-06 4.82424e-21 3.39397e-05 1.12961e-22 3.18791e-05)
(2.64808e-05 -3.33785e-06 1.90137e-20 2.85545e-05 1.74852e-21 2.71377e-05)
(2.3016e-05 -2.9227e-06 -1.08291e-19 2.40134e-05 -7.86248e-21 2.30672e-05)
(2.00109e-05 -2.50764e-06 -4.3258e-20 2.01618e-05 -1.75429e-21 1.95846e-05)
(1.74143e-05 -2.08528e-06 -2.37753e-21 1.68476e-05 -4.48979e-21 1.66018e-05)
(1.56146e-05 -1.72829e-06 -6.00226e-20 1.43591e-05 -6.99657e-21 1.44546e-05)
(0.00042725 -2.86402e-06 -3.23497e-20 0.000330207 -2.46722e-20 0.00037873)
(0.000414933 6.91497e-06 -1.85942e-20 0.000321435 -1.32548e-20 0.000368163)
(0.000398105 1.62057e-05 -4.71476e-21 0.000312809 -1.21827e-21 0.000355399)
(0.000378222 2.43008e-05 1.16514e-20 0.000305201 2.98512e-20 0.000341695)
(0.000355363 3.03754e-05 2.64645e-20 0.000297634 1.7088e-20 0.000326491)
(0.000330191 3.40409e-05 1.87756e-20 0.000289171 -1.22542e-20 0.000309671)
(0.000303774 3.5383e-05 -2.5582e-20 0.000279415 -1.59206e-20 0.000291603)
(0.000277066 3.46715e-05 5.3494e-20 0.000267944 2.37783e-21 0.000272515)
(0.000250977 3.23941e-05 -7.80905e-21 0.00025474 -2.39905e-20 0.000252867)
(0.000226042 2.90762e-05 4.56352e-20 0.000240022 9.79375e-21 0.000233049)
(0.000202569 2.51751e-05 3.51439e-20 0.000224078 4.87388e-21 0.000213346)
(0.000180826 2.10885e-05 -1.67227e-20 0.000207328 -6.98823e-21 0.000194097)
(0.000160954 1.71003e-05 2.86545e-21 0.000190324 -7.82842e-21 0.000175661)
(0.000143033 1.34122e-05 -4.29377e-20 0.000173547 1.97065e-21 0.00015831)
(0.000127067 1.0127e-05 -6.70656e-21 0.000157449 -5.13787e-21 0.000142277)
(0.000113003 7.2752e-06 3.00425e-20 0.00014237 1.53691e-21 0.000127705)
(0.000100703 4.82703e-06 6.00864e-22 0.000128488 -8.43474e-21 0.000114616)
(8.99675e-05 2.72548e-06 2.62071e-20 0.000115809 4.94745e-21 0.000102912)
(8.05222e-05 9.0123e-07 -2.94374e-20 0.000104157 -4.95726e-21 9.2368e-05)
(7.20308e-05 -6.88385e-07 -2.24451e-20 9.31932e-05 -4.97163e-21 8.26488e-05)
(6.40962e-05 -2.037e-06 -4.44978e-20 8.2463e-05 1.45089e-21 7.33315e-05)
(5.64674e-05 -3.05519e-06 -3.34979e-20 7.17527e-05 5.14796e-21 6.41831e-05)
(4.92865e-05 -3.67099e-06 -3.59778e-21 6.14649e-05 7.95203e-22 5.54597e-05)
(4.28418e-05 -3.94212e-06 -1.27461e-20 5.21497e-05 5.65823e-22 4.75843e-05)
(3.72411e-05 -3.97243e-06 -4.2687e-22 4.40069e-05 -3.02364e-22 4.07267e-05)
(3.23964e-05 -3.82872e-06 -1.62041e-21 3.6949e-05 -1.49279e-22 3.47967e-05)
(2.82078e-05 -3.55365e-06 -6.07947e-22 3.08765e-05 -2.99834e-22 2.96883e-05)
(2.46563e-05 -3.19183e-06 1.33574e-20 2.57613e-05 -6.50312e-23 2.53805e-05)
(2.1788e-05 -2.78609e-06 1.97183e-22 2.16109e-05 3.31973e-22 2.19055e-05)
(1.96219e-05 -2.36745e-06 8.77849e-20 1.84245e-05 7.94638e-21 1.92581e-05)
(1.81712e-05 -1.95491e-06 -1.40071e-19 1.61505e-05 -9.8291e-21 1.74108e-05)
(1.74436e-05 -1.55893e-06 7.82033e-21 1.47325e-05 6.61155e-21 1.63477e-05)
(0.000349984 4.8953e-06 -5.76907e-20 0.0002709 -5.88857e-21 0.000310414)
(0.000336917 1.27131e-05 8.25899e-20 0.000264091 6.55545e-20 0.000300462)
(0.000321367 1.96553e-05 5.08042e-20 0.000258216 7.21191e-21 0.000289791)
(0.000303396 2.49991e-05 3.65675e-20 0.000252504 -7.08186e-21 0.000277945)
(0.000283651 2.84202e-05 -5.74556e-20 0.000246308 -2.56124e-20 0.000264967)
(0.000262933 2.9983e-05 -3.58178e-20 0.000239309 -6.8575e-21 0.000251125)
(0.00024193 2.98648e-05 -7.24884e-20 0.000231103 -2.32986e-20 0.000236519)
(0.000221283 2.84145e-05 -7.44293e-20 0.000221574 3.90952e-21 0.000221431)
(0.000201334 2.60176e-05 -3.62692e-20 0.000210768 -1.21083e-20 0.000206061)
(0.000182287 2.30154e-05 1.09964e-20 0.000198804 7.47e-22 0.000190561)
(0.000164377 1.97216e-05 -6.80028e-21 0.00018595 1.76222e-21 0.000175177)
(0.00014774 1.63762e-05 -1.90982e-20 0.000172581 7.76079e-21 0.000160176)
(0.000132459 1.3161e-05 2.10831e-20 0.00015904 4.25907e-21 0.000145763)
(0.000118609 1.01943e-05 -2.57517e-20 0.00014572 -7.18795e-21 0.000132173)
(0.000106186 7.53732e-06 -2.77791e-21 0.000132912 -6.46774e-21 0.000119553)
(9.51311e-05 5.1928e-06 8.19181e-21 0.000120826 -6.01598e-21 0.000107977)
(8.53268e-05 3.14029e-06 2.5204e-20 0.000109532 -1.08613e-20 9.7422e-05)
(7.6583e-05 1.34161e-06 -1.07017e-20 9.89483e-05 5.18168e-22 8.77528e-05)
(6.86532e-05 -2.28347e-07 -6.19198e-21 8.88612e-05 1.19389e-20 7.87399e-05)
(6.12593e-05 -1.56369e-06 -6.74154e-21 7.89817e-05 1.11042e-20 7.01016e-05)
(5.42013e-05 -2.59482e-06 2.48101e-20 6.91562e-05 3.38259e-21 6.16626e-05)
(4.757e-05 -3.26039e-06 -3.00857e-22 5.96909e-05 3.13014e-21 5.36092e-05)
(4.15784e-05 -3.59837e-06 8.49994e-21 5.10336e-05 1.3598e-21 4.62714e-05)
(3.63103e-05 -3.69363e-06 -1.12995e-21 4.33769e-05 1.43439e-22 3.97989e-05)
(3.16913e-05 -3.61006e-06 -9.09349e-22 3.66667e-05 3.42529e-23 3.41274e-05)
(2.7625e-05 -3.3903e-06 -3.29293e-21 3.08181e-05 -1.2566e-22 2.91599e-05)
(2.40747e-05 -3.07824e-06 -1.38909e-20 2.57977e-05 -7.81465e-22 2.48607e-05)
(2.10326e-05 -2.71552e-06 -3.73197e-20 2.15766e-05 -2.32372e-21 2.12116e-05)
(1.84725e-05 -2.33001e-06 2.54247e-21 1.80752e-05 -5.60735e-22 1.81658e-05)
(1.64816e-05 -1.94483e-06 1.26632e-19 1.53038e-05 1.67803e-20 1.57719e-05)
(1.50719e-05 -1.55076e-06 9.13111e-20 1.32247e-05 2.54693e-21 1.40296e-05)
(0.000287151 1.00567e-05 -7.62543e-20 0.000224624 -4.28507e-20 0.00025586)
(0.0002748 1.60323e-05 -5.81326e-20 0.000219986 -1.01497e-20 0.0002474)
(0.000260478 2.07296e-05 4.32611e-20 0.0002156 3.56001e-20 0.000238037)
(0.00024483 2.38745e-05 7.08891e-20 0.000211033 1.6895e-20 0.00022792)
(0.000228427 2.55174e-05 1.17876e-20 0.000205994 -1.0641e-21 0.000217212)
(0.000211758 2.57738e-05 5.28259e-20 0.000200094 3.61746e-20 0.000205927)
(0.000195294 2.49039e-05 6.84513e-20 0.000193196 2.75332e-20 0.000194243)
(0.000179269 2.31962e-05 -2.46374e-20 0.00018527 -7.5414e-21 0.000182273)
(0.000163815 2.09078e-05 1.48747e-20 0.000176333 6.96838e-23 0.000170082)
(0.000149084 1.82792e-05 -5.10004e-21 0.000166509 2.4186e-21 0.000157804)
(0.000135184 1.55024e-05 3.76266e-20 0.000156052 2.04564e-21 0.000145628)
(0.000122202 1.27377e-05 -1.36414e-20 0.00014519 -2.76248e-22 0.000133706)
(0.000110211 1.00982e-05 -3.64053e-20 0.000134211 1.40288e-20 0.00012222)
(9.92589e-05 7.65916e-06 -1.36885e-20 0.000123377 1.27126e-21 0.000111324)
(8.93308e-05 5.45083e-06 -3.19318e-20 0.00011288 5.18362e-21 0.00010111)
(8.03608e-05 3.47761e-06 -3.40361e-20 0.000102816 -5.12624e-22 9.15917e-05)
(7.22346e-05 1.72465e-06 -3.68997e-20 9.31813e-05 7.20976e-21 8.27105e-05)
(6.47883e-05 1.83177e-07 6.0012e-20 8.38622e-05 -6.1359e-21 7.43287e-05)
(5.7832e-05 -1.13439e-06 4.67685e-20 7.46877e-05 -1.47378e-21 6.62668e-05)
(5.12338e-05 -2.17207e-06 7.94895e-21 6.55839e-05 -5.51081e-21 5.84231e-05)
(4.50534e-05 -2.87747e-06 3.0939e-20 5.67903e-05 -3.34032e-21 5.09397e-05)
(3.94429e-05 -3.27186e-06 7.08132e-21 4.86667e-05 -1.75897e-21 4.40703e-05)
(3.44779e-05 -3.4236e-06 2.07213e-21 4.14054e-05 3.70754e-22 3.79579e-05)
(3.01126e-05 -3.39124e-06 -1.53466e-22 3.4997e-05 1.31469e-22 3.25764e-05)
(2.62772e-05 -3.21645e-06 -1.96248e-22 2.93917e-05 1.81839e-22 2.78616e-05)
(2.29484e-05 -2.94069e-06 6.95378e-21 2.45757e-05 7.43215e-22 2.37943e-05)
(2.01411e-05 -2.60485e-06 9.9684e-21 2.05441e-05 1.38567e-21 2.03823e-05)
(1.78688e-05 -2.23839e-06 2.02529e-20 1.7282e-05 1.53375e-21 1.76219e-05)
(1.62022e-05 -1.86448e-06 4.52656e-20 1.48e-05 -1.51849e-21 1.55486e-05)
(1.51241e-05 -1.47665e-06 -1.61034e-19 1.30393e-05 -2.0781e-20 1.41333e-05)
(0.000236273 1.31759e-05 1.86984e-20 0.000188542 1.02091e-20 0.000212417)
(0.000224739 1.73049e-05 2.6655e-20 0.00018513 -1.48302e-20 0.000204933)
(0.000212214 2.01678e-05 -9.09285e-20 0.000181738 -4.79544e-20 0.000196967)
(0.000199091 2.18025e-05 -7.45581e-20 0.000178085 -7.51461e-22 0.000188588)
(0.000185749 2.22908e-05 1.37079e-20 0.000173844 -1.38597e-21 0.000179795)
(0.000172542 2.18263e-05 6.3902e-20 0.000168853 -1.07544e-20 0.000170694)
(0.000159618 2.06311e-05 -1.769e-20 0.000163043 4.21907e-21 0.000161332)
(0.000147035 1.8899e-05 -1.01147e-20 0.000156368 -8.74453e-22 0.000151707)
(0.000134921 1.68161e-05 -2.54985e-21 0.000148895 -4.3088e-21 0.000141911)
(0.00012334 1.45344e-05 -1.31755e-20 0.000140765 -3.31038e-22 0.000132059)
(0.000112355 1.21839e-05 2.84712e-20 0.000132112 3.73606e-21 0.00012224)
(0.00010204 9.86728e-06 5.60878e-20 0.000123151 1.41587e-20 0.000112601)
(9.24479e-05 7.66216e-06 8.62846e-21 0.00011407 4.18777e-21 0.000103264)
(8.36052e-05 5.61274e-06 3.98186e-20 0.000105057 4.63709e-21 9.43345e-05)
(7.54952e-05 3.74327e-06 1.71859e-20 9.62212e-05 5.15732e-21 8.58593e-05)
(6.80502e-05 2.05689e-06 2.82276e-20 8.75964e-05 1.99054e-21 7.78215e-05)
(6.11565e-05 5.59389e-07 -3.96307e-20 7.91244e-05 -7.61029e-21 7.01374e-05)
(5.46918e-05 -7.3232e-07 -6.24635e-21 7.07198e-05 -1.01158e-20 6.27041e-05)
(4.85871e-05 -1.76909e-06 -2.37632e-20 6.23823e-05 -1.96297e-22 5.54859e-05)
(4.28766e-05 -2.50388e-06 -3.32613e-20 5.42986e-05 -2.90131e-22 4.85894e-05)
(3.76711e-05 -2.94756e-06 -1.52443e-20 4.67632e-05 -5.12288e-22 4.22143e-05)
(3.30309e-05 -3.15259e-06 3.54217e-21 3.99578e-05 -3.55273e-22 3.64878e-05)
(2.89251e-05 -3.17163e-06 1.74966e-21 3.39021e-05 -7.07121e-23 3.1406e-05)
(2.52972e-05 -3.04473e-06 1.74915e-21 2.85684e-05 4.64522e-22 2.69235e-05)
(2.21205e-05 -2.81116e-06 -2.12928e-22 2.39466e-05 -4.26126e-22 2.3021e-05)
(1.94029e-05 -2.51037e-06 -2.33925e-21 2.0036e-05 9.84967e-22 1.97027e-05)
(1.7143e-05 -2.17112e-06 -2.60479e-21 1.68048e-05 -3.86638e-21 1.69534e-05)
(1.5409e-05 -1.81487e-06 -7.88601e-20 1.42628e-05 -3.7739e-21 1.48099e-05)
(1.42348e-05 -1.43979e-06 7.60812e-21 1.23978e-05 1.01843e-20 1.32936e-05)
(0.000194745 1.45305e-05 -1.02729e-19 0.000159746 -4.45528e-20 0.000177244)
(0.000184622 1.71222e-05 2.16281e-20 0.000157209 3.14263e-20 0.000170908)
(0.000174036 1.86993e-05 5.543e-20 0.000154559 9.6138e-21 0.000164298)
(0.000163275 1.93208e-05 -6.71956e-20 0.000151509 -2.82356e-20 0.000157391)
(0.000152604 1.91355e-05 -6.66787e-20 0.000147894 -6.86435e-21 0.000150245)
(0.000142121 1.83185e-05 3.80124e-20 0.00014364 9.34596e-21 0.00014288)
(0.000131861 1.70197e-05 2.00104e-20 0.00013868 -4.3629e-22 0.000135274)
(0.000121887 1.53798e-05 -3.41459e-20 0.000133006 -1.86638e-21 0.000127448)
(0.00011224 1.35172e-05 2.96428e-20 0.000126707 1.32836e-21 0.000119477)
(0.00010297 1.15376e-05 -2.09104e-20 0.000119855 -1.00601e-20 0.000111417)
(9.41363e-05 9.52899e-06 5.04661e-20 0.00011259 -9.94365e-21 0.000103368)
(8.5788e-05 7.56254e-06 2.07056e-20 0.000105048 -3.70034e-21 9.54223e-05)
(7.79596e-05 5.68683e-06 -2.39047e-21 9.73735e-05 -8.31722e-21 8.76699e-05)
(7.06631e-05 3.93797e-06 7.79573e-21 8.96718e-05 -3.58584e-21 8.01692e-05)
(6.38672e-05 2.33393e-06 -7.6524e-21 8.19946e-05 -5.05456e-21 7.29314e-05)
(5.75093e-05 8.92425e-07 -2.3418e-21 7.4335e-05 5.36379e-21 6.59224e-05)
(5.15233e-05 -3.64266e-07 -4.83188e-20 6.66749e-05 5.57453e-21 5.91005e-05)
(4.58741e-05 -1.39236e-06 3.76665e-22 5.90489e-05 3.23394e-21 5.24658e-05)
(4.05937e-05 -2.14764e-06 2.29917e-20 5.16222e-05 3.61699e-21 4.61142e-05)
(3.57593e-05 -2.63173e-06 3.24935e-22 4.46339e-05 1.58367e-21 4.02011e-05)
(3.14219e-05 -2.88405e-06 -4.24793e-21 3.82557e-05 -1.04723e-22 3.48418e-05)
(2.75638e-05 -2.95013e-06 -2.36264e-21 3.25315e-05 -9.54372e-23 3.00514e-05)
(2.41431e-05 -2.86741e-06 7.53295e-21 2.74556e-05 -2.81337e-23 2.58043e-05)
(2.11405e-05 -2.67255e-06 -5.12737e-21 2.30314e-05 -5.317e-22 2.20915e-05)
(1.85699e-05 -2.40324e-06 3.75493e-20 1.92705e-05 4.73416e-21 1.89266e-05)
(1.64419e-05 -2.08805e-06 -8.7298e-20 1.61621e-05 -7.57058e-21 1.631e-05)
(1.48202e-05 -1.74799e-06 1.29863e-19 1.37229e-05 1.01586e-20 1.42773e-05)
(1.37377e-05 -1.38342e-06 6.19119e-20 1.19439e-05 9.64772e-21 1.28502e-05)
(0.000161145 1.46019e-05 5.72464e-21 0.000136524 3.85549e-21 0.000148828)
(0.000152529 1.60933e-05 -3.59333e-20 0.000134598 -1.48868e-20 0.000143563)
(0.000143778 1.67829e-05 4.58965e-21 0.000132407 2.12141e-20 0.00013809)
(0.000135105 1.6788e-05 3.70629e-20 0.000129803 8.27297e-21 0.000132449)
(0.000126567 1.62489e-05 -4.1816e-20 0.000126697 -1.27246e-20 0.000126631)
(0.000118166 1.52827e-05 7.69608e-21 0.000123012 7.92427e-22 0.000120591)