/*--------------------------------*- C++ -*----------------------------------*\
| =========                 |                                                 |
| \\      /  F ield         | OpenFOAM: The Open Source CFD Toolbox           |
|  \\    /   O peration     | Version:  2306                                  |
|   \\  /    A nd           | Website:  www.openfoam.com                      |
|    \\/     M anipulation  |                                                 |
\*---------------------------------------------------------------------------*/
FoamFile
{
    version     2.0;
    format      ascii;
    arch        "LSB;label=32;scalar=64";
    class       volScalarField;
    location    "375";
    object      turbulenceProperties:I;
}
// * * * * * * * * * * * * * * * * * * * * * * * * * * * * * * * * * * * * * //

dimensions      [0 0 0 0 0 0 0];

internalField   nonuniform List<scalar> 
1340
(
0.0170028
0.0134817
0.00874245
0.0073215
0.00706289
0.00731372
0.00787059
0.00865658
0.00966576
0.0109378
0.0125664
0.0146964
0.0175307
0.0214029
0.0267186
0.0344057
0.045358
0.0627099
0.0884402
0.130979
0.186827
0.221537
0.234699
0.238639
0.240294
0.241518
0.242567
0.243552
0.00583351
0.00715648
0.00638411
0.00446776
0.00313638
0.00234226
0.00183759
0.00148996
0.00123538
0.00104035
0.000884567
0.000756312
0.000645145
0.00054291
0.000438674
0.000325453
0.000185342
7.2637e-05
0.000113067
0.00129853
0.0029573
0.00830043
0.0151195
0.0210813
0.025781
0.029393
0.0322555
0.0347427
0.0371133
0.00405578
0.00446456
0.0042469
0.00349853
0.00272204
0.00212261
0.00168594
0.00136382
0.00112246
0.000937914
0.000796163
0.000687105
0.000604318
0.000541313
0.000494063
0.000459238
0.000434771
0.000416875
0.000406313
0.000396895
0.000402788
0.000306693
0.00079722
0.00202962
0.00340323
0.00491179
0.00734779
0.0106611
0.0142957
0.00268422
0.00299087
0.00316902
0.00308222
0.0027318
0.00229095
0.00189356
0.00157484
0.00132675
0.0011341
0.000982744
0.000862998
0.000767326
0.000690435
0.000627387
0.000575238
0.000530991
0.000491942
0.000454116
0.000417906
0.000387946
0.000364827
0.000347671
0.000328743
0.000305555
0.000263537
0.00020888
0.0005781
0.000761272
0.00145461
0.00216722
0.00233681
0.00242973
0.00238879
0.00220556
0.00194534
0.00167731
0.00143626
0.00123101
0.00105996
0.000918166
0.000800793
0.00070375
0.000623718
0.000557507
0.000502699
0.000456842
0.000417543
0.000381151
0.000345829
0.000313541
0.000287148
0.000267936
0.000258181
0.000246278
0.000270894
0.000131338
0.000335127
0.000729265
0.000386835
0.00167237
0.00179421
0.0018974
0.00195254
0.00193042
0.00182474
0.00166317
0.00148161
0.00130501
0.00114526
0.00100616
0.000887398
0.000787046
0.000702791
0.000632277
0.000573106
0.000523118
0.000480106
0.000441879
0.000405653
0.00037012
0.000337003
0.000307844
0.000282861
0.000261388
0.000243094
0.000227076
0.000212178
0.000189241
0.000159754
0.000119847
0.00143479
0.00151694
0.00158484
0.00162034
0.0016071
0.00154195
0.00143749
0.00131255
0.00118288
0.00105845
0.000944401
0.000842591
0.00075309
0.000675268
0.000608076
0.000550146
0.00050012
0.000456489
0.000417565
0.000381173
0.000345999
0.000313022
0.000283551
0.000257947
0.000235845
0.000217198
0.000202698
0.000193023
0.000187576
0.000180338
0.000153852
0.00124698
0.00130454
0.00135163
0.00137584
0.00136746
0.00132514
0.0012549
0.00116714
0.00107158
0.000975485
0.000883661
0.00079875
0.000721847
0.000653347
0.000593011
0.000540139
0.000493786
0.000452814
0.000415852
0.000381221
0.000347912
0.000316634
0.000288358
0.000263263
0.000240841
0.000220654
0.00020261
0.00018648
0.00017201
0.000158933
0.000149171
0.00104972
0.00109556
0.00113744
0.00117135
0.00118857
0.00118307
0.0011544
0.00110568
0.00104283
0.000971832
0.00089766
0.000824105
0.000753659
0.000687818
0.000627414
0.000572731
0.000523634
0.000479672
0.000440114
0.000403974
0.000370066
0.000337637
0.000307103
0.000279293
0.00025447
0.000232317
0.000212532
0.000195132
0.000180436
0.00016881
0.00016059
0.000156153
0.000971485
0.00100287
0.00102799
0.00104058
0.00103693
0.00101685
0.00098211
0.000936266
0.000883004
0.000825602
0.000766905
0.000708982
0.000653265
0.000600818
0.000552189
0.00050759
0.000466914
0.000429746
0.000395421
0.000363135
0.000332319
0.000303284
0.000276687
0.00025276
0.000231227
0.000211767
0.000194283
0.000178802
0.000165294
0.000154251
0.000146066
0.000892353
0.000911371
0.000920779
0.00091832
0.000903898
0.000878534
0.000844494
0.000804124
0.000759564
0.000712778
0.00066536
0.000618527
0.000573279
0.000530312
0.000490013
0.000452487
0.000417594
0.000384947
0.000354033
0.000324511
0.000296631
0.000270908
0.000247586
0.000226498
0.000207419
0.000190319
0.000175336
0.00016269
0.0001529
0.000146252
0.000814711
0.000821886
0.000820199
0.000809575
0.000790692
0.000765034
0.000734119
0.000699307
0.000661991
0.000623299
0.000584156
0.000545441
0.000507803
0.000471743
0.000437527
0.000405184
0.000374511
0.000345234
0.000317232
0.000290713
0.0002661
0.000243624
0.000223187
0.000204609
0.00018784
0.000172979
0.00016013
0.000149749
0.000142327
0.000738896
0.000737709
0.000729736
0.00071543
0.000695796
0.000671862
0.000644527
0.000614682
0.000583126
0.000550537
0.000517605
0.000484893
0.000452877
0.000421893
0.000392084
0.000363417
0.000335815
0.000309294
0.000284079
0.000260516
0.000238833
0.000218996
0.000200883
0.000184474
0.000169898
0.000157325
0.000147213
0.000140052
0.000667431
0.000661329
0.000650307
0.000635097
0.000616391
0.000594763
0.000570835
0.000545105
0.000518029
0.000490136
0.000461876
0.00043366
0.000405813
0.000378558
0.000351974
0.000326136
0.000301169
0.000277306
0.000254863
0.000234052
0.000214888
0.000197301
0.000181285
0.000166968
0.000154494
0.000144292
0.000136859
0.000602115
0.000593506
0.000581565
0.000566793
0.000549572
0.000530294
0.000509292
0.000486841
0.000463291
0.000438982
0.000414248
0.000389401
0.000364674
0.000340201
0.000316126
0.00029269
0.000270176
0.000248856
0.000228931
0.000210454
0.000193399
0.000177783
0.000163745
0.000151441
0.000141298
0.00013379
0.000550389
0.000543565
0.000534092
0.000522323
0.000508504
0.000492909
0.00047571
0.000457086
0.000437247
0.000416423
0.000394861
0.000372815
0.000350512
0.000328113
0.000305835
0.000283964
0.00026281
0.000242628
0.000223616
0.000205856
0.000189362
0.000174167
0.000160416
0.000148261
0.00013811
0.000130426
0.000499381
0.00049177
0.000482295
0.000471133
0.000458443
0.00044433
0.000428863
0.000412173
0.000394383
0.000375668
0.000356216
0.000336212
0.000315828
0.00029531
0.000274993
0.000255183
0.000236142
0.000218058
0.000201034
0.000185115
0.000170355
0.000156897
0.000144901
0.00013476
0.000126921
0.000460038
0.00045386
0.000446167
0.000437074
0.000426693
0.000415062
0.000402195
0.000388151
0.000372984
0.000356786
0.000339696
0.000321864
0.000303431
0.000284627
0.000265809
0.000247331
0.000229432
0.000212288
0.000196017
0.000180691
0.000166377
0.00015322
0.00014138
0.000131235
0.000123211
0.000419753
0.000413447
0.000405982
0.000397433
0.000387808
0.000377078
0.000365249
0.000352328
0.000338354
0.000323392
0.000307545
0.000290935
0.000273794
0.000256469
0.000239301
0.000222527
0.00020632
0.000190809
0.000176083
0.000162224
0.000149371
0.00013769
0.000127534
0.000119315
0.000388942
0.000383719
0.000377546
0.000370463
0.000362455
0.000353479
0.000343505
0.000332494
0.000320447
0.00030739
0.000293373
0.000278474
0.000262908
0.000247011
0.000231111
0.000215442
0.000200169
0.000185424
0.000171308
0.000157911
0.000145366
0.000133843
0.000123666
0.000115234
0.000361002
0.00035664
0.000351491
0.000345583
0.000338886
0.000331345
0.000322914
0.000313531
0.000303156
0.000291772
0.000279405
0.000266099
0.00025202
0.000237476
0.000222797
0.000208209
0.00019386
0.00017988
0.000166376
0.000153444
0.00014121
0.000129842
0.000119632
0.000110969
0.000331911
0.000327576
0.000322609
0.000316979
0.000310617
0.000303467
0.000295454
0.000286518
0.000276615
0.000265724
0.000253862
0.000241164
0.000227913
0.000214412
0.000200866
0.000187421
0.000174196
0.000161302
0.000148836
0.000136915
0.000125698
0.000115442
0.000106528
0.000309265
0.000305588
0.000301385
0.000296616
0.000291221
0.000285138
0.000278281
0.000270574
0.000261959
0.000252385
0.000241837
0.000230418
0.000218376
0.000205991
0.000193444
0.000180875
0.000168395
0.000156108
0.000144108
0.000132499
0.000121427
0.000111114
0.000101925
0.00028534
0.000281749
0.000277685
0.000273087
0.000267889
0.000262005
0.000255352
0.000247855
0.000239445
0.000230081
0.000219831
0.000208909
0.000197567
0.00018598
0.000174257
0.000162503
0.000150816
0.000139279
0.000127981
0.000117051
0.00010667
9.7177e-05
0.000266662
0.000263574
0.000260084
0.00025614
0.000251678
0.000246613
0.000240854
0.000234321
0.000226932
0.000218626
0.000209442
0.000199561
0.000189196
0.000178514
0.000167601
0.000156554
0.000145453
0.000134373
0.000123386
0.000112596
0.000102136
9.23072e-05
0.000249409
0.00024673
0.000243715
0.000240312
0.000236459
0.00023208
0.000227085
0.000221384
0.000214886
0.000207515
0.00019929
0.000190356
0.000180907
0.000171074
0.000160937
0.00015057
0.000140043
0.000129418
0.000118742
0.000108088
9.75416e-05
8.7346e-05
0.000231108
0.000228482
0.000225526
0.000222187
0.000218383
0.000214033
0.000209047
0.000203329
0.000196788
0.000189426
0.000181357
0.000172749
0.000163711
0.000154307
0.000144592
0.000134624
0.000124445
0.000114081
0.000103568
9.2932e-05
8.23358e-05
0.000216611
0.000214306
0.000211722
0.000208806
0.000205488
0.000201687
0.000197312
0.00019227
0.000186461
0.000179869
0.000172586
0.00016475
0.000156451
0.000147737
0.000138649
0.000129225
0.000119488
0.000109439
9.90774e-05
8.8359e-05
7.73342e-05
0.000203144
0.000201107
0.000198832
0.000196273
0.000193364
0.000190028
0.000186181
0.000181723
0.000176557
0.000170651
0.000164073
0.000156945
0.000149332
0.000141268
0.000132777
0.00012388
0.000114583
0.000104858
9.46644e-05
8.3882e-05
7.24162e-05
0.000188811
0.000186796
0.000184538
0.000181975
0.000179035
0.000175639
0.000171688
0.000167085
0.000161789
0.000155851
0.000149365
0.000142387
0.000134931
0.00012701
0.000118625
0.000109766
0.000100378
9.03799e-05
7.95751e-05
6.76885e-05
0.000177358
0.000175561
0.000173555
0.000171285
0.000168683
0.000165674
0.000162166
0.000158056
0.000153299
0.000147935
0.000142035
0.000135643
0.000128758
0.000121379
0.000113494
0.000105074
9.60444e-05
8.62822e-05
7.55219e-05
6.32889e-05
0.000165071
0.000163281
0.00016126
0.00015895
0.000156276
0.00015315
0.000149473
0.000145196
0.000140344
0.000134979
0.000129125
0.000122775
0.000115914
0.000108519
0.000100544
9.18967e-05
8.24246e-05
7.18064e-05
5.93865e-05
0.00015528
0.000153674
0.000151867
0.000149805
0.000147419
0.000144627
0.000141333
0.000137483
0.000133094
0.000128213
0.000122856
0.000117008
0.000110644
0.000103728
9.62063e-05
8.79735e-05
7.88589e-05
6.85133e-05
5.61677e-05
0.000146139
0.000144691
0.00014307
0.000141224
0.000139091
0.00013659
0.000133631
0.00013016
0.000126187
0.00012175
0.000116855
0.000111478
0.00010559
9.91466e-05
9.20888e-05
8.43069e-05
7.56255e-05
6.57044e-05
5.37832e-05
0.000136296
0.000134837
0.000133178
0.000131264
0.000129021
0.000126361
0.00012323
0.000119633
0.0001156
0.000111131
0.000106199
0.000100769
9.47952e-05
8.82127e-05
8.09187e-05
7.27493e-05
6.34095e-05
5.2285e-05
0.000128453
0.000127134
0.000125641
0.000123921
0.000121904
0.000119509
0.000116684
0.000113428
0.000109767
0.000105695
0.000101183
9.61956e-05
9.06845e-05
8.45888e-05
7.7816e-05
7.02303e-05
6.16109e-05
5.15806e-05
0.000121125
0.000119931
0.000118585
0.000117036
0.000115222
0.000113065
0.000110515
0.000107571
0.00010425
0.000100549
9.64354e-05
9.18743e-05
8.682e-05
8.12195e-05
7.49949e-05
6.80482e-05
6.02489e-05
5.14678e-05
0.000113199
0.000111983
0.000110588
0.000108955
0.000107012
0.000104711
0.00010205
9.90461e-05
9.56912e-05
9.19558e-05
8.78054e-05
8.32016e-05
7.80976e-05
7.24377e-05
6.61629e-05
5.92297e-05
5.17074e-05
0.000106907
0.000105808
0.000104551
0.000103081
0.000101332
9.9259e-05
9.68595e-05
9.41476e-05
9.11163e-05
8.77384e-05
8.39832e-05
7.98183e-05
7.52069e-05
7.01142e-05
6.45188e-05
5.84465e-05
0.000101027
0.000100034
9.89023e-05
9.75805e-05
9.60078e-05
9.41429e-05
9.19836e-05
8.95427e-05
8.68144e-05
8.37747e-05
8.03972e-05
7.66555e-05
7.25253e-05
6.79891e-05
6.30556e-05
5.77982e-05
9.46358e-05
9.36176e-05
9.24304e-05
9.10186e-05
8.93444e-05
8.74065e-05
8.52178e-05
8.27726e-05
8.0051e-05
7.70313e-05
7.36944e-05
7.00252e-05
6.60218e-05
6.17136e-05
5.71992e-05
8.95876e-05
8.86726e-05
8.76086e-05
8.63448e-05
8.48463e-05
8.31125e-05
8.11568e-05
7.8975e-05
7.6551e-05
7.38681e-05
7.0913e-05
6.76786e-05
6.41741e-05
6.04412e-05
5.65853e-05
8.4864e-05
8.40453e-05
8.30948e-05
8.19656e-05
8.06278e-05
7.90826e-05
7.73426e-05
7.54055e-05
7.32581e-05
7.08885e-05
6.82884e-05
6.54575e-05
6.24111e-05
5.91958e-05
5.59127e-05
7.97128e-05
7.88646e-05
7.78598e-05
7.66708e-05
7.52987e-05
7.3757e-05
7.2045e-05
7.01528e-05
6.80722e-05
6.57987e-05
6.33362e-05
6.07035e-05
5.79466e-05
5.51552e-05
7.56526e-05
7.49001e-05
7.40092e-05
7.29557e-05
7.17424e-05
7.03824e-05
6.88767e-05
6.72183e-05
6.54014e-05
6.34245e-05
6.1294e-05
5.90296e-05
5.66728e-05
5.43e-05
7.18462e-05
7.11801e-05
7.03927e-05
6.94634e-05
6.83956e-05
6.72016e-05
6.58839e-05
6.44373e-05
6.28586e-05
6.11482e-05
5.93134e-05
5.73729e-05
5.53626e-05
5.33441e-05
6.76864e-05
6.69942e-05
6.61777e-05
6.52418e-05
6.41984e-05
6.30504e-05
6.17945e-05
6.04293e-05
5.89559e-05
5.73818e-05
5.57236e-05
5.40111e-05
5.22923e-05
6.44019e-05
6.37957e-05
6.30819e-05
6.22654e-05
6.13578e-05
6.03622e-05
5.92767e-05
5.81009e-05
5.68364e-05
5.54902e-05
5.40763e-05
5.2618e-05
5.11525e-05
6.13103e-05
6.07823e-05
6.01613e-05
5.94521e-05
5.86657e-05
5.7806e-05
5.68716e-05
5.58624e-05
5.47808e-05
5.36323e-05
5.24282e-05
5.11867e-05
4.99351e-05
5.83969e-05
5.79387e-05
5.74008e-05
5.67875e-05
5.61094e-05
5.53698e-05
5.4568e-05
5.37048e-05
5.27817e-05
5.18036e-05
5.0779e-05
4.97217e-05
4.86511e-05
5.5251e-05
5.47871e-05
5.42588e-05
5.36755e-05
5.3041e-05
5.23552e-05
5.16183e-05
5.08319e-05
4.99998e-05
4.91283e-05
4.82271e-05
4.73099e-05
5.27046e-05
5.23052e-05
5.18511e-05
5.13508e-05
5.08078e-05
5.0222e-05
4.95936e-05
4.89243e-05
4.82167e-05
4.74751e-05
4.67061e-05
4.59192e-05
5.02839e-05
4.99407e-05
4.95505e-05
4.91216e-05
4.86569e-05
4.81565e-05
4.7621e-05
4.70512e-05
4.64491e-05
4.58174e-05
4.51606e-05
4.79737e-05
4.76777e-05
4.73419e-05
4.69736e-05
4.65754e-05
4.61476e-05
4.56907e-05
4.52051e-05
4.46921e-05
4.41535e-05
4.35918e-05
4.55021e-05
4.52121e-05
4.48948e-05
4.45526e-05
4.4186e-05
4.37955e-05
4.33811e-05
4.29436e-05
4.24838e-05
4.20028e-05
4.3403e-05
4.31512e-05
4.2877e-05
4.25824e-05
4.22679e-05
4.19337e-05
4.15798e-05
4.12064e-05
4.08136e-05
4.04016e-05
4.13753e-05
4.11566e-05
4.09195e-05
4.06661e-05
4.03965e-05
4.01107e-05
3.98086e-05
3.94901e-05
3.91547e-05
3.88019e-05
3.9422e-05
3.92329e-05
3.9029e-05
3.88119e-05
3.85816e-05
3.8338e-05
3.80808e-05
3.78096e-05
3.75236e-05
3.72218e-05
3.75518e-05
3.73899e-05
3.72159e-05
3.70311e-05
3.68354e-05
3.66284e-05
3.64099e-05
3.61792e-05
3.59354e-05
3.56773e-05
3.56343e-05
3.54864e-05
3.53292e-05
3.51627e-05
3.49866e-05
3.48004e-05
3.46035e-05
3.43951e-05
3.41737e-05
3.39614e-05
3.38339e-05
3.36983e-05
3.35545e-05
3.34025e-05
3.32418e-05
3.30721e-05
3.28924e-05
3.27015e-05
3.23519e-05
3.22375e-05
3.21161e-05
3.1988e-05
3.18532e-05
3.17115e-05
3.15625e-05
3.14055e-05
3.07782e-05
3.06701e-05
3.05565e-05
3.04378e-05
3.03145e-05
3.01864e-05
3.00532e-05
2.99142e-05
2.92213e-05
2.91144e-05
2.90041e-05
2.88909e-05
2.87752e-05
2.86569e-05
2.85356e-05
2.8411e-05
2.76813e-05
2.75736e-05
2.74647e-05
2.73548e-05
2.72446e-05
2.71337e-05
2.7022e-05
2.69095e-05
2.60662e-05
2.59576e-05
2.58497e-05
2.57431e-05
2.56376e-05
2.55338e-05
2.54307e-05
2.46369e-05
2.45277e-05
2.44206e-05
2.43159e-05
2.42143e-05
2.41159e-05
2.40199e-05
2.34069e-05
2.32964e-05
2.31883e-05
2.30831e-05
2.29821e-05
2.28847e-05
2.27914e-05
2.23812e-05
2.22707e-05
2.21618e-05
2.20557e-05
2.19528e-05
2.18539e-05
2.17599e-05
2.14161e-05
2.13071e-05
2.11988e-05
2.10923e-05
2.09879e-05
2.08873e-05
2.07911e-05
2.04533e-05
2.03432e-05
2.0233e-05
2.01232e-05
2.00158e-05
1.99122e-05
1.9813e-05
1.95151e-05
1.93977e-05
1.92768e-05
1.91539e-05
1.9032e-05
1.89132e-05
1.85565e-05
1.84234e-05
1.82851e-05
1.81433e-05
1.80003e-05
1.78578e-05
1.74174e-05
1.72221e-05
1.70205e-05
1.6818e-05
1.66204e-05
1.64325e-05
1.57371e-05
1.5418e-05
1.5077e-05
1.47202e-05
1.4355e-05
1.39589e-05
1.35987e-05
1.32585e-05
1.29537e-05
1.27011e-05
1.38757e-05
1.36449e-05
1.3468e-05
1.33433e-05
1.32651e-05
1.87951e-05
1.94791e-05
2.0122e-05
2.07145e-05
2.12484e-05
2.89529e-05
2.91967e-05
2.9388e-05
2.95294e-05
2.96282e-05
4.03707e-05
4.06281e-05
4.08162e-05
4.09395e-05
4.10105e-05
)
;

boundaryField
{
    inlet
    {
        type            calculated;
        value           nonuniform List<scalar> 5(7.09796e-05 7.1958e-05 7.28274e-05 7.35933e-05 7.42605e-05);
    }
    outlet
    {
        type            calculated;
        value           nonuniform List<scalar> 0();
    }
    walls
    {
        type            calculated;
        value           uniform 0;
    }
    frontAndBack
    {
        type            empty;
    }
    procBoundary1to0
    {
        type            processor;
        value           nonuniform List<scalar> 
94
(
0.000936858
0.000936858
0.00086826
0.00086826
0.000800051
0.000800051
0.000733345
0.000733345
0.000668297
0.000668297
0.00060687
0.00060687
0.000554157
0.000504859
0.000504859
0.000464496
0.000424827
0.000424827
0.000393153
0.000364543
0.000335596
0.000335596
0.000312408
0.000288492
0.000288492
0.000269384
0.000251786
0.000233455
0.000233455
0.00021868
0.000204983
0.000190626
0.000190626
0.000178986
0.000166683
0.000166683
0.000156731
0.000147455
0.000137605
0.000137605
0.000129641
0.000122207
0.000114281
0.000114281
0.000107889
0.000101917
9.55308e-05
9.55308e-05
9.03945e-05
8.55897e-05
8.04449e-05
8.04449e-05
7.63041e-05
7.24237e-05
6.82729e-05
6.82729e-05
6.49158e-05
6.17585e-05
5.8786e-05
5.56462e-05
5.56462e-05
5.30448e-05
5.05762e-05
4.82255e-05
4.57583e-05
4.57583e-05
4.36259e-05
4.15699e-05
3.95912e-05
3.76971e-05
3.5772e-05
3.5772e-05
3.40798e-05
3.24581e-05
3.08795e-05
2.93228e-05
2.77851e-05
2.61751e-05
2.61751e-05
2.47477e-05
2.35198e-05
2.24928e-05
2.15246e-05
2.05617e-05
1.96281e-05
1.86828e-05
1.76004e-05
1.60297e-05
1.60297e-05
1.43263e-05
1.4156e-05
1.80634e-05
2.86676e-05
4.00353e-05
)
;
    }
    procBoundary1to2
    {
        type            processor;
        value           nonuniform List<scalar> 
84
(
0.244662
0.0396025
0.0179021
0.0033975
0.000703826
0.000254802
8.49772e-05
0.00013732
0.000158026
0.000145179
0.000146269
0.000141067
0.000138544
0.000134818
0.000131376
0.000127546
0.00012359
0.000119404
0.000115027
0.000110449
0.000105675
0.000100706
9.55484e-05
9.02108e-05
8.46985e-05
7.90237e-05
7.32022e-05
6.72587e-05
6.12352e-05
5.52165e-05
4.93741e-05
4.40697e-05
3.99781e-05
3.79425e-05
3.81874e-05
3.99204e-05
4.21682e-05
4.43554e-05
5.20895e-05
5.20895e-05
5.24618e-05
5.27276e-05
5.28333e-05
5.27542e-05
5.24851e-05
5.2033e-05
5.14113e-05
5.06374e-05
4.97309e-05
4.87101e-05
4.75928e-05
4.63936e-05
4.51245e-05
4.44843e-05
4.44843e-05
4.30099e-05
4.1502e-05
3.99705e-05
3.8431e-05
3.6903e-05
3.54033e-05
3.39377e-05
3.24976e-05
3.12393e-05
3.12393e-05
2.97684e-05
2.82821e-05
2.67949e-05
2.53279e-05
2.39267e-05
2.27024e-05
2.16702e-05
2.06989e-05
1.97186e-05
1.87993e-05
1.87993e-05
1.77178e-05
1.62589e-05
1.39906e-05
1.25138e-05
1.32191e-05
2.17156e-05
2.96957e-05
4.104e-05
)
;
    }
    procBoundary1to5
    {
        type            processor;
        value           nonuniform List<scalar> 
13
(
0.0101846
0.0101846
0.0043977
0.00342278
0.00342278
0.00237236
0.00197621
0.00197621
0.00155023
0.00134885
0.00118507
0.00118507
0.0010028
)
;
    }
}


// ************************************************************************* //
