/*--------------------------------*- C++ -*----------------------------------*\
| =========                 |                                                 |
| \\      /  F ield         | OpenFOAM: The Open Source CFD Toolbox           |
|  \\    /   O peration     | Version:  2306                                  |
|   \\  /    A nd           | Website:  www.openfoam.com                      |
|    \\/     M anipulation  |                                                 |
\*---------------------------------------------------------------------------*/
FoamFile
{
    version     2.0;
    format      ascii;
    arch        "LSB;label=32;scalar=64";
    class       volVectorField;
    location    "375";
    object      U;
}
// * * * * * * * * * * * * * * * * * * * * * * * * * * * * * * * * * * * * * //

dimensions      [0 1 -1 0 0 0 0];

internalField   nonuniform List<vector> 
1340
(
(1.36423 2.18899 5.48263e-15)
(3.32249 -0.13934 -1.6451e-15)
(5.55283 -2.15973 5.08808e-16)
(7.8486 -3.66163 1.74124e-15)
(9.96496 -4.62783 2.62237e-15)
(11.8355 -5.18638 8.17053e-16)
(13.4721 -5.46186 -1.38872e-15)
(14.8999 -5.55111 -1.24465e-15)
(16.1498 -5.51717 6.67144e-16)
(17.2525 -5.40764 2.50566e-16)
(18.2405 -5.25146 8.37592e-16)
(19.1449 -5.06811 -6.87918e-16)
(19.9875 -4.86037 -1.35721e-16)
(20.7865 -4.62976 -5.97343e-16)
(21.5527 -4.36682 2.95518e-16)
(22.2874 -4.05757 8.09223e-16)
(22.9597 -3.67697 -2.71821e-16)
(23.502 -3.22511 -3.03587e-16)
(23.897 -2.74546 -2.9483e-16)
(24.175 -2.27771 -8.40496e-18)
(24.3721 -1.77843 9.26063e-18)
(24.5036 -1.18113 1.23631e-19)
(24.5698 -0.513059 -3.41267e-18)
(24.5503 0.15984 7.46623e-17)
(24.4304 0.789599 5.573e-17)
(24.2113 1.35359 1.25376e-16)
(23.9018 1.84541 3.63886e-16)
(23.5017 2.26733 9.76349e-18)
(2.4025 6.04003 -2.72075e-15)
(3.58754 3.43908 -4.60249e-15)
(5.0801 1.14204 3.07495e-15)
(6.84355 -0.758075 -1.62475e-15)
(8.73728 -2.12428 2.21169e-16)
(10.5864 -3.01224 -5.0848e-16)
(12.3095 -3.54988 2.78649e-17)
(13.8827 -3.83695 1.49374e-16)
(15.3007 -3.95446 5.00031e-16)
(16.5747 -3.95468 -9.10433e-16)
(17.7214 -3.88203 9.7789e-16)
(18.7645 -3.76158 -2.29137e-16)
(19.7281 -3.61118 -4.23725e-16)
(20.6352 -3.42807 -2.94989e-16)
(21.5011 -3.20993 -6.66846e-16)
(22.3381 -2.93939 -7.2938e-16)
(23.1482 -2.59508 -7.90782e-16)
(23.9087 -2.13663 3.15256e-16)
(24.5676 -1.57144 -2.11984e-17)
(25.0989 -0.963324 1.34864e-16)
(25.5134 -0.336457 9.93694e-17)
(25.8054 0.273765 5.90565e-18)
(25.9669 0.821302 -1.18798e-19)
(26.0004 1.28865 2.2055e-18)
(25.9349 1.68399 -4.28233e-17)
(25.797 2.03013 -1.90055e-17)
(25.5971 2.34669 -1.76879e-16)
(25.3361 2.64221 -1.2856e-16)
(25.0048 2.9201 -2.58316e-17)
(4.92861 6.75382 1.24967e-15)
(5.69809 4.40224 1.8647e-15)
(6.78403 2.29688 1.61159e-15)
(8.13877 0.507401 -1.39261e-15)
(9.63634 -0.905453 -1.02373e-15)
(11.1562 -1.96289 2.63527e-16)
(12.6269 -2.72619 9.91717e-16)
(14.0129 -3.25337 1.40286e-15)
(15.2975 -3.59502 -2.7624e-16)
(16.4786 -3.79443 -3.25751e-17)
(17.5626 -3.8896 9.48154e-16)
(18.563 -3.90672 1.80345e-17)
(19.4968 -3.86397 7.18361e-16)
(20.3813 -3.76661 6.41906e-16)
(21.229 -3.61677 1.4936e-15)
(22.0488 -3.40622 1.55611e-15)
(22.8408 -3.12152 6.87061e-16)
(23.5857 -2.74227 1.34657e-16)
(24.2404 -2.28353 -1.24786e-16)
(24.7805 -1.79445 3.5954e-16)
(25.2164 -1.29721 -6.97879e-17)
(25.5616 -0.796773 -3.8496e-17)
(25.8215 -0.289627 2.72215e-18)
(25.9964 0.226066 3.62458e-19)
(26.0885 0.750031 1.64372e-17)
(26.099 1.27189 3.9807e-17)
(26.028 1.7735 5.65732e-17)
(25.875 2.23925 1.60095e-17)
(25.6308 2.66168 -1.92078e-16)
(6.83587 9.38093 7.95842e-16)
(7.03824 7.15976 -9.87515e-16)
(7.54183 5.05843 1.19231e-17)
(8.3245 3.1346 3.43408e-16)
(9.35341 1.45277 2.3828e-15)
(10.5375 0.0661622 1.75328e-16)
(11.7924 -1.01946 6.77834e-16)
(13.058 -1.83588 -1.85338e-15)
(14.2936 -2.42401 -1.14697e-15)
(15.4737 -2.82319 3.44685e-16)
(16.5864 -3.07251 1.9857e-16)
(17.6288 -3.20609 -9.52825e-16)
(18.605 -3.25098 9.43239e-17)
(19.5248 -3.22688 -2.30272e-16)
(20.3998 -3.14322 5.98291e-16)
(21.2391 -3.00321 -6.3015e-16)
(22.049 -2.80139 -9.16683e-16)
(22.8286 -2.52651 1.14685e-16)
(23.5614 -2.16105 2.24665e-16)
(24.2116 -1.71067 4.36474e-16)
(24.7553 -1.21289 -3.19593e-16)
(25.1974 -0.690758 -4.0491e-17)
(25.5489 -0.155345 1.39254e-17)
(25.8148 0.382864 -4.18139e-18)
(25.9978 0.908828 -2.53739e-18)
(26.1031 1.40673 3.72462e-18)
(26.1372 1.86088 -8.6709e-18)
(26.104 2.26811 -8.03126e-18)
(26.0051 2.63152 2.09732e-17)
(25.8309 2.95773 1.99231e-16)
(8.76615 9.35161 -1.15386e-15)
(8.83367 7.39051 3.56813e-15)
(9.15423 5.50448 -2.81216e-15)
(9.7184 3.75591 -1.11539e-17)
(10.5021 2.19705 3.55404e-17)
(11.4406 0.868656 -3.50144e-16)
(12.4708 -0.216222 -5.13734e-16)
(13.5451 -1.07508 -1.03631e-15)
(14.6252 -1.73494 1.26901e-15)
(15.6839 -2.22158 5.40893e-16)
(16.7051 -2.56468 -1.13599e-16)
(17.6804 -2.79053 2.87756e-16)
(18.6081 -2.92141 -5.25898e-16)
(19.4921 -2.97396 3.5481e-16)
(20.3392 -2.958 -3.43159e-16)
(21.1555 -2.87695 3.86285e-16)
(21.9448 -2.72762 3.54815e-16)
(22.7051 -2.50186 -6.2642e-17)
(23.4215 -2.1889 -5.29103e-16)
(24.0638 -1.7948 -1.3149e-16)
(24.6085 -1.35143 -4.53587e-17)
(25.0563 -0.88402 1.09788e-16)
(25.416 -0.405342 1.21361e-18)
(25.6916 0.0752334 -3.11566e-18)
(25.885 0.547585 1.95182e-17)
(26 1.00351 8.59287e-18)
(26.0418 1.44299 -3.94059e-18)
(26.0146 1.86612 5.62825e-18)
(25.9217 2.26937 6.90867e-18)
(25.7575 2.64969 3.31945e-17)
(10.6439 10.9599 -5.55106e-16)
(10.3998 9.24924 1.10165e-15)
(10.3731 7.50045 -9.85789e-16)
(10.565 5.80024 -8.66032e-16)
(10.97 4.21086 -9.55913e-16)
(11.5676 2.77134 -9.56745e-16)
(12.312 1.51466 1.47027e-15)
(13.1561 0.457924 -7.14325e-16)
(14.0632 -0.407319 7.96172e-16)
(15.0015 -1.09766 1.52569e-16)
(15.9448 -1.62888 -2.39964e-16)
(16.8761 -2.02226 -6.69027e-16)
(17.7841 -2.29774 -5.29003e-16)
(18.6626 -2.4736 2.90904e-16)
(19.5107 -2.5645 -1.295e-16)
(20.3309 -2.58035 -3.94689e-16)
(21.1258 -2.52568 -3.48832e-16)
(21.8965 -2.39963 -2.48031e-16)
(22.6396 -2.19654 3.10341e-16)
(23.3416 -1.90895 -1.02688e-16)
(23.976 -1.54125 -2.94851e-16)
(24.5207 -1.11879 3.28832e-16)
(24.9729 -0.664947 2.2053e-17)
(25.3387 -0.192135 2.18079e-18)
(25.6212 0.290654 4.27169e-18)
(25.8221 0.772906 -2.63218e-17)
(25.9446 1.24529 -4.03417e-18)
(25.9937 1.69805 1.21843e-17)
(25.9732 2.1213 -5.33016e-18)
(25.886 2.509 -2.12543e-17)
(25.7266 2.85953 8.90375e-17)
(12.0723 10.6325 -2.65677e-16)
(11.7992 9.10515 1.17448e-16)
(11.7086 7.53193 1.17133e-15)
(11.8082 5.9915 8.6798e-16)
(12.0949 4.54409 3.71309e-16)
(12.5512 3.21773 -9.53261e-16)
(13.1431 2.03949 -4.59996e-16)
(13.8347 1.0267 7.47808e-16)
(14.5984 0.174653 8.08999e-17)
(15.4082 -0.527093 -3.10981e-17)
(16.2413 -1.08791 -5.43319e-16)
(17.0816 -1.5228 4.44808e-16)
(17.917 -1.84614 9.94305e-16)
(18.7388 -2.07162 -5.59126e-16)
(19.5429 -2.2108 -6.36316e-17)
(20.3283 -2.27219 -5.74034e-16)
(21.0948 -2.25986 -2.90159e-16)
(21.8412 -2.17372 3.04527e-16)
(22.563 -2.00985 -7.26881e-16)
(23.2473 -1.76355 2.5132e-16)
(23.8711 -1.43906 3.35625e-16)
(24.413 -1.05726 -1.13912e-16)
(24.8678 -0.640084 -9.69847e-17)
(25.2388 -0.200987 -1.88851e-17)
(25.5287 0.249875 -1.36538e-18)
(25.7384 0.701302 1.91786e-18)
(25.8707 1.14251 -3.97887e-17)
(25.9299 1.56551 6.92563e-17)
(25.9194 1.96678 -7.03302e-18)
(25.8416 2.34277 6.28728e-17)
(25.6906 2.69199 7.57968e-17)
(13.3038 10.3122 -3.24749e-18)
(13.0122 8.93644 -1.87337e-16)
(12.8777 7.51078 -1.97369e-15)
(12.9102 6.10875 7.97204e-16)
(13.1078 4.78673 -1.15076e-16)
(13.4557 3.5644 1.03493e-15)
(13.9273 2.46473 -5.72735e-16)
(14.4945 1.50397 5.34913e-16)
(15.1364 0.678763 -7.77639e-16)
(15.8324 -0.017802 -5.96443e-16)
(16.5638 -0.590719 3.09771e-16)
(17.3166 -1.05027 3.35088e-16)
(18.0792 -1.40591 3.36385e-16)
(18.8419 -1.66699 1.97804e-16)
(19.5988 -1.84199 -2.32215e-16)
(20.3464 -1.93771 9.28466e-16)
(21.082 -1.95754 -2.70925e-16)
(21.8025 -1.90187 4.35139e-16)
(22.5021 -1.76799 4.53152e-16)
(23.1685 -1.55316 -1.63634e-18)
(23.7807 -1.26128 -8.82301e-17)
(24.3185 -0.909125 -6.98862e-17)
(24.7743 -0.516709 1.51978e-17)
(25.1494 -0.0976415 1.9907e-17)
(25.4452 0.337754 6.4967e-18)
(25.6623 0.77852 1.16112e-17)
(25.8025 1.21415 2.72328e-17)
(25.8696 1.63647 -1.33575e-16)
(25.8665 2.03744 -6.92465e-17)
(25.7954 2.41089 1.23341e-17)
(25.6506 2.7534 -1.52753e-16)
(14.7937 11.1734 -4.67408e-16)
(14.377 10.0025 -2.84567e-16)
(14.0746 8.75419 -6.76243e-16)
(13.9097 7.45425 -1.69556e-16)
(13.893 6.17268 8.67461e-16)
(14.0228 4.96121 6.5797e-16)
(14.2868 3.83394 -1.89512e-16)
(14.6632 2.81024 1.58731e-15)
(15.1291 1.90502 -3.9737e-17)
(15.6684 1.115 1.16168e-15)
(16.2652 0.434969 4.70272e-16)
(16.9043 -0.137875 -4.24344e-16)
(17.5745 -0.610408 3.84454e-17)
(18.2653 -0.988552 -8.82597e-16)
(18.9675 -1.27822 5.82578e-17)
(19.6743 -1.48498 5.13061e-16)
(20.3804 -1.61354 2.18539e-17)
(21.0816 -1.66631 3.50095e-16)
(21.773 -1.6435 -4.41217e-16)
(22.448 -1.54304 -2.83698e-16)
(23.0945 -1.36342 -5.06038e-16)
(23.693 -1.10818 -3.142e-16)
(24.2244 -0.791117 -2.01571e-17)
(24.6795 -0.430239 -8.7778e-17)
(25.0575 -0.0392386 -1.65342e-18)
(25.3586 0.371192 -6.41281e-18)
(25.5828 0.789914 -1.57508e-18)
(25.7314 1.20604 3.22476e-17)
(25.8073 1.61032 -1.69269e-17)
(25.8132 1.99637 1.37201e-16)
(25.7507 2.35839 -3.07082e-16)
(25.6141 2.69277 3.53072e-17)
(15.3211 9.70495 -7.70836e-16)
(15.0134 8.56545 2.17222e-15)
(14.8272 7.3741 1.1628e-15)
(14.7742 6.19807 4.17618e-16)
(14.8522 5.08429 -1.73148e-15)
(15.0507 4.04306 -9.84641e-16)
(15.3511 3.09118 -1.78508e-15)
(15.7345 2.24199 -1.6413e-15)
(16.188 1.49164 -3.74854e-16)
(16.699 0.835591 2.54171e-16)
(17.2557 0.27236 -2.68288e-16)
(17.8493 -0.20306 -3.42987e-16)
(18.4712 -0.593912 3.70837e-16)
(19.1132 -0.9035 -4.94488e-16)
(19.7685 -1.13492 5.42373e-17)
(20.431 -1.29075 1.94443e-16)
(21.0953 -1.372 3.94613e-16)
(21.7555 -1.37847 -1.7873e-16)
(22.4043 -1.30836 -1.00076e-16)
(23.0295 -1.16064 -8.19018e-17)
(23.613 -0.93857 2.49206e-16)
(24.1362 -0.653445 -1.22824e-17)
(24.5889 -0.321094 5.51071e-17)
(24.9683 0.0451385 -7.82639e-18)
(25.2736 0.434418 -4.21915e-18)
(25.504 0.835718 -1.34086e-17)
(25.66 1.23805 -3.69257e-17)
(25.744 1.63212 -1.09995e-16)
(25.7579 2.01011 1.97084e-17)
(25.7033 2.36482 3.07478e-16)
(25.5744 2.69147 3.59924e-16)
(15.8493 8.37469 -1.40182e-15)
(15.6486 7.27837 -9.12319e-16)
(15.5685 6.19528 1.09957e-15)
(15.6066 5.16821 1.53287e-15)
(15.7535 4.20479 2.4298e-16)
(15.9932 3.31985 1.0655e-15)
(16.3092 2.52544 1.00162e-15)
(16.6908 1.8169 -6.01253e-16)
(17.1282 1.1896 4.02763e-16)
(17.612 0.642666 -1.04194e-16)
(18.1358 0.172245 6.91641e-16)
(18.6928 -0.223571 -4.24361e-16)
(19.2761 -0.546007 -6.92004e-16)
(19.8796 -0.796092 -2.40624e-16)
(20.4971 -0.974685 -5.7892e-16)
(21.1226 -1.08154 -5.11065e-16)
(21.7496 -1.11567 -4.51935e-16)
(22.3702 -1.07503 8.4076e-16)
(22.9727 -0.958775 5.19925e-16)
(23.5394 -0.769734 8.38067e-17)
(24.0525 -0.517062 2.83309e-16)
(24.501 -0.21462 4.79249e-17)
(24.8805 0.124805 1.29555e-17)
(25.1889 0.490329 -1.42031e-18)
(25.4248 0.870959 -2.48227e-18)
(25.588 1.25568 2.46031e-17)
(25.68 1.63465 -3.66536e-18)
(25.7024 2.00006 7.06665e-17)
(25.656 2.34447 1.53428e-16)
(25.5354 2.66244 -6.54161e-16)
(16.388 7.1726 7.09304e-17)
(16.2877 6.17189 6.52128e-16)
(16.295 5.22205 -1.92881e-15)
(16.4012 4.32917 -1.29104e-15)
(16.5919 3.50624 8.64184e-16)
(16.8526 2.76411 1.26295e-15)
(17.1742 2.09757 -6.53877e-16)
(17.5487 1.50182 -9.16206e-17)
(17.9686 0.97595 -5.29755e-17)
(18.4293 0.516375 -1.73189e-16)
(18.9261 0.122109 6.3676e-16)
(19.4533 -0.20679 8.75206e-16)
(20.0057 -0.469866 8.1842e-17)
(20.5777 -0.666452 6.24474e-16)
(21.1632 -0.795056 2.15945e-16)
(21.7554 -0.853851 3.37313e-16)
(22.3465 -0.840447 -5.25735e-16)
(22.9247 -0.753719 -4.34936e-17)
(23.4732 -0.595841 -2.67163e-16)
(23.9744 -0.374251 -3.05665e-16)
(24.4169 -0.100854 -1.14821e-16)
(24.795 0.21236 2.83432e-17)
(25.1054 0.554641 9.4149e-18)
(25.3459 0.915208 6.14711e-18)
(25.5155 1.28308 1.27245e-18)
(25.6151 1.64824 -3.6565e-17)
(25.6455 2.00233 1.05062e-17)
(25.6073 2.33703 -2.56221e-16)
(25.495 2.64593 1.71432e-17)
(16.9418 6.1334 -1.71332e-15)
(16.9252 5.25285 4.5095e-16)
(16.9989 4.42382 8.16116e-16)
(17.15 3.65792 -1.41151e-15)
(17.3653 2.9652 -9.60814e-16)
(17.6367 2.34 8.58295e-16)
(17.9575 1.77701 1.83601e-16)
(18.3217 1.27502 -5.86142e-16)
(18.7262 0.830616 5.51093e-16)
(19.1676 0.443068 -2.86191e-16)
(19.6417 0.113141 9.60994e-16)
(20.1446 -0.157792 2.50392e-16)
(20.6714 -0.367908 -3.39964e-17)
(21.2164 -0.514591 1.3035e-16)
(21.7729 -0.595225 -9.95414e-17)
(22.3332 -0.606904 -6.19373e-17)
(22.8859 -0.548062 -5.91311e-16)
(23.4145 -0.420036 2.63539e-17)
(23.9022 -0.228669 2.20223e-16)
(24.337 0.0158665 -7.76832e-18)
(24.7122 0.302542 -3.08513e-17)
(25.0233 0.620906 -1.36601e-17)
(25.2675 0.960401 4.01087e-17)
(25.4429 1.31016 -1.96138e-17)
(25.5496 1.65996 1.23605e-16)
(25.5879 2.00113 -3.18155e-16)
(25.5581 2.3249 5.403e-16)
(25.4544 2.62407 3.05231e-16)
(17.5037 5.2657 1.03696e-16)
(17.5514 4.49465 -5.80368e-16)
(17.6702 3.78132 5.5364e-17)
(17.8481 3.13498 5.44709e-16)
(18.0775 2.54951 -7.42523e-16)
(18.3526 2.01939 2.06432e-16)
(18.6684 1.54297 -5.72538e-17)
(19.0229 1.11665 -3.50304e-16)
(19.414 0.739696 -5.40192e-16)
(19.8388 0.413211 -4.8369e-16)
(20.2944 0.139033 -2.30579e-16)
(20.777 -0.0803372 -3.44892e-16)
(21.2814 -0.241467 -1.55972e-16)
(21.8016 -0.34097 -2.17014e-16)
(22.3302 -0.375286 8.01232e-17)
(22.8563 -0.34217 4.93534e-16)
(23.3638 -0.242167 7.57295e-17)
(23.8364 -0.0797096 9.71705e-17)
(24.2618 0.136704 6.66606e-17)
(24.6325 0.397126 2.45321e-17)
(24.9431 0.691566 6.33264e-18)
(25.1899 1.00979 -3.11883e-17)
(25.3703 1.34114 -2.69967e-17)
(25.4836 1.67532 2.16228e-16)
(25.5296 2.00333 -5.21588e-17)
(25.508 2.31584 -4.84634e-16)
(25.4131 2.6048 3.67879e-16)
(18.0631 4.54633 -8.61326e-17)
(18.1555 3.88131 9.5476e-16)
(18.3024 3.27816 -2.59391e-16)
(18.4965 2.73058 2.25303e-16)
(18.7326 2.23277 -1.38119e-16)
(19.0066 1.78273 8.17923e-16)
(19.317 1.37652 1.8095e-16)
(19.6628 1.01311 -2.69526e-17)
(20.042 0.693563 5.93616e-16)
(20.453 0.419904 -3.74845e-16)
(20.8929 0.195066 2.96944e-18)
(21.3574 0.0229984 6.32835e-16)
(21.8412 -0.0922812 6.43363e-17)
(22.3375 -0.146644 -2.38044e-16)
(22.836 -0.137141 -2.16801e-16)
(23.3213 -0.0633482 1.49707e-16)
(23.7772 0.071573 2.79433e-18)
(24.1917 0.260667 -2.55164e-17)
(24.5563 0.495115 1.96969e-17)
(24.8651 0.765535 3.60436e-18)
(25.1135 1.0621 -9.91961e-18)
(25.2981 1.37444 9.44741e-17)
(25.4175 1.69225 -1.30042e-16)
(25.4709 2.00628 1.28381e-16)
(25.4574 2.3068 -5.23659e-16)
(25.3715 2.58496 -4.28328e-17)
(18.5376 4.58265 4.05972e-16)
(18.6085 3.96209 6.95864e-16)
(18.7295 3.39913 3.23701e-18)
(18.894 2.88732 6.80468e-16)
(19.0969 2.42079 4.23948e-17)
(19.3346 1.99707 -1.05118e-15)
(19.6063 1.61199 -1.97411e-16)
(19.9114 1.2641 -1.45416e-16)
(20.249 0.954218 4.05797e-17)
(20.6184 0.684264 1.37321e-16)
(21.0175 0.457319 -4.97687e-16)
(21.4433 0.277637 -2.60403e-16)
(21.891 0.149653 3.6205e-16)
(22.3547 0.0779604 3.97514e-16)
(22.825 0.0661382 -2.38623e-16)
(23.2871 0.115625 -1.1336e-17)
(23.7251 0.224577 -3.0671e-16)
(24.127 0.387393 5.74717e-17)
(24.4843 0.596406 1.52221e-17)
(24.7899 0.842963 -4.42856e-19)
(25.0386 1.11773 2.41011e-17)
(25.2266 1.41069 -5.67532e-18)
(25.3515 1.71166 1.24661e-16)
(25.4118 2.01118 3.66022e-16)
(25.4063 2.29916 1.10014e-15)
(25.3296 2.56601 3.87218e-17)
(19.0314 4.02678 7.18862e-16)
(19.131 3.50111 -3.2784e-16)
(19.2704 3.023 -7.18833e-16)
(19.445 2.58637 -3.70597e-16)
(19.6514 2.18858 -2.02287e-16)
(19.889 1.82503 -1.95989e-16)
(20.1579 1.49395 3.29387e-16)
(20.4578 1.19577 -6.73034e-16)
(20.7886 0.932117 1.64326e-16)
(21.1494 0.705984 -4.19906e-16)
(21.5378 0.521621 -3.02262e-16)
(21.9501 0.383734 -1.68069e-16)
(22.3815 0.2973 4.23956e-17)
(22.8232 0.266617 2.80925e-16)
(23.2612 0.294001 3.96081e-17)
(23.6802 0.378671 1.4906e-16)
(24.0683 0.516367 5.4173e-17)
(24.4166 0.700604 -7.57931e-17)
(24.7178 0.923542 -7.1447e-18)
(24.9658 1.17643 -1.93618e-17)
(25.1561 1.44969 -6.45122e-17)
(25.2858 1.73332 2.6914e-17)
(25.3527 2.01771 -4.51896e-16)
(25.355 2.29259 -5.04988e-16)
(25.2876 2.54761 -2.34803e-16)
(19.4267 4.07821 5.43076e-16)
(19.5083 3.58715 -4.32003e-16)
(19.6265 3.14052 1.35843e-16)
(19.7768 2.7323 3.59618e-16)
(19.9561 2.35959 1.07893e-15)
(20.1641 2.01754 -8.57701e-17)
(20.4008 1.70396 1.43327e-16)
(20.6666 1.41886 3.92752e-16)
(20.9621 1.16351 2.24921e-16)
(21.2869 0.94058 7.73759e-16)
(21.6397 0.754254 5.13509e-16)
(22.0179 0.609238 -3.92906e-17)
(22.4173 0.510709 -4.43178e-16)
(22.8304 0.46347 3.60178e-17)
(23.2437 0.470771 -1.70891e-16)
(23.6426 0.532946 5.37182e-17)
(24.0157 0.646885 2.68433e-17)
(24.3538 0.807217 -2.97443e-17)
(24.6492 1.00698 1.76643e-18)
(24.8953 1.23808 1.23452e-17)
(25.0871 1.49144 -5.18593e-17)
(25.2208 1.75734 9.61787e-18)
(25.2937 2.02613 5.87934e-17)
(25.3037 2.28736 -1.00082e-16)
(25.2456 2.53009 -6.84142e-16)
(19.8629 3.65948 1.22787e-15)
(19.9631 3.24226 -9.26724e-17)
(20.0927 2.86085 -1.29902e-16)
(20.2485 2.51218 -8.73714e-16)
(20.4304 2.19122 5.28412e-16)
(20.6387 1.89538 -4.74707e-16)
(20.874 1.62427 3.36624e-17)
(21.1371 1.37872 -2.71873e-16)
(21.4287 1.161 -2.69746e-16)
(21.748 0.974973 -1.22283e-16)
(22.0933 0.825278 -1.41151e-16)
(22.4615 0.717175 1.46589e-16)
(22.846 0.655814 7.95756e-17)
(23.2344 0.645236 -4.45589e-17)
(23.6126 0.686786 -1.54911e-17)
(23.9696 0.778422 -5.41872e-17)
(24.2962 0.915841 2.2872e-17)
(24.5846 1.093 7.16292e-18)
(24.8277 1.30252 2.20994e-17)
(25.0199 1.53588 8.02556e-17)
(25.1568 1.78375 -3.27534e-16)
(25.2353 2.03647 -3.48565e-18)
(25.2526 2.28358 3.01277e-16)
(25.2038 2.51357 2.6053e-16)
(20.1962 3.72021 2.1647e-17)
(20.281 3.33043 -5.67009e-16)
(20.3928 2.9742 1.37662e-16)
(20.5284 2.64838 2.7355e-17)
(20.6875 2.34782 2.41315e-17)
(20.8706 2.06961 2.23661e-16)
(21.0785 1.81297 -5.20515e-16)
(21.3124 1.57825 9.15803e-17)
(21.5733 1.36729 -2.68401e-16)
(21.8613 1.18353 -1.34689e-17)
(22.1753 1.03136 3.0682e-16)
(22.5133 0.915922 -1.25542e-16)
(22.8697 0.842733 -4.19871e-17)
(23.2331 0.816486 2.86253e-16)
(23.59 0.839347 5.16498e-17)
(23.93 0.910251 -2.62619e-17)
(24.2442 1.0259 3.39377e-17)
(24.5243 1.18118 -6.1371e-18)
(24.7633 1.36947 -2.41169e-17)
(24.9549 1.58288 8.77513e-17)
(25.0942 1.81251 -1.03195e-16)
(25.1777 2.0488 1.12301e-16)
(25.202 2.28134 -3.34152e-16)
(25.1623 2.49822 7.47823e-16)
(20.5095 3.77091 -8.67715e-17)
(20.5812 3.40666 5.23352e-16)
(20.6776 3.07403 -4.21367e-16)
(20.7956 2.76983 2.89757e-16)
(20.9348 2.48884 -3.72366e-16)
(21.0958 2.2279 2.89137e-17)
(21.2793 1.9859 -7.20025e-17)
(21.4868 1.76268 2.56636e-16)
(21.7196 1.5596 2.27223e-16)
(21.9785 1.3797 -2.43404e-16)
(22.263 1.22702 -5.35378e-17)
(22.572 1.1065 3.36434e-16)
(22.901 1.0237 -8.44917e-17)
(23.2395 0.983863 -7.78048e-17)
(23.5749 0.989955 -1.6557e-16)
(23.8972 1.04176 4.77268e-17)
(24.1979 1.1369 -1.23309e-17)
(24.4688 1.27116 1.76658e-18)
(24.7024 1.43871 -3.34779e-17)
(24.8924 1.63234 -5.01512e-17)
(25.0334 1.84361 3.68698e-16)
(25.1211 2.0632 -1.03431e-16)
(25.1521 2.2808 -3.45659e-17)
(25.1215 2.48423 -6.47022e-16)
(20.8646 3.47249 -5.26614e-16)
(20.9476 3.16193 -1.79229e-16)
(21.0503 2.87811 5.34359e-17)
(21.1722 2.61576 5.24313e-16)
(21.3136 2.37155 1.80326e-16)
(21.4754 2.14405 2.07381e-16)
(21.6592 1.93268 -5.30408e-16)
(21.8665 1.73835 6.99502e-17)
(22.0984 1.5636 2.70714e-16)
(22.3554 1.41204 -2.01127e-16)
(22.6368 1.28829 5.69405e-17)
(22.9393 1.19791 -1.06257e-17)
(23.2532 1.14654 7.14472e-17)
(23.5669 1.13779 -1.35013e-16)
(23.8711 1.17221 -2.16364e-17)
(24.1575 1.24822 6.29596e-17)
(24.4182 1.36245 1.95103e-18)
(24.6456 1.5099 4.11092e-17)
(24.833 1.68402 -1.11726e-16)
(24.9747 1.87695 -5.22509e-17)
(25.066 2.07967 -2.41658e-16)
(25.1032 2.28203 1.02872e-16)
(25.0814 2.47176 2.26857e-16)
(21.1319 3.52928 4.48005e-16)
(21.2035 3.23931 5.62414e-16)
(21.2929 2.97458 -1.04664e-16)
(21.3995 2.72986 2.84739e-16)
(21.5237 2.5017 -1.76489e-16)
(21.6662 2.28837 -1.1893e-17)
(21.8287 2.08893 1.02233e-16)
(22.0129 1.9039 6.22739e-17)
(22.2202 1.73528 -3.69112e-17)
(22.4514 1.58623 -1.0265e-16)
(22.7069 1.46098 -1.0022e-16)
(22.9838 1.36493 -1.06186e-16)
(23.2738 1.304 -1.32265e-16)
(23.5659 1.28233 -9.32252e-17)
(23.8517 1.30105 -3.39241e-17)
(24.1232 1.35934 -1.4624e-17)
(24.3728 1.45465 -2.57444e-18)
(24.593 1.58273 -3.35139e-17)
(24.7768 1.73777 -4.84407e-17)
(24.9184 1.91249 9.42831e-17)
(25.0127 2.09826 4.36115e-16)
(25.0556 2.28517 -8.32964e-17)
(25.0424 2.461 -2.26668e-16)
(21.4457 3.30727 -1.0362e-16)
(21.5235 3.06041 -5.37277e-16)
(21.6168 2.83232 1.04375e-16)
(21.7258 2.61944 -2.11285e-16)
(21.8512 2.41983 -7.7329e-17)
(21.9948 2.23227 -2.90855e-16)
(22.1581 2.05683 -7.64937e-18)
(22.3429 1.89507 1.20677e-16)
(22.5504 1.74964 6.89268e-17)
(22.7814 1.62431 -7.56042e-18)
(23.034 1.52428 -9.71406e-17)
(23.3007 1.4556 7.71607e-17)
(23.5717 1.42282 3.19639e-16)
(23.8388 1.42755 -2.66652e-17)
(24.0951 1.46962 2.61268e-17)
(24.3329 1.54719 -1.30545e-18)
(24.545 1.65679 1.89026e-17)
(24.7244 1.79329 1.54879e-16)
(24.865 1.95005 -4.31317e-16)
(24.9615 2.11891 2.18247e-17)
(25.0096 2.29027 6.53285e-17)
(25.0047 2.45208 7.81916e-17)
(21.675 3.36695 -9.97806e-18)
(21.7426 3.13676 6.63772e-16)
(21.8242 2.92425 -6.42099e-17)
(21.9198 2.72582 1.10587e-16)
(22.0301 2.53938 -3.40025e-17)
(22.1567 2.36343 2.36993e-17)
(22.3013 2.19768 5.7476e-16)
(22.4656 2.04326 -5.14916e-16)
(22.6512 1.90233 1.69602e-16)
(22.8595 1.7782 2.9386e-16)
(23.0891 1.67573 -2.61874e-17)
(23.3335 1.60098 1.89687e-16)
(23.5837 1.55879 -1.5797e-16)
(23.8324 1.55122 -8.37871e-17)
(24.0731 1.57857 -7.4314e-17)
(24.2986 1.63966 -6.73831e-18)
(24.5018 1.73173 -3.2397e-17)
(24.676 1.85036 -6.85821e-17)
(24.8148 1.98953 3.42309e-16)
(24.9128 2.14162 5.77776e-17)
(24.9655 2.29742 -1.89857e-16)
(24.9684 2.44517 -2.11902e-16)
(21.892 3.41915 -5.72606e-17)
(21.9506 3.20451 -4.31832e-16)
(22.0219 3.00658 4.19479e-16)
(22.1057 2.82175 -3.50105e-16)
(22.2027 2.64785 4.56132e-16)
(22.3141 2.48315 -1.46409e-16)
(22.4419 2.32706 -3.49591e-16)
(22.5877 2.18026 1.42385e-16)
(22.7534 2.04449 -3.12399e-16)
(22.9405 1.92257 -2.13969e-16)
(23.1484 1.81895 -8.93664e-18)
(23.3715 1.73967 4.58894e-17)
(23.6017 1.68971 -3.63801e-17)
(23.8322 1.67143 -2.30865e-17)
(24.0571 1.68557 2.26159e-17)
(24.2699 1.7315 1.37778e-17)
(24.4637 1.8071 3.81105e-17)
(24.6318 1.90862 4.41888e-17)
(24.7681 2.03071 2.87478e-16)
(24.8669 2.1663 3.51929e-16)
(24.9236 2.30664 3.00625e-16)
(24.934 2.44039 3.79939e-16)
(22.148 3.26453 2.11792e-16)
(22.2102 3.0802 -5.0242e-16)
(22.2836 2.90817 8.0649e-17)
(22.3687 2.74614 2.78257e-16)
(22.4667 2.59224 -3.15648e-16)
(22.5794 2.44561 1.03344e-16)
(22.7085 2.30659 -9.25139e-18)
(22.856 2.17644 1.07001e-17)
(23.0236 2.05751 -9.20874e-17)
(23.2114 1.95389 2.54443e-16)
(23.4143 1.87143 -4.83231e-17)
(23.6251 1.8152 2.73816e-18)
(23.8378 1.78776 1.06812e-17)
(24.0471 1.79016 1.37123e-17)
(24.2469 1.82226 -3.03406e-18)
(24.4308 1.88251 1.15266e-17)
(24.5923 1.96781 -6.34173e-17)
(24.7252 2.07342 -4.17679e-16)
(24.8241 2.19288 -7.08175e-16)
(24.8842 2.31797 -2.11998e-16)
(24.9014 2.43787 -5.73925e-16)
(22.3351 3.31759 -6.21375e-17)
(22.3893 3.14594 2.40269e-16)
(22.4535 2.98584 -3.33898e-17)
(22.5281 2.83499 -4.59402e-16)
(22.6142 2.69138 -1.72142e-17)
(22.7135 2.55394 1.07639e-16)
(22.8276 2.42266 -2.69306e-16)
(22.9585 2.29845 4.10824e-16)
(23.1083 2.18319 7.94196e-17)
(23.2772 2.08051 -2.04525e-16)
(23.4612 1.99608 -3.24523e-17)
(23.6535 1.93493 -3.95968e-17)
(23.849 1.89976 5.86671e-18)
(24.0429 1.89186 6.03761e-17)
(24.2296 1.91147 -1.11912e-18)
(24.4032 1.95754 -7.38535e-18)
(24.5574 2.02755 5.17267e-17)
(24.6865 2.11741 -7.81516e-17)
(24.7847 2.22124 7.33167e-16)
(24.8476 2.33139 -1.57383e-16)
(24.8711 2.43768 6.24515e-16)
(22.5125 3.36435 -2.2468e-16)
(22.5596 3.20447 -4.18778e-16)
(22.6157 3.05551 4.59524e-16)
(22.681 2.91514 3.1065e-16)
(22.7566 2.78129 -4.05363e-17)
(22.8438 2.65269 3.96381e-17)
(22.9445 2.52905 1.74098e-16)
(23.0605 2.41095 9.51277e-17)
(23.1939 2.29981 2.12917e-16)
(23.3455 2.19885 -7.15978e-17)
(23.5116 2.11345 6.13964e-17)
(23.6864 2.04861 1.76273e-16)
(23.8654 2.00706 1.03205e-16)
(24.0442 1.99025 -3.39469e-17)
(24.2178 1.99869 9.43608e-18)
(24.3809 2.03178 7.63412e-17)
(24.5275 2.08753 -8.87076e-17)
(24.652 2.16244 1.42584e-16)
(24.749 2.25125 -9.55203e-16)
(24.814 2.3469 1.61093e-16)
(24.8432 2.4399 -6.71451e-16)
(22.7215 3.25645 1.40133e-16)
(22.7704 3.11787 2.84182e-16)
(22.8274 2.98732 -1.96939e-16)
(22.8936 2.86265 4.54447e-16)
(22.9702 2.74247 -3.50699e-16)
(23.0588 2.62629 7.66058e-17)
(23.1613 2.51434 -3.52126e-16)
(23.2799 2.40766 -6.13808e-17)
(23.4155 2.30904 -6.48127e-17)
(23.565 2.22356 -2.5517e-16)
(23.7234 2.15612 -1.70952e-16)
(23.8866 2.10941 -1.19527e-16)
(24.0507 2.08496 -2.98592e-17)
(24.2115 2.08353 1.37259e-17)
(24.3639 2.10485 -1.30947e-16)
(24.5026 2.14742 1.46436e-16)
(24.6221 2.20825 -1.09499e-16)
(24.7173 2.28273 7.33592e-16)
(24.7838 2.36441 1.07408e-16)
(24.818 2.44454 7.33503e-16)
(22.8752 3.30246 1.26978e-16)
(22.9177 3.17352 -1.53683e-16)
(22.9675 3.0521 -3.97301e-16)
(23.0254 2.93607 -3.59573e-16)
(23.0924 2.82389 4.60953e-16)
(23.1703 2.71491 -8.49997e-17)
(23.2607 2.60908 3.86026e-16)
(23.3658 2.50705 9.9193e-17)
(23.4868 2.41125 -1.47446e-17)
(23.621 2.32643 1.02869e-18)
(23.764 2.25732 9.17864e-17)
(23.9121 2.20656 1.2442e-16)
(24.0623 2.1757 2.03983e-17)
(24.2105 2.16563 -1.5922e-17)
(24.3522 2.17639 7.57682e-17)
(24.4827 2.20686 -7.12836e-17)
(24.5968 2.25459 1.19556e-17)
(24.6896 2.31553 -1.42191e-16)
(24.757 2.38385 -6.45047e-16)
(24.7955 2.45163 8.45376e-17)
(23.0581 3.22304 -2.31603e-16)
(23.1014 3.11012 -1.56278e-17)
(23.1519 3.00216 4.81319e-16)
(23.2105 2.89754 -7.77695e-17)
(23.2788 2.79545 -7.36872e-17)
(23.3583 2.6956 -6.82871e-17)
(23.4513 2.59835 -2.26802e-17)
(23.5589 2.50572 9.69258e-17)
(23.679 2.42217 5.61842e-17)
(23.8076 2.3522 5.55792e-17)
(23.9416 2.29837 -4.4851e-17)
(24.0784 2.26221 4.89267e-17)
(24.2144 2.24469 1.88699e-19)
(24.3457 2.24606 -2.59175e-17)
(24.4679 2.26556 6.71737e-17)
(24.5762 2.30119 -8.3807e-17)
(24.6662 2.34944 9.48964e-18)
(24.7338 2.40512 3.94194e-16)
(24.776 2.46111 -4.12973e-16)
(23.1917 3.26694 3.54596e-16)
(23.2293 3.16192 1.28471e-16)
(23.2732 3.06146 -1.1752e-16)
(23.3244 2.96395 -1.58085e-16)
(23.3841 2.86842 -2.22176e-16)
(23.4539 2.7744 1.99276e-16)
(23.5359 2.68195 -1.35969e-16)
(23.6314 2.59275 1.98939e-16)
(23.7385 2.51092 -9.41387e-17)
(23.8538 2.44078 -1.78765e-17)
(23.9747 2.38475 1.86552e-17)
(24.0988 2.3443 -4.2858e-17)
(24.2231 2.32044 -1.24839e-17)
(24.3442 2.31358 -4.17397e-17)
(24.458 2.32322 4.5881e-17)
(24.5604 2.34777 2.49927e-16)
(24.6471 2.38426 3.1027e-17)
(24.7145 2.42809 1.60787e-16)
(24.7596 2.47294 -6.59822e-17)
(23.3188 3.3057 1.05216e-16)
(23.3514 3.20799 -1.31312e-16)
(23.3895 3.11453 -1.92023e-17)
(23.434 3.02366 -1.89986e-16)
(23.4861 2.93434 -1.9592e-16)
(23.5473 2.84592 -1.97525e-16)
(23.6195 2.75822 2.65397e-16)
(23.7039 2.67261 -3.9417e-18)
(23.7992 2.59289 5.93914e-17)
(23.9023 2.52317 3.42701e-17)
(24.0109 2.4657 -8.56971e-17)
(24.1231 2.42186 4.74719e-17)
(24.2363 2.39269 -2.152e-18)
(24.3474 2.37867 5.10617e-17)
(24.453 2.37956 -1.14988e-16)
(24.5493 2.39408 8.13003e-17)
(24.6324 2.41976 -6.81561e-16)
(24.699 2.4526 3.29604e-16)
(24.7464 2.48701 4.73175e-16)
(23.4679 3.24882 3.51723e-16)
(23.5009 3.16184 -8.04107e-17)
(23.5395 3.07718 -1.23638e-16)
(23.5849 2.9937 -1.00374e-17)
(23.6383 2.91065 1.55798e-16)
(23.7017 2.82761 -1.00856e-16)
(23.7762 2.74566 -5.55464e-17)
(23.8608 2.66833 -1.89522e-17)
(23.9527 2.59948 -7.37347e-17)
(24.0499 2.54122 5.73887e-17)
(24.151 2.49483 3.29594e-17)
(24.2536 2.46128 4.88758e-19)
(24.3552 2.44115 4.53948e-17)
(24.4528 2.43434 1.48642e-17)
(24.5429 2.43989 -3.79503e-16)
(24.6222 2.45574 3.29609e-16)
(24.6875 2.47846 -4.46241e-16)
(24.7365 2.50319 -5.5514e-16)
(23.579 3.28482 1.41263e-17)
(23.6075 3.20386 3.30819e-16)
(23.641 3.12497 -2.32255e-16)
(23.6803 3.04698 5.77616e-18)
(23.7269 2.96903 6.52977e-17)
(23.7824 2.89051 1.34627e-16)
(23.848 2.81226 5.68043e-17)
(23.9228 2.73751 -2.04358e-16)
(24.0045 2.66991 9.30255e-17)
(24.0913 2.61142 -1.13768e-17)
(24.182 2.56318 2.70042e-17)
(24.2748 2.52612 1.03588e-17)
(24.3673 2.50083 -4.08655e-17)
(24.4571 2.48735 -6.88766e-17)
(24.541 2.48496 3.79015e-16)
(24.6162 2.49198 1.66348e-16)
(24.6799 2.50551 2.08927e-16)
(24.7299 2.52135 3.31041e-16)
(23.685 3.31642 -4.12913e-16)
(23.7095 3.24102 1.19732e-16)
(23.7384 3.1675 -1.04064e-16)
(23.7725 3.09464 3.31933e-16)
(23.813 3.02151 -4.74734e-17)
(23.8614 2.94735 -1.24769e-16)
(23.919 2.87277 7.83671e-17)
(23.985 2.80074 7.70831e-17)
(24.0574 2.73468 1.51254e-16)
(24.1347 2.67642 -8.74519e-17)
(24.2159 2.62696 -2.33228e-17)
(24.2994 2.58716 -7.21399e-18)
(24.3834 2.5576 -2.12603e-17)
(24.4657 2.53842 5.36469e-17)
(24.5436 2.5291 -2.76142e-16)
(24.6146 2.52827 1.03649e-17)
(24.6762 2.53353 -1.8396e-17)
(24.7266 2.54129 1.78981e-16)
(23.8071 3.27372 -8.06359e-17)
(23.8319 3.20517 1.54647e-16)
(23.8614 3.13711 -1.63615e-16)
(23.8965 3.06851 -5.71673e-17)
(23.9387 2.99853 1.10788e-16)
(23.9891 2.92755 -2.12865e-16)
(24.0472 2.85831 4.78556e-18)
(24.1111 2.79404 -2.99201e-18)
(24.1798 2.73639 -7.21127e-18)
(24.2522 2.68624 2.7879e-17)
(24.3272 2.64439 -1.0308e-17)
(24.4032 2.61138 -4.00297e-17)
(24.4783 2.5874 1.691e-16)
(24.5503 2.5721 2.44322e-16)
(24.617 2.56441 2.2842e-16)
(24.6764 2.56232 4.52963e-19)
(24.7266 2.56283 -2.65744e-17)
(23.9005 3.30235 1.08627e-16)
(23.9218 3.2384 -4.69617e-17)
(23.9471 3.17479 -1.25284e-16)
(23.9774 3.11047 7.13391e-17)
(24.014 3.04446 -9.66495e-17)
(24.0581 2.97699 -8.72437e-17)
(24.1091 2.91058 8.81268e-17)
(24.1655 2.84825 -6.37115e-17)
(24.2262 2.79152 -1.96803e-18)
(24.2907 2.74116 8.13214e-18)
(24.3578 2.69785 9.73436e-18)
(24.4263 2.66212 2.23872e-17)
(24.4946 2.63419 -3.1469e-16)
(24.561 2.61383 -1.39788e-16)
(24.6234 2.60019 1.86473e-16)
(24.6802 2.59167 -2.86398e-16)
(23.9899 3.32726 2.32558e-17)
(24.008 3.26756 -7.35965e-17)
(24.0297 3.2081 4.81065e-17)