# p  FACE_DATA 600
# x y z  p
0.29893883 -0.05 0.060006728 11644.602
0.29682219 -0.05 0.060005155 11652.688
0.29471691 -0.05 0.060001576 11662.743
0.29262294 -0.05 0.05999591 11672.629
0.29054021 -0.05 0.059988277 11681.95
0.28846868 -0.05 0.059978645 11692.569
0.28640827 -0.05 0.059967018 11702.029
0.28435895 -0.05 0.059953476 11712.296
0.28232063 -0.05 0.05993795 11722.722
0.28029328 -0.05 0.059920485 11732.961
0.27827682 -0.05 0.059901123 11743.257
0.27627121 -0.05 0.059879855 11753.883
0.27427639 -0.05 0.05985667 11764.655
0.2722923 -0.05 0.059831621 11775.115
0.27031889 -0.05 0.059804697 11786.238
0.26835611 -0.05 0.05977592 11796.678
0.26640388 -0.05 0.059745343 11807.515
0.26446217 -0.05 0.059712935 11818.556
0.26253092 -0.05 0.059678711 11829.697
0.26061007 -0.05 0.059642689 11841.016
0.25869957 -0.05 0.059604861 11852.487
0.25679937 -0.05 0.059565286 11863.514
0.25490941 -0.05 0.05952394 11875.482
0.25302965 -0.05 0.059480841 11886.543
0.25116001 -0.05 0.059436049 11898.124
0.24930047 -0.05 0.059389522 11909.843
0.24745095 -0.05 0.059341283 11921.67
0.24561142 -0.05 0.059291325 11933.93
0.24378182 -0.05 0.05923967 11945.825
0.24196209 -0.05 0.059186367 11957.745
0.24015219 -0.05 0.059131421 11969.735
0.23835206 -0.05 0.059074821 11981.966
0.23656166 -0.05 0.059016618 11993.747
0.23478094 -0.05 0.058956769 12006.945
0.23300984 -0.05 0.05889526 12019.126
0.23124831 -0.05 0.05883224 12030.932
0.22949632 -0.05 0.058767617 12044.441
0.22775381 -0.05 0.058701363 12057.05
0.22602071 -0.05 0.058633589 12069.615
0.22429701 -0.05 0.058564274 12082.336
0.22258262 -0.05 0.058493448 12094.856
0.22087753 -0.05 0.058421069 12108.672
0.21918166 -0.05 0.058347132 12121.593
0.21749499 -0.05 0.058271731 12134.499
0.21581745 -0.05 0.058194856 12147.509
0.21414901 -0.05 0.058116493 12160.854
0.21248962 -0.05 0.05803665 12174.238
0.21083923 -0.05 0.057955337 12187.839
0.20919779 -0.05 0.057872577 12201.238
0.20756526 -0.05 0.057788393 12214.86
0.20594158 -0.05 0.057702763 12228.837
0.20432673 -0.05 0.057615706 12242.441
0.20272065 -0.05 0.057527277 12255.836
0.20112329 -0.05 0.057437457 12269.83
0.19953461 -0.05 0.05734625 12283.794
0.19795458 -0.05 0.057253621 12298.668
0.19638314 -0.05 0.057159665 12311.647
0.19482023 -0.05 0.05706438 12326.586
0.19326584 -0.05 0.056967732 12340.276
0.19171991 -0.05 0.056869749 12355.141
0.19018239 -0.05 0.056770463 12368.739
0.18865324 -0.05 0.056669846 12384.367
0.18713243 -0.05 0.056567899 12398.365
0.18561991 -0.05 0.056464666 12413.764
0.18411563 -0.05 0.056360132 12428.12
0.18261956 -0.05 0.056254318 12443.408
0.18113166 -0.05 0.056147258 12457.222
0.17965186 -0.05 0.056038987 12472.375
0.17818015 -0.05 0.05592942 12487.895
0.17671648 -0.05 0.055818588 12503.108
0.1752608 -0.05 0.05570656 12517.801
0.17381309 -0.05 0.055593325 12533.268
0.17237329 -0.05 0.055478844 12548.708
0.17094135 -0.05 0.055363199 12563.591
0.16951726 -0.05 0.055246341 12580.171
0.16810097 -0.05 0.055128259 12595.529
0.16669242 -0.05 0.05500905 12611.004
0.16529159 -0.05 0.054888659 12627.287
0.16389844 -0.05 0.054767078 12643.164
0.16251292 -0.05 0.054644372 12658.734
0.161135 -0.05 0.054520532 12674.772
0.15976465 -0.05 0.054395554 12690.648
0.15840181 -0.05 0.054269449 12707.165
0.15704647 -0.05 0.054142171 12724.104
0.15569857 -0.05 0.05401378 12739.89
0.15435807 -0.05 0.053884336 12755.905
0.15302494 -0.05 0.053753791 12772.404
0.15169915 -0.05 0.053622161 12788.896
0.15038066 -0.05 0.053489407 12806.581
0.14906942 -0.05 0.053355551 12822.922
0.1477654 -0.05 0.053220679 12839.534
0.14646858 -0.05 0.053084715 12857.134
0.1451789 -0.05 0.052947683 12873.667
0.14389634 -0.05 0.052809659 12890.457
0.14262085 -0.05 0.05267058 12908.313
0.14135242 -0.05 0.052530426 12926.093
0.14009099 -0.05 0.052389231 12943.757
0.13883652 -0.05 0.052247036 12960.86
0.137589 -0.05 0.052103837 12978.604
0.13634838 -0.05 0.051959625 12995.676
0.13511461 -0.05 0.051814476 13012.996
0.1338877 -0.05 0.051668228 13033.125
0.13266759 -0.05 0.051520967 13049.053
0.13145422 -0.05 0.051372868 13066.543
0.13024759 -0.05 0.051223701 13086.429
0.12904768 -0.05 0.051073499 13104.466
0.12785442 -0.05 0.050922382 13122.654
0.12666779 -0.05 0.050770303 13141.29
0.12548777 -0.05 0.050617245 13160.214
0.12431431 -0.05 0.050463216 13178.568
0.12314738 -0.05 0.050308326 13195.818
0.12198694 -0.05 0.050152493 13216.265
0.12083299 -0.05 0.049995623 13236.025
0.11968547 -0.05 0.049837846 13254.835
0.11854435 -0.05 0.049679176 13274.063
0.11740961 -0.05 0.049519574 13293.637
0.11628122 -0.05 0.049359037 13313.379
0.11515913 -0.05 0.049197589 13332.859
0.11404333 -0.05 0.049035234 13352.49
0.11293377 -0.05 0.048871989 13371.732
0.11183042 -0.05 0.048707847 13391.533
0.11073327 -0.05 0.048542821 13411.201
0.10964229 -0.05 0.048376866 13432.612
0.10855744 -0.05 0.048209982 13452.898
0.10747868 -0.05 0.048042235 13473.538
0.106406 -0.05 0.04787359 13494.435
0.10533935 -0.05 0.047704062 13515.163
0.10427873 -0.05 0.047533647 13536.11
0.10322407 -0.05 0.047362394 13555.694
0.10217537 -0.05 0.04719032 13576.607
0.10113259 -0.05 0.047017348 13598.703
0.10009572 -0.05 0.046843455 13621.385
0.099064719 -0.05 0.046668685 13642.811
0.098039551 -0.05 0.046493118 13663.388
0.097020189 -0.05 0.046316733 13685.177
0.096006622 -0.05 0.046139442 13708.416
0.094998822 -0.05 0.045961241 13731.221
0.09399675 -0.05 0.045782217 13753.012
0.093000378 -0.05 0.045602371 13775.534
0.092009685 -0.05 0.045421665 13798.115
0.091024643 -0.05 0.045240119 13820.912
0.090045231 -0.05 0.045057701 13844.707
0.089071419 -0.05 0.044874428 13867.436
0.088103174 -0.05 0.044690349 13890.385
0.087140475 -0.05 0.044505439 13913.888
0.086183303 -0.05 0.044319663 13938.174
0.08523163 -0.05 0.044133032 13961.944
0.084285425 -0.05 0.043945577 13985.778
0.083344663 -0.05 0.043757308 14009.859
0.082409326 -0.05 0.043568191 14035.466
0.081479394 -0.05 0.04337819 14060.988
0.080554831 -0.05 0.043187382 14085.181
0.079635605 -0.05 0.042995792 14110.492
0.078721718 -0.05 0.042803304 14137.498
0.077813136 -0.05 0.042609969 14162.616
0.076909826 -0.05 0.042415818 14189.279
0.07601178 -0.05 0.042220793 14215.568
0.075118966 -0.05 0.042024933 14241.789
0.074231361 -0.05 0.041828237 14267.848
0.073348934 -0.05 0.04163074 14293.823
0.072471679 -0.05 0.041432371 14321.858
0.071599572 -0.05 0.041233139 14348.42
0.070732583 -0.05 0.041033074 14376.425
0.069870697 -0.05 0.040832148 14403.671
0.069013884 -0.05 0.040630397 14431.542
0.068162134 -0.05 0.040427777 14460.016
0.067315419 -0.05 0.040224307 14488.319
0.06647372 -0.05 0.040019973 14518.333
0.065637027 -0.05 0.039814748 14548.523
0.06480531 -0.05 0.039608654 14578.963
0.063978543 -0.05 0.039401719 14608.668
0.063156705 -0.05 0.039193946 14639.253
0.062339788 -0.05 0.038985286 14670.52
0.061527775 -0.05 0.038775725 14702.468
0.060720649 -0.05 0.038565255 14734.786
0.059918385 -0.05 0.038353894 14766.95
0.059120963 -0.05 0.03814165 14799.491
0.058328367 -0.05 0.037928504 14832.185
0.057540575 -0.05 0.037714473 14864.231
0.056757564 -0.05 0.037499567 14896.77
0.055979327 -0.05 0.037283751 14930.74
0.055205861 -0.05 0.03706696 14966.377
0.054437144 -0.05 0.036849222 15001.034
0.053673142 -0.05 0.036630582 15035.921
0.052913841 -0.05 0.036411033 15070.684
0.052159229 -0.05 0.036190552 15106.744
0.051409301 -0.05 0.035969101 15143.616
0.050664044 -0.05 0.035746666 15181.078
0.049923426 -0.05 0.035523297 15218.373
0.049187444 -0.05 0.035298949 15258.6
0.048456093 -0.05 0.035073588 15298.068
0.047729344 -0.05 0.034847258 15337.962
0.047007184 -0.05 0.034619944 15378.038
0.046289611 -0.05 0.034391604 15419.332
0.045576607 -0.05 0.034162252 15459.967
0.044868158 -0.05 0.033931882 15502.214
0.044164259 -0.05 0.033700465 15544.159
0.043464894 -0.05 0.033468005 15586.95
0.042770054 -0.05 0.033234487 15630.493
0.042079734 -0.05 0.032999885 15676.119
0.041393929 -0.05 0.032764174 15722.363
0.040712625 -0.05 0.032527361 15768.988
0.040035798 -0.05 0.032289471 15815.246
0.039363443 -0.05 0.032050489 15863.168
0.038695563 -0.05 0.031810365 15912.453
0.038032168 -0.05 0.031569045 15963.112
0.037373226 -0.05 0.031326581 16012.483
0.036718733 -0.05 0.03108296 16064.044
0.036068678 -0.05 0.030838173 16115.188
0.035423063 -0.05 0.030592193 16170.596
0.034781926 -0.05 0.030344893 16226.193
0.034145213 -0.05 0.030096392 16279.984
0.033512917 -0.05 0.029846677 16336.406
0.032885063 -0.05 0.029595666 16394.176
0.032261651 -0.05 0.029343341 16454.352
0.031642677 -0.05 0.029089693 16514.461
0.031028119 -0.05 0.028834753 16574.915
0.030417982 -0.05 0.028578493 16637.107
0.029812303 -0.05 0.028320809 16701.743
0.029211079 -0.05 0.0280617 16765.392
0.028614285 -0.05 0.027801211 16830.01
0.028021925 -0.05 0.027539318 16896.136
0.027434034 -0.05 0.027275938 16965.609
0.026850619 -0.05 0.027011044 17034.756
0.026271654 -0.05 0.026744689 17105.591
0.025697179 -0.05 0.02647678 17179.968
0.025127212 -0.05 0.026207275 17254.502
0.024561729 -0.05 0.025936225 17329.825
0.024000753 -0.05 0.025663583 17408.241
0.023444336 -0.05 0.025389243 17488.79
0.022892447 -0.05 0.025113275 17569.002
0.022345135 -0.05 0.024835581 17655.222
0.02180243 -0.05 0.024556113 17738.653
0.021264293 -0.05 0.024274957 17824.722
0.0207308 -0.05 0.023991978 17914.111
0.020201992 -0.05 0.023707108 18005.008
0.019677842 -0.05 0.023420417 18095.475
0.019158403 -0.05 0.023131824 18190.482
0.018643727 -0.05 0.022841258 18285.375
0.018133826 -0.05 0.022548716 18383.466
0.017628739 -0.05 0.022254151 18482.174
0.017128471 -0.05 0.021957583 18584.514
0.016633127 -0.05 0.021658866 18693.341
0.016142724 -0.05 0.021358 18803.478
0.015657283 -0.05 0.021054987 18922.152
0.015176888 -0.05 0.020749728 19047.008
0.014701579 -0.05 0.020442196 19179.428
0.014231398 -0.05 0.020132367 19317.888
0.013766434 -0.05 0.019820157 19464.118
0.013306742 -0.05 0.019505528 19612.848
0.012852374 -0.05 0.019188457 19767.209
0.012403439 -0.05 0.018868841 19924.084
0.01195997 -0.05 0.018546687 20083.483
0.011522076 -0.05 0.018221915 20247.583
0.011089809 -0.05 0.017894514 20414.322
0.0106633 -0.05 0.017564386 20589.785
0.010242659 -0.05 0.01723145 20766.506
0.009827894 -0.05 0.016895788 20949.402
0.0094192167 -0.05 0.016557218 21142.284
0.0090167438 -0.05 0.016215673 21337.651
0.0086204858 -0.05 0.015871238 21539.153
0.0082306648 -0.05 0.015523765 21752.286
0.0078474301 -0.05 0.015173187 21969.91
0.00747084 -0.05 0.014819531 22194.219
0.0071010571 -0.05 0.014462741 22426.94
0.0067383047 -0.05 0.014102727 22670.905
0.0063827544 -0.05 0.013739427 22920.856
0.0060345067 -0.05 0.013372862 23174.859
0.0056937565 -0.05 0.013003011 23433.751
0.0053606882 -0.05 0.012629837 23698.823
0.0050354824 -0.05 0.012253323 23975.932
0.0047183926 -0.05 0.01187344 24265.213
0.0044096379 -0.05 0.011490161 24564.041
0.0041094132 -0.05 0.011103483 24872.368
0.0038179536 -0.05 0.010713443 25189.646
0.0035354728 -0.05 0.01032007 25515.539
0.0032621919 -0.05 0.0099233916 25850.806
0.0029983702 -0.05 0.0095234712 26194.673
0.0027442429 -0.05 0.0091203468 26545.997
0.0025000604 -0.05 0.0087141009 26904.207
0.0022660754 -0.05 0.0083048554 27269.322
0.0020425146 -0.05 0.0078926699 27641.407
0.0018296563 -0.05 0.0074776735 28019.59
0.0016277487 -0.05 0.0070600557 28401.52
0.0014369745 -0.05 0.006639968 28786.027
0.0012575291 -0.05 0.0062175973 29172.477
0.0010896146 -0.05 0.0057931737 29561.588
0.00093341056 -0.05 0.0053669215 29949.794
0.00078906403 -0.05 0.0049390744 30335.204
0.00065670868 -0.05 0.0045099018 30716.702
0.00053653171 -0.05 0.0040796665 31094.14
0.00042862038 -0.05 0.003648665 31462.726
0.00033294635 -0.05 0.003217232 31821.325
0.00024951873 -0.05 0.002785685 32169.87
0.00017832254 -0.05 0.0023543467 32506.671
0.00011930806 -0.05 0.0019235435 32829.373
7.2389968e-05 -0.05 0.0014936046 33136.627
3.7448892e-05 -0.05 0.0010648563 33427.861
1.4332163e-05 -0.05 0.0006376208 33702.854
2.8544133e-06 -0.05 0.00021221054 33958.378
0.99884037 -0.05 0.00016828408 26504.966
0.99652103 -0.05 0.00050440213 26498.941
0.99420154 -0.05 0.0008395204 26466.993
0.99188191 -0.05 0.0011736208 26442.152
0.98956214 -0.05 0.0015067636 26414.359
0.98724223 -0.05 0.001838948 26387.696
0.9849222 -0.05 0.0021701636 26360.694
0.98260202 -0.05 0.0025004302 26333.897
0.98028169 -0.05 0.0028297328 26307.126
0.97796124 -0.05 0.0031580577 26280.405
0.97564065 -0.05 0.0034854377 26253.721
0.97331994 -0.05 0.0038118591 26227.071
0.97099908 -0.05 0.0041373159 26200.448
0.96867809 -0.05 0.0044618578 26173.815
0.96635696 -0.05 0.0047854478 26147.251
0.96403572 -0.05 0.0051081172 26120.618
0.96171435 -0.05 0.0054299032 26094.041
0.95939284 -0.05 0.0057507069 26067.492
0.95707121 -0.05 0.0060705875 26040.913
0.95474946 -0.05 0.0063895914 26014.359
0.95242757 -0.05 0.0067076389 25987.866
0.95010556 -0.05 0.0070248024 25961.286
0.94778344 -0.05 0.0073411105 25934.783
0.94546118 -0.05 0.0076564368 25908.339
0.94313881 -0.05 0.007970866 25881.846
0.94081631 -0.05 0.0082844406 25855.407
0.93849369 -0.05 0.0085971026 25829.006
0.93617096 -0.05 0.0089088655 25802.634
0.9338481 -0.05 0.0092197817 25776.246
0.93152513 -0.05 0.0095298292 25749.94
0.92920205 -0.05 0.00983897 25723.66
0.92687884 -0.05 0.010147248 25697.413
0.92455553 -0.05 0.01045465 25671.224
0.92223209 -0.05 0.010761189 25645.041
0.91990855 -0.05 0.011066875 25618.945
0.91758488 -0.05 0.011371653 25592.939
0.91526111 -0.05 0.011675608 25566.865
0.91293723 -0.05 0.011978761 25540.904
0.91061324 -0.05 0.012281 25515.057
0.90828913 -0.05 0.012582372 25489.2
0.90596492 -0.05 0.012882964 25463.356
0.90364059 -0.05 0.013182677 25437.727
0.90131615 -0.05 0.013481494 25412.081
0.89899162 -0.05 0.013779572 25386.376
0.89666698 -0.05 0.014076842 25360.873
0.89434222 -0.05 0.014373142 25335.533
0.89201737 -0.05 0.014668681 25309.979
0.88969241 -0.05 0.014963453 25284.717
0.88736734 -0.05 0.0152573 25259.504
0.88504217 -0.05 0.015550344 25234.295
0.8827169 -0.05 0.015842646 25209.096
0.88039152 -0.05 0.016134071 25184.176
0.87806604 -0.05 0.016424635 25159.171
0.87574046 -0.05 0.016714466 25134.251
0.87341478 -0.05 0.017003468 25109.461
0.871089 -0.05 0.017291665 25084.674
0.86876312 -0.05 0.017579058 25060.035
0.86643714 -0.05 0.017865646 25035.388
0.86411107 -0.05 0.018151445 25010.891
0.86178489 -0.05 0.018436407 24986.464
0.85945862 -0.05 0.018720606 24962.012
0.85713225 -0.05 0.019004019 24937.74
0.85480578 -0.05 0.019286574 24913.582
0.85247921 -0.05 0.019568355 24889.387
0.85015256 -0.05 0.019849418 24865.252
0.84782581 -0.05 0.020129657 24841.314
0.84549896 -0.05 0.020409081 24817.355
0.84317202 -0.05 0.020687756 24793.452
0.84084499 -0.05 0.020965643 24769.67
0.83851786 -0.05 0.021242672 24746.078
0.83619063 -0.05 0.021518954 24722.332
0.83386332 -0.05 0.021794529 24698.755
0.83153592 -0.05 0.022069294 24675.254
0.82920841 -0.05 0.022343258 24651.849
0.82688083 -0.05 0.02261648 24628.389
0.82455316 -0.05 0.022888925 24605.127
0.82222538 -0.05 0.023160547 24581.906
0.81989751 -0.05 0.023431389 24558.775
0.81756956 -0.05 0.023701494 24535.611
0.81524153 -0.05 0.023970846 24512.596
0.8129134 -0.05 0.024239417 24489.58
0.81058518 -0.05 0.02450723 24466.659
0.80825687 -0.05 0.024774258 24443.8
0.80592849 -0.05 0.02504053 24420.979
0.8036 -0.05 0.025306023 24398.261
0.80127144 -0.05 0.025570774 24375.47
0.79894279 -0.05 0.025834763 24352.887
0.79661404 -0.05 0.026097924 24330.318
0.79428522 -0.05 0.026360374 24307.692
0.79195631 -0.05 0.026622048 24285.293
0.78962731 -0.05 0.026882938 24262.784
0.78729823 -0.05 0.027143126 24240.361
0.78496906 -0.05 0.027402517 24218.045
0.78263981 -0.05 0.02766117 24195.599
0.78031048 -0.05 0.027919081 24173.351
0.77798106 -0.05 0.028176144 24151.166
0.77565155 -0.05 0.028432494 24128.829
0.77332196 -0.05 0.028688107 24106.691
0.77099228 -0.05 0.028942908 24084.524
0.76866253 -0.05 0.029196968 24062.36
0.7663327 -0.05 0.029450285 24040.214
0.76400278 -0.05 0.029702803 24018.168
0.76167277 -0.05 0.029954568 23996.016
0.75934268 -0.05 0.030205573 23974.017
0.75701251 -0.05 0.030455803 23951.908
0.75468227 -0.05 0.030705313 23929.834
0.75235193 -0.05 0.030954045 23907.772
0.75002152 -0.05 0.031202018 23885.676
0.74769103 -0.05 0.031449207 23863.654
0.74536045 -0.05 0.031695625 23841.543
0.7430298 -0.05 0.031941289 23819.468
0.74069906 -0.05 0.032186181 23797.329
0.73836824 -0.05 0.032430305 23775.22
0.73603734 -0.05 0.032673645 23753.082
0.73370637 -0.05 0.032916233 23730.854
0.73137531 -0.05 0.033158092 23708.554
0.72904417 -0.05 0.033399148 23686.339
0.72671295 -0.05 0.033639377 23664.04
0.72438166 -0.05 0.03387888 23641.581
0.72205028 -0.05 0.034117645 23619.118
0.71971882 -0.05 0.034355552 23596.708
0.71738729 -0.05 0.034592685 23574.038
0.71505567 -0.05 0.034829099 23551.377
0.71272397 -0.05 0.035064674 23528.67
0.71039219 -0.05 0.035299486 23505.746
0.70806035 -0.05 0.035533544 23482.815
0.70572841 -0.05 0.035766778 23459.753
0.70339641 -0.05 0.035999269 23436.495
0.70106433 -0.05 0.03623098 23413.176
0.69873216 -0.05 0.036461892 23389.656
0.69639992 -0.05 0.036691978 23366.079
0.69406759 -0.05 0.036921269 23342.226
0.69173519 -0.05 0.03714974 23318.378
0.68940271 -0.05 0.037377398 23294.192
0.68707015 -0.05 0.037604327 23269.836
0.68473752 -0.05 0.03783047 23245.241
0.68240481 -0.05 0.038055756 23220.54
0.68007201 -0.05 0.038280206 23195.519
0.67773914 -0.05 0.038503859 23170.315
0.67540619 -0.05 0.03872673 23144.752
0.67307317 -0.05 0.038948784 23119.027
0.67074007 -0.05 0.039170028 23092.884
0.66840689 -0.05 0.039390456 23066.563
0.66607364 -0.05 0.039610024 23039.843
0.6637403 -0.05 0.039828774 23012.853
0.66140688 -0.05 0.040046679 22985.477
0.6590734 -0.05 0.040263799 22957.686
0.65673983 -0.05 0.040480084 22929.58
0.65440618 -0.05 0.040695489 22901.05
0.65207246 -0.05 0.040910082 22872.067
0.64973866 -0.05 0.041123838 22842.676
0.64740478 -0.05 0.04133674 22812.79
0.64507083 -0.05 0.041548788 22782.462
0.6427368 -0.05 0.04175995 22751.634
0.64040268 -0.05 0.041970278 22720.252
0.6380685 -0.05 0.042179753 22688.369
0.63573424 -0.05 0.042388355 22655.895
0.63339989 -0.05 0.042596094 22622.869
0.63106547 -0.05 0.042802945 22589.23
0.62873097 -0.05 0.04300894 22554.954
0.6263964 -0.05 0.043214055 22520.06
0.62406174 -0.05 0.043418269 22484.494
0.62172702 -0.05 0.043621601 22448.248
0.61939221 -0.05 0.043824069 22411.271
0.61705733 -0.05 0.044025645 22373.599
0.61472237 -0.05 0.044226271 22335.195
0.61238733 -0.05 0.044426006 22295.992
0.61005222 -0.05 0.04462488 22256.006
0.60771702 -0.05 0.044822825 22215.215
0.60538174 -0.05 0.045019806 22173.622
0.6030464 -0.05 0.045215861 22131.189
0.60071097 -0.05 0.045411024 22087.905
0.59837546 -0.05 0.045605254 22043.764
0.59603988 -0.05 0.045798556 21998.721
0.59370423 -0.05 0.045990938 21952.789
0.59136849 -0.05 0.046182352 21905.946
0.58903267 -0.05 0.046372791 21858.182
0.58669678 -0.05 0.046562266 21809.476
0.5843608 -0.05 0.046750814 21759.802
0.58202475 -0.05 0.046938396 21709.2
0.57968862 -0.05 0.047124972 21657.656
0.57735242 -0.05 0.047310579 21605.175
0.57501614 -0.05 0.047495251 21551.693
0.57267978 -0.05 0.047678924 21497.225
0.57034334 -0.05 0.04786155 21441.802
0.56800683 -0.05 0.048043188 21385.398
0.56567024 -0.05 0.048223861 21328.002
0.56333356 -0.05 0.048403536 21269.68
0.56099681 -0.05 0.048582153 21210.385
0.55865998 -0.05 0.04875972 21150.075
0.55632308 -0.05 0.048936314 21088.855
0.55398609 -0.05 0.049111879 21026.789
0.55164903 -0.05 0.049286359 20963.767
0.54931189 -0.05 0.049459794 20899.855
0.54697467 -0.05 0.049632163 20835.038
0.54463737 -0.05 0.049803468 20769.345
0.5423 -0.05 0.049973719 20702.791
0.53996254 -0.05 0.050142913 20635.403
0.53762502 -0.05 0.050311035 20567.2
0.53528742 -0.05 0.050478054 20498.21
0.53294973 -0.05 0.050643972 20428.449
0.53061196 -0.05 0.050808824 20357.951
0.52827412 -0.05 0.050972558 20286.749
0.5259362 -0.05 0.051135143 20214.855
0.5235982 -0.05 0.051296612 20142.317
0.52126012 -0.05 0.051456922 20069.169
0.51892198 -0.05 0.051616121 19995.429
0.51658374 -0.05 0.051774162 19921.176
0.51424543 -0.05 0.051931036 19846.391
0.51190704 -0.05 0.05208678 19771.173
0.50956857 -0.05 0.052241321 19695.511
0.50723003 -0.05 0.052394685 19619.479
0.50489141 -0.05 0.052546885 19543.109
0.50255271 -0.05 0.05269791 19466.458
0.50021394 -0.05 0.052847701 19389.582
0.49787509 -0.05 0.052996281 19312.537
0.49553616 -0.05 0.053143654 19235.399
0.49319715 -0.05 0.053289801 19158.195
0.49085807 -0.05 0.053434697 19080.98
0.48851891 -0.05 0.05357832 19003.75
0.48617967 -0.05 0.053720679 18926.52
0.48384036 -0.05 0.053861795 18849.277
0.48150096 -0.05 0.054001669 18772.041
0.4791615 -0.05 0.054140241 18694.833
0.47682195 -0.05 0.054277501 18617.729
0.47448234 -0.05 0.054413462 18540.819
0.47214264 -0.05 0.054548109 18464.217
0.46980287 -0.05 0.054681459 18387.989
0.46746302 -0.05 0.054813494 18312.154
0.4651231 -0.05 0.054944177 18236.578
0.4627831 -0.05 0.055073496 18161.003
0.46044304 -0.05 0.055201437 18084.888
0.45810288 -0.05 0.055328007 18007.472
0.45576266 -0.05 0.055453195 17927.75
0.45342237 -0.05 0.055576996 17844.54
0.451082 -0.05 0.05569938 17756.488
0.44874156 -0.05 0.055820362 17662.196
0.44640104 -0.05 0.055939944 17560.08
0.44406046 -0.05 0.056058044 17448.546
0.4417198 -0.05 0.056174717 17322.611
0.43937906 -0.05 0.05628996 17175.985
0.43703826 -0.05 0.056403696 17003.215
0.43469738 -0.05 0.056515954 16792.75
0.43235643 -0.05 0.056626691 16535.656
0.43001541 -0.05 0.056735938 16223.677
0.42767432 -0.05 0.056843696 15824.941
0.42533317 -0.05 0.056949929 15283.856
0.42299193 -0.05 0.057054582 14586.726
0.42065064 -0.05 0.05715767 13798.981
0.41830927 -0.05 0.057259222 13043.524
0.41596783 -0.05 0.057359191 12428.458
0.41362633 -0.05 0.057457551 11992.299
0.41128476 -0.05 0.057554292 11711.803
0.40894313 -0.05 0.057649427 11543.939
0.40660142 -0.05 0.057742965 11448.216
0.40425966 -0.05 0.057834838 11397.127
0.40191783 -0.05 0.057925023 11371.793
0.39957593 -0.05 0.058013541 11360.256
0.39723398 -0.05 0.058100378 11355.589
0.39489196 -0.05 0.058185525 11354.457
0.39254988 -0.05 0.058268918 11354.978
0.39020774 -0.05 0.058350591 11357.1
0.38786553 -0.05 0.058430541 11360.475
0.38552326 -0.05 0.058508715 11364.805
0.38318094 -0.05 0.058585094 11369.466
0.38083857 -0.05 0.058659688 11374.311
0.37849613 -0.05 0.058732482 11379.35
0.37615364 -0.05 0.058803471 11384.472
0.37381109 -0.05 0.058872605 11390.261
0.37146848 -0.05 0.058939856 11395.917
0.36912583 -0.05 0.059005237 11401.785
0.36678312 -0.05 0.059068742 11407.536
0.36444037 -0.05 0.059130353 11413.62
0.36209757 -0.05 0.059190049 11419.618
0.35975471 -0.05 0.059247824 11425.968
0.35741181 -0.05 0.059303603 11432.827
0.35506885 -0.05 0.059357402 11439.221
0.35272586 -0.05 0.059409225 11446.097
0.35038283 -0.05 0.059459045 11452.696
0.34803975 -0.05 0.059506859 11459.797
0.34569662 -0.05 0.059552581 11467.324
0.34335347 -0.05 0.059596249 11474.213
0.34101027 -0.05 0.059637862 11481.869
0.33866703 -0.05 0.059677333 11489.606
0.33632377 -0.05 0.059714702 11497.214
0.33398046 -0.05 0.059749909 11505.603
0.33163713 -0.05 0.059782951 11513.262
0.32929376 -0.05 0.059813858 11521.474
0.32695037 -0.05 0.059842535 11530.11
0.32460696 -0.05 0.059868968 11538.748
0.32226351 -0.05 0.059893141 11547.666
0.31992004 -0.05 0.059915067 11556.153
0.31757656 -0.05 0.059934727 11565.276
0.31523306 -0.05 0.059952066 11574.418
0.31288954 -0.05 0.059967055 11584.031
0.31054601 -0.05 0.059979678 11593.33
0.30820247 -0.05 0.059989926 11602.926
0.30585891 -0.05 0.059997793 11612.288
0.30351535 -0.05 0.060003209 11622.907
0.30117178 -0.05 0.060006157 11633.619
