# p  FACE_DATA 150
# x y z  p
0.29576437 -0.05 0.059999702 11812.204
0.28738431 -0.05 0.059968924 11845.608
0.27918472 -0.05 0.059906283 11885.102
0.27116186 -0.05 0.05981265 11925.037
0.26331203 -0.05 0.059689027 11966.721
0.25563166 -0.05 0.059536266 12010.106
0.24811723 -0.05 0.059355154 12055
0.24076528 -0.05 0.059146558 12101.046
0.23357246 -0.05 0.058911358 12148.366
0.22653546 -0.05 0.058650342 12197.095
0.21965107 -0.05 0.058364202 12247.166
0.21291613 -0.05 0.058053757 12298.106
0.20632755 -0.05 0.057719714 12350.509
0.19988233 -0.05 0.057362758 12402.955
0.19357748 -0.05 0.056983702 12456.183
0.18741014 -0.05 0.056583118 12510.151
0.18137746 -0.05 0.056161624 12564.924
0.17547671 -0.05 0.055719844 12622.163
0.16970518 -0.05 0.055258363 12681.87
0.1640602 -0.05 0.05477783 12742.919
0.15853921 -0.05 0.054278745 12805.985
0.15313967 -0.05 0.053761636 12870.294
0.14785914 -0.05 0.053226963 12936.78
0.14269518 -0.05 0.052675259 13003.757
0.13764543 -0.05 0.052106992 13072.78
0.13270762 -0.05 0.051522466 13143.06
0.12787949 -0.05 0.050922169 13214.466
0.12315884 -0.05 0.050306449 13287.854
0.11854353 -0.05 0.049675628 13362.47
0.11403148 -0.05 0.04903008 13438.041
0.10962066 -0.05 0.04837006 13513.101
0.10530908 -0.05 0.047695796 13587.873
0.10109483 -0.05 0.047007509 13666.337
0.096976017 -0.05 0.046305459 13749.982
0.092950808 -0.05 0.04558984 13836.397
0.08901745 -0.05 0.044860715 13924.241
0.085174232 -0.05 0.044118143 14012.857
0.081419479 -0.05 0.043362242 14102.754
0.077751578 -0.05 0.042593081 14195.855
0.074168981 -0.05 0.041810614 14294.096
0.070670198 -0.05 0.041014781 14397.324
0.06725379 -0.05 0.040205492 14505.311
0.06391837 -0.05 0.039382651 14623.625
0.060662655 -0.05 0.038545988 14756.366
0.057485397 -0.05 0.037695273 14899.647
0.054385413 -0.05 0.036830261 15051.09
0.051361621 -0.05 0.035950545 15208.984
0.048412992 -0.05 0.035055749 15377.149
0.045538629 -0.05 0.034145316 15557.717
0.042737712 -0.05 0.03321865 15745.61
0.040009498 -0.05 0.032275148 15938.595
0.037353406 -0.05 0.031314032 16142.775
0.034768993 -0.05 0.030334375 16360.849
0.032255944 -0.05 0.02933521 16593.894
0.029814132 -0.05 0.028315426 16840.278
0.027443661 -0.05 0.027273729 17102.31
0.025144824 -0.05 0.026208776 17385.153
0.022918276 -0.05 0.02511886 17696.099
0.020764984 -0.05 0.02400217 18043.938
0.018686283 -0.05 0.022856725 18443.297
0.016684024 -0.05 0.021680228 18896.656
0.01476059 -0.05 0.020470219 19404.543
0.012919252 -0.05 0.019223865 19979.687
0.011164249 -0.05 0.017938283 20625.888
0.0095007128 -0.05 0.016610449 21354.001
0.0079348886 -0.05 0.015236971 22191.109
0.006474941 -0.05 0.013814774 23154.667
0.0051312596 -0.05 0.012341958 24248.266
0.0039150106 -0.05 0.010816511 25472.954
0.0028396284 -0.05 0.009238845 26815.82
0.0019206554 -0.05 0.007613688 28245.372
0.0011720639 -0.05 0.0059475212 29754.254
0.0006061561 -0.05 0.004252283 31260.389
0.00023063831 -0.05 0.0025452878 32611.816
4.5460517e-05 -0.05 0.0008455405 33727.192
0.99536103 -0.05 0.00067021835 26486.689
0.98608198 -0.05 0.0020028877 26405.926
0.97680071 -0.05 0.0033200849 26294.271
0.96751731 -0.05 0.0046220425 26188.183
0.95823181 -0.05 0.0059090613 26079.15
0.94894428 -0.05 0.0071813587 25970.494
0.93965479 -0.05 0.0084391859 25861.582
0.93036339 -0.05 0.0096828487 25752.847
0.92107012 -0.05 0.010912491 25644.592
0.91177504 -0.05 0.012128333 25536.79
0.90247819 -0.05 0.013330648 25429.757
0.89317963 -0.05 0.014519511 25323.579
0.88387936 -0.05 0.015695054 25218.483
0.87457746 -0.05 0.016857552 25114.5
0.86527395 -0.05 0.01800713 25011.771
0.85596885 -0.05 0.019143875 24910.221
0.84666223 -0.05 0.020267984 24809.842
0.8373541 -0.05 0.021379502 24711.012
0.82804448 -0.05 0.022478516 24613.487
0.8187334 -0.05 0.023565119 24517.424
0.8094209 -0.05 0.024639397 24422.265
0.80010698 -0.05 0.025701394 24328.357
0.79079168 -0.05 0.026751168 24235.329
0.78147501 -0.05 0.027788748 24143.576
0.77215699 -0.05 0.028814138 24052.792
0.76283764 -0.05 0.029827333 23963.127
0.75351698 -0.05 0.030828337 23874.081
0.74419501 -0.05 0.03181713 23785.248
0.73487174 -0.05 0.032793639 23696.52
0.72554719 -0.05 0.033757832 23607.688
0.71622136 -0.05 0.034709535 23519.078
0.70689427 -0.05 0.03564879 23429.731
0.69756592 -0.05 0.036575541 23339.913
0.68823633 -0.05 0.037489546 23248.915
0.67890547 -0.05 0.03839067 23156.832
0.66957337 -0.05 0.039278803 23063.105
0.66024004 -0.05 0.040153805 22967.287
0.65090546 -0.05 0.04101549 22869.003
0.64156964 -0.05 0.041863622 22767.358
0.63223258 -0.05 0.042697993 22662.332
0.62289428 -0.05 0.043518409 22552.36
0.61355475 -0.05 0.04432459 22437.374
0.60421397 -0.05 0.045116235 22315.625
0.59487195 -0.05 0.045893096 22186.717
0.58552869 -0.05 0.046654869 22047.612
0.57618419 -0.05 0.047401205 21895.571
0.56683843 -0.05 0.048131797 21729.398
0.55749143 -0.05 0.04884624 21547.545
0.54814318 -0.05 0.049544113 21351.941
0.53879368 -0.05 0.050225066 21141.35
0.52944294 -0.05 0.050888717 20915.979
0.52009095 -0.05 0.051534504 20670.77
0.51073771 -0.05 0.052161963 20404.559
0.50138323 -0.05 0.052770675 20115.538
0.49202751 -0.05 0.05336005 19809.977
0.48267056 -0.05 0.053929509 19500.434
0.47331239 -0.05 0.054478508 19191.336
0.46395301 -0.05 0.055006444 18882.686
0.45459243 -0.05 0.05551264 18563.092
0.44523065 -0.05 0.055996468 18170.213
0.43586773 -0.05 0.056457197 16953.013
0.42650365 -0.05 0.05689408 14875.793
0.41713847 -0.05 0.057306403 13158.891
0.4077722 -0.05 0.057693321 12279.408
0.39840488 -0.05 0.058053993 11885.535
0.38903656 -0.05 0.058387504 11721.457
0.37966728 -0.05 0.058692934 11651.002
0.3702971 -0.05 0.058969274 11627.241
0.36092607 -0.05 0.059215505 11621.289
0.35155429 -0.05 0.059430617 11628.45
0.34218182 -0.05 0.059613395 11647.412
0.33280875 -0.05 0.059762648 11672.721
0.3234352 -0.05 0.059877122 11702.707
0.31406128 -0.05 0.059955444 11735.645
0.30468712 -0.05 0.059996221 11772.261
