/*--------------------------------*- C++ -*----------------------------------*\
| =========                 |                                                 |
| \\      /  F ield         | OpenFOAM: The Open Source CFD Toolbox           |
|  \\    /   O peration     | Version:  2306                                  |
|   \\  /    A nd           | Website:  www.openfoam.com                      |
|    \\/     M anipulation  |                                                 |
\*---------------------------------------------------------------------------*/
FoamFile
{
    version     2.0;
    format      ascii;
    arch        "LSB;label=32;scalar=64";
    class       volScalarField;
    location    "275";
    object      div(phi);
}
// * * * * * * * * * * * * * * * * * * * * * * * * * * * * * * * * * * * * * //

dimensions      [0 0 -1 0 0 0 0];

internalField   nonuniform List<scalar> 
1340
(
7.98197e-06
1.09431e-06
-2.93865e-07
-2.59026e-07
-9.02129e-07
-6.42056e-07
-1.0522e-06
-6.79347e-07
-9.43953e-07
-6.12101e-07
-1.04052e-06
-5.69281e-07
-1.20088e-06
-2.80444e-07
-7.76084e-07
1.44623e-06
2.37242e-06
2.63721e-06
2.47235e-06
1.69902e-06
1.55252e-06
-2.30304e-06
3.92145e-06
1.42442e-06
1.91741e-06
2.02923e-06
3.26576e-06
3.18939e-06
6.10035e-06
1.11184e-06
7.81203e-08
-8.95213e-08
-4.25995e-07
-6.02791e-07
-7.93588e-07
-1.07117e-06
-9.40055e-07
-1.10166e-06
-8.44373e-07
-1.07254e-06
-7.63471e-07
-1.04318e-06
-4.52222e-07
-5.41158e-07
1.04573e-06
1.71826e-06
2.38467e-06
2.2006e-06
2.0938e-06
1.44135e-06
-1.65429e-06
3.11178e-06
1.24071e-06
1.94765e-06
1.96556e-06
3.70711e-06
3.8552e-06
1.31096e-06
-2.79883e-07
-3.73963e-07
-2.10584e-07
-3.82211e-07
-3.56151e-07
-8.31263e-07
-7.41973e-07
-9.83057e-07
-7.35336e-07
-8.53914e-07
-7.55156e-07
-7.82508e-07
-8.23075e-07
-5.69595e-07
-4.54034e-07
7.90155e-07
1.66528e-06
2.22405e-06
2.00097e-06
1.97063e-06
1.26252e-06
-1.51953e-06
3.13489e-06
1.23277e-06
1.84679e-06
1.70329e-06
2.70709e-06
2.28644e-06
1.87931e-06
-5.5347e-07
-6.68304e-07
-3.59292e-07
-3.50603e-07
-1.6534e-07
-4.33282e-07
-7.43994e-07
-9.36086e-07
-1.13206e-06
-9.69773e-07
-1.03791e-06
-8.38286e-07
-9.7249e-07
-7.29392e-07
-7.02722e-07
-2.67891e-07
3.88758e-07
1.26363e-06
1.70244e-06
2.10623e-06
2.07643e-06
1.65404e-06
-8.8837e-07
2.45856e-06
1.31724e-06
1.94734e-06
2.03707e-06
3.68503e-06
3.79282e-06
1.92082e-07
-5.61953e-07
-8.19491e-07
-6.36348e-07
-2.31086e-07
-1.33947e-07
-4.24559e-07
-6.05361e-07
-1.05432e-06
-9.08393e-07
-1.07062e-06
-7.55329e-07
-9.13544e-07
-6.96168e-07
-8.40825e-07
-5.28537e-07
-5.06409e-07
4.02679e-07
8.80056e-07
1.75832e-06
1.76705e-06
2.05578e-06
1.28497e-06
-5.21614e-07
1.8943e-06
1.22278e-06
1.44321e-06
1.57174e-06
1.97812e-06
1.67245e-06
2.01697e-06
-5.4256e-08
-8.97604e-07
-7.67265e-07
-5.26716e-07
-1.33221e-07
-1.25906e-07
-2.85422e-07
-7.23111e-07
-9.90866e-07
-1.14333e-06
-1.06705e-06
-9.22489e-07
-9.46046e-07
-8.25927e-07
-7.90368e-07
-5.96258e-07
-3.5093e-07
1.00958e-07
7.3291e-07
1.19206e-06
1.83698e-06
1.94033e-06
1.89496e-06
-3.10955e-07
1.99396e-06
1.47935e-06
1.85437e-06
1.94503e-06
3.27731e-06
3.35219e-06
-6.56968e-07
1.60146e-09
-4.18143e-07
-8.14409e-07
-3.8322e-07
-1.31526e-07
-2.29391e-08
-2.50596e-07
-7.19444e-07
-9.36221e-07
-1.16625e-06
-9.27064e-07
-9.64398e-07
-7.52822e-07
-8.88495e-07
-6.03878e-07
-7.47428e-07
-2.66478e-07
-2.33736e-07
7.13604e-07
7.68278e-07
1.83893e-06
1.48185e-06
1.82541e-06
-5.45999e-07
1.63539e-06
8.81158e-07
1.33573e-06
1.10045e-06
1.54139e-06
8.73006e-07
1.28879e-06
-1.12218e-07
-4.88608e-07
-6.1907e-07
-2.69682e-07
-7.30678e-09
5.27447e-08
-2.76697e-07
-6.18232e-07
-1.05193e-06
-1.05463e-06
-1.01592e-06
-8.79149e-07
-9.03807e-07
-7.94909e-07
-7.60582e-07
-5.35811e-07
-4.19909e-07
-5.99675e-08
3.16227e-07
7.78666e-07
1.37199e-06
1.68544e-06
1.77281e-06
1.19427e-07
1.73051e-06
1.81083e-06
1.93354e-06
1.93997e-06
2.90354e-06
2.97777e-06
3.37583e-06
-1.56192e-06
-8.91514e-08
-2.15686e-07
-2.16647e-07
-2.56295e-07
8.74516e-08
6.8909e-08
-2.04939e-07
-6.30349e-07
-9.63817e-07
-9.94477e-07
-9.52721e-07
-8.05874e-07
-8.83154e-07
-7.06301e-07
-7.76481e-07
-4.86569e-07
-5.53607e-07
-1.15423e-07
3.29777e-09
6.48839e-07
9.12527e-07
1.49619e-06
1.23057e-06
-6.79161e-08
9.42215e-07
1.22788e-06
9.20092e-07
1.00459e-06
9.05044e-07
5.03235e-07
1.20615e-06
-2.69601e-07
-5.83962e-08
-1.07157e-06
1.13201e-07
1.79817e-07
9.18713e-08
-1.66237e-07
-6.59123e-07
-8.5531e-07
-9.67126e-07
-8.01866e-07
-8.72904e-07
-7.65124e-07
-8.50024e-07
-6.06771e-07
-6.09173e-07
-3.33632e-07
-2.8019e-07
1.47376e-07
3.18432e-07
9.83661e-07
1.13149e-06
1.48887e-06
2.56859e-07
1.63695e-06
1.99695e-06
2.18498e-06
2.05976e-06
2.63672e-06
2.7578e-06
4.34559e-07
-1.09719e-06
-1.55904e-07
8.97606e-08
3.22137e-07
1.89726e-07
-1.95916e-07
-5.36645e-07
-8.18635e-07
-7.96876e-07
-7.81733e-07
-7.63836e-07
-7.76706e-07
-7.64153e-07
-6.32786e-07
-5.79075e-07
-4.16688e-07
-3.83018e-07
-4.71659e-08
4.6662e-08
6.50308e-07
6.55415e-07
1.01885e-06
-2.53743e-07
8.35637e-07
9.6859e-07
1.15166e-06
6.24944e-07
6.94107e-07
1.00107e-07
-2.76152e-08
-7.29642e-07
3.43642e-07
4.94331e-07
2.16095e-07
-1.81437e-07
-4.95987e-07
-7.15343e-07
-6.67248e-07
-7.26948e-07
-6.70117e-07
-8.30957e-07
-6.57339e-07
-6.88407e-07
-4.40846e-07
-4.78215e-07
-2.20518e-07
-1.63972e-07
1.66979e-07
4.26442e-07
7.52088e-07
8.82336e-07
4.15288e-07
1.33862e-06
2.08967e-06
2.29451e-06
2.32725e-06
2.51879e-06
2.60092e-06
-1.14123e-08
3.3125e-07
3.88292e-07
1.33792e-07
-1.31903e-07
-4.83198e-07
-5.37618e-07
-6.34919e-07
-5.75812e-07
-7.18263e-07
-6.94876e-07
-7.23345e-07
-5.74404e-07
-5.39252e-07
-4.40504e-07
-3.98335e-07
-2.57797e-07
-1.44382e-07
1.42891e-07
2.25545e-07
3.87983e-07
-2.50461e-07
4.5811e-07
9.55879e-07
8.77827e-07
7.83902e-07
2.63316e-07
-2.30364e-08
2.97388e-07
2.88005e-07
1.20538e-07
-1.72704e-07
-3.91533e-07
-4.64331e-07
-5.18994e-07
-5.23266e-07
-6.93679e-07
-6.51026e-07
-6.92514e-07
-5.09665e-07
-5.29415e-07
-3.58838e-07
-3.7564e-07
-1.72055e-07
-1.25864e-07
1.93229e-07
2.64382e-07
5.17696e-07
2.84875e-07
1.16527e-06
1.7675e-06
2.36318e-06
2.3894e-06
2.62957e-06
2.49609e-06
2.77929e-07
7.82355e-08
-1.82544e-07
-2.81721e-07
-4.32225e-07
-3.85457e-07
-5.70827e-07
-5.62319e-07
-7.04015e-07
-5.5372e-07
-5.79914e-07
-4.38959e-07
-4.74179e-07
-3.72413e-07
-3.80149e-07
-2.57713e-07
-1.86739e-07
-7.07427e-08
-9.61682e-08
-2.4116e-07
1.42778e-07
6.33794e-07
7.71464e-07
6.07578e-07
1.83496e-07
-2.24071e-07
1.22742e-07
-6.58172e-09
-1.37259e-07
-2.32781e-07
-3.12785e-07
-3.68002e-07
-5.10403e-07
-5.67337e-07
-6.21784e-07
-5.21147e-07
-5.25275e-07
-3.9623e-07
-4.29957e-07
-2.90432e-07
-3.21911e-07
-1.24837e-07
-1.0264e-07
1.2201e-07
1.29299e-07
3.20367e-07
7.76231e-07
1.50134e-06
2.03936e-06
2.42531e-06
2.60725e-06
2.48547e-06
3.7421e-08
-1.17298e-08
-2.27135e-07
-2.08578e-07
-4.02874e-07
-4.1005e-07
-5.96619e-07
-4.8306e-07
-5.49381e-07
-4.05656e-07
-4.55979e-07
-3.58291e-07
-4.09126e-07
-3.36168e-07
-3.67043e-07
-2.46267e-07
-3.0809e-07
-2.05164e-07
-3.65243e-07
3.88625e-08
1.77652e-07
6.05179e-07
3.39559e-07
1.49593e-07
-5.7885e-07
6.02323e-08
-3.19885e-07
3.43039e-08
-1.70357e-07
-3.26226e-07
-4.36042e-07
-4.94315e-07
-4.63213e-07
-4.63672e-07
-3.76783e-07
-4.00002e-07
-3.04349e-07
-3.4383e-07
-2.25037e-07
-2.05847e-07
-9.97651e-08
-3.12353e-08
6.32012e-08
2.24129e-07
5.76972e-07
1.13887e-06
1.66925e-06
2.22954e-06
2.45497e-06
2.52674e-06
2.793e-07
-3.2384e-08
-1.02827e-07
-2.2013e-07
-4.42277e-07
-3.64423e-07
-4.61884e-07
-3.30008e-07
-3.96734e-07
-2.89262e-07
-3.53933e-07
-2.79251e-07
-3.39864e-07
-2.36357e-07
-3.27921e-07
-2.06814e-07
-3.52897e-07
-1.87521e-07
-2.43517e-07
1.53455e-07
8.98913e-08
3.63758e-07
-2.25123e-07
-5.26192e-07
-4.01226e-07
2.4026e-07
-3.59837e-09
-2.27722e-07
-3.17279e-07
-3.55022e-07
-3.48178e-07
-3.13611e-07
-3.18181e-07
-2.62899e-07
-2.88801e-07
-2.20488e-07
-1.66509e-07
-1.19293e-07
-7.60143e-08
-9.74482e-09
4.96113e-08
2.24685e-07
4.24999e-07
9.16001e-07
1.27613e-06
1.9571e-06
2.1531e-06
2.49119e-06
3.71421e-07
-3.00712e-08
4.33937e-09
-2.42004e-07
-2.16259e-07
-3.30799e-07
-2.26393e-07
-3.03981e-07
-1.97202e-07
-2.65316e-07
-1.86134e-07
-2.20153e-07
-1.28538e-07
-1.95249e-07
-1.44149e-07
-2.12349e-07
-1.73442e-07
-2.16656e-07
-1.28825e-07
-5.32658e-08
3.62947e-08
5.68073e-08
-2.42836e-07
-6.88984e-07
1.98165e-07
-9.42044e-08
-1.39623e-07
-2.2839e-07
-2.19015e-07
-2.20442e-07
-1.98104e-07
-1.83694e-07
-1.92563e-07
-1.59732e-07
-8.74001e-08
-3.65914e-08
-3.11843e-09
4.21847e-09
5.02229e-08
1.03152e-07
2.41607e-07
3.84023e-07
7.57765e-07
1.00848e-06
1.63798e-06
1.80338e-06
2.237e-06
3.81431e-08
-1.02588e-07
-1.11939e-07
-2.2106e-07
-1.222e-07
-2.04516e-07
-1.05931e-07
-1.70113e-07
-9.7048e-08
-9.61705e-08
-1.30012e-09
-9.5027e-09
-5.58982e-09
-5.94831e-08
-6.09078e-08
-1.04367e-07
-6.52899e-08
-1.1022e-07
1.45637e-08
-9.52763e-08
3.00457e-08
-3.85225e-07
-7.38968e-07
-1.75787e-08
-1.27023e-07
-7.54521e-08
-2.539e-07
-6.94003e-08
-1.1273e-07
-9.16856e-08
-7.673e-08
-6.47739e-09
5.43975e-08
1.15374e-07
8.93353e-08
9.2443e-08
1.01753e-07
1.70672e-07
2.59875e-07
3.8905e-07
6.44217e-07
8.34241e-07
1.34164e-06
1.45913e-06
1.94922e-06
-4.21343e-08
-6.42229e-08
-3.27728e-07
-1.18556e-07
-8.61654e-08
-3.73046e-08
-2.51091e-08
-9.13891e-09
8.54912e-08
1.40573e-07
1.49581e-07
9.85875e-08
4.55214e-08
1.9866e-08
1.05566e-08
1.43817e-08
-9.26158e-09
3.35254e-08
-6.70522e-08
-5.56047e-09
-3.84963e-07
-5.90199e-07
-4.65276e-08
-3.66478e-07
-2.15855e-07
-2.23526e-07
1.96618e-08
-3.92932e-08
5.88479e-08
8.08536e-08
1.25223e-07
1.99493e-07
1.90493e-07
1.55902e-07
1.27225e-07
1.40756e-07
2.01793e-07
2.66382e-07
3.81932e-07
5.43921e-07
7.14474e-07
1.06012e-06
1.21348e-06
1.54076e-06
-4.35952e-08
-5.26946e-07
3.70691e-08
-2.39502e-07
2.47312e-07
9.13496e-08
1.90633e-07
2.29311e-07
2.42222e-07
2.19767e-07
1.41885e-07
9.53197e-08
7.51571e-08
7.77681e-08
6.96742e-08
6.06202e-08
5.55333e-08
-1.31474e-08
-2.08357e-08
-2.88288e-07
-5.49204e-07
-1.04903e-06
2.78865e-08
-5.09843e-07
3.4087e-07
9.8073e-08
3.16406e-07
2.97218e-07
2.80578e-07
2.53958e-07
2.1244e-07
1.49631e-07
1.28547e-07
1.44723e-07
1.94236e-07
2.46354e-07
3.41734e-07
4.45895e-07
5.94605e-07
8.26261e-07
9.54251e-07
1.21478e-06
1.15805e-07
-5.68037e-07
9.47875e-09
1.39856e-07
2.74092e-07
4.68048e-07
3.6025e-07
2.85165e-07
2.70896e-07
1.97395e-07
1.37414e-07
1.00071e-07
9.68123e-08
1.00795e-07
9.97029e-08
9.02247e-08
7.24986e-08
2.40717e-08
-1.10671e-08
-2.10754e-07
-4.10855e-07
-5.73075e-07
2.02623e-07
-1.66362e-08
5.72015e-07
4.03486e-07
2.87393e-07
3.05237e-07
2.48652e-07
1.62269e-07
1.17838e-07
1.01232e-07
1.19276e-07
1.6289e-07
2.00364e-07
2.77803e-07
3.41834e-07
4.73045e-07
6.10483e-07
7.51659e-07
9.20766e-07
2.38686e-07
-2.80821e-07
3.57891e-07
3.42638e-07
2.42011e-07
3.32325e-07
3.17869e-07
2.48978e-07
1.70983e-07
1.01271e-07
8.50173e-08
8.87903e-08
1.0143e-07
9.8934e-08
9.9213e-08
7.38258e-08
5.08789e-08
6.82117e-09
-1.44822e-07
-2.8312e-07
1.63427e-07
1.27645e-07
2.30413e-07
2.00447e-07
3.8256e-07
2.24737e-07
2.93187e-07
1.64543e-07
8.8816e-08
6.13543e-08
9.43117e-08
1.06214e-07
1.56726e-07
1.89709e-07
2.55421e-07
3.41826e-07
4.38769e-07
5.46616e-07
7.04318e-07
-2.35492e-07
2.94422e-07
-1.07479e-07
4.05043e-07
5.46725e-08
3.92026e-07
2.83617e-07
1.75687e-07
9.17911e-08
7.24218e-08
6.91651e-08
8.75855e-08
8.54315e-08
8.9542e-08
7.35275e-08
6.35216e-08
1.96291e-08
-7.99393e-08
-1.53991e-07
5.18652e-07
-3.12495e-07
2.49133e-07
-6.20055e-08
2.95692e-07
2.96352e-07
2.32147e-07
2.07157e-07
9.04178e-08
5.87559e-08
5.28916e-08
7.61805e-08
9.53695e-08
1.28123e-07
1.69877e-07
2.33788e-07
2.92467e-07
4.33732e-07
4.81307e-07
3.0653e-07
-5.3969e-08
1.36506e-07
1.26262e-07
2.44012e-07
3.30781e-07
2.04522e-07
1.09718e-07
5.33072e-08
6.43181e-08
5.98769e-08
7.53204e-08
6.94001e-08
7.44998e-08
6.27843e-08
5.90854e-08
-2.77176e-09
-9.16928e-08
-2.29274e-07
1.59031e-07
-1.18748e-07
2.35829e-07
3.19271e-07
2.82384e-07
2.04541e-07
9.15622e-08
4.7653e-08
3.73112e-08
4.49905e-08
5.91913e-08
7.97478e-08
1.1164e-07
1.53325e-07
2.31672e-07
2.7037e-07
4.17335e-07
4.75183e-07
-2.87723e-07
1.18103e-07
1.73323e-07
2.27636e-07
3.16257e-07
1.52016e-07
6.27281e-08
4.5456e-08
3.67263e-08
5.25654e-08
5.81218e-08
7.0338e-08
7.10062e-08
8.87283e-08
7.788e-08
7.65662e-08
-1.59039e-07
1.87354e-07
8.87385e-09
1.12303e-07
3.39468e-07
1.65617e-07
4.58779e-08
2.28323e-08
2.15747e-08
2.12629e-08
3.36361e-08
4.85654e-08
6.27905e-08
8.50614e-08
1.23553e-07
1.55458e-07
1.54247e-07
6.22321e-07
-1.9456e-07
7.51721e-08
2.23609e-07
1.48389e-07
5.56437e-09
-2.22967e-09
3.46449e-08
1.46597e-08
4.1587e-08
5.61599e-08
7.37891e-08
8.01861e-08
9.40193e-08
9.13078e-08
9.92029e-08
1.41818e-07
3.59945e-07
5.46888e-09
9.37449e-08
-2.92101e-08
-6.34146e-09
4.18543e-08
-1.727e-09
8.47717e-08
6.26102e-08
6.4115e-08
6.92604e-08
7.7939e-08
8.30188e-08
9.56673e-08
1.12126e-07
1.95095e-07
1.89271e-07
-7.71755e-08
1.82669e-08
3.76042e-08
-1.77936e-08
2.03613e-07
8.30904e-08
7.15161e-08
8.44868e-08
9.46535e-08
1.00336e-07
9.58553e-08
1.07065e-07
8.53174e-08
8.11101e-08
-2.43933e-07
5.82367e-08
5.36014e-08
1.61294e-09
3.28631e-07
6.85077e-08
5.55124e-08
5.89478e-08
7.84783e-08
8.72218e-08
8.27209e-08
8.11727e-08
7.91642e-08
7.51503e-08
1.08495e-07
3.15713e-07
-8.29826e-09
-5.81673e-09
3.54591e-07
1.59759e-08
1.39572e-08
-1.44511e-09
5.24383e-08
6.85109e-08
8.40617e-08
8.47225e-08
8.79298e-08
7.54543e-08
8.4633e-08
4.30712e-08
1.30311e-07
2.93417e-07
-3.77078e-09
-5.61772e-09
-4.6145e-08
2.95745e-08
2.6846e-08
6.53057e-08
4.98863e-08
6.52677e-08
5.40544e-08
5.12631e-08
4.90521e-08
5.94901e-08
1.17178e-07
1.06174e-08
3.29724e-09
-5.15533e-08
1.46862e-08
-1.65699e-08
4.67129e-08
-8.90778e-10
6.84278e-08
3.8632e-08
4.60214e-08
5.90143e-08
4.41947e-08
4.45149e-08
1.96115e-07
-2.67246e-09
-3.57836e-08
1.84603e-08
-2.27777e-08
4.97501e-08
-2.50338e-08
9.31275e-08
-1.30938e-09
7.63118e-08
4.73429e-08
3.06012e-08
2.7944e-08
3.92596e-08
9.778e-08
4.08153e-08
-1.52859e-10
5.9402e-08
-1.85458e-08
1.06773e-07
-3.72215e-08
1.73519e-07
4.60819e-08
3.57988e-08
2.28806e-08
3.81708e-08
1.89383e-08
-9.49126e-09
4.68913e-09
6.68468e-08
-3.01033e-09
9.67499e-08
-3.67512e-08
2.76377e-07
2.91262e-08
3.59861e-08
5.94107e-11
1.38128e-08
8.31971e-09
1.98257e-08
-2.65673e-08
6.0042e-08
-1.09337e-08
5.82044e-08
-3.29745e-08
2.87408e-07
-1.69808e-08
3.09507e-08
-4.48919e-08
-3.59962e-09
-9.38674e-09
-2.9271e-09
5.56578e-09
4.37183e-08
-4.7968e-08
1.23669e-08
-2.99651e-08
2.15533e-07
-4.11084e-08
3.84301e-08
-7.41139e-08
1.12053e-08
-3.76624e-08
-1.02257e-09
-1.89662e-08
-1.11671e-08
7.4735e-10
-1.79478e-08
1.20174e-07
-2.87586e-08
4.20924e-08
-7.31953e-08
3.23917e-08
-6.18605e-08
2.22199e-08
-5.7233e-08
-1.0806e-08
-3.31583e-08
6.54115e-08
4.54241e-08
-1.69409e-09
2.49309e-08
-4.32127e-08
4.61649e-08
-5.23205e-08
5.65972e-08
-6.5043e-08
2.79239e-08
-5.30213e-08
3.90797e-08
-4.9355e-08
2.61839e-08
-1.00621e-08
3.3282e-09
5.87382e-08
-2.26816e-08
7.23006e-08
-4.84986e-08
7.07277e-08
-5.85285e-08
8.13681e-08
1.60578e-07
-6.02961e-08
1.27699e-08
5.78897e-08
-1.53686e-09
6.65074e-08
-2.87552e-08
8.91295e-08
-4.60497e-08
1.3225e-07
-7.51354e-08
6.23922e-08
2.75913e-08
-4.69203e-10
3.93812e-08
-1.52673e-08
7.73409e-08
-3.70407e-08
1.87948e-07
-3.61721e-08
8.29576e-08
-4.15456e-08
-7.42167e-09
5.90303e-09
-1.43319e-09
5.31178e-08
-3.1041e-08
1.90877e-07
-3.79933e-08
9.43592e-08
-8.19532e-08
2.33008e-08
-3.85769e-09
6.9759e-09
2.50726e-08
-2.23585e-08
1.4619e-07
-5.49566e-08
1.34084e-07
-4.6613e-08
7.56874e-08
-5.47969e-08
1.14493e-08
-5.23844e-09
-1.62394e-09
9.23888e-08
-4.63498e-08
1.48154e-07
-5.53502e-08
6.19786e-08
-6.74828e-08
8.49148e-08
-4.38402e-08
4.88331e-09
4.85422e-08
-2.83682e-08
1.35386e-07
-6.24596e-08
8.64217e-08
-3.90739e-08
4.33395e-08
3.2926e-08
8.83335e-09
-2.82939e-08
9.68917e-08
-6.12229e-08
1.00235e-07
-5.20687e-08
2.35676e-08
-4.92335e-08
-4.61744e-08
-2.75503e-08
4.27611e-08
-5.60468e-08
9.19555e-08
-6.38879e-08
2.65667e-08
-5.05158e-08
2.23113e-08
-7.72386e-09
2.31934e-09
-4.0727e-08
6.92336e-08
-6.42802e-08
5.04952e-08
-5.52383e-08
3.86896e-08
-5.00765e-08
-2.7606e-08
3.27477e-08
-5.42162e-08
6.49151e-08
-4.94694e-08
2.0711e-08
-4.91104e-08
-2.27547e-08
4.9081e-09
-3.60659e-08
4.75912e-08
-5.86537e-08
3.11779e-08
-3.81467e-08
2.28276e-08
-3.05045e-08
-2.74652e-08
1.36624e-08
-5.02382e-08
3.40749e-08
-4.76508e-08
1.28804e-08
-4.11672e-08
-2.26873e-08
-2.40655e-08
1.8006e-08
-4.88638e-08
1.67436e-08
-3.57065e-08
1.09198e-08
9.52943e-09
5.13295e-09
-2.54801e-08
3.04589e-08
-4.28287e-08
8.93362e-09
-3.90247e-08
-1.7803e-08
-8.35995e-09
2.02274e-08
-3.75852e-08
2.6415e-08
-3.11285e-08
9.8028e-09
1.02892e-08
6.0333e-09
-1.63057e-08
3.09711e-08
-2.69013e-08
4.25976e-09
-2.55998e-08
-1.24045e-08
-7.06321e-09
1.96009e-08
-2.0226e-08
1.08023e-08
-1.65145e-08
2.37143e-10
8.06242e-09
6.51968e-09
-1.30587e-08
1.94595e-08
-1.42454e-08
6.50768e-09
-1.96972e-08
-1.02059e-08
-7.83774e-09
1.74491e-08
-1.17146e-08
1.7593e-08
-1.93221e-08
6.32882e-10
7.17518e-09
-1.13919e-08
1.4152e-08
-8.94301e-09
1.44497e-08
-6.93264e-09
-1.01034e-08
6.85474e-09
-1.3469e-08
6.17904e-09
-1.3225e-08
-6.05086e-09
-1.15556e-08
-4.99772e-10
-1.08826e-08
1.81182e-09
3.42639e-09
2.55308e-09
-8.34858e-09
2.68436e-09
-1.13128e-08
-9.32568e-09
-9.63486e-09
-2.74418e-09
-1.18209e-08
-3.75051e-09
-3.34852e-09
1.70886e-10
-7.51862e-09
2.3678e-10
-1.06122e-08
-1.29888e-08
-1.02045e-08
-6.93254e-09
-1.1856e-08
-7.12113e-09
-1.18702e-08
-4.74688e-09
-5.83959e-09
-3.83282e-09
-6.39904e-09
)
;

boundaryField
{
    inlet
    {
        type            extrapolatedCalculated;
        value           nonuniform List<scalar> 5(-1.18702e-08 -4.74688e-09 -5.83959e-09 -3.83282e-09 -6.39904e-09);
    }
    outlet
    {
        type            extrapolatedCalculated;
        value           nonuniform List<scalar> 0();
    }
    walls
    {
        type            extrapolatedCalculated;
        value           nonuniform List<scalar> 
28
(
7.98197e-06
1.09431e-06
-2.93865e-07
-2.59026e-07
-9.02129e-07
-6.42056e-07
-1.0522e-06
-6.79347e-07
-9.43953e-07
-6.12101e-07
-1.04052e-06
-5.69281e-07
-1.20088e-06
-2.80444e-07
-7.76084e-07
1.44623e-06
2.37242e-06
2.63721e-06
2.47235e-06
1.69902e-06
1.55252e-06
-2.30304e-06
3.92145e-06
1.42442e-06
1.91741e-06
2.02923e-06
3.26576e-06
3.18939e-06
)
;
    }
    frontAndBack
    {
        type            empty;
    }
    procBoundary1to0
    {
        type            processor;
        value           nonuniform List<scalar> 
94
(
-2.87716e-06
-2.87716e-06
-1.54436e-06
-1.54436e-06
-7.09545e-07
-7.09545e-07
-1.17454e-06
-1.17454e-06
-6.29989e-07
-6.29989e-07
2.86231e-07
2.86231e-07
2.24516e-08
9.92903e-08
9.92903e-08
1.24038e-08
-3.15599e-07
-3.15599e-07
1.09793e-07
-2.92515e-07
-2.45911e-07
-2.45911e-07
1.31715e-08
-3.70305e-08
-3.70305e-08
-2.23349e-08
-3.94996e-08
-3.92668e-07
-3.92668e-07
1.67175e-07
-6.13619e-07
-6.62908e-07
-6.62908e-07
-6.37964e-07
-5.51422e-07
-5.51422e-07
9.14358e-08
-3.38712e-07
-3.83974e-07
-3.83974e-07
1.73097e-07
-3.12231e-07
-3.80384e-07
-3.80384e-07
8.48727e-08
-2.76051e-07
-2.64199e-07
-2.64199e-07
1.27064e-07
-3.33015e-07
-2.55339e-07
-2.55339e-07
8.84928e-08
-2.72264e-08
-6.64806e-08
-6.64806e-08
7.73071e-08
-2.81228e-08
-1.30662e-07
-7.46773e-08
-7.46773e-08
-4.54532e-08
8.69864e-08
-1.23322e-07
-1.28532e-07
-1.28532e-07
1.96403e-08
-7.41715e-08
4.34288e-08
-8.87909e-08
-9.40677e-08
-9.40677e-08
8.20958e-09
-6.02013e-08
1.10633e-09
-5.04845e-08
-2.73747e-08
-1.65252e-08
-1.65252e-08
-2.19134e-08
1.5904e-08
-1.7528e-08
1.44801e-08
-1.67986e-08
9.96937e-09
-1.48898e-08
-4.85577e-09
-2.9155e-09
-2.9155e-09
-8.84431e-09
3.20437e-09
-1.21322e-08
-3.66981e-09
-7.90364e-09
)
;
    }
    procBoundary1to2
    {
        type            processor;
        value           nonuniform List<scalar> 
84
(
1.29876e-06
9.88256e-07
1.80812e-06
1.96265e-06
2.54232e-06
2.90511e-06
2.46365e-06
3.55636e-06
2.4362e-06
4.11318e-06
2.01723e-06
4.33368e-06
1.59838e-06
4.4397e-06
1.12474e-06
4.23022e-06
5.73872e-07
3.82834e-06
2.12597e-07
3.18018e-06
-4.21816e-07
2.49748e-06
-4.89983e-07
1.89944e-06
-6.1112e-07
1.42082e-06
-4.4452e-07
1.08231e-06
-2.2484e-07
8.42656e-07
-1.06109e-07
6.16429e-07
2.96579e-08
4.70646e-07
6.91674e-08
2.78059e-07
1.10803e-07
3.04784e-07
1.6668e-07
1.6668e-07
1.604e-07
1.46853e-07
5.79451e-08
1.2824e-07
3.53044e-08
7.59775e-08
2.4415e-08
6.92031e-08
1.17252e-08
1.04445e-08
-7.20773e-09
-1.06223e-08
-2.31075e-08
-1.11734e-07
-1.11734e-07
8.29836e-08
-9.96408e-08
7.97582e-08
-7.37473e-08
3.45583e-08
-4.74994e-08
1.29238e-08
-3.20216e-08
-6.89773e-08
-6.89773e-08
1.00352e-08
-3.54395e-08
3.39268e-09
-3.67358e-08
-3.03987e-09
-3.38686e-08
-3.70959e-09
-1.98739e-08
-1.57517e-09
1.46636e-08
1.46636e-08
-3.06094e-09
7.01473e-09
-1.1751e-08
-1.14205e-09
-1.78836e-08
-4.74157e-09
-1.8709e-08
-9.0274e-09
)
;
    }
    procBoundary1to5
    {
        type            processor;
        value           nonuniform List<scalar> 
13
(
2.13962e-06
2.13962e-06
8.37759e-07
1.95791e-06
1.95791e-06
1.50982e-06
1.42915e-06
1.42915e-06
1.39308e-06
1.93536e-06
-2.91486e-06
-2.91486e-06
-2.07849e-06
)
;
    }
}


// ************************************************************************* //
