/*--------------------------------*- C++ -*----------------------------------*\
| =========                 |                                                 |
| \\      /  F ield         | OpenFOAM: The Open Source CFD Toolbox           |
|  \\    /   O peration     | Version:  2306                                  |
|   \\  /    A nd           | Website:  www.openfoam.com                      |
|    \\/     M anipulation  |                                                 |
\*---------------------------------------------------------------------------*/
FoamFile
{
    version     2.0;
    format      ascii;
    arch        "LSB;label=32;scalar=64";
    class       volSymmTensorField;
    location    "275";
    object      turbulenceProperties:R;
}
// * * * * * * * * * * * * * * * * * * * * * * * * * * * * * * * * * * * * * //

dimensions      [0 2 -2 0 0 0 0];

internalField   nonuniform List<symmTensor> 
1340
(
(0.00194641 0.000261623 5.73743e-20 0.00191729 -2.26523e-20 0.00190862)
(0.0021126 0.000277924 1.01412e-19 0.00191786 -5.12928e-20 0.00199749)
(0.0029558 0.000385055 -8.022e-20 0.00246901 2.02992e-20 0.00270982)
(0.00451122 0.000623447 -2.35874e-20 0.00351881 1.11305e-19 0.0040247)
(0.0069307 0.00109425 1.74253e-19 0.00509345 7.25514e-20 0.00603091)
(0.0105056 0.00197019 3.58611e-19 0.00732453 -5.58215e-20 0.00895035)
(0.0156642 0.00349313 -6.79026e-21 0.0104616 -2.18701e-19 0.0131278)
(0.022918 0.00591432 -7.18047e-20 0.0148891 -1.54499e-19 0.0190036)
(0.0330032 0.00952519 2.46122e-20 0.0212956 -5.36154e-20 0.0272996)
(0.0472397 0.0147462 -1.85865e-19 0.030807 6.32387e-19 0.0392295)
(0.068132 0.0224643 7.12161e-19 0.0454251 2.64886e-19 0.0570636)
(0.100359 0.034422 3.18585e-19 0.06874 -1.18392e-18 0.0849405)
(0.152225 0.0539036 -1.29465e-18 0.107371 -3.39945e-19 0.130372)
(0.24018 0.0874524 -4.38304e-18 0.174583 -2.00454e-18 0.208256)
(0.393765 0.147287 -3.32827e-18 0.29547 -8.90625e-19 0.346074)
(0.682597 0.262415 6.19676e-18 0.530191 -5.75401e-19 0.609047)
(1.2279 0.486302 -7.44142e-18 0.992411 1.20429e-18 1.11559)
(2.39518 0.977753 4.06271e-18 2.0215 -7.22263e-18 2.22009)
(4.80184 2.01557 -1.2629e-16 4.23017 2.59968e-18 4.54054)
(10.5217 4.52972 -7.82817e-17 9.66368 1.23156e-17 10.1504)
(21.2596 9.36528 6.58989e-17 20.3374 8.36324e-19 20.9189)
(29.54 13.2883 8.69599e-18 29.4197 -1.27471e-19 29.636)
(32.6343 14.9564 6.28646e-17 33.7932 4.82463e-19 33.3612)
(33.0538 15.3954 -4.37075e-16 35.5068 -4.92527e-18 34.4037)
(32.6419 15.4153 1.57294e-16 36.2803 2.08911e-17 34.5621)
(31.9192 15.2532 -1.88852e-15 36.6173 -1.52969e-16 34.3519)
(30.9785 14.9532 -3.45778e-15 36.5968 -2.37947e-16 33.8579)
(29.8463 14.5311 1.05811e-15 36.2418 1.08127e-16 33.1045)
(0.00153882 0.000150816 2.61235e-20 0.00133597 -8.34508e-20 0.00143929)
(0.00131425 0.000152946 -1.19428e-19 0.00121224 3.14005e-21 0.00126836)
(0.0011136 0.000139695 1.82743e-20 0.00109255 8.08636e-20 0.00110896)
(0.000922013 0.000116368 4.76396e-22 0.000968448 -4.75768e-20 0.000948671)
(0.000751561 8.77173e-05 -2.99937e-20 0.000839703 -2.84347e-20 0.000794873)
(0.000615014 6.18902e-05 -2.10445e-20 0.000717206 -2.97824e-20 0.000661745)
(0.000506797 4.21554e-05 -3.79846e-21 0.000605969 6.32193e-21 0.00054988)
(0.000418998 2.82186e-05 1.22255e-20 0.000507054 3.29052e-20 0.000455572)
(0.000346715 1.88888e-05 2.0079e-20 0.000420695 7.7626e-21 0.000376053)
(0.00028678 1.28412e-05 -2.68772e-20 0.000346633 -1.37641e-21 0.000309375)
(0.000236363 8.97667e-06 2.22279e-20 0.000283079 2.30106e-21 0.000253103)
(0.000193781 6.4567e-06 -2.36396e-21 0.000228963 -6.94243e-21 0.000205733)
(0.000156373 4.61634e-06 -6.86342e-21 0.000181417 1.09271e-20 0.000164431)
(0.000121912 3.10703e-06 -4.01069e-21 0.000138131 4.36899e-21 0.00012684)
(8.72485e-05 1.73877e-06 -6.01052e-21 9.58529e-05 6.76716e-21 8.9699e-05)
(5.24392e-05 6.64341e-07 -3.52233e-21 5.55696e-05 1.82842e-21 5.32634e-05)
(1.84717e-05 8.34168e-08 -6.76301e-22 1.88528e-05 5.82309e-23 1.85615e-05)
(3.02916e-06 2.26597e-09 8.20517e-24 3.03902e-06 7.81246e-25 3.0311e-06)
(7.67664e-06 1.58414e-08 -3.6649e-24 7.73565e-06 5.03549e-24 7.68538e-06)
(0.000850529 0.000192697 4.75442e-19 0.00142819 1.24685e-19 0.00091014)
(0.00451441 0.00133096 2.64552e-18 0.00781586 -1.89123e-19 0.00473744)
(0.0372183 0.0119581 1.08086e-18 0.0620665 -4.52402e-19 0.0383032)
(0.128046 0.0458807 -7.53803e-19 0.204158 1.03943e-19 0.13054)
(0.256189 0.102652 4.96117e-17 0.386067 2.00204e-18 0.261079)
(0.39091 0.170599 4.02485e-16 0.554125 9.774e-18 0.401556)
(0.512452 0.235153 2.39438e-16 0.689611 1.30961e-17 0.53317)
(0.614322 0.289286 1.7619e-15 0.799311 1.21006e-16 0.648327)
(0.701196 0.334842 2.54401e-15 0.897874 1.70097e-16 0.750417)
(0.778736 0.375281 -5.7034e-16 0.994958 -9.7526e-17 0.844899)
(0.00124298 0.000115289 9.0129e-21 0.00105721 5.48079e-20 0.00114992)
(0.00108718 0.000121552 5.93822e-20 0.000979657 6.37921e-20 0.00103384)
(0.00094363 0.00011757 2.0188e-20 0.000906434 -5.07715e-20 0.000925866)
(0.000803218 0.0001043 4.51219e-20 0.000824361 2.67282e-20 0.000814392)
(0.000664244 8.44697e-05 -3.18651e-20 0.000723657 8.18708e-21 0.00069471)
(0.000538955 6.38586e-05 -4.61526e-21 0.000616495 2.70167e-20 0.00057916)
(0.000432703 4.57891e-05 2.00274e-21 0.00051451 -2.43359e-20 0.000475942)
(0.000344948 3.11784e-05 4.35995e-20 0.000422815 -3.07023e-20 0.000387201)
(0.000274866 2.01108e-05 3.31299e-21 0.000344728 -4.84479e-21 0.000313949)
(0.000219782 1.20438e-05 -4.91048e-21 0.000280156 2.0305e-20 0.000254829)
(0.000177796 6.3987e-06 3.15826e-20 0.000228909 -3.73299e-20 0.000208734)
(0.000146536 2.47826e-06 5.16483e-21 0.000189455 4.53749e-21 0.000173771)
(0.00012419 -2.94436e-07 3.68309e-20 0.000160396 -2.57201e-21 0.000148309)
(0.000108464 -2.40927e-06 3.96597e-20 0.000139179 8.89681e-21 0.000130032)
(9.79681e-05 -4.16064e-06 1.02367e-19 0.000124215 -1.35191e-20 0.000117442)
(9.16458e-05 -5.84569e-06 1.33967e-19 0.000113947 -2.02654e-20 0.000109334)
(8.90367e-05 -7.67223e-06 8.09244e-20 0.000107316 7.02455e-21 0.000105)
(8.91554e-05 -9.4436e-06 1.89358e-20 0.000101829 -3.87519e-21 0.000102917)
(9.23187e-05 -1.05753e-05 -2.07352e-20 9.77515e-05 1.00248e-20 0.000103472)
(9.52081e-05 -1.00444e-05 7.57127e-20 9.32835e-05 -1.23174e-20 0.000103158)
(0.000104323 -9.475e-06 -2.0526e-20 9.58435e-05 -2.00476e-21 0.000110074)
(6.25922e-05 -2.75196e-06 -6.2468e-21 5.79917e-05 1.28994e-22 6.39263e-05)
(0.000473562 -6.54598e-05 2.46359e-20 0.000295246 -7.79388e-22 0.00050141)
(0.00325747 -0.000272047 -1.42144e-18 0.00168475 -5.40838e-20 0.00340612)
(0.00933156 0.000424063 -8.61804e-18 0.00467785 -8.34274e-20 0.00965068)
(0.0187786 0.00468148 -5.47468e-17 0.0112622 -3.17652e-18 0.0193658)
(0.038595 0.0154325 -1.34201e-16 0.0316723 -4.47632e-18 0.0399472)
(0.0759651 0.0342674 -3.33849e-16 0.0747439 -2.29366e-17 0.0792407)
(0.130155 0.0608252 -8.54668e-16 0.139651 -7.62882e-17 0.137222)
(0.00107641 6.60713e-05 2.09349e-20 0.000865182 -5.97058e-21 0.000970957)
(0.000980952 8.44531e-05 2.26506e-20 0.000822702 -5.86412e-22 0.000901681)
(0.000879111 9.33559e-05 -5.58981e-20 0.000777425 -3.37843e-20 0.000828284)
(0.000775293 9.35095e-05 -3.05465e-20 0.000727905 2.63945e-21 0.000752056)
(0.000668543 8.57891e-05 5.0606e-20 0.000668443 2.28608e-20 0.000669143)
(0.00056546 7.27451e-05 2.36222e-20 0.000599909 -1.9368e-21 0.000583248)
(0.000474525 5.81232e-05 2.79518e-20 0.000530068 -1.72601e-20 0.000502589)
(0.000398405 4.44061e-05 -4.31353e-20 0.000464271 -2.83018e-20 0.000431196)
(0.000335878 3.26869e-05 -5.34759e-20 0.000404569 1.00905e-20 0.000369589)
(0.000285221 2.33596e-05 4.87463e-21 0.000352016 1.41377e-20 0.000317475)
(0.000244186 1.62618e-05 1.65284e-20 0.000306544 -4.91905e-21 0.000273766)
(0.000211319 1.10757e-05 -4.05655e-20 0.000268267 -3.21968e-21 0.00023778)
(0.000185068 7.35169e-06 -1.56107e-21 0.000236577 -6.46061e-21 0.00020847)
(0.000164289 4.64746e-06 -1.55664e-20 0.000210857 -3.05026e-21 0.000184942)
(0.000147526 2.56569e-06 3.2687e-20 0.00018974 -1.88398e-20 0.000165813)
(0.000134022 8.49934e-07 -3.55817e-20 0.00017246 -1.23777e-20 0.000150274)
(0.000122791 -7.17823e-07 -7.3961e-20 0.000157825 -8.74526e-21 0.000137233)
(0.000112886 -2.2665e-06 3.34195e-21 0.00014455 -1.12116e-20 0.000125546)
(0.000102625 -3.70431e-06 1.89308e-20 0.000130409 -1.07818e-20 0.000113282)
(9.21964e-05 -4.60569e-06 5.73416e-20 0.000115828 -4.00001e-21 0.000100623)
(8.36221e-05 -4.889e-06 -5.37336e-20 0.000103757 -3.12306e-21 8.9958e-05)
(7.7215e-05 -4.835e-06 -9.23876e-21 9.46514e-05 2.87882e-21 8.18185e-05)
(7.26474e-05 -4.67127e-06 5.59132e-21 8.81472e-05 4.91489e-22 7.58896e-05)
(6.69029e-05 -4.28798e-06 -2.56146e-21 8.02387e-05 -1.0348e-22 6.89616e-05)
(5.90993e-05 -3.80377e-06 -3.70843e-21 7.01284e-05 1.84104e-22 6.0229e-05)
(4.49598e-05 -2.81123e-06 -5.49881e-21 5.22725e-05 -2.86568e-22 4.5336e-05)
(2.87172e-05 -1.69789e-06 1.35946e-20 3.25001e-05 3.91386e-22 2.86597e-05)
(0.000200059 -5.4907e-05 1.92647e-18 0.000303207 1.24849e-19 0.000184065)
(0.000394851 -4.55202e-05 1.8621e-17 0.000504755 1.73415e-18 0.000286813)
(0.00166533 0.000597833 7.82422e-17 0.00129615 1.03266e-17 0.00132966)
(0.000858273 4.83533e-05 -5.38192e-20 0.000685261 2.76084e-20 0.000771772)
(0.000792094 6.39189e-05 7.53515e-20 0.000656953 3.91398e-20 0.000724339)
(0.000720195 7.29081e-05 -2.43714e-20 0.000627181 -7.08302e-20 0.00067362)
(0.000644837 7.53681e-05 -3.32937e-20 0.000594119 9.45061e-21 0.00061958)
(0.000566146 7.16258e-05 -2.27049e-20 0.000553867 -3.94266e-20 0.0005602)
(0.000489283 6.33298e-05 7.95537e-21 0.000507069 1.20028e-20 0.000498348)
(0.000418598 5.28479e-05 -1.48951e-20 0.000456741 -1.94918e-20 0.000437829)
(0.000355937 4.20776e-05 -3.07629e-20 0.000405728 4.14021e-20 0.00038102)
(0.000301317 3.21492e-05 3.26284e-20 0.000355982 1.91615e-20 0.000328915)
(0.00025445 2.36766e-05 2.77366e-20 0.000309199 -1.27583e-20 0.000282207)
(0.000214711 1.6815e-05 -5.69974e-21 0.000266595 -1.14218e-20 0.000241195)
(0.000181499 1.14829e-05 1.65642e-20 0.000228987 3.6929e-21 0.000205961)
(0.000154151 7.4272e-06 -2.45399e-20 0.000196736 6.27069e-21 0.000176342)
(0.000132008 4.35117e-06 1.7378e-20 0.00016982 -4.55281e-22 0.000151981)
(0.000114196 1.95201e-06 -2.28822e-20 0.00014762 -1.0694e-20 0.000132132)
(0.000100015 -6.14767e-09 2.20784e-20 0.000129498 1.84947e-21 0.00011611)
(8.86609e-05 -1.71526e-06 2.96102e-20 0.000114508 6.48431e-21 0.000103047)
(7.93434e-05 -3.28501e-06 -2.06376e-21 0.000101579 2.7192e-21 9.20101e-05)
(7.07617e-05 -4.65626e-06 -5.5519e-20 8.89212e-05 2.16678e-23 8.1505e-05)
(6.22274e-05 -5.52945e-06 -2.06717e-20 7.58609e-05 -8.83803e-21 7.0841e-05)
(5.44193e-05 -5.80666e-06 -6.09279e-21 6.37371e-05 9.40262e-21 6.09832e-05)
(4.83878e-05 -5.71838e-06 2.25721e-20 5.38811e-05 2.82108e-22 5.32165e-05)
(4.45498e-05 -5.39331e-06 8.12824e-22 4.66665e-05 -1.85753e-22 4.79276e-05)
(4.35128e-05 -5.06139e-06 -1.29371e-21 4.27116e-05 1.11091e-22 4.5748e-05)
(4.12439e-05 -4.09772e-06 1.36259e-20 3.83472e-05 6.14688e-23 4.23623e-05)
(5.16988e-05 -5.49214e-06 1.54817e-20 4.5003e-05 5.00042e-22 5.22984e-05)
(1.1926e-05 -3.21638e-07 -4.9561e-21 1.14103e-05 -2.73855e-22 1.19079e-05)
(8.48428e-05 -1.23746e-05 -5.48224e-19 6.20637e-05 -4.2538e-20 8.20527e-05)
(0.000439079 -0.000103774 -1.01556e-18 0.000233573 -1.25121e-19 0.000396687)
(0.00112953 -0.000261799 2.02723e-18 0.000571498 1.88024e-20 0.000967078)
(0.000734427 1.93131e-05 -1.09625e-20 0.0005713 2.79028e-21 0.000652944)
(0.00069523 3.59177e-05 4.74813e-20 0.000552123 3.3858e-20 0.000623577)
(0.00064768 4.91002e-05 -2.97834e-20 0.000532362 -5.08304e-20 0.000589892)
(0.000595556 5.75822e-05 1.50323e-20 0.000512179 2.50719e-20 0.000553837)
(0.000539738 6.10615e-05 -1.72356e-20 0.00048941 -3.62847e-21 0.00051461)
(0.000480814 5.96891e-05 -5.23548e-20 0.000461459 -2.17514e-21 0.000471242)
(0.00042253 5.45414e-05 3.75095e-20 0.000428798 8.42255e-21 0.000425783)
(0.000367849 4.7178e-05 -7.12909e-21 0.000392973 1.0273e-20 0.000380522)
(0.000318379 3.89991e-05 2.14219e-20 0.000355837 1.69253e-20 0.000337204)
(0.000274629 3.09867e-05 7.7246e-21 0.000318913 -1.93207e-20 0.000296825)
(0.00023668 2.37784e-05 -5.82008e-21 0.000283523 -1.40728e-20 0.000260088)
(0.000204298 1.76551e-05 -2.24991e-20 0.000250805 8.86154e-21 0.00022746)
(0.000177073 1.26854e-05 -2.7363e-20 0.000221458 1.27914e-20 0.000199081)
(0.000154477 8.76313e-06 1.1248e-20 0.000195845 -7.78984e-22 0.000174876)
(0.000135923 5.69945e-06 -4.58067e-21 0.000173982 -5.26159e-21 0.000154568)
(0.000120726 3.2653e-06 -2.31577e-20 0.000155515 -2.73883e-24 0.00013764)
(0.000108237 1.26804e-06 -2.59942e-20 0.000139912 -6.14676e-21 0.000123503)
(9.77335e-05 -4.62097e-07 -2.19588e-20 0.000126397 1.58854e-21 0.000111414)
(8.84802e-05 -2.02797e-06 2.3334e-20 0.000114051 -1.03665e-20 0.000100544)
(7.94647e-05 -3.39596e-06 -5.73487e-21 0.000101559 1.07271e-20 8.97438e-05)
(7.02079e-05 -4.33892e-06 -3.49904e-20 8.84823e-05 8.26166e-21 7.85322e-05)
(6.14032e-05 -4.75532e-06 4.66275e-20 7.60574e-05 -2.72022e-21 6.78249e-05)
(5.36978e-05 -4.81096e-06 3.70832e-21 6.52635e-05 -2.78338e-21 5.84673e-05)
(4.72275e-05 -4.66529e-06 6.80322e-22 5.62697e-05 -2.72011e-22 5.06193e-05)
(4.17696e-05 -4.38244e-06 1.69129e-21 4.87894e-05 3.81821e-23 4.40065e-05)
(3.71869e-05 -4.01215e-06 -1.71809e-20 4.26517e-05 -7.18912e-22 3.8472e-05)
(3.31963e-05 -3.57024e-06 -9.90788e-21 3.74681e-05 -1.04213e-21 3.37168e-05)
(2.9534e-05 -3.16256e-06 5.08041e-20 3.28234e-05 4.08676e-21 2.94596e-05)
(2.40476e-05 -2.4268e-06 3.56957e-20 2.6068e-05 2.53325e-21 2.35595e-05)
(1.72102e-05 -1.50871e-06 -2.28562e-20 1.79711e-05 -1.61041e-21 1.65877e-05)
(3.52077e-07 -8.36906e-10 1.60204e-23 3.52062e-07 2.02292e-24 3.51503e-07)
(0.000599829 1.3664e-05 -1.33247e-21 0.000465785 -9.63214e-21 0.00053286)
(0.000570955 2.71795e-05 -1.60387e-20 0.000451494 8.25571e-21 0.000511132)
(0.000536265 3.83417e-05 1.82315e-20 0.000437558 1.77686e-20 0.000486828)
(0.000497428 4.60423e-05 4.27903e-20 0.000423354 1.87879e-20 0.000460379)
(0.000455196 4.98724e-05 2.92046e-20 0.00040722 -7.43322e-22 0.000431215)
(0.000410659 4.99361e-05 -8.25934e-21 0.000387747 7.29644e-21 0.000399243)
(0.000366211 4.6912e-05 -3.9356e-20 0.000364935 -1.47908e-20 0.000365619)
(0.000323775 4.18315e-05 2.77259e-20 0.000339385 1.90592e-20 0.000331626)
(0.000284446 3.57001e-05 1.38339e-21 0.000312056 -2.17145e-20 0.000298306)
(0.000248716 2.93054e-05 1.48424e-21 0.000283886 -9.9003e-21 0.000266359)
(0.00021683 2.32326e-05 -2.21753e-20 0.000255825 8.80692e-21 0.000236383)
(0.000188776 1.78074e-05 1.27624e-20 0.000228828 1.35723e-20 0.000208867)
(0.000164403 1.3188e-05 5.59854e-20 0.000203582 4.65978e-21 0.000184072)
(0.00014349 9.37742e-06 -2.04013e-20 0.000180625 -3.4305e-22 0.000162161)
(0.000125751 6.28351e-06 -4.24152e-21 0.000160247 -4.68676e-22 0.000143131)
(0.000110778 3.75736e-06 -2.92025e-20 0.000142404 1.8936e-20 0.000126761)
(9.81663e-05 1.65514e-06 -2.2164e-20 0.000126874 3.38257e-21 0.000112729)
(8.74342e-05 -1.53622e-07 2.5175e-20 0.0001132 6.30311e-21 0.000100565)
(7.80336e-05 -1.74945e-06 -5.84564e-20 0.000100728 6.17778e-21 8.96672e-05)
(6.92248e-05 -3.11464e-06 1.96193e-20 8.85088e-05 1.83319e-22 7.92045e-05)
(6.05629e-05 -4.08304e-06 3.87625e-20 7.61104e-05 5.86104e-22 6.87339e-05)
(5.24145e-05 -4.56294e-06 -1.59537e-20 6.4318e-05 -4.43981e-21 5.8798e-05)
(4.52732e-05 -4.6773e-06 -1.7342e-20 5.39271e-05 3.07853e-22 5.00677e-05)
(3.92941e-05 -4.56514e-06 -4.17076e-21 4.51305e-05 2.37456e-22 4.27397e-05)
(3.43536e-05 -4.29349e-06 -5.10948e-22 3.77512e-05 1.84027e-23 3.66587e-05)
(3.03851e-05 -3.90235e-06 2.07766e-21 3.16998e-05 5.48813e-22 3.17406e-05)
(2.75039e-05 -3.43925e-06 -2.70022e-20 2.70569e-05 -8.64923e-22 2.80936e-05)
(2.57572e-05 -2.95244e-06 6.19549e-20 2.38874e-05 2.04268e-21 2.57436e-05)
(2.48128e-05 -2.48269e-06 2.62112e-21 2.18709e-05 -5.70908e-22 2.43265e-05)
(2.27706e-05 -1.82677e-06 3.7796e-20 1.94511e-05 3.90046e-21 2.19865e-05)
(1.70402e-05 -8.96855e-07 1.25048e-20 1.4711e-05 -3.95965e-22 1.63789e-05)
(0.000496346 9.71398e-06 -4.75312e-22 0.000384908 2.5665e-21 0.000440622)
(0.000474422 2.08632e-05 -2.45289e-21 0.000373854 -2.30252e-20 0.000424062)
(0.000448464 3.0345e-05 -7.9927e-20 0.00036371 -3.77182e-20 0.000406042)
(0.000418923 3.72174e-05 1.76044e-20 0.000353455 2.76677e-20 0.000386181)
(0.000386509 4.10521e-05 -5.21066e-21 0.000341834 1.88071e-21 0.000364166)
(0.000352432 4.19431e-05 4.22954e-20 0.000328122 1.44674e-20 0.000340297)
(0.000318132 4.03146e-05 -2.8102e-21 0.000311983 1.39981e-20 0.000315082)
(0.000284954 3.68706e-05 1.78856e-20 0.000293644 -6.28014e-21 0.000289324)
(0.000253677 3.23346e-05 -1.55341e-20 0.000273586 5.07492e-21 0.000263667)
(0.000224715 2.73118e-05 -2.84358e-20 0.00025237 8.22759e-21 0.00023858)
(0.000198373 2.22959e-05 7.50002e-21 0.000230672 3.75725e-21 0.000214551)
(0.000174792 1.76091e-05 1.23857e-20 0.000209274 -5.05829e-21 0.000192053)
(0.000153958 1.34454e-05 1.1645e-20 0.000188761 -2.2274e-20 0.000171366)
(0.000135817 9.87483e-06 1.63274e-20 0.000169682 5.73101e-21 0.000152739)
(0.000120217 6.88154e-06 -1.50015e-20 0.000152375 8.46278e-21 0.000136264)
(0.000106887 4.3795e-06 5.58584e-20 0.000136918 2.44688e-21 0.000121848)
(9.54941e-05 2.26892e-06 -1.31286e-20 0.000123181 7.78295e-21 0.00010926)
(8.5652e-05 4.50376e-07 2.59273e-20 0.000110843 -1.01886e-20 9.8147e-05)
(7.69011e-05 -1.1397e-06 3.98119e-20 9.93997e-05 2.54443e-21 8.80277e-05)
(6.86674e-05 -2.49359e-06 7.94913e-22 8.81514e-05 -8.96521e-21 7.8274e-05)
(6.06071e-05 -3.48994e-06 -1.09408e-20 7.67833e-05 -7.1626e-21 6.85518e-05)
(5.29789e-05 -4.0472e-06 -1.00215e-20 6.58875e-05 1.52152e-21 5.92602e-05)
(4.61462e-05 -4.25032e-06 2.02497e-21 5.61121e-05 1.32649e-22 5.09166e-05)
(4.02084e-05 -4.22199e-06 4.19606e-21 4.76303e-05 1.96543e-22 4.36751e-05)
(3.50248e-05 -4.03079e-06 1.71038e-21 4.02856e-05 -3.11317e-23 3.73784e-05)
(3.04612e-05 -3.71999e-06 4.82344e-21 3.39405e-05 1.12653e-22 3.18799e-05)
(2.64811e-05 -3.33784e-06 1.90143e-20 2.85551e-05 1.75425e-21 2.71384e-05)
(2.3016e-05 -2.92262e-06 -1.08274e-19 2.40134e-05 -7.87167e-21 2.30675e-05)
(2.00108e-05 -2.50755e-06 -4.3254e-20 2.01616e-05 -1.74141e-21 1.95847e-05)
(1.74313e-05 -2.08896e-06 -2.37806e-21 1.68633e-05 -4.52753e-21 1.66174e-05)
(1.57814e-05 -1.76198e-06 -6.11865e-20 1.45008e-05 -7.13541e-21 1.45986e-05)
(0.000427305 -2.87136e-06 -3.23466e-20 0.000330251 -2.46778e-20 0.000378779)
(0.000414988 6.90896e-06 -1.85905e-20 0.000321477 -1.32575e-20 0.000368211)
(0.000398158 1.62013e-05 -4.71349e-21 0.000312847 -1.22615e-21 0.000355445)
(0.000378272 2.42981e-05 1.16547e-20 0.000305235 2.98522e-20 0.000341738)
(0.000355411 3.03744e-05 2.64591e-20 0.000297665 1.7095e-20 0.000326531)
(0.000330237 3.40415e-05 1.87713e-20 0.000289201 -1.22519e-20 0.000309709)
(0.000303817 3.53851e-05 -2.5584e-20 0.000279443 -1.59237e-20 0.000291639)
(0.000277106 3.46747e-05 5.34832e-20 0.000267971 2.38601e-21 0.000272549)
(0.000251013 3.23981e-05 -7.81087e-21 0.000254766 -2.39949e-20 0.000252898)
(0.000226074 2.90806e-05 4.56269e-20 0.000240046 9.80112e-21 0.000233077)
(0.000202597 2.51796e-05 3.51441e-20 0.0002241 4.87715e-21 0.000213372)
(0.00018085 2.10929e-05 -1.67195e-20 0.000207349 -6.99197e-21 0.00019412)
(0.000160976 1.71045e-05 2.86557e-21 0.000190343 -7.83051e-21 0.000175681)
(0.000143051 1.3416e-05 -4.29313e-20 0.000173565 1.96742e-21 0.000158328)
(0.000127082 1.01303e-05 -6.71031e-21 0.000157464 -5.13941e-21 0.000142292)
(0.000113015 7.27801e-06 3.00389e-20 0.000142383 1.53962e-21 0.000127718)
(0.000100714 4.82941e-06 6.00185e-22 0.0001285 -8.4383e-21 0.000114627)
(8.99759e-05 2.72746e-06 2.62057e-20 0.000115818 4.95133e-21 0.000102921)
(8.05289e-05 9.02868e-07 -2.94327e-20 0.000104165 -4.96203e-21 9.23753e-05)
(7.20358e-05 -6.87032e-07 -2.24427e-20 9.31996e-05 -4.97604e-21 8.26544e-05)
(6.40998e-05 -2.03588e-06 -4.44926e-20 8.2468e-05 1.44922e-21 7.33358e-05)
(5.647e-05 -3.05429e-06 -3.34952e-20 7.17567e-05 5.15047e-21 6.41863e-05)
(4.92883e-05 -3.67029e-06 -3.5979e-21 6.14681e-05 7.96053e-22 5.54622e-05)
(4.28431e-05 -3.94161e-06 -1.27449e-20 5.21523e-05 5.66213e-22 4.75862e-05)
(3.7242e-05 -3.97207e-06 -4.27111e-22 4.40091e-05 -3.02942e-22 4.07281e-05)
(3.23971e-05 -3.82851e-06 -1.62025e-21 3.69508e-05 -1.49586e-22 3.47979e-05)
(2.82084e-05 -3.55355e-06 -6.08212e-22 3.0878e-05 -3.00834e-22 2.96893e-05)
(2.46567e-05 -3.19184e-06 1.33564e-20 2.57626e-05 -6.92148e-23 2.53813e-05)
(2.17884e-05 -2.78617e-06 1.94872e-22 2.1612e-05 3.4239e-22 2.19061e-05)
(1.96215e-05 -2.36738e-06 8.77728e-20 1.84246e-05 7.95318e-21 1.92578e-05)
(1.81649e-05 -1.95368e-06 -1.39961e-19 1.61458e-05 -9.80176e-21 1.7405e-05)
(1.74205e-05 -1.55518e-06 7.79456e-21 1.47161e-05 6.62077e-21 1.63272e-05)
(0.000350031 4.89008e-06 -5.76844e-20 0.000270936 -5.89937e-21 0.000310456)
(0.000336963 1.27092e-05 8.25819e-20 0.000264124 6.55729e-20 0.000300501)
(0.000321411 1.96528e-05 5.07975e-20 0.000258246 7.22259e-21 0.000289828)
(0.000303438 2.4998e-05 3.65669e-20 0.000252532 -7.08022e-21 0.000277981)
(0.000283691 2.84205e-05 -5.74448e-20 0.000246335 -2.56251e-20 0.000265001)
(0.000262971 2.99846e-05 -3.58113e-20 0.000239334 -6.86386e-21 0.000251157)
(0.000241965 2.98674e-05 -7.24772e-20 0.000231127 -2.33113e-20 0.000236549)
(0.000221314 2.84177e-05 -7.44196e-20 0.000221597 3.90249e-21 0.000221458)
(0.000201363 2.60213e-05 -3.62709e-20 0.000210789 -1.21127e-20 0.000206086)
(0.000182312 2.30193e-05 1.09945e-20 0.000198824 7.48038e-22 0.000190583)
(0.0001644 1.97255e-05 -6.79707e-21 0.000185968 1.76159e-21 0.000175197)
(0.00014776 1.638e-05 -1.90964e-20 0.000172598 7.76143e-21 0.000160194)
(0.000132476 1.31644e-05 2.10812e-20 0.000159056 4.26201e-21 0.000145779)
(0.000118623 1.01973e-05 -2.5748e-20 0.000145733 -7.1922e-21 0.000132187)
(0.000106198 7.53999e-06 -2.78009e-21 0.000132924 -6.47005e-21 0.000119565)
(9.51408e-05 5.19509e-06 8.18917e-21 0.000120836 -6.01744e-21 0.000107987)
(8.53345e-05 3.14222e-06 2.52008e-20 0.00010954 -1.08642e-20 9.74302e-05)
(7.65889e-05 1.34322e-06 -1.06991e-20 9.89553e-05 5.17794e-22 8.77593e-05)
(6.86576e-05 -2.27003e-07 -6.19039e-21 8.88666e-05 1.19449e-20 7.87449e-05)
(6.12624e-05 -1.56258e-06 -6.74079e-21 7.89859e-05 1.11111e-20 7.01053e-05)
(5.42034e-05 -2.59391e-06 2.48075e-20 6.91594e-05 3.38652e-21 6.16652e-05)
(4.75713e-05 -3.25968e-06 -3.00156e-22 5.96933e-05 3.13294e-21 5.36111e-05)
(4.15792e-05 -3.59784e-06 8.49917e-21 5.10355e-05 1.36169e-21 4.62728e-05)
(3.63108e-05 -3.69326e-06 -1.12961e-21 4.33783e-05 1.43625e-22 3.97999e-05)
(3.16916e-05 -3.60981e-06 -9.09214e-22 3.66678e-05 3.44024e-23 3.41282e-05)
(2.76253e-05 -3.39017e-06 -3.29232e-21 3.08191e-05 -1.25624e-22 2.91606e-05)
(2.40751e-05 -3.07821e-06 -1.38888e-20 2.57985e-05 -7.82333e-22 2.48613e-05)
(2.10331e-05 -2.71555e-06 -3.73168e-20 2.15774e-05 -2.32261e-21 2.12123e-05)
(1.84732e-05 -2.33007e-06 2.53945e-21 1.8076e-05 -5.70869e-22 1.81666e-05)
(1.64822e-05 -1.94481e-06 1.26609e-19 1.53043e-05 1.68073e-20 1.57725e-05)
(1.50736e-05 -1.55086e-06 9.13093e-20 1.32261e-05 2.51953e-21 1.40312e-05)
(0.000287191 1.00532e-05 -7.62456e-20 0.000224652 -4.28635e-20 0.000255894)
(0.000274838 1.603e-05 -5.81291e-20 0.000220013 -1.01577e-20 0.000247432)
(0.000260515 2.07286e-05 4.32546e-20 0.000215625 3.56098e-20 0.000238068)
(0.000244866 2.38746e-05 7.08813e-20 0.000211056 1.69055e-20 0.000227949)
(0.00022846 2.55186e-05 1.17862e-20 0.000206016 -1.06271e-21 0.00021724)
(0.000211788 2.57759e-05 5.28209e-20 0.000200115 3.61855e-20 0.000205952)
(0.000195322 2.49067e-05 6.84494e-20 0.000193216 2.75427e-20 0.000194267)
(0.000179295 2.31994e-05 -2.46331e-20 0.000185289 -7.54533e-21 0.000182296)
(0.000163838 2.09112e-05 1.48711e-20 0.00017635 7.12937e-23 0.000170103)
(0.000149105 1.82826e-05 -5.0998e-21 0.000166525 2.41885e-21 0.000157823)
(0.000135202 1.55057e-05 3.76225e-20 0.000156067 2.04892e-21 0.000145644)
(0.000122217 1.27408e-05 -1.36358e-20 0.000145204 -2.78048e-22 0.00013372)
(0.000110224 1.0101e-05 -3.63995e-20 0.000134223 1.40306e-20 0.000122233)
(9.92699e-05 7.66169e-06 -1.36867e-20 0.000123388 1.27072e-21 0.000111335)
(8.93399e-05 5.45303e-06 -3.19265e-20 0.00011289 5.18328e-21 0.000101119)
(8.03681e-05 3.4795e-06 -3.40323e-20 0.000102824 -5.14864e-22 9.15994e-05)
(7.22403e-05 1.72625e-06 -3.68982e-20 9.31878e-05 7.21147e-21 8.27166e-05)
(6.47926e-05 1.84521e-07 6.00022e-20 8.38674e-05 -6.1357e-21 7.43334e-05)
(5.7835e-05 -1.13327e-06 4.6765e-20 7.46917e-05 -1.47259e-21 6.62703e-05)
(5.12358e-05 -2.17114e-06 7.94805e-21 6.55869e-05 -5.51448e-21 5.84256e-05)
(4.50547e-05 -2.87674e-06 3.09356e-20 5.67926e-05 -3.34222e-21 5.09414e-05)
(3.94436e-05 -3.27129e-06 7.08123e-21 4.86684e-05 -1.76087e-21 4.40715e-05)
(3.44783e-05 -3.42319e-06 2.07209e-21 4.14067e-05 3.71241e-22 3.79588e-05)
(3.01128e-05 -3.39096e-06 -1.53404e-22 3.49981e-05 1.31721e-22 3.2577e-05)
(2.62773e-05 -3.21629e-06 -1.96407e-22 2.93926e-05 1.82378e-22 2.78621e-05)
(2.29486e-05 -2.94062e-06 6.95284e-21 2.45765e-05 7.44869e-22 2.37947e-05)
(2.01413e-05 -2.60486e-06 9.96696e-21 2.05448e-05 1.3902e-21 2.03827e-05)
(1.78692e-05 -2.23845e-06 2.02504e-20 1.72827e-05 1.53285e-21 1.76224e-05)
(1.62028e-05 -1.86455e-06 4.52683e-20 1.48007e-05 -1.54803e-21 1.55492e-05)
(1.51251e-05 -1.47668e-06 -1.61015e-19 1.30401e-05 -2.07935e-20 1.41341e-05)
(0.000236306 1.31738e-05 1.86988e-20 0.000188566 1.02106e-20 0.000212445)
(0.000224771 1.73039e-05 2.66513e-20 0.000185152 -1.48274e-20 0.00020496)
(0.000212245 2.01678e-05 -9.09181e-20 0.000181759 -4.79701e-20 0.000196993)
(0.00019912 2.18035e-05 -7.45524e-20 0.000178104 -7.58136e-22 0.000188612)
(0.000185777 2.22925e-05 1.36989e-20 0.000173862 -1.38213e-21 0.000179818)
(0.000172568 2.18286e-05 6.38944e-20 0.000168871 -1.07508e-20 0.000170715)
(0.000159641 2.06338e-05 -1.76833e-20 0.00016306 4.21727e-21 0.000161352)
(0.000147056 1.8902e-05 -1.0115e-20 0.000156384 -8.75022e-22 0.000151725)
(0.00013494 1.68191e-05 -2.5497e-21 0.000148909 -4.31007e-21 0.000141928)
(0.000123357 1.45373e-05 -1.31756e-20 0.000140778 -3.31869e-22 0.000132074)
(0.000112369 1.21868e-05 2.8465e-20 0.000132125 3.73952e-21 0.000122253)
(0.000102053 9.86992e-06 5.60835e-20 0.000123162 1.41663e-20 0.000112613)
(9.24582e-05 7.66454e-06 8.62844e-21 0.00011408 4.18948e-21 0.000103274)
(8.36138e-05 5.61485e-06 3.9814e-20 0.000105065 4.641e-21 9.4343e-05)
(7.55021e-05 3.74511e-06 1.7185e-20 9.62284e-05 5.16032e-21 8.58663e-05)
(6.80555e-05 2.05847e-06 2.82264e-20 8.76024e-05 1.9928e-21 7.78272e-05)
(6.11605e-05 5.60726e-07 -3.96261e-20 7.91292e-05 -7.6163e-21 7.01417e-05)
(5.46947e-05 -7.31197e-07 -6.24701e-21 7.07235e-05 -1.01221e-20 6.27073e-05)
(4.85889e-05 -1.76816e-06 -2.37599e-20 6.2385e-05 -1.97282e-22 5.54881e-05)
(4.28777e-05 -2.50312e-06 -3.32581e-20 5.43006e-05 -2.91517e-22 4.85909e-05)
(3.76716e-05 -2.94697e-06 -1.52436e-20 4.67646e-05 -5.13025e-22 4.22153e-05)
(3.30311e-05 -3.15214e-06 3.54142e-21 3.99588e-05 -3.55746e-22 3.64884e-05)
(2.89251e-05 -3.17132e-06 1.74954e-21 3.39028e-05 -7.08775e-23 3.14064e-05)
(2.5297e-05 -3.04453e-06 1.74901e-21 2.85689e-05 4.65274e-22 2.69237e-05)
(2.21204e-05 -2.81105e-06 -2.12765e-22 2.3947e-05 -4.27431e-22 2.30211e-05)
(1.94029e-05 -2.51034e-06 -2.33914e-21 2.00363e-05 9.88012e-22 1.97029e-05)
(1.71432e-05 -2.17114e-06 -2.60181e-21 1.68052e-05 -3.87977e-21 1.69537e-05)
(1.54095e-05 -1.8149e-06 -7.88546e-20 1.42633e-05 -3.76261e-21 1.48104e-05)
(1.42357e-05 -1.43979e-06 7.60401e-21 1.23984e-05 1.02179e-20 1.32944e-05)
(0.000194774 1.45295e-05 -1.02721e-19 0.000159765 -4.45666e-20 0.000177269)
(0.00018465 1.71221e-05 2.16259e-20 0.000157228 3.14317e-20 0.00017093)
(0.000174062 1.87e-05 5.54276e-20 0.000154576 9.61897e-21 0.000164319)
(0.000163299 1.93222e-05 -6.71866e-20 0.000151525 -2.82462e-20 0.000157411)
(0.000152626 1.91374e-05 -6.66757e-20 0.00014791 -6.86972e-21 0.000150264)
(0.000142142 1.83208e-05 3.80058e-20 0.000143655 9.35127e-21 0.000142898)
(0.00013188 1.70222e-05 2.00113e-20 0.000138694 -4.35602e-22 0.00013529)
(0.000121904 1.53825e-05 -3.41426e-20 0.000133019 -1.86899e-21 0.000127463)
(0.000112255 1.35198e-05 2.96386e-20 0.000126719 1.33061e-21 0.000119491)
(0.000102983 1.15402e-05 -2.091e-20 0.000119866 -1.00639e-20 0.000111429)
(9.41476e-05 9.53143e-06 5.04574e-20 0.000112599 -9.94348e-21 0.000103378)
(8.57976e-05 7.56478e-06 2.07052e-20 0.000105057 -3.70076e-21 9.54315e-05)
(7.79676e-05 5.68884e-06 -2.39069e-21 9.73812e-05 -8.32049e-21 8.76777e-05)
(7.06695e-05 3.93975e-06 7.79464e-21 8.96784e-05 -3.58683e-21 8.01758e-05)
(6.38723e-05 2.33547e-06 -7.6516e-21 8.2e-05 -5.05712e-21 7.29366e-05)
(5.75131e-05 8.93748e-07 -2.33983e-21 7.43393e-05 5.36638e-21 6.59264e-05)
(5.15259e-05 -3.63146e-07 -4.83134e-20 6.66783e-05 5.57591e-21 5.91035e-05)
(4.58758e-05 -1.39142e-06 3.74925e-22 5.90514e-05 3.23632e-21 5.24679e-05)
(4.05947e-05 -2.14687e-06 2.29896e-20 5.1624e-05 3.62044e-21 4.61155e-05)
(3.57597e-05 -2.63111e-06 3.2564e-22 4.4635e-05 1.5853e-21 4.02018e-05)
(3.14219e-05 -2.88358e-06 -4.24746e-21 3.82565e-05 -1.04863e-22 3.48422e-05)
(2.75636e-05 -2.94979e-06 -2.36268e-21 3.2532e-05 -9.5531e-23 3.00516e-05)
(2.41428e-05 -2.86717e-06 7.5323e-21 2.74558e-05 -2.8784e-23 2.58043e-05)
(2.11402e-05 -2.6724e-06 -5.12755e-21 2.30315e-05 -5.32244e-22 2.20914e-05)
(1.85696e-05 -2.40317e-06 3.75474e-20 1.92706e-05 4.73993e-21 1.89266e-05)
(1.64418e-05 -2.08803e-06 -8.72922e-20 1.61623e-05 -7.57116e-21 1.631e-05)
(1.48204e-05 -1.74799e-06 1.29848e-19 1.3723e-05 1.0154e-20 1.42775e-05)
(1.37382e-05 -1.38339e-06 6.19059e-20 1.19442e-05 9.6549e-21 1.28506e-05)
(0.00016117 1.46018e-05 5.72436e-21 0.000136541 3.85628e-21 0.000148848)
(0.000152552 1.60938e-05 -3.59309e-20 0.000134613 -1.48915e-20 0.000143582)
(0.0001438 1.6784e-05 4.59005e-21 0.000132421 2.12175e-20 0.000138108)
(0.000135126 1.67896e-05 3.70612e-20 0.000129816 8.2767e-21 0.000132466)
(0.000126586 1.62508e-05 -4.18117e-20 0.00012671 -1.27299e-20 0.000126647)
(0.000118183 1.52849e-05 7.69376e-21 0.000123024 7.93249e-22 0.000120605)