/*--------------------------------*- C++ -*----------------------------------*\
| =========                 |                                                 |
| \\      /  F ield         | OpenFOAM: The Open Source CFD Toolbox           |
|  \\    /   O peration     | Version:  2306                                  |
|   \\  /    A nd           | Website:  www.openfoam.com                      |
|    \\/     M anipulation  |                                                 |
\*---------------------------------------------------------------------------*/
FoamFile
{
    version     2.0;
    format      ascii;
    arch        "LSB;label=32;scalar=64";
    class       volScalarField;
    location    "275";
    object      turbulenceProperties:nuEff;
}
// * * * * * * * * * * * * * * * * * * * * * * * * * * * * * * * * * * * * * //

dimensions      [0 2 -1 0 0 0 0];

internalField   nonuniform List<scalar> 
1340
(
1.69663e-05
1.80966e-05
2.07878e-05
2.54752e-05
3.3217e-05
4.55609e-05
6.44328e-05
9.13596e-05
0.00012791
0.000177133
0.000246216
0.000349297
0.00051168
0.000783049
0.00125163
0.00212698
0.00377886
0.00733598
0.014729
0.0324785
0.0663195
0.0934697
0.105028
0.108437
0.109379
0.109475
0.108979
0.107978
1.59104e-05
1.60209e-05
1.59586e-05
1.58175e-05
1.56245e-05
1.53902e-05
1.5124e-05
1.48294e-05
1.44956e-05
1.41196e-05
1.36765e-05
1.31623e-05
1.25481e-05
1.18433e-05
1.10739e-05
1.04204e-05
1.00541e-05
1.00015e-05
1.00092e-05
0.000103631
0.000549547
0.00416496
0.014122
0.0287249
0.043732
0.0550675
0.0618307
0.065613
0.0680112
1.61415e-05
1.61275e-05
1.61322e-05
1.61471e-05
1.61667e-05
1.61907e-05
1.622e-05
1.62528e-05
1.62899e-05
1.63308e-05
1.63773e-05
1.64306e-05
1.64943e-05
1.65717e-05
1.66712e-05
1.67987e-05
1.698e-05
1.71734e-05
1.74359e-05
1.71567e-05
1.72477e-05
1.24842e-05
9.35905e-05
0.000800034
0.00302658
0.00755038
0.0142605
0.022443
0.0311635
1.61001e-05
1.61015e-05
1.61024e-05
1.61002e-05
1.60975e-05
1.6094e-05
1.60903e-05
1.60868e-05
1.60834e-05
1.60801e-05
1.60766e-05
1.60729e-05
1.60689e-05
1.60639e-05
1.60588e-05
1.60534e-05
1.60477e-05
1.60409e-05
1.60346e-05
1.60278e-05
1.60301e-05
1.60229e-05
1.60821e-05
1.59995e-05
1.59485e-05
1.52215e-05
1.41753e-05
0.000236292
0.00105479
0.00305098
1.61091e-05
1.61069e-05
1.6105e-05
1.6104e-05
1.61037e-05
1.61037e-05
1.61036e-05
1.61039e-05
1.61045e-05
1.61054e-05
1.61067e-05
1.61082e-05
1.61101e-05
1.61123e-05
1.61147e-05
1.61175e-05
1.61205e-05
1.6124e-05
1.61278e-05
1.61327e-05
1.6137e-05
1.61502e-05
1.61299e-05
1.62725e-05
1.56953e-05
1.87067e-05
1.0583e-05
3.55772e-05
0.000255293
0.000738168
1.61062e-05
1.61059e-05
1.61046e-05
1.61033e-05
1.61023e-05
1.61017e-05
1.61013e-05
1.61008e-05
1.61006e-05
1.61004e-05
1.61004e-05
1.61004e-05
1.61006e-05
1.61007e-05
1.6101e-05
1.61013e-05
1.61015e-05
1.61016e-05
1.61017e-05
1.61013e-05
1.61013e-05
1.61016e-05
1.6102e-05
1.61037e-05
1.61033e-05
1.61123e-05
1.60951e-05
1.61986e-05
1.56035e-05
1.42049e-05
1.00029e-05
1.61054e-05
1.61053e-05
1.61041e-05
1.6103e-05
1.61021e-05
1.61016e-05
1.61012e-05
1.6101e-05
1.61009e-05
1.61009e-05
1.61009e-05
1.61009e-05
1.61011e-05
1.61013e-05
1.61017e-05
1.61021e-05
1.61026e-05
1.61032e-05
1.61038e-05
1.61046e-05
1.61056e-05
1.61069e-05
1.61086e-05
1.61107e-05
1.61133e-05
1.61167e-05
1.61208e-05
1.61256e-05
1.61496e-05
1.55241e-05
1.34055e-05
1.61043e-05
1.61044e-05
1.61035e-05
1.61024e-05
1.61016e-05
1.61012e-05
1.61009e-05
1.61007e-05
1.61006e-05
1.61007e-05
1.61008e-05
1.61009e-05
1.6101e-05
1.6101e-05
1.61011e-05
1.61012e-05
1.61013e-05
1.61014e-05
1.61016e-05
1.61017e-05
1.61019e-05
1.6102e-05
1.61023e-05
1.61025e-05
1.61028e-05
1.61029e-05
1.61034e-05
1.61006e-05
1.61116e-05
1.60772e-05
1.63141e-05
1.6102e-05
1.61035e-05
1.61038e-05
1.61031e-05
1.61021e-05
1.61014e-05
1.6101e-05
1.61007e-05
1.61006e-05
1.61005e-05
1.61006e-05
1.61007e-05
1.61008e-05
1.6101e-05
1.61011e-05
1.61012e-05
1.61012e-05
1.61012e-05
1.61013e-05
1.61015e-05
1.61017e-05
1.61019e-05
1.61022e-05
1.61027e-05
1.61034e-05
1.61043e-05
1.61053e-05
1.61067e-05
1.61082e-05
1.61106e-05
1.61069e-05
1.61252e-05
1.61029e-05
1.61032e-05
1.61026e-05
1.61018e-05
1.61012e-05
1.61008e-05
1.61006e-05
1.61005e-05
1.61004e-05
1.61004e-05
1.61005e-05
1.61006e-05
1.61008e-05
1.6101e-05
1.61011e-05
1.61013e-05
1.61014e-05
1.61014e-05
1.61014e-05
1.61014e-05
1.61015e-05
1.61016e-05
1.61018e-05
1.6102e-05
1.61024e-05
1.61028e-05
1.61032e-05
1.61039e-05
1.61036e-05
1.61086e-05
1.60889e-05
1.61028e-05
1.61023e-05
1.61015e-05
1.6101e-05
1.61006e-05
1.61005e-05
1.61003e-05
1.61002e-05
1.61002e-05
1.61003e-05
1.61004e-05
1.61006e-05
1.61008e-05
1.61009e-05
1.61011e-05
1.61013e-05
1.61014e-05
1.61015e-05
1.61016e-05
1.61016e-05
1.61017e-05
1.61018e-05
1.61021e-05
1.61024e-05
1.61028e-05
1.61033e-05
1.61042e-05
1.61042e-05
1.61087e-05
1.60933e-05
1.6102e-05
1.61012e-05
1.61008e-05
1.61005e-05
1.61003e-05
1.61002e-05
1.61001e-05
1.61e-05
1.61001e-05
1.61002e-05
1.61003e-05
1.61005e-05
1.61007e-05
1.61009e-05
1.61011e-05
1.61013e-05
1.61015e-05
1.61016e-05
1.61017e-05
1.61018e-05
1.61018e-05
1.61019e-05
1.61021e-05
1.61023e-05
1.61026e-05
1.61031e-05
1.61033e-05
1.61049e-05
1.61014e-05
1.6101e-05
1.61006e-05
1.61003e-05
1.61002e-05
1.61e-05
1.60999e-05
1.60998e-05
1.60998e-05
1.60999e-05
1.61e-05
1.61002e-05
1.61004e-05
1.61006e-05
1.61009e-05
1.61011e-05
1.61013e-05
1.61015e-05
1.61017e-05
1.61018e-05
1.61019e-05
1.61019e-05
1.6102e-05
1.61021e-05
1.61024e-05
1.61027e-05
1.61031e-05
1.61035e-05
1.61046e-05
1.61004e-05
1.61002e-05
1.61e-05
1.60999e-05
1.60997e-05
1.60996e-05
1.60996e-05
1.60997e-05
1.60998e-05
1.61e-05
1.61002e-05
1.61004e-05
1.61006e-05
1.61009e-05
1.61011e-05
1.61013e-05
1.61016e-05
1.61017e-05
1.61019e-05
1.61019e-05
1.61019e-05
1.6102e-05
1.61021e-05
1.61023e-05
1.61026e-05
1.61029e-05
1.61039e-05
1.61e-05
1.60998e-05
1.60997e-05
1.60995e-05
1.60994e-05
1.60994e-05
1.60994e-05
1.60995e-05
1.60997e-05
1.60999e-05
1.61001e-05
1.61004e-05
1.61006e-05
1.61009e-05
1.61011e-05
1.61014e-05
1.61016e-05
1.61018e-05
1.61019e-05
1.61019e-05
1.61019e-05
1.6102e-05
1.61021e-05
1.61023e-05
1.61026e-05
1.61031e-05
1.60998e-05
1.60997e-05
1.60995e-05
1.60994e-05
1.60993e-05
1.60992e-05
1.60992e-05
1.60993e-05
1.60995e-05
1.60996e-05
1.60999e-05
1.61001e-05
1.61004e-05
1.61007e-05
1.61009e-05
1.61012e-05
1.61015e-05
1.61017e-05
1.61018e-05
1.61019e-05
1.6102e-05
1.6102e-05
1.6102e-05
1.61022e-05
1.61023e-05
1.61026e-05
1.60995e-05
1.60993e-05
1.60992e-05
1.60991e-05
1.6099e-05
1.60991e-05
1.60991e-05
1.60993e-05
1.60994e-05
1.60996e-05
1.60999e-05
1.61001e-05
1.61004e-05
1.61007e-05
1.6101e-05
1.61013e-05
1.61015e-05
1.61017e-05
1.61018e-05
1.61019e-05
1.6102e-05
1.6102e-05
1.6102e-05
1.61022e-05
1.61023e-05
1.60993e-05
1.60992e-05
1.6099e-05
1.60989e-05
1.60989e-05
1.60989e-05
1.60989e-05
1.60991e-05
1.60992e-05
1.60994e-05
1.60996e-05
1.60999e-05
1.61002e-05
1.61005e-05
1.61008e-05
1.61011e-05
1.61013e-05
1.61016e-05
1.61017e-05
1.61019e-05
1.6102e-05
1.6102e-05
1.6102e-05
1.61021e-05
1.61022e-05
1.6099e-05
1.60988e-05
1.60988e-05
1.60987e-05
1.60987e-05
1.60988e-05
1.60989e-05
1.6099e-05
1.60992e-05
1.60994e-05
1.60997e-05
1.61e-05
1.61003e-05
1.61006e-05
1.61009e-05
1.61011e-05
1.61014e-05
1.61016e-05
1.61018e-05
1.61019e-05
1.6102e-05
1.6102e-05
1.6102e-05
1.61021e-05
1.60988e-05
1.60987e-05
1.60986e-05
1.60986e-05
1.60986e-05
1.60986e-05
1.60987e-05
1.60989e-05
1.60991e-05
1.60993e-05
1.60995e-05
1.60998e-05
1.61001e-05
1.61004e-05
1.61007e-05
1.61009e-05
1.61012e-05
1.61014e-05
1.61016e-05
1.61018e-05
1.61019e-05
1.6102e-05
1.6102e-05
1.6102e-05
1.60987e-05
1.60985e-05
1.60985e-05
1.60984e-05
1.60985e-05
1.60985e-05
1.60986e-05
1.60987e-05
1.60989e-05
1.60991e-05
1.60993e-05
1.60996e-05
1.60999e-05
1.61002e-05
1.61004e-05
1.61007e-05
1.6101e-05
1.61012e-05
1.61014e-05
1.61016e-05
1.61018e-05
1.61019e-05
1.6102e-05
1.6102e-05
1.60984e-05
1.60983e-05
1.60983e-05
1.60983e-05
1.60984e-05
1.60985e-05
1.60986e-05
1.60987e-05
1.60989e-05
1.60991e-05
1.60994e-05
1.60996e-05
1.60999e-05
1.61002e-05
1.61005e-05
1.61008e-05
1.6101e-05
1.61013e-05
1.61015e-05
1.61017e-05
1.61018e-05
1.6102e-05
1.6102e-05
1.60983e-05
1.60982e-05
1.60982e-05
1.60982e-05
1.60982e-05
1.60983e-05
1.60984e-05
1.60986e-05
1.60987e-05
1.60989e-05
1.60992e-05
1.60994e-05
1.60997e-05
1.61e-05
1.61003e-05
1.61005e-05
1.61008e-05
1.61011e-05
1.61013e-05
1.61015e-05
1.61017e-05
1.61019e-05
1.6102e-05
1.60981e-05
1.60981e-05
1.60981e-05
1.60981e-05
1.60982e-05
1.60983e-05
1.60984e-05
1.60985e-05
1.60987e-05
1.6099e-05
1.60992e-05
1.60995e-05
1.60998e-05
1.61e-05
1.61003e-05
1.61006e-05
1.61008e-05
1.61011e-05
1.61013e-05
1.61016e-05
1.61017e-05
1.61019e-05
1.60979e-05
1.60979e-05
1.60979e-05
1.6098e-05
1.6098e-05
1.60981e-05
1.60982e-05
1.60984e-05
1.60985e-05
1.60988e-05
1.6099e-05
1.60993e-05
1.60995e-05
1.60998e-05
1.61e-05
1.61003e-05
1.61006e-05
1.61009e-05
1.61011e-05
1.61014e-05
1.61016e-05
1.61018e-05
1.60978e-05
1.60978e-05
1.60978e-05
1.60978e-05
1.60979e-05
1.60979e-05
1.6098e-05
1.60982e-05
1.60983e-05
1.60986e-05
1.60988e-05
1.6099e-05
1.60993e-05
1.60995e-05
1.60998e-05
1.61001e-05
1.61004e-05
1.61006e-05
1.61009e-05
1.61012e-05
1.61014e-05
1.61016e-05
1.60976e-05
1.60976e-05
1.60977e-05
1.60977e-05
1.60978e-05
1.60979e-05
1.6098e-05
1.60981e-05
1.60983e-05
1.60986e-05
1.60988e-05
1.6099e-05
1.60993e-05
1.60996e-05
1.60998e-05
1.61001e-05
1.61004e-05
1.61007e-05
1.6101e-05
1.61012e-05
1.61014e-05
1.60974e-05
1.60975e-05
1.60975e-05
1.60975e-05
1.60976e-05
1.60977e-05
1.60978e-05
1.6098e-05
1.60981e-05
1.60983e-05
1.60986e-05
1.60988e-05
1.6099e-05
1.60993e-05
1.60996e-05
1.60998e-05
1.61001e-05
1.61004e-05
1.61007e-05
1.6101e-05
1.61012e-05
1.60973e-05
1.60973e-05
1.60973e-05
1.60974e-05
1.60974e-05
1.60975e-05
1.60976e-05
1.60977e-05
1.60979e-05
1.60981e-05
1.60983e-05
1.60985e-05
1.60988e-05
1.6099e-05
1.60993e-05
1.60996e-05
1.60999e-05
1.61002e-05
1.61005e-05
1.61007e-05
1.6101e-05
1.60971e-05
1.60971e-05
1.60972e-05
1.60972e-05
1.60973e-05
1.60974e-05
1.60975e-05
1.60977e-05
1.60979e-05
1.60981e-05
1.60983e-05
1.60985e-05
1.60987e-05
1.6099e-05
1.60993e-05
1.60996e-05
1.60999e-05
1.61002e-05
1.61005e-05
1.61008e-05
1.60969e-05
1.60969e-05
1.6097e-05
1.6097e-05
1.60971e-05
1.60972e-05
1.60973e-05
1.60974e-05
1.60976e-05
1.60978e-05
1.6098e-05
1.60982e-05
1.60984e-05
1.60987e-05
1.6099e-05
1.60993e-05
1.60996e-05
1.60999e-05
1.61002e-05
1.61005e-05
1.60967e-05
1.60967e-05
1.60968e-05
1.60968e-05
1.60969e-05
1.6097e-05
1.60972e-05
1.60973e-05
1.60975e-05
1.60977e-05
1.60979e-05
1.60981e-05
1.60984e-05
1.60986e-05
1.60989e-05
1.60992e-05
1.60995e-05
1.60999e-05
1.61002e-05
1.60965e-05
1.60965e-05
1.60965e-05
1.60966e-05
1.60967e-05
1.60968e-05
1.60969e-05
1.60971e-05
1.60972e-05
1.60974e-05
1.60976e-05
1.60978e-05
1.6098e-05
1.60983e-05
1.60986e-05
1.60989e-05
1.60992e-05
1.60995e-05
1.60998e-05
1.60962e-05
1.60962e-05
1.60963e-05
1.60963e-05
1.60964e-05
1.60965e-05
1.60966e-05
1.60967e-05
1.60969e-05
1.6097e-05
1.60972e-05
1.60974e-05
1.60977e-05
1.60979e-05
1.60982e-05
1.60985e-05
1.60988e-05
1.60991e-05
1.60994e-05
1.60959e-05
1.6096e-05
1.6096e-05
1.60961e-05
1.60962e-05
1.60963e-05
1.60964e-05
1.60965e-05
1.60967e-05
1.60968e-05
1.6097e-05
1.60972e-05
1.60975e-05
1.60977e-05
1.6098e-05
1.60983e-05
1.60987e-05
1.6099e-05
1.60956e-05
1.60956e-05
1.60957e-05
1.60957e-05
1.60958e-05
1.60959e-05
1.6096e-05
1.60961e-05
1.60963e-05
1.60964e-05
1.60966e-05
1.60968e-05
1.6097e-05
1.60973e-05
1.60975e-05
1.60979e-05
1.60982e-05
1.60985e-05
1.60952e-05
1.60953e-05
1.60953e-05
1.60953e-05
1.60954e-05
1.60955e-05
1.60956e-05
1.60957e-05
1.60958e-05
1.60959e-05
1.60961e-05
1.60963e-05
1.60965e-05
1.60968e-05
1.6097e-05
1.60973e-05
1.60976e-05
1.6098e-05
1.60948e-05
1.60949e-05
1.60949e-05
1.60949e-05
1.6095e-05
1.60951e-05
1.60952e-05
1.60953e-05
1.60954e-05
1.60956e-05
1.60958e-05
1.6096e-05
1.60962e-05
1.60964e-05
1.60967e-05
1.6097e-05
1.60974e-05
1.60944e-05
1.60944e-05
1.60944e-05
1.60944e-05
1.60945e-05
1.60946e-05
1.60946e-05
1.60947e-05
1.60949e-05
1.6095e-05
1.60952e-05
1.60953e-05
1.60956e-05
1.60958e-05
1.60961e-05
1.60964e-05
1.60938e-05
1.60938e-05
1.60939e-05
1.60939e-05
1.60939e-05
1.6094e-05
1.6094e-05
1.60941e-05
1.60942e-05
1.60943e-05
1.60945e-05
1.60947e-05
1.60949e-05
1.60951e-05
1.60954e-05
1.60957e-05
1.60933e-05
1.60932e-05
1.60933e-05
1.60933e-05
1.60933e-05
1.60934e-05
1.60934e-05
1.60935e-05
1.60936e-05
1.60938e-05
1.60939e-05
1.60941e-05
1.60943e-05
1.60946e-05
1.60949e-05
1.60926e-05
1.60926e-05
1.60926e-05
1.60926e-05
1.60926e-05
1.60926e-05
1.60927e-05
1.60928e-05
1.60929e-05
1.6093e-05
1.60931e-05
1.60933e-05
1.60935e-05
1.60938e-05
1.6094e-05
1.60919e-05
1.60919e-05
1.60918e-05
1.60918e-05
1.60918e-05
1.60919e-05
1.60919e-05
1.6092e-05
1.6092e-05
1.60922e-05
1.60923e-05
1.60925e-05
1.60927e-05
1.60929e-05
1.60931e-05
1.60911e-05
1.6091e-05
1.6091e-05
1.6091e-05
1.6091e-05
1.60911e-05
1.60911e-05
1.60912e-05
1.60913e-05
1.60914e-05
1.60916e-05
1.60917e-05
1.6092e-05
1.60922e-05
1.60902e-05
1.60902e-05
1.60902e-05
1.60901e-05
1.60902e-05
1.60902e-05
1.60902e-05
1.60903e-05
1.60904e-05
1.60905e-05
1.60906e-05
1.60908e-05
1.6091e-05
1.60913e-05
1.60893e-05
1.60893e-05
1.60893e-05
1.60893e-05
1.60892e-05
1.60893e-05
1.60893e-05
1.60894e-05
1.60895e-05
1.60896e-05
1.60897e-05
1.60899e-05
1.60901e-05
1.60903e-05
1.60884e-05
1.60884e-05
1.60883e-05
1.60883e-05
1.60883e-05
1.60884e-05
1.60884e-05
1.60885e-05
1.60886e-05
1.60888e-05
1.60889e-05
1.60891e-05
1.60893e-05
1.60875e-05
1.60874e-05
1.60874e-05
1.60874e-05
1.60874e-05
1.60875e-05
1.60875e-05
1.60876e-05
1.60877e-05
1.60878e-05
1.6088e-05
1.60882e-05
1.60884e-05
1.60865e-05
1.60865e-05
1.60865e-05
1.60865e-05
1.60865e-05
1.60866e-05
1.60866e-05
1.60867e-05
1.60868e-05
1.60869e-05
1.60871e-05
1.60873e-05
1.60875e-05
1.60856e-05
1.60856e-05
1.60856e-05
1.60856e-05
1.60856e-05
1.60856e-05
1.60857e-05
1.60858e-05
1.60859e-05
1.6086e-05
1.60862e-05
1.60863e-05
1.60865e-05
1.60847e-05
1.60846e-05
1.60846e-05
1.60847e-05
1.60847e-05
1.60848e-05
1.60848e-05
1.60849e-05
1.6085e-05
1.60852e-05
1.60854e-05
1.60855e-05
1.60837e-05
1.60837e-05
1.60837e-05
1.60837e-05
1.60837e-05
1.60837e-05
1.60838e-05
1.60839e-05
1.6084e-05
1.60841e-05
1.60842e-05
1.60844e-05
1.60826e-05
1.60826e-05
1.60825e-05
1.60825e-05
1.60825e-05
1.60825e-05
1.60826e-05
1.60826e-05
1.60827e-05
1.60828e-05
1.60829e-05
1.60814e-05
1.60813e-05
1.60812e-05
1.60812e-05
1.60811e-05
1.60811e-05
1.60811e-05
1.60811e-05
1.60812e-05
1.60813e-05
1.60814e-05
1.60799e-05
1.60797e-05
1.60796e-05
1.60795e-05
1.60795e-05
1.60794e-05
1.60794e-05
1.60794e-05
1.60795e-05
1.60795e-05
1.60782e-05
1.6078e-05
1.60779e-05
1.60777e-05
1.60776e-05
1.60775e-05
1.60775e-05
1.60775e-05
1.60775e-05
1.60775e-05
1.60764e-05
1.60762e-05
1.6076e-05
1.60758e-05
1.60757e-05
1.60756e-05
1.60755e-05
1.60755e-05
1.60754e-05
1.60755e-05
1.60746e-05
1.60744e-05
1.60742e-05
1.6074e-05
1.60739e-05
1.60738e-05
1.60737e-05
1.60736e-05
1.60736e-05
1.60736e-05
1.6073e-05
1.60728e-05
1.60727e-05
1.60726e-05
1.60725e-05
1.60724e-05
1.60723e-05
1.60723e-05
1.60722e-05
1.60722e-05
1.60718e-05
1.60718e-05
1.60717e-05
1.60717e-05
1.60717e-05
1.60716e-05
1.60716e-05
1.60716e-05
1.60716e-05
1.60716e-05
1.60717e-05
1.60717e-05
1.60718e-05
1.60719e-05
1.6072e-05
1.6072e-05
1.60721e-05
1.60722e-05
1.60723e-05
1.60725e-05
1.60727e-05
1.60729e-05
1.60731e-05
1.60732e-05
1.60734e-05
1.60735e-05
1.60738e-05
1.60741e-05
1.60744e-05
1.60747e-05
1.6075e-05
1.60753e-05
1.60755e-05
1.60757e-05
1.6076e-05
1.60764e-05
1.60769e-05
1.60773e-05
1.60777e-05
1.6078e-05
1.60784e-05
1.60787e-05
1.60787e-05
1.60793e-05
1.60799e-05
1.60804e-05
1.60809e-05
1.60814e-05
1.60818e-05
1.60821e-05
1.60826e-05
1.60833e-05
1.60839e-05
1.60845e-05
1.6085e-05
1.60855e-05
1.6086e-05
1.60862e-05
1.60869e-05
1.60876e-05
1.60882e-05
1.60888e-05
1.60893e-05
1.60899e-05
1.60892e-05
1.60899e-05
1.60906e-05
1.60913e-05
1.60919e-05
1.60925e-05
1.60931e-05
1.60914e-05
1.60921e-05
1.60928e-05
1.60935e-05
1.60941e-05
1.60947e-05
1.60953e-05
1.60933e-05
1.6094e-05
1.60947e-05
1.60953e-05
1.60959e-05
1.60965e-05
1.60971e-05
1.60948e-05
1.60954e-05
1.60961e-05
1.60967e-05
1.60973e-05
1.60979e-05
1.60984e-05
1.60959e-05
1.60966e-05
1.60972e-05
1.60979e-05
1.60985e-05
1.60991e-05
1.60973e-05
1.6098e-05
1.60988e-05
1.60995e-05
1.61002e-05
1.6101e-05
1.60996e-05
1.61006e-05
1.61016e-05
1.61026e-05
1.61036e-05
1.61046e-05
1.61051e-05
1.61064e-05
1.61077e-05
1.6109e-05
1.61102e-05
1.61098e-05
1.61111e-05
1.61125e-05
1.61138e-05
1.61151e-05
1.611e-05
1.61109e-05
1.61118e-05
1.61126e-05
1.61134e-05
1.61027e-05
1.61035e-05
1.61043e-05
1.61051e-05
1.6106e-05
1.60998e-05
1.61024e-05
1.61051e-05
1.61078e-05
1.61107e-05
1.61021e-05
1.61039e-05
1.61057e-05
1.61073e-05
1.61088e-05
)
;

boundaryField
{
    inlet
    {
        type            calculated;
        value           uniform 2e-05;
    }
    outlet
    {
        type            calculated;
        value           nonuniform List<scalar> 0();
    }
    walls
    {
        type            calculated;
        value           nonuniform List<scalar> 
28
(
0.000457546
0.00055965
0.000897651
0.0012181
0.00148012
0.00169071
0.00186263
0.00200526
0.00212566
0.00222949
0.0023211
0.0024042
0.00248112
0.00255393
0.00262331
0.00268924
0.00274844
0.00279452
0.00282703
0.00284927
0.00286431
0.00287343
0.00287749
0.002875
0.00286431
0.00284514
0.00281794
0.00278226
)
;
    }
    frontAndBack
    {
        type            empty;
    }
    procBoundary1to0
    {
        type            processor;
        value           nonuniform List<scalar> 
94
(
1.61015e-05
1.61015e-05
1.61024e-05
1.61024e-05
1.61024e-05
1.61024e-05
1.61017e-05
1.61017e-05
1.61008e-05
1.61008e-05
1.61003e-05
1.61003e-05
1.61001e-05
1.60997e-05
1.60997e-05
1.60995e-05
1.60991e-05
1.60991e-05
1.6099e-05
1.60988e-05
1.60985e-05
1.60985e-05
1.60984e-05
1.60981e-05
1.60981e-05
1.6098e-05
1.60978e-05
1.60976e-05
1.60976e-05
1.60975e-05
1.60973e-05
1.60971e-05
1.60971e-05
1.60969e-05
1.60967e-05
1.60967e-05
1.60964e-05
1.60962e-05
1.60959e-05
1.60959e-05
1.60956e-05
1.60952e-05
1.60948e-05
1.60948e-05
1.60944e-05
1.60939e-05
1.60933e-05
1.60933e-05
1.60926e-05
1.60919e-05
1.60911e-05
1.60911e-05
1.60903e-05
1.60894e-05
1.60884e-05
1.60884e-05
1.60875e-05
1.60866e-05
1.60857e-05
1.60847e-05
1.60847e-05
1.60837e-05
1.60827e-05
1.60815e-05
1.608e-05
1.608e-05
1.60784e-05
1.60766e-05
1.60748e-05
1.60732e-05
1.60719e-05
1.60719e-05
1.60716e-05
1.60721e-05
1.60735e-05
1.60755e-05
1.60781e-05
1.60819e-05
1.60819e-05
1.60854e-05
1.60884e-05
1.60906e-05
1.60925e-05
1.60941e-05
1.60953e-05
1.60965e-05
1.60986e-05
1.61038e-05
1.61038e-05
1.61083e-05
1.6109e-05
1.6102e-05
1.60975e-05
1.61001e-05
)
;
    }
    procBoundary1to2
    {
        type            processor;
        value           nonuniform List<scalar> 
84
(
0.106581
0.0700021
0.0396064
0.00689418
0.000726307
0.000170127
1.00584e-05
1.60219e-05
1.61851e-05
1.61875e-05
1.61654e-05
1.61192e-05
1.61028e-05
1.61019e-05
1.6103e-05
1.6103e-05
1.61027e-05
1.61024e-05
1.61022e-05
1.61021e-05
1.61021e-05
1.6102e-05
1.6102e-05
1.6102e-05
1.61019e-05
1.61018e-05
1.61016e-05
1.61015e-05
1.61013e-05
1.6101e-05
1.61008e-05
1.61005e-05
1.61002e-05
1.60998e-05
1.60994e-05
1.60989e-05
1.60983e-05
1.60978e-05
1.60967e-05
1.60967e-05
1.6096e-05
1.60952e-05
1.60944e-05
1.60934e-05
1.60925e-05
1.60915e-05
1.60906e-05
1.60896e-05
1.60887e-05
1.60877e-05
1.60868e-05
1.60858e-05
1.60846e-05
1.60831e-05
1.60831e-05
1.60815e-05
1.60796e-05
1.60776e-05
1.60755e-05
1.60736e-05
1.60722e-05
1.60716e-05
1.60722e-05
1.60736e-05
1.60736e-05
1.60759e-05
1.60789e-05
1.60825e-05
1.60864e-05
1.60903e-05
1.60936e-05
1.60959e-05
1.60976e-05
1.6099e-05
1.60997e-05
1.60997e-05
1.61017e-05
1.61056e-05
1.61115e-05
1.61163e-05
1.61142e-05
1.61069e-05
1.61136e-05
1.61102e-05
)
;
    }
    procBoundary1to5
    {
        type            processor;
        value           nonuniform List<scalar> 
13
(
1.82494e-05
1.82494e-05
1.57794e-05
1.61592e-05
1.61592e-05
1.60981e-05
1.61103e-05
1.61103e-05
1.61045e-05
1.61037e-05
1.61026e-05
1.61026e-05
1.61025e-05
)
;
    }
}


// ************************************************************************* //
