/*--------------------------------*- C++ -*----------------------------------*\
| =========                 |                                                 |
| \\      /  F ield         | OpenFOAM: The Open Source CFD Toolbox           |
|  \\    /   O peration     | Version:  2306                                  |
|   \\  /    A nd           | Website:  www.openfoam.com                      |
|    \\/     M anipulation  |                                                 |
\*---------------------------------------------------------------------------*/
FoamFile
{
    version     2.0;
    format      ascii;
    arch        "LSB;label=32;scalar=64";
    class       volScalarField;
    location    "275";
    object      turbulenceProperties:nut;
}
// * * * * * * * * * * * * * * * * * * * * * * * * * * * * * * * * * * * * * //

dimensions      [0 2 -1 0 0 0 0];

internalField   nonuniform List<scalar> 
1340
(
6.96626e-06
8.09656e-06
1.07878e-05
1.54752e-05
2.3217e-05
3.55609e-05
5.44328e-05
8.13596e-05
0.00011791
0.000167133
0.000236216
0.000339297
0.00050168
0.000773049
0.00124163
0.00211698
0.00376886
0.00732598
0.014719
0.0324685
0.0663095
0.0934597
0.105018
0.108427
0.109369
0.109465
0.108969
0.107968
5.9104e-06
6.02087e-06
5.95863e-06
5.81745e-06
5.62448e-06
5.39025e-06
5.12402e-06
4.82938e-06
4.49564e-06
4.11964e-06
3.67655e-06
3.16228e-06
2.5481e-06
1.84332e-06
1.07388e-06
4.20414e-07
5.40541e-08
1.46284e-09
9.18711e-09
9.36314e-05
0.000539547
0.00415496
0.014112
0.0287149
0.043722
0.0550575
0.0618207
0.065603
0.0680012
6.14147e-06
6.12747e-06
6.1322e-06
6.14711e-06
6.16672e-06
6.19067e-06
6.22e-06
6.25285e-06
6.28987e-06
6.33079e-06
6.37727e-06
6.43057e-06
6.49427e-06
6.57172e-06
6.67118e-06
6.79874e-06
6.98004e-06
7.17337e-06
7.43586e-06
7.15668e-06
7.24767e-06
2.48417e-06
8.35905e-05
0.000790034
0.00301658
0.00754038
0.0142505
0.022433
0.0311535
6.10013e-06
6.10145e-06
6.10237e-06
6.10022e-06
6.09753e-06
6.09404e-06
6.0903e-06
6.08684e-06
6.08342e-06
6.08008e-06
6.0766e-06
6.07293e-06
6.06892e-06
6.06386e-06
6.05878e-06
6.0534e-06
6.04767e-06
6.04085e-06
6.03457e-06
6.02778e-06
6.0301e-06
6.02287e-06
6.08208e-06
5.99951e-06
5.94849e-06
5.22151e-06
4.17535e-06
0.000226292
0.00104479
0.00304098
6.10906e-06
6.10694e-06
6.10505e-06
6.10397e-06
6.10372e-06
6.1037e-06
6.1036e-06
6.10395e-06
6.10448e-06
6.10545e-06
6.10668e-06
6.10823e-06
6.11007e-06
6.11226e-06
6.11474e-06
6.1175e-06
6.12054e-06
6.12398e-06
6.12778e-06
6.13271e-06
6.13699e-06
6.15023e-06
6.1299e-06
6.27246e-06
5.69526e-06
8.70668e-06
5.83027e-07
2.55772e-05
0.000245293
0.000728168
6.10619e-06
6.10592e-06
6.10455e-06
6.10333e-06
6.10235e-06
6.10175e-06
6.1013e-06
6.10082e-06
6.10057e-06
6.1004e-06
6.1004e-06
6.10042e-06
6.10055e-06
6.10075e-06
6.101e-06
6.10126e-06
6.10149e-06
6.10161e-06
6.10168e-06
6.10133e-06
6.10125e-06
6.10156e-06
6.10196e-06
6.10373e-06
6.10327e-06
6.11232e-06
6.09512e-06
6.19863e-06
5.60354e-06
4.20486e-06
2.89353e-09
6.1054e-06
6.10533e-06
6.10414e-06
6.10297e-06
6.10208e-06
6.10156e-06
6.1012e-06
6.10101e-06
6.10088e-06
6.10093e-06
6.10089e-06
6.10093e-06
6.10109e-06
6.10132e-06
6.10166e-06
6.10207e-06
6.10257e-06
6.10315e-06
6.10382e-06
6.10462e-06
6.1056e-06
6.10689e-06
6.10856e-06
6.11065e-06
6.1133e-06
6.11666e-06
6.1208e-06
6.12564e-06
6.14955e-06
5.52408e-06
3.4055e-06
6.10426e-06
6.1044e-06
6.1035e-06
6.10245e-06
6.10164e-06
6.10118e-06
6.10087e-06
6.1007e-06
6.10063e-06
6.10072e-06
6.1008e-06
6.10091e-06
6.10097e-06
6.10098e-06
6.10106e-06
6.10116e-06
6.10128e-06
6.10142e-06
6.10158e-06
6.10173e-06
6.10186e-06
6.10203e-06
6.10226e-06
6.10252e-06
6.10278e-06
6.10289e-06
6.10336e-06
6.10065e-06
6.1116e-06
6.07718e-06
6.3141e-06
6.10196e-06
6.1035e-06
6.10375e-06
6.10306e-06
6.10209e-06
6.10139e-06
6.10095e-06
6.10071e-06
6.10058e-06
6.10052e-06
6.10059e-06
6.10068e-06
6.10083e-06
6.10096e-06
6.10109e-06
6.10117e-06
6.10117e-06
6.10123e-06
6.10134e-06
6.1015e-06
6.10168e-06
6.1019e-06
6.10224e-06
6.10274e-06
6.10341e-06
6.10427e-06
6.10533e-06
6.1067e-06
6.10822e-06
6.11064e-06
6.10688e-06
6.12523e-06
6.10286e-06
6.10321e-06
6.10264e-06
6.10176e-06
6.10117e-06
6.10077e-06
6.10063e-06
6.10046e-06
6.10038e-06
6.10043e-06
6.1005e-06
6.10065e-06
6.10081e-06
6.10098e-06
6.10113e-06
6.10127e-06
6.10137e-06
6.10144e-06
6.10142e-06
6.10144e-06
6.10148e-06
6.10157e-06
6.10176e-06
6.10203e-06
6.10237e-06
6.10279e-06
6.10322e-06
6.10395e-06
6.10355e-06
6.10861e-06
6.08885e-06
6.10276e-06
6.10229e-06
6.10149e-06
6.10097e-06
6.10065e-06
6.10049e-06
6.10033e-06
6.10023e-06
6.10024e-06
6.10029e-06
6.10042e-06
6.10058e-06
6.10077e-06
6.10094e-06
6.10111e-06
6.10126e-06
6.1014e-06
6.10151e-06
6.10158e-06
6.10162e-06
6.10168e-06
6.10183e-06
6.10206e-06
6.10239e-06
6.10283e-06
6.10334e-06
6.10421e-06
6.10419e-06
6.10871e-06
6.09335e-06
6.10198e-06
6.10124e-06
6.10078e-06
6.10049e-06
6.10034e-06
6.10021e-06
6.10007e-06
6.10005e-06
6.10006e-06
6.10016e-06
6.1003e-06
6.10048e-06
6.10067e-06
6.10088e-06
6.10108e-06
6.10128e-06
6.10146e-06
6.1016e-06
6.10174e-06
6.10181e-06
6.10184e-06
6.10193e-06
6.10208e-06
6.10232e-06
6.10262e-06
6.10306e-06
6.10332e-06
6.1049e-06
6.10141e-06
6.10103e-06
6.10061e-06
6.10033e-06
6.10018e-06
6.10004e-06
6.09989e-06
6.09984e-06
6.09983e-06
6.0999e-06
6.10003e-06
6.1002e-06
6.10041e-06
6.10064e-06
6.10087e-06
6.10111e-06
6.10132e-06
6.10151e-06
6.1017e-06
6.10183e-06
6.10188e-06
6.10191e-06
6.10199e-06
6.10214e-06
6.10238e-06
6.1027e-06
6.10313e-06
6.10352e-06
6.10459e-06
6.10044e-06
6.10017e-06
6.1e-06
6.09988e-06
6.09971e-06
6.09963e-06
6.0996e-06
6.09967e-06
6.09978e-06
6.09995e-06
6.10015e-06
6.10039e-06
6.10062e-06
6.10088e-06
6.10112e-06
6.10135e-06
6.10157e-06
6.10174e-06
6.10186e-06
6.10191e-06
6.10192e-06
6.10199e-06
6.10213e-06
6.10232e-06
6.10264e-06
6.10286e-06
6.10394e-06
6.09999e-06
6.09982e-06
6.09969e-06
6.09953e-06
6.09944e-06
6.09941e-06
6.09945e-06
6.09954e-06
6.0997e-06
6.09988e-06
6.10011e-06
6.10035e-06
6.10062e-06
6.10089e-06
6.10114e-06
6.10139e-06
6.1016e-06
6.10177e-06
6.10188e-06
6.10192e-06
6.10194e-06
6.10201e-06
6.10214e-06
6.10235e-06
6.10258e-06
6.10309e-06
6.09982e-06
6.09965e-06
6.09952e-06
6.09935e-06
6.09925e-06
6.09921e-06
6.09924e-06
6.09932e-06
6.09947e-06
6.09964e-06
6.09986e-06
6.10011e-06
6.10038e-06
6.10066e-06
6.10093e-06
6.10121e-06
6.10145e-06
6.10165e-06
6.10181e-06
6.10191e-06
6.10195e-06
6.10197e-06
6.10203e-06
6.10215e-06
6.10233e-06
6.1026e-06
6.09948e-06
6.09934e-06
6.09917e-06
6.09908e-06
6.09903e-06
6.09906e-06
6.09913e-06
6.09925e-06
6.09942e-06
6.09963e-06
6.09987e-06
6.10014e-06
6.10043e-06
6.10072e-06
6.10101e-06
6.10127e-06
6.1015e-06
6.10169e-06
6.10184e-06
6.10194e-06
6.10197e-06
6.10198e-06
6.10205e-06
6.10216e-06
6.10234e-06
6.09931e-06
6.09917e-06
6.09901e-06
6.09891e-06
6.09886e-06
6.09888e-06
6.09895e-06
6.09906e-06
6.09921e-06
6.09941e-06
6.09965e-06
6.09992e-06
6.10021e-06
6.10051e-06
6.10081e-06
6.10108e-06
6.10133e-06
6.10155e-06
6.10173e-06
6.10187e-06
6.10196e-06
6.10199e-06
6.10201e-06
6.10206e-06
6.10219e-06
6.09899e-06
6.09885e-06
6.09876e-06
6.09872e-06
6.09873e-06
6.09879e-06
6.0989e-06
6.09904e-06
6.09923e-06
6.09945e-06
6.09971e-06
6.1e-06
6.1003e-06
6.1006e-06
6.10088e-06
6.10115e-06
6.10139e-06
6.1016e-06
6.10177e-06
6.1019e-06
6.10199e-06
6.10201e-06
6.10203e-06
6.1021e-06
6.09883e-06
6.09869e-06
6.09861e-06
6.09857e-06
6.09859e-06
6.09864e-06
6.09874e-06
6.09888e-06
6.09905e-06
6.09926e-06
6.09951e-06
6.09979e-06
6.10009e-06
6.10039e-06
6.10067e-06
6.10094e-06
6.1012e-06
6.10142e-06
6.10162e-06
6.10179e-06
6.10191e-06
6.102e-06
6.10201e-06
6.10205e-06
6.09867e-06
6.09854e-06
6.09847e-06
6.09844e-06
6.09847e-06
6.09852e-06
6.09861e-06
6.09873e-06
6.09889e-06
6.09908e-06
6.09931e-06
6.09958e-06
6.09987e-06
6.10016e-06
6.10044e-06
6.10071e-06
6.10098e-06
6.10122e-06
6.10145e-06
6.10164e-06
6.1018e-06
6.10192e-06
6.102e-06
6.10201e-06
6.09841e-06
6.09835e-06
6.09833e-06
6.09834e-06
6.09839e-06
6.09846e-06
6.09857e-06
6.09872e-06
6.09889e-06
6.09911e-06
6.09937e-06
6.09965e-06
6.09993e-06
6.10021e-06
6.10049e-06
6.10076e-06
6.10102e-06
6.10127e-06
6.10149e-06
6.10168e-06
6.10184e-06
6.10196e-06
6.10201e-06
6.09828e-06
6.09822e-06
6.0982e-06
6.09821e-06
6.09825e-06
6.09832e-06
6.09842e-06
6.09855e-06
6.09871e-06
6.09892e-06
6.09916e-06
6.09943e-06
6.09971e-06
6.09998e-06
6.10026e-06
6.10053e-06
6.1008e-06
6.10106e-06
6.1013e-06
6.10152e-06
6.10171e-06
6.10186e-06
6.10197e-06
6.09809e-06
6.09807e-06
6.09808e-06
6.09811e-06
6.09817e-06
6.09826e-06
6.09838e-06
6.09853e-06
6.09873e-06
6.09896e-06
6.09922e-06
6.09949e-06
6.09975e-06
6.10002e-06
6.1003e-06
6.10057e-06
6.10084e-06
6.1011e-06
6.10134e-06
6.10155e-06
6.10174e-06
6.10188e-06
6.09794e-06
6.09792e-06
6.09793e-06
6.09796e-06
6.09802e-06
6.0981e-06
6.09821e-06
6.09836e-06
6.09854e-06
6.09876e-06
6.099e-06
6.09926e-06
6.09951e-06
6.09978e-06
6.10005e-06
6.10033e-06
6.1006e-06
6.10087e-06
6.10113e-06
6.10137e-06
6.10159e-06
6.10175e-06
6.09779e-06
6.09777e-06
6.09778e-06
6.09781e-06
6.09787e-06
6.09794e-06
6.09805e-06
6.09818e-06
6.09835e-06
6.09855e-06
6.09878e-06
6.09903e-06
6.09928e-06
6.09954e-06
6.0998e-06
6.10008e-06
6.10036e-06
6.10065e-06
6.10092e-06
6.10118e-06
6.10142e-06
6.10161e-06
6.09761e-06
6.09762e-06
6.09765e-06
6.0977e-06
6.09777e-06
6.09787e-06
6.09799e-06
6.09815e-06
6.09834e-06
6.09856e-06
6.0988e-06
6.09904e-06
6.09929e-06
6.09955e-06
6.09983e-06
6.10011e-06
6.1004e-06
6.10068e-06
6.10096e-06
6.10122e-06
6.10144e-06
6.09744e-06
6.09746e-06
6.09748e-06
6.09753e-06
6.0976e-06
6.09769e-06
6.0978e-06
6.09795e-06
6.09813e-06
6.09834e-06
6.09856e-06
6.09879e-06
6.09903e-06
6.09929e-06
6.09956e-06
6.09984e-06
6.10013e-06
6.10043e-06
6.10072e-06
6.10099e-06
6.10124e-06
6.09727e-06
6.09728e-06
6.09731e-06
6.09735e-06
6.09742e-06
6.0975e-06
6.09761e-06
6.09774e-06
6.09791e-06
6.09811e-06
6.09832e-06
6.09854e-06
6.09877e-06
6.09902e-06
6.09928e-06
6.09957e-06
6.09986e-06
6.10016e-06
6.10046e-06
6.10075e-06
6.10102e-06
6.09709e-06
6.09712e-06
6.09716e-06
6.09722e-06
6.0973e-06
6.0974e-06
6.09752e-06
6.09768e-06
6.09787e-06
6.09807e-06
6.09827e-06
6.0985e-06
6.09874e-06
6.099e-06
6.09927e-06
6.09957e-06
6.09987e-06
6.10017e-06
6.10048e-06
6.10077e-06
6.09689e-06
6.09691e-06
6.09695e-06
6.09701e-06
6.09708e-06
6.09717e-06
6.09729e-06
6.09744e-06
6.09761e-06
6.0978e-06
6.098e-06
6.09821e-06
6.09844e-06
6.09869e-06
6.09897e-06
6.09926e-06
6.09956e-06
6.09987e-06
6.10018e-06
6.10049e-06
6.09669e-06
6.09673e-06
6.09678e-06
6.09685e-06
6.09693e-06
6.09704e-06
6.09718e-06
6.09734e-06
6.09752e-06
6.09771e-06
6.09791e-06
6.09813e-06
6.09837e-06
6.09864e-06
6.09892e-06
6.09922e-06
6.09954e-06
6.09986e-06
6.10018e-06
6.09645e-06
6.09649e-06
6.09653e-06
6.09659e-06
6.09667e-06
6.09677e-06
6.0969e-06
6.09705e-06
6.09722e-06
6.09739e-06
6.09758e-06
6.09779e-06
6.09803e-06
6.09828e-06
6.09856e-06
6.09886e-06
6.09917e-06
6.0995e-06
6.09983e-06
6.09619e-06
6.09622e-06
6.09626e-06
6.09632e-06
6.09639e-06
6.09648e-06
6.09659e-06
6.09673e-06
6.09689e-06
6.09705e-06
6.09723e-06
6.09743e-06
6.09765e-06
6.0979e-06
6.09817e-06
6.09846e-06
6.09877e-06
6.0991e-06
6.09944e-06
6.09592e-06
6.09596e-06
6.09601e-06
6.09607e-06
6.09615e-06
6.09626e-06
6.09638e-06
6.09652e-06
6.09667e-06
6.09684e-06
6.09703e-06
6.09724e-06
6.09748e-06
6.09774e-06
6.09803e-06
6.09834e-06
6.09866e-06
6.09901e-06
6.09559e-06
6.09562e-06
6.09567e-06
6.09572e-06
6.09579e-06
6.09588e-06
6.096e-06
6.09613e-06
6.09626e-06
6.09642e-06
6.09659e-06
6.09679e-06
6.09702e-06
6.09727e-06
6.09755e-06
6.09785e-06
6.09818e-06
6.09853e-06
6.09523e-06
6.09525e-06
6.09528e-06
6.09533e-06
6.09539e-06
6.09547e-06
6.09557e-06
6.09568e-06
6.09581e-06
6.09595e-06
6.09611e-06
6.0963e-06
6.09651e-06
6.09675e-06
6.09702e-06
6.09732e-06
6.09764e-06
6.09799e-06
6.09483e-06
6.09486e-06
6.09489e-06
6.09494e-06
6.09501e-06
6.09509e-06
6.09519e-06
6.0953e-06
6.09543e-06
6.09558e-06
6.09575e-06
6.09595e-06
6.09618e-06
6.09644e-06
6.09673e-06
6.09704e-06
6.09739e-06
6.09437e-06
6.09438e-06
6.0944e-06
6.09444e-06
6.09449e-06
6.09456e-06
6.09465e-06
6.09474e-06
6.09486e-06
6.09499e-06
6.09515e-06
6.09534e-06
6.09556e-06
6.0958e-06
6.09608e-06
6.09638e-06
6.09385e-06
6.09385e-06
6.09386e-06
6.09388e-06
6.09392e-06
6.09397e-06
6.09404e-06
6.09412e-06
6.09422e-06
6.09434e-06
6.09449e-06
6.09466e-06
6.09487e-06
6.0951e-06
6.09537e-06
6.09566e-06
6.09325e-06
6.09325e-06
6.09326e-06
6.09328e-06
6.09332e-06
6.09338e-06
6.09344e-06
6.09353e-06
6.09364e-06
6.09377e-06
6.09393e-06
6.09412e-06
6.09434e-06
6.09459e-06
6.09488e-06
6.0926e-06
6.09258e-06
6.09258e-06
6.09259e-06
6.09261e-06
6.09265e-06
6.0927e-06
6.09278e-06
6.09287e-06
6.09299e-06
6.09314e-06
6.09331e-06
6.09352e-06
6.09376e-06
6.09404e-06
6.09188e-06
6.09185e-06
6.09183e-06
6.09183e-06
6.09184e-06
6.09187e-06
6.09191e-06
6.09197e-06
6.09205e-06
6.09216e-06
6.09229e-06
6.09246e-06
6.09265e-06
6.09288e-06
6.09314e-06
6.09106e-06
6.09103e-06
6.09102e-06
6.09102e-06
6.09103e-06
6.09106e-06
6.09111e-06
6.09118e-06
6.09128e-06
6.09141e-06
6.09156e-06
6.09174e-06
6.09196e-06
6.09221e-06
6.09022e-06
6.09018e-06
6.09016e-06
6.09015e-06
6.09015e-06
6.09018e-06
6.09022e-06
6.09028e-06
6.09037e-06
6.09049e-06
6.09064e-06
6.09081e-06
6.09102e-06
6.09126e-06
6.08934e-06
6.0893e-06
6.08927e-06
6.08925e-06
6.08925e-06
6.08927e-06
6.0893e-06
6.08937e-06
6.08945e-06
6.08956e-06
6.0897e-06
6.08987e-06
6.09006e-06
6.09029e-06
6.08839e-06
6.08835e-06
6.08833e-06
6.08833e-06
6.08835e-06
6.08838e-06
6.08844e-06
6.08853e-06
6.08863e-06
6.08877e-06
6.08893e-06
6.08912e-06
6.08934e-06
6.08746e-06
6.08743e-06
6.08741e-06
6.08741e-06
6.08743e-06
6.08747e-06
6.08753e-06
6.08761e-06
6.08771e-06
6.08785e-06
6.088e-06
6.08819e-06
6.0884e-06
6.08654e-06
6.08651e-06
6.0865e-06
6.0865e-06
6.08652e-06
6.08656e-06
6.08662e-06
6.0867e-06
6.0868e-06
6.08693e-06
6.08709e-06
6.08727e-06
6.08748e-06
6.08562e-06
6.08559e-06
6.08558e-06
6.08558e-06
6.0856e-06
6.08564e-06
6.0857e-06
6.08578e-06
6.08589e-06
6.08601e-06
6.08616e-06
6.08634e-06
6.08654e-06
6.08466e-06
6.08465e-06
6.08465e-06
6.08466e-06
6.0847e-06
6.08475e-06
6.08483e-06
6.08492e-06
6.08504e-06
6.08518e-06
6.08535e-06
6.08555e-06
6.08369e-06
6.08366e-06
6.08365e-06
6.08365e-06
6.08367e-06
6.08371e-06
6.08377e-06
6.08385e-06
6.08396e-06
6.08409e-06
6.08424e-06
6.08443e-06
6.08263e-06
6.08258e-06
6.08254e-06
6.08251e-06
6.08251e-06
6.08252e-06
6.08256e-06
6.08261e-06
6.08269e-06
6.0828e-06
6.08294e-06
6.08141e-06
6.08132e-06
6.08125e-06
6.08119e-06
6.08114e-06
6.08112e-06
6.08112e-06
6.08114e-06
6.08119e-06
6.08127e-06
6.08137e-06
6.07987e-06
6.07974e-06
6.07963e-06
6.07954e-06
6.07948e-06
6.07943e-06
6.07942e-06
6.07943e-06
6.07947e-06
6.07954e-06
6.0782e-06
6.07802e-06
6.07787e-06
6.07773e-06
6.07763e-06
6.07755e-06
6.0775e-06
6.07747e-06
6.07748e-06
6.07752e-06
6.07638e-06
6.07618e-06
6.07599e-06
6.07583e-06
6.0757e-06
6.07559e-06
6.07552e-06
6.07547e-06
6.07544e-06
6.07545e-06
6.07458e-06
6.07437e-06
6.07418e-06
6.07402e-06
6.07389e-06
6.07378e-06
6.0737e-06
6.07364e-06
6.0736e-06
6.07359e-06
6.07301e-06
6.07283e-06
6.07268e-06
6.07255e-06
6.07245e-06
6.07237e-06
6.07231e-06
6.07227e-06
6.07224e-06
6.07222e-06
6.07182e-06
6.07175e-06
6.0717e-06
6.07167e-06
6.07165e-06
6.07164e-06
6.07164e-06
6.07163e-06
6.07164e-06
6.0716e-06
6.07166e-06
6.07173e-06
6.0718e-06
6.07188e-06
6.07196e-06
6.07203e-06
6.0721e-06
6.07216e-06
6.07231e-06
6.07251e-06
6.0727e-06
6.07289e-06
6.07307e-06
6.07324e-06
6.07339e-06
6.07353e-06
6.0738e-06
6.07413e-06
6.07444e-06
6.07474e-06
6.07502e-06
6.07529e-06
6.07552e-06
6.07574e-06
6.07597e-06
6.07643e-06
6.07687e-06
6.07729e-06
6.07768e-06
6.07803e-06
6.07836e-06
6.07866e-06
6.07873e-06
6.07933e-06
6.07989e-06
6.08041e-06
6.0809e-06
6.08135e-06
6.08177e-06
6.08215e-06
6.08264e-06
6.0833e-06
6.08391e-06
6.08449e-06
6.08502e-06
6.08551e-06
6.08596e-06
6.08617e-06
6.0869e-06
6.08758e-06
6.08821e-06
6.0888e-06
6.08935e-06
6.08986e-06
6.08916e-06
6.08992e-06
6.09064e-06
6.0913e-06
6.09193e-06
6.09252e-06
6.09307e-06
6.09138e-06
6.09213e-06
6.09283e-06
6.0935e-06
6.09413e-06
6.09473e-06
6.0953e-06
6.09327e-06
6.09398e-06
6.09465e-06
6.09529e-06
6.0959e-06
6.09649e-06
6.09706e-06
6.09478e-06
6.09544e-06
6.09608e-06
6.09669e-06
6.09728e-06
6.09786e-06
6.09842e-06
6.09594e-06
6.0966e-06
6.09724e-06
6.09787e-06
6.09848e-06
6.09908e-06
6.09726e-06
6.09802e-06
6.09877e-06
6.09951e-06
6.10024e-06
6.10096e-06
6.09964e-06
6.10065e-06
6.10165e-06
6.10264e-06
6.10363e-06
6.1046e-06
6.10508e-06
6.1064e-06
6.1077e-06
6.10898e-06
6.11024e-06
6.10977e-06
6.11115e-06
6.11249e-06
6.11379e-06
6.11507e-06
6.10996e-06
6.11089e-06
6.11177e-06
6.11261e-06
6.11342e-06
6.10273e-06
6.10347e-06
6.10427e-06
6.10511e-06
6.106e-06
6.09983e-06
6.10238e-06
6.10506e-06
6.10784e-06
6.11071e-06
6.1021e-06
6.10394e-06
6.10567e-06
6.10728e-06
6.10878e-06
)
;

boundaryField
{
    inlet
    {
        type            freestream;
        freestreamValue uniform 1e-05;
        value           uniform 1e-05;
    }
    outlet
    {
        type            freestream;
        freestreamValue nonuniform List<scalar> 0();
        value           nonuniform List<scalar> 0();
    }
    walls
    {
        type            nutUSpaldingWallFunction;
        value           nonuniform List<scalar> 
28
(
0.000447546
0.00054965
0.000887651
0.0012081
0.00147012
0.00168071
0.00185263
0.00199526
0.00211566
0.00221949
0.0023111
0.0023942
0.00247112
0.00254393
0.00261331
0.00267924
0.00273844
0.00278452
0.00281703
0.00283927
0.00285431
0.00286343
0.00286749
0.002865
0.00285431
0.00283514
0.00280794
0.00277226
)
;
    }
    frontAndBack
    {
        type            empty;
    }
    procBoundary1to0
    {
        type            processor;
        value           nonuniform List<scalar> 
94
(
6.10146e-06
6.10146e-06
6.10239e-06
6.10239e-06
6.10238e-06
6.10238e-06
6.1017e-06
6.1017e-06
6.10084e-06
6.10084e-06
6.10027e-06
6.10027e-06
6.10011e-06
6.09965e-06
6.09965e-06
6.09949e-06
6.09915e-06
6.09915e-06
6.09899e-06
6.09883e-06
6.09852e-06
6.09852e-06
6.09837e-06
6.09814e-06
6.09814e-06
6.09799e-06
6.09784e-06
6.09763e-06
6.09763e-06
6.09746e-06
6.09728e-06
6.09708e-06
6.09708e-06
6.09687e-06
6.09667e-06
6.09667e-06
6.09643e-06
6.09617e-06
6.0959e-06
6.0959e-06
6.09558e-06
6.09522e-06
6.09482e-06
6.09482e-06
6.09437e-06
6.09386e-06
6.09326e-06
6.09326e-06
6.09262e-06
6.09192e-06
6.0911e-06
6.0911e-06
6.09027e-06
6.08939e-06
6.08843e-06
6.08843e-06
6.08751e-06
6.08658e-06
6.08566e-06
6.08469e-06
6.08469e-06
6.08373e-06
6.08268e-06
6.0815e-06
6.08e-06
6.08e-06
6.07838e-06
6.0766e-06
6.07481e-06
6.0732e-06
6.07192e-06
6.07192e-06
6.07157e-06
6.07212e-06
6.07347e-06
6.07549e-06
6.07812e-06
6.08194e-06
6.08194e-06
6.08539e-06
6.08835e-06
6.09059e-06
6.09252e-06
6.09408e-06
6.09527e-06
6.0965e-06
6.09863e-06
6.10375e-06
6.10375e-06
6.10835e-06
6.10899e-06
6.10204e-06
6.09745e-06
6.10015e-06
)
;
    }
    procBoundary1to2
    {
        type            processor;
        value           nonuniform List<scalar> 
84
(
0.106571
0.0699921
0.0395964
0.00688418
0.000716307
0.000160127
5.84192e-08
6.02189e-06
6.18508e-06
6.18754e-06
6.16541e-06
6.11919e-06
6.10276e-06
6.10195e-06
6.10295e-06
6.10298e-06
6.10267e-06
6.1024e-06
6.10223e-06
6.10213e-06
6.10206e-06
6.10203e-06
6.10199e-06
6.10195e-06
6.10188e-06
6.10179e-06
6.10164e-06
6.10147e-06
6.10127e-06
6.10104e-06
6.10078e-06
6.10048e-06
6.10015e-06
6.09978e-06
6.09936e-06
6.09888e-06
6.09835e-06
6.09775e-06
6.09673e-06
6.09673e-06
6.096e-06
6.09521e-06
6.09435e-06
6.09345e-06
6.0925e-06
6.09154e-06
6.09056e-06
6.0896e-06
6.08866e-06
6.08772e-06
6.08678e-06
6.08578e-06
6.08465e-06
6.0831e-06
6.0831e-06
6.08151e-06
6.07965e-06
6.07758e-06
6.07549e-06
6.0736e-06
6.07222e-06
6.07164e-06
6.07221e-06
6.07365e-06
6.07365e-06
6.07592e-06
6.07893e-06
6.0825e-06
6.08638e-06
6.09032e-06
6.09359e-06
6.09585e-06
6.09761e-06
6.09897e-06
6.09967e-06
6.09967e-06
6.10167e-06
6.10556e-06
6.11148e-06
6.11631e-06
6.11421e-06
6.10694e-06
6.11364e-06
6.11017e-06
)
;
    }
    procBoundary1to5
    {
        type            processor;
        value           nonuniform List<scalar> 
13
(
8.24939e-06
8.24939e-06
5.77936e-06
6.15919e-06
6.15919e-06
6.09809e-06
6.11026e-06
6.11026e-06
6.10448e-06
6.10374e-06
6.10264e-06
6.10264e-06
6.10255e-06
)
;
    }
}


// ************************************************************************* //
