/*--------------------------------*- C++ -*----------------------------------*\
| =========                 |                                                 |
| \\      /  F ield         | OpenFOAM: The Open Source CFD Toolbox           |
|  \\    /   O peration     | Version:  2306                                  |
|   \\  /    A nd           | Website:  www.openfoam.com                      |
|    \\/     M anipulation  |                                                 |
\*---------------------------------------------------------------------------*/
FoamFile
{
    version     2.0;
    format      ascii;
    arch        "LSB;label=32;scalar=64";
    class       volVectorField;
    location    "275";
    object      U;
}
// * * * * * * * * * * * * * * * * * * * * * * * * * * * * * * * * * * * * * //

dimensions      [0 1 -1 0 0 0 0];

internalField   nonuniform List<vector> 
1340
(
(1.36052 2.19292 5.48195e-15)
(3.31852 -0.135268 -1.64718e-15)
(5.54859 -2.15597 5.09224e-16)
(7.84448 -3.65844 1.74233e-15)
(9.96108 -4.62516 2.62383e-15)
(11.8318 -5.18412 8.17466e-16)
(13.4687 -5.45994 -1.38939e-15)
(14.8967 -5.54947 -1.24526e-15)
(16.1468 -5.51577 6.67465e-16)
(17.2497 -5.40643 2.50695e-16)
(18.2378 -5.25041 8.38022e-16)
(19.1424 -5.06719 -6.88292e-16)
(19.9852 -4.85957 -1.35797e-16)
(20.7843 -4.62906 -5.97719e-16)
(21.5506 -4.3662 2.95736e-16)
(22.2854 -4.05702 8.09928e-16)
(22.9579 -3.67649 -2.72117e-16)
(23.5003 -3.2247 -3.04052e-16)
(23.8953 -2.74511 -2.95427e-16)
(24.1734 -2.27741 -8.41291e-18)
(24.3706 -1.77819 9.31107e-18)
(24.5022 -1.18098 1.19919e-19)
(24.5685 -0.512973 -3.35356e-18)
(24.549 0.159869 7.40291e-17)
(24.4292 0.78958 5.53651e-17)
(24.2101 1.35354 1.24189e-16)
(23.9005 1.84532 3.57928e-16)
(23.5004 2.26721 9.67698e-18)
(2.3993 6.04467 -2.71872e-15)
(3.58417 3.44324 -4.60213e-15)
(5.07656 1.14588 3.07694e-15)
(6.83978 -0.754813 -1.62559e-15)
(8.73348 -2.12163 2.2127e-16)
(10.5827 -3.01008 -5.08706e-16)
(12.3059 -3.54811 2.78558e-17)
(13.8793 -3.83552 1.49447e-16)
(15.2974 -3.9533 5.00231e-16)
(16.5715 -3.95375 -9.10853e-16)
(17.7184 -3.88127 9.78343e-16)
(18.7616 -3.76096 -2.29251e-16)
(19.7254 -3.61068 -4.23943e-16)
(20.6326 -3.42767 -2.95148e-16)
(21.4986 -3.20961 -6.67237e-16)
(22.3358 -2.93914 -7.29877e-16)
(23.1459 -2.59489 -7.91426e-16)
(23.9066 -2.13651 3.15584e-16)
(24.5656 -1.57138 -2.123e-17)
(25.097 -0.963331 1.35153e-16)
(25.5116 -0.336517 9.96456e-17)
(25.8036 0.273669 5.91648e-18)
(25.9653 0.821186 -1.22046e-19)
(25.9989 1.28852 2.30422e-18)
(25.9334 1.68386 -4.22681e-17)
(25.7956 2.03 -1.87427e-17)
(25.5957 2.34655 -1.7499e-16)
(25.3348 2.64206 -1.25783e-16)
(25.0035 2.91993 -2.65024e-17)
(4.92585 6.75818 1.249e-15)
(5.69509 4.40621 1.86453e-15)
(6.78081 2.30049 1.61224e-15)
(8.13537 0.510574 -1.39313e-15)
(9.6329 -0.902716 -1.02409e-15)
(11.1528 -1.96053 2.63622e-16)
(12.6236 -2.72414 9.92076e-16)
(14.0097 -3.25161 1.4034e-15)
(15.2944 -3.5935 -2.76351e-16)
(16.4756 -3.79312 -3.25871e-17)
(17.5597 -3.88847 9.48561e-16)
(18.5603 -3.90573 1.80447e-17)
(19.4943 -3.86311 7.18716e-16)
(20.3789 -3.76586 6.4225e-16)
(21.2267 -3.61611 1.49447e-15)
(22.0466 -3.40564 1.55714e-15)
(22.8387 -3.12103 6.87609e-16)
(23.5837 -2.74186 1.34774e-16)
(24.2385 -2.28318 -1.24938e-16)
(24.7787 -1.79417 3.60135e-16)
(25.2147 -1.29698 -6.99608e-17)
(25.5599 -0.796596 -3.86436e-17)
(25.8199 -0.289498 2.7413e-18)
(25.9949 0.226149 2.46226e-19)
(26.087 0.750063 1.62447e-17)
(26.0976 1.27188 3.92972e-17)
(26.0266 1.77344 5.58725e-17)
(25.8737 2.23915 1.48307e-17)
(25.6295 2.66155 -1.944e-16)
(6.83376 9.38537 7.9546e-16)
(7.03582 7.16385 -9.87405e-16)
(7.53915 5.06222 1.19411e-17)
(8.3216 3.13807 3.43507e-16)
(9.35035 1.45586 2.38353e-15)
(10.5344 0.0688621 1.75377e-16)
(11.7893 -1.01712 6.78032e-16)
(13.0549 -1.83386 -1.854e-15)
(14.2905 -2.42228 -1.14737e-15)
(15.4707 -2.82173 3.44806e-16)
(16.5835 -3.07127 1.98646e-16)
(17.626 -3.20504 -9.53214e-16)
(18.6024 -3.25011 9.43639e-17)
(19.5223 -3.22615 -2.30379e-16)
(20.3974 -3.1426 5.98587e-16)
(21.2368 -3.0027 -6.305e-16)
(22.0468 -2.80097 -9.17271e-16)
(22.8265 -2.52618 1.14767e-16)
(23.5594 -2.16079 2.24848e-16)
(24.2097 -1.71048 4.36969e-16)
(24.7534 -1.21277 -3.20095e-16)
(25.1956 -0.690701 -4.05702e-17)
(25.5473 -0.155341 1.39806e-17)
(25.8132 0.382821 -4.20823e-18)
(25.9962 0.908745 -2.57806e-18)
(26.1016 1.40661 3.65071e-18)
(26.1358 1.86075 -8.43162e-18)
(26.1026 2.26796 -7.36228e-18)
(26.0037 2.63134 2.24899e-17)
(25.8296 2.95754 2.01617e-16)
(8.76426 9.35576 -1.15342e-15)
(8.83151 7.39438 3.56781e-15)
(9.15182 5.50809 -2.81279e-15)
(9.71576 3.75922 -1.11575e-17)
(10.4993 2.20004 3.55489e-17)
(11.4377 0.871312 -3.50234e-16)
(12.4679 -0.213881 -5.13881e-16)
(13.5421 -1.07303 -1.03662e-15)
(14.6223 -1.73315 1.26941e-15)
(15.6811 -2.22003 5.41069e-16)
(16.7023 -2.56334 -1.13641e-16)
(17.6778 -2.78938 2.87868e-16)
(18.6055 -2.92041 -5.26118e-16)
(19.4896 -2.97309 3.54966e-16)
(20.3368 -2.95725 -3.43332e-16)
(21.1533 -2.87631 3.86491e-16)
(21.9427 -2.72707 3.55029e-16)
(22.703 -2.5014 -6.26915e-17)
(23.4196 -2.18852 -5.29569e-16)
(24.0619 -1.79449 -1.31647e-16)
(24.6067 -1.35118 -4.54117e-17)
(25.0546 -0.88383 1.09996e-16)
(25.4143 -0.405202 1.21861e-18)
(25.69 0.0753285 -3.128e-18)
(25.8835 0.547642 1.96756e-17)
(25.9985 1.00353 8.71718e-18)
(26.0404 1.44298 -4.57679e-18)
(26.0133 1.86607 3.9107e-18)
(25.9204 2.2693 6.54802e-18)
(25.7562 2.64956 3.34553e-17)
(10.6425 10.964 -5.54918e-16)
(10.3981 9.25314 1.10126e-15)
(10.3712 7.50412 -9.85711e-16)
(10.5628 5.80368 -8.66207e-16)
(10.9676 4.21403 -9.56115e-16)
(11.5651 2.77423 -9.56964e-16)
(12.3094 1.51726 1.4706e-15)
(13.1533 0.460243 -7.14512e-16)
(14.0605 -0.405265 7.96385e-16)
(14.9987 -1.09585 1.52612e-16)
(15.9421 -1.6273 -2.40042e-16)
(16.8734 -2.02089 -6.69252e-16)
(17.7815 -2.29656 -5.29195e-16)
(18.6601 -2.47258 2.91016e-16)
(19.5083 -2.56363 -1.29559e-16)
(20.3285 -2.5796 -3.9488e-16)
(21.1235 -2.52505 -3.49018e-16)
(21.8943 -2.3991 -2.48183e-16)
(22.6376 -2.1961 3.10545e-16)
(23.3396 -1.90859 -1.02765e-16)
(23.9741 -1.54098 -2.95144e-16)
(24.5189 -1.11859 3.29253e-16)
(24.9712 -0.664809 2.20788e-17)
(25.337 -0.192054 2.18697e-18)
(25.6196 0.290684 4.28823e-18)
(25.8206 0.772889 -2.65065e-17)
(25.9432 1.24523 -4.14808e-18)
(25.9923 1.69796 1.28016e-17)
(25.9718 2.12117 -4.81867e-18)
(25.8847 2.50883 -2.17255e-17)
(25.7252 2.85935 8.95853e-17)
(12.0711 10.6364 -2.65602e-16)
(11.7976 9.10883 1.17405e-16)
(11.7069 7.53541 1.17125e-15)
(11.8062 5.99477 8.68125e-16)
(12.0927 4.54713 3.71382e-16)
(12.5488 3.22052 -9.53442e-16)
(13.1406 2.04202 -4.60103e-16)
(13.8322 1.02899 7.47984e-16)
(14.5958 0.176698 8.09292e-17)
(15.4056 -0.525276 -3.11072e-17)
(16.2387 -1.0863 -5.43484e-16)
(17.079 -1.52139 4.4496e-16)
(17.9145 -1.84491 9.9466e-16)
(18.7364 -2.07055 -5.59336e-16)
(19.5406 -2.20987 -6.36617e-17)
(20.326 -2.27139 -5.74291e-16)
(21.0926 -2.25917 -2.90298e-16)
(21.8391 -2.17314 3.04699e-16)
(22.5609 -2.00936 -7.27351e-16)
(23.2454 -1.76315 2.51511e-16)
(23.8692 -1.43873 3.3594e-16)
(24.4112 -1.057 -1.14061e-16)
(24.866 -0.639893 -9.71406e-17)
(25.2372 -0.200852 -1.89225e-17)
(25.5271 0.249959 -1.37002e-18)
(25.7369 0.701341 1.93942e-18)
(25.8692 1.14251 -4.00971e-17)
(25.9284 1.56547 7.00216e-17)
(25.918 1.9667 -6.99955e-18)
(25.8403 2.34266 6.34724e-17)
(25.6892 2.69184 7.61295e-17)
(13.3027 10.3159 -3.24591e-18)
(13.0108 8.93992 -1.8733e-16)
(12.8761 7.51408 -1.97392e-15)
(12.9083 6.11187 7.97293e-16)
(13.1057 4.78965 -1.15099e-16)
(13.4535 3.5671 1.03512e-15)
(13.925 2.4672 -5.72845e-16)
(14.4921 1.50621 5.35034e-16)
(15.1339 0.680789 -7.77823e-16)
(15.8299 -0.0159856 -5.96597e-16)
(16.5613 -0.589101 3.09863e-16)
(17.3141 -1.04884 3.35186e-16)
(18.0767 -1.40465 3.36496e-16)
(18.8395 -1.66588 1.97879e-16)
(19.5965 -1.84104 -2.32308e-16)
(20.3441 -1.93688 9.28869e-16)
(21.0798 -1.95683 -2.71048e-16)
(21.8004 -1.90127 4.35367e-16)
(22.5001 -1.76748 4.53441e-16)
(23.1666 -1.55274 -1.63969e-18)
(23.7788 -1.26094 -8.83172e-17)
(24.3166 -0.908865 -6.99708e-17)
(24.7725 -0.516519 1.52185e-17)
(25.1477 -0.0975127 1.99467e-17)
(25.4436 0.337827 6.51365e-18)
(25.6608 0.778543 1.16632e-17)
(25.801 1.21413 2.74492e-17)
(25.8681 1.63641 -1.3493e-16)
(25.8651 2.03734 -6.98142e-17)
(25.794 2.41074 1.22917e-17)
(25.6492 2.75322 -1.53672e-16)
(14.7929 11.177 -4.67269e-16)
(14.3759 10.0059 -2.84496e-16)
(14.0733 8.75749 -6.76193e-16)
(13.9081 7.4574 -1.69592e-16)
(13.8913 6.17566 8.67562e-16)
(14.0209 4.964 6.58074e-16)
(14.2847 3.83654 -1.89545e-16)
(14.661 2.81264 1.5876e-15)
(15.1268 1.90722 -3.97412e-17)
(15.6661 1.117 1.16195e-15)
(16.2629 0.436777 4.70394e-16)
(16.9019 -0.136252 -4.24462e-16)
(17.5721 -0.60896 3.84563e-17)
(18.263 -0.987268 -8.82883e-16)
(18.9652 -1.27709 5.82764e-17)
(19.672 -1.48399 5.13258e-16)
(20.3782 -1.61268 2.186e-17)
(21.0794 -1.66557 3.50265e-16)
(21.7709 -1.64286 -4.4145e-16)
(22.446 -1.5425 -2.83862e-16)
(23.0925 -1.36297 -5.06388e-16)
(23.6912 -1.10782 -3.14463e-16)
(24.2226 -0.790831 -2.01815e-17)
(24.6778 -0.430024 -8.78913e-17)
(25.0558 -0.0390861 -1.65555e-18)
(25.357 0.371288 -6.42903e-18)
(25.5813 0.789959 -1.58085e-18)
(25.7299 1.20604 3.24004e-17)
(25.8059 1.61027 -1.69211e-17)
(25.8117 1.99628 1.38366e-16)
(25.7493 2.35826 -3.09086e-16)
(25.6127 2.6926 3.54448e-17)
(15.3202 9.70821 -7.70645e-16)
(15.0123 8.56859 2.17204e-15)
(14.8258 7.3771 1.1629e-15)
(14.7726 6.20092 4.17666e-16)
(14.8505 5.08698 -1.7317e-15)
(15.0488 4.04557 -9.84788e-16)
(15.3491 3.0935 -1.78539e-15)
(15.7324 2.24413 -1.64162e-15)
(16.1858 1.49361 -3.74939e-16)
(16.6968 0.837381 2.54232e-16)
(17.2534 0.273981 -2.6836e-16)
(17.847 -0.201603 -3.43088e-16)
(18.469 -0.59261 3.70956e-16)
(19.111 -0.902345 -4.94656e-16)
(19.7663 -1.1339 5.42494e-17)
(20.4289 -1.28986 1.94516e-16)
(21.0932 -1.37123 3.94791e-16)
(21.7535 -1.37781 -1.78823e-16)
(22.4023 -1.3078 -1.00128e-16)
(23.0276 -1.16017 -8.1952e-17)
(23.6111 -0.938188 2.49407e-16)
(24.1344 -0.653143 -1.2292e-17)
(24.5871 -0.320866 5.51823e-17)
(24.9666 0.0453013 -7.8385e-18)
(25.272 0.434521 -4.22824e-18)
(25.5025 0.835767 -1.34443e-17)
(25.6585 1.23805 -3.70876e-17)
(25.7425 1.63208 -1.10458e-16)
(25.7565 2.01002 1.97496e-17)
(25.7019 2.36469 3.09311e-16)
(25.5729 2.69128 3.61343e-16)
(15.8482 8.37768 -1.4017e-15)
(15.6473 7.28123 -9.12394e-16)
(15.567 6.19801 1.09967e-15)
(15.605 5.17078 1.53306e-15)
(15.7517 4.2072 2.43008e-16)
(15.9913 3.32211 1.06567e-15)
(16.3072 2.52753 1.00181e-15)
(16.6887 1.81882 -6.01384e-16)
(17.1261 1.19137 4.02856e-16)
(17.6098 0.644277 -1.04218e-16)
(18.1336 0.173704 6.91835e-16)
(18.6906 -0.222258 -4.24489e-16)
(19.274 -0.544834 -6.92233e-16)
(19.8774 -0.795053 -2.40712e-16)
(20.495 -0.973771 -5.79144e-16)
(21.1206 -1.08074 -5.11285e-16)
(21.7476 -1.11498 -4.52156e-16)
(22.3683 -1.07444 8.41226e-16)
(22.9708 -0.958283 5.20259e-16)
(23.5375 -0.76933 8.38672e-17)
(24.0507 -0.51674 2.83567e-16)
(24.4992 -0.214374 4.79808e-17)
(24.8788 0.124984 1.29737e-17)
(25.1873 0.490446 -1.42217e-18)
(25.4233 0.87102 -2.4835e-18)
(25.5865 1.25569 2.46832e-17)
(25.6785 1.63462 -3.53677e-18)
(25.7009 1.99998 7.09405e-17)
(25.6546 2.34433 1.54055e-16)
(25.5339 2.66225 -6.56698e-16)
(16.3868 7.17534 7.09283e-17)
(16.2863 6.1745 6.5219e-16)
(16.2935 5.22452 -1.92903e-15)
(16.3995 4.3315 -1.29122e-15)
(16.5901 3.50842 8.6432e-16)
(16.8507 2.76614 1.26319e-15)
(17.1722 2.09945 -6.54013e-16)
(17.5467 1.50356 -9.16431e-17)
(17.9665 0.977545 -5.29881e-17)
(18.4272 0.517829 -1.73237e-16)
(18.924 0.123426 6.36948e-16)
(19.4512 -0.205606 8.7549e-16)
(20.0036 -0.468809 8.18735e-17)
(20.5756 -0.665517 6.24716e-16)
(21.1611 -0.794235 2.16041e-16)
(21.7534 -0.853139 3.37481e-16)
(22.3445 -0.839837 -5.26019e-16)
(22.9228 -0.753206 -4.35258e-17)
(23.4713 -0.595418 -2.67355e-16)
(23.9726 -0.373912 -3.05936e-16)
(24.4152 -0.100592 -1.14945e-16)
(24.7933 0.212553 2.83789e-17)
(25.1038 0.554769 9.43161e-18)
(25.3443 0.915278 6.16563e-18)
(25.514 1.2831 1.26856e-18)
(25.6136 1.64821 -3.65905e-17)
(25.644 2.00225 1.04613e-17)
(25.6059 2.33689 -2.57353e-16)
(25.4935 2.64574 1.72754e-17)
(16.9405 6.13591 -1.71346e-15)
(16.9237 5.25523 4.51005e-16)
(16.9973 4.42607 8.16226e-16)
(17.1482 3.66003 -1.41174e-15)
(17.3634 2.96717 -9.60997e-16)
(17.6348 2.34184 8.5847e-16)
(17.9556 1.77871 1.83646e-16)
(18.3197 1.27659 -5.86286e-16)
(18.7241 0.832061 5.51241e-16)
(19.1655 0.444384 -2.86276e-16)
(19.6397 0.114332 9.61294e-16)
(20.1426 -0.156722 2.50478e-16)
(20.6694 -0.366956 -3.4012e-17)
(21.2144 -0.513751 1.30403e-16)
(21.7709 -0.594492 -9.95895e-17)
(22.3312 -0.606274 -6.19697e-17)
(22.884 -0.547529 -5.91665e-16)
(23.4127 -0.419594 2.6377e-17)
(23.9005 -0.228313 2.20407e-16)
(24.3353 0.0161447 -7.77141e-18)
(24.7105 0.302748 -3.08906e-17)
(25.0217 0.621046 -1.36817e-17)
(25.2659 0.96048 4.0188e-17)
(25.4414 1.31018 -1.96709e-17)
(25.5481 1.65993 1.24072e-16)
(25.5865 2.00105 -3.1933e-16)
(25.5566 2.32476 5.42182e-16)
(25.4529 2.62388 3.06207e-16)
(17.5023 5.26798 1.03703e-16)
(17.5499 4.49681 -5.80445e-16)
(17.6686 3.78336 5.53717e-17)
(17.8464 3.13689 5.44809e-16)
(18.0757 2.5513 -7.42669e-16)
(18.3507 2.02106 2.06479e-16)
(18.6665 1.54452 -5.72682e-17)
(19.021 1.11808 -3.50398e-16)
(19.4121 0.741006 -5.40349e-16)
(19.8369 0.414404 -4.83844e-16)
(20.2924 0.140111 -2.30658e-16)
(20.775 -0.0793727 -3.4502e-16)
(21.2795 -0.240612 -1.56032e-16)
(21.7997 -0.34022 -2.17106e-16)
(22.3283 -0.374638 8.01662e-17)
(22.8544 -0.341618 4.93821e-16)
(23.362 -0.241708 7.57835e-17)
(23.8346 -0.0793364 9.724e-17)
(24.2601 0.136998 6.67253e-17)
(24.6308 0.397346 2.45597e-17)
(24.9415 0.691718 6.34207e-18)
(25.1883 1.00988 -3.12499e-17)
(25.3688 1.34117 -2.70563e-17)
(25.4821 1.67529 2.16835e-16)
(25.5282 2.00325 -5.22438e-17)
(25.5065 2.3157 -4.86306e-16)
(25.4117 2.6046 3.68866e-16)
(18.0616 4.54842 -8.61502e-17)
(18.154 3.88327 9.54909e-16)
(18.3007 3.28002 -2.59437e-16)
(18.4948 2.73233 2.25347e-16)
(18.7309 2.2344 -1.38151e-16)
(19.0047 1.78425 8.18117e-16)
(19.3151 1.37793 1.80996e-16)
(19.6609 1.01441 -2.69609e-17)
(20.0401 0.694753 5.93797e-16)
(20.4511 0.420984 -3.74966e-16)
(20.891 0.196039 2.97223e-18)
(21.3555 0.0238657 6.33088e-16)
(21.8393 -0.0915169 6.43688e-17)
(22.3356 -0.145979 -2.38159e-16)
(22.8342 -0.136573 -2.16922e-16)
(23.3195 -0.0628727 1.49806e-16)
(23.7755 0.0719617 2.78859e-18)
(24.19 0.260974 -2.55387e-17)
(24.5547 0.495348 1.97171e-17)
(24.8635 0.765698 3.60928e-18)
(25.1119 1.0622 -9.9354e-18)
(25.2966 1.37448 9.46714e-17)
(25.416 1.69223 -1.30396e-16)
(25.4694 2.0062 1.28804e-16)
(25.4559 2.30666 -5.25111e-16)
(25.3701 2.58475 -4.30428e-17)
(18.5362 4.58465 4.06018e-16)
(18.607 3.96399 6.95972e-16)
(18.7279 3.40093 3.23967e-18)
(18.8923 2.88902 6.80603e-16)
(19.0952 2.42238 4.2405e-17)
(19.3328 1.99856 -1.05144e-15)
(19.6045 1.61338 -1.97463e-16)
(19.9096 1.26539 -1.45455e-16)
(20.2472 0.955401 4.05939e-17)
(20.6165 0.685344 1.37372e-16)
(21.0157 0.458297 -4.97862e-16)
(21.4414 0.278513 -2.60507e-16)
(21.8891 0.15043 3.62205e-16)
(22.3529 0.0786383 3.97706e-16)
(22.8232 0.0667205 -2.38749e-16)
(23.2853 0.116115 -1.1346e-17)
(23.7233 0.22498 -3.06936e-16)
(24.1254 0.387714 5.75219e-17)
(24.4826 0.596651 1.52355e-17)
(24.7883 0.843137 -4.43565e-19)
(25.037 1.11783 2.41397e-17)
(25.225 1.41074 -5.69469e-18)
(25.3499 1.71164 1.24927e-16)
(25.4103 2.0111 3.66943e-16)
(25.4048 2.29902 1.10306e-15)
(25.3281 2.5658 3.87396e-17)
(19.03 4.02862 7.18973e-16)
(19.1295 3.50284 -3.27894e-16)
(19.2688 3.02465 -7.18975e-16)
(19.4434 2.58792 -3.70678e-16)
(19.6497 2.19003 -2.02334e-16)
(19.8873 1.82639 -1.96038e-16)
(20.1562 1.49522 3.29477e-16)
(20.456 1.19694 -6.7324e-16)
(20.7868 0.933193 1.64375e-16)
(21.1476 0.706962 -4.20055e-16)
(21.536 0.522502 -3.02377e-16)
(21.9483 0.384518 -1.6814e-16)
(22.3797 0.297989 4.24122e-17)
(22.8215 0.267212 2.81072e-16)
(23.2595 0.294504 3.96324e-17)
(23.6784 0.379087 1.49165e-16)
(24.0666 0.5167 5.42169e-17)
(24.415 0.700861 -7.58677e-17)
(24.7161 0.923726 -7.15263e-18)
(24.9642 1.17654 -1.93891e-17)
(25.1546 1.44974 -6.46274e-17)
(25.2843 1.7333 2.69396e-17)
(25.3512 2.01764 -4.52965e-16)
(25.3535 2.29244 -5.06272e-16)
(25.2861 2.54739 -2.35385e-16)
(19.4254 4.07998 5.43161e-16)
(19.5068 3.58883 -4.32078e-16)
(19.625 3.14211 1.35871e-16)
(19.7753 2.73381 3.59695e-16)
(19.9545 2.36101 1.07918e-15)
(20.1624 2.01888 -8.57936e-17)
(20.3991 1.7052 1.43368e-16)
(20.6649 1.42002 3.92871e-16)
(20.9603 1.16457 2.24995e-16)
(21.2852 0.941555 7.7403e-16)
(21.638 0.755138 5.13708e-16)
(22.0161 0.610028 -3.93038e-17)
(22.4155 0.511406 -4.43382e-16)
(22.8286 0.464075 3.60366e-17)
(23.242 0.471285 -1.7099e-16)
(23.6409 0.533374 5.37525e-17)
(24.014 0.64723 2.68638e-17)
(24.3522 0.807484 -2.97708e-17)
(24.6476 1.00717 1.76884e-18)
(24.8938 1.2382 1.23621e-17)
(25.0856 1.49149 -5.19362e-17)
(25.2193 1.75734 9.61012e-18)
(25.2922 2.02605 5.89439e-17)
(25.3022 2.28722 -1.00299e-16)
(25.2441 2.52987 -6.85558e-16)
(19.8615 3.66111 1.22809e-15)
(19.9616 3.2438 -9.26878e-17)
(20.0912 2.86231 -1.29926e-16)
(20.247 2.51357 -8.73919e-16)
(20.4288 2.19253 5.28545e-16)
(20.6371 1.8966 -4.74839e-16)
(20.8723 1.62541 3.36732e-17)
(21.1354 1.37978 -2.71958e-16)
(21.427 1.16197 -2.6984e-16)
(21.7463 0.975855 -1.22332e-16)
(22.0915 0.826072 -1.41209e-16)
(22.4598 0.717878 1.46659e-16)
(22.8443 0.656427 7.96149e-17)
(23.2327 0.64576 -4.45798e-17)
(23.6109 0.687224 -1.55023e-17)
(23.9679 0.778778 -5.42298e-17)
(24.2946 0.916118 2.28929e-17)
(24.583 1.0932 7.17035e-18)
(24.8261 1.30265 2.21257e-17)
(25.0183 1.53595 8.03761e-17)
(25.1553 1.78375 -3.28103e-16)
(25.2338 2.0364 -3.47935e-18)
(25.2511 2.28343 3.01879e-16)
(25.2023 2.51334 2.61091e-16)
(20.1948 3.72178 2.16532e-17)
(20.2797 3.33192 -5.67125e-16)
(20.3913 2.97562 1.37689e-16)
(20.5269 2.64973 2.73614e-17)
(20.686 2.34909 2.41376e-17)
(20.8691 2.07081 2.23721e-16)
(21.0769 1.81409 -5.2067e-16)
(21.3108 1.57929 9.16073e-17)
(21.5717 1.36825 -2.68494e-16)
(21.8596 1.18441 -1.34752e-17)
(22.1736 1.03215 3.06943e-16)
(22.5117 0.916629 -1.25598e-16)
(22.8681 0.843352 -4.20093e-17)
(23.2314 0.817018 2.86413e-16)
(23.5884 0.839794 5.16789e-17)
(23.9284 0.910616 -2.62814e-17)
(24.2426 1.02619 3.39664e-17)
(24.5228 1.18139 -6.14319e-18)
(24.7617 1.36961 -2.41457e-17)
(24.9533 1.58295 8.78663e-17)
(25.0927 1.81251 -1.03333e-16)
(25.1761 2.04873 1.12508e-16)
(25.2005 2.2812 -3.3479e-16)
(25.1608 2.49799 7.49182e-16)
(20.5082 3.77242 -8.67817e-17)
(20.5799 3.4081 5.23459e-16)
(20.6762 3.0754 -4.21462e-16)
(20.7941 2.77114 2.89826e-16)
(20.9334 2.49007 -3.72457e-16)
(21.0943 2.22907 2.89277e-17)
(21.2777 1.98699 -7.20209e-17)
(21.4852 1.7637 2.56718e-16)
(21.718 1.56055 2.27301e-16)
(21.9768 1.38057 -2.43493e-16)
(22.2614 1.22781 -5.35616e-17)
(22.5704 1.10721 3.3658e-16)
(22.8994 1.02432 -8.45329e-17)
(23.2378 0.9844 -7.78464e-17)
(23.5732 0.990408 -1.65673e-16)
(23.8956 1.04213 4.77588e-17)
(24.1963 1.13719 -1.23416e-17)
(24.4672 1.27137 1.76832e-18)
(24.7009 1.43886 -3.35136e-17)
(24.8909 1.63241 -5.02221e-17)
(25.0319 1.84361 3.69254e-16)
(25.1196 2.06313 -1.03597e-16)
(25.1506 2.28065 -3.4613e-17)
(25.12 2.484 -6.48156e-16)
(20.8633 3.47388 -5.26718e-16)
(20.9463 3.16326 -1.79267e-16)
(21.0489 2.87937 5.34482e-17)
(21.1708 2.61696 5.24449e-16)
(21.3121 2.37269 1.80379e-16)
(21.4739 2.14513 2.07446e-16)
(21.6576 1.93368 -5.30574e-16)
(21.8649 1.73929 6.99731e-17)
(22.0969 1.56446 2.70815e-16)
(22.3538 1.41282 -2.01205e-16)
(22.6352 1.289 5.69656e-17)
(22.9377 1.19853 -1.06291e-17)
(23.2516 1.14708 7.14859e-17)
(23.5653 1.13825 -1.35093e-16)
(23.8695 1.17259 -2.16525e-17)
(24.1559 1.24852 6.30079e-17)
(24.4166 1.36268 1.95288e-18)
(24.644 1.51005 4.11535e-17)
(24.8314 1.6841 -1.11859e-16)
(24.9731 1.87696 -5.23296e-17)
(25.0645 2.0796 -2.42009e-16)
(25.1017 2.28189 1.03048e-16)
(25.0799 2.47153 2.27228e-16)
(21.1307 3.53062 4.48095e-16)
(21.2022 3.24059 5.6254e-16)
(21.2915 2.97581 -1.0469e-16)
(21.3981 2.73103 2.84811e-16)
(21.5223 2.50281 -1.76538e-16)
(21.6648 2.28941 -1.18951e-17)
(21.8272 2.08992 1.02265e-16)
(22.0114 1.90482 6.22932e-17)
(22.2187 1.73613 -3.69238e-17)
(22.4499 1.58701 -1.02689e-16)
(22.7053 1.46168 -1.00262e-16)
(22.9822 1.36555 -1.06237e-16)
(23.2722 1.30454 -1.32333e-16)
(23.5644 1.2828 -9.32791e-17)
(23.8501 1.30143 -3.3948e-17)
(24.1217 1.35964 -1.46362e-17)
(24.3713 1.45488 -2.57641e-18)
(24.5914 1.58289 -3.35466e-17)
(24.7753 1.73785 -4.84907e-17)
(24.9169 1.9125 9.43949e-17)
(25.0112 2.09819 4.36748e-16)
(25.0541 2.28503 -8.34159e-17)
(25.0409 2.46076 -2.27016e-16)
(21.4445 3.30851 -1.03642e-16)
(21.5222 3.0616 -5.37407e-16)
(21.6155 2.83345 1.04403e-16)
(21.7244 2.62052 -2.11345e-16)
(21.8498 2.42085 -7.73525e-17)
(21.9933 2.23323 -2.90947e-16)
(22.1566 2.05773 -7.65243e-18)
(22.3414 1.89591 1.20718e-16)
(22.5489 1.7504 6.89494e-17)
(22.7798 1.625 -7.56655e-18)
(23.0324 1.5249 -9.71876e-17)
(23.2992 1.45614 7.71985e-17)
(23.5701 1.42328 3.1982e-16)
(23.8373 1.42793 -2.668e-17)
(24.0935 1.46993 2.61458e-17)
(24.3314 1.54743 -1.30635e-18)
(24.5435 1.65695 1.8922e-17)
(24.7229 1.79338 1.55048e-16)
(24.8635 1.95006 -4.31836e-16)
(24.96 2.11885 2.18455e-17)
(25.0081 2.29013 6.5432e-17)
(25.0032 2.45184 7.83038e-17)
(21.6738 3.36814 -9.98494e-18)
(21.7414 3.1379 6.63932e-16)
(21.8229 2.92534 -6.4225e-17)
(21.9185 2.72686 1.10619e-16)
(22.0288 2.54037 -3.40146e-17)
(22.1553 2.36436 2.37033e-17)
(22.2999 2.19856 5.74953e-16)
(22.4642 2.04408 -5.151e-16)
(22.6498 1.90308 1.69665e-16)
(22.858 1.77889 2.93981e-16)
(23.0876 1.67634 -2.61964e-17)
(23.332 1.60152 1.89782e-16)
(23.5822 1.55925 -1.58058e-16)
(23.8309 1.55161 -8.38372e-17)
(24.0716 1.57888 -7.43659e-17)
(24.2971 1.63989 -6.74384e-18)
(24.5003 1.73189 -3.24245e-17)
(24.6745 1.85044 -6.86539e-17)
(24.8133 1.98954 3.42707e-16)
(24.9113 2.14155 5.78395e-17)
(24.964 2.29727 -1.90102e-16)
(24.967 2.44494 -2.12186e-16)
(21.8908 3.4203 -5.72764e-17)
(21.9495 3.20561 -4.31939e-16)
(22.0207 3.00763 4.19589e-16)
(22.1045 2.82275 -3.50204e-16)
(22.2014 2.64881 4.56269e-16)
(22.3128 2.48406 -1.46454e-16)
(22.4405 2.32791 -3.49711e-16)
(22.5863 2.18106 1.42435e-16)
(22.752 2.04523 -3.12517e-16)
(22.939 1.92325 -2.14057e-16)
(23.147 1.81955 -8.9404e-18)
(23.3701 1.74021 4.59104e-17)
(23.6002 1.69017 -3.63982e-17)
(23.8307 1.67182 -2.3098e-17)
(24.0556 1.68588 2.26312e-17)
(24.2684 1.73174 1.37883e-17)
(24.4622 1.80726 3.81445e-17)
(24.6304 1.90871 4.42295e-17)
(24.7666 2.03073 2.87779e-16)
(24.8654 2.16624 3.52326e-16)
(24.9221 2.30649 3.01013e-16)
(24.9325 2.44016 3.80428e-16)
(22.1468 3.26559 2.11845e-16)
(22.209 3.08122 -5.02551e-16)
(22.2824 2.90914 8.06691e-17)
(22.3674 2.74706 2.78341e-16)
(22.4654 2.59312 -3.15746e-16)
(22.5781 2.44644 1.03379e-16)
(22.7072 2.30737 -9.25397e-18)
(22.8546 2.17716 1.07037e-17)
(23.0223 2.05817 -9.21259e-17)
(23.21 1.95448 2.54556e-16)
(23.4129 1.87196 -4.83464e-17)
(23.6237 1.81566 2.74066e-18)
(23.8364 1.78815 1.06885e-17)
(24.0457 1.79047 1.37206e-17)
(24.2455 1.8225 -3.03636e-18)
(24.4293 1.88267 1.15353e-17)
(24.5908 1.9679 -6.34766e-17)
(24.7238 2.07344 -4.18115e-16)
(24.8227 2.19282 -7.08985e-16)
(24.8828 2.31783 -2.12251e-16)
(24.9 2.43763 -5.74625e-16)
(22.334 3.31861 -6.21546e-17)
(22.3882 3.14692 2.40331e-16)
(22.4524 2.98678 -3.33986e-17)
(22.5269 2.83588 -4.59539e-16)
(22.613 2.69223 -1.72198e-17)
(22.7122 2.55474 1.07677e-16)
(22.8263 2.42342 -2.69402e-16)
(22.9572 2.29915 4.10979e-16)
(23.107 2.18383 7.94538e-17)
(23.2759 2.08109 -2.04613e-16)
(23.4598 1.99659 -3.24684e-17)
(23.6521 1.93538 -3.96181e-17)
(23.8476 1.90014 5.8697e-18)
(24.0415 1.89217 6.04134e-17)
(24.2282 1.91171 -1.11995e-18)
(24.4017 1.9577 -7.39066e-18)
(24.556 2.02764 5.17744e-17)
(24.685 2.11742 -7.82208e-17)
(24.7833 2.22118 7.33945e-16)
(24.8462 2.33125 -1.57551e-16)
(24.8697 2.43745 6.25246e-16)
(22.5114 3.36532 -2.24737e-16)
(22.5585 3.20541 -4.18893e-16)
(22.6146 3.05641 4.59654e-16)
(22.6798 2.91601 3.10742e-16)
(22.7554 2.78212 -4.05517e-17)
(22.8426 2.65347 3.96491e-17)
(22.9432 2.52979 1.74158e-16)
(23.0592 2.41163 9.51633e-17)
(23.1926 2.30044 2.13004e-16)
(23.3441 2.19942 -7.16282e-17)
(23.5102 2.11396 6.14229e-17)
(23.6851 2.04906 1.76362e-16)
(23.864 2.00744 1.03262e-16)
(24.0428 1.99055 -3.39682e-17)
(24.2165 1.99893 9.44282e-18)
(24.3795 2.03195 7.63995e-17)
(24.5261 2.08763 -8.878e-17)
(24.6506 2.16245 1.42721e-16)
(24.7476 2.25119 -9.56178e-16)
(24.8126 2.34675 1.61279e-16)
(24.8418 2.43966 -6.72191e-16)
(22.7204 3.25736 1.40172e-16)
(22.7693 3.11874 2.84267e-16)
(22.8263 2.98815 -1.96996e-16)
(22.8924 2.86345 4.54595e-16)
(22.969 2.74323 -3.50816e-16)
(23.0576 2.627 7.66339e-17)
(23.1601 2.515 -3.52259e-16)
(23.2787 2.40827 -6.14056e-17)
(23.4142 2.3096 -6.48384e-17)
(23.5637 2.22406 -2.55288e-16)
(23.7221 2.15655 -1.71038e-16)
(23.8852 2.10978 -1.19592e-16)
(24.0494 2.08526 -2.98776e-17)
(24.2102 2.08376 1.37352e-17)
(24.3626 2.10502 -1.31044e-16)
(24.5012 2.14751 1.46555e-16)
(24.6207 2.20827 -1.09595e-16)
(24.7159 2.28267 7.34306e-16)
(24.7824 2.36426 1.0752e-16)
(24.8166 2.44431 7.34285e-16)
(22.8742 3.30333 1.27014e-16)
(22.9167 3.17435 -1.53726e-16)
(22.9664 3.0529 -3.97422e-16)
(23.0242 2.93683 -3.59691e-16)
(23.0913 2.82462 4.61108e-16)
(23.1691 2.7156 -8.50316e-17)
(23.2595 2.60972 3.86169e-16)
(23.3646 2.50764 9.92322e-17)
(23.4855 2.41179 -1.47513e-17)
(23.6197 2.32691 1.02802e-18)
(23.7627 2.25774 9.18314e-17)
(23.9108 2.20692 1.24487e-16)
(24.0609 2.17599 2.04105e-17)
(24.2091 2.16586 -1.59325e-17)
(24.3509 2.17655 7.58227e-17)
(24.4814 2.20695 -7.13396e-17)
(24.5954 2.25461 1.19681e-17)
(24.6882 2.31547 -1.42332e-16)
(24.7556 2.38371 -6.45673e-16)
(24.7942 2.4514 8.46129e-17)
(23.057 3.22383 -2.3167e-16)
(23.1004 3.11089 -1.5634e-17)
(23.1508 3.00289 4.81475e-16)
(23.2094 2.89824 -7.77954e-17)
(23.2776 2.79611 -7.37154e-17)
(23.3572 2.69622 -6.83151e-17)
(23.4501 2.59892 -2.269e-17)
(23.5577 2.50624 9.69682e-17)
(23.6777 2.42263 5.62101e-17)
(23.8063 2.35261 5.56053e-17)
(23.9404 2.29872 -4.48755e-17)
(24.0771 2.2625 4.89552e-17)
(24.2131 2.24491 1.89061e-19)
(24.3444 2.24622 -2.5935e-17)
(24.4666 2.26565 6.72244e-17)
(24.5749 2.3012 -8.3874e-17)
(24.6649 2.34938 9.49138e-18)
(24.7325 2.40498 3.94583e-16)
(24.7747 2.46088 -4.13374e-16)
(23.1907 3.2677 3.54701e-16)
(23.2283 3.16265 1.28512e-16)
(23.2722 3.06216 -1.17557e-16)
(23.3233 2.96461 -1.58137e-16)
(23.383 2.86905 -2.22254e-16)
(23.4528 2.77499 1.99352e-16)
(23.5348 2.6825 -1.36022e-16)
(23.6302 2.59325 1.99023e-16)
(23.7373 2.51137 -9.41806e-17)
(23.8526 2.44118 -1.78847e-17)
(23.9735 2.38509 1.86651e-17)
(24.0976 2.34458 -4.28827e-17)
(24.2219 2.32065 -1.24917e-17)
(24.3429 2.31373 -4.17671e-17)
(24.4567 2.32331 4.59124e-17)
(24.5591 2.34778 2.50125e-16)
(24.6458 2.3842 3.10498e-17)
(24.7132 2.42795 1.60938e-16)
(24.7583 2.47271 -6.60362e-17)
(23.3179 3.30643 1.05246e-16)
(23.3504 3.20869 -1.31352e-16)
(23.3885 3.11519 -1.92079e-17)
(23.433 3.0243 -1.90052e-16)
(23.4851 2.93495 -1.95992e-16)
(23.5462 2.84649 -1.97602e-16)
(23.6184 2.75875 2.655e-16)
(23.7028 2.67309 -3.94418e-18)
(23.7981 2.59333 5.9418e-17)
(23.9012 2.52355 3.42864e-17)
(24.0098 2.46602 -8.57415e-17)
(24.1219 2.42213 4.7498e-17)
(24.2351 2.3929 -2.1533e-18)
(24.3462 2.37882 5.10957e-17)
(24.4518 2.37964 -1.15069e-16)
(24.5481 2.3941 8.13597e-17)
(24.6312 2.4197 -6.82113e-16)
(24.6978 2.45246 3.29887e-16)
(24.7451 2.48678 4.73596e-16)
(23.4669 3.24948 3.51832e-16)
(23.4999 3.16248 -8.04369e-17)
(23.5385 3.07779 -1.23681e-16)
(23.5839 2.99428 -1.00428e-17)
(23.6373 2.9112 1.55856e-16)
(23.7006 2.82812 -1.00896e-16)
(23.7752 2.74612 -5.55705e-17)
(23.8597 2.66875 -1.89626e-17)
(23.9515 2.59984 -7.37704e-17)
(24.0488 2.54154 5.74183e-17)
(24.1498 2.49509 3.29772e-17)
(24.2524 2.46148 4.88895e-19)
(24.3541 2.44129 4.54233e-17)
(24.4516 2.43442 1.48729e-17)
(24.5417 2.4399 -3.79784e-16)
(24.621 2.45568 3.29876e-16)
(24.6863 2.47833 -4.46614e-16)
(24.7353 2.50298 -5.55612e-16)
(23.5781 3.28546 1.41293e-17)
(23.6066 3.20446 3.30928e-16)
(23.64 3.12556 -2.32335e-16)
(23.6794 3.04754 5.77695e-18)
(23.7259 2.96955 6.53222e-17)
(23.7814 2.89099 1.34682e-16)
(23.847 2.8127 5.683e-17)
(23.9217 2.73791 -2.04447e-16)
(24.0034 2.67026 9.30695e-17)
(24.0902 2.61172 -1.13834e-17)
(24.1809 2.56343 2.70182e-17)
(24.2736 2.52631 1.03649e-17)
(24.3662 2.50097 -4.08915e-17)
(24.4559 2.48743 -6.89231e-17)
(24.5399 2.48497 3.79285e-16)
(24.6151 2.49192 1.66475e-16)
(24.6787 2.50538 2.09098e-16)
(24.7287 2.52114 3.3132e-16)
(23.6842 3.31703 -4.13044e-16)
(23.7086 3.2416 1.19772e-16)
(23.7375 3.16805 -1.04101e-16)
(23.7715 3.09517 3.32053e-16)
(23.812 3.022 -4.74914e-17)
(23.8604 2.94781 -1.2482e-16)
(23.918 2.87319 7.83981e-17)
(23.984 2.80112 7.71162e-17)
(24.0563 2.73502 1.51324e-16)
(24.1336 2.67671 -8.74958e-17)
(24.2148 2.62719 -2.33354e-17)
(24.2983 2.58734 -7.21828e-18)
(24.3823 2.55773 -2.12738e-17)
(24.4645 2.53849 5.36823e-17)
(24.5425 2.5291 -2.76332e-16)
(24.6134 2.52821 1.03705e-17)
(24.6751 2.5334 -1.84109e-17)
(24.7254 2.54108 1.79122e-16)
(23.8063 3.27427 -8.06613e-17)
(23.8311 3.2057 1.54702e-16)
(23.8605 3.13761 -1.63674e-16)
(23.8955 3.06898 -5.71886e-17)
(23.9377 2.99897 1.10832e-16)
(23.9881 2.92795 -2.12953e-16)
(24.0462 2.85867 4.78698e-18)
(24.1101 2.79436 -2.99329e-18)
(24.1787 2.73666 -7.21375e-18)
(24.2511 2.68647 2.78938e-17)
(24.3261 2.64457 -1.03139e-17)
(24.4021 2.6115 -4.00536e-17)
(24.4772 2.58746 1.69205e-16)
(24.5492 2.57211 2.44485e-16)
(24.6159 2.56435 2.28578e-16)
(24.6753 2.56219 4.54087e-19)
(24.7255 2.56263 -2.65946e-17)
(23.8997 3.30287 1.08664e-16)
(23.9209 3.2389 -4.69761e-17)
(23.9462 3.17527 -1.25328e-16)
(23.9765 3.11091 7.13673e-17)
(24.0131 3.04487 -9.66862e-17)
(24.0572 2.97737 -8.72792e-17)
(24.1081 2.91092 8.81654e-17)
(24.1645 2.84855 -6.37398e-17)
(24.2252 2.79178 -1.96878e-18)
(24.2896 2.74137 8.13583e-18)
(24.3567 2.69802 9.73957e-18)
(24.4253 2.66223 2.24007e-17)
(24.4936 2.63425 -3.14883e-16)
(24.5599 2.61383 -1.39882e-16)
(24.6224 2.60013 1.86595e-16)
(24.6791 2.59154 -2.866e-16)
(23.9891 3.32775 2.32632e-17)
(24.0072 3.26803 -7.36232e-17)