/*--------------------------------*- C++ -*----------------------------------*\
| =========                 |                                                 |
| \\      /  F ield         | OpenFOAM: The Open Source CFD Toolbox           |
|  \\    /   O peration     | Version:  2306                                  |
|   \\  /    A nd           | Website:  www.openfoam.com                      |
|    \\/     M anipulation  |                                                 |
\*---------------------------------------------------------------------------*/
FoamFile
{
    version     2.0;
    format      ascii;
    arch        "LSB;label=32;scalar=64";
    class       volScalarField;
    location    "725";
    object      turbulenceProperties:k;
}
// * * * * * * * * * * * * * * * * * * * * * * * * * * * * * * * * * * * * * //

dimensions      [0 2 -2 0 0 0 0];

internalField   nonuniform List<scalar> 
1340
(
7.04821e-07
1.38621e-06
1.57324e-07
6.44776e-07
7.0267e-07
1.38827e-06
1.73419e-07
2.78868e-07
1.54185e-07
6.47211e-07
7.02942e-07
1.38896e-06
3.20721e-07
2.82342e-07
2.64894e-07
1.81893e-07
2.85324e-07
1.52332e-07
6.49836e-07
7.04896e-07
1.38891e-06
4.5854e-07
4.24977e-07
3.97518e-07
3.71961e-07
3.45324e-07
3.20228e-07
2.8373e-07
2.67967e-07
1.90982e-07
2.91538e-07
1.51591e-07
6.52561e-07
7.07972e-07
1.38855e-06
6.43483e-07
6.03276e-07
5.63134e-07
5.24009e-07
4.85643e-07
4.49566e-07
4.18269e-07
3.92698e-07
3.68732e-07
3.43631e-07
3.19889e-07
2.85445e-07
2.71411e-07
2.0055e-07
2.97367e-07
1.51862e-07
6.5515e-07
7.11713e-07
1.38797e-06
8.75744e-07
8.38207e-07
8.00824e-07
7.63848e-07
7.27364e-07
6.91246e-07
6.55136e-07
6.18724e-07
5.81983e-07
5.45227e-07
5.09339e-07
4.73941e-07
4.40517e-07
4.1155e-07
3.87881e-07
3.65525e-07
3.42015e-07
3.19655e-07
2.87444e-07
2.7517e-07
2.10501e-07
3.02709e-07
1.53061e-07
6.57557e-07
7.15757e-07
1.38692e-06
1.18054e-06
1.15347e-06
1.12567e-06
1.09721e-06
1.06821e-06
1.03871e-06
1.00882e-06
9.78579e-07
9.48022e-07
9.17081e-07
8.85706e-07
8.53839e-07
8.21532e-07
7.88905e-07
7.56201e-07
7.23643e-07
6.91299e-07
6.59069e-07
6.26649e-07
5.93811e-07
5.60558e-07
5.27209e-07
4.94576e-07
4.62168e-07
4.31449e-07
4.0485e-07
3.83079e-07
3.62342e-07
3.40463e-07
3.19516e-07
2.89714e-07
2.7921e-07
2.20753e-07
3.07462e-07
1.55124e-07
6.59689e-07
7.19578e-07
1.38572e-06
1.15785e-06
1.18346e-06
1.0647e-06
1.09386e-06
1.09361e-06
1.14313e-06
1.16985e-06
1.19614e-06
1.21898e-06
1.24057e-06
1.26044e-06
1.27847e-06
1.29419e-06
1.3077e-06
1.31945e-06
1.32882e-06
1.3361e-06
1.34139e-06
1.34475e-06
1.34632e-06
1.34613e-06
1.34431e-06
1.34104e-06
1.33643e-06
1.33056e-06
1.32353e-06
1.3155e-06
1.30656e-06
1.29669e-06
1.28607e-06
1.27466e-06
1.26254e-06
1.24975e-06
1.23625e-06
1.22212e-06
1.20734e-06
1.19185e-06
1.17574e-06
1.15888e-06
1.1413e-06
1.12304e-06
1.10398e-06
1.08416e-06
1.06352e-06
1.04215e-06
1.02002e-06
9.97176e-07
9.73733e-07
9.49705e-07
9.25193e-07
9.00271e-07
8.7492e-07
8.49095e-07
8.22755e-07
7.95817e-07
7.68322e-07
7.40357e-07
7.12118e-07
6.83792e-07
6.55449e-07
6.27007e-07
5.98219e-07
5.68919e-07
5.39142e-07
5.09195e-07
4.79801e-07
4.50384e-07
4.22406e-07
3.98188e-07
3.78293e-07
3.59177e-07
3.38958e-07
3.19455e-07
2.92239e-07
2.83511e-07
2.31242e-07
3.11567e-07
1.57964e-07
6.61317e-07
7.2297e-07
1.38456e-06
1.18969e-06
9.47327e-07
8.69683e-07
9.49775e-07
9.66929e-07
9.98092e-07
1.01713e-06
1.03811e-06
1.05683e-06
1.07458e-06
1.09078e-06
1.10535e-06
1.11822e-06
1.12939e-06
1.13903e-06
1.14679e-06
1.15294e-06
1.15762e-06
1.16071e-06
1.16238e-06
1.16273e-06
1.16182e-06
1.15978e-06
1.15672e-06
1.15267e-06
1.14777e-06
1.14214e-06
1.13574e-06
1.12869e-06
1.12106e-06
1.11283e-06
1.10409e-06
1.09479e-06
1.085e-06
1.0747e-06
1.06385e-06
1.05248e-06
1.04057e-06
1.02805e-06
1.01491e-06
1.00113e-06
9.8669e-07
9.71507e-07
9.55584e-07
9.38974e-07
9.21587e-07
9.03533e-07
8.84848e-07
8.65579e-07
8.45819e-07
8.25615e-07
8.04946e-07
7.83773e-07
7.62047e-07
7.39662e-07
7.16636e-07
6.93017e-07
6.68972e-07
6.44653e-07
6.20121e-07
5.95327e-07
5.70076e-07
5.44248e-07
5.17893e-07
4.91303e-07
4.6511e-07
4.38654e-07
4.13427e-07
3.91579e-07
3.73518e-07
3.56021e-07
3.37483e-07
3.19467e-07
2.95e-07
2.88052e-07
2.41878e-07
3.14986e-07
1.61385e-07
6.62731e-07
7.25536e-07
1.38396e-06
9.05579e-07
8.00968e-07
7.72836e-07
8.44242e-07
8.52241e-07
8.7394e-07
8.89413e-07
9.05981e-07
9.21013e-07
9.35065e-07
9.4766e-07
9.59266e-07
9.69438e-07
9.78273e-07
9.85831e-07
9.92068e-07
9.96995e-07
1.00085e-06
1.00348e-06
1.00493e-06
1.00548e-06
1.00508e-06
1.00382e-06
1.00169e-06
9.98952e-07
9.95578e-07
9.91584e-07
9.87077e-07
9.82102e-07
9.76684e-07
9.7085e-07
9.64644e-07
9.58028e-07
9.5105e-07
9.43709e-07
9.35959e-07
9.27797e-07
9.19199e-07
9.10135e-07
9.00536e-07
8.90403e-07
8.79692e-07
8.68302e-07
8.56296e-07
8.43608e-07
8.30209e-07
8.16213e-07
8.01602e-07
7.86459e-07
7.70851e-07
7.54806e-07
7.38319e-07
7.21348e-07
7.03804e-07
6.85571e-07
6.66654e-07
6.47062e-07
6.26908e-07
6.06342e-07
5.85427e-07
5.64125e-07
5.42293e-07
5.19841e-07
4.96852e-07
4.73559e-07
4.50493e-07
4.26973e-07
4.04504e-07
3.8499e-07
3.6871e-07
3.52843e-07
3.36004e-07
3.19532e-07
2.97994e-07
2.92832e-07
2.52581e-07
3.17742e-07
1.65372e-07
6.6304e-07
7.27862e-07
1.38433e-06
7.74457e-07
7.17084e-07
6.95453e-07
7.47388e-07
7.51542e-07
7.68624e-07
7.80865e-07
7.93694e-07
8.05242e-07
8.16039e-07
8.25752e-07
8.34631e-07
8.4245e-07
8.49243e-07
8.55067e-07
8.59942e-07
8.63784e-07
8.66836e-07
8.68968e-07
8.70239e-07
8.70845e-07
8.70753e-07
8.69987e-07
8.68629e-07
8.66885e-07
8.64559e-07
8.61844e-07
8.58814e-07
8.55386e-07
8.51677e-07
8.47662e-07
8.43419e-07
8.3885e-07
8.34066e-07
8.29003e-07
8.23634e-07
8.17973e-07
8.11975e-07
8.05583e-07
7.98791e-07
7.91537e-07
7.83773e-07
7.75461e-07
7.66586e-07
7.5708e-07
7.46992e-07
7.36346e-07
7.25155e-07
7.13514e-07
7.01457e-07
6.89023e-07
6.76189e-07
6.62923e-07
6.49065e-07
6.34548e-07
6.19327e-07
6.0333e-07
5.86728e-07
5.69614e-07
5.52029e-07
5.34007e-07
5.15426e-07
4.9619e-07
4.76424e-07
4.56298e-07
4.36235e-07
4.15565e-07
3.95787e-07
3.78541e-07
3.63971e-07
3.49709e-07
3.34559e-07
3.19696e-07
3.01217e-07
2.97847e-07
2.63107e-07
3.19921e-07
1.69125e-07
6.62695e-07
7.28822e-07
1.38767e-06
6.86295e-07
6.35787e-07
6.14532e-07
6.54401e-07
6.5745e-07
6.70713e-07
6.79975e-07
6.89669e-07
6.98217e-07
7.06416e-07
7.13739e-07
7.20362e-07
7.2632e-07
7.31396e-07
7.35839e-07
7.39641e-07
7.42624e-07
7.44974e-07
7.46763e-07
7.47923e-07
7.48595e-07
7.48743e-07
7.48432e-07
7.47778e-07
7.46742e-07
7.45347e-07
7.43796e-07
7.41935e-07
7.39786e-07
7.37449e-07
7.35061e-07
7.32404e-07
7.29622e-07
7.2657e-07
7.23395e-07
7.20193e-07
7.16516e-07
7.12674e-07
7.08584e-07
7.04181e-07
6.99313e-07
6.94109e-07
6.88409e-07
6.82151e-07
6.75489e-07
6.68219e-07
6.60497e-07
6.52362e-07
6.43776e-07
6.34927e-07
6.2573e-07
6.16185e-07
6.06308e-07
5.95832e-07
5.84692e-07
5.729e-07
5.60264e-07
5.46945e-07
5.33123e-07
5.18711e-07
5.03837e-07
4.88453e-07
4.72385e-07
4.55794e-07
4.3881e-07
4.21755e-07
4.03927e-07
3.86871e-07
3.71891e-07
3.59049e-07
3.46417e-07
3.33019e-07
3.19935e-07
3.04711e-07
3.03256e-07
2.73775e-07
3.21494e-07
1.76196e-07
6.58561e-07
7.32614e-07
1.3914e-06
5.87369e-07
5.43854e-07
5.24718e-07
5.55433e-07
5.5667e-07
5.66439e-07
5.72602e-07
5.78771e-07
5.85279e-07
5.90484e-07
5.95395e-07
6.00407e-07
6.04305e-07
6.07656e-07
6.11045e-07
6.1395e-07
6.15736e-07
6.17821e-07
6.19267e-07
6.20317e-07
6.2121e-07
6.21447e-07
6.21789e-07
6.2188e-07
6.21504e-07
6.2115e-07
6.20682e-07
6.20023e-07
6.19264e-07
6.18229e-07
6.17458e-07
6.16523e-07
6.15387e-07
6.1401e-07
6.12949e-07
6.11684e-07
6.10023e-07
6.08288e-07
6.06473e-07
6.04393e-07
6.01849e-07
5.99232e-07
5.95923e-07
5.92353e-07
5.88514e-07
5.83944e-07
5.79198e-07
5.74165e-07
5.68625e-07
5.63078e-07
5.57215e-07
5.51016e-07
5.44694e-07
5.37709e-07
5.30065e-07
5.21826e-07
5.12771e-07
5.02896e-07
4.92565e-07
4.81642e-07
4.70228e-07
4.58356e-07
4.45814e-07
4.32782e-07
4.19295e-07
4.05557e-07
3.90919e-07
3.76937e-07
3.64442e-07
3.53484e-07
3.42711e-07
3.3135e-07
3.20381e-07
3.09082e-07
3.09355e-07
2.86323e-07
3.20194e-07
1.89986e-07
6.46085e-07
7.25917e-07
1.3448e-06
4.82127e-07
4.51411e-07
4.37221e-07
4.58036e-07
4.58162e-07
4.64559e-07
4.67767e-07
4.71533e-07
4.75683e-07
4.78499e-07
4.81664e-07
4.8489e-07
4.87101e-07
4.8916e-07
4.91668e-07
4.93524e-07
4.94612e-07
4.96441e-07
4.97353e-07
4.98515e-07
4.99566e-07
4.99797e-07
5.00676e-07
5.01459e-07
5.01588e-07
5.02109e-07
5.024e-07
5.02748e-07
5.03218e-07
5.03377e-07
5.03708e-07
5.04213e-07
5.04385e-07
5.04552e-07
5.05147e-07
5.05293e-07
5.05404e-07
5.05478e-07
5.05492e-07
5.05224e-07
5.04791e-07
5.04125e-07
5.02985e-07
5.01861e-07
5.00201e-07
4.9822e-07
4.96193e-07
4.93891e-07
4.91334e-07
4.88822e-07
4.86193e-07
4.83264e-07
4.80275e-07
4.76707e-07
4.72535e-07
4.6774e-07
4.62184e-07
4.55865e-07
4.49098e-07
4.41811e-07
4.34082e-07
4.25914e-07
4.17169e-07
4.07931e-07
3.98144e-07
3.87953e-07
3.76795e-07
3.66101e-07
3.56239e-07
3.47326e-07
3.38623e-07
3.2959e-07
3.21227e-07
3.1437e-07
3.16543e-07
2.99715e-07
3.17928e-07
2.05075e-07
6.4552e-07
7.20084e-07
1.34306e-06
3.93793e-07
3.71121e-07
3.59529e-07
3.74209e-07
3.73885e-07
3.77249e-07
3.79253e-07
3.82038e-07
3.8347e-07
3.85611e-07
3.87868e-07
3.89384e-07
3.90806e-07
3.9235e-07
3.94117e-07
3.95016e-07
3.96315e-07
3.97576e-07
3.98226e-07
3.99559e-07
4.00624e-07
4.01085e-07
4.02203e-07
4.03208e-07
4.03762e-07
4.04998e-07
4.05772e-07
4.06647e-07
4.07864e-07
4.08859e-07
4.09854e-07
4.11248e-07
4.12293e-07
4.13476e-07
4.14986e-07
4.16116e-07
4.17338e-07
4.18616e-07
4.1975e-07
4.20686e-07
4.21646e-07
4.22261e-07
4.22783e-07
4.23215e-07
4.23176e-07
4.23192e-07
4.23162e-07
4.2296e-07
4.22776e-07
4.22623e-07
4.22562e-07
4.22291e-07
4.21873e-07
4.21135e-07
4.19747e-07
4.17801e-07
4.15204e-07
4.11929e-07
4.0832e-07
4.0427e-07
3.9985e-07
3.95097e-07
3.89833e-07
3.84045e-07
3.77712e-07
3.70845e-07
3.62997e-07
3.55431e-07
3.48072e-07
3.41184e-07
3.34622e-07
3.2803e-07
3.22608e-07
3.20228e-07
3.24532e-07
3.12484e-07
3.17005e-07
2.20127e-07
6.51501e-07
7.0157e-07
1.34267e-06
3.21295e-07
2.87434e-07
3.02413e-07
2.91189e-07
3.03857e-07
3.02236e-07
3.04233e-07
3.05906e-07
3.07452e-07
3.08214e-07
3.09608e-07
3.11162e-07
3.12238e-07
3.13134e-07
3.14445e-07
3.15821e-07
3.16395e-07
3.17783e-07
3.18833e-07
3.19684e-07
3.21057e-07
3.21983e-07
3.23099e-07
3.24246e-07
3.25456e-07
3.26648e-07
3.28091e-07
3.29414e-07
3.30718e-07
3.32447e-07
3.34011e-07
3.35533e-07
3.37546e-07
3.3918e-07
3.4107e-07
3.43208e-07
3.44963e-07
3.46982e-07
3.49016e-07
3.50854e-07
3.5272e-07
3.54502e-07
3.5613e-07
3.57742e-07
3.59164e-07
3.60529e-07
3.61902e-07
3.63303e-07
3.64758e-07
3.66306e-07
3.67933e-07
3.69725e-07
3.71398e-07
3.72894e-07
3.74191e-07
3.74855e-07
3.75065e-07
3.74761e-07
3.73886e-07
3.72803e-07
3.7142e-07
3.69739e-07
3.67828e-07
3.65466e-07
3.62599e-07
3.59216e-07
3.55235e-07
3.50306e-07
3.45494e-07
3.40375e-07
3.35392e-07
3.30948e-07
3.26837e-07
3.24571e-07
3.26534e-07
3.32893e-07
3.24114e-07
3.17144e-07
2.38564e-07
6.60837e-07
6.77788e-07
1.34187e-06
2.60174e-07
2.31984e-07
2.4355e-07
2.33705e-07
2.44511e-07
2.42642e-07
2.44403e-07
2.45033e-07
2.46237e-07
2.4712e-07
2.47695e-07
2.48906e-07
2.49804e-07
2.50812e-07
2.51782e-07
2.5278e-07
2.53633e-07
2.54916e-07
2.56065e-07
2.57046e-07
2.58266e-07
2.59403e-07
2.60996e-07
2.62153e-07
2.63657e-07
2.65169e-07
2.66732e-07
2.68611e-07
2.702e-07
2.72217e-07
2.74137e-07
2.76209e-07
2.78494e-07
2.80589e-07
2.82956e-07
2.85463e-07
2.87804e-07
2.90219e-07
2.92811e-07
2.95235e-07
2.97702e-07
3.00176e-07
3.02502e-07
3.04926e-07
3.07274e-07
3.09686e-07
3.1214e-07
3.14676e-07
3.17444e-07
3.2034e-07
3.23295e-07
3.26453e-07
3.29556e-07
3.32448e-07
3.35233e-07
3.37451e-07
3.39289e-07
3.40778e-07
3.41853e-07
3.42814e-07
3.43591e-07
3.44174e-07
3.4457e-07
3.44615e-07
3.44184e-07
3.43265e-07
3.41762e-07
3.39375e-07
3.36955e-07
3.3383e-07
3.30648e-07
3.28246e-07
3.2661e-07
3.27595e-07
3.33625e-07
3.41714e-07
3.34923e-07
3.19141e-07
2.63409e-07
6.73645e-07
6.49964e-07
1.34204e-06
2.07728e-07
1.84968e-07
1.93434e-07
1.85341e-07
1.94251e-07
1.92967e-07
1.94313e-07
1.94935e-07
1.96158e-07
1.96534e-07
1.97384e-07
1.98614e-07
1.99313e-07
2.00423e-07
2.01463e-07
2.02323e-07
2.03585e-07
2.04815e-07
2.06111e-07
2.07181e-07
2.08602e-07
2.10163e-07
2.11584e-07
2.13144e-07
2.1494e-07
2.16474e-07
2.18464e-07
2.20544e-07
2.22298e-07
2.2459e-07
2.26732e-07
2.29124e-07
2.31575e-07
2.33878e-07
2.36535e-07
2.39323e-07
2.41822e-07
2.44571e-07
2.47469e-07
2.50188e-07
2.52997e-07
2.55978e-07
2.58733e-07
2.61661e-07
2.64766e-07
2.67797e-07
2.71062e-07
2.7442e-07
2.78067e-07
2.81834e-07
2.85679e-07
2.89776e-07
2.93762e-07
2.97614e-07
3.0142e-07
3.04767e-07
3.07845e-07
3.10744e-07
3.13396e-07
3.16017e-07
3.18524e-07
3.20959e-07
3.2327e-07
3.25262e-07
3.26875e-07
3.28034e-07
3.28639e-07
3.28446e-07
3.28047e-07
3.26684e-07
3.2526e-07
3.24926e-07
3.25838e-07
3.30162e-07
3.39824e-07
3.48845e-07
3.42507e-07
3.20911e-07
2.92137e-07
6.89599e-07
6.15711e-07
1.34588e-06
1.74009e-07
1.55917e-07
1.63033e-07
1.56028e-07
1.63712e-07
1.62575e-07
1.63257e-07
1.64261e-07
1.65013e-07
1.65271e-07
1.66183e-07
1.67126e-07
1.67764e-07
1.68545e-07
1.69611e-07
1.70371e-07
1.71581e-07
1.72703e-07
1.73659e-07
1.748e-07
1.76243e-07
1.777e-07
1.78869e-07
1.80347e-07
1.82287e-07
1.83658e-07
1.85527e-07
1.87527e-07
1.89348e-07
1.91469e-07
1.93661e-07
1.95969e-07
1.98382e-07
2.00758e-07
2.03447e-07
2.06202e-07
2.08809e-07
2.11762e-07
2.14747e-07
2.17771e-07
2.20782e-07
2.24142e-07
2.27352e-07
2.30766e-07
2.34414e-07
2.37963e-07
2.41924e-07
2.45876e-07
2.50085e-07
2.54439e-07
2.58887e-07
2.63511e-07
2.68049e-07
2.72611e-07
2.77073e-07
2.81284e-07
2.85378e-07
2.89373e-07
2.93258e-07
2.97177e-07
3.01016e-07
3.04863e-07
3.08634e-07
3.12114e-07
3.15367e-07
3.1821e-07
3.20536e-07
3.22201e-07
3.23588e-07
3.23875e-07
3.24013e-07
3.25391e-07
3.28409e-07
3.3554e-07
3.47891e-07
3.57164e-07
3.51332e-07
3.30033e-07
3.34563e-07
7.14263e-07
5.83834e-07
1.364e-06
1.41693e-07
1.26351e-07
1.3208e-07
1.25885e-07
1.33815e-07
1.32693e-07
1.33888e-07
1.34924e-07
1.35284e-07
1.35887e-07
1.37176e-07
1.38197e-07
1.39042e-07
1.39811e-07
1.40963e-07
1.42194e-07
1.43438e-07
1.44514e-07
1.45521e-07
1.47241e-07
1.48572e-07
1.50016e-07
1.5145e-07
1.52915e-07
1.54959e-07
1.56508e-07
1.5829e-07
1.60209e-07
1.62223e-07
1.6429e-07
1.66324e-07
1.68716e-07
1.70905e-07
1.73299e-07
1.75909e-07
1.78434e-07
1.8106e-07
1.8377e-07
1.86781e-07
1.89723e-07
1.92649e-07
1.9599e-07
1.99265e-07
2.02692e-07
2.06282e-07
2.10007e-07
2.13915e-07
2.17889e-07
2.22055e-07
2.26331e-07
2.30785e-07
2.35286e-07
2.39888e-07
2.44562e-07
2.4918e-07
2.53768e-07
2.58387e-07
2.63012e-07
2.67621e-07
2.72364e-07
2.77084e-07
2.81899e-07
2.86683e-07
2.91276e-07
2.95742e-07
2.99823e-07
3.03449e-07
3.06465e-07
3.08878e-07
3.10165e-07
3.11884e-07
3.15357e-07
3.21165e-07
3.31768e-07
3.46339e-07
3.53603e-07
3.44655e-07
3.249e-07
3.62313e-07
7.29578e-07
5.29579e-07
1.39573e-06
1.49285e-07
1.38708e-07
1.42724e-07
1.38222e-07
1.42137e-07
1.41298e-07
1.42245e-07
1.42745e-07
1.42613e-07
1.43007e-07
1.43847e-07
1.44537e-07
1.44973e-07
1.45267e-07
1.46043e-07
1.46861e-07
1.47557e-07
1.48226e-07
1.48816e-07
1.50074e-07
1.50957e-07
1.51773e-07
1.52834e-07
1.53941e-07
1.55339e-07
1.56557e-07
1.57969e-07
1.594e-07
1.61083e-07
1.62836e-07
1.6456e-07
1.66708e-07
1.68691e-07
1.71033e-07
1.73507e-07
1.76084e-07
1.78824e-07
1.81696e-07
1.84976e-07
1.88143e-07
1.91589e-07
1.95236e-07
1.98911e-07
2.02709e-07
2.06633e-07
2.10647e-07
2.14583e-07
2.18692e-07
2.228e-07
2.26994e-07
2.31413e-07
2.35905e-07
2.4067e-07
2.45545e-07
2.50579e-07
2.55677e-07
2.60821e-07
2.65977e-07
2.71012e-07
2.76101e-07
2.81118e-07
2.86216e-07
2.9133e-07
2.96382e-07
3.01385e-07
3.06113e-07
3.10568e-07
3.14662e-07
3.18623e-07
3.21546e-07
3.23949e-07
3.27457e-07
3.32885e-07
3.42705e-07
3.55935e-07
3.61895e-07
3.57564e-07
3.56816e-07
4.39762e-07
7.71147e-07
5.47184e-07
1.53349e-06
1.13454e-07
1.14774e-07
1.13454e-07
1.16044e-07
1.17234e-07
1.17635e-07
1.1831e-07
1.18798e-07
1.19555e-07
1.2036e-07
1.20854e-07
1.21646e-07
1.22443e-07
1.23281e-07
1.24099e-07
1.24894e-07
1.25868e-07
1.2679e-07
1.27735e-07
1.28803e-07
1.29774e-07
1.30913e-07
1.31982e-07
1.33133e-07
1.34384e-07
1.35668e-07
1.36973e-07
1.38291e-07
1.39784e-07
1.4123e-07
1.42792e-07
1.44436e-07
1.46072e-07
1.479e-07
1.49711e-07
1.51681e-07
1.5369e-07
1.55789e-07
1.58003e-07
1.60188e-07
1.62528e-07
1.64854e-07
1.67186e-07
1.69519e-07
1.71908e-07
1.74233e-07
1.76568e-07
1.79018e-07
1.81514e-07
1.84227e-07
1.87121e-07
1.90261e-07
1.93682e-07
1.97257e-07
2.01077e-07
2.05011e-07
2.09123e-07
2.13348e-07
2.17672e-07
2.22273e-07
2.27021e-07
2.32016e-07
2.37148e-07
2.42343e-07
2.47542e-07
2.52472e-07
2.57117e-07
2.61253e-07
2.63592e-07
2.64549e-07
2.67994e-07
2.75154e-07
2.86333e-07
3.03324e-07
3.19208e-07
3.17224e-07
2.98811e-07
3.0507e-07
4.30611e-07
6.58004e-07
4.96183e-07
1.54491e-06
)
;

boundaryField
{
    inlet
    {
        type            calculated;
        value           nonuniform List<scalar> 
23
(
5.81313e-06
5.78412e-06
5.75603e-06
5.72876e-06
5.7017e-06
5.67422e-06
5.64552e-06
5.61501e-06
5.58188e-06
5.54543e-06
5.50469e-06
5.45992e-06
5.40869e-06
5.32876e-06
5.26197e-06
5.1803e-06
5.07864e-06
4.95479e-06
4.80586e-06
4.63085e-06
4.42273e-06
4.2619e-06
3.95945e-06
)
;
    }
    outlet
    {
        type            calculated;
        value           nonuniform List<scalar> 
82
(
9.04674e-08
9.02971e-08
9.22678e-08
9.33285e-08
9.4635e-08
9.49526e-08
9.55944e-08
9.60107e-08
9.67423e-08
9.75253e-08
9.79328e-08
9.86842e-08
9.94461e-08
1.00241e-07
1.01014e-07
1.01748e-07
1.02692e-07
1.03568e-07
1.04461e-07
1.05501e-07
1.06412e-07
1.07511e-07
1.08527e-07
1.09625e-07
1.10835e-07
1.12067e-07
1.13315e-07
1.14557e-07
1.15994e-07
1.17355e-07
1.18826e-07
1.20377e-07
1.21884e-07
1.23593e-07
1.25247e-07
1.27051e-07
1.2887e-07
1.30755e-07
1.32743e-07
1.34657e-07
1.36731e-07
1.38764e-07
1.40785e-07
1.42801e-07
1.44881e-07
1.46896e-07
1.48932e-07
1.5112e-07
1.53366e-07
1.5586e-07
1.5854e-07
1.61457e-07
1.64636e-07
1.67919e-07
1.71418e-07
1.75008e-07
1.788e-07
1.82771e-07
1.86942e-07
1.91538e-07
1.96398e-07
2.01595e-07
2.06965e-07
2.12386e-07
2.17792e-07
2.22863e-07
2.2751e-07
2.31362e-07
2.32889e-07
2.33073e-07
2.36662e-07
2.44973e-07
2.58548e-07
2.79001e-07
2.97513e-07
2.94041e-07
2.66887e-07
2.61677e-07
3.86291e-07
6.33264e-07
4.03523e-07
1.40106e-06
)
;
    }
    walls
    {
        type            calculated;
        value           nonuniform List<scalar> 0();
    }
    frontAndBack
    {
        type            empty;
    }
    procBoundary3to2
    {
        type            processor;
        value           nonuniform List<scalar> 
88
(
7.09898e-07
1.3836e-06
1.61743e-07
6.42062e-07
6.42062e-07
1.65654e-07
2.72258e-07
2.72258e-07
3.21456e-07
2.81353e-07
2.6228e-07
2.6228e-07
4.67458e-07
4.31702e-07
4.02382e-07
3.75257e-07
3.47141e-07
3.47141e-07
6.67909e-07
6.2428e-07
5.8081e-07
5.38494e-07
4.97203e-07
4.97203e-07
9.30438e-07
8.8782e-07
8.45599e-07
8.04079e-07
7.6336e-07
7.23296e-07
6.83468e-07
6.83468e-07
1.30622e-06
1.27235e-06
1.23788e-06
1.20291e-06
1.1675e-06
1.13181e-06
1.09588e-06
1.05977e-06
1.02352e-06
9.87028e-07
9.50261e-07
9.1315e-07
9.1315e-07
8.76016e-07
1.33624e-06
1.40137e-06
1.27223e-06
1.31222e-06
1.35336e-06
1.38775e-06
1.41656e-06
1.44222e-06
1.46522e-06
1.4867e-06
1.50531e-06
1.52115e-06
1.53461e-06
1.54521e-06
1.55341e-06
1.55898e-06
1.56203e-06
1.5629e-06
1.56155e-06
1.55819e-06
1.55296e-06
1.54593e-06
1.53737e-06
1.52744e-06
1.51607e-06
1.50354e-06
1.48993e-06
1.47529e-06
1.45967e-06
1.4431e-06
1.42575e-06
1.4075e-06
1.38839e-06
1.36858e-06
1.34786e-06
1.3264e-06
1.30413e-06
1.281e-06
1.25711e-06
1.2324e-06
1.20687e-06
1.20687e-06
)
;
    }
    procBoundary3to6
    {
        type            processor;
        value           uniform 3.17433e-12;
    }
    procBoundary3to7
    {
        type            processor;
        value           nonuniform List<scalar> 
16
(
1.72115e-08
8.18122e-07
8.31045e-07
6.46818e-07
5.66414e-07
4.99172e-07
4.22311e-07
3.51056e-07
3.51056e-07
2.84572e-07
2.3013e-07
1.83272e-07
1.54312e-07
1.26011e-07
1.3607e-07
1.16542e-07
)
;
    }
}


// ************************************************************************* //
