/*--------------------------------*- C++ -*----------------------------------*\
| =========                 |                                                 |
| \\      /  F ield         | OpenFOAM: The Open Source CFD Toolbox           |
|  \\    /   O peration     | Version:  2306                                  |
|   \\  /    A nd           | Website:  www.openfoam.com                      |
|    \\/     M anipulation  |                                                 |
\*---------------------------------------------------------------------------*/
FoamFile
{
    version     2.0;
    format      ascii;
    arch        "LSB;label=32;scalar=64";
    class       volScalarField;
    location    "925";
    object      div(phi);
}
// * * * * * * * * * * * * * * * * * * * * * * * * * * * * * * * * * * * * * //

dimensions      [0 0 -1 0 0 0 0];

internalField   nonuniform List<scalar> 
1340
(
6.49174e-06
1.20838e-06
3.31372e-08
-5.28263e-10
-5.18396e-07
-3.50991e-07
-6.60685e-07
-3.86321e-07
-5.66767e-07
-3.21044e-07
-6.16067e-07
-2.78763e-07
-7.09938e-07
-8.50074e-08
-4.22708e-07
1.02301e-06
1.64169e-06
1.81607e-06
1.76282e-06
1.22901e-06
1.16613e-06
-1.68295e-06
2.8308e-06
1.03569e-06
1.43642e-06
1.45362e-06
2.52692e-06
2.613e-06
4.91173e-06
1.10516e-06
2.99891e-07
1.22047e-07
-1.53529e-07
-3.06209e-07
-4.64819e-07
-6.78888e-07
-5.88637e-07
-6.96971e-07
-5.12132e-07
-6.66338e-07
-4.54471e-07
-6.46266e-07
-2.62205e-07
-3.45059e-07
6.47798e-07
1.05987e-06
1.51345e-06
1.4535e-06
1.44215e-06
1.05124e-06
-1.18973e-06
2.16671e-06
8.74079e-07
1.37819e-06
1.32074e-06
2.53033e-06
2.2609e-06
1.14177e-06
2.94922e-08
-8.81838e-08
2.8542e-09
-1.46847e-07
-1.45763e-07
-5.04337e-07
-4.44973e-07
-6.07064e-07
-4.20565e-07
-4.89934e-07
-4.1639e-07
-4.22547e-07
-4.52945e-07
-2.69798e-07
-2.05567e-07
6.30015e-07
1.21239e-06
1.62014e-06
1.48153e-06
1.49049e-06
9.7616e-07
-1.14761e-06
2.30894e-06
9.25266e-07
1.41276e-06
1.27482e-06
2.28512e-06
2.16308e-06
1.47161e-06
-2.00391e-07
-3.13943e-07
-1.13141e-07
-1.1893e-07
6.14395e-09
-1.9669e-07
-4.39174e-07
-5.82907e-07
-7.2249e-07
-5.9984e-07
-6.41577e-07
-5.01342e-07
-5.95476e-07
-4.34349e-07
-4.30259e-07
-1.63598e-07
2.25992e-07
7.75044e-07
1.05888e-06
1.37097e-06
1.40554e-06
1.17257e-06
-6.74284e-07
1.72017e-06
9.27794e-07
1.371e-06
1.36132e-06
2.57066e-06
2.31099e-06
2.93831e-07
-2.6237e-07
-4.4565e-07
-3.30466e-07
-4.52524e-08
2.07948e-08
-2.04178e-07
-3.47919e-07
-6.75436e-07
-5.66497e-07
-6.68577e-07
-4.36899e-07
-5.37085e-07
-3.81548e-07
-4.77018e-07
-2.62922e-07
-2.5175e-07
3.63392e-07
6.94784e-07
1.3196e-06
1.35653e-06
1.58791e-06
1.02826e-06
-4.18688e-07
1.44105e-06
9.23495e-07
1.14939e-06
1.20471e-06
1.87816e-06
1.84311e-06
1.60633e-06
9.23378e-08
-5.15557e-07
-4.34128e-07
-2.58489e-07
2.67963e-08
3.30319e-08
-9.94273e-08
-4.26946e-07
-6.29805e-07
-7.34488e-07
-6.72421e-07
-5.63655e-07
-5.78159e-07
-4.98477e-07
-4.80481e-07
-3.62299e-07
-2.21255e-07
4.42114e-08
4.33684e-07
7.20426e-07
1.17642e-06
1.282e-06
1.31215e-06
-2.8793e-07
1.39693e-06
1.03737e-06
1.28966e-06
1.29215e-06
2.28601e-06
2.08077e-06
-3.53262e-07
1.3975e-07
-1.69254e-07
-4.66451e-07
-1.62146e-07
2.43429e-08
9.60833e-08
-7.98885e-08
-4.36746e-07
-6.00759e-07
-7.63648e-07
-5.86411e-07
-6.00015e-07
-4.46243e-07
-5.3469e-07
-3.3771e-07
-4.35955e-07
-1.08432e-07
-8.72888e-08
5.76813e-07
6.29462e-07
1.42066e-06
1.20059e-06
1.46232e-06
-4.11385e-07
1.30373e-06
6.99894e-07
1.07418e-06
9.09261e-07
1.5883e-06
1.2911e-06
1.12538e-06
8.5927e-08
-2.22335e-07
-3.3114e-07
-7.73552e-08
1.20547e-07
1.54319e-07
-9.78964e-08
-3.65578e-07
-6.85131e-07
-6.86471e-07
-6.4817e-07
-5.44082e-07
-5.58263e-07
-4.84928e-07
-4.68142e-07
-3.2524e-07
-2.69609e-07
-5.2735e-08
1.65888e-07
4.56743e-07
8.57256e-07
1.09762e-06
1.1994e-06
7.56365e-09
1.20751e-06
1.26742e-06
1.34012e-06
1.28844e-06
2.01971e-06
1.8659e-06
2.62188e-06
-9.75073e-07
1.02277e-07
-2.61032e-08
-4.47876e-08
-7.0863e-08
1.74236e-07
1.58971e-07
-5.98396e-08
-3.83371e-07
-6.36884e-07
-6.5917e-07
-6.20694e-07
-5.08748e-07
-5.56253e-07
-4.31626e-07
-4.79963e-07
-2.8004e-07
-3.29389e-07
-2.27573e-08
6.43433e-08
5.37867e-07
7.49816e-07
1.22012e-06
1.04675e-06
-1.01207e-08
8.15309e-07
1.02697e-06
7.90414e-07
8.67578e-07
1.12619e-06
1.02338e-06
1.12244e-06
-8.95353e-08
8.52841e-08
-6.57494e-07
1.8456e-07
2.37791e-07
1.7001e-07
-3.79224e-08
-4.12798e-07
-5.65164e-07
-6.41307e-07
-5.15243e-07
-5.56087e-07
-4.77028e-07
-5.37487e-07
-3.71391e-07
-3.84686e-07
-2.08546e-07
-1.98617e-07
7.03929e-08
1.5666e-07
6.07865e-07
7.12669e-07
9.91227e-07
1.01686e-07
1.13622e-06
1.39591e-06
1.5234e-06
1.39836e-06
1.83808e-06
1.76565e-06
5.82356e-07
-7.15119e-07
4.29523e-09
1.59275e-07
3.2618e-07
2.21474e-07
-7.05372e-08
-3.38858e-07
-5.50479e-07
-5.34122e-07
-5.1566e-07
-4.95541e-07
-5.01371e-07
-4.92372e-07
-4.01647e-07
-3.66282e-07
-2.54043e-07
-2.31953e-07
1.26106e-08
8.7225e-08
5.50301e-07
5.8731e-07
8.94819e-07
-1.17883e-07
7.79193e-07
8.64494e-07
1.05195e-06
6.22049e-07
9.64697e-07
6.65128e-07
2.16576e-07
-4.63568e-07
3.34164e-07
4.43077e-07
2.32705e-07
-7.454e-08
-3.17601e-07
-4.81711e-07
-4.44765e-07
-4.78936e-07
-4.32149e-07
-5.43098e-07
-4.18783e-07
-4.43917e-07
-2.74471e-07
-3.1497e-07
-1.48263e-07
-1.36406e-07
7.71639e-08
2.34233e-07
4.66333e-07
5.57916e-07
2.25687e-07
9.11848e-07
1.46178e-06
1.61246e-06
1.62893e-06
1.79721e-06
1.72074e-06
1.82662e-07
2.91414e-07
3.49108e-07
1.59112e-07
-5.06038e-08
-3.17729e-07
-3.63282e-07
-4.29545e-07
-3.82195e-07
-4.78681e-07
-4.61243e-07
-4.82031e-07
-3.78235e-07
-3.55726e-07
-2.89395e-07
-2.59415e-07
-1.59187e-07
-6.647e-08
1.55863e-07
2.52614e-07
4.00469e-07
-9.4207e-08
4.88057e-07
9.11882e-07
8.67735e-07
8.68157e-07
6.15781e-07
5.49314e-07
3.47237e-07
2.55374e-07
1.39458e-07
-9.13441e-08
-2.56479e-07
-3.11771e-07
-3.49465e-07
-3.48019e-07
-4.68e-07
-4.33916e-07
-4.62691e-07
-3.30662e-07
-3.49875e-07
-2.32833e-07
-2.59699e-07
-1.27177e-07
-1.17458e-07
9.62426e-08
1.32735e-07
3.12774e-07
1.33957e-07
7.88676e-07
1.22168e-06
1.67641e-06
1.71129e-06
1.94248e-06
1.74385e-06
2.84625e-07
9.346e-08
-1.00589e-07
-1.83817e-07
-2.93364e-07
-2.58726e-07
-3.89403e-07
-3.82303e-07
-4.83108e-07
-3.75155e-07
-3.95239e-07
-2.97363e-07
-3.25825e-07
-2.56517e-07
-2.60946e-07
-1.7044e-07
-1.03204e-07
2.592e-09
1.27683e-08
-1.03632e-07
2.42381e-07
6.49557e-07
8.46167e-07
7.48169e-07
6.63583e-07
3.17702e-07
1.48912e-07
2.81772e-08
-7.99889e-08
-1.47177e-07
-2.08066e-07
-2.48299e-07
-3.53245e-07
-3.92225e-07
-4.30136e-07
-3.53483e-07
-3.56684e-07
-2.62755e-07
-2.93068e-07
-1.96233e-07
-2.32696e-07
-9.99587e-08
-1.03714e-07
5.21414e-08
3.95411e-08
1.75426e-07
4.98909e-07
1.03659e-06
1.43854e-06
1.77266e-06
1.97795e-06
1.85354e-06
6.40382e-08
1.8367e-08
-1.47732e-07
-1.35706e-07
-2.78585e-07
-2.85034e-07
-4.19513e-07
-3.34727e-07
-3.81777e-07
-2.7827e-07
-3.1793e-07
-2.50895e-07
-2.91873e-07
-2.42319e-07
-2.62743e-07
-1.65903e-07
-1.97015e-07
-1.01296e-07
-2.16902e-07
1.28467e-07
2.77011e-07
6.95146e-07
5.80853e-07
6.29657e-07
7.56257e-08
9.45844e-08
-2.34275e-07
4.15849e-08
-1.08466e-07
-2.28069e-07
-3.09052e-07
-3.51296e-07
-3.2477e-07
-3.2359e-07
-2.57837e-07
-2.76545e-07
-2.06391e-07
-2.41544e-07
-1.57115e-07
-1.55328e-07
-8.76759e-08
-5.00671e-08
6.58113e-09
1.12625e-07
3.61007e-07
7.74418e-07
1.17071e-06
1.64915e-06
1.88604e-06
1.99653e-06
2.53868e-07
-1.16902e-09
-6.08429e-08
-1.52228e-07
-3.17317e-07
-2.57739e-07
-3.26334e-07
-2.27814e-07
-2.77814e-07
-2.0095e-07
-2.53202e-07
-2.02869e-07
-2.51661e-07
-1.73889e-07
-2.40185e-07
-1.36844e-07
-2.39602e-07
-1.01168e-07
-1.25748e-07
2.28959e-07
2.41601e-07
5.84473e-07
3.01998e-07
1.22048e-07
-2.85332e-07
1.96874e-07
1.59011e-08
-1.58094e-07
-2.27096e-07
-2.53496e-07
-2.46683e-07
-2.19218e-07
-2.23118e-07
-1.81651e-07
-2.04202e-07
-1.52819e-07
-1.1685e-07
-8.85334e-08
-6.58647e-08
-2.54989e-08
6.03614e-09
1.25514e-07
2.58229e-07
6.23978e-07
8.83205e-07
1.46362e-06
1.65649e-06
2.05567e-06
3.2714e-07
1.63454e-09
1.7025e-08
-1.70108e-07
-1.53486e-07
-2.35685e-07
-1.56607e-07
-2.13139e-07
-1.34038e-07
-1.87963e-07
-1.31857e-07
-1.62335e-07
-9.63158e-08
-1.49228e-07
-1.07472e-07
-1.54208e-07
-1.16711e-07
-1.42996e-07
-5.8476e-08
3.16339e-08
1.57669e-07
2.833e-07
2.03802e-07
-1.22278e-08
1.79948e-07
-5.36493e-08
-9.53958e-08
-1.60427e-07
-1.54249e-07
-1.53971e-07
-1.37836e-07
-1.27218e-07
-1.3657e-07
-1.11968e-07
-5.8722e-08
-2.20654e-08
-3.49084e-09
-3.9716e-09
2.39754e-08
5.5395e-08
1.49708e-07
2.43835e-07
5.22063e-07
7e-07
1.23258e-06
1.38907e-06
1.87989e-06
6.69283e-08
-7.19267e-08
-7.41591e-08
-1.57112e-07
-8.2009e-08
-1.4233e-07
-6.78508e-08
-1.17958e-07
-6.41023e-08
-6.71101e-08
2.04396e-09
-8.68155e-09
-7.28283e-09
-4.7864e-08
-4.39101e-08
-7.29542e-08
-3.41427e-08
-6.0524e-08
6.73086e-08
1.04831e-08
2.16075e-07
-2.59396e-08
-1.27863e-07
2.04127e-08
-8.60528e-08
-4.5347e-08
-1.78783e-07
-4.46267e-08
-7.56015e-08
-6.16782e-08
-5.16575e-08
-7.6836e-12
4.64559e-08
8.93918e-08
6.48719e-08
6.34012e-08
6.66526e-08
1.15241e-07
1.75077e-07
2.66566e-07
4.54604e-07
5.93042e-07
1.01754e-06
1.12278e-06
1.64773e-06
-2.25297e-08
-3.22837e-08
-2.34779e-07
-8.24756e-08
-5.55435e-08
-2.28616e-08
-1.03689e-08
-3.70883e-10
7.1352e-08
1.09124e-07
1.12727e-07
7.08006e-08
3.1124e-08
1.53455e-08
1.33371e-08
2.32041e-08
1.40439e-08
6.88989e-08
1.20373e-08
1.36572e-07
-1.12764e-07
-1.24383e-07
5.13608e-09
-2.71334e-07
-1.49113e-07
-1.56261e-07
1.61957e-08
-2.33275e-08
4.55872e-08
6.54824e-08
1.00118e-07
1.55782e-07
1.46069e-07
1.14966e-07
9.13472e-08
1.00847e-07
1.46831e-07
1.92275e-07
2.78721e-07
3.97046e-07
5.27735e-07
8.10611e-07
9.46599e-07
1.29664e-06
5.19324e-09
-3.74609e-07
2.91508e-08
-1.71157e-07
1.77936e-07
7.15306e-08
1.4691e-07
1.78876e-07
1.88066e-07
1.66513e-07
1.04437e-07
6.94411e-08
5.79569e-08
6.55779e-08
6.59163e-08
6.82806e-08
7.89902e-08
4.31931e-08
8.41163e-08
-9.34219e-08
-2.00825e-07
-7.57268e-07
2.77527e-08
-3.60313e-07
2.46038e-07
7.82121e-08
2.32981e-07
2.27596e-07
2.18118e-07
1.98839e-07
1.63179e-07
1.11969e-07
9.47527e-08
1.08751e-07
1.48305e-07
1.88139e-07
2.6225e-07
3.38805e-07
4.5656e-07
6.415e-07
7.59084e-07
1.01293e-06
1.1276e-07
-3.99859e-07
1.00799e-08
1.12698e-07
1.99065e-07
3.53623e-07
2.76098e-07
2.2466e-07
2.11181e-07
1.51657e-07
1.02295e-07
7.45311e-08
7.60809e-08
8.47161e-08
9.06082e-08
9.11417e-08
8.86132e-08
6.32867e-08
6.45118e-08
-6.97558e-08
-1.7771e-07
-3.96402e-07
1.59878e-07
-1.01619e-08
4.29851e-07
3.04713e-07
2.23011e-07
2.40239e-07
1.96677e-07
1.27077e-07
8.93516e-08
7.69014e-08
9.31541e-08
1.30505e-07
1.60647e-07
2.2409e-07
2.69777e-07
3.78574e-07
4.81193e-07
6.17388e-07
7.61454e-07
1.86213e-07
-1.99708e-07
2.71772e-07
2.57074e-07
1.85009e-07
2.59932e-07
2.52323e-07
1.98777e-07
1.33295e-07
7.68369e-08
6.46763e-08
7.1302e-08
8.66603e-08
9.00798e-08
9.79631e-08
8.36174e-08
7.84843e-08
5.46353e-08
-3.67705e-08
-1.36867e-07
1.37206e-07
9.75833e-08
1.7805e-07
1.55363e-07
3.00935e-07
1.81766e-07
2.3531e-07
1.30569e-07
6.92999e-08
4.72834e-08
7.77261e-08
8.84453e-08
1.34138e-07
1.58054e-07
2.1389e-07
2.78437e-07
3.59938e-07
4.56533e-07
5.86201e-07
-1.74255e-07
2.31875e-07
-7.94764e-08
3.17183e-07
4.81723e-08
3.15306e-07
2.26643e-07
1.42464e-07
7.14244e-08
5.70171e-08
5.62573e-08
7.64918e-08
7.8146e-08
8.75169e-08
7.79977e-08
7.84507e-08
4.99065e-08
-7.35704e-09
-6.94786e-08
4.0979e-07
-2.34098e-07
1.98836e-07
-4.49307e-08
2.37323e-07
2.358e-07
1.94397e-07
1.67101e-07
7.2039e-08
4.78467e-08
4.49913e-08
6.78854e-08
8.50863e-08
1.13608e-07
1.46244e-07
1.9739e-07
2.44338e-07
3.69783e-07
4.03983e-07
2.50344e-07
-3.83998e-08
1.11519e-07
9.94529e-08
2.05889e-07
2.6317e-07
1.66699e-07
8.88864e-08
4.20924e-08
5.43818e-08
5.22109e-08
6.97865e-08
6.57369e-08
7.49748e-08
6.56695e-08
7.21348e-08
3.56561e-08
-4.45947e-08
-1.74972e-07
1.31062e-07
-9.23868e-08
1.95202e-07
2.47582e-07
2.35419e-07
1.63933e-07
7.42648e-08
4.04744e-08
3.29838e-08
4.24165e-08
5.5547e-08
7.35971e-08
9.88072e-08
1.30935e-07
1.98524e-07
2.3148e-07
3.41162e-07
3.79586e-07
-2.21577e-07
9.94542e-08
1.30825e-07
1.97309e-07
2.49208e-07
1.283e-07
5.39883e-08
3.93301e-08
3.23329e-08
4.72503e-08
5.25211e-08
6.4757e-08
6.46799e-08
8.27509e-08
7.61003e-08
8.5383e-08
-1.19407e-07
1.57923e-07
5.636e-09
1.06084e-07
2.64356e-07
1.47372e-07
4.15531e-08
2.76357e-08
2.14942e-08
2.13514e-08
3.20664e-08
4.55398e-08
5.70869e-08
7.52458e-08
1.05423e-07
1.36234e-07
1.32852e-07
4.9987e-07
-1.57089e-07
7.18474e-08
1.71125e-07
1.38137e-07
5.50117e-09
1.63493e-08
3.2102e-08
1.9156e-08
3.77774e-08
4.90952e-08
6.39068e-08
6.89518e-08
8.08249e-08
8.06096e-08
9.11544e-08
1.25403e-07
2.95467e-07
-4.52719e-09
9.03142e-08
-2.871e-08
1.57945e-08
3.29579e-08
1.32544e-08
7.16926e-08
5.47346e-08
5.60667e-08
6.02231e-08
6.72967e-08
7.12262e-08
8.36529e-08
9.92499e-08
1.65821e-07
1.6313e-07
-6.89118e-08
3.15825e-08
2.32899e-08
3.77462e-09
1.62097e-07
7.33738e-08
6.23034e-08
7.24761e-08
7.95548e-08
8.35605e-08
8.07282e-08
9.24552e-08
7.88942e-08
7.39226e-08
-2.03052e-07
5.63887e-08
3.30951e-08
1.60873e-08
2.55234e-07
6.48926e-08
4.80206e-08
5.55062e-08
6.84589e-08
7.42283e-08
7.00178e-08
6.90848e-08
7.08544e-08
6.90129e-08
9.5917e-08
2.56747e-07
-1.55109e-08
5.09085e-09
2.7369e-07
2.54772e-08
9.44169e-09
1.24823e-08
4.85067e-08
6.34375e-08
7.23159e-08
7.08516e-08
7.45676e-08
6.69992e-08
7.74605e-08
4.17207e-08
1.08249e-07
2.26863e-07
1.00648e-08
-1.15919e-08
-2.16908e-08
2.62881e-08
3.5807e-08
5.70711e-08
4.69286e-08
5.60273e-08
4.73722e-08
4.79117e-08
4.79036e-08
5.36744e-08
8.32452e-08
1.89355e-08
-6.06266e-09
-2.89477e-08
8.94908e-09
2.70208e-09
3.6991e-08
1.19469e-08
5.77282e-08
3.5917e-08
4.10556e-08
5.39194e-08
4.28194e-08
4.1432e-08
1.61861e-07
-1.20389e-08
-2.05098e-08
9.73596e-09
-5.99328e-09
3.32749e-08
-6.36641e-09
7.29074e-08
8.11792e-09
6.49386e-08
4.24084e-08
3.14453e-08
2.91335e-08
3.69453e-08
8.63189e-08
2.85971e-08
8.19657e-09
4.01285e-08
-4.833e-09
7.86972e-08
-1.91043e-08
1.4242e-07
4.1368e-08
3.40552e-08
2.41331e-08
3.78377e-08
1.92153e-08
-1.02469e-08
1.00135e-08
5.00314e-08
3.88657e-09
7.093e-08
-2.11477e-08
2.23856e-07
2.93264e-08
3.06279e-08
5.18306e-09
1.75929e-08
1.2845e-08
2.01261e-08
-2.02754e-08
4.96732e-08
-5.05351e-09
4.5291e-08
-2.06978e-08
2.33939e-07
-6.68102e-09
2.0946e-08
-3.09608e-08
1.13712e-09
1.51832e-10
3.22704e-09
8.34731e-09
4.6203e-08
-3.84043e-08
1.1691e-08
-2.02185e-08
1.79126e-07
-2.56783e-08
2.36294e-08
-5.51536e-08
9.65705e-09
-2.22892e-08
4.63685e-09
-9.82783e-09
-5.45885e-09
5.1574e-09
-1.29572e-08
1.02276e-07
-1.61831e-08
2.82035e-08
-5.57446e-08
2.38441e-08
-4.40491e-08
1.98088e-08
-4.03232e-08
-3.51968e-09
-2.50254e-08
5.73988e-08
3.82994e-08
3.73933e-09
1.69556e-08
-3.14622e-08
3.49172e-08
-3.92905e-08
4.38413e-08
-4.75457e-08
2.65322e-08
-3.83381e-08
3.51412e-08
-4.64159e-08
2.46417e-08
-1.15483e-08
7.32147e-09
4.73084e-08
-1.64253e-08
5.61834e-08
-3.66039e-08
5.8407e-08
-4.23054e-08
6.99564e-08
1.37524e-07
-5.49506e-08
1.28147e-08
4.79937e-08
4.70641e-10
5.33449e-08
-2.25232e-08
7.27309e-08
-3.39518e-08
1.15219e-07
-6.11568e-08
5.12514e-08
2.25814e-08
1.61429e-10
3.24089e-08
-1.18206e-08
6.45285e-08
-2.81784e-08
1.65022e-07
-3.07788e-08
7.11686e-08
-3.80339e-08
-7.00513e-09
4.94641e-09
-1.02432e-09
4.59804e-08
-2.39153e-08
1.67756e-07
-3.02206e-08
8.11967e-08
-7.43468e-08
1.78474e-08
-3.74963e-09
4.67948e-09
2.28622e-08
-1.77277e-08
1.28232e-07
-4.27898e-08
1.1757e-07
-4.27469e-08
6.49329e-08
-5.00506e-08
8.7108e-09
-3.7732e-09
-7.0863e-10
8.09392e-08
-3.56984e-08
1.30285e-07
-4.68232e-08
5.29206e-08
-6.14443e-08
7.12234e-08
-3.76185e-08
4.80231e-09
4.26234e-08
-2.12753e-08
1.18049e-07
-5.07008e-08
7.62193e-08
-3.55707e-08
3.68078e-08
2.61876e-08
8.55114e-09
-2.28469e-08
8.48739e-08
-4.95415e-08
8.9808e-08
-4.42617e-08
2.05381e-08
-4.48321e-08
-3.91831e-08
-2.38464e-08
3.86457e-08
-4.58728e-08
8.25456e-08
-5.26591e-08
2.4229e-08
-4.37966e-08
1.72284e-08
-8.16172e-09
3.48216e-09
-3.44263e-08
6.26136e-08
-5.34336e-08
4.71727e-08
-4.75966e-08
3.39721e-08
-4.18137e-08
-2.43809e-08
3.05996e-08
-4.58705e-08
6.06359e-08
-4.22689e-08
2.06884e-08
-4.50693e-08
-2.09462e-08
5.91773e-09
-3.17556e-08
4.46675e-08
-5.05192e-08
3.08475e-08
-3.32474e-08
2.13073e-08
-2.4572e-08
-2.55591e-08
1.35969e-08
-4.45943e-08
3.41499e-08
-4.15855e-08
1.421e-08
-3.75058e-08
-1.90143e-08
-2.22124e-08
1.90391e-08
-4.36267e-08
1.85284e-08
-3.19963e-08
1.19024e-08
1.0696e-08
6.63882e-09
-2.36074e-08
3.12743e-08
-3.90021e-08
1.03242e-08
-3.59628e-08
-1.6588e-08
-8.76171e-09
2.12065e-08
-3.55304e-08
2.73777e-08
-2.92653e-08
1.12086e-08
8.56238e-09
6.63166e-09
-1.60321e-08
3.12909e-08
-2.56917e-08
5.08454e-09
-2.45977e-08
-1.2543e-08
-7.63604e-09
2.00935e-08
-1.9877e-08
1.10321e-08
-1.59676e-08
4.17708e-10
5.63843e-09
6.80177e-09
-1.32081e-08
1.90873e-08
-1.39252e-08
6.01797e-09
-1.84377e-08
-1.0137e-08
-8.29801e-09
1.69733e-08
-1.17902e-08
1.67358e-08
-1.89678e-08
-1.12801e-09
7.1278e-09
-1.13773e-08
1.33007e-08
-9.01272e-09
1.37669e-08
-5.28015e-09
-1.01984e-08
6.66954e-09
-1.25502e-08
5.77026e-09
-1.23776e-08
-4.9171e-09
-1.06391e-08
1.15068e-10
-1.02314e-08
2.42702e-09
4.73809e-09
2.92037e-09
-7.51182e-09
3.01591e-09
-1.04745e-08
-8.63887e-09
-9.3762e-09
-1.68609e-09
-1.14363e-08
-2.30928e-09
-2.69082e-09
3.73111e-10
-7.8962e-09
8.72891e-10
-1.09744e-08
-1.61522e-08
-1.30348e-08
-8.57666e-09
-1.45787e-08
-7.81962e-09
-1.69765e-08
-7.18597e-09
-8.23884e-09
-5.76916e-09
-8.37423e-09
)
;

boundaryField
{
    inlet
    {
        type            extrapolatedCalculated;
        value           nonuniform List<scalar> 5(-1.69765e-08 -7.18597e-09 -8.23884e-09 -5.76916e-09 -8.37423e-09);
    }
    outlet
    {
        type            extrapolatedCalculated;
        value           nonuniform List<scalar> 0();
    }
    walls
    {
        type            extrapolatedCalculated;
        value           nonuniform List<scalar> 
28
(
6.49174e-06
1.20838e-06
3.31372e-08
-5.28263e-10
-5.18396e-07
-3.50991e-07
-6.60685e-07
-3.86321e-07
-5.66767e-07
-3.21044e-07
-6.16067e-07
-2.78763e-07
-7.09938e-07
-8.50074e-08
-4.22708e-07
1.02301e-06
1.64169e-06
1.81607e-06
1.76282e-06
1.22901e-06
1.16613e-06
-1.68295e-06
2.8308e-06
1.03569e-06
1.43642e-06
1.45362e-06
2.52692e-06
2.613e-06
)
;
    }
    frontAndBack
    {
        type            empty;
    }
    procBoundary1to0
    {
        type            processor;
        value           nonuniform List<scalar> 
94
(
-1.93153e-06
-1.93153e-06
-9.44898e-07
-9.44898e-07
-3.79212e-07
-3.79212e-07
-7.47917e-07
-7.47917e-07
-3.80668e-07
-3.80668e-07
2.7352e-07
2.7352e-07
7.50983e-08
1.34851e-07
1.34851e-07
3.87427e-08
-2.22052e-07
-2.22052e-07
1.23399e-07
-2.14418e-07
-1.58472e-07
-1.58472e-07
2.76186e-08
-1.41934e-08
-1.41934e-08
1.00685e-08
-2.68614e-08
-2.90597e-07
-2.90597e-07
1.48693e-07
-4.46459e-07
-4.7497e-07
-4.7497e-07
-4.5664e-07
-3.93453e-07
-3.93453e-07
8.49711e-08
-2.5377e-07
-2.89718e-07
-2.89718e-07
1.43185e-07
-2.41008e-07
-2.94283e-07
-2.94283e-07
7.68267e-08
-2.24876e-07
-2.20843e-07
-2.20843e-07
1.07463e-07
-2.72603e-07
-2.12976e-07
-2.12976e-07
7.05395e-08
-3.19945e-08
-6.6298e-08
-6.6298e-08
6.4926e-08
-1.76187e-08
-1.09556e-07
-6.20741e-08
-6.20741e-08
-3.99198e-08
7.37818e-08
-1.12411e-07
-1.15188e-07
-1.15188e-07
1.36837e-08
-6.58029e-08
3.52924e-08
-7.93677e-08
-8.18906e-08
-8.18906e-08
4.74725e-09
-5.10615e-08
-2.23456e-10
-4.24453e-08
-2.556e-08
-1.52285e-08
-1.52285e-08
-2.06439e-08
1.53781e-08
-1.75018e-08
1.25206e-08
-1.67115e-08
7.83951e-09
-1.37846e-08
-6.2058e-09
-3.69666e-09
-3.69666e-09
-8.8349e-09
3.4392e-09
-1.36446e-08
-5.16792e-09
-1.16582e-08
)
;
    }
    procBoundary1to2
    {
        type            processor;
        value           nonuniform List<scalar> 
84
(
-2.87943e-08
-9.31621e-07
5.99205e-07
-2.77266e-08
1.36427e-06
9.44621e-07
1.50311e-06
1.65417e-06
1.64376e-06
2.26932e-06
1.42041e-06
2.62935e-06
1.19004e-06
2.89069e-06
8.79342e-07
2.88509e-06
4.75324e-07
2.72072e-06
2.41243e-07
2.32239e-06
-2.96471e-07
1.87387e-06
-3.7675e-07
1.45099e-06
-4.90939e-07
1.0976e-06
-3.99148e-07
8.40671e-07
-2.15074e-07
6.60131e-07
-1.09712e-07
4.79954e-07
1.12344e-08
3.65638e-07
3.97937e-08
2.12351e-07
7.7724e-08
2.34649e-07
1.49486e-07
1.49486e-07
1.33233e-07
1.2474e-07
4.93044e-08
1.08302e-07
3.20533e-08
6.52332e-08
2.25869e-08
6.04775e-08
1.26112e-08
1.09185e-08
-3.87945e-09
-4.46642e-09
-1.61276e-08
-8.44507e-08
-8.44507e-08
7.30606e-08
-8.65154e-08
7.03722e-08
-6.6165e-08
2.87105e-08
-4.46049e-08
9.82215e-09
-2.83371e-08
-6.17218e-08
-6.17218e-08
1.03261e-08
-3.1638e-08
5.53367e-09
-3.287e-08
-5.47383e-10
-3.18053e-08
-2.53495e-09
-1.87859e-08
-2.1735e-09
1.39352e-08
1.39352e-08
-3.67149e-09
6.43181e-09
-1.14048e-08
-6.92519e-10
-1.75129e-08
-3.83581e-09
-2.31312e-08
-1.35892e-08
)
;
    }
    procBoundary1to5
    {
        type            processor;
        value           nonuniform List<scalar> 
13
(
1.74211e-06
1.74211e-06
5.99399e-07
1.60409e-06
1.60409e-06
1.18783e-06
1.02281e-06
1.02281e-06
9.46545e-07
1.49877e-06
-1.98964e-06
-1.98964e-06
-1.42084e-06
)
;
    }
}


// ************************************************************************* //
