/*--------------------------------*- C++ -*----------------------------------*\
| =========                 |                                                 |
| \\      /  F ield         | OpenFOAM: The Open Source CFD Toolbox           |
|  \\    /   O peration     | Version:  2306                                  |
|   \\  /    A nd           | Website:  www.openfoam.com                      |
|    \\/     M anipulation  |                                                 |
\*---------------------------------------------------------------------------*/
FoamFile
{
    version     2.0;
    format      ascii;
    arch        "LSB;label=32;scalar=64";
    class       volScalarField;
    location    "925";
    object      turbulenceProperties:epsilon;
}
// * * * * * * * * * * * * * * * * * * * * * * * * * * * * * * * * * * * * * //

dimensions      [0 2 -3 0 0 0 0];

internalField   nonuniform List<scalar> 
1340
(
0.00631145
0.00685255
0.0122583
0.025898
0.0542431
0.107193
0.19773
0.340205
0.553772
0.870456
1.35303
2.122
3.40241
5.64712
9.71467
17.6458
33.2323
67.6699
140.858
318.995
663.279
945.049
1066.93
1100.19
1101.75
1088.14
1062.38
1025.39
0.00354115
0.00273952
0.002091
0.00153415
0.00108411
0.000757351
0.000526721
0.000363723
0.000249043
0.000169131
0.00011332
7.46795e-05
4.72825e-05
2.7571e-05
1.31808e-05
4.21845e-06
4.01302e-07
6.84194e-09
5.59463e-08
0.00098678
0.00606623
0.0512886
0.170777
0.3198
0.466711
0.615416
0.773899
0.946811
1.13459
0.00226319
0.00182811
0.00146527
0.00113382
0.000824579
0.00057197
0.000384965
0.000253508
0.000165598
0.000108229
7.19473e-05
4.93525e-05
3.55846e-05
2.70797e-05
2.1892e-05
1.88162e-05
1.72177e-05
1.63646e-05
1.63056e-05
1.61195e-05
1.82309e-05
6.37657e-06
0.000167583
0.00099237
0.00208856
0.00364295
0.00959259
0.0265269
0.0598546
0.00161311
0.00139175
0.00117414
0.000967213
0.000765317
0.000581454
0.000431985
0.000318371
0.000234336
0.000173349
0.000129291
9.78789e-05
7.55207e-05
5.96704e-05
4.81438e-05
3.96878e-05
3.3216e-05
2.79053e-05
2.28189e-05
1.81257e-05
1.4635e-05
1.22458e-05
1.06583e-05
8.88554e-06
6.83609e-06
3.85986e-06
1.53078e-06
2.28575e-05
1.51698e-05
6.84998e-05
0.00101935
0.000898223
0.000776694
0.000656843
0.00053684
0.000424835
0.000327908
0.000248292
0.000184947
0.000136048
9.92586e-05
7.22564e-05
5.28539e-05
3.91579e-05
2.95089e-05
2.27133e-05
1.78296e-05
1.41648e-05
1.10619e-05
8.30119e-06
6.10312e-06
4.59806e-06
3.68303e-06
3.31211e-06
2.83274e-06
4.1711e-06
2.07312e-07
8.53175e-06
5.13275e-05
0.000108158
0.000729507
0.000665611
0.000595699
0.000524997
0.000453185
0.000379941
0.00031015
0.000247713
0.000194527
0.00015075
0.00011578
8.85948e-05
6.79151e-05
5.24539e-05
4.10264e-05
3.25765e-05
2.62687e-05
2.1413e-05
1.74699e-05
1.39443e-05
1.07036e-05
8.0157e-06
5.98798e-06
4.51792e-06
3.44447e-06
2.66271e-06
2.07284e-06
1.59973e-06
1.00483e-06
4.11971e-07
3.65835e-14
0.000485865
0.000447216
0.000405699
0.000362747
0.000318225
0.000272755
0.000228739
0.00018818
0.000152256
0.000121385
9.55991e-05
7.46306e-05
5.7954e-05
4.49659e-05
3.50183e-05
2.74511e-05
2.16954e-05
1.72523e-05
1.37026e-05
1.06764e-05
8.02405e-06
5.85968e-06
4.23748e-06
3.07547e-06
2.24988e-06
1.67433e-06
1.29929e-06
1.08082e-06
9.63359e-07
8.36359e-07
7.00393e-07
0.000332265
0.000307828
0.0002822
0.000255241
0.000226966
0.000198169
0.000169886
0.000143243
0.000118957
9.73946e-05
7.87668e-05
6.31164e-05
5.02563e-05
3.99307e-05
3.17885e-05
2.54258e-05
2.04513e-05
1.651e-05
1.32879e-05
1.05114e-05
8.06642e-06
6.03469e-06
4.4625e-06
3.28965e-06
2.41531e-06
1.76318e-06
1.28436e-06
9.34614e-07
6.79461e-07
4.93792e-07
3.81388e-07
0.000245536
0.000232044
0.000216263
0.000199877
0.000182479
0.000164164
0.000145555
0.000127122
0.000109453
9.29634e-05
7.79057e-05
6.44819e-05
5.28128e-05
4.28949e-05
3.46459e-05
2.7912e-05
2.24829e-05
1.81242e-05
1.45991e-05
1.16863e-05
9.19676e-06
7.0412e-06
5.25463e-06
3.86647e-06
2.82985e-06
2.0629e-06
1.49894e-06
1.0928e-06
8.1116e-07
6.24534e-07
5.08875e-07
4.4815e-07
0.000164965
0.000154567
0.000143757
0.000132247
0.000120191
0.000107952
9.57607e-05
8.39326e-05
7.26817e-05
6.21557e-05
5.25255e-05
4.39135e-05
3.63665e-05
2.99025e-05
2.44659e-05
1.99587e-05
1.62487e-05
1.31847e-05
1.06165e-05
8.41543e-06
6.51119e-06
4.92237e-06
3.66882e-06
2.71557e-06
1.9978e-06
1.45972e-06
1.06232e-06
7.7474e-07
5.69408e-07
4.30211e-07
3.4096e-07
0.000112079
0.000104771
9.69956e-05
8.89311e-05
8.07652e-05
7.2591e-05
6.45887e-05
5.68718e-05
4.95165e-05
4.26256e-05
3.63004e-05
3.05999e-05
2.55683e-05
2.12133e-05
1.74994e-05
1.436e-05
1.17102e-05
9.45691e-06
7.51614e-06
5.84107e-06
4.43992e-06
3.32318e-06
2.46504e-06
1.81506e-06
1.32715e-06
9.67463e-07
7.09337e-07
5.29729e-07
4.12178e-07
3.40309e-07
7.72344e-05
7.18929e-05
6.64162e-05
6.08818e-05
5.53377e-05
4.98781e-05
4.45551e-05
3.93961e-05
3.44733e-05
2.98518e-05
2.55774e-05
2.1703e-05
1.8253e-05
1.52329e-05
1.26191e-05
1.03675e-05
8.42146e-06
6.73087e-06
5.27007e-06
4.04135e-06
3.05088e-06
2.27965e-06
1.68902e-06
1.24147e-06
9.079e-07
6.65304e-07
4.92824e-07
3.76358e-07
3.03222e-07
5.37784e-05
5.00048e-05
4.62087e-05
4.24056e-05
3.86436e-05
3.49469e-05
3.13239e-05
2.78049e-05
2.44351e-05
2.12491e-05
1.82896e-05
1.55861e-05
1.31565e-05
1.10018e-05
9.10516e-06
7.43921e-06
5.97905e-06
4.71161e-06
3.63962e-06
2.76616e-06
2.07787e-06
1.54571e-06
1.13958e-06
8.35176e-07
6.12951e-07
4.55096e-07
3.48772e-07
2.82408e-07
3.79189e-05
3.52815e-05
3.26435e-05
3.00318e-05
2.74504e-05
2.48933e-05
2.23793e-05
1.99288e-05
1.75632e-05
1.53169e-05
1.32164e-05
1.12825e-05
9.52542e-06
7.94623e-06
6.53617e-06
5.28782e-06
4.19737e-06
3.26795e-06
2.50272e-06
1.89224e-06
1.41511e-06
1.04782e-06
7.70276e-07
5.65977e-07
4.19404e-07
3.19366e-07
2.55791e-07
2.7083e-05
2.52358e-05
2.34051e-05
2.15896e-05
1.97793e-05
1.79784e-05
1.6199e-05
1.44508e-05
1.27552e-05
1.11338e-05
9.60674e-06
8.18933e-06
6.88974e-06
5.70927e-06
4.64957e-06
3.71635e-06
2.91546e-06
2.24919e-06
1.71118e-06
1.28612e-06
9.5602e-07
7.04614e-07
5.18233e-07
3.83708e-07
2.91327e-07
2.32024e-07
2.0887e-05
1.95804e-05
1.82885e-05
1.70045e-05
1.57158e-05
1.4424e-05
1.313e-05
1.184e-05
1.05661e-05
9.32341e-06
8.12795e-06
6.99434e-06
5.93438e-06
4.95505e-06
4.06503e-06
3.27341e-06
2.58787e-06
2.01126e-06
1.54006e-06
1.16366e-06
8.68583e-07
6.41931e-07
4.72531e-07
3.49259e-07
2.63777e-07
2.08123e-07
1.52446e-05
1.43242e-05
1.34089e-05
1.24882e-05
1.1558e-05
1.06176e-05
9.66672e-06
8.71329e-06
7.76574e-06
6.83655e-06
5.93783e-06
5.08078e-06
4.2754e-06
3.5335e-06
2.86694e-06
2.28367e-06
1.78788e-06
1.37787e-06
1.04663e-06
7.84413e-07
5.81225e-07
4.28069e-07
3.15746e-07
2.37171e-07
1.85361e-07
1.19041e-05
1.12437e-05
1.05873e-05
9.92506e-06
9.25315e-06
8.56802e-06
7.86756e-06
7.15538e-06
6.43623e-06
5.71792e-06
5.01058e-06
4.32431e-06
3.66849e-06
3.05476e-06
2.49643e-06
2.00358e-06
1.58014e-06
1.22572e-06
9.36063e-07
7.04418e-07
5.23255e-07
3.85457e-07
2.83558e-07
2.11585e-07
1.63495e-07
8.84304e-06
8.36885e-06
7.88993e-06
7.40221e-06
6.90203e-06
6.38583e-06
5.85443e-06
5.31034e-06
4.75856e-06
4.20533e-06
3.6589e-06
3.12816e-06
2.62494e-06
2.16172e-06
1.74804e-06
1.38851e-06
1.08399e-06
8.32211e-07
6.28749e-07
4.68103e-07
3.4476e-07
2.52791e-07
1.87191e-07
1.42799e-07
6.96723e-06
6.62202e-06
6.27379e-06
5.91829e-06
5.55176e-06
5.17087e-06
4.77483e-06
4.36399e-06
3.94128e-06
3.51127e-06
3.07961e-06
2.65337e-06
2.24337e-06
1.86137e-06
1.51622e-06
1.21286e-06
9.52878e-07
7.35419e-07
5.57779e-07
4.16127e-07
3.06296e-07
2.23695e-07
1.64175e-07
1.23402e-07
5.49793e-06
5.24498e-06
4.99004e-06
4.72966e-06
4.46014e-06
4.17831e-06
3.88301e-06
3.57353e-06
3.25092e-06
2.91772e-06
2.57851e-06
2.23874e-06
1.90702e-06
1.59368e-06
1.30747e-06
1.05316e-06
8.32611e-07
6.45936e-07
4.91738e-07
3.67512e-07
2.70216e-07
1.96397e-07
1.42651e-07
1.05419e-07
4.15833e-06
3.97028e-06
3.77827e-06
3.57937e-06
3.3704e-06
3.14983e-06
2.91663e-06
2.67092e-06
2.41407e-06
2.14868e-06
1.879e-06
1.61213e-06
1.35701e-06
1.12122e-06
9.09226e-07
7.23205e-07
5.63868e-07
4.30765e-07
3.22409e-07
2.36683e-07
1.71034e-07
1.22744e-07
8.8949e-08
3.29942e-06
3.15992e-06
3.0177e-06
2.86998e-06
2.71442e-06
2.54948e-06
2.37372e-06
2.18674e-06
1.98916e-06
1.78246e-06
1.56954e-06
1.35606e-06
1.14941e-06
9.56247e-07
7.8045e-07
6.24423e-07
4.89208e-07
3.74974e-07
2.80976e-07
2.05829e-07
1.47728e-07
1.0456e-07
7.40712e-08
2.51592e-06
2.40964e-06
2.29947e-06
2.18328e-06
2.05958e-06
1.927e-06
1.78486e-06
1.6332e-06
1.47271e-06
1.30529e-06
1.13525e-06
9.68624e-07
8.11037e-07
6.66161e-07
5.36003e-07
4.21888e-07
3.24382e-07
2.43263e-07
1.77719e-07
1.2656e-07
8.81702e-08
6.08322e-08
2.00381e-06
1.92405e-06
1.84133e-06
1.7541e-06
1.66104e-06
1.5609e-06
1.45275e-06
1.3364e-06
1.21205e-06
1.08088e-06
9.46043e-07
8.12387e-07
6.84457e-07
5.65583e-07
4.57541e-07
3.61734e-07
2.78916e-07
2.09263e-07
1.52387e-07
1.07561e-07
7.35996e-08
4.92357e-08
1.59656e-06
1.53624e-06
1.47387e-06
1.40807e-06
1.33775e-06
1.2619e-06
1.17963e-06
1.09042e-06
9.94175e-07
8.91568e-07
7.84939e-07
6.78082e-07
5.7478e-07
4.77659e-07
3.88433e-07
3.08394e-07
2.38409e-07
1.78908e-07
1.298e-07
9.07058e-08
6.08255e-08
3.92552e-08
1.22669e-06
1.17932e-06
1.12944e-06
1.0762e-06
1.01856e-06
9.55799e-07
8.87392e-07
8.13021e-07
7.32928e-07
6.48871e-07
5.63718e-07
4.8055e-07
4.01533e-07
3.2814e-07
2.61557e-07
2.02699e-07
1.52097e-07
1.09892e-07
7.59648e-08
4.98121e-08
3.08331e-08
9.79712e-07
9.43523e-07
9.05515e-07
8.64944e-07
8.21031e-07
7.73076e-07
7.20534e-07
6.63052e-07
6.0063e-07
5.3448e-07
4.66823e-07
4.00078e-07
3.36014e-07
2.75891e-07
2.20751e-07
1.71476e-07
1.28646e-07
9.25465e-08
6.32492e-08
4.0479e-08
2.38808e-08
7.82641e-07
7.54838e-07
7.25718e-07
6.94688e-07
6.61105e-07
6.24371e-07
5.83992e-07
5.39537e-07
4.90903e-07
4.38916e-07
3.85241e-07
3.31839e-07
2.80075e-07
2.31003e-07
1.85525e-07
1.4444e-07
1.08353e-07
7.7615e-08
5.24336e-08
3.27095e-08
1.82806e-08
6.03928e-07
5.81504e-07
5.57688e-07
5.31923e-07
5.037e-07
4.72596e-07
4.38186e-07
4.00294e-07
3.59485e-07
3.1701e-07
2.74355e-07
2.32652e-07
1.92725e-07
1.55352e-07
1.21234e-07
9.09562e-08
6.49063e-08
4.33647e-08
2.63706e-08
1.38991e-08
4.83335e-07
4.65972e-07
4.47589e-07
4.27742e-07
4.06003e-07
3.81996e-07
3.55353e-07
3.25824e-07
2.93784e-07
2.6021e-07
2.26217e-07
1.92702e-07
1.60318e-07
1.2971e-07
1.01491e-07
7.61917e-08
5.42173e-08
3.5877e-08
2.13093e-08
1.05859e-08
3.73469e-07
3.59229e-07
3.4388e-07
3.27098e-07
3.08541e-07
2.87866e-07
2.64842e-07
2.39706e-07
2.13176e-07
1.86136e-07
1.59256e-07
1.33062e-07
1.08078e-07
8.48287e-08
6.37805e-08
4.53219e-08
2.97817e-08
1.73566e-08
8.18237e-09
2.9945e-07
2.88377e-07
2.76471e-07
2.63468e-07
2.49077e-07
2.3302e-07
2.15066e-07
1.95351e-07
1.74414e-07
1.52924e-07
1.31408e-07
1.10279e-07
8.99559e-08
7.08674e-08
5.3428e-08
3.79943e-08
2.48901e-08
1.43457e-08
6.53153e-09
2.40236e-07
2.31591e-07
2.22336e-07
2.1224e-07
2.01079e-07
1.88586e-07
1.74559e-07
1.59086e-07
1.42571e-07
1.25525e-07
1.08344e-07
9.13419e-08
7.48588e-08
5.92439e-08
4.48552e-08
3.20111e-08
2.10142e-08
1.21085e-08
5.4807e-09
1.86119e-07
1.78904e-07
1.71043e-07
1.62359e-07
1.52631e-07
1.41682e-07
1.29544e-07
1.16521e-07
1.0301e-07
8.93128e-08
7.5668e-08
6.23419e-08
4.96211e-08
3.77983e-08
2.71588e-08
1.79758e-08
1.04884e-08
4.88854e-09
1.4971e-07
1.44066e-07
1.37942e-07
1.31181e-07
1.23597e-07
1.15037e-07
1.05516e-07
9.52582e-08
8.45662e-08
7.36676e-08
6.2745e-08
5.20075e-08
4.16807e-08
3.20093e-08
2.32368e-08
1.56067e-08
9.34076e-09
4.62686e-09
1.20552e-07
1.16137e-07
1.11359e-07
1.06083e-07
1.0017e-07
9.34807e-08
8.60127e-08
7.79415e-08
6.94902e-08
6.08357e-08
5.21168e-08
4.34929e-08
3.51425e-08
2.72671e-08
2.00689e-08
1.37601e-08
8.54065e-09
4.58563e-09
9.37441e-08
9.0008e-08
8.58951e-08
8.12831e-08
7.60536e-08
7.01998e-08
6.3851e-08
5.71843e-08
5.03293e-08
4.33892e-08
3.6486e-08
2.97627e-08
2.33774e-08
1.75001e-08
1.23097e-08
7.98125e-09
4.6733e-09
7.57793e-08
7.28608e-08
6.96525e-08
6.60536e-08
6.19674e-08
5.73847e-08
5.24e-08
4.7149e-08
4.17307e-08
3.62225e-08
3.07173e-08
2.53261e-08
2.01732e-08
1.53979e-08
1.11492e-08
7.57581e-09
6.13591e-08
5.90783e-08
5.65763e-08
5.3771e-08
5.05828e-08
4.69973e-08
4.30893e-08
3.89618e-08
3.46907e-08
3.03333e-08
2.59595e-08
2.1654e-08
1.75158e-08
1.36553e-08
1.01944e-08
7.25747e-09
4.79926e-08
4.60426e-08
4.3857e-08
4.1371e-08
3.85702e-08
3.55119e-08
3.22765e-08
2.89191e-08
2.54833e-08
2.20214e-08
1.85984e-08
1.52904e-08
1.21851e-08
9.37997e-09
6.97681e-09
3.90635e-08
3.75444e-08
3.58444e-08
3.39102e-08
3.17268e-08
2.93384e-08
2.68078e-08
2.41763e-08
2.14767e-08
1.87477e-08
1.60384e-08
1.34067e-08
1.0921e-08
8.65843e-09
6.70043e-09
3.18586e-08
3.06795e-08
2.93605e-08
2.78568e-08
2.61576e-08
2.42973e-08
2.23239e-08
2.02686e-08
1.81548e-08
1.60121e-08
1.38767e-08
1.17929e-08
9.81292e-09
7.99652e-09
6.408e-09
2.51235e-08
2.41002e-08
2.29349e-08
2.16168e-08
2.01715e-08
1.86369e-08
1.70366e-08
1.53878e-08
1.37121e-08
1.20366e-08
1.03943e-08
8.82459e-09
7.37316e-09
6.08977e-09
2.06162e-08
1.98262e-08
1.89254e-08
1.79051e-08
1.67855e-08
1.55957e-08
1.4354e-08
1.30729e-08
1.17678e-08
1.04587e-08
9.17005e-09
7.93124e-09
6.77648e-09
5.7437e-09
1.69535e-08
1.63443e-08
1.56495e-08
1.48623e-08
1.3998e-08
1.3079e-08
1.2119e-08
1.11271e-08
1.01148e-08
9.09618e-09
8.08932e-09
7.11585e-09
6.20108e-09
5.37308e-09
1.35012e-08
1.29676e-08
1.23619e-08
1.16968e-08
1.09894e-08
1.02498e-08
9.48475e-09
8.70248e-09
7.91316e-09
7.12965e-09
6.36782e-09
5.64599e-09
4.98463e-09
1.11743e-08
1.07655e-08
1.03014e-08
9.79142e-09
9.24881e-09
8.68112e-09
8.09322e-09
7.49096e-09
6.88158e-09
6.27425e-09
5.68028e-09
5.11269e-09
4.58631e-09
9.26499e-09
8.95329e-09
8.59898e-09
8.20926e-09
7.7944e-09
7.36026e-09
6.91007e-09
6.44801e-09
5.97925e-09
5.51015e-09
5.0486e-09
4.60385e-09
4.1862e-09
7.69477e-09
7.45776e-09
7.18821e-09
6.89148e-09
6.57558e-09
6.24461e-09
5.90098e-09
5.54769e-09
5.1882e-09
4.82699e-09
4.46949e-09
4.12205e-09
3.79173e-09
6.22025e-09
6.01597e-09
5.79075e-09
5.55069e-09
5.29909e-09
5.03762e-09
4.76822e-09
4.49331e-09
4.216e-09
3.93988e-09
3.66922e-09
3.4088e-09
5.19303e-09
5.03837e-09
4.86778e-09
4.68588e-09
4.49508e-09
4.29651e-09
4.09151e-09
3.88182e-09
3.66944e-09
3.45672e-09
3.24648e-09
3.04185e-09
4.33703e-09
4.22013e-09
4.09099e-09
3.95324e-09
3.80866e-09
3.65806e-09
3.50237e-09
3.34272e-09
3.18041e-09
3.01696e-09
2.85414e-09
3.62083e-09
3.53223e-09
3.43436e-09
3.33002e-09
3.22046e-09
3.10629e-09
2.98819e-09
2.86684e-09
2.74305e-09
2.61778e-09
2.49212e-09
2.9517e-09
2.87737e-09
2.79818e-09
2.7151e-09
2.62858e-09
2.53908e-09
2.447e-09
2.35284e-09
2.25716e-09
2.16052e-09
2.46072e-09
2.40409e-09
2.34393e-09
2.28097e-09
2.21549e-09
2.1478e-09
2.07812e-09
2.00673e-09
1.93391e-09
1.85994e-09
2.04578e-09
2.0027e-09
1.95709e-09
1.90952e-09
1.86015e-09
1.80914e-09
1.75662e-09
1.70273e-09
1.64755e-09
1.59119e-09
1.69681e-09
1.66424e-09
1.62991e-09
1.5942e-09
1.55718e-09
1.51896e-09
1.47959e-09
1.43909e-09
1.39747e-09
1.35471e-09
1.40558e-09
1.38123e-09
1.35562e-09
1.329e-09
1.30143e-09
1.27292e-09
1.2435e-09
1.21316e-09
1.18184e-09
1.1495e-09
1.14614e-09
1.1271e-09
1.1073e-09
1.08675e-09
1.06546e-09
1.04344e-09
1.02066e-09
9.97064e-10
9.72571e-10
9.50846e-10
9.36505e-10
9.21556e-10
9.06026e-10
8.89932e-10
8.73271e-10
8.56023e-10
8.38136e-10
8.19529e-10
7.87155e-10
7.75936e-10
7.64269e-10
7.52189e-10
7.39722e-10
7.26876e-10
7.13633e-10
6.9995e-10
6.48067e-10
6.38867e-10
6.29389e-10
6.19679e-10
6.09776e-10
5.99684e-10
5.89386e-10
5.7885e-10
5.29059e-10
5.21232e-10
5.13302e-10
5.05323e-10
4.97316e-10
4.89277e-10
4.81195e-10
4.73052e-10
4.27933e-10
4.21197e-10
4.14505e-10
4.07885e-10
4.01363e-10
3.9492e-10
3.88558e-10
3.82268e-10
3.37742e-10
3.32079e-10
3.26557e-10
3.21199e-10
3.15994e-10
3.10966e-10
3.06072e-10
2.70545e-10
2.65716e-10
2.61068e-10
2.56603e-10
2.52354e-10
2.48314e-10
2.44444e-10
2.21067e-10
2.16864e-10
2.12828e-10
2.08976e-10
2.05343e-10
2.01905e-10
1.98677e-10
1.85206e-10
1.81522e-10
1.7796e-10
1.74558e-10
1.71321e-10
1.68266e-10
1.65423e-10
1.55613e-10
1.52418e-10
1.49309e-10
1.46311e-10
1.4343e-10
1.40708e-10
1.38155e-10
1.2974e-10
1.26925e-10
1.24165e-10
1.21473e-10
1.18892e-10
1.16454e-10
1.14163e-10
1.07751e-10
1.05141e-10
1.02515e-10
9.99077e-11
9.73803e-11
9.49719e-11
8.82696e-11
8.57299e-11
8.31594e-11
8.05921e-11
7.80716e-11
7.56262e-11
6.86434e-11
6.55868e-11
6.25482e-11
5.96091e-11
5.68472e-11
5.43153e-11
4.57955e-11
4.21747e-11
3.85534e-11
3.50231e-11
3.16705e-11
2.83745e-11
2.55432e-11
2.30703e-11
2.10131e-11
1.94156e-11
2.76998e-11
2.58871e-11
2.45583e-11
2.36518e-11
2.3095e-11
9.30871e-11
1.07301e-10
1.2209e-10
1.37028e-10
1.51631e-10
5.27251e-10
5.4514e-10
5.59515e-10
5.70339e-10
5.78019e-10
1.99294e-09
2.04365e-09
2.08151e-09
2.10687e-09
2.12197e-09
)
;

boundaryField
{
    inlet
    {
        type            calculated;
        value           nonuniform List<scalar> 5(1.7969e-08 1.89776e-08 1.99101e-08 2.0761e-08 2.15258e-08);
    }
    outlet
    {
        type            calculated;
        value           nonuniform List<scalar> 0();
    }
    walls
    {
        type            calculated;
        value           uniform 0;
    }
    frontAndBack
    {
        type            empty;
    }
    procBoundary1to0
    {
        type            processor;
        value           nonuniform List<scalar> 
94
(
0.00017413
0.00017413
0.000119064
0.000119064
8.22715e-05
8.22715e-05
5.75025e-05
5.75025e-05
4.05545e-05
4.05545e-05
2.8936e-05
2.8936e-05
2.22027e-05
1.6177e-05
1.6177e-05
1.25755e-05
9.32112e-06
9.32112e-06
7.31594e-06
5.75466e-06
4.34531e-06
4.34531e-06
3.43869e-06
2.62034e-06
2.62034e-06
2.08238e-06
1.65625e-06
1.27268e-06
1.27268e-06
1.01493e-06
8.098e-07
6.25429e-07
6.25429e-07
5.00047e-07
3.86959e-07
3.86959e-07
3.09969e-07
2.4849e-07
1.92877e-07
1.92877e-07
1.5501e-07
1.24719e-07
9.72013e-08
9.72013e-08
7.84897e-08
6.34843e-08
4.9772e-08
4.9772e-08
4.04525e-08
3.29408e-08
2.60388e-08
2.60388e-08
2.13241e-08
1.74993e-08
1.3969e-08
1.3969e-08
1.15321e-08
9.53781e-09
7.90197e-09
6.3996e-09
6.3996e-09
5.32854e-09
4.43924e-09
3.69813e-09
3.01905e-09
3.01905e-09
2.5121e-09
2.08502e-09
1.72661e-09
1.42792e-09
1.16423e-09
1.16423e-09
9.64435e-10
7.97778e-10
6.56853e-10
5.36636e-10
4.34554e-10
3.43528e-10
3.43528e-10
2.75542e-10
2.25449e-10
1.89004e-10
1.5886e-10
1.32575e-10
1.1032e-10
9.07422e-11
7.16127e-11
4.93234e-11
4.93234e-11
3.15024e-11
3.00287e-11
7.94955e-11
5.06897e-10
1.92859e-09
)
;
    }
    procBoundary1to2
    {
        type            processor;
        value           nonuniform List<scalar> 
84
(
978.923
1.34803
0.110664
0.000869117
0.000183314
7.82981e-11
1.36799e-07
2.92252e-07
4.56447e-07
3.24617e-07
3.31777e-07
2.85502e-07
2.64164e-07
2.35569e-07
2.1125e-07
1.86641e-07
1.63645e-07
1.41812e-07
1.21487e-07
1.02734e-07
8.56556e-08
7.03003e-08
5.66991e-08
4.48487e-08
3.47019e-08
2.61894e-08
1.92116e-08
1.36447e-08
9.34586e-09
6.16158e-09
3.92986e-09
2.48928e-09
1.68312e-09
1.36404e-09
1.39858e-09
1.66978e-09
2.07917e-09
2.5468e-09
4.81731e-09
4.81731e-09
4.96361e-09
5.07473e-09
5.12781e-09
5.11161e-09
5.02434e-09
4.87097e-09
4.66061e-09
4.40482e-09
4.11615e-09
3.80627e-09
3.48581e-09
3.16339e-09
2.84575e-09
2.6939e-09
2.6939e-09
2.36714e-09
2.06354e-09
1.78508e-09
1.53373e-09
1.3108e-09
1.11602e-09
9.47069e-10
8.00096e-10
6.85757e-10
6.85757e-10
5.68015e-10
4.64787e-10
3.75978e-10
3.01276e-10
2.40759e-10
1.95654e-10
1.62758e-10
1.35754e-10
1.12028e-10
9.27129e-11
9.27129e-11
7.32853e-11
5.20564e-11
2.8573e-11
1.82911e-11
2.27704e-11
1.6535e-10
5.83322e-10
2.12893e-09
)
;
    }
    procBoundary1to5
    {
        type            processor;
        value           nonuniform List<scalar> 
13
(
0.011177
0.011177
0.00447577
0.00268226
0.00268226
0.0018157
0.00112645
0.00112645
0.000780079
0.000517097
0.000352666
0.000352666
0.000256885
)
;
    }
}


// ************************************************************************* //
