# p  FACE_DATA 600
# x y z  p
0.29893883 -0.05 0.060006728 11664.325
0.29682219 -0.05 0.060005155 11672.502
0.29471691 -0.05 0.060001576 11682.642
0.29262294 -0.05 0.05999591 11692.612
0.29054021 -0.05 0.059988277 11702.015
0.28846868 -0.05 0.059978645 11712.714
0.28640827 -0.05 0.059967018 11722.26
0.28435895 -0.05 0.059953476 11732.615
0.28232063 -0.05 0.05993795 11743.129
0.28029328 -0.05 0.059920485 11753.454
0.27827682 -0.05 0.059901123 11763.834
0.27627121 -0.05 0.059879855 11774.541
0.27427639 -0.05 0.05985667 11785.393
0.2722923 -0.05 0.059831621 11795.937
0.27031889 -0.05 0.059804697 11807.144
0.26835611 -0.05 0.05977592 11817.673
0.26640388 -0.05 0.059745343 11828.598
0.26446217 -0.05 0.059712935 11839.723
0.26253092 -0.05 0.059678711 11850.944
0.26061007 -0.05 0.059642689 11862.345
0.25869957 -0.05 0.059604861 11873.899
0.25679937 -0.05 0.059565286 11885.011
0.25490941 -0.05 0.05952394 11897.062
0.25302965 -0.05 0.059480841 11908.204
0.25116001 -0.05 0.059436049 11919.864
0.24930047 -0.05 0.059389522 11931.66
0.24745095 -0.05 0.059341283 11943.568
0.24561142 -0.05 0.059291325 11955.915
0.24378182 -0.05 0.05923967 11967.899
0.24196209 -0.05 0.059186367 11979.906
0.24015219 -0.05 0.059131421 11991.973
0.23835206 -0.05 0.059074821 12004.284
0.23656166 -0.05 0.059016618 12016.147
0.23478094 -0.05 0.058956769 12029.427
0.23300984 -0.05 0.05889526 12041.696
0.23124831 -0.05 0.05883224 12053.594
0.22949632 -0.05 0.058767617 12067.184
0.22775381 -0.05 0.058701363 12079.872
0.22602071 -0.05 0.058633589 12092.516
0.22429701 -0.05 0.058564274 12105.318
0.22258262 -0.05 0.058493448 12117.919
0.22087753 -0.05 0.058421069 12131.816
0.21918166 -0.05 0.058347132 12144.816
0.21749499 -0.05 0.058271731 12157.799
0.21581745 -0.05 0.058194856 12170.888
0.21414901 -0.05 0.058116493 12184.316
0.21248962 -0.05 0.05803665 12197.785
0.21083923 -0.05 0.057955337 12211.475
0.20919779 -0.05 0.057872577 12224.959
0.20756526 -0.05 0.057788393 12238.663
0.20594158 -0.05 0.057702763 12252.718
0.20432673 -0.05 0.057615706 12266.404
0.20272065 -0.05 0.057527277 12279.886
0.20112329 -0.05 0.057437457 12293.972
0.19953461 -0.05 0.05734625 12308.031
0.19795458 -0.05 0.057253621 12322.994
0.19638314 -0.05 0.057159665 12336.056
0.19482023 -0.05 0.05706438 12351.071
0.19326584 -0.05 0.056967732 12364.843
0.19171991 -0.05 0.056869749 12379.792
0.19018239 -0.05 0.056770463 12393.477
0.18865324 -0.05 0.056669846 12409.187
0.18713243 -0.05 0.056567899 12423.268
0.18561991 -0.05 0.056464666 12438.743
0.18411563 -0.05 0.056360132 12453.182
0.18261956 -0.05 0.056254318 12468.557
0.18113166 -0.05 0.056147258 12482.464
0.17965186 -0.05 0.056038987 12497.705
0.17818015 -0.05 0.05592942 12513.307
0.17671648 -0.05 0.055818588 12528.6
0.1752608 -0.05 0.05570656 12543.375
0.17381309 -0.05 0.055593325 12558.927
0.17237329 -0.05 0.055478844 12574.462
0.17094135 -0.05 0.055363199 12589.442
0.16951726 -0.05 0.055246341 12606.112
0.16810097 -0.05 0.055128259 12621.553
0.16669242 -0.05 0.05500905 12637.109
0.16529159 -0.05 0.054888659 12653.475
0.16389844 -0.05 0.054767078 12669.438
0.16251292 -0.05 0.054644372 12685.092
0.161135 -0.05 0.054520532 12701.211
0.15976465 -0.05 0.054395554 12717.167
0.15840181 -0.05 0.054269449 12733.766
0.15704647 -0.05 0.054142171 12750.794
0.15569857 -0.05 0.05401378 12766.675
0.15435807 -0.05 0.053884336 12782.783
0.15302494 -0.05 0.053753791 12799.37
0.15169915 -0.05 0.053622161 12815.944
0.15038066 -0.05 0.053489407 12833.711
0.14906942 -0.05 0.053355551 12850.14
0.1477654 -0.05 0.053220679 12866.849
0.14646858 -0.05 0.053084715 12884.553
0.1451789 -0.05 0.052947683 12901.191
0.14389634 -0.05 0.052809659 12918.071
0.14262085 -0.05 0.05267058 12936.005
0.14135242 -0.05 0.052530426 12953.866
0.14009099 -0.05 0.052389231 12971.62
0.13883652 -0.05 0.052247036 12988.816
0.137589 -0.05 0.052103837 13006.652
0.13634838 -0.05 0.051959625 13023.811
0.13511461 -0.05 0.051814476 13041.212
0.1338877 -0.05 0.051668228 13061.422
0.13266759 -0.05 0.051520967 13077.447
0.13145422 -0.05 0.051372868 13095.036
0.13024759 -0.05 0.051223701 13115.018
0.12904768 -0.05 0.051073499 13133.15
0.12785442 -0.05 0.050922382 13151.427
0.12666779 -0.05 0.050770303 13170.15
0.12548777 -0.05 0.050617245 13189.164
0.12431431 -0.05 0.050463216 13207.619
0.12314738 -0.05 0.050308326 13224.978
0.12198694 -0.05 0.050152493 13245.525
0.12083299 -0.05 0.049995623 13265.376
0.11968547 -0.05 0.049837846 13284.272
0.11854435 -0.05 0.049679176 13303.587
0.11740961 -0.05 0.049519574 13323.251
0.11628122 -0.05 0.049359037 13343.082
0.11515913 -0.05 0.049197589 13362.645
0.11404333 -0.05 0.049035234 13382.355
0.11293377 -0.05 0.048871989 13401.68
0.11183042 -0.05 0.048707847 13421.573
0.11073327 -0.05 0.048542821 13441.34
0.10964229 -0.05 0.048376866 13462.849
0.10855744 -0.05 0.048209982 13483.228
0.10747868 -0.05 0.048042235 13503.952
0.106406 -0.05 0.04787359 13524.937
0.10533935 -0.05 0.047704062 13545.761
0.10427873 -0.05 0.047533647 13566.805
0.10322407 -0.05 0.047362394 13586.492
0.10217537 -0.05 0.04719032 13607.513
0.10113259 -0.05 0.047017348 13629.707
0.10009572 -0.05 0.046843455 13652.473
0.099064719 -0.05 0.046668685 13673.981
0.098039551 -0.05 0.046493118 13694.644
0.097020189 -0.05 0.046316733 13716.522
0.096006622 -0.05 0.046139442 13739.85
0.094998822 -0.05 0.045961241 13762.748
0.09399675 -0.05 0.045782217 13784.627
0.093000378 -0.05 0.045602371 13807.23
0.092009685 -0.05 0.045421665 13829.894
0.091024643 -0.05 0.045240119 13852.782
0.090045231 -0.05 0.045057701 13876.674
0.089071419 -0.05 0.044874428 13899.504
0.088103174 -0.05 0.044690349 13922.547
0.087140475 -0.05 0.044505439 13946.135
0.086183303 -0.05 0.044319663 13970.502
0.08523163 -0.05 0.044133032 13994.363
0.084285425 -0.05 0.043945577 14018.306
0.083344663 -0.05 0.043757308 14042.507
0.082409326 -0.05 0.043568191 14068.222
0.081479394 -0.05 0.04337819 14093.835
0.080554831 -0.05 0.043187382 14118.116
0.079635605 -0.05 0.042995792 14143.514
0.078721718 -0.05 0.042803304 14170.595
0.077813136 -0.05 0.042609969 14195.78
0.076909826 -0.05 0.042415818 14222.505
0.07601178 -0.05 0.042220793 14248.87
0.075118966 -0.05 0.042024933 14275.185
0.074231361 -0.05 0.041828237 14301.342
0.073348934 -0.05 0.04163074 14327.406
0.072471679 -0.05 0.041432371 14355.513
0.071599572 -0.05 0.041233139 14382.16
0.070732583 -0.05 0.041033074 14410.259
0.069870697 -0.05 0.040832148 14437.597
0.069013884 -0.05 0.040630397 14465.556
0.068162134 -0.05 0.040427777 14494.127
0.067315419 -0.05 0.040224307 14522.545
0.06647372 -0.05 0.040019973 14552.675
0.065637027 -0.05 0.039814748 14582.98
0.06480531 -0.05 0.039608654 14613.528
0.063978543 -0.05 0.039401719 14643.319
0.063156705 -0.05 0.039193946 14673.965
0.062339788 -0.05 0.038985286 14705.291
0.061527775 -0.05 0.038775725 14737.31
0.060720649 -0.05 0.038565255 14769.713
0.059918385 -0.05 0.038353894 14801.971
0.059120963 -0.05 0.03814165 14834.599
0.058328367 -0.05 0.037928504 14867.367
0.057540575 -0.05 0.037714473 14899.473
0.056757564 -0.05 0.037499567 14932.075
0.055979327 -0.05 0.037283751 14966.134
0.055205861 -0.05 0.03706696 15001.879
0.054437144 -0.05 0.036849222 15036.64
0.053673142 -0.05 0.036630582 15071.606
0.052913841 -0.05 0.036411033 15106.426
0.052159229 -0.05 0.036190552 15142.543
0.051409301 -0.05 0.035969101 15179.528
0.050664044 -0.05 0.035746666 15217.18
0.049923426 -0.05 0.035523297 15254.684
0.049187444 -0.05 0.035298949 15295.044
0.048456093 -0.05 0.035073588 15334.565
0.047729344 -0.05 0.034847258 15374.482
0.047007184 -0.05 0.034619944 15414.593
0.046289611 -0.05 0.034391604 15455.945
0.045576607 -0.05 0.034162252 15496.652
0.044868158 -0.05 0.033931882 15538.953
0.044164259 -0.05 0.033700465 15580.951
0.043464894 -0.05 0.033468005 15623.845
0.042770054 -0.05 0.033234487 15667.564
0.042079734 -0.05 0.032999885 15713.386
0.041393929 -0.05 0.032764174 15759.82
0.040712625 -0.05 0.032527361 15806.628
0.040035798 -0.05 0.032289471 15853.066
0.039363443 -0.05 0.032050489 15901.131
0.038695563 -0.05 0.031810365 15950.505
0.038032168 -0.05 0.031569045 16001.235
0.037373226 -0.05 0.031326581 16050.696
0.036718733 -0.05 0.03108296 16102.355
0.036068678 -0.05 0.030838173 16153.59
0.035423063 -0.05 0.030592193 16209.014
0.034781926 -0.05 0.030344893 16264.626
0.034145213 -0.05 0.030096392 16318.452
0.033512917 -0.05 0.029846677 16374.936
0.032885063 -0.05 0.029595666 16432.793
0.032261651 -0.05 0.029343341 16493.054
0.031642677 -0.05 0.029089693 16553.21
0.031028119 -0.05 0.028834753 16613.675
0.030417982 -0.05 0.028578493 16675.854
0.029812303 -0.05 0.028320809 16740.518
0.029211079 -0.05 0.0280617 16804.254
0.028614285 -0.05 0.027801211 16868.961
0.028021925 -0.05 0.027539318 16935.167
0.027434034 -0.05 0.027275938 17004.703
0.026850619 -0.05 0.027011044 17073.926
0.026271654 -0.05 0.026744689 17144.85
0.025697179 -0.05 0.02647678 17219.314
0.025127212 -0.05 0.026207275 17293.932
0.024561729 -0.05 0.025936225 17369.331
0.024000753 -0.05 0.025663583 17447.814
0.023444336 -0.05 0.025389243 17528.421
0.022892447 -0.05 0.025113275 17608.682
0.022345135 -0.05 0.024835581 17694.938
0.02180243 -0.05 0.024556113 17778.444
0.021264293 -0.05 0.024274957 17864.617
0.0207308 -0.05 0.023991978 17954.115
0.020201992 -0.05 0.023707108 18045.078
0.019677842 -0.05 0.023420417 18135.579
0.019158403 -0.05 0.023131824 18230.613
0.018643727 -0.05 0.022841258 18325.568
0.018133826 -0.05 0.022548716 18423.714
0.017628739 -0.05 0.022254151 18522.475
0.017128471 -0.05 0.021957583 18624.876
0.016633127 -0.05 0.021658866 18733.842
0.016142724 -0.05 0.021358 18844.029
0.015657283 -0.05 0.021054987 18962.859
0.015176888 -0.05 0.020749728 19087.83
0.014701579 -0.05 0.020442196 19220.283
0.014231398 -0.05 0.020132367 19358.664
0.013766434 -0.05 0.019820157 19504.695
0.013306742 -0.05 0.019505528 19653.146
0.012852374 -0.05 0.019188457 19807.177
0.012403439 -0.05 0.018868841 19963.732
0.01195997 -0.05 0.018546687 20122.845
0.011522076 -0.05 0.018221915 20286.683
0.011089809 -0.05 0.017894514 20453.178
0.0106633 -0.05 0.017564386 20628.377
0.010242659 -0.05 0.01723145 20804.851
0.009827894 -0.05 0.016895788 20987.491
0.0094192167 -0.05 0.016557218 21180.1
0.0090167438 -0.05 0.016215673 21375.203
0.0086204858 -0.05 0.015871238 21576.455
0.0082306648 -0.05 0.015523765 21789.428
0.0078474301 -0.05 0.015173187 22006.751
0.00747084 -0.05 0.014819531 22230.577
0.0071010571 -0.05 0.014462741 22462.797
0.0067383047 -0.05 0.014102727 22706.22
0.0063827544 -0.05 0.013739427 22955.525
0.0060345067 -0.05 0.013372862 23208.787
0.0056937565 -0.05 0.013003011 23467.017
0.0053606882 -0.05 0.012629837 23731.582
0.0050354824 -0.05 0.012253323 24008.137
0.0047183926 -0.05 0.01187344 24296.61
0.0044096379 -0.05 0.011490161 24594.604
0.0041094132 -0.05 0.011103483 24902.022
0.0038179536 -0.05 0.010713443 25218.4
0.0035354728 -0.05 0.01032007 25543.364
0.0032621919 -0.05 0.0099233916 25877.621
0.0029983702 -0.05 0.0095234712 26220.353
0.0027442429 -0.05 0.0091203468 26570.373
0.0025000604 -0.05 0.0087141009 26927.222
0.0022660754 -0.05 0.0083048554 27290.901
0.0020425146 -0.05 0.0078926699 27661.446
0.0018296563 -0.05 0.0074776735 28037.949
0.0016277487 -0.05 0.0070600557 28418.106
0.0014369745 -0.05 0.006639968 28800.808
0.0012575291 -0.05 0.0062175973 29185.565
0.0010896146 -0.05 0.0057931737 29572.703
0.00093341056 -0.05 0.0053669215 29958.821
0.00078906403 -0.05 0.0049390744 30342.06
0.00065670868 -0.05 0.0045099018 30721.289
0.00053653171 -0.05 0.0040796665 31096.352
0.00042862038 -0.05 0.003648665 31462.507
0.00033294635 -0.05 0.003217232 31818.613
0.00024951873 -0.05 0.002785685 32164.586
0.00017832254 -0.05 0.0023543467 32498.764
0.00011930806 -0.05 0.0019235435 32818.806
7.2389968e-05 -0.05 0.0014936046 33123.366
3.7448892e-05 -0.05 0.0010648563 33411.853
1.4332163e-05 -0.05 0.0006376208 33684.068
2.8544133e-06 -0.05 0.00021221054 33936.936
0.99884037 -0.05 0.00016828408 26482.744
0.99652103 -0.05 0.00050440213 26476.101
0.99420154 -0.05 0.0008395204 26443.662
0.99188191 -0.05 0.0011736208 26418.379
0.98956214 -0.05 0.0015067636 26390.188
0.98724223 -0.05 0.001838948 26363.153
0.9849222 -0.05 0.0021701636 26335.803
0.98260202 -0.05 0.0025004302 26308.678
0.98028169 -0.05 0.0028297328 26281.596
0.97796124 -0.05 0.0031580577 26254.58
0.97564065 -0.05 0.0034854377 26227.612
0.97331994 -0.05 0.0038118591 26200.69
0.97099908 -0.05 0.0041373159 26173.805
0.96867809 -0.05 0.0044618578 26146.92
0.96635696 -0.05 0.0047854478 26120.111
0.96403572 -0.05 0.0051081172 26093.242
0.96171435 -0.05 0.0054299032 26066.436
0.95939284 -0.05 0.0057507069 26039.667
0.95707121 -0.05 0.0060705875 26012.872
0.95474946 -0.05 0.0063895914 25986.109
0.95242757 -0.05 0.0067076389 25959.416
0.95010556 -0.05 0.0070248024 25932.639
0.94778344 -0.05 0.0073411105 25905.945
0.94546118 -0.05 0.0076564368 25879.319
0.94313881 -0.05 0.007970866 25852.646
0.94081631 -0.05 0.0082844406 25826.033
0.93849369 -0.05 0.0085971026 25799.465
0.93617096 -0.05 0.0089088655 25772.93
0.9338481 -0.05 0.0092197817 25746.382
0.93152513 -0.05 0.0095298292 25719.923
0.92920205 -0.05 0.00983897 25693.494
0.92687884 -0.05 0.010147248 25667.103
0.92455553 -0.05 0.01045465 25640.775
0.92223209 -0.05 0.010761189 25614.456
0.91990855 -0.05 0.011066875 25588.228
0.91758488 -0.05 0.011371653 25562.097
0.91526111 -0.05 0.011675608 25535.897
0.91293723 -0.05 0.011978761 25509.817
0.91061324 -0.05 0.012281 25483.854
0.90828913 -0.05 0.012582372 25457.885
0.90596492 -0.05 0.012882964 25431.93
0.90364059 -0.05 0.013182677 25406.198
0.90131615 -0.05 0.013481494 25380.45
0.89899162 -0.05 0.013779572 25354.643
0.89666698 -0.05 0.014076842 25329.043
0.89434222 -0.05 0.014373142 25303.614
0.89201737 -0.05 0.014668681 25277.965
0.88969241 -0.05 0.014963453 25252.617
0.88736734 -0.05 0.0152573 25227.319
0.88504217 -0.05 0.015550344 25202.028
0.8827169 -0.05 0.015842646 25176.746
0.88039152 -0.05 0.016134071 25151.753
0.87806604 -0.05 0.016424635 25126.673
0.87574046 -0.05 0.016714466 25101.681
0.87341478 -0.05 0.017003468 25076.821
0.871089 -0.05 0.017291665 25051.967
0.86876312 -0.05 0.017579058 25027.264
0.86643714 -0.05 0.017865646 25002.555
0.86411107 -0.05 0.018151445 24977.999
0.86178489 -0.05 0.018436407 24953.517
0.85945862 -0.05 0.018720606 24929.008
0.85713225 -0.05 0.019004019 24904.685
0.85480578 -0.05 0.019286574 24880.48
0.85247921 -0.05 0.019568355 24856.238
0.85015256 -0.05 0.019849418 24832.056
0.84782581 -0.05 0.020129657 24808.079
0.84549896 -0.05 0.020409081 24784.079
0.84317202 -0.05 0.020687756 24760.139
0.84084499 -0.05 0.020965643 24736.323
0.83851786 -0.05 0.021242672 24712.704
0.83619063 -0.05 0.021518954 24688.928
0.83386332 -0.05 0.021794529 24665.327
0.83153592 -0.05 0.022069294 24641.803
0.82920841 -0.05 0.022343258 24618.379
0.82688083 -0.05 0.02261648 24594.901
0.82455316 -0.05 0.022888925 24571.625
0.82222538 -0.05 0.023160547 24548.394
0.81989751 -0.05 0.023431389 24525.256
0.81756956 -0.05 0.023701494 24502.085
0.81524153 -0.05 0.023970846 24479.069
0.8129134 -0.05 0.024239417 24456.053
0.81058518 -0.05 0.02450723 24433.136
0.80825687 -0.05 0.024774258 24410.284
0.80592849 -0.05 0.02504053 24387.473
0.8036 -0.05 0.025306023 24364.77
0.80127144 -0.05 0.025570774 24341.994
0.79894279 -0.05 0.025834763 24319.431
0.79661404 -0.05 0.026097924 24296.886
0.79428522 -0.05 0.026360374 24274.283
0.79195631 -0.05 0.026622048 24251.916
0.78962731 -0.05 0.026882938 24229.439
0.78729823 -0.05 0.027143126 24207.051
0.78496906 -0.05 0.027402517 24184.776
0.78263981 -0.05 0.02766117 24162.37
0.78031048 -0.05 0.027919081 24140.171
0.77798106 -0.05 0.028176144 24118.039
0.77565155 -0.05 0.028432494 24095.754
0.77332196 -0.05 0.028688107 24073.677
0.77099228 -0.05 0.028942908 24051.572
0.76866253 -0.05 0.029196968 24029.475
0.7663327 -0.05 0.029450285 24007.399
0.76400278 -0.05 0.029702803 23985.429
0.76167277 -0.05 0.029954568 23963.354
0.75934268 -0.05 0.030205573 23941.441
0.75701251 -0.05 0.030455803 23919.419
0.75468227 -0.05 0.030705313 23897.437
0.75235193 -0.05 0.030954045 23875.472
0.75002152 -0.05 0.031202018 23853.477
0.74769103 -0.05 0.031449207 23831.562
0.74536045 -0.05 0.031695625 23809.561
0.7430298 -0.05 0.031941289 23787.602
0.74069906 -0.05 0.032186181 23765.582
0.73836824 -0.05 0.032430305 23743.598
0.73603734 -0.05 0.032673645 23721.59
0.73370637 -0.05 0.032916233 23699.494
0.73137531 -0.05 0.033158092 23677.331
0.72904417 -0.05 0.033399148 23655.262
0.72671295 -0.05 0.033639377 23633.114
0.72438166 -0.05 0.03387888 23610.807
0.72205028 -0.05 0.034117645 23588.504
0.71971882 -0.05 0.034355552 23566.261
0.71738729 -0.05 0.034592685 23543.76
0.71505567 -0.05 0.034829099 23521.275
0.71272397 -0.05 0.035064674 23498.751
0.71039219 -0.05 0.035299486 23476.011
0.70806035 -0.05 0.035533544 23453.272
0.70572841 -0.05 0.035766778 23430.407
0.70339641 -0.05 0.035999269 23407.35
0.70106433 -0.05 0.03623098 23384.24
0.69873216 -0.05 0.036461892 23360.935
0.69639992 -0.05 0.036691978 23337.581
0.69406759 -0.05 0.036921269 23313.955
0.69173519 -0.05 0.03714974 23290.345
0.68940271 -0.05 0.037377398 23266.398
0.68707015 -0.05 0.037604327 23242.287
0.68473752 -0.05 0.03783047 23217.943
0.68240481 -0.05 0.038055756 23193.504
0.68007201 -0.05 0.038280206 23168.749
0.67773914 -0.05 0.038503859 23143.821
0.67540619 -0.05 0.03872673 23118.537
0.67307317 -0.05 0.038948784 23093.104
0.67074007 -0.05 0.039170028 23067.256
0.66840689 -0.05 0.039390456 23041.241
0.66607364 -0.05 0.039610024 23014.833
0.6637403 -0.05 0.039828774 22988.165
0.66140688 -0.05 0.040046679 22961.117
0.6590734 -0.05 0.040263799 22933.657
0.65673983 -0.05 0.040480084 22905.893
0.65440618 -0.05 0.040695489 22877.711
0.65207246 -0.05 0.040910082 22849.083
0.64973866 -0.05 0.041123838 22820.055
0.64740478 -0.05 0.04133674 22790.539
0.64507083 -0.05 0.041548788 22760.591
0.6427368 -0.05 0.04175995 22730.15
0.64040268 -0.05 0.041970278 22699.159
0.6380685 -0.05 0.042179753 22667.676
0.63573424 -0.05 0.042388355 22635.604
0.63339989 -0.05 0.042596094 22602.989
0.63106547 -0.05 0.042802945 22569.766
0.62873097 -0.05 0.04300894 22535.909
0.6263964 -0.05 0.043214055 22501.44
0.62406174 -0.05 0.043418269 22466.305
0.62172702 -0.05 0.043621601 22430.493
0.61939221 -0.05 0.043824069 22393.953
0.61705733 -0.05 0.044025645 22356.722
0.61472237 -0.05 0.044226271 22318.762
0.61238733 -0.05 0.044426006 22280.002
0.61005222 -0.05 0.04462488 22240.467
0.60771702 -0.05 0.044822825 22200.134
0.60538174 -0.05 0.045019806 22158.978
0.6030464 -0.05 0.045215861 22116.974
0.60071097 -0.05 0.045411024 22074.129
0.59837546 -0.05 0.045605254 22030.426
0.59603988 -0.05 0.045798556 21985.815
0.59370423 -0.05 0.045990938 21940.31
0.59136849 -0.05 0.046182352 21893.888
0.58903267 -0.05 0.046372791 21846.538
0.58669678 -0.05 0.046562266 21798.246
0.5843608 -0.05 0.046750814 21748.985
0.58202475 -0.05 0.046938396 21698.766
0.57968862 -0.05 0.047124972 21647.577
0.57735242 -0.05 0.047310579 21595.446
0.57501614 -0.05 0.047495251 21542.35
0.57267978 -0.05 0.047678924 21488.257
0.57034334 -0.05 0.04786155 21433.132
0.56800683 -0.05 0.048043188 21377.064
0.56567024 -0.05 0.048223861 21319.988
0.56333356 -0.05 0.048403536 21261.93
0.56099681 -0.05 0.048582153 21202.921
0.55865998 -0.05 0.04875972 21142.914
0.55632308 -0.05 0.048936314 21081.902
0.55398609 -0.05 0.049111879 21020.012
0.55164903 -0.05 0.049286359 20957.205
0.54931189 -0.05 0.049459794 20893.478
0.54697467 -0.05 0.049632163 20828.839
0.54463737 -0.05 0.049803468 20763.304
0.5423 -0.05 0.049973719 20696.891
0.53996254 -0.05 0.050142913 20629.626
0.53762502 -0.05 0.050311035 20561.527
0.53528742 -0.05 0.050478054 20492.619
0.53294973 -0.05 0.050643972 20422.92
0.53061196 -0.05 0.050808824 20352.461
0.52827412 -0.05 0.050972558 20281.276
0.5259362 -0.05 0.051135143 20209.378
0.5235982 -0.05 0.051296612 20136.812
0.52126012 -0.05 0.051456922 20063.615
0.51892198 -0.05 0.051616121 19989.803
0.51658374 -0.05 0.051774162 19915.453
0.51424543 -0.05 0.051931036 19840.546
0.51190704 -0.05 0.05208678 19765.18
0.50956857 -0.05 0.052241321 19689.345
0.50723003 -0.05 0.052394685 19613.115
0.50489141 -0.05 0.052546885 19536.525
0.50255271 -0.05 0.05269791 19459.634
0.50021394 -0.05 0.052847701 19382.497
0.49787509 -0.05 0.052996281 19305.167
0.49553616 -0.05 0.053143654 19227.717
0.49319715 -0.05 0.053289801 19150.178
0.49085807 -0.05 0.053434697 19072.606
0.48851891 -0.05 0.05357832 18994.995
0.48617967 -0.05 0.053720679 18917.361
0.48384036 -0.05 0.053861795 18839.685
0.48150096 -0.05 0.054001669 18761.997
0.4791615 -0.05 0.054140241 18684.317
0.47682195 -0.05 0.054277501 18606.725
0.47448234 -0.05 0.054413462 18529.31
0.47214264 -0.05 0.054548109 18452.18
0.46980287 -0.05 0.054681459 18375.391
0.46746302 -0.05 0.054813494 18298.949
0.4651231 -0.05 0.054944177 18222.688
0.4627831 -0.05 0.055073496 18146.311
0.46044304 -0.05 0.055201437 18069.222
0.45810288 -0.05 0.055328007 17990.608
0.45576266 -0.05 0.055453195 17909.386
0.45342237 -0.05 0.055576996 17824.308
0.451082 -0.05 0.05569938 17734.016
0.44874156 -0.05 0.055820362 17637.029
0.44640104 -0.05 0.055939944 17531.774
0.44406046 -0.05 0.056058044 17415.589
0.4417198 -0.05 0.056174717 17282.884
0.43937906 -0.05 0.05628996 17127.726
0.43703826 -0.05 0.056403696 16942.633
0.43469738 -0.05 0.056515954 16716.117
0.43235643 -0.05 0.056626691 16440.984
0.43001541 -0.05 0.056735938 16103.069
0.42767432 -0.05 0.056843696 15658.905
0.42533317 -0.05 0.056949929 15061.14
0.42299193 -0.05 0.057054582 14322.927
0.42065064 -0.05 0.05715767 13534.536
0.41830927 -0.05 0.057259222 12822.15
0.41596783 -0.05 0.057359191 12271.154
0.41362633 -0.05 0.057457551 11894.827
0.41128476 -0.05 0.057554292 11658.703
0.40894313 -0.05 0.057649427 11519.839
0.40660142 -0.05 0.057742965 11441.637
0.40425966 -0.05 0.057834838 11401.324
0.40191783 -0.05 0.057925023 11381.658
0.39957593 -0.05 0.058013541 11373.054
0.39723398 -0.05 0.058100378 11369.755
0.39489196 -0.05 0.058185525 11369.153
0.39254988 -0.05 0.058268918 11370.475
0.39020774 -0.05 0.058350591 11373.038
0.38786553 -0.05 0.058430541 11376.73
0.38552326 -0.05 0.058508715 11381.248
0.38318094 -0.05 0.058585094 11386.051
0.38083857 -0.05 0.058659688 11391
0.37849613 -0.05 0.058732482 11396.13
0.37615364 -0.05 0.058803471 11401.333
0.37381109 -0.05 0.058872605 11407.202
0.37146848 -0.05 0.058939856 11412.939
0.36912583 -0.05 0.059005237 11418.886
0.36678312 -0.05 0.059068742 11424.715
0.36444037 -0.05 0.059130353 11430.874
0.36209757 -0.05 0.059190049 11436.946
0.35975471 -0.05 0.059247824 11443.37
0.35741181 -0.05 0.059303603 11450.305
0.35506885 -0.05 0.059357402 11456.777
0.35272586 -0.05 0.059409225 11463.731
0.35038283 -0.05 0.059459045 11470.409
0.34803975 -0.05 0.059506859 11477.588
0.34569662 -0.05 0.059552581 11485.195
0.34335347 -0.05 0.059596249 11492.168
0.34101027 -0.05 0.059637862 11499.908
0.33866703 -0.05 0.059677333 11507.732
0.33632377 -0.05 0.059714702 11515.429
0.33398046 -0.05 0.059749909 11523.906
0.33163713 -0.05 0.059782951 11531.654
0.32929376 -0.05 0.059813858 11539.954
0.32695037 -0.05 0.059842535 11548.678
0.32460696 -0.05 0.059868968 11557.406
0.32226351 -0.05 0.059893141 11566.419
0.31992004 -0.05 0.059915067 11575.001
0.31757656 -0.05 0.059934727 11584.218
0.31523306 -0.05 0.059952066 11593.455
0.31288954 -0.05 0.059967055 11603.165
0.31054601 -0.05 0.059979678 11612.566
0.30820247 -0.05 0.059989926 11622.263
0.30585891 -0.05 0.059997793 11631.722
0.30351535 -0.05 0.060003209 11642.436
0.30117178 -0.05 0.060006157 11653.247
