/*--------------------------------*- C++ -*----------------------------------*\
| =========                 |                                                 |
| \\      /  F ield         | OpenFOAM: The Open Source CFD Toolbox           |
|  \\    /   O peration     | Version:  2306                                  |
|   \\  /    A nd           | Website:  www.openfoam.com                      |
|    \\/     M anipulation  |                                                 |
\*---------------------------------------------------------------------------*/
FoamFile
{
    version     2.0;
    format      ascii;
    arch        "LSB;label=32;scalar=64";
    class       volVectorField;
    location    "650";
    object      momentError;
}
// * * * * * * * * * * * * * * * * * * * * * * * * * * * * * * * * * * * * * //

dimensions      [0 1 -2 0 0 0 0];

internalField   nonuniform List<vector> 
1340
(
(-1.12144e-07 5.78204e-07 6.04183e-16)
(-8.49022e-08 7.13961e-07 -1.95206e-15)
(-1.46854e-07 6.01235e-07 5.94286e-15)
(-1.40289e-07 6.39683e-07 7.89908e-16)
(-1.00015e-07 5.60456e-07 1.19895e-15)
(-1.70183e-07 7.01206e-07 2.7942e-15)
(-1.48591e-07 6.77964e-07 9.75807e-17)
(-1.56481e-07 6.08425e-07 6.32718e-16)
(-1.49041e-07 5.88758e-07 7.02415e-16)
(-1.54737e-07 6.32954e-07 -3.92523e-16)
(-9.51726e-08 6.8031e-07 -5.39266e-16)
(-1.77346e-07 7.12291e-07 3.05655e-15)
(-2.30302e-07 1.08024e-06 -1.32703e-15)
(-1.93305e-07 9.43788e-07 2.7691e-15)
(-1.48054e-07 8.26023e-07 8.4667e-18)
(-1.24731e-07 6.64875e-07 1.68363e-18)
(-1.80452e-07 6.17796e-07 1.20546e-15)
(-1.7808e-07 6.64881e-07 -4.17103e-15)
(-1.66774e-07 6.81156e-07 -2.20929e-15)
(-1.20301e-07 6.45434e-07 1.56423e-17)
(-1.22539e-07 7.11181e-07 -5.43763e-15)
(-5.26927e-07 1.61014e-06 2.16822e-16)
(-4.5401e-07 1.44309e-06 -2.65777e-16)
(-3.9906e-07 1.3608e-06 1.83284e-16)
(-3.47742e-07 1.29809e-06 1.12158e-15)
(-2.79817e-07 1.19118e-06 -4.12137e-16)
(-2.10353e-07 1.01549e-06 2.7005e-15)
(-1.76289e-07 8.95084e-07 -8.2132e-16)
(-1.59619e-07 8.1312e-07 -1.39446e-15)
(-1.54719e-07 7.67523e-07 -1.75779e-17)
(-2.04807e-07 6.79637e-07 -1.83124e-16)
(-1.74591e-07 6.30159e-07 2.71577e-15)
(-1.58069e-07 6.64474e-07 1.51726e-15)
(-1.1923e-07 6.55791e-07 3.03904e-18)
(-1.06499e-07 7.00865e-07 4.39402e-16)
(-1.49183e-06 1.57318e-06 -9.60085e-16)
(-1.27383e-06 1.65662e-06 2.21608e-16)
(-1.04309e-06 1.68437e-06 3.47361e-16)
(-8.83105e-07 1.70985e-06 1.11304e-15)
(-7.10626e-07 1.64688e-06 1.02631e-15)
(-5.61022e-07 1.46854e-06 -3.98606e-16)
(-4.54665e-07 1.3277e-06 -6.26369e-16)
(-3.91586e-07 1.2536e-06 -5.66751e-16)
(-3.32522e-07 1.18358e-06 1.68757e-15)
(-2.96136e-07 1.14563e-06 -1.11345e-16)
(-2.8503e-07 1.12927e-06 -6.81559e-16)
(-2.43369e-07 9.90359e-07 8.58171e-16)
(-2.08758e-07 8.59321e-07 -6.31152e-16)
(-1.86276e-07 7.3063e-07 1.51702e-17)
(-1.90121e-07 6.68368e-07 -1.63046e-16)
(-1.80223e-07 6.4182e-07 6.20626e-16)
(-1.57346e-07 6.68393e-07 7.21125e-16)
(-1.19312e-07 6.47692e-07 2.62397e-17)
(-8.88684e-08 6.8566e-07 -2.31075e-16)
(-3.43091e-06 8.06561e-07 4.63419e-16)
(-3.14471e-06 9.38649e-07 8.07185e-16)
(-2.88014e-06 9.91439e-07 9.941e-16)
(-2.63143e-06 1.01092e-06 -2.56764e-16)
(-2.38527e-06 9.94584e-07 7.71642e-16)
(-2.18252e-06 1.06422e-06 -7.49334e-16)
(-1.90322e-06 1.14031e-06 -2.28977e-15)
(-1.59799e-06 1.10955e-06 -1.15917e-15)
(-1.33589e-06 1.30262e-06 6.2734e-16)
(-1.13117e-06 1.37737e-06 1.01969e-16)
(-9.38096e-07 1.41957e-06 1.45317e-15)
(-8.16573e-07 1.49153e-06 -2.24413e-16)
(-7.45054e-07 1.57568e-06 -5.21482e-17)
(-6.21031e-07 1.47197e-06 8.04816e-17)
(-5.3941e-07 1.39536e-06 -5.6183e-17)
(-4.57926e-07 1.32218e-06 -5.39959e-16)
(-3.92e-07 1.19772e-06 1.07564e-15)
(-3.20779e-07 1.03146e-06 -9.69792e-16)
(-2.72122e-07 9.15871e-07 1.23372e-16)
(-2.35013e-07 8.15631e-07 1.72685e-15)
(-2.10944e-07 7.3524e-07 -3.73567e-17)
(-2.01039e-07 6.73938e-07 1.70589e-16)
(-1.82914e-07 6.37812e-07 -1.40744e-15)
(-1.56957e-07 6.62862e-07 -1.67634e-15)
(-1.16087e-07 6.38658e-07 -2.1111e-17)
(-7.83864e-08 6.66366e-07 6.30174e-16)
(-5.73164e-06 -2.47605e-06 -2.3942e-16)
(-5.62222e-06 -2.17436e-06 2.68119e-16)
(-5.51243e-06 -1.94965e-06 -1.10564e-16)
(-5.36445e-06 -1.71883e-06 -2.15848e-16)
(-5.20661e-06 -1.48852e-06 7.03285e-16)
(-5.01534e-06 -1.24869e-06 -5.63938e-16)
(-4.81503e-06 -1.00583e-06 9.91855e-17)
(-4.58804e-06 -7.56836e-07 6.16041e-16)
(-4.3533e-06 -5.15299e-07 -6.14698e-16)
(-4.08918e-06 -2.76418e-07 -1.85818e-15)
(-3.91247e-06 -9.93367e-09 3.37784e-17)
(-3.68186e-06 2.43633e-07 -3.54437e-16)
(-3.09894e-06 1.7357e-07 3.28153e-16)
(-2.84159e-06 3.45722e-07 3.45013e-16)
(-2.57961e-06 4.82622e-07 -1.00429e-16)
(-2.38498e-06 5.2052e-07 -2.23438e-16)
(-2.16848e-06 5.97289e-07 7.126e-16)
(-2.00808e-06 6.26257e-07 -2.74352e-16)
(-1.9083e-06 8.28094e-07 -4.00483e-16)
(-1.92342e-06 1.25639e-06 3.30273e-16)
(-1.66668e-06 1.35014e-06 -1.00444e-15)
(-1.43231e-06 1.45788e-06 6.3981e-16)
(-1.21568e-06 1.52008e-06 -3.79393e-16)
(-1.01862e-06 1.47816e-06 -5.21319e-16)
(-8.12023e-07 1.32347e-06 2.87805e-16)
(-6.92426e-07 1.24925e-06 2.01574e-16)
(-5.98417e-07 1.20525e-06 4.20738e-16)
(-5.19585e-07 1.15222e-06 -4.56527e-16)
(-4.42122e-07 1.08387e-06 -7.81193e-16)
(-3.76244e-07 9.93042e-07 2.68942e-16)
(-3.1652e-07 8.87294e-07 4.3036e-17)
(-2.69356e-07 7.94879e-07 -1.72228e-16)
(-2.3515e-07 7.17287e-07 1.24172e-17)
(-2.10752e-07 6.67711e-07 -1.38835e-16)
(-1.85721e-07 6.34594e-07 2.83387e-15)
(-1.55709e-07 6.52758e-07 -1.33358e-16)
(-1.12685e-07 6.22229e-07 2.68175e-16)
(-6.98928e-08 6.45237e-07 -9.54527e-17)
(-6.20065e-06 -5.34652e-06 -7.58901e-17)
(-1.01601e-05 -7.18375e-06 -2.3907e-17)
(-1.31191e-05 -6.6252e-06 -2.7697e-18)
(-1.54302e-05 -6.16592e-06 -2.61458e-17)
(-1.72913e-05 -5.7138e-06 -1.17639e-17)
(-1.87132e-05 -5.33967e-06 -8.89264e-18)
(-1.97405e-05 -5.05342e-06 2.48386e-17)
(-2.03866e-05 -4.81462e-06 6.72009e-17)
(-2.0733e-05 -4.62052e-06 -2.89412e-17)
(-2.0787e-05 -4.44138e-06 -5.41064e-17)
(-2.06316e-05 -4.29807e-06 2.53291e-17)
(-2.02643e-05 -4.18178e-06 -5.02823e-17)
(-1.97659e-05 -4.10415e-06 -6.09809e-17)
(-1.91268e-05 -4.03993e-06 -5.36791e-17)
(-1.84228e-05 -3.99893e-06 -1.08102e-16)
(-1.76338e-05 -3.97939e-06 -1.02434e-17)
(-1.68311e-05 -3.97652e-06 -8.98247e-17)
(-1.59844e-05 -3.988e-06 -5.33867e-17)
(-1.51625e-05 -4.00634e-06 -1.20519e-16)
(-1.43243e-05 -4.0449e-06 -1.0008e-17)
(-1.35377e-05 -4.09402e-06 1.40507e-16)
(-1.27515e-05 -4.14615e-06 1.41576e-16)
(-1.20314e-05 -4.18634e-06 -8.4575e-17)
(-1.13203e-05 -4.23823e-06 5.85506e-17)
(-1.06847e-05 -4.29282e-06 1.26189e-16)
(-1.00596e-05 -4.33892e-06 1.14904e-17)
(-9.51125e-06 -4.36088e-06 -1.07147e-16)
(-8.97325e-06 -4.38071e-06 -7.39818e-18)
(-8.51233e-06 -4.40528e-06 2.56456e-17)
(-8.06186e-06 -4.42394e-06 -1.19015e-17)
(-7.68334e-06 -4.41585e-06 -9.52166e-17)
(-7.31799e-06 -4.40627e-06 8.1302e-17)
(-7.02189e-06 -4.39516e-06 -2.40964e-16)
(-6.73335e-06 -4.33786e-06 -9.33862e-17)
(-6.50893e-06 -4.28604e-06 1.70039e-16)
(-6.29597e-06 -4.20839e-06 3.13e-17)
(-6.13205e-06 -4.1199e-06 2.10385e-17)
(-5.97819e-06 -4.00209e-06 -3.25535e-17)
(-5.85272e-06 -3.88029e-06 4.52536e-17)
(-5.74027e-06 -3.76284e-06 2.55547e-16)
(-5.56531e-06 -3.60409e-06 -9.47062e-17)
(-5.76332e-06 -3.5198e-06 2.14521e-18)
(-6.10338e-06 -3.22555e-06 1.81468e-17)
(-5.07987e-06 -3.01693e-06 -1.51003e-16)
(-4.81714e-06 -2.74048e-06 7.08113e-16)
(-4.64753e-06 -2.53649e-06 1.44945e-17)
(-4.46375e-06 -2.32287e-06 -6.5722e-16)
(-4.3018e-06 -2.0969e-06 5.98757e-16)
(-4.11903e-06 -1.86036e-06 3.82707e-16)
(-3.95924e-06 -1.62139e-06 -7.98527e-17)
(-3.77138e-06 -1.37267e-06 9.91256e-18)
(-3.60583e-06 -1.12439e-06 -6.37481e-16)
(-3.40956e-06 -8.81747e-07 -1.00414e-15)
(-3.19172e-06 -6.53444e-07 -6.10063e-17)
(-3.23633e-06 -3.41396e-07 -2.1438e-16)
(-3.54799e-06 2.27628e-07 3.17215e-16)
(-3.28471e-06 3.99013e-07 -7.38493e-17)
(-3.02603e-06 5.41566e-07 -1.43821e-15)
(-2.76871e-06 6.52007e-07 -4.97848e-17)
(-2.56948e-06 7.03191e-07 4.51497e-16)
(-2.33354e-06 7.89097e-07 2.13333e-16)
(-2.15616e-06 8.23119e-07 5.01258e-16)
(-1.88969e-06 8.2927e-07 4.15968e-16)
(-1.70993e-06 9.51825e-07 6.61495e-16)
(-1.50555e-06 1.07038e-06 1.1212e-15)
(-1.29479e-06 1.1601e-06 2.5963e-17)
(-1.09488e-06 1.18891e-06 1.3437e-16)
(-9.17027e-07 1.17919e-06 -1.80606e-16)
(-7.84574e-07 1.12738e-06 -1.64918e-16)
(-6.90926e-07 1.10202e-06 8.42927e-16)
(-6.02683e-07 1.07604e-06 -6.83916e-16)
(-5.12568e-07 1.00948e-06 -4.3028e-17)
(-4.28013e-07 9.23371e-07 -5.8066e-16)
(-3.56533e-07 8.3509e-07 7.62738e-16)
(-3.00832e-07 7.5937e-07 -3.18064e-16)
(-2.57056e-07 6.98811e-07 4.23997e-17)
(-2.19944e-07 6.53473e-07 8.82596e-17)
(-1.87212e-07 6.2059e-07 -1.91255e-15)
(-1.52886e-07 6.38913e-07 7.61457e-16)
(-1.08166e-07 6.04976e-07 1.79981e-16)
(-6.43114e-08 6.22241e-07 6.72519e-18)
(1.41729e-05 -1.37674e-05 -1.36773e-17)
(1.12254e-05 -1.45087e-05 -9.71961e-18)
(7.97597e-06 -1.37885e-05 8.61465e-18)
(4.92738e-06 -1.3128e-05 -1.06452e-18)
(2.10931e-06 -1.24284e-05 -1.19099e-17)
(-4.09893e-07 -1.18194e-05 3.79e-17)
(-2.632e-06 -1.12627e-05 1.29753e-17)
(-4.53842e-06 -1.07461e-05 -1.01015e-17)
(-6.15281e-06 -1.02494e-05 3.17884e-17)
(-7.47106e-06 -9.79235e-06 -4.03397e-18)
(-8.53102e-06 -9.36457e-06 3.44899e-17)
(-9.33798e-06 -8.98512e-06 5.52036e-17)
(-9.93464e-06 -8.62871e-06 -3.68521e-17)
(-1.03291e-05 -8.31522e-06 4.63717e-17)
(-1.05652e-05 -8.01395e-06 -2.80635e-17)
(-1.06491e-05 -7.75558e-06 -9.07748e-17)
(-1.0623e-05 -7.5055e-06 -6.60377e-18)
(-1.04889e-05 -7.29159e-06 2.18897e-17)
(-1.0287e-05 -7.0751e-06 1.85421e-17)
(-1.00129e-05 -6.892e-06 -2.34403e-17)
(-9.70527e-06 -6.71216e-06 -1.04073e-17)
(-9.35436e-06 -6.56516e-06 -3.38837e-18)
(-8.99486e-06 -6.40472e-06 -2.54936e-17)
(-8.61082e-06 -6.26932e-06 -4.17428e-17)
(-8.23723e-06 -6.13263e-06 1.26984e-17)
(-7.85381e-06 -6.02124e-06 5.61231e-17)
(-7.49136e-06 -5.88304e-06 -4.90663e-17)
(-7.12411e-06 -5.75846e-06 4.72302e-17)
(-6.78512e-06 -5.62441e-06 -2.22814e-17)
(-6.44815e-06 -5.51113e-06 4.61965e-17)
(-6.14292e-06 -5.35923e-06 -1.09872e-16)
(-5.83735e-06 -5.22318e-06 -1.16784e-16)
(-5.56756e-06 -5.07911e-06 -8.71486e-18)
(-5.30133e-06 -4.94346e-06 -1.98048e-16)
(-5.06279e-06 -4.75382e-06 -2.37225e-17)
(-4.83413e-06 -4.59245e-06 8.08326e-17)
(-4.63145e-06 -4.40342e-06 3.98059e-17)
(-4.43856e-06 -4.24316e-06 3.12107e-17)
(-4.27067e-06 -4.06145e-06 6.15703e-17)
(-4.12064e-06 -3.89879e-06 1.89229e-16)
(-3.97337e-06 -3.73344e-06 -1.58078e-17)
(-3.71552e-06 -3.55521e-06 -1.31155e-16)
(-4.02402e-06 -3.52486e-06 1.1785e-16)
(-5.19962e-06 -3.30742e-06 -2.65779e-16)
(-5.07715e-06 -3.03582e-06 -4.51915e-16)
(-4.91721e-06 -2.73542e-06 2.55274e-17)
(-4.75921e-06 -2.43604e-06 1.98762e-16)
(-4.6034e-06 -2.14703e-06 -2.89529e-16)
(-4.44395e-06 -1.85548e-06 2.64905e-16)
(-4.28726e-06 -1.57414e-06 1.16692e-16)
(-4.12113e-06 -1.29857e-06 2.15975e-16)
(-3.95819e-06 -1.03438e-06 4.97937e-16)
(-3.77823e-06 -7.83088e-07 5.40873e-16)
(-3.58612e-06 -5.57019e-07 -2.29369e-17)
(-3.32543e-06 -3.78524e-07 -4.91997e-17)
(-2.98457e-06 -3.01703e-07 1.66455e-16)
(-2.81303e-06 -1.14917e-07 1.84743e-16)
(-2.66503e-06 4.70385e-08 1.12641e-15)
(-2.49225e-06 1.76054e-07 1.56589e-17)
(-2.35073e-06 2.8892e-07 -1.0577e-15)
(-2.20243e-06 3.78097e-07 1.09741e-16)
(-2.06582e-06 4.99111e-07 -5.1355e-16)
(-1.93257e-06 6.25582e-07 -2.63685e-16)
(-1.76059e-06 7.35581e-07 9.40024e-19)
(-1.5765e-06 8.42785e-07 -9.20652e-16)
(-1.38629e-06 9.43446e-07 1.03941e-16)
(-1.18394e-06 9.94543e-07 5.71401e-17)
(-1.01299e-06 9.79261e-07 -1.02327e-17)
(-8.71824e-07 9.79921e-07 1.32814e-16)
(-7.82751e-07 9.78738e-07 -4.40655e-16)
(-6.75912e-07 9.53478e-07 2.13089e-16)
(-5.76096e-07 9.0627e-07 1.08502e-16)
(-4.77529e-07 8.42742e-07 4.2296e-17)
(-3.92765e-07 7.75537e-07 -1.82661e-15)
(-3.28654e-07 7.16124e-07 -5.393e-16)
(-2.74309e-07 6.6411e-07 -1.50451e-17)
(-2.27276e-07 6.3174e-07 3.64599e-17)
(-1.8709e-07 6.06036e-07 -1.43928e-15)
(-1.50012e-07 6.19992e-07 4.97136e-16)
(-1.034e-07 5.82985e-07 -4.05485e-16)
(-6.03186e-08 5.99137e-07 1.07391e-17)
(2.30982e-05 -2.13435e-05 -1.24917e-17)
(2.21279e-05 -2.13494e-05 -5.10681e-18)
(1.98361e-05 -1.99365e-05 1.23589e-17)
(1.7433e-05 -1.87812e-05 8.18476e-18)
(1.49823e-05 -1.76684e-05 -3.7943e-18)
(1.25592e-05 -1.66406e-05 -3.65688e-18)
(1.02312e-05 -1.56695e-05 1.3925e-17)
(8.03358e-06 -1.47606e-05 -1.0019e-17)
(6.01063e-06 -1.39112e-05 -3.13365e-18)
(4.17213e-06 -1.31162e-05 1.5486e-17)
(2.54095e-06 -1.23726e-05 -1.89753e-18)
(1.10443e-06 -1.16955e-05 2.28284e-17)
(-1.26306e-07 -1.10758e-05 2.06498e-17)
(-1.17664e-06 -1.05093e-05 -1.2798e-17)
(-2.04332e-06 -9.98595e-06 3.66108e-17)
(-2.75884e-06 -9.51497e-06 -1.04073e-17)
(-3.32226e-06 -9.08503e-06 -2.52495e-17)
(-3.76856e-06 -8.69953e-06 3.12043e-17)
(-4.09651e-06 -8.3455e-06 1.58714e-17)
(-4.34084e-06 -8.02942e-06 2.34975e-18)
(-4.49784e-06 -7.73837e-06 -9.73917e-18)
(-4.60155e-06 -7.48253e-06 -6.92476e-17)
(-4.64483e-06 -7.24878e-06 3.68136e-18)
(-4.65881e-06 -7.04266e-06 -3.64923e-17)
(-4.63361e-06 -6.8461e-06 -1.08961e-17)
(-4.59866e-06 -6.6779e-06 1.8524e-17)
(-4.54074e-06 -6.52332e-06 3.52102e-17)
(-4.48411e-06 -6.3836e-06 3.40924e-18)
(-4.41443e-06 -6.23367e-06 8.41995e-18)
(-4.35456e-06 -6.10059e-06 -1.09543e-17)
(-4.28846e-06 -5.97223e-06 2.80942e-17)
(-4.23202e-06 -5.84116e-06 -5.90517e-17)
(-4.17141e-06 -5.68077e-06 -1.40991e-17)
(-4.12299e-06 -5.54129e-06 3.87786e-17)
(-4.07056e-06 -5.36587e-06 -1.15766e-16)
(-4.01792e-06 -5.18112e-06 -6.01329e-17)
(-3.96405e-06 -4.97187e-06 2.07938e-17)
(-3.90766e-06 -4.75769e-06 -1.70301e-17)
(-3.85571e-06 -4.50798e-06 -3.33281e-17)
(-3.80862e-06 -4.26748e-06 -5.14331e-17)
(-3.75705e-06 -4.01367e-06 3.91587e-17)
(-3.64742e-06 -3.75545e-06 -4.01241e-17)
(-3.46484e-06 -3.48582e-06 -1.14845e-16)
(-3.01534e-06 -3.23502e-06 4.64865e-17)
(-2.99511e-06 -2.97631e-06 -2.3835e-16)
(-2.98263e-06 -2.7236e-06 3.18031e-19)
(-2.97835e-06 -2.47154e-06 1.47449e-17)
(-2.96528e-06 -2.22843e-06 1.70969e-16)
(-2.95821e-06 -1.98734e-06 -3.33622e-16)
(-2.93574e-06 -1.7544e-06 1.43783e-19)
(-2.91595e-06 -1.5258e-06 3.58336e-16)
(-2.87689e-06 -1.30131e-06 -1.1864e-16)
(-2.83916e-06 -1.08461e-06 4.96329e-16)
(-2.76012e-06 -8.74353e-07 2.98455e-17)
(-2.71419e-06 -6.67068e-07 -6.52471e-17)
(-2.65989e-06 -4.52346e-07 -6.43355e-17)
(-2.57064e-06 -2.85155e-07 -4.20686e-18)
(-2.45788e-06 -1.27961e-07 -6.34353e-16)
(-2.35159e-06 6.30674e-09 2.19452e-16)
(-2.23401e-06 1.26408e-07 6.07073e-16)
(-2.11994e-06 2.29593e-07 -1.3439e-16)
(-2.00165e-06 3.28388e-07 1.00792e-15)
(-1.87379e-06 4.2393e-07 1.48849e-17)
(-1.73847e-06 5.14265e-07 -1.8477e-16)
(-1.59149e-06 6.27283e-07 -2.21802e-16)
(-1.42326e-06 7.14473e-07 -2.70736e-16)
(-1.24856e-06 7.71639e-07 5.21076e-16)
(-1.07699e-06 8.0999e-07 1.23189e-16)
(-9.55073e-07 8.17541e-07 2.62861e-16)
(-8.40238e-07 8.33549e-07 -4.81894e-16)
(-7.35849e-07 8.23321e-07 1.51515e-16)
(-6.19361e-07 7.92143e-07 -1.12313e-16)
(-5.11659e-07 7.43429e-07 -1.17102e-15)
(-4.24616e-07 7.00876e-07 -3.8345e-16)
(-3.51007e-07 6.63326e-07 1.39205e-16)
(-2.88289e-07 6.27752e-07 9.83198e-18)
(-2.3118e-07 6.01711e-07 1.81977e-16)
(-1.85881e-07 5.8082e-07 2.68099e-16)
(-1.47951e-07 5.98352e-07 -8.99741e-16)
(-9.97386e-08 5.61459e-07 -2.02939e-16)
(-5.78074e-08 5.75352e-07 -5.13724e-16)
(2.28035e-05 -2.35218e-05 6.81336e-18)
(2.40702e-05 -2.43644e-05 -2.02386e-18)
(2.36303e-05 -2.32568e-05 -9.00855e-18)
(2.2731e-05 -2.21687e-05 -2.63982e-18)
(2.14797e-05 -2.10588e-05 5.94453e-18)
(1.99667e-05 -1.99576e-05 -2.58419e-19)
(1.82805e-05 -1.88625e-05 -4.50324e-18)
(1.64994e-05 -1.7803e-05 1.85889e-18)
(1.46864e-05 -1.6793e-05 -2.01581e-17)
(1.28959e-05 -1.58265e-05 -1.31693e-17)
(1.11707e-05 -1.49021e-05 -1.0165e-17)
(9.53956e-06 -1.40254e-05 -1.96624e-18)
(8.02646e-06 -1.32046e-05 2.68126e-17)
(6.64331e-06 -1.24283e-05 -7.72917e-18)
(5.39914e-06 -1.16948e-05 -3.10195e-17)
(4.29334e-06 -1.10067e-05 1.47801e-17)
(3.32468e-06 -1.03674e-05 -1.00222e-17)
(2.48492e-06 -9.77173e-06 -4.74052e-17)
(1.76805e-06 -9.21599e-06 -6.82358e-18)
(1.16117e-06 -8.70395e-06 -5.6291e-19)
(6.56206e-07 -8.23228e-06 4.05256e-17)
(2.38516e-07 -7.80101e-06 5.26128e-17)
(-1.00225e-07 -7.40165e-06 5.02303e-18)
(-3.74666e-07 -7.04192e-06 1.9014e-17)
(-5.92045e-07 -6.70977e-06 -3.24912e-19)
(-7.65341e-07 -6.41089e-06 3.36091e-17)
(-9.00409e-07 -6.13373e-06 -1.49562e-17)
(-1.00898e-06 -5.88877e-06 -3.48639e-18)
(-1.09378e-06 -5.6549e-06 -2.17753e-18)
(-1.16367e-06 -5.44521e-06 7.3683e-18)
(-1.22082e-06 -5.24362e-06 -2.85174e-18)
(-1.27362e-06 -5.07225e-06 2.88845e-17)
(-1.31975e-06 -4.89338e-06 -3.88596e-19)
(-1.36401e-06 -4.72418e-06 8.23245e-19)
(-1.40865e-06 -4.57685e-06 2.12039e-17)
(-1.45403e-06 -4.43947e-06 7.0867e-17)
(-1.50047e-06 -4.27466e-06 -4.42148e-17)
(-1.54872e-06 -4.1116e-06 -2.9384e-18)
(-1.60193e-06 -3.93228e-06 4.89776e-17)
(-1.66351e-06 -3.7472e-06 4.60801e-18)
(-1.73068e-06 -3.54117e-06 -8.50601e-17)
(-1.75688e-06 -3.32647e-06 3.69085e-17)
(-1.8419e-06 -3.10236e-06 7.77307e-17)
(-1.98795e-06 -2.88786e-06 2.01306e-16)
(-2.06128e-06 -2.65585e-06 2.11846e-16)
(-2.12614e-06 -2.43155e-06 4.92802e-17)
(-2.18977e-06 -2.20686e-06 -7.55795e-18)
(-2.24616e-06 -1.99637e-06 -1.04037e-16)
(-2.29859e-06 -1.78928e-06 1.19915e-16)
(-2.34081e-06 -1.59382e-06 -5.44714e-17)
(-2.37527e-06 -1.40279e-06 -2.77369e-16)
(-2.39758e-06 -1.22013e-06 -1.76939e-16)
(-2.40832e-06 -1.04234e-06 -7.99218e-17)
(-2.38911e-06 -8.71803e-07 -4.79433e-17)
(-2.36065e-06 -7.06954e-07 4.23725e-17)
(-2.32083e-06 -5.52457e-07 -4.06195e-16)
(-2.27445e-06 -4.0488e-07 -1.92454e-16)
(-2.21653e-06 -2.66302e-07 -2.25978e-16)
(-2.14524e-06 -1.42221e-07 -5.52804e-16)
(-2.0677e-06 -2.63198e-08 1.25392e-16)
(-1.97836e-06 7.52041e-08 -1.4062e-16)
(-1.88611e-06 1.72226e-07 -5.43837e-16)
(-1.78852e-06 2.5902e-07 5.71116e-16)
(-1.67887e-06 3.52418e-07 7.14543e-16)
(-1.56095e-06 4.32166e-07 -1.12854e-16)
(-1.41099e-06 5.19844e-07 -3.32992e-16)
(-1.26569e-06 5.80543e-07 -7.97784e-18)
(-1.10662e-06 6.24643e-07 -6.46367e-17)
(-9.78117e-07 6.61627e-07 1.59069e-16)
(-8.74159e-07 6.80962e-07 1.27658e-16)
(-7.58167e-07 6.83112e-07 1.04695e-16)
(-6.44794e-07 6.58341e-07 3.01825e-16)
(-5.43248e-07 6.43335e-07 5.75311e-16)
(-4.5599e-07 6.22877e-07 2.44256e-16)
(-3.74352e-07 5.99243e-07 5.51223e-17)
(-3.00227e-07 5.73884e-07 -1.3937e-16)
(-2.39082e-07 5.63589e-07 -9.72123e-16)
(-1.88531e-07 5.5663e-07 4.26285e-16)
(-1.47487e-07 5.7224e-07 4.60121e-16)
(-9.71777e-08 5.3486e-07 6.12586e-16)
(-5.53025e-08 5.51376e-07 1.88946e-15)
(1.37268e-05 -2.14987e-05 4.92318e-19)
(1.68673e-05 -2.21242e-05 1.82254e-18)
(1.86191e-05 -2.09684e-05 6.03167e-18)
(1.97093e-05 -1.98871e-05 1.81877e-18)
(2.02516e-05 -1.88571e-05 -3.24242e-18)
(2.0309e-05 -1.78705e-05 -1.44193e-18)
(1.99666e-05 -1.69225e-05 -2.46224e-19)
(1.93033e-05 -1.60141e-05 -6.65858e-20)
(1.83925e-05 -1.51423e-05 3.03882e-20)
(1.73012e-05 -1.43187e-05 -8.03752e-18)
(1.60926e-05 -1.35372e-05 9.68429e-18)
(1.48151e-05 -1.27887e-05 -7.07695e-18)
(1.35154e-05 -1.20711e-05 -1.72596e-17)
(1.2226e-05 -1.13935e-05 -1.03236e-17)
(1.09768e-05 -1.07525e-05 -3.77216e-18)
(9.78652e-06 -1.0142e-05 3.27422e-18)
(8.67143e-06 -9.55978e-06 1.41368e-18)
(7.63843e-06 -9.01069e-06 -1.2192e-17)
(6.69472e-06 -8.49199e-06 -1.80756e-17)
(5.83884e-06 -8.00048e-06 -4.89527e-18)
(5.07221e-06 -7.53665e-06 3.11633e-18)
(4.38745e-06 -7.10109e-06 1.95869e-17)
(3.78265e-06 -6.6909e-06 -2.7335e-17)
(3.24773e-06 -6.30748e-06 6.02826e-18)
(2.77923e-06 -5.95139e-06 -2.23573e-17)
(2.36595e-06 -5.62491e-06 1.23663e-17)
(2.00486e-06 -5.3222e-06 3.37539e-17)
(1.68438e-06 -5.04745e-06 -2.59939e-17)
(1.40225e-06 -4.79798e-06 -4.72194e-17)
(1.14846e-06 -4.57602e-06 -1.33379e-17)
(9.22221e-07 -4.37282e-06 9.9208e-17)
(7.14535e-07 -4.19167e-06 6.59212e-17)
(5.2403e-07 -4.02813e-06 5.49415e-17)
(3.46184e-07 -3.8827e-06 -4.93232e-19)
(1.80601e-07 -3.72498e-06 -5.80124e-17)
(1.92614e-08 -3.58281e-06 -6.42564e-17)
(-1.34172e-07 -3.43055e-06 4.87768e-17)
(-2.81602e-07 -3.27506e-06 -2.02063e-17)
(-4.24244e-07 -3.10458e-06 -6.40223e-17)
(-5.71145e-07 -2.94473e-06 4.97871e-17)
(-7.13849e-07 -2.76742e-06 -1.32367e-17)
(-8.22225e-07 -2.58588e-06 2.98737e-19)
(-9.38549e-07 -2.41171e-06 -3.83461e-17)
(-1.05286e-06 -2.24621e-06 3.23645e-18)
(-1.18084e-06 -2.06899e-06 -1.72671e-16)
(-1.30061e-06 -1.90317e-06 -1.14769e-16)
(-1.41427e-06 -1.7374e-06 -2.42465e-17)
(-1.51682e-06 -1.58517e-06 -2.30163e-16)
(-1.611e-06 -1.4338e-06 -1.81436e-16)
(-1.69162e-06 -1.29469e-06 -5.94161e-17)
(-1.7613e-06 -1.15712e-06 -1.63988e-16)
(-1.81572e-06 -1.02774e-06 1.1835e-16)
(-1.85831e-06 -8.99512e-07 -3.20091e-16)
(-1.87366e-06 -7.76e-07 -4.52499e-17)
(-1.88214e-06 -6.52265e-07 2.14044e-16)
(-1.88176e-06 -5.31836e-07 4.19965e-17)
(-1.86651e-06 -4.18241e-07 -1.03338e-16)
(-1.8372e-06 -3.06685e-07 9.20919e-16)
(-1.79631e-06 -2.03708e-07 5.36304e-17)
(-1.74623e-06 -1.04352e-07 -7.88584e-16)
(-1.68421e-06 -1.38313e-08 1.93111e-16)
(-1.6168e-06 7.14362e-08 -6.62642e-16)
(-1.54309e-06 1.50151e-07 -3.64865e-17)
(-1.46403e-06 2.20217e-07 8.00446e-17)
(-1.3654e-06 2.95389e-07 -1.72255e-15)
(-1.2634e-06 3.56077e-07 4.28756e-17)
(-1.13251e-06 4.13414e-07 7.87285e-17)
(-1.01642e-06 4.63366e-07 -2.46906e-16)
(-9.04326e-07 5.09344e-07 3.22974e-16)
(-8.07608e-07 5.3194e-07 -2.28354e-17)
(-7.11446e-07 5.35842e-07 1.06676e-16)
(-6.16049e-07 5.42438e-07 -7.1216e-16)
(-5.33148e-07 5.35461e-07 -6.83228e-16)
(-4.45802e-07 5.29357e-07 6.13212e-17)
(-3.70979e-07 5.18527e-07 -5.03111e-17)
(-2.98455e-07 5.12824e-07 1.24007e-16)
(-2.41714e-07 5.12424e-07 -6.68412e-16)
(-1.86963e-07 5.12188e-07 8.53186e-17)
(-1.41886e-07 5.3611e-07 -6.87669e-16)
(-8.9713e-08 5.01432e-07 -8.15958e-17)
(-5.00918e-08 5.19983e-07 1.4542e-15)
(-3.22239e-06 -1.10191e-05 2.7132e-18)
(5.73762e-07 -1.16119e-05 4.0451e-18)
(3.99128e-06 -1.11908e-05 -1.0134e-18)
(6.83078e-06 -1.07761e-05 1.98565e-18)
(9.15195e-06 -1.04294e-05 1.75266e-18)
(1.09562e-05 -1.00797e-05 -1.5796e-17)
(1.22823e-05 -9.74454e-06 -9.37351e-18)
(1.31689e-05 -9.40242e-06 -3.43142e-18)
(1.36671e-05 -9.05523e-06 -1.05412e-18)
(1.38352e-05 -8.70543e-06 4.02977e-18)
(1.37206e-05 -8.35738e-06 -9.11002e-18)
(1.33823e-05 -8.00254e-06 1.24145e-17)
(1.28676e-05 -7.64675e-06 2.13749e-18)
(1.22227e-05 -7.28675e-06 7.63868e-18)
(1.1486e-05 -6.93208e-06 1.90278e-17)
(1.06956e-05 -6.57768e-06 1.71569e-17)
(9.87657e-06 -6.22949e-06 1.4934e-17)
(9.05436e-06 -5.88391e-06 5.83709e-18)
(8.24789e-06 -5.55132e-06 2.60894e-17)
(7.4699e-06 -5.22609e-06 -1.2957e-17)
(6.73155e-06 -4.91315e-06 -3.83758e-17)
(6.03878e-06 -4.61171e-06 -8.38644e-18)
(5.39537e-06 -4.32423e-06 -2.42056e-18)
(4.80374e-06 -4.052e-06 -1.11157e-17)
(4.26293e-06 -3.79394e-06 -8.53575e-18)
(3.77074e-06 -3.55262e-06 -2.84742e-17)
(3.32532e-06 -3.32737e-06 -5.44062e-18)
(2.92254e-06 -3.12192e-06 -1.47117e-18)
(2.55943e-06 -2.93285e-06 3.0488e-17)
(2.22995e-06 -2.76394e-06 -9.34016e-18)
(1.9318e-06 -2.611e-06 1.04558e-17)
(1.65913e-06 -2.47998e-06 3.18295e-17)
(1.40987e-06 -2.36268e-06 2.61895e-17)
(1.17767e-06 -2.26277e-06 6.96791e-17)
(9.62575e-07 -2.17682e-06 5.223e-18)
(7.60073e-07 -2.10601e-06 -4.58975e-17)
(5.70351e-07 -2.04358e-06 -6.54533e-17)
(3.91522e-07 -1.98376e-06 2.13004e-17)
(2.23885e-07 -1.90782e-06 5.94653e-17)
(6.11678e-08 -1.83178e-06 -3.57488e-17)
(-9.16193e-08 -1.75023e-06 6.2238e-17)
(-2.23251e-07 -1.66335e-06 -1.07361e-17)
(-3.52253e-07 -1.56327e-06 2.29816e-17)
(-4.81969e-07 -1.47181e-06 -1.29024e-16)
(-5.99969e-07 -1.37456e-06 -3.72195e-17)
(-7.06912e-07 -1.28777e-06 3.37698e-17)
(-8.04805e-07 -1.2011e-06 -4.37024e-17)
(-8.92104e-07 -1.12381e-06 -4.89922e-17)
(-9.71102e-07 -1.04496e-06 7.65304e-17)
(-1.03926e-06 -9.71971e-07 3.9074e-18)
(-1.10006e-06 -8.99187e-07 1.43051e-16)
(-1.15044e-06 -8.25692e-07 2.39308e-16)
(-1.19375e-06 -7.48519e-07 2.83638e-17)
(-1.22124e-06 -6.69305e-07 7.12415e-17)
(-1.24385e-06 -5.85176e-07 1.27027e-17)
(-1.26057e-06 -4.99167e-07 1.92181e-16)
(-1.26843e-06 -4.13283e-07 4.33559e-17)
(-1.26659e-06 -3.27309e-07 -3.20733e-16)
(-1.25518e-06 -2.43313e-07 3.08786e-16)
(-1.23583e-06 -1.62041e-07 8.12538e-17)
(-1.20513e-06 -8.50945e-08 -5.9612e-17)
(-1.16991e-06 -1.28964e-08 4.76706e-16)
(-1.12608e-06 5.33416e-08 -1.44168e-16)
(-1.07742e-06 1.15162e-07 -1.21554e-16)
(-1.01906e-06 1.68324e-07 8.4603e-16)
(-9.48678e-07 2.18108e-07 -6.35419e-17)
(-8.74511e-07 2.64373e-07 -3.78672e-16)
(-7.88891e-07 3.15358e-07 -3.6243e-18)
(-7.19371e-07 3.57372e-07 -1.35287e-16)
(-6.53231e-07 3.85886e-07 -3.55645e-17)
(-5.88598e-07 4.06818e-07 -8.64136e-17)
(-5.23185e-07 4.14639e-07 4.53656e-16)
(-4.56789e-07 4.25287e-07 4.74131e-16)
(-3.9546e-07 4.29368e-07 2.0526e-16)
(-3.33339e-07 4.33158e-07 1.70746e-16)
(-2.78152e-07 4.35825e-07 -1.19522e-16)
(-2.2681e-07 4.50776e-07 7.25566e-16)
(-1.78193e-07 4.60425e-07 1.0023e-17)
(-1.33512e-07 4.89044e-07 8.06748e-16)
(-8.07861e-08 4.57594e-07 -4.10171e-16)
(-4.57631e-08 4.85161e-07 -2.34435e-15)
(-2.09201e-05 -4.23748e-07 9.35518e-18)
(-1.8442e-05 -6.58044e-07 -3.35636e-18)
(-1.49272e-05 -4.44523e-07 -4.58599e-18)
(-1.15363e-05 -2.7291e-07 7.12261e-19)
(-8.31146e-06 -2.28848e-07 5.52541e-18)
(-5.32993e-06 -2.22219e-07 7.54809e-18)
(-2.64507e-06 -2.60981e-07 -4.12608e-18)
(-2.8553e-07 -3.25687e-07 4.11814e-19)
(1.73447e-06 -4.09631e-07 9.21818e-18)
(3.41505e-06 -4.98092e-07 5.18918e-18)
(4.76729e-06 -5.9055e-07 -4.46885e-18)
(5.81422e-06 -6.779e-07 -9.47281e-18)
(6.57956e-06 -7.58605e-07 5.92774e-19)
(7.0973e-06 -8.3335e-07 5.09921e-20)
(7.39763e-06 -8.98853e-07 -8.32084e-19)
(7.5164e-06 -9.55064e-07 1.69122e-18)
(7.48195e-06 -9.99351e-07 1.15567e-17)
(7.3271e-06 -1.03619e-06 5.93173e-18)
(7.07778e-06 -1.06263e-06 -1.2716e-17)
(6.75713e-06 -1.08164e-06 2.07715e-17)
(6.38858e-06 -1.08931e-06 1.41289e-17)
(5.9875e-06 -1.09181e-06 -5.88094e-18)
(5.56896e-06 -1.08632e-06 1.40582e-18)
(5.14514e-06 -1.07667e-06 1.58442e-17)
(4.72583e-06 -1.05903e-06 1.45156e-17)
(4.31617e-06 -1.0392e-06 1.71255e-17)
(3.92387e-06 -1.01526e-06 -1.37106e-17)
(3.54931e-06 -9.90661e-07 -3.20863e-19)
(3.19738e-06 -9.64002e-07 1.86101e-17)
(2.86631e-06 -9.38468e-07 4.01053e-18)
(2.55891e-06 -9.11772e-07 -2.61522e-17)
(2.27156e-06 -8.89318e-07 -1.37063e-17)
(2.00582e-06 -8.69434e-07 -6.89191e-18)
(1.75699e-06 -8.54713e-07 2.14536e-17)
(1.52706e-06 -8.41389e-07 4.21323e-17)
(1.3101e-06 -8.37105e-07 4.2889e-17)
(1.10893e-06 -8.36545e-07 3.06007e-17)
(9.17868e-07 -8.43041e-07 -2.08066e-17)
(7.39718e-07 -8.47704e-07 -6.53473e-17)
(5.66606e-07 -8.55559e-07 2.87865e-17)
(4.0338e-07 -8.59458e-07 7.80786e-18)
(2.55881e-07 -8.63865e-07 2.60397e-17)
(1.10134e-07 -8.63956e-07 -5.20104e-17)
(-2.72867e-08 -8.65405e-07 9.48869e-17)
(-1.54482e-07 -8.62577e-07 -3.50682e-17)
(-2.7151e-07 -8.57686e-07 1.09242e-16)
(-3.80945e-07 -8.3977e-07 3.56589e-17)
(-4.81033e-07 -8.19624e-07 -7.13719e-17)
(-5.75181e-07 -7.9056e-07 5.11614e-17)
(-6.6008e-07 -7.57869e-07 1.23667e-16)
(-7.40094e-07 -7.16908e-07 3.39022e-17)
(-8.11966e-07 -6.73577e-07 -4.31901e-17)
(-8.78705e-07 -6.19945e-07 2.29654e-16)
(-9.3176e-07 -5.66909e-07 4.7755e-17)
(-9.83166e-07 -5.05051e-07 -1.14435e-16)
(-1.02593e-06 -4.4342e-07 -2.93831e-16)
(-1.05942e-06 -3.77215e-07 -2.58172e-17)
(-1.08223e-06 -3.12073e-07 -1.9927e-17)
(-1.09553e-06 -2.43582e-07 -2.52888e-16)
(-1.09914e-06 -1.76739e-07 1.96145e-16)
(-1.09059e-06 -1.09825e-07 1.18709e-16)
(-1.07556e-06 -4.4552e-08 2.08465e-16)
(-1.05e-06 1.75374e-08 1.96503e-16)
(-1.01783e-06 7.60441e-08 -4.36189e-16)
(-9.73686e-07 1.2794e-07 5.38549e-16)
(-9.25063e-07 1.73642e-07 3.46222e-16)
(-8.67268e-07 2.21743e-07 2.22448e-17)
(-8.0422e-07 2.69537e-07 1.15357e-16)
(-7.29593e-07 3.20105e-07 -2.76984e-16)
(-6.79424e-07 3.57301e-07 -5.95477e-17)
(-6.21795e-07 3.78534e-07 -1.97484e-17)
(-5.6437e-07 3.99273e-07 4.83144e-16)
(-5.05149e-07 4.11656e-07 5.50316e-16)
(-4.45199e-07 4.23534e-07 4.84939e-16)
(-3.85126e-07 4.30714e-07 2.12764e-16)
(-3.2858e-07 4.45936e-07 1.0504e-16)
(-2.73987e-07 4.63785e-07 -7.47756e-16)
(-2.16816e-07 4.77935e-07 1.65539e-16)
(-1.62192e-07 5.06658e-07 7.2019e-16)
(-1.04112e-07 4.82233e-07 -1.44848e-16)
(-5.97293e-08 5.03832e-07 -5.44501e-16)
(-2.44498e-05 8.60478e-06 -2.26203e-18)
(-2.47282e-05 8.42038e-06 3.94661e-18)
(-2.3325e-05 8.20771e-06 1.72952e-18)
(-2.15371e-05 7.95585e-06 4.83007e-19)
(-1.94743e-05 7.61779e-06 5.45046e-19)
(-1.7239e-05 7.25126e-06 1.37325e-18)
(-1.49261e-05 6.85849e-06 5.04118e-18)
(-1.2619e-05 6.45685e-06 -2.62765e-20)
(-1.03832e-05 6.04963e-06 -7.03593e-18)
(-8.27172e-06 5.64294e-06 -2.25882e-18)
(-6.32475e-06 5.24156e-06 2.44807e-18)
(-4.56707e-06 4.84912e-06 -3.44038e-18)
(-3.01386e-06 4.4701e-06 -9.51573e-19)
(-1.66994e-06 4.10529e-06 -7.06164e-18)
(-5.31627e-07 3.7572e-06 2.7153e-18)
(4.09595e-07 3.42812e-06 -1.7292e-18)
(1.1676e-06 3.11789e-06 -4.24223e-18)
(1.75975e-06 2.82768e-06 1.75859e-18)
(2.20381e-06 2.55805e-06 3.98919e-18)
(2.51895e-06 2.30629e-06 -1.17702e-17)
(2.72435e-06 2.07335e-06 -9.83189e-18)
(2.8373e-06 1.85944e-06 -2.55377e-18)
(2.87434e-06 1.66361e-06 -1.63214e-18)
(2.85105e-06 1.48307e-06 -1.16402e-17)
(2.78039e-06 1.31882e-06 -1.07096e-17)
(2.67385e-06 1.16888e-06 -9.58645e-18)
(2.54203e-06 1.0336e-06 3.01327e-17)
(2.39177e-06 9.11265e-07 -5.7524e-19)
(2.231e-06 8.00943e-07 -2.8314e-17)
(2.06433e-06 7.0109e-07 3.98368e-18)
(1.89683e-06 6.12728e-07 1.08295e-17)
(1.73073e-06 5.32397e-07 2.50452e-18)
(1.56932e-06 4.60301e-07 -7.97742e-18)
(1.41267e-06 3.93779e-07 -3.7451e-17)
(1.26393e-06 3.3223e-07 -7.49461e-18)
(1.12194e-06 2.73128e-07 1.94053e-17)
(9.88929e-07 2.18133e-07 2.01459e-17)
(8.63391e-07 1.63482e-07 5.49647e-18)
(7.45984e-07 1.11468e-07 -1.71868e-17)
(6.31892e-07 6.15854e-08 -4.93837e-17)
(5.23591e-07 1.76126e-08 5.45588e-18)
(4.23222e-07 -2.50733e-08 -3.66601e-17)
(3.26177e-07 -6.89619e-08 2.83336e-17)
(2.31406e-07 -1.1266e-07 -2.08908e-17)
(1.41801e-07 -1.50882e-07 6.71953e-17)
(5.4056e-08 -1.88789e-07 -9.34394e-17)
(-2.92457e-08 -2.18686e-07 3.53357e-17)
(-1.09839e-07 -2.45422e-07 4.73173e-17)
(-1.86176e-07 -2.65132e-07 -9.73647e-17)
(-2.59835e-07 -2.82896e-07 -8.85127e-17)
(-3.28758e-07 -2.89367e-07 -5.54358e-17)