/*--------------------------------*- C++ -*----------------------------------*\
| =========                 |                                                 |
| \\      /  F ield         | OpenFOAM: The Open Source CFD Toolbox           |
|  \\    /   O peration     | Version:  2306                                  |
|   \\  /    A nd           | Website:  www.openfoam.com                      |
|    \\/     M anipulation  |                                                 |
\*---------------------------------------------------------------------------*/
FoamFile
{
    version     2.0;
    format      ascii;
    arch        "LSB;label=32;scalar=64";
    class       volScalarField;
    location    "650";
    object      turbulenceProperties:I;
}
// * * * * * * * * * * * * * * * * * * * * * * * * * * * * * * * * * * * * * //

dimensions      [0 0 0 0 0 0 0];

internalField   nonuniform List<scalar> 
1340
(
2.6594e-05
3.72821e-05
1.25945e-05
2.55141e-05
2.65513e-05
3.729e-05
1.32107e-05
1.67605e-05
1.24668e-05
2.55547e-05
2.65532e-05
3.72793e-05
1.79629e-05
1.68513e-05
1.63215e-05
1.35267e-05
1.695e-05
1.23899e-05
2.55986e-05
2.65858e-05
3.72589e-05
2.14905e-05
2.06843e-05
2.00014e-05
1.93444e-05
1.86357e-05
1.79429e-05
1.68874e-05
1.64113e-05
1.38573e-05
1.71299e-05
1.23577e-05
2.56439e-05
2.66383e-05
3.72341e-05
2.54824e-05
2.46652e-05
2.38229e-05
2.29735e-05
2.21104e-05
2.12679e-05
2.05103e-05
1.98707e-05
1.9252e-05
1.85826e-05
1.79269e-05
1.69327e-05
1.65115e-05
1.41966e-05
1.72963e-05
1.23664e-05
2.56859e-05
2.6702e-05
3.72063e-05
2.97546e-05
2.91042e-05
2.84416e-05
2.77709e-05
2.70929e-05
2.64047e-05
2.56987e-05
2.49673e-05
2.42079e-05
2.34247e-05
2.26351e-05
2.18294e-05
2.10412e-05
2.03345e-05
1.97389e-05
1.91594e-05
1.8531e-05
1.79133e-05
1.69858e-05
1.66201e-05
1.45406e-05
1.74466e-05
1.24124e-05
2.57236e-05
2.67701e-05
3.71717e-05
3.45198e-05
3.4124e-05
3.3712e-05
3.32843e-05
3.2842e-05
3.23855e-05
3.19154e-05
3.14321e-05
3.09355e-05
3.0424e-05
2.9896e-05
2.93497e-05
2.87851e-05
2.82036e-05
2.76083e-05
2.70025e-05
2.6387e-05
2.57591e-05
2.5112e-05
2.44395e-05
2.37399e-05
2.3018e-05
2.22897e-05
2.15432e-05
2.08116e-05
2.01575e-05
1.96064e-05
1.90667e-05
1.84807e-05
1.79019e-05
1.70462e-05
1.67359e-05
1.48861e-05
1.75783e-05
1.24926e-05
2.57553e-05
2.68326e-05
3.7135e-05
3.33109e-05
3.46731e-05
3.26026e-05
3.30538e-05
3.30647e-05
3.38032e-05
3.41935e-05
3.45754e-05
3.49053e-05
3.52142e-05
3.54961e-05
3.57503e-05
3.5971e-05
3.616e-05
3.63242e-05
3.64552e-05
3.65575e-05
3.66325e-05
3.66813e-05
3.6706e-05
3.67068e-05
3.66855e-05
3.66446e-05
3.65855e-05
3.65092e-05
3.64169e-05
3.63104e-05
3.61913e-05
3.60588e-05
3.59154e-05
3.57604e-05
3.55945e-05
3.54184e-05
3.52313e-05
3.50339e-05
3.48258e-05
3.46061e-05
3.43758e-05
3.41325e-05
3.38766e-05
3.36082e-05
3.33253e-05
3.30279e-05
3.2715e-05
3.23874e-05
3.20438e-05
3.16847e-05
3.13114e-05
3.09234e-05
3.0522e-05
3.01078e-05
2.968e-05
2.92373e-05
2.87784e-05
2.83011e-05
2.78053e-05
2.72917e-05
2.6763e-05
2.62218e-05
2.56688e-05
2.51015e-05
2.45142e-05
2.3902e-05
2.32639e-05
2.26047e-05
2.19392e-05
2.12532e-05
2.05801e-05
1.99798e-05
1.94732e-05
1.89738e-05
1.84311e-05
1.78923e-05
1.71133e-05
1.68581e-05
1.52308e-05
1.76901e-05
1.26029e-05
2.57764e-05
2.68857e-05
3.70985e-05
3.46086e-05
3.08065e-05
2.94458e-05
3.07653e-05
3.10523e-05
3.15489e-05
3.18474e-05
3.21744e-05
3.2464e-05
3.27365e-05
3.29832e-05
3.32039e-05
3.3398e-05
3.35659e-05
3.37105e-05
3.3827e-05
3.39196e-05
3.39906e-05
3.40385e-05
3.40655e-05
3.40735e-05
3.40631e-05
3.40361e-05
3.39944e-05
3.39383e-05
3.38694e-05
3.37899e-05
3.36988e-05
3.35978e-05
3.34879e-05
3.33687e-05
3.32412e-05
3.31049e-05
3.29605e-05
3.28076e-05
3.26456e-05
3.24746e-05
3.22942e-05
3.21031e-05
3.1901e-05
3.16872e-05
3.14613e-05
3.12215e-05
3.09675e-05
3.06998e-05
3.04167e-05
3.01194e-05
2.9808e-05
2.9483e-05
2.91453e-05
2.87955e-05
2.84327e-05
2.80557e-05
2.76632e-05
2.72527e-05
2.68236e-05
2.63761e-05
2.59124e-05
2.54347e-05
2.49433e-05
2.44366e-05
2.39095e-05
2.33584e-05
2.27828e-05
2.21875e-05
2.15856e-05
2.09608e-05
2.03476e-05
1.98018e-05
1.93392e-05
1.88804e-05
1.83819e-05
1.78843e-05
1.71866e-05
1.6986e-05
1.55718e-05
1.77813e-05
1.27347e-05
2.57926e-05
2.69222e-05
3.70688e-05
3.00803e-05
2.82419e-05
2.7724e-05
2.89823e-05
2.91227e-05
2.9491e-05
2.97508e-05
3.00272e-05
3.02761e-05
3.0507e-05
3.07126e-05
3.09011e-05
3.10656e-05
3.12081e-05
3.13299e-05
3.14304e-05
3.151e-05
3.15728e-05
3.16161e-05
3.16411e-05
3.1652e-05
3.1648e-05
3.16307e-05
3.15998e-05
3.15592e-05
3.15087e-05
3.14484e-05
3.13798e-05
3.13038e-05
3.12204e-05
3.11303e-05
3.10339e-05
3.09306e-05
3.08211e-05
3.07054e-05
3.05824e-05
3.04522e-05
3.03141e-05
3.01676e-05
3.00114e-05
2.98453e-05
2.96684e-05
2.94786e-05
2.9277e-05
2.90619e-05
2.88326e-05
2.85907e-05
2.83356e-05
2.80682e-05
2.77895e-05
2.74995e-05
2.7198e-05
2.68837e-05
2.65545e-05
2.62078e-05
2.5843e-05
2.54595e-05
2.50587e-05
2.46428e-05
2.42123e-05
2.37657e-05
2.32991e-05
2.28095e-05
2.22974e-05
2.17666e-05
2.12285e-05
2.06658e-05
2.0114e-05
1.96227e-05
1.92033e-05
1.87856e-05
1.8332e-05
1.78774e-05
1.72657e-05
1.71194e-05
1.59068e-05
1.78529e-05
1.28866e-05
2.57864e-05
2.69532e-05
3.70513e-05
2.77605e-05
2.66899e-05
2.62773e-05
2.72456e-05
2.7323e-05
2.76319e-05
2.78514e-05
2.80799e-05
2.82842e-05
2.8474e-05
2.86438e-05
2.87983e-05
2.89338e-05
2.90514e-05
2.9152e-05
2.92363e-05
2.93029e-05
2.93561e-05
2.93938e-05
2.94169e-05
2.9429e-05
2.94293e-05
2.94184e-05
2.93975e-05
2.93702e-05
2.9333e-05
2.92893e-05
2.92402e-05
2.91843e-05
2.91235e-05
2.90574e-05
2.89873e-05
2.89115e-05
2.88317e-05
2.87469e-05
2.86565e-05
2.85607e-05
2.84587e-05
2.83493e-05
2.82324e-05
2.81068e-05
2.79714e-05
2.78254e-05
2.76683e-05
2.74987e-05
2.73172e-05
2.71239e-05
2.69189e-05
2.67036e-05
2.64783e-05
2.62437e-05
2.59989e-05
2.57431e-05
2.54729e-05
2.51865e-05
2.48825e-05
2.45588e-05
2.4218e-05
2.38615e-05
2.34893e-05
2.31015e-05
2.26947e-05
2.22658e-05
2.18166e-05
2.13499e-05
2.08747e-05
2.03738e-05
1.98832e-05
1.94455e-05
1.90682e-05
1.86914e-05
1.82826e-05
1.78728e-05
1.73506e-05
1.72579e-05
1.62286e-05
1.79075e-05
1.30271e-05
2.57665e-05
2.69579e-05
3.70723e-05
2.60938e-05
2.51065e-05
2.46829e-05
2.54738e-05
2.55341e-05
2.57907e-05
2.59688e-05
2.6154e-05
2.63164e-05
2.64712e-05
2.66089e-05
2.67329e-05
2.68441e-05
2.69387e-05
2.70214e-05
2.70922e-05
2.71479e-05
2.7192e-05
2.72259e-05
2.72484e-05
2.72621e-05
2.72663e-05
2.72622e-05
2.7252e-05
2.72348e-05
2.72112e-05
2.71847e-05
2.71526e-05
2.71153e-05
2.70745e-05
2.70327e-05
2.6986e-05
2.69369e-05
2.68828e-05
2.68263e-05
2.67692e-05
2.67032e-05
2.66339e-05
2.65598e-05
2.64796e-05
2.63903e-05
2.62943e-05
2.61885e-05
2.60715e-05
2.59461e-05
2.58082e-05
2.56606e-05
2.55039e-05
2.53371e-05
2.51637e-05
2.49819e-05
2.47916e-05
2.45929e-05
2.43801e-05
2.41516e-05
2.39072e-05
2.36423e-05
2.33597e-05
2.30625e-05
2.27482e-05
2.24191e-05
2.20736e-05
2.17068e-05
2.13218e-05
2.09206e-05
2.05101e-05
2.00724e-05
1.96448e-05
1.92617e-05
1.89271e-05
1.85922e-05
1.82302e-05
1.78699e-05
1.74422e-05
1.74059e-05
1.65476e-05
1.79445e-05
1.32912e-05
2.56713e-05
2.70146e-05
3.70954e-05
2.4111e-05
2.31983e-05
2.27875e-05
2.34465e-05
2.34733e-05
2.3679e-05
2.38082e-05
2.39369e-05
2.40719e-05
2.41794e-05
2.42805e-05
2.43833e-05
2.44631e-05
2.45316e-05
2.46008e-05
2.46601e-05
2.46968e-05
2.47395e-05
2.47694e-05
2.47914e-05
2.48104e-05
2.48162e-05
2.48242e-05
2.48272e-05
2.4821e-05
2.48153e-05
2.48073e-05
2.47956e-05
2.47819e-05
2.47627e-05
2.47488e-05
2.47317e-05
2.47106e-05
2.46847e-05
2.46651e-05
2.46415e-05
2.46098e-05
2.45767e-05
2.45419e-05
2.45018e-05
2.44521e-05
2.44009e-05
2.43354e-05
2.42643e-05
2.41874e-05
2.40951e-05
2.39988e-05
2.38959e-05
2.37818e-05
2.36668e-05
2.35445e-05
2.34142e-05
2.32805e-05
2.31316e-05
2.29675e-05
2.27891e-05
2.25912e-05
2.23732e-05
2.21426e-05
2.1896e-05
2.16351e-05
2.13603e-05
2.10662e-05
2.07564e-05
2.04311e-05
2.00946e-05
1.97298e-05
1.93753e-05
1.90531e-05
1.87659e-05
1.84793e-05
1.8172e-05
1.78707e-05
1.75562e-05
1.75705e-05
1.69143e-05
1.78998e-05
1.37947e-05
2.54104e-05
2.68747e-05
3.64434e-05
2.18208e-05
2.11135e-05
2.078e-05
2.12701e-05
2.12737e-05
2.14224e-05
2.1497e-05
2.15842e-05
2.16797e-05
2.17445e-05
2.1817e-05
2.18906e-05
2.19412e-05
2.19882e-05
2.20452e-05
2.20875e-05
2.21125e-05
2.21541e-05
2.21751e-05
2.22018e-05
2.22259e-05
2.22319e-05
2.22522e-05
2.22704e-05
2.22742e-05
2.22866e-05
2.2294e-05
2.23027e-05
2.23141e-05
2.23187e-05
2.23271e-05
2.23394e-05
2.23444e-05
2.23493e-05
2.23638e-05
2.23683e-05
2.23721e-05
2.23751e-05
2.23768e-05
2.23724e-05
2.23643e-05
2.2351e-05
2.23272e-05
2.23038e-05
2.22683e-05
2.22257e-05
2.21818e-05
2.21317e-05
2.20755e-05
2.20202e-05
2.19621e-05
2.18969e-05
2.18302e-05
2.17501e-05
2.16558e-05
2.15467e-05
2.14194e-05
2.12735e-05
2.11159e-05
2.09448e-05
2.07615e-05
2.0566e-05
2.03547e-05
2.01293e-05
1.98878e-05
1.96334e-05
1.93511e-05
1.90769e-05
1.88205e-05
1.85856e-05
1.83533e-05
1.81091e-05
1.78807e-05
1.76933e-05
1.77621e-05
1.72954e-05
1.78265e-05
1.43231e-05
2.53811e-05
2.67449e-05
3.64004e-05
1.97035e-05
1.91271e-05
1.88266e-05
1.92081e-05
1.92005e-05
1.92874e-05
1.93393e-05
1.94109e-05
1.9448e-05
1.95029e-05
1.95605e-05
1.95994e-05
1.96358e-05
1.96751e-05
1.972e-05
1.97431e-05
1.97761e-05
1.98081e-05
1.98248e-05
1.98586e-05
1.98856e-05
1.98976e-05
1.99258e-05
1.99513e-05
1.99656e-05
1.99968e-05
2.00165e-05
2.00387e-05
2.00693e-05
2.00945e-05
2.01196e-05
2.01546e-05
2.01809e-05
2.02107e-05
2.02484e-05
2.02768e-05
2.03075e-05
2.03395e-05
2.03681e-05
2.03918e-05
2.04161e-05
2.04321e-05
2.04458e-05
2.04573e-05
2.04575e-05
2.0459e-05
2.04593e-05
2.04555e-05
2.0452e-05
2.04493e-05
2.04488e-05
2.04432e-05
2.04342e-05
2.04174e-05
2.03848e-05
2.03387e-05
2.02766e-05
2.01977e-05
2.01102e-05
2.00113e-05
1.99028e-05
1.97854e-05
1.96546e-05
1.95099e-05
1.93505e-05
1.91762e-05
1.89749e-05
1.87791e-05
1.85866e-05
1.84042e-05
1.82289e-05
1.80512e-05
1.7905e-05
1.78443e-05
1.79728e-05
1.76491e-05
1.779e-05
1.48293e-05
2.5479e-05
2.63753e-05
3.6377e-05
1.77839e-05
1.68213e-05
1.72525e-05
1.69293e-05
1.72947e-05
1.72489e-05
1.73065e-05
1.73546e-05
1.7399e-05
1.74212e-05
1.74611e-05
1.75055e-05
1.75363e-05
1.7562e-05
1.75993e-05
1.76383e-05
1.76549e-05
1.76941e-05
1.77237e-05
1.77479e-05
1.77864e-05
1.78124e-05
1.78437e-05
1.78758e-05
1.79095e-05
1.79427e-05
1.79827e-05
1.80193e-05
1.80554e-05
1.8103e-05
1.8146e-05
1.81877e-05
1.82427e-05
1.82873e-05
1.83387e-05
1.83966e-05
1.84442e-05
1.84987e-05
1.85534e-05
1.86029e-05
1.8653e-05
1.87008e-05
1.87444e-05
1.87875e-05
1.88256e-05
1.88621e-05
1.88987e-05
1.8936e-05
1.89746e-05
1.90156e-05
1.90585e-05
1.91057e-05
1.91497e-05
1.91891e-05
1.92235e-05
1.92416e-05
1.92482e-05
1.92416e-05
1.92203e-05
1.91937e-05
1.91594e-05
1.91173e-05
1.90694e-05
1.90099e-05
1.89373e-05
1.88512e-05
1.87493e-05
1.8622e-05
1.84972e-05
1.83629e-05
1.82308e-05
1.81125e-05
1.8003e-05
1.79447e-05
1.80053e-05
1.81901e-05
1.79628e-05
1.77823e-05
1.54262e-05
2.56393e-05
2.58996e-05
3.63456e-05
1.59929e-05
1.51029e-05
1.54723e-05
1.51561e-05
1.55033e-05
1.54441e-05
1.55004e-05
1.55208e-05
1.55593e-05
1.55876e-05
1.56062e-05
1.56448e-05
1.56735e-05
1.57056e-05
1.57364e-05
1.5768e-05
1.5795e-05
1.58354e-05
1.58714e-05
1.59022e-05
1.59402e-05
1.59756e-05
1.60249e-05
1.60607e-05
1.6107e-05
1.61534e-05
1.62013e-05
1.62585e-05
1.63068e-05
1.63678e-05
1.64257e-05
1.6488e-05
1.65563e-05
1.66188e-05
1.6689e-05
1.67631e-05
1.6832e-05
1.69029e-05
1.69785e-05
1.70491e-05
1.71206e-05
1.7192e-05
1.72589e-05
1.73284e-05
1.73955e-05
1.7464e-05
1.75336e-05
1.76051e-05
1.76829e-05
1.77638e-05
1.78461e-05
1.79336e-05
1.80193e-05
1.8099e-05
1.81755e-05
1.82365e-05
1.82872e-05
1.83284e-05
1.83584e-05
1.83854e-05
1.84076e-05
1.84246e-05
1.84369e-05
1.84402e-05
1.8431e-05
1.84091e-05
1.83719e-05
1.83112e-05
1.82496e-05
1.81684e-05
1.80846e-05
1.80221e-05
1.79808e-05
1.80128e-05
1.81852e-05
1.84159e-05
1.82471e-05
1.78254e-05
1.61959e-05
2.58621e-05
2.53361e-05
3.63249e-05
1.4283e-05
1.34793e-05
1.37814e-05
1.34894e-05
1.381e-05
1.37641e-05
1.38121e-05
1.38343e-05
1.38778e-05
1.38913e-05
1.39216e-05
1.39652e-05
1.39901e-05
1.40293e-05
1.4066e-05
1.40963e-05
1.41406e-05
1.41835e-05
1.42287e-05
1.42659e-05
1.4315e-05
1.43687e-05
1.44175e-05
1.44708e-05
1.45318e-05
1.45838e-05
1.46509e-05
1.47206e-05
1.47792e-05
1.48554e-05
1.49262e-05
1.50049e-05
1.50851e-05
1.51601e-05
1.52461e-05
1.53359e-05
1.54159e-05
1.55034e-05
1.55952e-05
1.56808e-05
1.57688e-05
1.58617e-05
1.5947e-05
1.60372e-05
1.61323e-05
1.62246e-05
1.63234e-05
1.64245e-05
1.65335e-05
1.66454e-05
1.67589e-05
1.6879e-05
1.69952e-05
1.71068e-05
1.72166e-05
1.73127e-05
1.74008e-05
1.74835e-05
1.7559e-05
1.76334e-05
1.77045e-05
1.77735e-05
1.78392e-05
1.78962e-05
1.7943e-05
1.79777e-05
1.79976e-05
1.7996e-05
1.79892e-05
1.79555e-05
1.79195e-05
1.79138e-05
1.7943e-05
1.80672e-05
1.8338e-05
1.85924e-05
1.84384e-05
1.78603e-05
1.70401e-05
2.61385e-05
2.4631e-05
3.63498e-05
1.30674e-05
1.2371e-05
1.26475e-05
1.23722e-05
1.26729e-05
1.26284e-05
1.26546e-05
1.26933e-05
1.27222e-05
1.27321e-05
1.27672e-05
1.28034e-05
1.28279e-05
1.28578e-05
1.28985e-05
1.29275e-05
1.29735e-05
1.3016e-05
1.30522e-05
1.30951e-05
1.31492e-05
1.32036e-05
1.32471e-05
1.33018e-05
1.33733e-05
1.34236e-05
1.34918e-05
1.35644e-05
1.36302e-05
1.37064e-05
1.37847e-05
1.38666e-05
1.39518e-05
1.40351e-05
1.41289e-05
1.42242e-05
1.43139e-05
1.44148e-05
1.4516e-05
1.46179e-05
1.47186e-05
1.48302e-05
1.49361e-05
1.50478e-05
1.51663e-05
1.52807e-05
1.54074e-05
1.55327e-05
1.56651e-05
1.5801e-05
1.59386e-05
1.60806e-05
1.62188e-05
1.63566e-05
1.64904e-05
1.66159e-05
1.67371e-05
1.68546e-05
1.69683e-05
1.70823e-05
1.71934e-05
1.73044e-05
1.74128e-05
1.75129e-05
1.76065e-05
1.76886e-05
1.77566e-05
1.78065e-05
1.7849e-05
1.78607e-05
1.78678e-05
1.79094e-05
1.79966e-05
1.81971e-05
1.85383e-05
1.87973e-05
1.86593e-05
1.80964e-05
1.82164e-05
2.65703e-05
2.39547e-05
3.65625e-05
1.17858e-05
1.11309e-05
1.13782e-05
1.11076e-05
1.14515e-05
1.14029e-05
1.14537e-05
1.14976e-05
1.15127e-05
1.1538e-05
1.15925e-05
1.16354e-05
1.16708e-05
1.17029e-05
1.1751e-05
1.18022e-05
1.18537e-05
1.18981e-05
1.19395e-05
1.20099e-05
1.20641e-05
1.21226e-05
1.21804e-05
1.22392e-05
1.23207e-05
1.23822e-05
1.24525e-05
1.25277e-05
1.26062e-05
1.26862e-05
1.27645e-05
1.28559e-05
1.2939e-05
1.30293e-05
1.3127e-05
1.32208e-05
1.33177e-05
1.34168e-05
1.35262e-05
1.36323e-05
1.37368e-05
1.38553e-05
1.39705e-05
1.409e-05
1.42141e-05
1.43417e-05
1.44743e-05
1.4608e-05
1.47469e-05
1.48881e-05
1.50339e-05
1.51798e-05
1.53277e-05
1.54766e-05
1.56223e-05
1.57659e-05
1.59092e-05
1.60516e-05
1.61923e-05
1.6336e-05
1.6478e-05
1.66219e-05
1.6764e-05
1.68998e-05
1.70314e-05
1.71515e-05
1.72582e-05
1.73476e-05
1.74199e-05
1.74599e-05
1.75115e-05
1.76125e-05
1.77786e-05
1.80764e-05
1.84792e-05
1.86861e-05
1.84636e-05
1.7936e-05
1.89326e-05
2.6815e-05
2.27795e-05
3.69374e-05
1.20905e-05
1.16549e-05
1.18219e-05
1.1634e-05
1.17976e-05
1.17626e-05
1.18019e-05
1.18225e-05
1.18169e-05
1.18331e-05
1.18677e-05
1.18959e-05
1.19137e-05
1.19256e-05
1.19572e-05
1.19905e-05
1.20187e-05
1.20457e-05
1.20695e-05
1.21202e-05
1.21556e-05
1.21883e-05
1.22306e-05
1.22747e-05
1.23301e-05
1.23782e-05
1.24337e-05
1.24897e-05
1.25553e-05
1.26232e-05
1.26897e-05
1.27721e-05
1.28476e-05
1.29363e-05
1.30294e-05
1.31256e-05
1.32271e-05
1.33326e-05
1.34522e-05
1.35666e-05
1.369e-05
1.38195e-05
1.39486e-05
1.40808e-05
1.42162e-05
1.43532e-05
1.44864e-05
1.46241e-05
1.47605e-05
1.48985e-05
1.50427e-05
1.51879e-05
1.53404e-05
1.54951e-05
1.56533e-05
1.58119e-05
1.59705e-05
1.6128e-05
1.62804e-05
1.64333e-05
1.65829e-05
1.67338e-05
1.68842e-05
1.7032e-05
1.71777e-05
1.73148e-05
1.74437e-05
1.75622e-05
1.76766e-05
1.77612e-05
1.78308e-05
1.79309e-05
1.80838e-05
1.83558e-05
1.87176e-05
1.88884e-05
1.87905e-05
1.87787e-05
2.08348e-05
2.75328e-05
2.31251e-05
3.86646e-05
1.0526e-05
1.05883e-05
1.05263e-05
1.06464e-05
1.07014e-05
1.07203e-05
1.07514e-05
1.0774e-05
1.08086e-05
1.08452e-05
1.08677e-05
1.09034e-05
1.09391e-05
1.09765e-05
1.10129e-05
1.1048e-05
1.10909e-05
1.11313e-05
1.11725e-05
1.12189e-05
1.12609e-05
1.13099e-05
1.13557e-05
1.14049e-05
1.1458e-05
1.15124e-05
1.15673e-05
1.16225e-05
1.16847e-05
1.17447e-05
1.18091e-05
1.18766e-05
1.19433e-05
1.20175e-05
1.20905e-05
1.21694e-05
1.22494e-05
1.23323e-05
1.24192e-05
1.25044e-05
1.25949e-05
1.26843e-05
1.27732e-05
1.28616e-05
1.29514e-05
1.30382e-05
1.31248e-05
1.32151e-05
1.33064e-05
1.34051e-05
1.35097e-05
1.36223e-05
1.3744e-05
1.38702e-05
1.40038e-05
1.41401e-05
1.42813e-05
1.4425e-05
1.45707e-05
1.47244e-05
1.48816e-05
1.50455e-05
1.52124e-05
1.538e-05
1.55463e-05
1.5703e-05
1.58499e-05
1.59803e-05
1.60554e-05
1.60878e-05
1.61952e-05
1.6414e-05
1.67493e-05
1.72468e-05
1.77039e-05
1.76627e-05
1.71546e-05
1.73361e-05
2.05747e-05
2.53731e-05
2.19777e-05
3.86571e-05
)
;

boundaryField
{
    inlet
    {
        type            calculated;
        value           nonuniform List<scalar> 
23
(
7.59913e-05
7.5784e-05
7.55823e-05
7.53855e-05
7.51897e-05
7.49906e-05
7.4783e-05
7.45626e-05
7.43239e-05
7.4062e-05
7.37698e-05
7.34487e-05
7.30803e-05
7.25162e-05
7.20434e-05
7.14664e-05
7.0744e-05
6.98565e-05
6.87762e-05
6.74868e-05
6.59152e-05
6.46669e-05
6.22236e-05
)
;
    }
    outlet
    {
        type            calculated;
        value           nonuniform List<scalar> 
82
(
9.39708e-06
9.38859e-06
9.49176e-06
9.54589e-06
9.61341e-06
9.63027e-06
9.66343e-06
9.68506e-06
9.72241e-06
9.7621e-06
9.78283e-06
9.82055e-06
9.85857e-06
9.898e-06
9.93614e-06
9.97217e-06
1.00182e-05
1.00608e-05
1.01039e-05
1.01539e-05
1.01974e-05
1.02497e-05
1.02977e-05
1.03494e-05
1.04061e-05
1.04635e-05
1.05213e-05
1.05785e-05
1.06443e-05
1.07063e-05
1.07729e-05
1.08426e-05
1.091e-05
1.09859e-05
1.10588e-05
1.11379e-05
1.12169e-05
1.12983e-05
1.13835e-05
1.14649e-05
1.15524e-05
1.16376e-05
1.17216e-05
1.18048e-05
1.189e-05
1.1972e-05
1.20542e-05
1.2142e-05
1.22315e-05
1.23302e-05
1.24355e-05
1.25491e-05
1.26718e-05
1.27974e-05
1.293e-05
1.30647e-05
1.32056e-05
1.33516e-05
1.35033e-05
1.36688e-05
1.38418e-05
1.40248e-05
1.42117e-05
1.43983e-05
1.45825e-05
1.47537e-05
1.49097e-05
1.50386e-05
1.50916e-05
1.51006e-05
1.52193e-05
1.54878e-05
1.59161e-05
1.65411e-05
1.70919e-05
1.70052e-05
1.62124e-05
1.60559e-05
1.94873e-05
2.48919e-05
1.98202e-05
3.68147e-05
)
;
    }
    walls
    {
        type            calculated;
        value           nonuniform List<scalar> 0();
    }
    frontAndBack
    {
        type            empty;
    }
    procBoundary3to2
    {
        type            processor;
        value           nonuniform List<scalar> 
88
(
2.6691e-05
3.72661e-05
1.27713e-05
2.54674e-05
2.54674e-05
1.2914e-05
1.65638e-05
1.65638e-05
1.79893e-05
1.68267e-05
1.62449e-05
1.62449e-05
2.17093e-05
2.08569e-05
2.0132e-05
1.94377e-05
1.86917e-05
1.86917e-05
2.59818e-05
2.51092e-05
2.42102e-05
2.33033e-05
2.23848e-05
2.23848e-05
3.07061e-05
2.9987e-05
2.92574e-05
2.85219e-05
2.77819e-05
2.70345e-05
2.6271e-05
2.6271e-05
3.63698e-05
3.58966e-05
3.54078e-05
3.49043e-05
3.43864e-05
3.38554e-05
3.33119e-05
3.27559e-05
3.21875e-05
3.16044e-05
3.10056e-05
3.03891e-05
3.03891e-05
3.06407e-05
3.6557e-05
3.74264e-05
3.56968e-05
3.62621e-05
3.68246e-05
3.72899e-05
3.76772e-05
3.80183e-05
3.83213e-05
3.86026e-05
3.88454e-05
3.90513e-05
3.92262e-05
3.93643e-05
3.94716e-05
3.95457e-05
3.9588e-05
3.96028e-05
3.95898e-05
3.95515e-05
3.94897e-05
3.94049e-05
3.93005e-05
3.91785e-05
3.90375e-05
3.8881e-05
3.87099e-05
3.85245e-05
3.83254e-05
3.81125e-05
3.7888e-05
3.76499e-05
3.73985e-05
3.71356e-05
3.68583e-05
3.65683e-05
3.62643e-05
3.59453e-05
3.56124e-05
3.52641e-05
3.48999e-05
3.48999e-05
)
;
    }
    procBoundary3to6
    {
        type            processor;
        value           uniform 8.18891e-06;
    }
    procBoundary3to7
    {
        type            processor;
        value           nonuniform List<scalar> 
16
(
2.84992e-06
2.826e-05
2.87227e-05
2.53505e-05
2.37043e-05
2.22281e-05
2.04222e-05
1.86026e-05
1.86026e-05
1.67386e-05
1.50435e-05
1.34182e-05
1.23076e-05
1.11158e-05
1.15438e-05
1.06706e-05
)
;
    }
}


// ************************************************************************* //
