/*--------------------------------*- C++ -*----------------------------------*\
| =========                 |                                                 |
| \\      /  F ield         | OpenFOAM: The Open Source CFD Toolbox           |
|  \\    /   O peration     | Version:  2306                                  |
|   \\  /    A nd           | Website:  www.openfoam.com                      |
|    \\/     M anipulation  |                                                 |
\*---------------------------------------------------------------------------*/
FoamFile
{
    version     2.0;
    format      ascii;
    arch        "LSB;label=32;scalar=64";
    class       volScalarField;
    location    "650";
    object      turbulenceProperties:k;
}
// * * * * * * * * * * * * * * * * * * * * * * * * * * * * * * * * * * * * * //

dimensions      [0 2 -2 0 0 0 0];

internalField   nonuniform List<scalar> 
1340
(
7.04821e-07
1.38621e-06
1.57324e-07
6.44776e-07
7.0267e-07
1.38827e-06
1.73419e-07
2.78868e-07
1.54185e-07
6.47211e-07
7.02942e-07
1.38896e-06
3.20721e-07
2.82342e-07
2.64894e-07
1.81893e-07
2.85324e-07
1.52332e-07
6.49836e-07
7.04896e-07
1.38891e-06
4.58541e-07
4.24978e-07
3.97519e-07
3.71961e-07
3.45324e-07
3.20228e-07
2.8373e-07
2.67967e-07
1.90982e-07
2.91539e-07
1.51591e-07
6.52561e-07
7.07972e-07
1.38855e-06
6.43485e-07
6.03277e-07
5.63135e-07
5.2401e-07
4.85644e-07
4.49566e-07
4.18269e-07
3.92699e-07
3.68732e-07
3.43631e-07
3.19889e-07
2.85445e-07
2.71411e-07
2.0055e-07
2.97367e-07
1.51862e-07
6.55151e-07
7.11713e-07
1.38797e-06
8.75747e-07
8.3821e-07
8.00827e-07
7.6385e-07
7.27366e-07
6.91248e-07
6.55137e-07
6.18724e-07
5.81984e-07
5.45228e-07
5.0934e-07
4.73942e-07
4.40517e-07
4.1155e-07
3.87882e-07
3.65525e-07
3.42015e-07
3.19655e-07
2.87445e-07
2.7517e-07
2.10501e-07
3.0271e-07
1.53061e-07
6.57557e-07
7.15757e-07
1.38692e-06
1.18055e-06
1.15348e-06
1.12568e-06
1.09722e-06
1.06822e-06
1.03872e-06
1.00882e-06
9.78584e-07
9.48027e-07
9.17085e-07
8.85709e-07
8.5384e-07
8.21533e-07
7.88908e-07
7.56204e-07
7.23645e-07
6.91301e-07
6.59071e-07
6.26651e-07
5.93812e-07
5.60559e-07
5.27209e-07
4.94576e-07
4.62168e-07
4.3145e-07
4.0485e-07
3.83079e-07
3.62342e-07
3.40463e-07
3.19516e-07
2.89714e-07
2.7921e-07
2.20753e-07
3.07462e-07
1.55124e-07
6.59689e-07
7.19578e-07
1.38572e-06
1.11039e-06
1.20307e-06
1.06369e-06
1.09334e-06
1.09406e-06
1.14345e-06
1.16998e-06
1.19622e-06
1.2191e-06
1.2407e-06
1.26055e-06
1.27857e-06
1.29428e-06
1.30778e-06
1.31953e-06
1.32888e-06
1.33617e-06
1.34145e-06
1.3448e-06
1.34637e-06
1.34618e-06
1.34434e-06
1.34107e-06
1.33646e-06
1.33059e-06
1.32356e-06
1.31552e-06
1.30658e-06
1.29671e-06
1.28609e-06
1.27468e-06
1.26256e-06
1.24976e-06
1.23627e-06
1.22214e-06
1.20735e-06
1.19187e-06
1.17576e-06
1.1589e-06
1.14132e-06
1.12305e-06
1.10399e-06
1.08416e-06
1.06353e-06
1.04216e-06
1.02003e-06
9.97183e-07
9.73739e-07
9.49711e-07
9.25199e-07
9.00276e-07
8.74925e-07
8.491e-07
8.22759e-07
7.95821e-07
7.68324e-07
7.40359e-07
7.12119e-07
6.83794e-07
6.5545e-07
6.27009e-07
5.98221e-07
5.68921e-07
5.39143e-07
5.09196e-07
4.79802e-07
4.50384e-07
4.22406e-07
3.98188e-07
3.78293e-07
3.59177e-07
3.38959e-07
3.19455e-07
2.92239e-07
2.83511e-07
2.31242e-07
3.11567e-07
1.57964e-07
6.61317e-07
7.2297e-07
1.38456e-06
1.20139e-06
9.51916e-07
8.6969e-07
9.49375e-07
9.6716e-07
9.98319e-07
1.01727e-06
1.03823e-06
1.05696e-06
1.07471e-06
1.0909e-06
1.10546e-06
1.11832e-06
1.12948e-06
1.13912e-06
1.14687e-06
1.15301e-06
1.15768e-06
1.16077e-06
1.16243e-06
1.16278e-06
1.16187e-06
1.15982e-06
1.15675e-06
1.15271e-06
1.1478e-06
1.14217e-06
1.13576e-06
1.12872e-06
1.12109e-06
1.11286e-06
1.10411e-06
1.09481e-06
1.08502e-06
1.07471e-06
1.06386e-06
1.0525e-06
1.04058e-06
1.02806e-06
1.01492e-06
1.00114e-06
9.86703e-07
9.7152e-07
9.55593e-07
9.38981e-07
9.21593e-07
9.0354e-07
8.84854e-07
8.65585e-07
8.45824e-07
8.25619e-07
8.04951e-07
7.83777e-07
7.62051e-07
7.39666e-07
7.16639e-07
6.9302e-07
6.68974e-07
6.44656e-07
6.20124e-07
5.95329e-07
5.70078e-07
5.44249e-07
5.17894e-07
4.91304e-07
4.65111e-07
4.38655e-07
4.13428e-07
3.91579e-07
3.73519e-07
3.56021e-07
3.37483e-07
3.19467e-07
2.95e-07
2.88052e-07
2.41878e-07
3.14986e-07
1.61385e-07
6.62731e-07
7.25536e-07
1.38396e-06
9.09423e-07
8.01651e-07
7.72518e-07
8.44223e-07
8.52404e-07
8.74083e-07
8.89522e-07
9.06091e-07
9.21131e-07
9.35182e-07
9.47773e-07
9.59373e-07
9.69541e-07
9.7837e-07
9.85922e-07
9.92153e-07
9.97075e-07
1.00093e-06
1.00355e-06
1.00499e-06
1.00554e-06
1.00513e-06
1.00387e-06
1.00174e-06
9.98995e-07
9.95618e-07
9.91621e-07
9.87111e-07
9.82134e-07
9.76713e-07
9.70877e-07
9.64669e-07
9.58051e-07
9.51071e-07
9.43729e-07
9.35977e-07
9.27815e-07
9.19215e-07
9.1015e-07
9.0055e-07
8.90416e-07
8.79705e-07
8.68314e-07
8.56307e-07
8.43618e-07
8.30218e-07
8.16222e-07
8.01611e-07
7.86467e-07
7.70859e-07
7.54814e-07
7.38326e-07
7.21354e-07
7.03809e-07
6.85576e-07
6.66658e-07
6.47066e-07
6.26912e-07
6.06345e-07
5.85429e-07
5.64128e-07
5.42295e-07
5.19843e-07
4.96854e-07
4.7356e-07
4.50494e-07
4.26973e-07
4.04504e-07
3.84991e-07
3.6871e-07
3.52844e-07
3.36004e-07
3.19532e-07
2.97994e-07
2.92832e-07
2.52581e-07
3.17742e-07
1.65372e-07
6.6304e-07
7.27862e-07
1.38433e-06
7.75941e-07
7.17236e-07
6.95221e-07
7.47393e-07
7.51628e-07
7.68696e-07
7.80932e-07
7.93771e-07
8.05328e-07
8.16129e-07
8.25844e-07
8.34722e-07
8.4254e-07
8.4933e-07
8.55152e-07
8.60023e-07
8.63861e-07
8.6691e-07
8.69037e-07
8.70304e-07
8.70907e-07
8.7081e-07
8.70041e-07
8.6868e-07
8.66932e-07
8.64603e-07
8.61885e-07
8.58853e-07
8.55422e-07
8.51711e-07
8.47693e-07
8.43449e-07
8.38878e-07
8.34091e-07
8.29027e-07
8.23656e-07
8.17994e-07
8.11994e-07
8.05602e-07
7.98808e-07
7.91553e-07
7.83789e-07
7.75476e-07
7.66599e-07
7.57093e-07
7.47004e-07
7.36357e-07
7.25166e-07
7.13524e-07
7.01466e-07
6.89031e-07
6.76197e-07
6.6293e-07
6.49072e-07
6.34554e-07
6.19332e-07
6.03335e-07
5.86732e-07
5.69618e-07
5.52032e-07
5.3401e-07
5.15428e-07
4.96192e-07
4.76426e-07
4.56299e-07
4.36236e-07
4.15566e-07
3.95788e-07
3.78541e-07
3.63971e-07
3.4971e-07
3.34559e-07
3.19696e-07
3.01217e-07
2.97847e-07
2.63107e-07
3.19921e-07
1.69125e-07
6.62695e-07
7.28822e-07
1.38767e-06
6.86644e-07
6.35657e-07
6.1438e-07
6.54367e-07
6.57457e-07
6.70721e-07
6.79992e-07
6.89702e-07
6.98262e-07
7.0647e-07
7.13799e-07
7.20427e-07
7.26388e-07
7.31466e-07
7.35909e-07
7.39711e-07
7.42692e-07
7.45041e-07
7.46827e-07
7.47984e-07
7.48654e-07
7.48799e-07
7.48485e-07
7.47828e-07
7.4679e-07
7.45391e-07
7.43838e-07
7.41974e-07
7.39823e-07
7.37484e-07
7.35094e-07
7.32435e-07
7.2965e-07
7.26597e-07
7.23421e-07
7.20216e-07
7.16538e-07
7.12695e-07
7.08604e-07
7.04199e-07
6.9933e-07
6.94125e-07
6.88424e-07
6.82166e-07
6.75503e-07
6.68231e-07
6.60509e-07
6.52373e-07
6.43787e-07
6.34937e-07
6.25739e-07
6.16193e-07
6.06315e-07
5.95839e-07
5.84699e-07
5.72906e-07
5.60269e-07
5.46949e-07
5.33127e-07
5.18714e-07
5.0384e-07
4.88456e-07
4.72388e-07
4.55796e-07
4.38812e-07
4.21756e-07
4.03928e-07
3.86871e-07
3.71892e-07
3.59049e-07
3.46417e-07
3.33019e-07
3.19936e-07
3.04711e-07
3.03256e-07
2.73775e-07
3.21495e-07
1.76196e-07
6.58561e-07
7.32615e-07
1.3914e-06
5.87299e-07
5.43664e-07
5.24571e-07
5.5534e-07
5.56599e-07
5.66384e-07
5.72565e-07
5.78751e-07
5.85274e-07
5.90493e-07
5.95415e-07
6.00435e-07
6.04341e-07
6.07697e-07
6.11091e-07
6.13999e-07
6.15787e-07
6.17872e-07
6.19319e-07
6.20368e-07
6.2126e-07
6.21496e-07
6.21836e-07
6.21925e-07
6.21547e-07
6.21191e-07
6.20721e-07
6.2006e-07
6.19299e-07
6.18263e-07
6.17489e-07
6.16553e-07
6.15414e-07
6.14036e-07
6.12974e-07
6.11708e-07
6.10044e-07
6.08309e-07
6.06492e-07
6.04411e-07
6.01866e-07
5.99248e-07
5.95938e-07
5.92367e-07
5.88527e-07
5.83956e-07
5.7921e-07
5.74176e-07
5.68635e-07
5.63088e-07
5.57223e-07
5.51023e-07
5.44701e-07
5.37715e-07
5.30071e-07
5.21831e-07
5.12776e-07
5.029e-07
4.92568e-07
4.81645e-07
4.70231e-07
4.58359e-07
4.45816e-07
4.32784e-07
4.19297e-07
4.05558e-07
3.9092e-07
3.76938e-07
3.64443e-07
3.53485e-07
3.42712e-07
3.3135e-07
3.20381e-07
3.09082e-07
3.09356e-07
2.86323e-07
3.20195e-07
1.89986e-07
6.46085e-07
7.25918e-07
1.3448e-06
4.81917e-07
4.51177e-07
4.37026e-07
4.57876e-07
4.58022e-07
4.6444e-07
4.67669e-07
4.71455e-07
4.75623e-07
4.78455e-07
4.81635e-07
4.84873e-07
4.87095e-07
4.89164e-07
4.9168e-07
4.93543e-07
4.94636e-07
4.9647e-07
4.97385e-07
4.9855e-07
4.99602e-07
4.99834e-07
5.00713e-07
5.01496e-07
5.01625e-07
5.02144e-07
5.02435e-07
5.02781e-07
5.0325e-07
5.03408e-07
5.03737e-07
5.04241e-07
5.04412e-07
5.04577e-07
5.05171e-07
5.05316e-07
5.05425e-07
5.05498e-07
5.05511e-07
5.05242e-07
5.04808e-07
5.04141e-07
5.03e-07
5.01875e-07
5.00214e-07
4.98233e-07
4.96204e-07
4.93902e-07
4.91343e-07
4.88831e-07
4.86201e-07
4.83271e-07
4.80281e-07
4.76714e-07
4.72541e-07
4.67745e-07
4.62189e-07
4.55869e-07
4.49101e-07
4.41815e-07
4.34085e-07
4.25917e-07
4.17171e-07
4.07933e-07
3.98145e-07
3.87955e-07
3.76796e-07
3.66102e-07
3.5624e-07
3.47326e-07
3.38623e-07
3.2959e-07
3.21227e-07
3.1437e-07
3.16544e-07
2.99715e-07
3.17928e-07
2.05075e-07
6.4552e-07
7.20084e-07
1.34306e-06
3.93557e-07
3.70864e-07
3.59296e-07
3.74002e-07
3.73699e-07
3.77083e-07
3.79108e-07
3.81914e-07
3.83364e-07
3.85522e-07
3.87796e-07
3.89326e-07
3.90762e-07
3.92318e-07
3.94096e-07
3.95004e-07
3.96311e-07
3.97579e-07
3.98235e-07
3.99573e-07
4.00642e-07
4.01106e-07
4.02226e-07
4.03233e-07
4.03789e-07
4.05025e-07
4.05799e-07
4.06674e-07
4.07891e-07
4.08886e-07
4.0988e-07
4.11273e-07
4.12317e-07
4.13499e-07
4.15008e-07
4.16136e-07
4.17358e-07
4.18635e-07
4.19768e-07
4.20703e-07
4.21662e-07
4.22276e-07
4.22797e-07
4.23228e-07
4.23188e-07
4.23204e-07
4.23172e-07
4.2297e-07
4.22786e-07
4.22631e-07
4.22571e-07
4.22298e-07
4.2188e-07
4.21142e-07
4.19753e-07
4.17806e-07
4.15209e-07
4.11933e-07
4.08324e-07
4.04273e-07
3.99853e-07
3.951e-07
3.89835e-07
3.84047e-07
3.77713e-07
3.70847e-07
3.62998e-07
3.55431e-07
3.48073e-07
3.41185e-07
3.34623e-07
3.2803e-07
3.22608e-07
3.20228e-07
3.24532e-07
3.12484e-07
3.17006e-07
2.20127e-07
6.51501e-07
7.0157e-07
1.34267e-06
3.21068e-07
2.87258e-07
3.02163e-07
2.90948e-07
3.03638e-07
3.02029e-07
3.04044e-07
3.05734e-07
3.07297e-07
3.08076e-07
3.09485e-07
3.11055e-07
3.12146e-07
3.13055e-07
3.1438e-07
3.15768e-07
3.16353e-07
3.1775e-07
3.18809e-07
3.19668e-07
3.21047e-07
3.21979e-07
3.231e-07
3.24252e-07
3.25465e-07
3.2666e-07
3.28105e-07
3.29429e-07
3.30735e-07
3.32465e-07
3.34029e-07
3.35552e-07
3.37565e-07
3.39198e-07
3.41087e-07
3.43226e-07
3.4498e-07
3.46998e-07
3.49031e-07
3.5087e-07
3.52734e-07
3.54516e-07
3.56142e-07
3.57755e-07
3.59176e-07
3.6054e-07
3.61912e-07
3.63312e-07
3.64767e-07
3.66314e-07
3.67941e-07
3.69732e-07
3.71404e-07
3.729e-07
3.74196e-07
3.7486e-07
3.7507e-07
3.74766e-07
3.7389e-07
3.72806e-07
3.71423e-07
3.69742e-07
3.6783e-07
3.65468e-07
3.626e-07
3.59218e-07
3.55236e-07
3.50306e-07
3.45495e-07
3.40376e-07
3.35392e-07
3.30949e-07
3.26838e-07
3.24571e-07
3.26534e-07
3.32894e-07
3.24114e-07
3.17144e-07
2.38564e-07
6.60837e-07
6.77789e-07
1.34187e-06
2.59996e-07
2.31865e-07
2.43342e-07
2.33497e-07
2.44314e-07
2.42451e-07
2.44221e-07
2.44861e-07
2.46077e-07
2.46972e-07
2.47559e-07
2.48783e-07
2.49694e-07
2.50714e-07
2.51696e-07
2.52704e-07
2.53568e-07
2.54861e-07
2.56019e-07
2.57009e-07
2.58236e-07
2.59379e-07
2.60979e-07
2.62141e-07
2.6365e-07
2.65166e-07
2.66732e-07
2.68614e-07
2.70205e-07
2.72224e-07
2.74146e-07
2.76219e-07
2.78505e-07
2.806e-07
2.82967e-07
2.85474e-07
2.87815e-07
2.90231e-07
2.92822e-07
2.95246e-07
2.97713e-07
3.00186e-07
3.02512e-07
3.04935e-07
3.07283e-07
3.09694e-07
3.12147e-07
3.14683e-07
3.1745e-07
3.20346e-07
3.23301e-07
3.26458e-07
3.29561e-07
3.32452e-07
3.35238e-07
3.37455e-07
3.39292e-07
3.40781e-07
3.41856e-07
3.42816e-07
3.43594e-07
3.44176e-07
3.44572e-07
3.44617e-07
3.44186e-07
3.43266e-07
3.41763e-07
3.39376e-07
3.36955e-07
3.3383e-07
3.30648e-07
3.28246e-07
3.26611e-07
3.27595e-07
3.33626e-07
3.41714e-07
3.34923e-07
3.19141e-07
2.63409e-07
6.73644e-07
6.49964e-07
1.34204e-06
2.07635e-07
1.84926e-07
1.93307e-07
1.85202e-07
1.94111e-07
1.92822e-07
1.94168e-07
1.94793e-07
1.9602e-07
1.96402e-07
1.97258e-07
1.98496e-07
1.99203e-07
2.00321e-07
2.0137e-07
2.02238e-07
2.03509e-07
2.04747e-07
2.06051e-07
2.07128e-07
2.08557e-07
2.10125e-07
2.11551e-07
2.13117e-07
2.14918e-07
2.16456e-07
2.1845e-07
2.20533e-07
2.2229e-07
2.24586e-07
2.2673e-07
2.29124e-07
2.31576e-07
2.3388e-07
2.36538e-07
2.39327e-07
2.41827e-07
2.44576e-07
2.47474e-07
2.50193e-07
2.53003e-07
2.55984e-07
2.58738e-07
2.61666e-07
2.64771e-07
2.67801e-07
2.71067e-07
2.74424e-07
2.78071e-07
2.81838e-07
2.85683e-07
2.8978e-07
2.93766e-07
2.97617e-07
3.01423e-07
3.04769e-07
3.07847e-07
3.10746e-07
3.13398e-07
3.16018e-07
3.18526e-07
3.20961e-07
3.23271e-07
3.25263e-07
3.26876e-07
3.28035e-07
3.2864e-07
3.28447e-07
3.28047e-07
3.26684e-07
3.25261e-07
3.24926e-07
3.25838e-07
3.30163e-07
3.39825e-07
3.48845e-07
3.42507e-07
3.20911e-07
2.92137e-07
6.89599e-07
6.15711e-07
1.34588e-06
1.73994e-07
1.55944e-07
1.62993e-07
1.55975e-07
1.6365e-07
1.62503e-07
1.63178e-07
1.64178e-07
1.64926e-07
1.65184e-07
1.66096e-07
1.67041e-07
1.67681e-07
1.68465e-07
1.69535e-07
1.70299e-07
1.71514e-07
1.72641e-07
1.73602e-07
1.74747e-07
1.76195e-07
1.77656e-07
1.7883e-07
1.80312e-07
1.82256e-07
1.83631e-07
1.85503e-07
1.87507e-07
1.89331e-07
1.91454e-07
1.93649e-07
1.95958e-07
1.98374e-07
2.00751e-07
2.03442e-07
2.06197e-07
2.08806e-07
2.11759e-07
2.14745e-07
2.17769e-07
2.20781e-07
2.24141e-07
2.27352e-07
2.30766e-07
2.34415e-07
2.37964e-07
2.41925e-07
2.45877e-07
2.50086e-07
2.5444e-07
2.58888e-07
2.63512e-07
2.6805e-07
2.72612e-07
2.77074e-07
2.81285e-07
2.85379e-07
2.89374e-07
2.93259e-07
2.97178e-07
3.01016e-07
3.04864e-07
3.08635e-07
3.12115e-07
3.15368e-07
3.1821e-07
3.20537e-07
3.22202e-07
3.23588e-07
3.23875e-07
3.24013e-07
3.25391e-07
3.28409e-07
3.3554e-07
3.47891e-07
3.57164e-07
3.51332e-07
3.30033e-07
3.34563e-07
7.14263e-07
5.83834e-07
1.364e-06
1.41733e-07
1.26417e-07
1.321e-07
1.2589e-07
1.33809e-07
1.32676e-07
1.33863e-07
1.34891e-07
1.35245e-07
1.35843e-07
1.3713e-07
1.38148e-07
1.38992e-07
1.3976e-07
1.40912e-07
1.42144e-07
1.43388e-07
1.44466e-07
1.45475e-07
1.47197e-07
1.48531e-07
1.49977e-07
1.51413e-07
1.52881e-07
1.54927e-07
1.56479e-07
1.58263e-07
1.60184e-07
1.622e-07
1.64269e-07
1.66306e-07
1.68699e-07
1.7089e-07
1.73285e-07
1.75897e-07
1.78423e-07
1.81051e-07
1.83761e-07
1.86773e-07
1.89717e-07
1.92643e-07
1.95985e-07
1.9926e-07
2.02688e-07
2.06279e-07
2.10004e-07
2.13912e-07
2.17887e-07
2.22052e-07
2.26329e-07
2.30784e-07
2.35284e-07
2.39887e-07
2.44561e-07
2.49179e-07
2.53767e-07
2.58386e-07
2.63012e-07
2.6762e-07
2.72364e-07
2.77085e-07
2.81899e-07
2.86683e-07
2.91276e-07
2.95743e-07
2.99824e-07
3.03449e-07
3.06465e-07
3.08878e-07
3.10165e-07
3.11884e-07
3.15357e-07
3.21165e-07
3.31769e-07
3.46339e-07
3.53603e-07
3.44655e-07
3.249e-07
3.62313e-07
7.29578e-07
5.29579e-07
1.39573e-06
1.49283e-07
1.38719e-07
1.42725e-07
1.38225e-07
1.42142e-07
1.41303e-07
1.42249e-07
1.42749e-07
1.42615e-07
1.43008e-07
1.43847e-07
1.44535e-07
1.4497e-07
1.45261e-07
1.46035e-07
1.46853e-07
1.47546e-07
1.48214e-07
1.48803e-07
1.50059e-07
1.50941e-07
1.51756e-07
1.52816e-07
1.53923e-07
1.5532e-07
1.56538e-07
1.5795e-07
1.59381e-07
1.61064e-07
1.62818e-07
1.64542e-07
1.66691e-07
1.68674e-07
1.71017e-07
1.73492e-07
1.7607e-07
1.78811e-07
1.81683e-07
1.84964e-07
1.88132e-07
1.91578e-07
1.95227e-07
1.98903e-07
2.02701e-07
2.06625e-07
2.1064e-07
2.14577e-07
2.18686e-07
2.22795e-07
2.26989e-07
2.31408e-07
2.35901e-07
2.40666e-07
2.45542e-07
2.50576e-07
2.55674e-07
2.6082e-07
2.65975e-07
2.7101e-07
2.761e-07
2.81117e-07
2.86216e-07
2.9133e-07
2.96381e-07
3.01385e-07
3.06113e-07
3.10568e-07
3.14661e-07
3.18623e-07
3.21546e-07
3.23949e-07
3.27457e-07
3.32885e-07
3.42705e-07
3.55935e-07
3.61895e-07
3.57564e-07
3.56816e-07
4.39762e-07
7.71146e-07
5.47184e-07
1.53349e-06
1.1335e-07
1.14694e-07
1.13357e-07
1.1596e-07
1.17165e-07
1.17579e-07
1.18267e-07
1.18765e-07
1.19532e-07
1.20345e-07
1.20847e-07
1.21644e-07
1.22447e-07
1.23288e-07
1.24109e-07
1.24905e-07
1.25881e-07
1.26803e-07
1.27748e-07
1.28815e-07
1.29784e-07
1.30922e-07
1.31989e-07
1.33139e-07
1.34389e-07
1.35672e-07
1.36974e-07
1.38291e-07
1.39783e-07
1.41228e-07
1.42789e-07
1.44432e-07
1.46067e-07
1.47895e-07
1.49706e-07
1.51675e-07
1.53684e-07
1.55783e-07
1.57997e-07
1.60182e-07
1.62521e-07
1.64848e-07
1.6718e-07
1.69514e-07
1.71903e-07
1.74227e-07
1.76563e-07
1.79013e-07
1.8151e-07
1.84223e-07
1.87118e-07
1.90258e-07
1.93679e-07
1.97255e-07
2.01075e-07
2.05009e-07
2.09121e-07
2.13346e-07
2.1767e-07
2.22272e-07
2.2702e-07
2.32015e-07
2.37147e-07
2.42342e-07
2.47541e-07
2.52472e-07
2.57117e-07
2.61253e-07
2.63592e-07
2.64549e-07
2.67994e-07
2.75154e-07
2.86333e-07
3.03324e-07
3.19208e-07
3.17224e-07
2.98811e-07
3.0507e-07
4.30611e-07
6.58004e-07
4.96183e-07
1.54491e-06
)
;

boundaryField
{
    inlet
    {
        type            calculated;
        value           nonuniform List<scalar> 
23
(
5.81313e-06
5.78412e-06
5.75603e-06
5.72876e-06
5.7017e-06
5.67422e-06
5.64552e-06
5.61501e-06
5.58188e-06
5.54543e-06
5.50468e-06
5.45992e-06
5.40869e-06
5.32876e-06
5.26197e-06
5.1803e-06
5.07864e-06
4.95479e-06
4.80586e-06
4.63085e-06
4.42273e-06
4.2619e-06
3.95945e-06
)
;
    }
    outlet
    {
        type            calculated;
        value           nonuniform List<scalar> 
82
(
9.03376e-08
9.01757e-08
9.21659e-08
9.3224e-08
9.45489e-08
9.48824e-08
9.55387e-08
9.59684e-08
9.67119e-08
9.75051e-08
9.79216e-08
9.86803e-08
9.94481e-08
1.00248e-07
1.01024e-07
1.01761e-07
1.02706e-07
1.03583e-07
1.04475e-07
1.05515e-07
1.06425e-07
1.07523e-07
1.08537e-07
1.09634e-07
1.10842e-07
1.12072e-07
1.13319e-07
1.1456e-07
1.15995e-07
1.17355e-07
1.18825e-07
1.20375e-07
1.21881e-07
1.2359e-07
1.25243e-07
1.27047e-07
1.28866e-07
1.3075e-07
1.32738e-07
1.34652e-07
1.36726e-07
1.38759e-07
1.40781e-07
1.42796e-07
1.44877e-07
1.46892e-07
1.48929e-07
1.51116e-07
1.53363e-07
1.55857e-07
1.58537e-07
1.61454e-07
1.64633e-07
1.67917e-07
1.71416e-07
1.75006e-07
1.78798e-07
1.82769e-07
1.86941e-07
1.91537e-07
1.96397e-07
2.01594e-07
2.06964e-07
2.12386e-07
2.17792e-07
2.22863e-07
2.2751e-07
2.31362e-07
2.32889e-07
2.33072e-07
2.36661e-07
2.44973e-07
2.58548e-07
2.79001e-07
2.97513e-07
2.94041e-07
2.66887e-07
2.61677e-07
3.86291e-07
6.33264e-07
4.03523e-07
1.40106e-06
)
;
    }
    walls
    {
        type            calculated;
        value           nonuniform List<scalar> 0();
    }
    frontAndBack
    {
        type            empty;
    }
    procBoundary3to2
    {
        type            processor;
        value           nonuniform List<scalar> 
88
(
7.09898e-07
1.3836e-06
1.61743e-07
6.42062e-07
6.42062e-07
1.65654e-07
2.72258e-07
2.72258e-07
3.21456e-07
2.81353e-07
2.6228e-07
2.6228e-07
4.67458e-07
4.31702e-07
4.02382e-07
3.75257e-07
3.47142e-07
3.47142e-07
6.6791e-07
6.2428e-07
5.8081e-07
5.38494e-07
4.97203e-07
4.97203e-07
9.30439e-07
8.8782e-07
8.456e-07
8.04079e-07
7.63361e-07
7.23297e-07
6.83469e-07
6.83469e-07
1.30623e-06
1.27236e-06
1.23788e-06
1.20291e-06
1.16751e-06
1.13181e-06
1.09588e-06
1.05977e-06
1.02352e-06
9.8703e-07
9.50263e-07
9.13151e-07
9.13151e-07
9.36978e-07
1.33378e-06
1.39799e-06
1.27177e-06
1.31236e-06
1.35337e-06
1.38775e-06
1.41665e-06
1.44234e-06
1.46532e-06
1.48678e-06
1.50538e-06
1.52121e-06
1.53467e-06
1.54527e-06
1.55346e-06
1.55903e-06
1.56208e-06
1.56294e-06
1.56159e-06
1.55822e-06
1.55299e-06
1.54596e-06
1.5374e-06
1.52747e-06
1.5161e-06
1.50356e-06
1.48995e-06
1.47531e-06
1.45969e-06
1.44312e-06
1.42577e-06
1.40751e-06
1.38841e-06
1.36859e-06
1.34788e-06
1.32641e-06
1.30414e-06
1.28101e-06
1.25712e-06
1.23241e-06
1.20687e-06
1.20687e-06
)
;
    }
    procBoundary3to6
    {
        type            processor;
        value           uniform 6.69224e-08;
    }
    procBoundary3to7
    {
        type            processor;
        value           nonuniform List<scalar> 
16
(
8.12765e-09
8.01065e-07
8.29205e-07
6.47075e-07
5.66662e-07
4.99163e-07
4.22129e-07
3.50816e-07
3.50816e-07
2.84442e-07
2.30048e-07
1.83254e-07
1.54348e-07
1.26075e-07
1.36085e-07
1.16483e-07
)
;
    }
}


// ************************************************************************* //
