/*--------------------------------*- C++ -*----------------------------------*\
| =========                 |                                                 |
| \\      /  F ield         | OpenFOAM: The Open Source CFD Toolbox           |
|  \\    /   O peration     | Version:  2306                                  |
|   \\  /    A nd           | Website:  www.openfoam.com                      |
|    \\/     M anipulation  |                                                 |
\*---------------------------------------------------------------------------*/
FoamFile
{
    version     2.0;
    format      ascii;
    arch        "LSB;label=32;scalar=64";
    class       volScalarField;
    location    "25";
    object      nuTilda;
}
// * * * * * * * * * * * * * * * * * * * * * * * * * * * * * * * * * * * * * //

dimensions      [0 2 -1 0 0 0 0];

internalField   nonuniform List<scalar> 
1340
(
4.00644e-05
4.00352e-05
4.00637e-05
4.0058e-05
4.00644e-05
4.00341e-05
4.00823e-05
4.00773e-05
4.00623e-05
4.00592e-05
4.0064e-05
4.00324e-05
4.00685e-05
4.00713e-05
4.00765e-05
4.00806e-05
4.00753e-05
4.00609e-05
4.00601e-05
4.00632e-05
4.00303e-05
4.00584e-05
4.00629e-05
4.00654e-05
4.00656e-05
4.00661e-05
4.00672e-05
4.00701e-05
4.00752e-05
4.00789e-05
4.00733e-05
4.00598e-05
4.00609e-05
4.00617e-05
4.00278e-05
4.00493e-05
4.00497e-05
4.00507e-05
4.00519e-05
4.00538e-05
4.00575e-05
4.00618e-05
4.00641e-05
4.00643e-05
4.00647e-05
4.00658e-05
4.00689e-05
4.0074e-05
4.00772e-05
4.00715e-05
4.0059e-05
4.00614e-05
4.00598e-05
4.00249e-05
4.00703e-05
4.0066e-05
4.00619e-05
4.00582e-05
4.00549e-05
4.00525e-05
4.0051e-05
4.00506e-05
4.00506e-05
4.00511e-05
4.00518e-05
4.00533e-05
4.00564e-05
4.00605e-05
4.00626e-05
4.00628e-05
4.00633e-05
4.00646e-05
4.00677e-05
4.00728e-05
4.00757e-05
4.00698e-05
4.00585e-05
4.00618e-05
4.00575e-05
4.00216e-05
4.01709e-05
4.016e-05
4.01497e-05
4.01398e-05
4.013e-05
4.01206e-05
4.01117e-05
4.01034e-05
4.00958e-05
4.00889e-05
4.00831e-05
4.00781e-05
4.00736e-05
4.00691e-05
4.00647e-05
4.00607e-05
4.00571e-05
4.00543e-05
4.00523e-05
4.00511e-05
4.00508e-05
4.00509e-05
4.00514e-05
4.00526e-05
4.00555e-05
4.00592e-05
4.00612e-05
4.00615e-05
4.00622e-05
4.00636e-05
4.00668e-05
4.00717e-05
4.00742e-05
4.00684e-05
4.00583e-05
4.00619e-05
4.00549e-05
4.00181e-05
4.71048e-05
4.65811e-05
4.62631e-05
4.58824e-05
4.54772e-05
4.50674e-05
4.46975e-05
4.43351e-05
4.39552e-05
4.35782e-05
4.32241e-05
4.28958e-05
4.25917e-05
4.23133e-05
4.20597e-05
4.18302e-05
4.16237e-05
4.144e-05
4.12775e-05
4.11352e-05
4.10112e-05
4.0904e-05
4.08116e-05
4.07322e-05
4.06635e-05
4.06038e-05
4.05514e-05
4.05054e-05
4.0465e-05
4.04296e-05
4.03985e-05
4.0371e-05
4.03462e-05
4.03236e-05
4.03028e-05
4.02838e-05
4.02668e-05
4.02512e-05
4.02367e-05
4.02225e-05
4.02091e-05
4.01963e-05
4.01847e-05
4.01742e-05
4.01637e-05
4.01532e-05
4.0143e-05
4.01331e-05
4.01237e-05
4.01148e-05
4.01065e-05
4.00989e-05
4.00921e-05
4.0086e-05
4.00803e-05
4.00748e-05
4.00701e-05
4.00657e-05
4.00616e-05
4.00579e-05
4.0055e-05
4.00526e-05
4.00511e-05
4.00507e-05
4.00506e-05
4.00509e-05
4.00521e-05
4.00549e-05
4.00582e-05
4.00601e-05
4.00606e-05
4.00614e-05
4.00629e-05
4.00661e-05
4.00708e-05
4.00728e-05
4.00671e-05
4.00586e-05
4.0062e-05
4.00521e-05
4.00154e-05
4.5891e-05
4.6232e-05
4.61704e-05
4.59252e-05
4.56316e-05
4.53457e-05
4.50565e-05
4.47295e-05
4.43721e-05
4.40104e-05
4.36577e-05
4.3318e-05
4.29942e-05
4.26895e-05
4.24054e-05
4.21437e-05
4.19049e-05
4.16902e-05
4.14986e-05
4.13296e-05
4.11815e-05
4.10526e-05
4.09408e-05
4.08438e-05
4.07592e-05
4.06852e-05
4.06203e-05
4.05637e-05
4.05143e-05
4.04712e-05
4.04336e-05
4.04004e-05
4.03708e-05
4.0344e-05
4.03199e-05
4.02983e-05
4.02792e-05
4.0262e-05
4.02462e-05
4.02313e-05
4.02172e-05
4.02036e-05
4.019e-05
4.01768e-05
4.01653e-05
4.01546e-05
4.01442e-05
4.01341e-05
4.01246e-05
4.01158e-05
4.01075e-05
4.01001e-05
4.00934e-05
4.00872e-05
4.00811e-05
4.00752e-05
4.00704e-05
4.00659e-05
4.00617e-05
4.00581e-05
4.00551e-05
4.00528e-05
4.00514e-05
4.00508e-05
4.00505e-05
4.00508e-05
4.0052e-05
4.00545e-05
4.00576e-05
4.00594e-05
4.00599e-05
4.00608e-05
4.00624e-05
4.00655e-05
4.00699e-05
4.00715e-05
4.00661e-05
4.00591e-05
4.00619e-05
4.00492e-05
4.00137e-05
4.53269e-05
4.5581e-05
4.55698e-05
4.54858e-05
4.5388e-05
4.52711e-05
4.50995e-05
4.48667e-05
4.45916e-05
4.42936e-05
4.39833e-05
4.36669e-05
4.33512e-05
4.30426e-05
4.2746e-05
4.24659e-05
4.22051e-05
4.19663e-05
4.175e-05
4.15564e-05
4.13845e-05
4.1233e-05
4.10996e-05
4.09825e-05
4.08794e-05
4.07888e-05
4.07093e-05
4.064e-05
4.05796e-05
4.05271e-05
4.04812e-05
4.04407e-05
4.04048e-05
4.03726e-05
4.03441e-05
4.03189e-05
4.02968e-05
4.02772e-05
4.02596e-05
4.02433e-05
4.02275e-05
4.02117e-05
4.01954e-05
4.01798e-05
4.01673e-05
4.01562e-05
4.01453e-05
4.01351e-05
4.01254e-05
4.01165e-05
4.01083e-05
4.01009e-05
4.00941e-05
4.00878e-05
4.00816e-05
4.00759e-05
4.0071e-05
4.00664e-05
4.00622e-05
4.00585e-05
4.00555e-05
4.00533e-05
4.0052e-05
4.00512e-05
4.00508e-05
4.00508e-05
4.0052e-05
4.00543e-05
4.00571e-05
4.00588e-05
4.00593e-05
4.00603e-05
4.00619e-05
4.0065e-05
4.00689e-05
4.00701e-05
4.00651e-05
4.00599e-05
4.00615e-05
4.00463e-05
4.0013e-05
4.45421e-05
4.45716e-05
4.46004e-05
4.46517e-05
4.47043e-05
4.4727e-05
4.46874e-05
4.45887e-05
4.44449e-05
4.42602e-05
4.40428e-05
4.37992e-05
4.35371e-05
4.32652e-05
4.29912e-05
4.27219e-05
4.24631e-05
4.22192e-05
4.19927e-05
4.17851e-05
4.15965e-05
4.14265e-05
4.1274e-05
4.11377e-05
4.10164e-05
4.09089e-05
4.08143e-05
4.07315e-05
4.06591e-05
4.05959e-05
4.05404e-05
4.04915e-05
4.0448e-05
4.04095e-05
4.03756e-05
4.0346e-05
4.03199e-05
4.02967e-05
4.0276e-05
4.02567e-05
4.02377e-05
4.0219e-05
4.02013e-05
4.01854e-05
4.0172e-05
4.01599e-05
4.01483e-05
4.01375e-05
4.01275e-05
4.01183e-05
4.01098e-05
4.01022e-05
4.00951e-05
4.00886e-05
4.00827e-05
4.00772e-05
4.00721e-05
4.00673e-05
4.0063e-05
4.00591e-05
4.0056e-05
4.00539e-05
4.00525e-05
4.00515e-05
4.00509e-05
4.00508e-05
4.00518e-05
4.00539e-05
4.00564e-05
4.00581e-05
4.00587e-05
4.00597e-05
4.00614e-05
4.00644e-05
4.00679e-05
4.00687e-05
4.00643e-05
4.00608e-05
4.00609e-05
4.00435e-05
4.0013e-05
4.38837e-05
4.37372e-05
4.36842e-05
4.37141e-05
4.37688e-05
4.38287e-05
4.38683e-05
4.38772e-05
4.3859e-05
4.38026e-05
4.37059e-05
4.35754e-05
4.34128e-05
4.32248e-05
4.30193e-05
4.2803e-05
4.25834e-05
4.23662e-05
4.21555e-05
4.1955e-05
4.17667e-05
4.15918e-05
4.14308e-05
4.12839e-05
4.11509e-05
4.10315e-05
4.09252e-05
4.08311e-05
4.07479e-05
4.06744e-05
4.06093e-05
4.05514e-05
4.05e-05
4.04545e-05
4.04143e-05
4.03788e-05
4.03473e-05
4.03191e-05
4.0294e-05
4.0271e-05
4.02488e-05
4.02282e-05
4.02101e-05
4.01939e-05
4.01792e-05
4.01657e-05
4.01531e-05
4.01416e-05
4.0131e-05
4.01212e-05
4.01122e-05
4.01042e-05
4.00968e-05
4.00902e-05
4.00845e-05
4.00791e-05
4.00737e-05
4.00688e-05
4.00642e-05
4.00602e-05
4.0057e-05
4.00549e-05
4.00533e-05
4.0052e-05
4.00512e-05
4.00509e-05
4.00517e-05
4.00536e-05
4.00559e-05
4.00576e-05
4.00583e-05
4.00593e-05
4.0061e-05
4.00638e-05
4.00669e-05
4.00674e-05
4.00637e-05
4.00614e-05
4.00597e-05
4.00407e-05
4.0014e-05
4.36217e-05
4.34037e-05
4.32071e-05
4.30512e-05
4.29348e-05
4.28667e-05
4.28559e-05
4.28721e-05
4.29036e-05
4.29362e-05
4.29516e-05
4.29461e-05
4.29142e-05
4.28517e-05
4.27612e-05
4.26467e-05
4.25108e-05
4.23597e-05
4.2199e-05
4.20335e-05
4.18681e-05
4.17065e-05
4.15516e-05
4.14058e-05
4.12702e-05
4.11457e-05
4.10324e-05
4.09299e-05
4.08377e-05
4.07548e-05
4.06804e-05
4.06138e-05
4.05543e-05
4.05013e-05
4.04542e-05
4.04123e-05
4.03749e-05
4.03419e-05
4.03131e-05
4.02873e-05
4.02632e-05
4.02416e-05
4.02229e-05
4.02057e-05
4.01895e-05
4.01748e-05
4.01614e-05
4.01491e-05
4.01378e-05
4.01274e-05
4.0118e-05
4.01096e-05
4.0102e-05
4.00954e-05
4.00897e-05
4.0084e-05
4.00782e-05
4.00729e-05
4.0068e-05
4.00637e-05
4.00603e-05
4.00578e-05
4.00559e-05
4.00542e-05
4.00529e-05
4.00524e-05
4.00529e-05
4.00544e-05
4.00563e-05
4.00579e-05
4.00586e-05
4.00596e-05
4.00613e-05
4.00638e-05
4.00664e-05
4.00666e-05
4.00635e-05
4.00616e-05
4.00581e-05
4.00381e-05
4.00159e-05
4.33771e-05
4.32205e-05
4.3033e-05
4.28373e-05
4.26447e-05
4.24672e-05
4.23137e-05
4.21895e-05
4.20997e-05
4.20466e-05
4.20331e-05
4.20441e-05
4.20629e-05
4.20825e-05
4.20921e-05
4.20851e-05
4.20592e-05
4.20121e-05
4.19452e-05
4.18614e-05
4.17637e-05
4.16567e-05
4.15444e-05
4.14304e-05
4.13177e-05
4.12086e-05
4.11047e-05
4.1007e-05
4.09159e-05
4.08315e-05
4.0754e-05
4.06831e-05
4.06187e-05
4.05604e-05
4.05078e-05
4.04607e-05
4.04189e-05
4.03824e-05
4.03509e-05
4.03223e-05
4.02953e-05
4.02711e-05
4.02499e-05
4.02302e-05
4.02117e-05
4.01949e-05
4.01796e-05
4.01657e-05
4.01529e-05
4.01411e-05
4.01305e-05
4.0121e-05
4.01126e-05
4.01052e-05
4.00986e-05
4.00918e-05
4.00852e-05
4.00791e-05
4.00735e-05
4.00685e-05
4.00645e-05
4.00613e-05
4.00587e-05
4.00563e-05
4.00545e-05
4.00535e-05
4.00536e-05
4.00546e-05
4.00561e-05
4.00576e-05
4.00583e-05
4.00593e-05
4.00609e-05
4.00633e-05
4.00654e-05
4.00654e-05
4.00629e-05
4.00619e-05
4.00561e-05
4.00356e-05
4.00185e-05
4.29283e-05
4.28785e-05
4.27861e-05
4.26619e-05
4.25152e-05
4.23542e-05
4.21874e-05
4.20241e-05
4.18726e-05
4.17393e-05
4.16294e-05
4.15443e-05
4.1485e-05
4.1452e-05
4.14452e-05
4.14555e-05
4.14699e-05
4.14831e-05
4.14878e-05
4.14802e-05
4.14589e-05
4.14231e-05
4.13746e-05
4.13152e-05
4.12474e-05
4.11743e-05
4.10982e-05
4.10212e-05
4.09451e-05
4.08713e-05
4.08007e-05
4.07339e-05
4.06714e-05
4.06134e-05
4.05602e-05
4.05119e-05
4.04687e-05
4.04304e-05
4.03962e-05
4.03639e-05
4.03332e-05
4.03056e-05
4.02813e-05
4.02587e-05
4.02375e-05
4.02182e-05
4.02007e-05
4.01846e-05
4.01698e-05
4.01562e-05
4.0144e-05
4.01332e-05
4.01235e-05
4.01149e-05
4.01069e-05
4.0099e-05
4.00914e-05
4.00844e-05
4.0078e-05
4.00723e-05
4.00676e-05
4.00637e-05
4.00604e-05
4.00574e-05
4.00551e-05
4.00538e-05
4.00536e-05
4.00541e-05
4.00554e-05
4.00568e-05
4.00574e-05
4.00585e-05
4.00602e-05
4.00623e-05
4.00641e-05
4.00639e-05
4.00622e-05
4.00618e-05
4.00538e-05
4.00333e-05
4.00217e-05
4.23598e-05
4.23227e-05
4.24009e-05
4.23976e-05
4.23624e-05
4.22977e-05
4.22063e-05
4.20931e-05
4.19642e-05
4.18262e-05
4.16858e-05
4.15494e-05
4.14226e-05
4.13106e-05
4.12168e-05
4.11434e-05
4.10906e-05
4.10576e-05
4.10438e-05
4.10487e-05
4.10621e-05
4.10774e-05
4.10897e-05
4.1093e-05
4.10866e-05
4.1069e-05
4.10408e-05
4.10033e-05
4.09585e-05
4.09085e-05
4.08552e-05
4.08004e-05
4.07457e-05
4.06922e-05
4.06408e-05
4.05923e-05
4.05471e-05
4.05053e-05
4.04668e-05
4.04306e-05
4.03959e-05
4.03631e-05
4.03338e-05
4.03075e-05
4.02828e-05
4.02596e-05
4.02383e-05
4.02189e-05
4.0201e-05
4.01845e-05
4.01694e-05
4.01558e-05
4.01437e-05
4.01328e-05
4.0123e-05
4.01138e-05
4.0105e-05
4.00966e-05
4.00889e-05
4.00818e-05
4.00756e-05
4.00703e-05
4.00658e-05
4.00618e-05
4.00583e-05
4.00557e-05
4.00541e-05
4.00537e-05
4.00538e-05
4.00547e-05
4.0056e-05
4.00567e-05
4.00578e-05
4.00594e-05
4.00614e-05
4.00628e-05
4.00625e-05
4.00611e-05
4.0061e-05
4.0051e-05
4.00317e-05
4.00255e-05
4.18239e-05
4.17675e-05
4.19098e-05
4.1961e-05
4.19888e-05
4.19913e-05
4.19679e-05
4.19196e-05
4.18486e-05
4.17584e-05
4.1653e-05
4.15375e-05
4.14171e-05
4.12973e-05
4.11831e-05
4.10786e-05
4.09877e-05
4.09126e-05
4.0855e-05
4.0815e-05
4.07913e-05
4.07828e-05
4.07877e-05
4.08024e-05
4.08183e-05
4.08318e-05
4.08385e-05
4.08371e-05
4.08266e-05
4.08073e-05
4.07807e-05
4.07482e-05
4.07117e-05
4.06728e-05
4.06329e-05
4.05933e-05
4.05545e-05
4.05169e-05
4.04806e-05
4.04454e-05
4.04115e-05
4.03798e-05
4.03511e-05
4.03246e-05
4.02992e-05
4.02753e-05
4.02533e-05
4.02329e-05
4.0214e-05
4.01964e-05
4.01803e-05
4.01658e-05
4.01529e-05
4.01412e-05
4.01304e-05
4.01204e-05
4.01108e-05
4.01019e-05
4.00935e-05
4.00859e-05
4.00792e-05
4.00734e-05
4.00683e-05
4.00638e-05
4.00599e-05
4.0057e-05
4.00553e-05
4.00545e-05
4.00541e-05
4.00546e-05
4.00557e-05
4.00563e-05
4.00574e-05
4.00589e-05
4.00606e-05
4.00617e-05
4.00612e-05
4.00597e-05
4.00591e-05
4.00479e-05
4.0032e-05
4.00298e-05
4.1379e-05
4.13178e-05
4.1476e-05
4.15505e-05
4.16106e-05
4.16531e-05
4.1676e-05
4.1678e-05
4.16587e-05
4.16188e-05
4.15597e-05
4.14842e-05
4.13954e-05
4.12973e-05
4.11943e-05
4.10907e-05
4.09907e-05
4.08981e-05
4.08159e-05
4.07464e-05
4.0691e-05
4.06502e-05
4.06235e-05
4.06099e-05
4.06073e-05
4.06141e-05
4.06288e-05
4.06436e-05
4.06558e-05
4.0662e-05
4.06612e-05
4.06531e-05
4.06381e-05
4.06175e-05
4.05924e-05
4.05644e-05
4.05346e-05
4.05039e-05
4.04728e-05
4.04421e-05
4.04124e-05
4.03843e-05
4.0358e-05
4.03328e-05
4.03084e-05
4.02852e-05
4.02635e-05
4.02432e-05
4.0224e-05
4.02062e-05
4.01898e-05
4.0175e-05
4.01617e-05
4.01494e-05
4.01379e-05
4.01272e-05
4.01172e-05
4.01077e-05
4.00988e-05
4.00908e-05
4.00837e-05
4.00773e-05
4.00717e-05
4.00666e-05
4.00624e-05
4.00592e-05
4.00573e-05
4.00561e-05
4.00551e-05
4.00549e-05
4.00557e-05
4.00563e-05
4.00572e-05
4.00586e-05
4.00599e-05
4.00606e-05
4.00598e-05
4.00579e-05
4.00564e-05
4.00448e-05
4.00342e-05
4.00344e-05
4.10327e-05
4.09759e-05
4.11244e-05
4.12028e-05
4.12735e-05
4.13337e-05
4.1381e-05
4.14135e-05
4.14295e-05
4.14281e-05
4.14091e-05
4.1373e-05
4.13212e-05
4.12557e-05
4.11793e-05
4.10952e-05
4.10069e-05
4.09179e-05
4.08316e-05
4.07512e-05
4.06792e-05
4.06176e-05
4.05676e-05
4.05297e-05
4.05039e-05
4.04893e-05
4.04846e-05
4.04876e-05
4.0497e-05
4.05111e-05
4.0524e-05
4.05338e-05
4.05377e-05
4.05352e-05
4.05263e-05
4.05119e-05
4.04934e-05
4.04719e-05
4.04488e-05
4.04251e-05
4.04016e-05
4.03785e-05
4.03558e-05
4.03332e-05
4.03111e-05
4.02898e-05
4.02694e-05
4.02499e-05
4.02314e-05
4.0214e-05
4.0198e-05
4.01834e-05
4.01699e-05
4.01572e-05
4.01453e-05
4.01342e-05
4.01236e-05
4.01137e-05
4.01044e-05
4.00961e-05
4.00886e-05
4.00817e-05
4.00755e-05
4.007e-05
4.00654e-05
4.0062e-05
4.00598e-05
4.0058e-05
4.00562e-05
4.00553e-05
4.00558e-05
4.00563e-05
4.0057e-05
4.00581e-05
4.00592e-05
4.00594e-05
4.00581e-05
4.00556e-05
4.00529e-05
4.00419e-05
4.0038e-05
4.00389e-05
4.07701e-05
4.07212e-05
4.08506e-05
4.09233e-05
4.09928e-05
4.10568e-05
4.11132e-05
4.116e-05
4.11955e-05
4.12182e-05
4.12268e-05
4.12209e-05
4.12003e-05
4.11657e-05
4.11184e-05
4.106e-05
4.09931e-05
4.09201e-05
4.0844e-05
4.07679e-05
4.06944e-05
4.06261e-05
4.05651e-05
4.0513e-05
4.04707e-05
4.04385e-05
4.04162e-05
4.0403e-05
4.03979e-05
4.03997e-05
4.04065e-05
4.04174e-05
4.04291e-05
4.04383e-05
4.0443e-05
4.04424e-05
4.04366e-05
4.04263e-05
4.04128e-05
4.03973e-05
4.03805e-05
4.03628e-05
4.03444e-05
4.03257e-05
4.03068e-05
4.02882e-05
4.027e-05
4.02523e-05
4.02353e-05
4.02192e-05
4.02042e-05
4.01901e-05
4.01768e-05
4.01641e-05
4.0152e-05
4.01406e-05
4.01299e-05
4.01197e-05
4.01103e-05
4.01017e-05
4.00938e-05
4.00865e-05
4.00798e-05
4.0074e-05
4.00691e-05
4.00655e-05
4.00629e-05
4.00604e-05
4.00576e-05
4.0056e-05
4.00561e-05
4.00565e-05
4.00571e-05
4.00579e-05
4.00585e-05
4.00582e-05
4.00561e-05
4.00525e-05
4.00488e-05
4.00399e-05
4.00435e-05
4.00442e-05
4.05773e-05
4.05351e-05
4.0647e-05
4.07127e-05
4.07776e-05
4.08404e-05
4.08991e-05
4.09522e-05
4.09978e-05
4.10346e-05
4.10609e-05
4.10757e-05
4.10783e-05
4.10683e-05
4.10459e-05
4.10117e-05
4.09671e-05
4.09137e-05
4.08535e-05
4.07889e-05
4.07223e-05
4.06562e-05
4.05928e-05
4.05341e-05
4.04817e-05
4.04367e-05
4.03998e-05
4.03714e-05
4.03512e-05
4.03389e-05
4.03336e-05
4.03341e-05
4.03389e-05
4.03463e-05
4.03557e-05
4.03642e-05
4.03702e-05
4.03723e-05
4.03704e-05
4.03646e-05
4.03556e-05
4.03441e-05
4.03305e-05
4.03157e-05
4.03001e-05
4.02843e-05
4.02684e-05
4.02527e-05
4.02375e-05
4.02228e-05
4.02087e-05
4.01952e-05
4.01822e-05
4.01695e-05
4.01574e-05
4.01459e-05
4.0135e-05
4.01247e-05
4.01152e-05
4.01063e-05
4.0098e-05
4.00902e-05
4.00831e-05
4.00769e-05
4.00718e-05
4.00679e-05
4.00649e-05
4.00617e-05
4.0058e-05
4.00556e-05
4.00555e-05
4.00559e-05
4.00562e-05
4.00568e-05
4.00571e-05
4.00563e-05
4.00536e-05
4.00499e-05
4.00451e-05
4.00383e-05
4.00497e-05
4.00474e-05
4.03708e-05
4.03383e-05
4.0423e-05
4.04738e-05
4.05261e-05
4.05788e-05
4.06305e-05
4.06802e-05
4.07264e-05
4.0768e-05
4.08037e-05
4.08321e-05
4.08525e-05
4.08639e-05
4.08659e-05
4.08583e-05
4.08414e-05
4.08156e-05
4.0782e-05
4.07417e-05
4.06962e-05
4.06471e-05
4.05961e-05
4.05448e-05
4.04949e-05
4.04479e-05
4.0405e-05
4.03673e-05
4.03358e-05
4.03107e-05
4.0292e-05
4.02794e-05
4.02722e-05
4.02692e-05
4.02698e-05
4.02728e-05
4.02775e-05
4.02839e-05
4.02892e-05
4.02923e-05
4.02926e-05
4.02901e-05
4.02851e-05
4.0278e-05
4.02694e-05
4.02597e-05
4.02493e-05
4.02384e-05
4.02272e-05
4.02158e-05
4.02043e-05
4.01927e-05
4.01811e-05
4.01697e-05
4.01586e-05
4.0148e-05
4.01377e-05
4.01279e-05
4.01186e-05
4.01098e-05
4.01014e-05
4.00936e-05
4.00865e-05
4.00804e-05
4.00753e-05
4.00712e-05
4.00674e-05
4.0063e-05
4.00583e-05
4.00552e-05
4.0055e-05
4.00552e-05
4.00552e-05
4.00554e-05
4.0055e-05
4.00531e-05
4.00491e-05
4.0044e-05
4.00404e-05
4.00428e-05
4.00609e-05
4.00563e-05
)
;

boundaryField
{
    inlet
    {
        type            freestream;
        freestreamValue uniform 4e-05;
        value           uniform 4e-05;
    }
    outlet
    {
        type            freestream;
        freestreamValue uniform 4e-05;
        value           nonuniform List<scalar> 
82
(
4.03708e-05
4.0423e-05
4.03383e-05
4.04738e-05
4.05261e-05
4.05788e-05
4.06305e-05
4.06802e-05
4.07264e-05
4.0768e-05
4.08037e-05
4.08321e-05
4.08525e-05
4.08639e-05
4.08659e-05
4.08583e-05
4.08414e-05
4.08156e-05
4.0782e-05
4.07417e-05
4.06962e-05
4.06471e-05
4.05961e-05
4.05448e-05
4.04949e-05
4.04479e-05
4.0405e-05
4.03673e-05
4.03358e-05
4.03107e-05
4.0292e-05
4.02794e-05
4.02722e-05
4.02692e-05
4.02698e-05
4.02728e-05
4.02775e-05
4.02839e-05
4.02892e-05
4.02923e-05
4.02926e-05
4.02901e-05
4.02851e-05
4.0278e-05
4.02694e-05
4.02597e-05
4.02493e-05
4.02384e-05
4.02272e-05
4.02158e-05
4.02043e-05
4.01927e-05
4.01811e-05
4.01697e-05
4.01586e-05
4.0148e-05
4.01377e-05
4.01279e-05
4.01186e-05
4.01098e-05
4.01014e-05
4.00936e-05
4.00865e-05
4.00804e-05
4.00753e-05
4.00712e-05
4.00674e-05
4.0063e-05
4.00583e-05
4.00552e-05
4.0055e-05
4.00552e-05
4.00552e-05
4.00554e-05
4.0055e-05
4.00531e-05
4.00491e-05
4.0044e-05
4.00404e-05
4.00428e-05
4.00609e-05
4.00563e-05
)
;
    }
    walls
    {
        type            fixedValue;
        value           nonuniform List<scalar> 0();
    }
    frontAndBack
    {
        type            empty;
    }
    procBoundary3to2
    {
        type            processor;
        value           nonuniform List<scalar> 
88
(
4.0064e-05
4.00358e-05
4.00652e-05
4.00566e-05
4.00566e-05
4.00839e-05
4.00794e-05
4.00794e-05
4.007e-05
4.00726e-05
4.00778e-05
4.00778e-05
4.00595e-05
4.00642e-05
4.00669e-05
4.00672e-05
4.00675e-05
4.00675e-05
4.00478e-05
4.00489e-05
4.00503e-05
4.0052e-05
4.00545e-05
4.00545e-05
4.00657e-05
4.00619e-05
4.00583e-05
4.0055e-05
4.00522e-05
4.00501e-05
4.00492e-05
4.00492e-05
4.01663e-05
4.01552e-05
4.0145e-05
4.01352e-05
4.01255e-05
4.01161e-05
4.01073e-05
4.00991e-05
4.00915e-05
4.00847e-05
4.00791e-05
4.00744e-05
4.00744e-05
4.76769e-05
4.64517e-05
4.55829e-05
4.50766e-05
4.46309e-05
4.42138e-05
4.38493e-05
4.34908e-05
4.31303e-05
4.27963e-05
4.24953e-05
4.22232e-05
4.19784e-05
4.17601e-05
4.1565e-05
4.13917e-05
4.12381e-05
4.11034e-05
4.09854e-05
4.0883e-05
4.07943e-05
4.07182e-05
4.06528e-05
4.05968e-05
4.05481e-05
4.05054e-05
4.04675e-05
4.04339e-05
4.04041e-05
4.03775e-05
4.03537e-05
4.03321e-05
4.03121e-05
4.02933e-05
4.02758e-05
4.02599e-05
4.02452e-05
4.02314e-05
4.0218e-05
4.02049e-05
4.01927e-05
4.01816e-05
4.01816e-05
)
;
    }
    procBoundary3to6
    {
        type            processor;
        value           uniform 4.90414e-05;
    }
    procBoundary3to7
    {
        type            processor;
        value           nonuniform List<scalar> 
16
(
4.90685e-05
4.60047e-05
4.46117e-05
4.42621e-05
4.40602e-05
4.38641e-05
4.34999e-05
4.29281e-05
4.29281e-05
4.224e-05
4.16715e-05
4.1226e-05
4.08953e-05
4.0654e-05
4.04787e-05
4.0295e-05
)
;
    }
}


// ************************************************************************* //
