/*--------------------------------*- C++ -*----------------------------------*\
| =========                 |                                                 |
| \\      /  F ield         | OpenFOAM: The Open Source CFD Toolbox           |
|  \\    /   O peration     | Version:  2306                                  |
|   \\  /    A nd           | Website:  www.openfoam.com                      |
|    \\/     M anipulation  |                                                 |
\*---------------------------------------------------------------------------*/
FoamFile
{
    version     2.0;
    format      ascii;
    arch        "LSB;label=32;scalar=64";
    class       volScalarField;
    location    "25";
    object      p;
}
// * * * * * * * * * * * * * * * * * * * * * * * * * * * * * * * * * * * * * //

dimensions      [0 2 -2 0 0 0 0];

internalField   nonuniform List<scalar> 
1340
(
3.99806
8.79492
6.1546
6.49213
4.08404
8.64154
6.89683
6.78135
6.25871
6.52361
4.16838
8.47655
7.2683
7.22379
7.14299
7.00497
6.86802
6.34517
6.5366
4.23991
8.3079
7.80773
7.74164
7.68384
7.62318
7.5524
7.47619
7.38432
7.26826
7.10144
6.93279
6.40889
6.52985
4.28842
8.12702
9.29111
9.13845
8.95955
8.76871
8.56845
8.38476
8.23185
8.10181
7.96811
7.82923
7.68978
7.54648
7.38449
7.18334
6.97749
6.44486
6.49404
4.31516
7.93752
11.2918
11.3094
11.2725
11.1844
11.0513
10.8802
10.6727
10.4303
10.155
9.85895
9.54977
9.23968
8.9502
8.71561
8.51624
8.3125
8.1007
7.89637
7.69525
7.48639
7.24399
6.99379
6.4536
6.4347
4.3178
7.73243
12.2785
12.5686
12.8274
13.0437
13.2227
13.3572
13.4525
13.5067
13.5244
13.5062
13.4543
13.3708
13.2534
13.0967
12.8985
12.6624
12.3952
12.0998
11.7775
11.4264
11.0504
10.6549
10.2489
9.84064
9.46046
9.15044
8.88653
8.61703
8.34267
8.07462
7.81683
7.55727
7.27586
6.98383
6.43392
6.34618
4.30004
7.51715
5.76542
5.76106
5.81921
5.86436
5.92632
5.99449
6.07524
6.15809
6.25567
6.35693
6.47751
6.60653
6.76006
6.92658
7.1224
7.33599
7.58308
7.85136
8.15562
8.48351
8.84752
9.23455
9.65416
10.0928
10.5559
11.0301
11.5179
12.0067
12.4959
12.9752
13.4414
13.8866
14.3046
14.6919
15.0415
15.3538
15.6232
15.853
16.0407
16.1899
16.3026
16.3799
16.4337
16.4699
16.4857
16.4707
16.429
16.3551
16.2526
16.118
15.9558
15.7658
15.5516
15.3144
15.0564
14.7767
14.4743
14.1452
13.7907
13.4186
13.029
12.6196
12.1885
11.7361
11.2677
10.7891
10.3129
9.86261
9.49105
9.17346
8.8516
8.52178
8.20158
7.89248
7.58998
7.27176
6.94001
6.38457
6.23436
4.2608
7.28694
10.0115
9.77991
9.6339
9.53205
9.49293
9.49857
9.55008
9.62899
9.74108
9.86698
10.016
10.1706
10.3424
10.5168
10.707
10.9017
11.1144
11.3363
11.581
11.8413
12.1299
12.4393
12.7806
13.1443
13.5391
13.9526
14.3913
14.8402
15.3036
15.7642
16.2254
16.6688
17.0944
17.4853
17.8408
18.1489
18.408
18.6107
18.7587
18.8509
18.8952
18.893
18.8531
18.7739
18.6634
18.5185
18.3439
18.138
17.9042
17.6421
17.355
17.0449
16.7161
16.3717
16.0134
15.6413
15.2537
14.8481
14.4273
13.9973
13.5563
13.1001
12.6247
12.1303
11.6224
11.1076
10.5939
10.105
9.69585
9.34351
8.98268
8.61551
8.25563
7.90947
7.57057
7.2233
6.86065
6.30424
6.09419
4.2039
7.04419
12.7982
12.5635
12.3477
12.1425
11.9592
11.8025
11.6691
11.5619
11.4754
11.4084
11.3571
11.3186
11.2917
11.2725
11.2639
11.2618
11.2729
11.2926
11.3322
11.3865
11.4698
11.5757
11.7206
11.8956
12.1173
12.3733
12.6786
13.0172
13.4011
13.812
14.2577
14.7174
15.193
15.6642
16.1286
16.567
16.975
17.337
17.6496
17.9045
18.1072
18.2561
18.3543
18.3954
18.385
18.3221
18.2136
18.0595
17.8651
17.6319
17.365
17.0678
16.746
16.4038
16.0442
15.6679
15.2755
14.8684
14.4497
14.0223
13.5836
13.1294
12.657
12.1666
11.6641
11.1524
10.6396
10.1467
9.72854
9.36255
8.9868
8.60003
8.22042
7.85098
7.49019
7.12357
6.73887
6.18886
5.92918
4.12978
6.78183
14.1115
13.9768
13.8376
13.6799
13.5083
13.3234
13.1293
12.9269
12.721
12.5099
12.2988
12.0838
11.8699
11.6526
11.4372
11.2191
11.0043
10.79
10.5834
10.3837
10.1995
10.0325
9.89266
9.78319
9.71425
9.68866
9.71602
9.79689
9.93951
10.1401
10.4048
10.7234
11.0986
11.5154
11.9708
12.4462
12.9345
13.4163
13.8821
14.3167
14.7171
15.0751
15.3872
15.6431
15.8439
15.9855
16.0721
16.102
16.0802
16.0075
15.8896
15.7288
15.5314
15.3011
15.0423
14.7575
14.4504
14.1246
13.7819
13.4242
13.0486
12.6534
12.2371
11.8021
11.3515
10.8871
10.4153
9.95663
9.55799
9.20485
8.83673
8.45601
8.07682
7.70426
7.33596
6.9631
6.56922
6.03596
5.73148
4.04287
6.49565
13.6105
13.7264
13.8155
13.8555
13.8485
13.7936
13.6929
13.5521
13.3727
13.1628
12.9224
12.6605
12.3751
12.075
11.7566
11.4287
11.0866
10.7393
10.3824
10.0253
9.66518
9.31281
8.96742
8.64072
8.33488
8.06192
7.82621
7.63761
7.50287
7.42801
7.42018
7.47848
7.61038
7.80682
8.07364
8.39325
8.76782
9.1731
9.60783
10.0479
10.4928
10.9236
11.3377
11.7193
12.0678
12.3739
12.6385
12.8556
13.0275
13.1513
13.2302
13.2629
13.2542
13.2041
13.1175
12.9956
12.8436
12.664
12.4592
12.2289
11.9726
11.689
11.379
11.0444
10.6883
10.3104
9.91807
9.52699
9.17787
8.86052
8.52571
8.17347
7.81729
7.46012
7.10238
6.73789
6.34754
5.84129
5.49995
3.94693
6.17655
12.6147
12.5552
12.4974
12.4373
12.3723
12.3024
12.2238
12.1363
12.0364
11.9241
11.7964
11.6536
11.4932
11.3155
11.1182
10.9019
10.6645
10.407
10.1275
9.82796
9.50727
9.16907
8.81347
8.44626
8.06945
7.69126
7.3156
6.95238
6.6071
6.29037
6.00862
5.77093
5.58363
5.45296
5.38413
5.37763
5.43604
5.55326
5.72883
5.95127
6.21869
6.5177
6.84463
7.18579
7.53853
7.89086
8.2407
8.57748
8.8992
9.19671
9.46927
9.70956
9.91761
10.0882
10.2223
10.3179
10.3775
10.4017
10.391
10.3458
10.2647
10.1482
9.99652
9.81164
9.59485
9.34769
9.07543
8.79176
8.52172
8.26718
7.99165
7.695
7.38623
7.06829
6.74194
6.40389
6.03246
5.57512
5.19428
3.83868
5.79281
11.5062
11.5091
11.5068
11.4902
11.4621
11.4215
11.3687
11.305
11.2292
11.1433
11.0449
10.9356
10.8128
10.6776
10.5271
10.3614
10.1782
9.97663
9.75461
9.51118
9.24468
8.95431
8.6395
8.30076
7.93884
7.55632
7.1557
6.74258
6.32096
5.89892
5.48158
5.07924
4.69716
4.3467
4.03248
3.76454
3.54531
3.38213
3.27433
3.22475
3.23097
3.29189
3.4043
3.5638
3.7677
4.00948
4.28555
4.58702
4.90905
5.24252
5.5822
5.91927
6.24812
6.56117
6.85356
7.12055
7.35991
7.56957
7.74699
7.89076
7.99765
8.06661
8.09574
8.0854
8.03591
7.94764
7.82632
7.6813
7.51966
7.35312
7.16455
6.95036
6.71778
6.46694
6.1999
5.91288
5.58684
5.19173
4.82256
3.61404
5.49507
10.4786
10.4614
10.4363
10.3939
10.3402
10.2726
10.1955
10.1077
10.0125
9.90887
9.79924
9.68263
9.56069
9.43209
9.29785
9.15605
9.00715
8.84873
8.68043
8.49946
8.30459
8.09333
7.86372
7.61399
7.34202
7.04812
6.73029
6.39137
6.03021
5.65287
5.25911
4.85806
4.4504
4.04813
3.65237
3.27636
2.92084
2.59853
2.30877
2.06273
1.85829
1.70431
1.59813
1.54645
1.54619
1.60035
1.70492
1.85836
2.056
2.29323
2.56486
2.8628
3.18125
3.51104
3.84608
4.17856
4.5043
4.81755
5.11397
5.38897
5.63725
5.8547
6.03651
6.18057
6.28448
6.34777
6.37336
6.36875
6.3203
6.25055
6.15831
6.03844
5.89385
5.725
5.53041
5.31223
5.0453
4.72862
4.39202
3.32938
5.1901
7.97872
8.10773
7.8534
7.72691
7.60259
7.47929
7.35883
7.24096
7.12667
7.01629
6.90988
6.80839
6.71105
6.61917
6.53099
6.44818
6.36804
6.29241
6.21751
6.14511
6.07048
5.9949
5.91282
5.82504
5.72552
5.61459
5.48654
5.34162
5.17491
4.98712
4.77532
4.54095
4.2834
4.00523
3.70902
3.39829
3.07818
2.75273
2.42927
2.11143
1.80771
1.52132
1.26152
1.03094
0.838365
0.685634
0.579541
0.519756
0.510267
0.548888
0.637016
0.770507
0.947704
1.16195
1.40959
1.68266
1.97724
2.28606
2.6052
2.92722
3.24762
3.55797
3.85285
4.1243
4.3681
4.57928
4.75478
4.8957
5.00506
5.05581
5.07256
5.06988
5.03763
4.97948
4.89041
4.77589
4.62849
4.43462
4.19664
3.91134
3.00029
4.82777
7.31155
7.48121
7.12902
6.94436
6.75893
6.57398
6.39042
6.2097
6.03209
5.85909
5.6907
5.52859
5.37245
5.22406
5.08289
4.95081
4.82691
4.71298
4.60759
4.51228
4.42496
4.34667
4.2745
4.20876
4.14584
4.08522
4.02266
3.95693
3.88375
3.80141
3.70596
3.59562
3.46784
3.32123
3.15512
2.96894
2.76459
2.54235
2.30645
2.05793
1.80342
1.54463
1.29017
1.04221
0.81019
0.596057
0.409062
0.250191
0.127249
0.0407353
-0.00329481
-0.00581786
0.0360556
0.119274
0.24382
0.405072
0.601402
0.827522
1.08025
1.35335
1.6423
1.93909
2.23766
2.52953
2.80898
3.06925
3.30537
3.51545
3.70038
3.82102
3.90305
3.96856
4.00876
4.02177
4.00801
3.96313
3.89084
3.76344
3.6118
3.38018
2.62502
4.41408
5.97256
6.13729
5.81651
5.66096
5.50545
5.35021
5.19477
5.04027
4.88611
4.73372
4.58258
4.43428
4.28838
4.14658
4.00847
3.87577
3.74818
3.62735
3.51297
3.40654
3.30771
3.21763
3.13569
3.06253
2.99712
2.93931
2.88759
2.84084
2.79703
2.75425
2.71003
2.66176
2.60703
2.54302
2.46784
2.37881
2.27525
2.15512
2.01925
1.86651
1.69985
1.51917
1.32945
1.13157
0.932353
0.733014
0.541511
0.359259
0.195067
0.049882
-0.0674806
-0.157579
-0.213117
-0.236371
-0.221424
-0.172632
-0.0857175
0.033937
0.188585
0.371755
0.5834
0.815316
1.0645
1.32187
1.58301
1.83946
2.08574
2.31784
2.53448
2.69115
2.80964
2.91854
3.00613
3.07351
3.11295
3.13044
3.11378
3.05593
2.97546
2.80675
2.19948
3.94982
5.48143
5.57904
5.36219
5.2359
5.10336
4.96567
4.82389
4.67926
4.53218
4.38389
4.23447
4.08521
3.93602
3.78822
3.64168
3.49779
3.35643
3.21904
3.08562
2.95757
2.83492
2.71899
2.60985
2.50854
2.41503
2.3299
2.25301
2.18427
2.12316
2.06879
2.02042
1.9761
1.9348
1.89369
1.85194
1.80589
1.75518
1.69574
1.62828
1.54864
1.45887
1.35516
1.24124
1.11388
0.978514
0.832689
0.683316
0.529128
0.378463
0.230893
0.0948198
-0.0295426
-0.133914
-0.218763
-0.276588
-0.309091
-0.3099
-0.282075
-0.220477
-0.129869
-0.0072406
0.14088
0.314676
0.50618
0.713295
0.927249
1.14362
1.35708
1.56623
1.72444
1.85109
1.97324
2.08218
2.17437
2.24838
2.30033
2.33192
2.31885
2.3075
2.18985
1.71772
3.41649
4.01759
4.12237
3.91879
3.81812
3.71635
3.61266
3.50771
3.40129
3.29388
3.18558
3.07682
2.96784
2.85902
2.75076
2.64339
2.53733
2.43289
2.33048
2.23047
2.1332
2.03915
1.94858
1.86218
1.78001
1.70291
1.63068
1.56437
1.50334
1.44872
1.39933
1.35629
1.31778
1.28476
1.2547
1.22851
1.20294
1.17881
1.15227
1.12427
1.0906
1.05252
1.00567
0.952011
0.887389
0.814663
0.730279
0.638649
0.53703
0.431242
0.319461
0.209059
0.0982297
-0.00420846
-0.100732
-0.181713
-0.250837
-0.297486
-0.327098
-0.329453
-0.310988
-0.2628
-0.192598
-0.0943765
0.023136
0.162586
0.31423
0.476941
0.644059
0.81529
0.946844
1.05531
1.1648
1.26711
1.36121
1.44146
1.5129
1.56007
1.58481
1.61228
1.54465
1.17896
2.77689
3.59136
3.64491
3.51166
3.42634
3.33593
3.24177
3.14447
3.04506
2.94359
2.84109
2.73732
2.63329
2.52868
2.42454
2.32053
2.21769
2.11574
2.01571
1.91734
1.82161
1.72849
1.63877
1.55254
1.47038
1.39268
1.31971
1.25199
1.18941
1.13285
1.08162
1.03677
0.996994
0.963595
0.934488
0.911118
0.890592
0.874583
0.859322
0.846712
0.832175
0.818043
0.798937
0.777726
0.748456
0.715095
0.671298
0.622436
0.562026
0.497417
0.421954
0.344926
0.259409
0.1768
0.0894739
0.0110918
-0.0672007
-0.131016
-0.189741
-0.228625
-0.257307
-0.26267
-0.254146
-0.221323
-0.173802
-0.104677
-0.0241487
0.0702649
0.171388
0.28128
0.363479
0.433671
0.507119
0.580052
0.648595
0.713089
0.768677
0.817401
0.844753
0.895784
0.866538
0.576585
1.90631
0.744565
0.778529
0.706138
0.665906
0.623904
0.579911
0.534363
0.486985
0.438315
0.388069
0.336913
0.284445
0.231569
0.17779
0.124141
0.0699852
0.0166145
-0.0367796
-0.0887381
-0.140258
-0.189529
-0.23785
-0.283152
-0.327089
-0.366981
-0.405057
-0.438202
-0.469271
-0.494307
-0.517096
-0.53295
-0.546663
-0.552458
-0.556434
-0.551854
-0.546237
-0.531542
-0.516944
-0.493277
-0.471395
-0.440867
-0.41421
-0.379914
-0.351947
-0.317895
-0.292599
-0.262735
-0.243624
-0.221555
-0.211333
-0.198813
-0.198034
-0.195336
-0.203393
-0.207824
-0.221088
-0.228427
-0.242136
-0.246979
-0.255077
-0.251896
-0.248899
-0.234035
-0.21726
-0.189906
-0.160275
-0.123528
-0.0845271
-0.0399814
-0.0122631
0.0113935
0.0395168
0.068557
0.0976774
0.125567
0.154504
0.180783
0.201134
0.236554
0.229226
0.0800063
0.744708
)
;

boundaryField
{
    inlet
    {
        type            freestreamPressure;
        freestreamValue uniform 0;
        value           nonuniform List<scalar> 
23
(
4.97898
4.89262
4.79966
4.70459
4.60255
4.49561
4.3798
4.25821
4.12815
3.99096
3.84266
3.68085
3.50037
3.2832
3.11481
2.94232
2.73733
2.50321
2.24038
1.93833
1.57589
1.08214
0.422954
)
;
    }
    outlet
    {
        type            freestreamPressure;
        freestreamValue uniform 0;
        value           nonuniform List<scalar> 
82
(
0.00385443
0.00367358
0.00401164
0.00348153
0.0032806
0.00306863
0.00284778
0.00261706
0.002379
0.0021326
0.00188093
0.00162265
0.00136195
0.00109701
0.000832662
0.000566436
0.00030437
4.31223e-05
-0.000210576
-0.000460925
-0.000699629
-0.000932359
-0.00114982
-0.00135928
-0.00154873
-0.00172817
-0.00188377
-0.00202838
-0.00214451
-0.00224917
-0.0023218
-0.00238385
-0.00241014
-0.00242767
-0.00240733
-0.00238209
-0.00231742
-0.00225317
-0.00215012
-0.00205503
-0.00192341
-0.00180877
-0.00166209
-0.0015427
-0.00139786
-0.0012902
-0.00116323
-0.00108133
-0.000986566
-0.000940953
-0.000884999
-0.000877426
-0.000861043
-0.00088881
-0.000900842
-0.000949146
-0.000972484
-0.00102209
-0.00103495
-0.00106145
-0.00104169
-0.0010232
-0.000956536
-0.000882823
-0.000766551
-0.000641876
-0.000488849
-0.000327032
-0.000142664
-2.83422e-05
6.91659e-05
0.000185731
0.000306563
0.000428589
0.000546463
0.00067014
0.000784127
0.000874569
0.00103124
0.00100781
0.000357212
0.0032375
)
;
    }
    walls
    {
        type            zeroGradient;
    }
    frontAndBack
    {
        type            empty;
    }
    procBoundary3to2
    {
        type            processor;
        value           nonuniform List<scalar> 
88
(
3.91733
8.95117
6.0427
6.4548
6.4548
6.78261
6.68214
6.68214
7.08089
7.07142
7.01923
7.01923
7.27521
7.28714
7.29352
7.29757
7.29237
7.29237
8.12652
8.10016
8.04605
7.97252
7.89099
7.89099
9.12671
9.31763
9.4467
9.51526
9.52817
9.49253
9.41336
9.41336
7.44682
8.03455
8.57413
9.05953
9.49578
9.87958
10.2156
10.5031
10.7467
10.9468
11.1056
11.2201
11.2201
-12.3864
-12.2214
-11.9953
-11.711
-11.3584
-10.9572
-10.5001
-10.0055
-9.46231
-8.89098
-8.27528
-7.63964
-6.96561
-6.28061
-5.56336
-4.84289
-4.09574
-3.35137
-2.58514
-1.8267
-1.05062
-0.28589
0.491309
1.25259
2.02118
2.77074
3.52161
4.24937
4.97225
5.66834
6.35314
7.00575
7.64149
8.24172
8.82048
9.36162
9.87792
10.3565
10.8062
11.2171
11.6014
11.9477
11.9477
)
;
    }
    procBoundary3to6
    {
        type            processor;
        value           uniform -12.2959;
    }
    procBoundary3to7
    {
        type            processor;
        value           nonuniform List<scalar> 
16
(
5.96421
10.4397
13.1065
14.2845
13.4873
12.669
11.4736
10.4475
10.4475
8.20508
7.61858
6.27975
5.64944
4.20754
3.67968
0.803127
)
;
    }
}


// ************************************************************************* //
