/*--------------------------------*- C++ -*----------------------------------*\
| =========                 |                                                 |
| \\      /  F ield         | OpenFOAM: The Open Source CFD Toolbox           |
|  \\    /   O peration     | Version:  2306                                  |
|   \\  /    A nd           | Website:  www.openfoam.com                      |
|    \\/     M anipulation  |                                                 |
\*---------------------------------------------------------------------------*/
FoamFile
{
    version     2.0;
    format      ascii;
    arch        "LSB;label=32;scalar=64";
    class       volScalarField;
    location    "25";
    object      turbulenceProperties:I;
}
// * * * * * * * * * * * * * * * * * * * * * * * * * * * * * * * * * * * * * //

dimensions      [0 0 0 0 0 0 0];

internalField   nonuniform List<scalar> 
1340
(
1.8643e-05
3.06456e-05
1.42662e-05
2.31652e-05
1.83916e-05
3.03876e-05
1.73037e-05
1.83471e-05
1.45183e-05
2.31637e-05
1.82092e-05
3.01653e-05
1.84801e-05
1.8266e-05
1.80397e-05
1.7381e-05
1.84813e-05
1.49116e-05
2.31558e-05
1.8155e-05
2.99562e-05
1.88304e-05
1.90155e-05
1.91947e-05
1.88204e-05
1.84074e-05
1.82475e-05
1.81937e-05
1.80624e-05
1.75422e-05
1.86051e-05
1.52634e-05
2.312e-05
1.81635e-05
2.97797e-05
2.07031e-05
2.01741e-05
1.97319e-05
1.92559e-05
1.86301e-05
1.83086e-05
1.87372e-05
1.902e-05
1.87009e-05
1.83863e-05
1.82393e-05
1.81365e-05
1.80668e-05
1.7613e-05
1.86403e-05
1.55219e-05
2.30481e-05
1.81823e-05
2.96415e-05
2.47484e-05
2.40772e-05
2.34316e-05
2.27981e-05
2.22265e-05
2.14785e-05
2.05366e-05
2.03902e-05
2.0428e-05
1.99093e-05
1.95002e-05
1.89766e-05
1.84899e-05
1.86856e-05
1.89499e-05
1.86332e-05
1.83399e-05
1.81702e-05
1.80536e-05
1.80025e-05
1.76126e-05
1.86087e-05
1.57143e-05
2.2935e-05
1.81821e-05
2.95373e-05
3.7343e-05
3.55809e-05
3.39205e-05
3.23929e-05
3.09212e-05
2.95672e-05
2.83267e-05
2.72543e-05
2.63652e-05
2.56528e-05
2.44998e-05
2.27593e-05
2.31392e-05
2.41323e-05
2.36015e-05
2.31299e-05
2.26669e-05
2.21637e-05
2.16941e-05
2.12215e-05
2.07079e-05
2.01847e-05
1.97806e-05
1.92497e-05
1.86656e-05
1.8721e-05
1.89073e-05
1.85771e-05
1.82664e-05
1.80854e-05
1.79723e-05
1.79246e-05
1.76055e-05
1.85382e-05
1.58576e-05
2.27833e-05
1.8152e-05
2.94643e-05
0.000228172
0.000239799
0.00023371
0.00021703
0.0002079
0.000197087
0.000186071
0.000175305
0.000164522
0.0001541
0.000144235
0.000134903
0.000126162
0.000118016
0.000110483
0.000103559
9.72561e-05
9.15532e-05
8.64738e-05
8.19713e-05
7.80259e-05
7.45392e-05
7.14434e-05
6.86248e-05
6.59834e-05
6.34151e-05
6.08779e-05
5.83716e-05
5.58806e-05
5.34007e-05
5.09602e-05
4.86154e-05
4.63707e-05
4.4275e-05
4.23647e-05
4.07008e-05
3.9288e-05
3.81092e-05
3.70969e-05
3.60867e-05
3.51642e-05
3.35531e-05
3.08049e-05
3.06111e-05
3.12126e-05
3.00183e-05
2.92314e-05
2.84709e-05
2.78001e-05
2.72065e-05
2.67246e-05
2.63008e-05
2.58363e-05
2.53405e-05
2.50054e-05
2.48295e-05
2.46015e-05
2.41303e-05
2.36435e-05
2.31992e-05
2.27803e-05
2.23699e-05
2.17835e-05
2.11197e-05
2.05819e-05
2.01363e-05
1.95352e-05
1.88857e-05
1.8859e-05
1.89533e-05
1.85859e-05
1.82428e-05
1.80628e-05
1.79386e-05
1.78763e-05
1.76115e-05
1.84484e-05
1.59579e-05
2.25868e-05
1.80876e-05
2.94239e-05
0.000224585
0.000235407
0.000229077
0.000219279
0.000212571
0.000203402
0.000193733
0.000183629
0.000173184
0.000162784
0.000152585
0.000142653
0.000133104
0.000123968
0.000115308
0.000107149
9.95256e-05
9.24708e-05
8.60436e-05
8.02709e-05
7.51805e-05
7.07718e-05
6.69866e-05
6.37562e-05
6.09274e-05
5.83707e-05
5.59511e-05
5.36025e-05
5.12589e-05
4.88441e-05
4.63201e-05
4.37183e-05
4.10329e-05
3.83461e-05
3.579e-05
3.35878e-05
3.19522e-05
3.10617e-05
3.09382e-05
3.09137e-05
3.04553e-05
3.02722e-05
3.0672e-05
3.06105e-05
3.00845e-05
2.97452e-05
2.94788e-05
2.91698e-05
2.88427e-05
2.85128e-05
2.82163e-05
2.78737e-05
2.74178e-05
2.70618e-05
2.68298e-05
2.6398e-05
2.58638e-05
2.53008e-05
2.47187e-05
2.41866e-05
2.36915e-05
2.31689e-05
2.2453e-05
2.17385e-05
2.11609e-05
2.06327e-05
1.9923e-05
1.92334e-05
1.91263e-05
1.91173e-05
1.87105e-05
1.83402e-05
1.81338e-05
1.79705e-05
1.78783e-05
1.76436e-05
1.83447e-05
1.60269e-05
2.23546e-05
1.79819e-05
2.9417e-05
0.000187945
0.000201934
0.000203853
0.000202836
0.000201786
0.000197419
0.000191653
0.00018455
0.00017648
0.000167887
0.000158963
0.000149894
0.000140857
0.000131993
0.000123393
0.000115137
0.000107282
9.99045e-05
9.30515e-05
8.67325e-05
8.09875e-05
7.58464e-05
7.13419e-05
6.74987e-05
6.43022e-05
6.16971e-05
5.95961e-05
5.78865e-05
5.643e-05
5.51089e-05
5.37827e-05
5.23897e-05
5.08509e-05
4.91951e-05
4.74177e-05
4.56324e-05
4.38874e-05
4.23584e-05
4.11836e-05
4.0208e-05
3.89175e-05
3.8071e-05
3.76514e-05
3.68168e-05
3.57884e-05
3.51249e-05
3.44273e-05
3.3761e-05
3.30735e-05
3.2427e-05
3.17949e-05
3.11556e-05
3.04459e-05
2.98926e-05
2.93673e-05
2.85935e-05
2.77905e-05
2.70173e-05
2.62457e-05
2.55255e-05
2.48259e-05
2.41034e-05
2.32648e-05
2.25046e-05
2.18395e-05
2.12003e-05
2.03853e-05
1.96487e-05
1.94394e-05
1.9338e-05
1.88865e-05
1.84807e-05
1.82337e-05
1.8024e-05
1.78884e-05
1.76549e-05
1.82057e-05
1.60404e-05
2.20714e-05
1.7837e-05
2.94433e-05
0.000120067
0.000141857
0.000155438
0.000165052
0.000172146
0.0001752
0.000175693
0.000173949
0.000170437
0.000165582
0.000159693
0.00015306
0.000145939
0.000138548
0.000131085
0.0001237
0.000116528
0.000109651
0.000103154
9.70335e-05
9.13196e-05
8.59965e-05
8.10761e-05
7.65609e-05
7.24963e-05
6.89109e-05
6.58353e-05
6.33042e-05
6.12678e-05
5.96787e-05
5.84062e-05
5.73569e-05
5.63624e-05
5.53698e-05
5.42967e-05
5.31415e-05
5.18755e-05
5.0582e-05
4.93936e-05
4.82616e-05
4.68178e-05
4.55584e-05
4.45785e-05
4.33206e-05
4.20224e-05
4.0886e-05
3.97666e-05
3.86898e-05
3.76225e-05
3.66027e-05
3.5606e-05
3.46425e-05
3.36515e-05
3.27712e-05
3.18907e-05
3.08592e-05
2.98491e-05
2.88554e-05
2.78853e-05
2.69554e-05
2.60486e-05
2.5148e-05
2.42066e-05
2.33617e-05
2.25938e-05
2.18446e-05
2.09384e-05
2.01536e-05
1.98614e-05
1.96676e-05
1.91775e-05
1.87396e-05
1.84445e-05
1.81779e-05
1.79805e-05
1.7732e-05
1.81006e-05
1.60678e-05
2.17621e-05
1.76394e-05
2.95149e-05
9.96555e-05
6.73909e-05
6.15734e-05
9.33529e-05
0.000114593
0.000129141
0.00013892
0.00014505
0.000148328
0.000149287
0.000148375
0.000145957
0.000142366
0.000137898
0.000132811
0.000127332
0.000121649
0.00011591
0.000110231
0.000104688
9.93303e-05
9.4166e-05
8.92089e-05
8.44823e-05
7.99859e-05
7.57248e-05
7.17597e-05
6.81624e-05
6.49664e-05
6.22264e-05
5.9976e-05
5.82237e-05
5.68668e-05
5.58348e-05
5.49936e-05
5.42595e-05
5.35168e-05
5.27427e-05
5.2021e-05
5.12771e-05
5.01801e-05
4.9086e-05
4.82232e-05
4.71582e-05
4.60131e-05
4.48563e-05
4.37015e-05
4.25401e-05
4.13602e-05
4.01782e-05
3.8999e-05
3.78355e-05
3.6649e-05
3.55072e-05
3.43848e-05
3.31846e-05
3.19986e-05
3.08165e-05
2.96667e-05
2.85501e-05
2.74604e-05
2.64047e-05
2.53577e-05
2.43947e-05
2.35e-05
2.26129e-05
2.16128e-05
2.07552e-05
2.03069e-05
2.00087e-05
1.94835e-05
1.89951e-05
1.86217e-05
1.82786e-05
1.79946e-05
1.77074e-05
1.79035e-05
1.60663e-05
2.13941e-05
1.75217e-05
2.95704e-05
0.000172093
0.000159102
0.000134331
0.000107017
7.66104e-05
5.60913e-05
7.39394e-05
9.26964e-05
0.000105917
0.00011497
0.00012088
0.000124299
0.000125744
0.000125574
0.000124117
0.000121679
0.000118478
0.00011472
0.00011061
0.000106276
0.000101855
9.74228e-05
9.3046e-05
8.87819e-05
8.46449e-05
8.06237e-05
7.67528e-05
7.30268e-05
6.94732e-05
6.61025e-05
6.29962e-05
6.02077e-05
5.77823e-05
5.57369e-05
5.4103e-05
5.28398e-05
5.18494e-05
5.11019e-05
5.05785e-05
5.00726e-05
4.92749e-05
4.8503e-05
4.78738e-05
4.70685e-05
4.61415e-05
4.51606e-05
4.41461e-05
4.30826e-05
4.19687e-05
4.08096e-05
3.96388e-05
3.84539e-05
3.72435e-05
3.60577e-05
3.49129e-05
3.37174e-05
3.25079e-05
3.12977e-05
3.01123e-05
2.89558e-05
2.78285e-05
2.67494e-05
2.57065e-05
2.47328e-05
2.38139e-05
2.29043e-05
2.1903e-05
2.10755e-05
2.05765e-05
2.02021e-05
1.96963e-05
1.91959e-05
1.87871e-05
1.83837e-05
1.80131e-05
1.76706e-05
1.76587e-05
1.60773e-05
2.09259e-05
1.7354e-05
2.92937e-05
0.000198682
0.000194974
0.000179714
0.000162635
0.000144516
0.00012557
0.00010575
8.54699e-05
6.67578e-05
5.98009e-05
6.83162e-05
7.90089e-05
8.74635e-05
9.34976e-05
9.7494e-05
9.9817e-05
0.00010077
0.000100605
9.9575e-05
9.78452e-05
9.5616e-05
9.30148e-05
9.01597e-05
8.71683e-05
8.40999e-05
8.09936e-05
7.78897e-05
7.47878e-05
7.17204e-05
6.8691e-05
6.57332e-05
6.28653e-05
6.01283e-05
5.75496e-05
5.52158e-05
5.31407e-05
5.13764e-05
4.99683e-05
4.89368e-05
4.8048e-05
4.70277e-05
4.61413e-05
4.54428e-05
4.46795e-05
4.38694e-05
4.30569e-05
4.22276e-05
4.13554e-05
4.04339e-05
3.94608e-05
3.84663e-05
3.74612e-05
3.64137e-05
3.53832e-05
3.43872e-05
3.33308e-05
3.22409e-05
3.11477e-05
3.00614e-05
2.89847e-05
2.79307e-05
2.69227e-05
2.59488e-05
2.50197e-05
2.41248e-05
2.32476e-05
2.22903e-05
2.15029e-05
2.10095e-05
2.05941e-05
2.00986e-05
1.95879e-05
1.91431e-05
1.86825e-05
1.82278e-05
1.78215e-05
1.7554e-05
1.6174e-05
2.04901e-05
1.7459e-05
2.94807e-05
0.000195443
0.000197162
0.000188672
0.00017802
0.000166291
0.000153617
0.000140103
0.00012599
0.000111405
9.64415e-05
8.14985e-05
6.75825e-05
5.79134e-05
5.70135e-05
6.22679e-05
6.84139e-05
7.34461e-05
7.71073e-05
7.95072e-05
8.08231e-05
8.12475e-05
8.09427e-05
8.00504e-05
7.87194e-05
7.70468e-05
7.51252e-05
7.30332e-05
7.08177e-05
6.85275e-05
6.61859e-05
6.38196e-05
6.14448e-05
5.90759e-05
5.67334e-05
5.44723e-05
5.23155e-05
5.03382e-05
4.86162e-05
4.71851e-05
4.58671e-05
4.45389e-05
4.34287e-05
4.25884e-05
4.1807e-05
4.10815e-05
4.04292e-05
3.98086e-05
3.91853e-05
3.85301e-05
3.78431e-05
3.71315e-05
3.64121e-05
3.56339e-05
3.4844e-05
3.40529e-05
3.31855e-05
3.22706e-05
3.13301e-05
3.03729e-05
2.93997e-05
2.84237e-05
2.74705e-05
2.65246e-05
2.55933e-05
2.46845e-05
2.38004e-05
2.28515e-05
2.20494e-05
2.14802e-05
2.10156e-05
2.04955e-05
1.99521e-05
1.94586e-05
1.89457e-05
1.84248e-05
1.79605e-05
1.74863e-05
1.62716e-05
2.01023e-05
1.75103e-05
2.96694e-05
0.000178065
0.000161871
0.000181369
0.000178281
0.000172305
0.000165535
0.000157611
0.000148793
0.000139165
0.00012891
0.000118077
0.000106881
9.54277e-05
8.39294e-05
7.26277e-05
6.22901e-05
5.46231e-05
5.16699e-05
5.33049e-05
5.68392e-05
6.03107e-05
6.30936e-05
6.50504e-05
6.62232e-05
6.67218e-05
6.66431e-05
6.61061e-05
6.51922e-05
6.399e-05
6.25704e-05
6.09933e-05
5.93045e-05
5.75446e-05
5.57315e-05
5.38917e-05
5.20654e-05
5.02662e-05
4.85302e-05
4.69038e-05
4.53967e-05
4.39208e-05
4.247e-05
4.12252e-05
4.02177e-05
3.92947e-05
3.848e-05
3.77827e-05
3.71675e-05
3.66017e-05
3.60582e-05
3.5524e-05
3.50025e-05
3.44925e-05
3.39386e-05
3.33593e-05
3.27577e-05
3.20812e-05
3.13456e-05
3.05679e-05
2.97547e-05
2.89086e-05
2.80398e-05
2.71676e-05
2.62805e-05
2.53908e-05
2.45217e-05
2.36828e-05
2.27853e-05
2.20124e-05
2.14229e-05
2.09434e-05
2.04416e-05
1.99088e-05
1.94225e-05
1.89112e-05
1.83828e-05
1.79049e-05
1.72944e-05
1.62684e-05
1.9711e-05
1.75647e-05
2.98324e-05
0.000156091
0.000138963
0.000161236
0.000160743
0.000158096
0.000154725
0.000150309
0.000145
0.000138822
0.000131904
0.000124312
0.000116156
0.000107567
9.86235e-05
8.94809e-05
8.02225e-05
7.1085e-05
6.23111e-05
5.45968e-05
4.90057e-05
4.66429e-05
4.72744e-05
4.93455e-05
5.16592e-05
5.36092e-05
5.50231e-05
5.58921e-05
5.6255e-05
5.61935e-05
5.57656e-05
5.50448e-05
5.40998e-05
5.29787e-05
5.17312e-05
5.0402e-05
4.90248e-05
4.76139e-05
4.61949e-05
4.47999e-05
4.34336e-05
4.20709e-05
4.07429e-05
3.95517e-05
3.84858e-05
3.74635e-05
3.65282e-05
3.56962e-05
3.4959e-05
3.43001e-05
3.37079e-05
3.31712e-05
3.26949e-05
3.22678e-05
3.18316e-05
3.13782e-05
3.09061e-05
3.03741e-05
2.97853e-05
2.91519e-05
2.84828e-05
2.77746e-05
2.7033e-05
2.62678e-05
2.54741e-05
2.46692e-05
2.38854e-05
2.31327e-05
2.23229e-05
2.16197e-05
2.10449e-05
2.05765e-05
2.01192e-05
1.96352e-05
1.91895e-05
1.87164e-05
1.82139e-05
1.77453e-05
1.70605e-05
1.62442e-05
1.93478e-05
1.76641e-05
2.99848e-05
0.000134079
0.000119635
0.000140103
0.000141459
0.00014101
0.000139917
0.000137977
0.000135201
0.000131645
0.000127335
0.000122321
0.000116683
0.000110511
0.000103858
9.68547e-05
8.95568e-05
8.20766e-05
7.45177e-05
6.70068e-05
5.97489e-05
5.3026e-05
4.74067e-05
4.36183e-05
4.21314e-05
4.25286e-05
4.38693e-05
4.53818e-05
4.66864e-05
4.76494e-05
4.82174e-05
4.84251e-05
4.8316e-05
4.79323e-05
4.73197e-05
4.65288e-05
4.55979e-05
4.45617e-05
4.34564e-05
4.23222e-05
4.11838e-05
4.00474e-05
3.89402e-05
3.78947e-05
3.6887e-05
3.5884e-05
3.493e-05
3.4038e-05
3.32097e-05
3.2445e-05
3.17458e-05
3.11212e-05
3.05893e-05
3.0134e-05
2.97012e-05
2.92753e-05
2.88522e-05
2.83969e-05
2.7904e-05
2.73791e-05
2.68285e-05
2.6244e-05
2.56209e-05
2.49666e-05
2.42781e-05
2.35769e-05
2.29005e-05
2.22545e-05
2.15532e-05
2.0945e-05
2.04037e-05
1.99549e-05
1.95694e-05
1.91534e-05
1.87737e-05
1.83624e-05
1.79145e-05
1.74828e-05
1.67777e-05
1.62078e-05
1.90358e-05
1.7789e-05
3.01461e-05
0.000116375
0.000101138
0.000121833
0.000123724
0.000124357
0.000124571
0.000124116
0.000122998
0.000121233
0.0001188
0.00011573
0.000112057
0.000107829
0.000103087
9.79057e-05
9.23551e-05
8.64919e-05
8.04131e-05
7.41777e-05
6.78767e-05
6.16005e-05
5.54927e-05
4.97561e-05
4.46845e-05
4.0721e-05
3.83686e-05
3.7644e-05
3.80924e-05
3.90739e-05
4.01393e-05
4.10495e-05
4.17038e-05
4.20685e-05
4.21524e-05
4.19862e-05
4.16003e-05
4.104e-05
4.03479e-05
3.95736e-05
3.87471e-05
3.78895e-05
3.70154e-05
3.6131e-05
3.52322e-05
3.43218e-05
3.34317e-05
3.25673e-05
3.17312e-05
3.09335e-05
3.01846e-05
2.95034e-05
2.89079e-05
2.83809e-05
2.78836e-05
2.74092e-05
2.69599e-05
2.65035e-05
2.60317e-05
2.55496e-05
2.50602e-05
2.45502e-05
2.40082e-05
2.34392e-05
2.28429e-05
2.22424e-05
2.16753e-05
2.11406e-05
2.05532e-05
2.00405e-05
1.95272e-05
1.91104e-05
1.88199e-05
1.84956e-05
1.82086e-05
1.78913e-05
1.75218e-05
1.71522e-05
1.65009e-05
1.62126e-05
1.88029e-05
1.79221e-05
3.03746e-05
9.88432e-05
8.6963e-05
0.000104533
0.000107195
0.000108546
0.000109578
0.00011007
0.000110033
0.000109457
0.000108325
0.000106643
0.000104428
0.000101694
9.84719e-05
9.47984e-05
9.07255e-05
8.62991e-05
8.15822e-05
7.66237e-05
7.1484e-05
6.62438e-05
6.09494e-05
5.57073e-05
5.05867e-05
4.57334e-05
4.13766e-05
3.77813e-05
3.52708e-05
3.40003e-05
3.38123e-05
3.42814e-05
3.49912e-05
3.56834e-05
3.62163e-05
3.65399e-05
3.66495e-05
3.65678e-05
3.63294e-05
3.59672e-05
3.55017e-05
3.49505e-05
3.43234e-05
3.36331e-05
3.28933e-05
3.21224e-05
3.1345e-05
3.05665e-05
2.97989e-05
2.90511e-05
2.8341e-05
2.76765e-05
2.70704e-05
2.65063e-05
2.59658e-05
2.54493e-05
2.49586e-05
2.44753e-05
2.39925e-05
2.35195e-05
2.30516e-05
2.25761e-05
2.20779e-05
2.15638e-05
2.10352e-05
2.05171e-05
2.00412e-05
1.96011e-05
1.91106e-05
1.86805e-05
1.81851e-05
1.78133e-05
1.76491e-05
1.74412e-05
1.72723e-05
1.70497e-05
1.67633e-05
1.64942e-05
1.59458e-05
1.59867e-05
1.84706e-05
1.75938e-05
3.05944e-05
8.90762e-05
7.59236e-05
9.24655e-05
9.44858e-05
9.61209e-05
9.7572e-05
9.86015e-05
9.92306e-05
9.94231e-05
9.9142e-05
9.84037e-05
9.72016e-05
9.55429e-05
9.34337e-05
9.08941e-05
8.79688e-05
8.46754e-05
8.10634e-05
7.71681e-05
7.30362e-05
6.87493e-05
6.43136e-05
5.98181e-05
5.53183e-05
5.089e-05
4.66177e-05
4.2631e-05
3.91189e-05
3.62769e-05
3.43216e-05
3.32708e-05
3.29723e-05
3.31609e-05
3.35426e-05
3.3949e-05
3.42811e-05
3.44996e-05
3.46009e-05
3.4574e-05
3.44289e-05
3.41632e-05
3.37904e-05
3.33232e-05
3.27805e-05
3.2181e-05
3.1539e-05
3.08692e-05
3.01816e-05
2.9494e-05
2.88114e-05
2.81443e-05
2.7489e-05
2.68422e-05
2.6197e-05
2.55613e-05
2.49347e-05
2.43116e-05
2.36934e-05
2.30866e-05
2.24868e-05
2.18819e-05
2.12658e-05
2.06521e-05
2.00499e-05
1.94939e-05
1.90129e-05
1.85968e-05
1.81612e-05
1.77859e-05
1.73137e-05
1.70221e-05
1.70089e-05
1.69351e-05
1.68914e-05
1.6787e-05
1.66573e-05
1.65315e-05
1.61295e-05
1.64468e-05
1.84455e-05
1.68415e-05
3.15877e-05
6.99863e-05
5.51555e-05
7.45916e-05
7.70703e-05
7.89114e-05
8.0662e-05
8.20816e-05
8.3199e-05
8.39829e-05
8.43977e-05
8.44582e-05
8.41439e-05
8.346e-05
8.23988e-05
8.09768e-05
7.92134e-05
7.71139e-05
7.47111e-05
7.20218e-05
6.90844e-05
6.59398e-05
6.25916e-05
5.91066e-05
5.55104e-05
5.18492e-05
4.8157e-05
4.44969e-05
4.09426e-05
3.75813e-05
3.45525e-05
3.19569e-05
2.99655e-05
2.86704e-05
2.80012e-05
2.78206e-05
2.79363e-05
2.82147e-05
2.85275e-05
2.87939e-05
2.89694e-05
2.90376e-05
2.89947e-05
2.88521e-05
2.86087e-05
2.82803e-05
2.78819e-05
2.74327e-05
2.69366e-05
2.64091e-05
2.58557e-05
2.52852e-05
2.46933e-05
2.40746e-05
2.34417e-05
2.28021e-05
2.21617e-05
2.15129e-05
2.08659e-05
2.0221e-05
1.95802e-05
1.89279e-05
1.82773e-05
1.7635e-05
1.70352e-05
1.65e-05
1.60697e-05
1.56901e-05
1.53381e-05
1.51026e-05
1.46344e-05
1.42985e-05
1.43727e-05
1.43552e-05
1.43689e-05
1.43071e-05
1.42114e-05
1.40801e-05
1.36722e-05
1.44978e-05
1.62303e-05
1.30166e-05
3.09506e-05
)
;

boundaryField
{
    inlet
    {
        type            calculated;
        value           nonuniform List<scalar> 
23
(
6.02734e-05
5.97382e-05
5.92241e-05
5.87377e-05
5.82808e-05
5.78518e-05
5.74439e-05
5.70515e-05
5.66672e-05
5.6285e-05
5.58967e-05
5.55034e-05
5.5063e-05
5.45769e-05
5.41162e-05
5.35374e-05
5.28326e-05
5.19911e-05
5.09879e-05
4.9813e-05
4.83847e-05
4.72558e-05
4.48584e-05
)
;
    }
    outlet
    {
        type            calculated;
        value           nonuniform List<scalar> 
82
(
7.07667e-05
7.53746e-05
5.61064e-05
7.78414e-05
7.96689e-05
8.14046e-05
8.28109e-05
8.39171e-05
8.46921e-05
8.51011e-05
8.51587e-05
8.48445e-05
8.41635e-05
8.31082e-05
8.1695e-05
7.99431e-05
7.78577e-05
7.54715e-05
7.2801e-05
6.98842e-05
6.67609e-05
6.34342e-05
5.99691e-05
5.63875e-05
5.27313e-05
4.90268e-05
4.53249e-05
4.16794e-05
3.81487e-05
3.4835e-05
3.17981e-05
2.92003e-05
2.71856e-05
2.57963e-05
2.50193e-05
2.47117e-05
2.4743e-05
2.49248e-05
2.51365e-05
2.52941e-05
2.53682e-05
2.53408e-05
2.52236e-05
2.50065e-05
2.47069e-05
2.43411e-05
2.39316e-05
2.3481e-05
2.30059e-05
2.2512e-05
2.20093e-05
2.14905e-05
2.09434e-05
2.03845e-05
1.98239e-05
1.92645e-05
1.87008e-05
1.81403e-05
1.75892e-05
1.70404e-05
1.64797e-05
1.5912e-05
1.53447e-05
1.48119e-05
1.43349e-05
1.396e-05
1.3626e-05
1.3302e-05
1.30964e-05
1.25887e-05
1.22149e-05
1.23543e-05
1.23681e-05
1.2428e-05
1.23771e-05
1.22948e-05
1.22216e-05
1.18364e-05
1.29324e-05
1.51174e-05
1.22545e-05
2.93076e-05
)
;
    }
    walls
    {
        type            calculated;
        value           nonuniform List<scalar> 0();
    }
    frontAndBack
    {
        type            empty;
    }
    procBoundary3to2
    {
        type            processor;
        value           nonuniform List<scalar> 
88
(
1.89165e-05
3.08931e-05
1.39865e-05
2.31474e-05
2.31474e-05
1.72132e-05
1.82565e-05
1.82565e-05
1.87589e-05
1.83911e-05
1.80997e-05
1.80997e-05
1.94863e-05
1.95353e-05
1.96432e-05
1.92487e-05
1.87904e-05
1.87904e-05
2.10138e-05
2.04643e-05
2.00361e-05
1.96494e-05
1.92009e-05
1.92009e-05
2.58105e-05
2.4959e-05
2.40991e-05
2.32154e-05
2.24027e-05
2.17022e-05
2.11798e-05
2.11798e-05
4.14945e-05
3.9614e-05
3.78144e-05
3.60154e-05
3.42551e-05
3.25414e-05
3.09127e-05
2.94259e-05
2.81437e-05
2.70037e-05
2.59771e-05
2.53188e-05
2.53188e-05
0.0002512
0.000244667
0.000218472
0.000206978
0.000196581
0.000185749
0.000175763
0.000166018
0.000156743
0.000148158
0.000140202
0.000132809
0.000125993
0.000119691
0.000113875
0.000108479
0.000103507
9.89225e-05
9.47065e-05
9.08054e-05
8.71978e-05
8.38367e-05
8.0688e-05
7.77061e-05
7.48563e-05
7.21108e-05
6.9471e-05
6.69027e-05
6.44098e-05
6.20037e-05
5.96915e-05
5.74635e-05
5.53101e-05
5.32434e-05
5.12554e-05
4.93653e-05
4.75563e-05
4.5776e-05
4.4081e-05
4.22376e-05
4.02932e-05
3.88665e-05
3.88665e-05
)
;
    }
    procBoundary3to6
    {
        type            processor;
        value           uniform 0.000236004;
    }
    procBoundary3to7
    {
        type            processor;
        value           nonuniform List<scalar> 
16
(
0.000229432
0.000215782
0.000169944
9.57643e-05
0.000127283
0.000182734
0.000197964
0.000188623
0.000188623
0.000146983
0.000124751
0.000106348
8.94642e-05
7.61707e-05
6.89445e-05
4.52576e-05
)
;
    }
}


// ************************************************************************* //
