/*--------------------------------*- C++ -*----------------------------------*\
| =========                 |                                                 |
| \\      /  F ield         | OpenFOAM: The Open Source CFD Toolbox           |
|  \\    /   O peration     | Version:  2306                                  |
|   \\  /    A nd           | Website:  www.openfoam.com                      |
|    \\/     M anipulation  |                                                 |
\*---------------------------------------------------------------------------*/
FoamFile
{
    version     2.0;
    format      ascii;
    arch        "LSB;label=32;scalar=64";
    class       volSymmTensorField;
    location    "25";
    object      turbulenceProperties:R;
}
// * * * * * * * * * * * * * * * * * * * * * * * * * * * * * * * * * * * * * //

dimensions      [0 2 -2 0 0 0 0];

internalField   nonuniform List<symmTensor> 
1340
(
(2.35487e-07 6.66391e-09 -4.14416e-20 2.14144e-07 -5.46266e-21 2.52071e-07)
(5.72775e-07 -9.49152e-09 2.07394e-20 7.1581e-07 2.58898e-21 6.07438e-07)
(1.20555e-07 -8.54608e-09 -8.14834e-20 1.50135e-07 -1.04395e-20 1.39331e-07)
(3.23024e-07 -4.63373e-09 -1.27185e-20 4.08705e-07 -1.53612e-21 3.49125e-07)
(2.28069e-07 6.78327e-09 6.1506e-21 2.09486e-07 7.21797e-22 2.45646e-07)
(5.65e-07 -9.64732e-09 -8.39017e-20 7.0407e-07 -1.03334e-20 5.9676e-07)
(1.79371e-07 -1.3088e-08 -0 2.23992e-07 -4.00704e-23 2.01004e-07)
(2.02606e-07 -1.3393e-08 -2.76131e-20 2.53251e-07 -3.39068e-21 2.23043e-07)
(1.24793e-07 -8.60113e-09 7.7615e-20 1.55865e-07 9.97643e-21 1.44195e-07)
(3.23371e-07 -5.21107e-09 3.90719e-20 4.08858e-07 4.87483e-21 3.49222e-07)
(2.22449e-07 7.18711e-09 8.55576e-24 2.06519e-07 4.6471e-23 2.41065e-07)
(5.58462e-07 -9.77756e-09 6.93614e-20 6.9404e-07 8.51208e-21 5.87655e-07)
(2.04302e-07 -1.31921e-08 -3.535e-20 2.57143e-07 -4.35214e-21 2.29401e-07)
(1.99622e-07 -1.30667e-08 7.88694e-22 2.51037e-07 1.72887e-22 2.23973e-07)
(1.95077e-07 -1.34081e-08 4.83504e-21 2.44475e-07 5.93778e-22 2.18141e-07)
(1.81458e-07 -1.38549e-08 -0 2.25725e-07 -8.85981e-24 2.02954e-07)
(2.05917e-07 -1.41374e-08 -1.00485e-22 2.56796e-07 -1.8844e-23 2.26537e-07)
(1.31565e-07 -8.74779e-09 4.72352e-22 1.64846e-07 8.95152e-23 1.52013e-07)
(3.2338e-07 -5.73144e-09 2.44682e-22 4.08813e-07 4.62152e-23 3.49294e-07)
(2.20108e-07 7.48366e-09 1.03762e-24 2.06395e-07 -5.24772e-25 2.39891e-07)
(5.52321e-07 -1.00768e-08 2.50417e-22 6.84643e-07 4.71506e-23 5.7923e-07)
(2.13638e-07 -1.14744e-08 2.52225e-21 2.69553e-07 3.75007e-22 2.35887e-07)
(2.17937e-07 -1.29399e-08 1.06489e-20 2.74169e-07 1.31169e-21 2.40997e-07)
(2.22265e-07 -1.41984e-08 1.08116e-20 2.78705e-07 1.16715e-21 2.45734e-07)
(2.13116e-07 -1.37728e-08 -3.75983e-20 2.67566e-07 -4.60881e-21 2.36921e-07)
(2.03421e-07 -1.34929e-08 9.79767e-21 2.55404e-07 1.27454e-21 2.27355e-07)
(1.99743e-07 -1.32985e-08 -1.49045e-20 2.50797e-07 -1.88383e-21 2.23485e-07)
(1.98607e-07 -1.34237e-08 8.57694e-23 2.49118e-07 1.2451e-22 2.22032e-07)
(1.96141e-07 -1.40554e-08 3.55439e-20 2.44978e-07 4.45052e-21 2.18658e-07)
(1.85388e-07 -1.47404e-08 -0 2.29698e-07 -6.28516e-23 2.06798e-07)
(2.0893e-07 -1.48221e-08 2.05515e-21 2.60079e-07 1.62135e-22 2.29925e-07)
(1.37615e-07 -8.52374e-09 -7.08579e-20 1.73193e-07 -9.11715e-21 1.59307e-07)
(3.22482e-07 -5.69734e-09 -3.56204e-20 4.07879e-07 -4.45844e-21 3.48615e-07)
(2.19423e-07 7.91046e-09 -2.31844e-21 2.07655e-07 -2.55743e-22 2.40332e-07)
(5.47318e-07 -1.06706e-08 9.10619e-21 6.76729e-07 1.13119e-21 5.72196e-07)
(2.64016e-07 -8.99433e-09 2.08311e-20 3.27764e-07 2.26814e-21 2.78895e-07)
(2.49645e-07 -9.20777e-09 -1.9253e-20 3.1121e-07 -2.38098e-21 2.65712e-07)
(2.37919e-07 -9.36145e-09 -5.00846e-21 2.97642e-07 -6.2949e-22 2.55006e-07)
(2.25667e-07 -9.61855e-09 -3.10887e-20 2.83266e-07 -3.7134e-21 2.43792e-07)
(2.10307e-07 -1.00184e-08 -7.16056e-21 2.64748e-07 -7.40781e-22 2.29396e-07)
(2.02558e-07 -1.03236e-08 5.02933e-21 2.55316e-07 6.38383e-22 2.22316e-07)
(2.12257e-07 -1.20051e-08 2.55326e-21 2.66809e-07 2.93844e-22 2.33194e-07)
(2.18897e-07 -1.35201e-08 3.83859e-23 2.74241e-07 1.56368e-23 2.40524e-07)
(2.11004e-07 -1.33389e-08 6.33267e-21 2.64713e-07 7.143e-22 2.33285e-07)
(2.03624e-07 -1.35866e-08 -1.72215e-20 2.55185e-07 -2.04802e-21 2.26278e-07)
(2.00336e-07 -1.39808e-08 3.26856e-20 2.50533e-07 4.03644e-21 2.23018e-07)
(1.9805e-07 -1.41029e-08 -2.11839e-20 2.47389e-07 -2.78856e-21 2.20569e-07)
(1.96831e-07 -1.47301e-08 -3.35917e-20 2.4491e-07 -4.14522e-21 2.18796e-07)
(1.87219e-07 -1.51294e-08 -0 2.31555e-07 6.22043e-23 2.08547e-07)
(2.09718e-07 -1.49592e-08 -1.95877e-21 2.61131e-07 -1.5209e-22 2.31185e-07)
(1.42042e-07 -7.98072e-09 6.73004e-20 1.7965e-07 8.65634e-21 1.64806e-07)
(3.20581e-07 -5.4803e-09 3.37187e-20 4.05708e-07 4.20718e-21 3.4685e-07)
(2.19225e-07 8.19625e-09 2.20364e-21 2.08956e-07 2.39947e-22 2.41031e-07)
(5.43653e-07 -1.16224e-08 -8.60032e-21 6.70527e-07 -1.06261e-21 5.66764e-07)
(3.91458e-07 -1.977e-08 -2.25849e-21 4.63304e-07 -3.74799e-22 3.93171e-07)
(3.67665e-07 -1.69761e-08 -1.22424e-20 4.39929e-07 -1.53802e-21 3.72862e-07)
(3.45755e-07 -1.4102e-08 -2.18356e-20 4.17879e-07 -2.35602e-21 3.53791e-07)
(3.25337e-07 -1.1651e-08 7.71726e-21 3.96492e-07 1.03388e-21 3.35544e-07)
(3.07722e-07 -9.93299e-09 -1.96661e-21 3.77429e-07 -2.13646e-22 3.19503e-07)
(2.8608e-07 -8.7575e-09 9.95086e-21 3.5282e-07 1.30309e-21 2.99003e-07)
(2.60271e-07 -7.77878e-09 2.56787e-20 3.22841e-07 2.9507e-21 2.74117e-07)
(2.55988e-07 -7.26852e-09 1.07977e-22 3.18397e-07 -4.4693e-23 2.70508e-07)
(2.56316e-07 -7.78106e-09 1.51778e-20 3.19563e-07 1.76995e-21 2.72013e-07)
(2.42632e-07 -8.18277e-09 -1.36995e-21 3.03464e-07 -2.23854e-22 2.59145e-07)
(2.31914e-07 -8.60451e-09 1.37243e-21 2.90993e-07 2.16811e-22 2.49454e-07)
(2.18948e-07 -9.72451e-09 1.3666e-20 2.75098e-07 1.62242e-21 2.3727e-07)
(2.07383e-07 -1.07737e-08 -4.74149e-21 2.60515e-07 -6.26529e-22 2.26241e-07)
(2.11877e-07 -1.25818e-08 -2.38521e-21 2.65275e-07 -2.68771e-22 2.31645e-07)
(2.18054e-07 -1.40125e-08 7.93985e-23 2.72168e-07 2.15895e-23 2.38523e-07)
(2.1021e-07 -1.3791e-08 -5.11186e-23 2.62792e-07 -1.20466e-23 2.31356e-07)
(2.03254e-07 -1.39245e-08 -1.23808e-22 2.53988e-07 -7.37781e-23 2.24866e-07)
(1.99298e-07 -1.41278e-08 -1.78322e-20 2.48778e-07 -2.15726e-21 2.2119e-07)
(1.96694e-07 -1.4361e-08 2.01581e-20 2.45137e-07 2.55942e-21 2.18567e-07)
(1.9578e-07 -1.49453e-08 -1.15052e-22 2.43155e-07 -6.79881e-23 2.17364e-07)
(1.87349e-07 -1.5126e-08 -0 2.31721e-07 3.27189e-24 2.0864e-07)
(2.0891e-07 -1.47488e-08 1.85766e-21 2.60468e-07 1.30055e-22 2.30756e-07)
(1.45384e-07 -7.37442e-09 -6.8607e-20 1.8466e-07 -8.77587e-21 1.68955e-07)
(3.17592e-07 -5.25116e-09 8.72779e-23 4.02104e-07 1.06718e-22 3.43832e-07)
(2.18823e-07 8.25787e-09 -6.27201e-21 2.09593e-07 -8.31165e-22 2.41241e-07)
(5.41213e-07 -1.29215e-08 -3.16089e-23 6.65807e-07 -4.02714e-25 5.62723e-07)
(9.86925e-07 -7.28509e-08 2.18669e-21 9.94817e-07 9.16045e-25 8.91269e-07)
(8.90359e-07 -6.49801e-08 -1.383e-20 9.06555e-07 -1.47124e-21 8.07742e-07)
(8.02643e-07 -5.62625e-08 -2.77404e-22 8.29123e-07 3.51912e-22 7.32438e-07)
(7.25519e-07 -4.88107e-08 1.25317e-20 7.61088e-07 1.15036e-21 6.66865e-07)
(6.54876e-07 -4.19676e-08 -1.33627e-20 6.98215e-07 -1.55813e-21 6.06978e-07)
(5.9288e-07 -3.60479e-08 2.43786e-21 6.42705e-07 4.53557e-22 5.54751e-07)
(5.38596e-07 -3.10554e-08 9.42284e-22 5.93761e-07 4.82428e-23 5.09368e-07)
(4.93332e-07 -2.70229e-08 -2.26204e-21 5.53052e-07 -7.60398e-23 4.72083e-07)
(4.56723e-07 -2.35066e-08 1.57677e-20 5.20611e-07 1.99168e-21 4.42551e-07)
(4.27915e-07 -2.07038e-08 2.21044e-20 4.95401e-07 2.28421e-21 4.19923e-07)
(3.86543e-07 -1.85355e-08 1.6453e-21 4.53587e-07 4.95872e-24 3.84276e-07)
(3.30585e-07 -1.59741e-08 5.81087e-21 3.92575e-07 5.72797e-22 3.32817e-07)
(3.38698e-07 -1.3527e-08 -6.24472e-21 4.07583e-07 -7.55767e-22 3.44668e-07)
(3.65811e-07 -1.25108e-08 -5.53966e-23 4.4455e-07 3.25883e-22 3.75699e-07)
(3.47627e-07 -1.12913e-08 3.29005e-20 4.25925e-07 3.74047e-21 3.60442e-07)
(3.322e-07 -9.97079e-09 3.66827e-23 4.09575e-07 -3.98564e-22 3.46959e-07)
(3.17782e-07 -9.00856e-09 -1.87015e-20 3.93649e-07 -2.18484e-21 3.33844e-07)
(3.02822e-07 -8.29915e-09 -3.82272e-21 3.76554e-07 -4.18343e-22 3.19751e-07)
(2.89477e-07 -8.51803e-09 -1.7576e-20 3.60721e-07 -2.04188e-21 3.06847e-07)
(2.76758e-07 -9.44869e-09 -4.12256e-21 3.44886e-07 -3.74297e-22 2.93998e-07)
(2.62914e-07 -9.2756e-09 1.43823e-22 3.28388e-07 -6.89801e-23 2.80436e-07)
(2.49168e-07 -9.49011e-09 -2.15749e-20 3.11873e-07 -2.57253e-21 2.6708e-07)
(2.38687e-07 -9.68306e-09 -1.41781e-21 2.99371e-07 -8.27032e-23 2.5713e-07)
(2.25521e-07 -1.04107e-08 -5.25884e-21 2.83103e-07 -6.18868e-22 2.44347e-07)
(2.11441e-07 -1.07389e-08 -3.87903e-23 2.65758e-07 2.31295e-23 2.30638e-07)
(2.12846e-07 -1.24921e-08 2.26673e-21 2.66532e-07 1.92575e-22 2.3257e-07)
(2.17261e-07 -1.3857e-08 -1.8379e-20 2.71191e-07 -2.19292e-21 2.37506e-07)
(2.09215e-07 -1.36787e-08 1.67047e-20 2.61446e-07 2.17685e-21 2.29945e-07)
(2.01875e-07 -1.37511e-08 1.53632e-20 2.52223e-07 1.92542e-21 2.2303e-07)
(1.97647e-07 -1.39235e-08 2.7949e-20 2.46737e-07 3.32723e-21 2.19128e-07)
(1.95145e-07 -1.42998e-08 -3.24946e-20 2.43098e-07 -4.12962e-21 2.16699e-07)
(1.94289e-07 -1.49431e-08 -5.6071e-23 2.41143e-07 7.04509e-23 2.15661e-07)
(1.8728e-07 -1.50351e-08 -0 2.31764e-07 -3.27083e-24 2.08609e-07)
(2.07221e-07 -1.44076e-08 -1.75484e-21 2.58773e-07 -1.93945e-22 2.2936e-07)
(1.47942e-07 -6.81253e-09 1.75419e-20 1.88544e-07 2.23787e-21 1.72058e-07)
(3.1362e-07 -5.09908e-09 7.49489e-21 3.97165e-07 9.34713e-22 3.39642e-07)
(2.17933e-07 8.08587e-09 -7.34346e-21 2.09315e-07 -9.84413e-22 2.40678e-07)
(5.39926e-07 -1.45321e-08 1.13691e-24 6.62406e-07 6.52476e-24 5.59934e-07)
(4.07176e-05 -6.61234e-06 2.86912e-21 4.3463e-05 2.46435e-22 4.04952e-05)
(4.43177e-05 -6.88541e-06 2.65369e-21 4.81983e-05 2.28346e-22 4.40977e-05)
(4.17833e-05 -6.42521e-06 -1.46478e-22 4.53599e-05 3.11899e-24 4.15635e-05)
(3.61644e-05 -5.69553e-06 5.82391e-22 3.80008e-05 5.08901e-23 3.59378e-05)
(3.28728e-05 -5.06299e-06 7.1925e-22 3.47415e-05 6.11914e-23 3.26334e-05)
(2.93661e-05 -4.4562e-06 3.08235e-22 3.0937e-05 6.71011e-23 2.91121e-05)
(2.60472e-05 -3.90433e-06 1.49785e-22 2.73004e-05 -5.77525e-24 2.57769e-05)
(2.30072e-05 -3.39997e-06 -2.26903e-21 2.40228e-05 -2.63117e-22 2.27217e-05)
(2.01863e-05 -2.9408e-06 -8.66022e-22 2.09615e-05 -4.42224e-23 1.98875e-05)
(1.76528e-05 -2.53346e-06 1.89199e-21 1.82235e-05 1.90424e-22 1.73433e-05)
(1.54232e-05 -2.17992e-06 -0 1.58271e-05 2.84214e-23 1.5105e-05)
(1.34655e-05 -1.87487e-06 -9.99751e-23 1.37259e-05 4.82419e-23 1.31411e-05)
(1.17636e-05 -1.61377e-06 3.51041e-21 1.18987e-05 3.05626e-22 1.1435e-05)
(1.02903e-05 -1.39098e-06 1.0294e-22 1.03163e-05 1.10486e-23 9.95991e-06)
(9.02372e-06 -1.20152e-06 3.4317e-21 8.95401e-06 3.1517e-22 8.69329e-06)
(7.93774e-06 -1.0401e-06 2.07855e-22 7.78943e-06 -4.5812e-23 7.6093e-06)
(7.01411e-06 -9.03239e-07 6.44684e-22 6.79982e-06 1.23905e-22 6.68927e-06)
(6.23109e-06 -7.87151e-07 2.343e-21 5.96156e-06 2.72568e-22 5.91132e-06)
(5.57498e-06 -6.89318e-07 1.1098e-21 5.26008e-06 1.2995e-22 5.26147e-06)
(5.02516e-06 -6.06587e-07 2.95042e-21 4.67423e-06 2.31573e-22 4.7189e-06)
(4.56672e-06 -5.36985e-07 -2.57951e-21 4.18961e-06 -3.83719e-22 4.2685e-06)
(4.17874e-06 -4.77981e-07 -3.65947e-21 3.78543e-06 -3.19191e-22 3.8891e-06)
(3.84728e-06 -4.27901e-07 1.21721e-21 3.44599e-06 1.58589e-22 3.5667e-06)
(3.55566e-06 -3.84788e-07 -8.58494e-22 3.15433e-06 -1.61415e-22 3.28439e-06)
(3.29078e-06 -3.47225e-07 -2.43956e-21 2.89727e-06 -2.54671e-22 3.02914e-06)
(3.04126e-06 -3.13742e-07 -2.0729e-21 2.66305e-06 -5.08176e-23 2.78934e-06)
(2.80298e-06 -2.83538e-07 4.10063e-21 2.4459e-06 4.14197e-22 2.56106e-06)
(2.57661e-06 -2.55836e-07 -1.38038e-21 2.24332e-06 -2.16848e-22 2.34465e-06)
(2.36047e-06 -2.30282e-07 5.13433e-22 2.05329e-06 3.92462e-23 2.1387e-06)
(2.1542e-06 -2.06452e-07 -1.77354e-21 1.87525e-06 -1.21686e-22 1.9424e-06)
(1.95959e-06 -1.84431e-07 2.79334e-21 1.71051e-06 3.67407e-22 1.758e-06)
(1.78076e-06 -1.64053e-07 1.70353e-21 1.56114e-06 1.55942e-22 1.58914e-06)
(1.61642e-06 -1.45301e-07 1.98649e-21 1.42684e-06 2.84084e-22 1.43509e-06)
(1.4691e-06 -1.27914e-07 4.87732e-21 1.3089e-06 3.35277e-22 1.29791e-06)
(1.33897e-06 -1.12103e-07 -3.71047e-21 1.20857e-06 -5.47636e-22 1.17835e-06)
(1.2288e-06 -9.77895e-08 -2.05385e-21 1.12641e-06 -9.94459e-23 1.07861e-06)
(1.1366e-06 -8.53067e-08 1.80537e-22 1.0611e-06 4.75349e-24 9.97352e-07)
(1.06077e-06 -7.45156e-08 -2.37122e-21 1.00912e-06 -2.72517e-22 9.32291e-07)
(9.9608e-07 -6.55621e-08 -9.39396e-22 9.66268e-07 -1.11026e-22 8.78852e-07)
(9.3462e-07 -5.60044e-08 -3.7432e-21 9.22938e-07 -3.32804e-22 8.27763e-07)
(8.7932e-07 -4.78695e-08 1.29955e-21 8.84437e-07 2.35139e-22 7.83283e-07)
(7.97661e-07 -4.33892e-08 1.64547e-21 8.06452e-07 4.71348e-23 7.12448e-07)
(6.7535e-07 -3.65644e-08 -4.17973e-21 6.75379e-07 -3.95822e-22 5.99881e-07)
(6.5737e-07 -3.14095e-08 3.29177e-21 6.76185e-07 4.00647e-22 5.90844e-07)
(6.69149e-07 -2.98611e-08 -1.2551e-22 7.14949e-07 -8.4666e-23 6.14857e-07)
(6.12765e-07 -2.6125e-08 -6.67801e-25 6.65526e-07 5.10301e-23 5.69043e-07)
(5.73959e-07 -2.29569e-08 5.66888e-23 6.35935e-07 5.26733e-23 5.40469e-07)
(5.38209e-07 -2.01827e-08 3.33158e-21 6.07225e-07 1.43884e-22 5.13811e-07)
(5.07199e-07 -1.79614e-08 -1.14634e-20 5.8239e-07 -1.27912e-21 4.91306e-07)
(4.80593e-07 -1.61848e-08 3.91946e-24 5.60494e-07 1.90143e-22 4.72063e-07)
(4.58935e-07 -1.50098e-08 5.4748e-23 5.43032e-07 -4.61953e-23 4.57196e-07)
(4.40493e-07 -1.41259e-08 -4.36485e-21 5.27555e-07 -4.64365e-22 4.44431e-07)
(4.21621e-07 -1.30862e-08 1.91089e-22 5.10329e-07 7.82605e-23 4.30391e-07)
(4.02532e-07 -1.25862e-08 -5.14425e-22 4.91811e-07 -6.96266e-23 4.15624e-07)
(3.89921e-07 -1.38454e-08 8.13473e-24 4.7898e-07 -2.34548e-23 4.06085e-07)
(3.83279e-07 -1.50956e-08 -2.42043e-21 4.72016e-07 -2.75928e-22 4.01267e-07)
(3.74564e-07 -1.38055e-08 3.471e-23 4.63881e-07 -9.93133e-23 3.94735e-07)
(3.58976e-07 -1.34433e-08 -1.40191e-20 4.46369e-07 -1.57597e-21 3.80661e-07)
(3.43524e-07 -1.27737e-08 2.86728e-24 4.28628e-07 2.59692e-22 3.6615e-07)
(3.30021e-07 -1.20461e-08 1.57021e-20 4.12716e-07 1.79777e-21 3.52901e-07)
(3.17637e-07 -1.15009e-08 -1.85504e-23 3.97942e-07 -5.80274e-24 3.406e-07)
(3.06025e-07 -1.12526e-08 1.67735e-20 3.83637e-07 1.94966e-21 3.28606e-07)
(2.89826e-07 -1.0887e-08 -1.02997e-21 3.63699e-07 -3.25354e-22 3.11894e-07)
(2.72094e-07 -1.04087e-08 -1.39224e-20 3.41797e-07 -1.64914e-21 2.93454e-07)
(2.58014e-07 -1.02439e-08 -2.18264e-22 3.24487e-07 3.78106e-23 2.79105e-07)
(2.46672e-07 -1.02983e-08 -1.38306e-23 3.10408e-07 2.65306e-23 2.6752e-07)
(2.31793e-07 -1.06976e-08 5.08166e-21 2.91766e-07 6.35343e-22 2.52436e-07)
(2.16129e-07 -1.06357e-08 4.34237e-21 2.72362e-07 5.01167e-22 2.36636e-07)
(2.15754e-07 -1.22723e-08 4.5817e-23 2.70825e-07 -1.33218e-23 2.36408e-07)
(2.18177e-07 -1.35992e-08 -1.28559e-22 2.72854e-07 -2.57323e-23 2.38983e-07)
(2.09361e-07 -1.34159e-08 8.05864e-23 2.62016e-07 -3.6929e-23 2.30403e-07)
(2.01361e-07 -1.34849e-08 -1.45771e-20 2.51883e-07 -1.87306e-21 2.22635e-07)
(1.97234e-07 -1.37541e-08 -2.2542e-20 2.46392e-07 -2.65967e-21 2.18727e-07)
(1.94557e-07 -1.42571e-08 3.2065e-20 2.42365e-07 4.09345e-21 2.16053e-07)
(1.93404e-07 -1.49602e-08 1.54339e-20 2.39944e-07 1.85262e-21 2.14725e-07)
(1.87472e-07 -1.49593e-08 -0 2.3215e-07 -4.51577e-23 2.08926e-07)
(2.05134e-07 -1.40615e-08 -5.09322e-21 2.56538e-07 -5.75159e-22 2.275e-07)
(1.49806e-07 -6.35218e-09 4.54074e-20 1.914e-07 5.78066e-21 1.74224e-07)
(3.08502e-07 -5.02738e-09 -3.48904e-20 3.90701e-07 -4.53748e-21 3.34129e-07)
(2.16443e-07 7.7273e-09 1.83766e-21 2.08037e-07 2.87336e-22 2.39221e-07)
(5.3984e-07 -1.64211e-08 1.06337e-24 6.60377e-07 -9.84102e-25 5.58452e-07)
(3.87202e-05 -5.5744e-06 -1.81479e-22 4.35808e-05 1.34352e-23 3.89198e-05)
(4.2371e-05 -6.37695e-06 3.18914e-22 4.7186e-05 7.25035e-24 4.26326e-05)
(4.00463e-05 -6.24074e-06 -3.77032e-22 4.37821e-05 -5.62968e-23 4.03515e-05)
(3.66189e-05 -5.79802e-06 -1.34545e-22 3.93045e-05 5.03616e-24 3.6943e-05)
(3.41006e-05 -5.33383e-06 1.20432e-24 3.66823e-05 2.58909e-24 3.44276e-05)
(3.10312e-05 -4.83545e-06 1.34357e-25 3.31794e-05 -8.91508e-23 3.13496e-05)
(2.79703e-05 -4.33127e-06 -2.42936e-21 2.97723e-05 -2.01954e-22 2.82716e-05)
(2.49619e-05 -3.82867e-06 9.54885e-22 2.64916e-05 1.67917e-22 2.52394e-05)
(2.20643e-05 -3.34698e-06 8.90313e-23 2.3345e-05 -6.17295e-23 2.23139e-05)
(1.93738e-05 -2.90285e-06 -1.42294e-21 2.04554e-05 -1.37178e-22 1.95936e-05)
(1.69225e-05 -2.50388e-06 -0 1.78367e-05 -4.21057e-23 1.71128e-05)
(1.47109e-05 -2.14982e-06 -2.54633e-21 1.54796e-05 -2.71917e-22 1.48727e-05)
(1.27442e-05 -1.84026e-06 -1.00887e-21 1.33856e-05 -2.61361e-23 1.28795e-05)
(1.10068e-05 -1.57164e-06 1.54664e-25 1.15345e-05 -5.58612e-23 1.11179e-05)
(9.48695e-06 -1.34067e-06 -2.40927e-21 9.91421e-06 -1.7177e-22 9.5768e-06)
(8.16613e-06 -1.14324e-06 2.13899e-21 8.50475e-06 3.58189e-22 8.23747e-06)
(7.02845e-06 -9.75823e-07 2.25499e-21 7.28764e-06 1.11075e-22 7.08414e-06)
(6.05786e-06 -8.34976e-07 -1.68457e-21 6.24403e-06 -2.82799e-22 6.10051e-06)
(5.24078e-06 -7.17418e-07 -1.34429e-21 5.36267e-06 -1.05063e-22 5.27288e-06)
(4.56129e-06 -6.19931e-07 -6.68569e-22 4.62553e-06 -4.53931e-23 4.58499e-06)
(4.00385e-06 -5.39521e-07 -3.6491e-22 4.01856e-06 7.98853e-23 4.02115e-06)
(3.55248e-06 -4.73411e-07 3.21933e-21 3.52445e-06 3.43753e-22 3.56502e-06)
(3.18741e-06 -4.18756e-07 4.07562e-25 3.12449e-06 -5.19208e-23 3.19669e-06)
(2.89142e-06 -3.73467e-07 1.36741e-21 2.80184e-06 1.89039e-22 2.8986e-06)
(2.64287e-06 -3.35277e-07 1.57409e-21 2.53577e-06 1.27551e-22 2.64905e-06)
(2.42623e-06 -3.02596e-07 2.02508e-22 2.30986e-06 -6.1868e-23 2.43213e-06)
(2.22818e-06 -2.73834e-07 -1.24532e-21 2.10946e-06 -1.54661e-22 2.23448e-06)
(2.04258e-06 -2.48317e-07 -6.61114e-22 1.92738e-06 -3.24358e-23 2.04958e-06)
(1.8643e-06 -2.25221e-07 1.90677e-24 1.75731e-06 3.23158e-23 1.87229e-06)
(1.68804e-06 -2.04008e-07 3.56888e-22 1.59407e-06 3.68733e-23 1.69694e-06)
(1.5124e-06 -1.84052e-07 1.13543e-23 1.43513e-06 7.17445e-23 1.52224e-06)
(1.34077e-06 -1.65378e-07 2.43621e-21 1.28287e-06 2.49532e-22 1.35129e-06)
(1.1737e-06 -1.47525e-07 3.51003e-24 1.13739e-06 -7.17335e-23 1.18485e-06)
(1.01672e-06 -1.30528e-07 2.33529e-23 1.00342e-06 1.31616e-22 1.02826e-06)
(8.76424e-07 -1.14355e-07 4.15019e-21 8.86944e-07 4.57739e-22 8.88351e-07)
(7.62305e-07 -9.92907e-08 1.26267e-21 7.95483e-07 -6.28313e-23 7.74469e-07)
(6.80176e-07 -8.54455e-08 -2.30668e-21 7.35154e-07 -2.30294e-22 6.92671e-07)
(6.34055e-07 -7.32366e-08 1.48621e-21 7.08875e-07 2.17395e-22 6.46869e-07)
(6.22102e-07 -6.33757e-08 -6.48644e-24 7.14402e-07 -9.06955e-23 6.35387e-07)
(6.16483e-07 -5.46211e-08 -1.77114e-21 7.20438e-07 -2.25488e-22 6.29802e-07)
(5.95082e-07 -4.44755e-08 -1.56185e-21 7.04384e-07 -7.78343e-23 6.07571e-07)
(5.85341e-07 -3.79331e-08 1.40534e-21 6.98817e-07 2.39965e-22 5.98432e-07)
(5.99875e-07 -3.67813e-08 2.24287e-21 7.1779e-07 2.29653e-22 6.13353e-07)
(5.95761e-07 -3.13452e-08 1.20655e-21 7.16563e-07 2.91482e-22 6.09341e-07)
(5.71539e-07 -2.36098e-08 9.55351e-21 6.94937e-07 9.78996e-22 5.88647e-07)
(5.56218e-07 -2.20504e-08 1.76266e-24 6.79943e-07 -1.96812e-22 5.76306e-07)
(5.43764e-07 -2.00674e-08 1.07073e-23 6.68532e-07 -7.06715e-23 5.66924e-07)
(5.30169e-07 -1.87058e-08 -3.27323e-21 6.55021e-07 -2.20275e-22 5.56059e-07)
(5.16187e-07 -1.76017e-08 7.15431e-21 6.40741e-07 8.34026e-22 5.44724e-07)
(5.02593e-07 -1.69372e-08 1.21841e-22 6.26288e-07 -2.59916e-22 5.33346e-07)
(4.9052e-07 -1.65671e-08 -8.68576e-21 6.13342e-07 -9.43749e-22 5.23333e-07)
(4.7728e-07 -1.65713e-08 1.49359e-23 5.98368e-07 -1.04406e-23 5.11653e-07)
(4.60449e-07 -1.62029e-08 -1.00432e-20 5.78809e-07 -1.10032e-21 4.95976e-07)
(4.47673e-07 -1.65761e-08 4.93113e-22 5.63511e-07 2.37654e-22 4.83922e-07)
(4.39507e-07 -1.74589e-08 3.28789e-21 5.5335e-07 3.35618e-22 4.76171e-07)
(4.24654e-07 -1.71301e-08 -1.9421e-21 5.35418e-07 -3.26968e-22 4.61553e-07)
(4.07126e-07 -1.63443e-08 -5.56823e-21 5.13822e-07 -6.0724e-22 4.43301e-07)
(3.89165e-07 -1.60022e-08 -1.72741e-22 4.9141e-07 3.1077e-23 4.24533e-07)
(3.71118e-07 -1.55654e-08 3.81411e-24 4.68803e-07 1.96506e-24 4.05465e-07)
(3.5516e-07 -1.49139e-08 1.69866e-22 4.48696e-07 3.00859e-23 3.88164e-07)
(3.40653e-07 -1.42451e-08 -1.88714e-23 4.30425e-07 -1.28594e-22 3.72372e-07)
(3.25742e-07 -1.37094e-08 -1.58829e-20 4.11519e-07 -1.80417e-21 3.56054e-07)
(3.05702e-07 -1.28438e-08 5.66684e-21 3.86398e-07 8.72296e-22 3.34486e-07)
(2.864e-07 -1.20668e-08 1.32219e-20 3.62114e-07 1.64004e-21 3.13606e-07)
(2.71286e-07 -1.15643e-08 1.96549e-20 3.43021e-07 2.25671e-21 2.97219e-07)
(2.57911e-07 -1.1371e-08 -5.60784e-23 3.2593e-07 -1.80379e-22 2.82619e-07)
(2.40268e-07 -1.14372e-08 -1.17899e-20 3.03503e-07 -1.43435e-21 2.63985e-07)
(2.23628e-07 -1.11079e-08 -4.11494e-21 2.82569e-07 -4.74477e-22 2.46461e-07)
(2.21543e-07 -1.25299e-08 -7.608e-21 2.78731e-07 -8.40537e-22 2.43936e-07)
(2.21681e-07 -1.37362e-08 1.18703e-20 2.77788e-07 1.47558e-21 2.43816e-07)
(2.12004e-07 -1.34467e-08 -3.69576e-21 2.65759e-07 -4.52846e-22 2.34015e-07)
(2.03463e-07 -1.35265e-08 1.42252e-20 2.54781e-07 1.90747e-21 2.25409e-07)
(1.98836e-07 -1.38389e-08 3.89067e-20 2.48505e-07 4.83445e-21 2.20754e-07)
(1.95383e-07 -1.4405e-08 1.77212e-20 2.43328e-07 2.10076e-21 2.17109e-07)
(1.93598e-07 -1.51035e-08 6.14826e-23 2.40049e-07 -3.49312e-23 2.15079e-07)
(1.88239e-07 -1.49717e-08 -0 2.3319e-07 1.03309e-23 2.09913e-07)
(2.02774e-07 -1.37551e-08 4.8191e-21 2.53892e-07 6.09589e-22 2.25342e-07)
(1.5116e-07 -6.00217e-09 1.50703e-22 1.93483e-07 6.95385e-23 1.75712e-07)
(3.02489e-07 -5.07274e-09 3.31258e-20 3.8305e-07 4.26334e-21 3.27604e-07)
(2.142e-07 7.21743e-09 1.87492e-20 2.05609e-07 2.44439e-21 2.36686e-07)
(5.40931e-07 -1.85565e-08 1.00652e-24 6.59764e-07 -1.52905e-23 5.58345e-07)
(2.7236e-05 -3.80334e-06 7.8308e-22 3.0656e-05 1.15662e-22 2.73461e-05)
(3.1373e-05 -4.62393e-06 8.61667e-22 3.48758e-05 1.61727e-23 3.16037e-05)
(3.19316e-05 -4.89079e-06 -4.52018e-23 3.48871e-05 -8.67125e-23 3.22637e-05)
(3.14642e-05 -4.88215e-06 -6.5781e-22 3.40778e-05 -4.6954e-23 3.18742e-05)
(3.08604e-05 -4.77015e-06 7.87501e-23 3.35173e-05 4.96261e-23 3.13293e-05)
(2.93359e-05 -4.5483e-06 2.58254e-22 3.17391e-05 7.48101e-24 2.98459e-05)
(2.7431e-05 -4.24194e-06 -1.06625e-23 2.96399e-05 -9.15025e-24 2.79647e-05)
(2.52327e-05 -3.87885e-06 5.5389e-25 2.72469e-05 6.53697e-24 2.57743e-05)
(2.28896e-05 -3.48958e-06 -2.58967e-24 2.47129e-05 -8.32723e-25 2.34268e-05)
(2.05455e-05 -3.09933e-06 -8.04841e-24 2.22051e-05 2.72993e-24 2.10688e-05)
(1.82691e-05 -2.72325e-06 -0 1.97796e-05 -1.56623e-24 1.87719e-05)
(1.61138e-05 -2.37116e-06 -1.24668e-23 1.74857e-05 5.6856e-24 1.65917e-05)
(1.41172e-05 -2.04901e-06 6.76619e-24 1.53625e-05 2.20985e-25 1.45678e-05)
(1.23002e-05 -1.75979e-06 1.96556e-24 1.34308e-05 1.93695e-23 1.27229e-05)
(1.06684e-05 -1.50402e-06 5.72206e-22 1.16931e-05 3.97493e-23 1.10632e-05)
(9.22066e-06 -1.28106e-06 -4.63647e-22 1.01463e-05 -6.84306e-23 9.58899e-06)
(7.94973e-06 -1.08918e-06 1.22683e-23 8.78111e-06 1.25335e-23 8.29316e-06)
(6.84829e-06 -9.26203e-07 -9.8716e-24 7.59111e-06 1.65449e-24 7.16898e-06)
(5.90451e-06 -7.89559e-07 -9.81015e-24 6.56347e-06 2.04788e-23 6.20455e-06)
(5.10131e-06 -6.75969e-07 6.58991e-22 5.68017e-06 7.76904e-23 5.38306e-06)
(4.4266e-06 -5.82671e-07 3.4195e-22 4.92892e-06 1.46916e-23 4.69214e-06)
(3.86708e-06 -5.06509e-07 2.17516e-23 4.29768e-06 -1.23323e-23 4.1186e-06)
(3.41127e-06 -4.44795e-07 -1.97263e-24 3.77515e-06 3.90025e-24 3.65063e-06)
(3.0473e-06 -3.94792e-07 6.91989e-24 3.35182e-06 9.89206e-25 3.27635e-06)
(2.76218e-06 -3.54304e-07 3.20343e-24 3.01463e-06 -5.31107e-23 2.98237e-06)
(2.54138e-06 -3.21256e-07 -1.93786e-21 2.74962e-06 -1.96077e-22 2.75413e-06)
(2.37081e-06 -2.94084e-07 2.43472e-22 2.54215e-06 8.34011e-23 2.57707e-06)
(2.23594e-06 -2.71516e-07 -8.01768e-24 2.37911e-06 -5.36336e-24 2.43659e-06)
(2.1235e-06 -2.52328e-07 -2.44813e-23 2.24537e-06 -1.62426e-23 2.31893e-06)
(2.02261e-06 -2.35524e-07 -3.49494e-22 2.13008e-06 -4.17702e-23 2.21327e-06)
(1.92209e-06 -2.20139e-07 5.70831e-24 2.02194e-06 -1.25832e-23 2.10791e-06)
(1.81731e-06 -2.05718e-07 2.49887e-23 1.91645e-06 4.27424e-23 1.99837e-06)
(1.70377e-06 -1.91439e-07 1.35943e-21 1.80749e-06 1.45023e-22 1.87972e-06)
(1.58463e-06 -1.77156e-07 9.97262e-24 1.69715e-06 -2.92293e-23 1.75538e-06)
(1.46087e-06 -1.6271e-07 2.30484e-23 1.58553e-06 -1.77015e-23 1.62589e-06)
(1.34082e-06 -1.48434e-07 -1.20587e-21 1.47968e-06 -5.20912e-23 1.49998e-06)
(1.22782e-06 -1.34397e-07 2.18315e-21 1.3823e-06 2.18435e-22 1.38052e-06)
(1.13178e-06 -1.21194e-07 -1.42734e-21 1.3026e-06 -2.08048e-22 1.278e-06)
(1.06001e-06 -1.09945e-07 -3.51594e-24 1.24561e-06 8.24188e-23 1.19924e-06)
(1.00316e-06 -9.98876e-08 1.66636e-21 1.19812e-06 2.09221e-22 1.13536e-06)
(9.33223e-07 -8.73684e-08 1.47178e-21 1.13121e-06 1.02119e-22 1.05783e-06)
(8.87977e-07 -7.71266e-08 1.82083e-23 1.09079e-06 -3.24683e-23 1.00606e-06)
(8.6482e-07 -6.85568e-08 9.81487e-24 1.07441e-06 -2.80677e-23 9.77254e-07)
(8.22237e-07 -5.67034e-08 -1.07572e-21 1.03316e-06 -2.24131e-22 9.30833e-07)
(7.74508e-07 -4.77767e-08 -4.82962e-21 9.79416e-07 -4.73124e-22 8.77073e-07)
(7.45189e-07 -4.30493e-08 2.85301e-24 9.44915e-07 9.85246e-23 8.42633e-07)
(7.1514e-07 -3.84824e-08 1.69615e-23 9.09005e-07 9.32771e-24 8.07589e-07)
(6.87215e-07 -3.48463e-08 -5.54849e-23 8.7492e-07 -3.64116e-23 7.75125e-07)
(6.59161e-07 -3.17977e-08 -1.8034e-21 8.40125e-07 -1.99667e-22 7.42663e-07)
(6.33454e-07 -2.94853e-08 -1.13284e-22 8.07821e-07 2.47255e-23 7.12889e-07)
(6.08963e-07 -2.76934e-08 -1.16586e-22 7.76711e-07 4.50712e-23 6.84442e-07)
(5.84749e-07 -2.65694e-08 3.99407e-21 7.45581e-07 4.10614e-22 6.56531e-07)
(5.58326e-07 -2.52107e-08 -1.55471e-21 7.11819e-07 -2.36317e-22 6.26449e-07)
(5.38425e-07 -2.46436e-08 -1.02071e-23 6.85914e-07 -2.41737e-23 6.03251e-07)
(5.19916e-07 -2.4559e-08 -3.09359e-21 6.61542e-07 -2.91064e-22 5.81754e-07)
(4.92779e-07 -2.3684e-08 3.93662e-21 6.26699e-07 5.43742e-22 5.51378e-07)
(4.6556e-07 -2.26268e-08 5.2114e-21 5.91721e-07 6.90122e-22 5.20443e-07)
(4.40088e-07 -2.16562e-08 1.42679e-20 5.58983e-07 1.56691e-21 4.91526e-07)
(4.15443e-07 -2.07579e-08 -6.32173e-23 5.27252e-07 -2.77969e-22 4.63472e-07)
(3.93061e-07 -1.95858e-08 -1.27148e-20 4.98638e-07 -1.44126e-21 4.37879e-07)
(3.71915e-07 -1.8351e-08 3.36901e-21 4.71689e-07 5.06103e-22 4.13704e-07)
(3.50652e-07 -1.72641e-08 -1.84645e-22 4.44567e-07 -1.15419e-22 3.89619e-07)
(3.26626e-07 -1.5996e-08 -7.08353e-21 4.14104e-07 -9.53961e-22 3.62789e-07)
(3.05669e-07 -1.48523e-08 -1.82439e-20 3.87473e-07 -2.20464e-21 3.39178e-07)
(2.88011e-07 -1.39331e-08 -1.68434e-20 3.64907e-07 -1.83853e-21 3.19064e-07)
(2.71547e-07 -1.33103e-08 9.25723e-21 3.43756e-07 1.20285e-21 3.00421e-07)
(2.51049e-07 -1.29781e-08 -7.56854e-22 3.17456e-07 -1.26437e-22 2.77993e-07)
(2.33103e-07 -1.23567e-08 3.90702e-21 2.94686e-07 4.68078e-22 2.58453e-07)
(2.28685e-07 -1.34146e-08 -1.09164e-21 2.87835e-07 -1.52604e-22 2.52941e-07)
(2.26706e-07 -1.43982e-08 4.79999e-23 2.84196e-07 1.4602e-23 2.50311e-07)
(2.15988e-07 -1.39203e-08 1.3224e-23 2.70809e-07 -6.32065e-23 2.39067e-07)
(2.06659e-07 -1.38857e-08 -1.61709e-20 2.5877e-07 -2.05662e-21 2.29335e-07)
(2.01201e-07 -1.41675e-08 -1.53191e-20 2.51325e-07 -1.83944e-21 2.23528e-07)
(1.96793e-07 -1.47284e-08 8.64755e-23 2.44815e-07 6.86581e-23 2.18678e-07)
(1.94049e-07 -1.53414e-08 7.50747e-24 2.40339e-07 4.17567e-24 2.15611e-07)
(1.88628e-07 -1.50147e-08 -0 2.33659e-07 -8.31705e-24 2.10391e-07)
(1.99724e-07 -1.34805e-08 -4.74463e-21 2.50258e-07 -6.14152e-22 2.22319e-07)
(1.51547e-07 -5.76714e-09 6.28414e-23 1.94224e-07 -9.25091e-24 1.75948e-07)
(2.95204e-07 -5.25254e-09 -1.98998e-20 3.73727e-07 -2.56787e-21 3.19661e-07)
(2.11312e-07 6.63836e-09 -1.7792e-20 2.02061e-07 -2.32977e-21 2.33111e-07)
(5.43204e-07 -2.08624e-08 1.59289e-22 6.60575e-07 4.53401e-23 5.59615e-07)
(1.11961e-05 -1.35941e-06 -7.02181e-22 1.25912e-05 -5.18471e-23 1.09952e-05)
(1.55991e-05 -2.13455e-06 3.48601e-25 1.72996e-05 3.52529e-23 1.55401e-05)
(1.87701e-05 -2.76429e-06 -3.35928e-25 2.03363e-05 2.80143e-23 1.88439e-05)
(2.10843e-05 -3.17262e-06 5.88619e-22 2.26845e-05 4.85069e-23 2.12773e-05)
(2.276e-05 -3.44024e-06 -6.82626e-23 2.4566e-05 -4.76822e-23 2.30588e-05)
(2.34181e-05 -3.56467e-06 -2.34181e-22 2.52495e-05 -2.32307e-23 2.38073e-05)
(2.33665e-05 -3.56088e-06 -6.97771e-24 2.52262e-05 1.34748e-23 2.38287e-05)
(2.27169e-05 -3.45458e-06 -5.28024e-25 2.45683e-05 1.48638e-23 2.32344e-05)
(2.16231e-05 -3.27295e-06 2.28488e-22 2.3438e-05 8.59008e-23 2.21793e-05)
(2.02286e-05 -3.03945e-06 1.366e-21 2.19935e-05 1.1169e-22 2.08084e-05)
(1.86464e-05 -2.77514e-06 -0 2.03464e-05 -2.99639e-23 1.92366e-05)
(1.6974e-05 -2.49686e-06 7.00571e-22 1.86006e-05 2.51746e-23 1.75636e-05)
(1.52906e-05 -2.21856e-06 -9.91809e-22 1.68379e-05 -1.52604e-22 1.58709e-05)
(1.36551e-05 -1.95033e-06 -7.83104e-22 1.51213e-05 1.41347e-23 1.42197e-05)
(1.21123e-05 -1.6997e-06 1.18391e-21 1.34965e-05 1.56466e-22 1.26566e-05)
(1.06884e-05 -1.47078e-06 4.6905e-22 1.19916e-05 -3.03084e-24 1.12097e-05)
(9.40062e-06 -1.26643e-06 1.06957e-23 1.06225e-05 3.62523e-23 9.8974e-06)
(8.25162e-06 -1.0868e-06 1.61617e-21 9.3928e-06 1.98048e-22 8.72344e-06)
(7.24177e-06 -9.31729e-07 1.2759e-21 8.30303e-06 4.8634e-23 7.68904e-06)
(6.35701e-06 -7.99117e-07 -6.30994e-22 7.33806e-06 -1.11946e-22 6.78068e-06)
(5.58863e-06 -6.87436e-07 -3.48836e-22 6.48936e-06 -9.99709e-23 5.99007e-06)
(4.92228e-06 -5.94135e-07 -3.04448e-21 5.74293e-06 -2.92296e-22 5.30312e-06)
(4.34828e-06 -5.1704e-07 -5.19873e-24 5.09006e-06 6.3083e-23 4.71028e-06)
(3.8567e-06 -4.5387e-07 -7.9271e-22 4.52142e-06 -7.87758e-23 4.2017e-06)
(3.44265e-06 -4.02617e-07 -1.96985e-24 4.03398e-06 3.03973e-23 3.77241e-06)
(3.09994e-06 -3.61434e-07 -1.82216e-23 3.62205e-06 -6.77286e-24 3.4162e-06)