/*--------------------------------*- C++ -*----------------------------------*\
| =========                 |                                                 |
| \\      /  F ield         | OpenFOAM: The Open Source CFD Toolbox           |
|  \\    /   O peration     | Version:  2306                                  |
|   \\  /    A nd           | Website:  www.openfoam.com                      |
|    \\/     M anipulation  |                                                 |
\*---------------------------------------------------------------------------*/
FoamFile
{
    version     2.0;
    format      ascii;
    arch        "LSB;label=32;scalar=64";
    class       volVectorField;
    location    "975";
    object      momentError;
}
// * * * * * * * * * * * * * * * * * * * * * * * * * * * * * * * * * * * * * //

dimensions      [0 1 -2 0 0 0 0];

internalField   nonuniform List<vector> 
1340
(
(-8.02385e-05 0.000223318 -6.95742e-15)
(-7.34149e-05 0.000254535 2.41135e-14)
(-5.57895e-05 0.000282832 -4.72326e-14)
(-1.21533e-05 0.000258474 1.778e-14)
(1.15235e-05 0.000258242 1.10239e-13)
(3.10048e-05 0.000249662 -1.75099e-13)
(5.38219e-05 0.000268461 8.99984e-14)
(8.13316e-05 0.00027314 -1.11069e-13)
(0.000109611 0.000266748 -2.5463e-13)
(0.000127222 0.000233867 3.44117e-13)
(0.000128837 0.000187788 1.24149e-13)
(0.000124153 0.000143709 -2.28811e-13)
(0.000114067 0.000111818 -3.34526e-13)
(0.000101381 8.65555e-05 -5.72036e-14)
(8.06847e-05 6.13163e-05 -1.39768e-13)
(5.97671e-05 4.04046e-05 -3.10394e-13)
(-2.5657e-06 6.48629e-06 -1.46757e-13)
(-0.000142398 -4.64802e-05 8.32706e-13)
(-9.87387e-05 -3.91249e-05 4.23307e-13)
(-0.000634294 -0.000226571 -5.95089e-13)
(-0.00168036 -0.000490233 1.05315e-13)
(-0.00206853 -0.000729123 1.53273e-13)
(-0.00259288 -0.00104443 -6.74722e-14)
(-0.0118477 -0.00173153 -1.51586e-13)
(-0.0250808 -0.00400034 3.57141e-14)
(-0.0185825 -0.0048015 -2.34989e-15)
(-0.00203927 -0.00297532 4.15496e-14)
(0.00825829 -0.000376417 -1.64622e-14)
(0.00622767 0.000589221 4.39637e-14)
(0.00337569 0.00062333 1.54495e-13)
(0.00202067 0.000408782 3.0304e-14)
(6.33722e-05 0.000256064 -1.28624e-13)
(-0.000872612 0.000161788 -7.91941e-15)
(-0.00039451 1.78279e-05 -2.15699e-13)
(-3.90219e-05 -0.000158857 -2.82306e-13)
(-8.80591e-05 0.000211488 -1.0766e-14)
(-9.01602e-05 0.000148806 2.65581e-14)
(-9.59319e-05 9.95849e-05 1.73227e-15)
(-8.43385e-05 4.33695e-05 3.61654e-14)
(-8.42573e-05 1.53634e-05 -3.2885e-14)
(-2.7881e-05 -6.43698e-05 -9.4022e-14)
(-4.41087e-06 -8.59807e-05 -1.07345e-13)
(-0.000103167 0.000205879 -1.31424e-14)
(-9.2041e-05 0.000233622 5.8845e-15)
(-7.22396e-05 0.000256702 7.81391e-15)
(-3.68338e-05 0.000245367 -3.36621e-14)
(-4.29153e-06 0.000237885 2.10326e-14)
(7.04135e-06 0.000244291 8.03965e-14)
(4.00709e-05 0.000260735 1.03894e-13)
(6.35314e-05 0.000266195 1.00638e-13)
(9.20661e-05 0.000256966 -3.98773e-15)
(0.000108332 0.000222026 1.9068e-13)
(0.000113753 0.000179719 -2.08859e-13)
(0.000108364 0.000136166 -1.19528e-13)
(9.93493e-05 9.26246e-05 4.48617e-13)
(8.45739e-05 6.06872e-05 1.28258e-13)
(6.02372e-05 4.23757e-05 -1.19187e-13)
(4.79591e-05 2.57473e-05 -1.78004e-14)
(1.14695e-05 2.01234e-05 3.42057e-13)
(-0.000124488 2.55699e-05 -1.53339e-13)
(0.000597935 -0.000209953 -4.91942e-13)
(0.00705727 -0.00162263 1.88438e-13)
(0.0123002 -0.00353513 2.35436e-13)
(-0.000875564 0.000594277 4.67742e-14)
(-0.0577254 -0.0214317 -1.30899e-13)
(-0.0256077 -0.00231195 1.92538e-13)
(0.0144224 -0.0018912 -4.19943e-14)
(0.0630039 0.00250475 -7.0462e-14)
(0.0602009 0.00550842 -3.01945e-14)
(0.0368055 0.00568019 5.5957e-15)
(0.00567304 0.00206245 -1.5005e-14)
(0.0032393 0.000694056 -1.58861e-14)
(0.00425487 0.00074579 -2.03941e-14)
(0.000289313 0.000491218 3.52745e-14)
(-0.000985376 9.31021e-05 -1.88214e-13)
(-0.00088005 -7.83366e-05 -2.24041e-13)
(-0.000376861 -0.000134995 1.62297e-13)
(-0.000112056 0.000178171 -4.63886e-15)
(-0.000130584 0.000136141 1.24099e-13)
(-0.00013546 9.10075e-05 -7.98388e-15)
(-0.00013559 4.69046e-05 -1.29075e-13)
(-0.000120201 3.88702e-06 -2.56851e-14)
(-8.65764e-05 -4.11049e-05 1.27346e-13)
(-7.99036e-05 0.000183929 -5.0737e-15)
(-7.34248e-05 0.000200013 -8.20214e-16)
(-5.41316e-05 0.000210706 -5.83697e-15)
(-2.23113e-05 0.000209802 1.55514e-14)
(-8.68811e-07 0.000206328 3.91317e-15)
(1.54488e-05 0.000221242 -3.37372e-14)
(3.69126e-05 0.000233779 -1.07609e-13)
(6.05297e-05 0.000241327 -9.54174e-14)
(8.42079e-05 0.00022567 -1.11322e-13)
(0.000100132 0.000195977 1.10097e-14)
(0.000105037 0.000158771 2.64052e-13)
(0.000101434 0.000124733 7.06209e-14)
(9.16851e-05 9.70899e-05 -9.93109e-14)
(7.87878e-05 7.37381e-05 -2.41053e-13)
(7.64017e-05 4.74933e-05 1.10245e-13)
(6.4823e-05 2.58165e-05 1.45922e-13)
(5.7407e-05 -2.35771e-05 -9.42421e-14)
(0.000115222 5.67996e-05 -1.89373e-13)
(-0.000669238 0.00184275 3.17156e-13)
(-0.00731115 0.00735984 -9.48693e-14)
(-0.00745027 0.00934387 -1.19587e-13)
(0.000996605 -0.000221024 1.78557e-13)
(0.0963247 0.0520636 7.39142e-14)
(0.00169659 0.000837704 -3.35241e-15)
(0.016127 -0.00059154 -3.30846e-14)
(0.020523 -0.00144305 3.55798e-15)
(-0.0047816 -0.000521173 -3.0598e-14)
(-0.0542591 -0.00121035 2.10713e-14)
(-0.0475886 -0.00276623 -3.31632e-14)
(-0.0131894 -0.000178132 -7.2099e-14)
(-0.00755718 0.001065 6.96095e-14)
(-0.00612854 0.000233792 3.08521e-14)
(-0.000887353 -0.000365855 -1.21838e-13)
(-4.43512e-05 -0.000415995 7.82235e-14)
(-0.000117541 -0.0002714 1.65088e-14)
(-0.000100587 0.000155288 2.92179e-14)
(-0.000111062 0.000125721 -2.76868e-14)
(-0.000119727 8.88089e-05 -9.8343e-14)
(-0.000118108 5.60195e-05 4.48517e-14)
(-0.000107194 2.01603e-05 2.05983e-14)
(-8.90083e-05 -1.16305e-05 -6.45707e-14)
(-6.2961e-05 0.000152989 7.92673e-15)
(-5.24348e-05 0.000179547 -2.34386e-15)
(-4.05359e-05 0.000184753 6.65881e-17)
(-1.44481e-05 0.000188796 -7.13003e-15)
(-7.26363e-07 0.000191798 1.99584e-15)
(1.73864e-05 0.000206889 3.58143e-14)
(3.60474e-05 0.000221985 5.84656e-14)
(5.76121e-05 0.000220044 5.46314e-14)
(7.75291e-05 0.00020537 -1.33388e-13)
(9.05943e-05 0.000179538 -1.11642e-13)
(9.41052e-05 0.000147558 1.41517e-13)
(9.18319e-05 0.000118382 2.56581e-13)
(8.44608e-05 9.30218e-05 1.35702e-13)
(7.60493e-05 7.00502e-05 -4.72147e-13)
(6.18599e-05 5.37531e-05 -1.62161e-13)
(3.32719e-05 4.53353e-05 3.8591e-13)
(8.63499e-06 3.88449e-05 8.39267e-14)
(-6.3562e-05 0.000101626 -1.2427e-13)
(-0.000145302 -9.66382e-05 -2.28419e-13)
(-0.000449788 -0.0026161 1.97907e-13)
(-0.00457491 -0.00633709 4.36136e-14)
(0.000132904 0.00163779 -2.22445e-13)
(-0.0473793 -0.0237197 1.65592e-13)
(0.00289094 0.000254068 -1.14161e-13)
(-0.00441705 -0.00296536 -3.71978e-14)
(-0.00747351 -0.00580405 3.56447e-14)
(-0.0609579 0.00936645 -4.55843e-14)
(0.0130926 0.00592721 1.00933e-14)
(0.0471463 -0.00241926 1.36289e-14)
(0.0124133 -0.00537285 2.09635e-14)
(-0.0233942 0.00234023 -9.02262e-15)
(0.00715058 -0.001478 2.55469e-14)
(0.00751965 -0.000567126 2.07237e-13)
(0.00323421 -0.000710868 5.34619e-14)
(0.000402119 -0.000363116 -7.58495e-14)
(-8.1727e-05 0.000135625 1.88164e-14)
(-9.3646e-05 0.000116208 -3.68743e-14)
(-0.000102734 8.93425e-05 -4.04092e-15)
(-0.000101041 6.25592e-05 -3.37242e-14)
(-9.59009e-05 3.29566e-05 -2.08221e-14)
(-5.24861e-05 0.000133611 -4.04106e-15)
(-3.9417e-05 0.000152644 4.77979e-15)
(-2.62465e-05 0.000164148 5.65059e-17)
(-8.48457e-06 0.000170659 -4.17632e-15)
(5.31483e-06 0.000177958 -2.88317e-14)
(2.0207e-05 0.000192259 3.46357e-14)
(3.9625e-05 0.000200861 1.2634e-14)
(5.92279e-05 0.00019597 -7.01524e-14)
(7.56793e-05 0.000181256 -5.82309e-14)
(8.64921e-05 0.000158426 -1.21381e-13)
(8.94403e-05 0.000131722 1.74614e-14)
(8.69545e-05 0.000107913 -1.32354e-13)
(7.99676e-05 8.75654e-05 8.04617e-15)
(6.9251e-05 7.11377e-05 3.54352e-13)
(5.63648e-05 5.7841e-05 -2.34206e-13)
(4.47956e-05 4.31584e-05 -1.67665e-13)
(3.25553e-05 2.97927e-05 1.01579e-13)
(1.59338e-05 3.09237e-05 -1.31966e-13)
(-7.24269e-06 6.2244e-05 8.48917e-14)
(-3.57461e-05 8.66496e-05 -1.43969e-13)
(-0.000256542 -4.89461e-05 -1.61817e-13)
(-8.22387e-05 0.000312861 1.83267e-13)
(0.00103352 0.00104351 -4.05349e-14)
(0.00097705 5.5465e-05 8.96866e-14)
(0.000533547 -0.00283454 5.67709e-14)
(-0.00395223 -0.00398931 6.31542e-15)
(0.0437307 -0.00699076 1.08821e-13)
(0.00321442 0.00399889 -2.11473e-14)
(-0.0160002 0.0109907 2.25347e-14)
(0.000902886 -0.000840099 -5.53725e-14)
(-0.0133293 -0.00576724 -1.55689e-13)
(0.00410112 0.000779228 1.36573e-15)
(0.00431654 -0.000689602 1.40173e-13)
(0.00711193 -0.000585339 -3.31464e-14)
(0.00225622 -0.000294698 -1.04853e-13)
(-6.12511e-05 0.000120246 2.02826e-14)
(-7.49511e-05 0.000107621 1.43635e-14)
(-8.10355e-05 8.83937e-05 -3.19922e-14)
(-8.42814e-05 6.51544e-05 7.88747e-14)
(-8.18964e-05 4.11035e-05 1.86884e-13)
(-3.81047e-05 0.000119704 1.93827e-15)
(-2.91041e-05 0.000132097 5.0679e-16)
(-1.81793e-05 0.000145574 3.16249e-15)
(-3.93012e-06 0.000159046 -2.45878e-15)
(8.44519e-06 0.00016608 -1.08435e-15)
(2.32696e-05 0.000177555 1.63381e-14)
(4.17105e-05 0.000182723 7.60514e-15)
(5.89063e-05 0.000175429 4.04773e-14)
(7.31633e-05 0.000162542 6.79653e-14)
(8.18736e-05 0.000142575 -3.20432e-14)
(8.41156e-05 0.000120505 -7.79472e-15)
(8.16322e-05 0.00010126 7.50086e-14)
(7.52548e-05 8.49457e-05 -1.45507e-13)
(6.52858e-05 7.14775e-05 -2.89384e-13)
(5.3505e-05 6.03612e-05 1.75229e-13)
(3.89719e-05 5.23434e-05 2.68354e-13)
(1.64596e-05 5.80003e-05 -3.55848e-13)
(-4.35416e-06 7.12045e-05 6.06679e-14)
(-2.04695e-05 7.69285e-05 1.11899e-13)
(-6.53244e-05 5.06083e-05 -1.12965e-13)
(-0.00018844 9.38311e-05 8.56211e-14)
(-0.000210725 0.000496099 -8.73357e-14)
(0.000418591 0.000979833 -1.69251e-13)
(0.00135466 -1.4598e-05 -5.03159e-14)
(0.00104435 -0.00234468 -1.16204e-13)
(-0.000798363 -0.00283654 5.63234e-14)
(-0.00125343 -0.000780602 -1.62129e-14)
(-0.00579876 0.00252699 -1.09013e-14)
(-0.00196345 0.0029381 2.13823e-14)
(-0.0236593 0.00450254 4.23932e-14)
(0.0174146 -0.00300444 3.28948e-14)
(-0.00812758 -0.000304224 -4.52613e-14)
(-0.000589679 -0.000457356 -1.16442e-13)
(0.00192392 3.81559e-05 -1.48656e-13)
(0.00201865 0.000149565 3.37772e-14)
(-4.72296e-05 0.000109594 8.5949e-15)
(-5.6928e-05 0.000101545 -2.06929e-14)
(-6.36779e-05 8.57261e-05 1.04909e-14)
(-6.75461e-05 6.58197e-05 -5.83379e-15)
(-2.29782e-05 0.000106558 3.09102e-15)
(-1.76458e-05 0.000120008 5.82452e-16)
(-1.07524e-05 0.000132655 -1.1264e-15)
(1.71721e-06 0.000147262 4.16962e-15)
(1.36918e-05 0.000154803 -8.69019e-15)
(2.77296e-05 0.00016221 -1.09433e-15)
(4.53525e-05 0.000162731 2.35995e-14)
(6.04864e-05 0.00015582 -1.11468e-14)
(7.28129e-05 0.000143545 -3.96142e-14)
(8.02714e-05 0.000126504 2.65385e-14)
(8.20375e-05 0.000108224 -6.07785e-14)
(8.00599e-05 9.26242e-05 -1.50861e-13)
(7.38613e-05 7.98391e-05 1.06603e-13)
(6.42826e-05 6.90679e-05 3.77166e-13)
(5.21438e-05 6.09962e-05 -1.38922e-14)
(3.82964e-05 5.54721e-05 -4.01368e-13)
(2.61095e-05 5.23153e-05 3.32533e-13)
(1.24119e-05 5.55427e-05 2.33369e-13)
(-4.86758e-06 6.08855e-05 1.24569e-13)
(-2.78579e-05 6.19459e-05 5.87362e-14)
(-9.70735e-05 0.000100878 -2.88417e-14)
(-8.23782e-05 0.000401781 1.61935e-13)
(0.000432487 0.000814887 1.11966e-13)
(0.00101324 0.000251534 -1.01888e-14)
(0.000296011 -0.00124479 2.14257e-13)
(-0.00137297 -0.00151461 -6.57046e-14)
(-0.00220248 6.92955e-05 -7.65321e-15)
(-2.31495e-05 0.00138191 5.67703e-15)
(0.00173944 0.00159098 -2.01421e-14)
(0.00439944 0.000373801 -2.08064e-14)
(0.00180097 -0.000620329 -1.5257e-14)
(-0.00189995 -0.000580818 4.77715e-14)
(-0.00253517 -0.000355955 -2.27679e-14)
(-0.00101647 0.000125806 -1.27981e-13)
(-0.000510295 0.000587671 -2.08073e-14)
(-3.34417e-05 0.000100482 -9.66502e-15)
(-4.20257e-05 9.48411e-05 1.2194e-14)
(-5.03325e-05 8.19245e-05 -2.61343e-14)
(-5.63345e-05 6.31853e-05 -3.94507e-15)
(-1.62561e-05 9.74963e-05 1.40113e-15)
(-1.19906e-05 0.000112009 1.51054e-15)
(-5.13837e-06 0.000124845 -9.49552e-16)
(6.92737e-06 0.000137086 -1.91882e-15)
(1.8033e-05 0.000143221 -3.80277e-15)
(3.23017e-05 0.000149776 1.65054e-14)
(4.76828e-05 0.000148321 1.38751e-14)
(6.12133e-05 0.000139864 -5.19114e-14)
(7.1611e-05 0.000128436 2.17311e-14)
(7.78521e-05 0.000113942 1.11285e-13)
(7.9779e-05 9.83513e-05 4.63176e-14)
(7.8133e-05 8.63166e-05 2.13133e-14)
(7.27182e-05 7.61878e-05 -1.87882e-13)
(6.36577e-05 6.7662e-05 -4.29855e-13)
(5.19854e-05 6.11389e-05 -3.04036e-13)
(3.91777e-05 5.67769e-05 1.20067e-13)
(2.61155e-05 5.72706e-05 -7.38522e-14)
(1.0669e-05 6.57459e-05 -3.77114e-13)
(-6.3825e-06 7.59367e-05 -1.94584e-13)
(-2.61298e-05 9.28168e-05 1.60888e-13)
(-6.85834e-05 0.000144759 1.60969e-13)
(-2.95862e-05 0.000368138 -9.33448e-14)
(0.000366201 0.00062286 -3.83133e-14)
(0.000773146 0.000140683 2.39895e-15)
(0.000223314 -0.000957064 -6.09651e-14)
(-0.00104742 -0.00103243 6.32922e-14)
(-0.00139282 0.000310849 7.21974e-15)
(-0.00058621 0.00138207 4.32083e-15)
(0.000534533 0.00123762 -4.41498e-15)
(0.00120592 0.000601156 5.21806e-14)
(0.00174239 -0.000172277 3.49626e-14)
(0.000287962 -0.00053009 -3.4449e-15)
(-0.000966887 -0.000404676 1.13108e-13)
(-0.000931193 -0.000211272 7.80691e-14)
(0.000883559 -0.00198658 -4.04134e-14)
(-2.46272e-05 9.11302e-05 7.39127e-15)
(-3.42631e-05 8.75267e-05 -1.20441e-14)
(-4.34761e-05 7.37666e-05 3.26933e-15)
(-5.13451e-05 5.71473e-05 6.10927e-14)
(-1.45946e-05 8.87104e-05 2.41731e-15)
(-8.23751e-06 0.000100536 4.02435e-15)
(-2.5757e-06 0.000117664 -1.76075e-16)
(9.84169e-06 0.000126522 2.17002e-19)
(2.19202e-05 0.000126986 -2.54026e-15)
(3.48105e-05 0.000136155 -6.73418e-15)
(4.95397e-05 0.000133869 -4.93856e-15)
(6.17349e-05 0.000127951 -5.2368e-14)
(7.05721e-05 0.000117724 -1.00713e-15)
(7.55679e-05 0.00010366 1.92803e-14)
(7.7519e-05 9.00254e-05 -2.32914e-14)
(7.75586e-05 7.97202e-05 1.41246e-13)
(7.26333e-05 7.17993e-05 1.49071e-13)
(6.43632e-05 6.47868e-05 2.69491e-14)
(5.33121e-05 5.93405e-05 2.76871e-13)
(4.07925e-05 5.6326e-05 -5.76105e-14)
(2.86843e-05 5.70205e-05 -7.29773e-16)
(1.75168e-05 6.09387e-05 2.14469e-13)
(3.74519e-06 7.14334e-05 9.99258e-14)
(-1.03566e-05 9.08191e-05 -2.94233e-14)
(-2.82107e-05 0.000137739 -1.21911e-13)
(2.08899e-05 0.000283343 -1.15867e-14)
(0.000298362 0.000424667 -9.36596e-14)
(0.000562602 5.92936e-05 -8.1038e-14)
(0.000132132 -0.000717706 4.88754e-14)
(-0.000836872 -0.000730814 -3.10924e-14)
(-0.00116526 0.000362545 -5.64895e-14)
(-0.000380297 0.00121769 6.45113e-15)
(0.000666445 0.00101754 -3.1152e-15)
(0.00130173 0.000341852 -3.83241e-15)
(0.00133266 -0.000243044 8.20593e-14)
(0.000734733 -0.000519557 -2.93309e-14)
(-0.00012411 -0.00041406 -3.90374e-14)
(-0.000583707 -0.000161589 2.27051e-13)
(0.00076014 -0.000275056 3.70597e-14)
(-2.23985e-05 8.33719e-05 -1.31444e-14)
(-3.08276e-05 7.82017e-05 -3.10176e-14)
(-4.0542e-05 6.72755e-05 5.06888e-14)
(2.22894e-05 0.000118099 9.00192e-15)
(3.5836e-05 0.000115124 -2.93906e-15)
(4.87486e-05 0.000118915 2.92742e-14)
(6.08295e-05 0.000115968 2.04786e-14)
(6.85527e-05 0.000107845 5.16008e-15)
(7.39468e-05 9.67482e-05 -1.7069e-15)
(7.59455e-05 8.30602e-05 7.12004e-15)
(7.61356e-05 7.42818e-05 -3.14154e-14)
(7.3316e-05 6.77555e-05 -1.37085e-13)
(6.53917e-05 6.14587e-05 3.64126e-14)
(5.52382e-05 5.67943e-05 1.8814e-14)
(4.32677e-05 5.4277e-05 5.25268e-14)
(3.19284e-05 5.48867e-05 -4.53497e-16)
(2.10026e-05 6.06268e-05 -9.4064e-14)
(9.71828e-06 7.3229e-05 -1.38998e-13)
(-2.01913e-07 9.33404e-05 -1.19687e-13)
(-4.27023e-06 0.00013402 -6.96968e-14)
(4.39249e-05 0.000230933 -5.64245e-14)
(0.000240042 0.000296495 1.91327e-14)
(0.000409071 1.44337e-06 6.7224e-14)
(8.03905e-05 -0.000562153 -3.61852e-14)
(-0.000639971 -0.000550198 -1.3766e-14)
(-0.000860595 0.000307526 4.44591e-14)
(-0.000196413 0.00102013 2.10508e-15)
(0.000650055 0.000875227 2.45305e-14)
(0.00102637 0.000277985 -3.05758e-14)
(0.000919249 -0.000261052 -1.01142e-13)
(0.000513134 -0.000505306 -5.51578e-14)
(3.40517e-05 -0.000414328 3.49528e-14)
(-0.00037797 -0.000178983 -1.5019e-14)
(-0.000377943 2.17184e-05 2.03711e-14)
(4.77695e-05 0.000106619 -3.581e-15)
(5.69753e-05 9.7231e-05 -2.51515e-14)
(6.54402e-05 9.79034e-05 -5.04028e-14)
(7.14835e-05 8.72306e-05 2.86055e-14)
(7.43351e-05 7.85675e-05 2.54463e-14)
(7.58545e-05 7.03006e-05 1.48726e-14)
(7.34986e-05 6.36926e-05 6.21604e-14)
(6.71259e-05 5.80045e-05 4.23968e-15)
(5.76262e-05 5.34773e-05 3.3348e-14)
(4.63634e-05 5.11457e-05 -5.10102e-14)
(3.53676e-05 5.14913e-05 -5.4952e-14)
(2.5783e-05 5.64596e-05 6.4311e-14)
(1.76131e-05 6.81638e-05 1.26944e-13)
(1.18464e-05 8.66419e-05 6.41835e-14)
(1.48502e-05 0.000118376 4.55233e-14)
(5.83171e-05 0.000180189 3.34392e-14)
(0.000194369 0.000205206 6.3147e-14)
(0.000294042 -1.93956e-05 -3.60479e-14)
(3.77686e-05 -0.000417236 -5.67999e-14)
(-0.000495716 -0.000397152 3.56761e-15)
(-0.000661596 0.000256893 -1.98226e-14)
(-0.000137993 0.00083535 -6.76142e-15)
(0.000570154 0.000750477 -4.18716e-14)
(0.000886565 0.000245916 2.24091e-14)
(0.000732112 -0.000243302 5.69523e-14)
(0.000362465 -0.000474117 1.25275e-13)
(5.21723e-05 -0.000404129 1.23567e-14)
(-0.000154316 -0.000203196 -1.15972e-13)
(-0.000207198 -1.05617e-05 2.2701e-15)
(6.08922e-05 8.57895e-05 -6.97183e-14)
(6.38603e-05 6.94197e-05 -7.26876e-14)
(7.41638e-05 7.66459e-05 -1.3191e-14)
(7.37969e-05 6.57164e-05 -3.21642e-14)
(7.39536e-05 6.0864e-05 7.23979e-14)
(6.84674e-05 5.44598e-05 -2.92286e-14)
(6.0048e-05 5.00406e-05 -1.44818e-13)
(4.97129e-05 4.73789e-05 1.01109e-13)
(3.91109e-05 4.73518e-05 9.97248e-14)
(3.03852e-05 5.15092e-05 -5.34645e-15)
(2.4016e-05 6.23012e-05 -1.5751e-13)
(2.14729e-05 7.89252e-05 -1.28566e-13)
(2.75878e-05 0.000101938 6.84404e-14)
(6.4442e-05 0.000138904 1.07518e-13)
(0.000157368 0.000139942 -3.91569e-14)
(0.000212231 -2.90564e-05 -1.51391e-14)
(1.38298e-05 -0.00030464 -1.08544e-14)
(-0.000377772 -0.000275685 7.1525e-16)
(-0.000501279 0.000220804 -1.02558e-14)
(-9.3629e-05 0.000681739 4.37248e-15)
(0.000493227 0.000637151 6.88289e-15)
(0.000782153 0.000223474 -2.79159e-14)
(0.000649533 -0.000208995 -1.53714e-14)
(0.000307281 -0.000424952 -2.90564e-14)
(4.75637e-05 -0.000375902 -1.75881e-13)
(-5.3696e-05 -0.000206842 -1.05622e-14)
(-7.08286e-05 -3.18079e-05 6.21861e-14)
(6.1204e-05 6.87057e-05 -1.29143e-13)
(6.31842e-05 5.63283e-05 3.31761e-14)
(7.58517e-05 6.79451e-05 1.13825e-13)
(7.25524e-05 5.61128e-05 -7.85721e-14)
(6.95037e-05 5.11869e-05 -6.54237e-14)
(6.21278e-05 4.65576e-05 8.22986e-14)
(5.28101e-05 4.33495e-05 -1.48634e-13)
(4.29893e-05 4.27518e-05 1.24895e-14)
(3.47382e-05 4.5642e-05 2.11844e-13)
(2.98746e-05 5.45053e-05 8.33493e-14)
(2.96415e-05 6.92473e-05 1.47033e-13)
(3.67863e-05 8.47948e-05 -3.25669e-14)
(6.62296e-05 0.000105107 -9.97093e-14)
(0.000128254 9.39122e-05 2.22645e-14)
(0.000154324 -3.02506e-05 5.13017e-14)
(2.43136e-06 -0.000216887 4.03145e-14)
(-0.000281926 -0.00018236 2.74456e-15)
(-0.00037 0.000192466 2.26924e-14)
(-5.49971e-05 0.000556185 -4.35788e-15)
(0.000422319 0.000537126 1.46641e-14)
(0.000682497 0.000203437 1.44837e-14)
(0.000586613 -0.000171797 6.59594e-16)
(0.000287928 -0.000369117 -7.27212e-14)
(4.94302e-05 -0.000337711 6.7167e-15)
(-2.18747e-05 -0.000194826 1.43264e-13)
(1.37726e-05 -5.05053e-05 9.93908e-14)
(6.04468e-05 5.57144e-05 6.09829e-15)
(6.68753e-05 5.11145e-05 -1.82432e-15)
(7.5021e-05 5.72951e-05 4.82409e-14)
(6.88979e-05 4.70668e-05 -2.60452e-14)
(6.39632e-05 4.32269e-05 5.76901e-14)
(5.53423e-05 3.92791e-05 2.32846e-13)
(4.64652e-05 3.78315e-05 -6.85719e-14)
(3.87023e-05 3.95248e-05 -5.85598e-14)
(3.46488e-05 4.65802e-05 2.7092e-14)
(3.59556e-05 5.89449e-05 -3.62114e-14)
(4.29696e-05 6.92166e-05 1.62665e-14)
(6.55951e-05 7.82802e-05 1.46943e-14)
(0.000105786 6.22233e-05 -2.73916e-14)
(0.000114439 -2.78464e-05 -1.43005e-14)
(-7.04116e-07 -0.000150775 -2.81001e-14)
(-0.00020457 -0.000114199 3.27029e-15)
(-0.000265098 0.00016874 3.22246e-15)
(-2.22723e-05 0.000452874 1.71419e-15)
(0.000361261 0.00045038 -1.78332e-15)
(0.000589169 0.000183568 -1.75387e-14)
(0.000525957 -0.00013718 5.06858e-15)
(0.000277937 -0.000315571 7.22808e-14)
(6.38187e-05 -0.000298768 8.3159e-14)
(-5.65151e-06 -0.00017813 -1.66964e-13)
(4.42176e-05 -5.33151e-05 -2.47372e-13)
(6.13685e-05 5.36054e-05 4.15141e-14)
(6.08409e-05 4.395e-05 2.33553e-14)
(7.27993e-05 5.23161e-05 -1.69822e-14)
(6.88873e-05 4.40734e-05 1.91843e-14)
(6.52356e-05 3.9546e-05 9.76339e-15)
(5.75384e-05 3.5275e-05 -3.74977e-14)
(4.94541e-05 3.29034e-05 5.73932e-14)
(4.24235e-05 3.35936e-05 -1.57664e-13)
(3.85919e-05 3.89128e-05 -2.20164e-13)
(4.05661e-05 4.85531e-05 -9.04123e-14)
(4.72597e-05 5.56011e-05 1.69243e-14)
(6.39793e-05 5.77135e-05 9.73626e-15)
(8.91136e-05 4.09405e-05 2.63439e-14)
(8.79886e-05 -2.31002e-05 4.52241e-14)
(1.47667e-06 -0.00010136 -2.27311e-14)
(-0.000142519 -6.52573e-05 -1.98893e-14)
(-0.000181974 0.000147749 6.96144e-16)
(5.57103e-06 0.000367495 -6.97702e-15)
(0.000311299 0.000374451 4.96286e-15)
(0.000507234 0.000162268 5.40259e-14)
(0.000468948 -0.000108768 4.56724e-14)
(0.000268999 -0.000269514 -1.85575e-14)
(8.47577e-05 -0.000264841 -1.73672e-14)
(1.53036e-05 -0.000166008 1.06664e-13)
(5.96048e-05 -5.79414e-05 2.06967e-13)
(6.10446e-05 4.61101e-05 1.06423e-14)
(6.14075e-05 3.73245e-05 -1.3202e-14)
(7.19651e-05 4.40848e-05 3.43365e-14)
(6.50007e-05 3.53408e-05 -3.71147e-15)
(5.93202e-05 3.10932e-05 -1.5801e-13)
(5.19038e-05 2.81199e-05 -5.08947e-14)
(4.56823e-05 2.80079e-05 1.92063e-13)
(4.20526e-05 3.18123e-05 3.43129e-15)
(4.37156e-05 3.91427e-05 5.68647e-14)
(5.01204e-05 4.38596e-05 1.20088e-14)
(6.18408e-05 4.232e-05 8.10408e-14)
(7.72734e-05 2.67258e-05 1.60166e-14)
(7.1054e-05 -1.74318e-05 -1.13302e-14)
(6.95953e-06 -6.53878e-05 5.91851e-16)
(-9.31943e-05 -3.08637e-05 2.34002e-14)
(-0.00011675 0.000128588 -7.99693e-15)
(2.83746e-05 0.000297257 6.33272e-15)
(0.000270848 0.000308005 -1.84104e-15)
(0.000436876 0.000140523 -1.53537e-14)
(0.00041657 -8.72258e-05 -4.35963e-14)
(0.000258193 -0.000230827 -4.2227e-14)
(0.000104035 -0.000236278 -6.37745e-15)
(3.84091e-05 -0.000158153 1.84781e-14)
(7.16527e-05 -6.53831e-05 -7.5597e-14)
(5.99809e-05 3.78089e-05 9.87958e-16)
(6.25151e-05 3.19315e-05 2.03496e-14)
(6.85374e-05 3.49103e-05 -2.73925e-14)
(5.93962e-05 2.63339e-05 1.39086e-15)
(5.40842e-05 2.38526e-05 -3.54642e-14)
(4.8397e-05 2.29606e-05 -1.11733e-13)
(4.49216e-05 2.5497e-05 8.70886e-14)
(4.59737e-05 3.0819e-05 -3.19975e-14)
(5.20563e-05 3.42349e-05 -5.95439e-14)
(5.98748e-05 3.09778e-05 -9.38771e-14)
(6.92398e-05 1.77407e-05 -3.16425e-14)
(6.11543e-05 -1.19246e-05 -3.53826e-14)
(1.43947e-05 -3.93689e-05 4.00273e-14)
(-5.39288e-05 -7.74293e-06 1.04221e-14)
(-6.58249e-05 0.000111262 -1.9895e-14)
(4.68589e-05 0.000239288 6.08952e-15)
(0.000238141 0.000250651 2.27505e-14)
(0.000377298 0.000118797 -3.12274e-14)
(0.000369849 -7.12112e-05 -3.98124e-14)
(0.000246498 -0.000198625 2.37451e-14)
(0.00011987 -0.000212072 2.21698e-14)
(6.05521e-05 -0.000153221 -1.16801e-14)
(8.23465e-05 -7.56325e-05 -4.78597e-14)
(5.9654e-05 3.65532e-05 -2.24607e-14)
(5.72015e-05 2.67876e-05 -3.15874e-14)
(6.68973e-05 3.04358e-05 5.29245e-14)
(5.9645e-05 2.24814e-05 3.58947e-14)
(5.54298e-05 1.94463e-05 2.06218e-14)
(5.06686e-05 1.85545e-05 9.64533e-14)
(4.72316e-05 2.01163e-05 -5.56955e-14)
(4.76687e-05 2.37871e-05 8.7326e-14)
(5.32016e-05 2.6583e-05 6.90811e-15)
(5.82761e-05 2.26702e-05 1.2699e-14)
(6.39176e-05 1.21684e-05 1.08839e-13)
(5.60368e-05 -7.29051e-06 2.35735e-14)
(2.24804e-05 -2.12404e-05 -4.37133e-14)
(-2.28791e-05 6.59566e-06 -2.99285e-14)
(-2.66403e-05 9.52947e-05 3.62108e-15)
(6.12274e-05 0.00019118 -3.73355e-15)
(0.00021142 0.00020145 -6.55408e-15)
(0.000326839 9.79023e-05 1.44152e-14)
(0.000328187 -5.9489e-05 3.97881e-14)
(0.000233846 -0.000171467 1.82962e-14)
(0.000131056 -0.000191314 3.30505e-14)
(7.90391e-05 -0.000149132 3.9182e-15)
(9.27894e-05 -8.65845e-05 5.74034e-15)
(5.69356e-05 2.71179e-05 -3.78052e-14)
(5.6972e-05 1.98223e-05 -3.02668e-14)
(6.30226e-05 2.13261e-05 4.47409e-15)
(5.54409e-05 1.54321e-05 -6.34299e-14)
(5.269e-05 1.50342e-05 -9.33958e-14)
(4.9224e-05 1.57712e-05 1.97773e-14)
(4.89689e-05 1.8162e-05 -2.00571e-14)
(5.35901e-05 2.03075e-05 5.90282e-14)
(5.72836e-05 1.68782e-05 -5.67834e-14)
(6.0797e-05 8.67292e-06 -9.09064e-14)
(5.41635e-05 -3.43311e-06 -1.67955e-14)
(3.07908e-05 -9.14899e-06 2.59418e-14)
(1.65197e-06 1.48426e-05 1.71596e-14)
(3.55864e-06 8.04017e-05 1.33761e-14)
(7.22826e-05 0.000151461 -2.45077e-16)
(0.000189817 0.000159418 -1.28257e-15)
(0.00028451 7.83085e-05 -2.18217e-15)
(0.00029193 -5.12394e-05 -1.27378e-14)
(0.000221339 -0.000148369 -1.5193e-14)
(0.000139278 -0.000173253 -1.78592e-15)
(9.43758e-05 -0.000145049 5.82895e-15)
(0.000101022 -9.72914e-05 3.47595e-14)
(5.67e-05 2.5367e-05 -9.84656e-14)
(5.21703e-05 1.57668e-05 -5.03379e-14)
(6.11751e-05 1.75628e-05 1.60347e-14)
(5.5662e-05 1.22741e-05 -1.9404e-14)
(5.39054e-05 1.17914e-05 5.1274e-14)
(5.10518e-05 1.23062e-05 8.31392e-14)
(4.99666e-05 1.3855e-05 -1.50067e-14)
(5.3401e-05 1.52125e-05 -4.82204e-14)
(5.67058e-05 1.26331e-05 5.03099e-14)
(5.9041e-05 6.45858e-06 -3.95463e-14)
(5.42308e-05 -6.60499e-07 4.39508e-14)
(3.85782e-05 -1.62089e-06 -2.08076e-15)
(2.07746e-05 1.83896e-05 2.46835e-15)
(2.62811e-05 6.65189e-05 -4.14469e-15)
(8.02402e-05 0.000118223 -1.0816e-15)
(0.000171916 0.000123726 2.73113e-15)
(0.00024885 5.99375e-05 2.23677e-15)
(0.000259998 -4.56424e-05 4.99877e-15)
(0.000208434 -0.000129592 1.43265e-14)
(0.000143755 -0.000157645 -3.66658e-14)
(0.000105416 -0.000141668 -3.9143e-14)
(0.00010765 -0.000107198 3.03238e-14)
(5.30342e-05 1.60662e-05 -7.33935e-14)
(5.10011e-05 9.65772e-06 5.64392e-14)
(5.90697e-05 1.15572e-05 4.81803e-14)
(5.41641e-05 8.87457e-06 -1.86071e-14)
(5.26023e-05 9.90284e-06 -5.08358e-15)
(5.08093e-05 1.06531e-05 -9.66929e-15)
(5.31145e-05 1.13858e-05 -7.43759e-14)
(5.64754e-05 9.43273e-06 1.19145e-14)
(5.8184e-05 5.1517e-06 1.00259e-13)
(5.55282e-05 1.15727e-06 -3.38513e-14)
(4.5625e-05 2.83472e-06 -1.16595e-14)
(3.58002e-05 1.88524e-05 -3.1134e-14)
(4.33669e-05 5.39295e-05 6.32427e-15)
(8.59991e-05 9.06419e-05 -2.80391e-15)
(0.000157243 9.37979e-05 -1.22078e-14)
(0.000219307 4.32667e-05 -1.80775e-14)
(0.000232496 -4.20667e-05 -6.48006e-15)
(0.00019607 -0.000114282 1.39242e-14)
(0.000146104 -0.000144009 5.12655e-14)
(0.000113779 -0.000138229 3.3138e-14)
(0.000111519 -0.00011571 -3.85774e-14)
(5.31184e-05 1.47076e-05 9.87421e-14)
(4.77371e-05 7.40096e-06 4.01051e-14)
(5.75405e-05 8.13951e-06 -5.10087e-14)
(5.43544e-05 6.78872e-06 -3.5994e-15)
(5.37536e-05 7.80497e-06 3.82997e-14)
(5.14766e-05 8.15966e-06 -2.75288e-14)
(5.27496e-05 8.34684e-06 7.68171e-14)
(5.63465e-05 6.91472e-06 7.52069e-14)
(5.7825e-05 4.07654e-06 -2.51736e-14)
(5.72173e-05 2.13175e-06 1.14157e-14)
(5.16155e-05 4.82518e-06 1.76013e-14)
(4.71953e-05 1.72699e-05 2.72176e-14)
(5.57489e-05 4.22475e-05 3.80735e-16)
(8.95453e-05 6.76913e-05 -5.90288e-15)
(0.000144764 6.84943e-05 7.78013e-15)
(0.000194476 2.8367e-05 1.64835e-14)
(0.000208351 -4.04947e-05 -1.2908e-14)
(0.000183567 -0.000102275 -2.41566e-14)
(0.00014544 -0.00013286 -5.47129e-14)
(0.000118298 -0.000135435 -5.97033e-14)
(0.00011331 -0.000123765 1.09882e-14)
(4.90302e-05 7.17647e-06 2.83247e-14)
(4.84228e-05 3.93475e-06 5.65427e-14)
(5.86493e-05 6.7701e-06 1.33093e-14)
(5.37059e-05 6.30023e-06 7.98824e-15)
(5.21479e-05 6.52204e-06 -3.00914e-14)
(5.23583e-05 6.00653e-06 -5.32615e-14)
(5.62933e-05 4.99669e-06 -3.09719e-14)
(5.77915e-05 3.19561e-06 -2.81731e-14)
(5.89819e-05 2.50057e-06 -3.34642e-14)
(5.66548e-05 5.27446e-06 -2.48987e-14)
(5.58529e-05 1.46453e-05 -1.80405e-14)
(6.47561e-05 3.18961e-05 -4.90597e-16)
(9.1645e-05 4.89004e-05 1.03081e-14)
(0.000134404 4.76252e-05 -2.96143e-15)
(0.000173968 1.55161e-05 -3.38128e-15)
(0.000187714 -4.00869e-05 1.59781e-14)
(0.000171747 -9.26908e-05 -8.73641e-15)
(0.000143297 -0.00012348 -6.48072e-14)
(0.000120766 -0.00013225 -4.29672e-14)
(0.000112705 -0.00013016 -3.03175e-15)
(4.89413e-05 6.4683e-06 9.71763e-15)
(4.72949e-05 3.79306e-06 -1.79268e-14)
(5.7323e-05 6.78085e-06 4.20104e-15)
(5.38902e-05 6.08479e-06 -1.47874e-14)
(5.21023e-05 5.21872e-06 4.85849e-14)
(5.17441e-05 4.0985e-06 2.85377e-14)
(5.60753e-05 3.29755e-06 -3.61143e-14)
(5.76703e-05 2.28793e-06 6.02941e-15)
(6.04681e-05 2.16337e-06 2.41335e-14)
(6.05163e-05 4.63099e-06 -2.1034e-15)
(6.20588e-05 1.12178e-05 9.89857e-15)
(7.07705e-05 2.2656e-05 2.924e-15)
(9.22271e-05 3.32108e-05 -4.64866e-15)
(0.000125277 3.03547e-05 -1.67994e-15)
(0.000156561 4.16811e-06 -3.1682e-15)
(0.000169564 -4.07065e-05 -1.24166e-14)
(0.000159886 -8.56973e-05 -5.38331e-15)
(0.000138929 -0.000115908 4.24551e-14)
(0.000119989 -0.000129658 6.71125e-14)
(0.000110203 -0.000135937 6.92062e-15)
(4.76937e-05 7.04407e-06 1.0908e-14)
(4.56613e-05 4.9281e-06 -1.47512e-14)
(5.64278e-05 7.77815e-06 -1.27381e-14)
(5.29895e-05 6.0394e-06 -3.01018e-14)
(5.16748e-05 4.04488e-06 9.11806e-15)
(5.11795e-05 2.52141e-06 -2.88865e-14)
(5.55359e-05 1.79684e-06 3.32953e-14)
(5.77229e-05 1.35453e-06 2.40717e-14)
(6.16273e-05 1.47496e-06 -1.0652e-14)
(6.34324e-05 3.41734e-06 3.90971e-15)
(6.64958e-05 7.66485e-06 -3.80548e-15)
(7.47536e-05 1.4706e-05 -3.9096e-15)
(9.19721e-05 2.04927e-05 7.33574e-16)
(0.000117491 1.64037e-05 4.21229e-15)
(0.000142145 -5.32208e-06 8.48102e-15)
(0.000154004 -4.17071e-05 1.76872e-14)
(0.000148773 -8.03321e-05 3.32177e-15)
(0.000133724 -0.000109381 2.46073e-14)
(0.000117663 -0.000126739 1.34754e-15)
(0.000106045 -0.000139544 -3.6826e-14)
(4.69148e-05 8.80634e-06 -1.01934e-13)
(4.73849e-05 7.04661e-06 -3.24844e-14)
(5.54728e-05 6.11188e-06 -1.59991e-14)
(5.02777e-05 2.77194e-06 2.37442e-15)
(5.07904e-05 1.22897e-06 3.18237e-14)
(5.45539e-05 4.25656e-07 -1.48826e-14)
(5.78071e-05 2.25307e-07 -3.65508e-14)
(6.23154e-05 4.68675e-07 -3.37566e-15)
(6.54249e-05 1.69114e-06 1.70074e-14)
(6.9281e-05 4.06398e-06 6.77448e-15)
(7.68761e-05 7.67254e-06 9.4349e-17)
(9.06863e-05 1.00249e-05 -3.71931e-15)
(0.000110351 4.83378e-06 -2.72122e-16)
(0.000129663 -1.343e-05 -8.63202e-15)
(0.000140091 -4.33462e-05 -6.80346e-15)
(0.000137768 -7.65796e-05 4.43246e-14)
(0.00012696 -0.000104208 1.65216e-14)