/*--------------------------------*- C++ -*----------------------------------*\
| =========                 |                                                 |
| \\      /  F ield         | OpenFOAM: The Open Source CFD Toolbox           |
|  \\    /   O peration     | Version:  2306                                  |
|   \\  /    A nd           | Website:  www.openfoam.com                      |
|    \\/     M anipulation  |                                                 |
\*---------------------------------------------------------------------------*/
FoamFile
{
    version     2.0;
    format      ascii;
    arch        "LSB;label=32;scalar=64";
    class       volScalarField;
    location    "975";
    object      turbulenceProperties:nut;
}
// * * * * * * * * * * * * * * * * * * * * * * * * * * * * * * * * * * * * * //

dimensions      [0 2 -1 0 0 0 0];

internalField   nonuniform List<scalar> 
1340
(
2.5808e-05
2.95347e-05
3.45224e-05
4.09851e-05
4.93089e-05
6.00253e-05
7.38547e-05
9.11589e-05
0.000112975
0.000140349
0.000175234
0.000220745
0.000281313
0.000364892
0.000485068
0.000663862
0.000945883
0.00139527
0.00221739
0.00358939
0.00690149
0.0127114
0.0339124
0.076049
0.0937402
0.0946679
0.0957022
0.0992314
0.102748
0.104486
0.104464
0.103217
0.100848
0.0974151
0.0927943
2.25825e-05
1.98038e-05
1.70736e-05
1.45837e-05
1.22497e-05
1.01071e-05
8.24453e-06
5.08548e-06
4.98033e-06
4.88546e-06
4.80683e-06
4.71662e-06
4.6338e-06
4.57245e-06
4.51875e-06
4.49564e-06
4.51593e-06
4.54347e-06
4.81844e-06
5.87877e-06
8.65257e-06
1.6411e-05
3.68045e-05
8.38962e-05
0.000162735
0.000315376
0.000588585
0.00132189
0.00283121
0.00711319
0.020508
0.0395405
0.0633163
0.0925256
0.123649
0.148687
0.162649
0.167952
0.168785
0.167204
0.163852
0.159338
5.16908e-06
5.28233e-06
5.37884e-06
5.50984e-06
5.64412e-06
5.78001e-06
6.26616e-06
6.28349e-06
6.30147e-06
6.3208e-06
6.34449e-06
6.371e-06
6.40132e-06
6.43677e-06
6.47862e-06
6.52762e-06
6.58583e-06
6.65744e-06
6.73707e-06
6.87899e-06
6.88564e-06
6.50489e-06
4.6794e-06
3.91424e-06
4.70166e-07
9.75771e-05
0.000254949
5.42069e-06
0.0014739
0.000525136
0.00289493
0.00738535
0.0154453
0.0308588
0.0572656
0.0937062
0.132759
0.164497
0.184918
0.196755
0.203443
6.25289e-06
6.23387e-06
6.21932e-06
6.19774e-06
6.1792e-06
6.15928e-06
6.08613e-06
6.08373e-06
6.08313e-06
6.0835e-06
6.08442e-06
6.08709e-06
6.09198e-06
6.09872e-06
6.10877e-06
6.12237e-06
6.14033e-06
6.16384e-06
6.19448e-06
6.23305e-06
6.2844e-06
6.34632e-06
6.19878e-06
5.96965e-06
4.24921e-06
1.22307e-06
1.52223e-08
8.28975e-08
0
8.41883e-05
0.000603914
0.00158683
0.000436214
0.00131291
0.00415829
0.0135961
0.0356514
0.0728147
0.118846
0.161343
0.193221
6.0868e-06
6.08915e-06
6.09227e-06
6.09447e-06
6.09826e-06
6.11119e-06
6.11175e-06
6.11202e-06
6.11291e-06
6.11446e-06
6.11643e-06
6.1191e-06
6.12268e-06
6.12738e-06
6.13356e-06
6.14164e-06
6.15222e-06
6.1661e-06
6.18395e-06
6.20806e-06
6.23608e-06
6.2816e-06
6.28159e-06
6.52194e-06
6.35143e-06
4.82999e-06
1.87791e-06
1.82075e-08
1.18653e-09
0
0
6.54043e-05
0.000281006
0.000915714
0.0030624
0.00092127
0.00810035
0.029556
0.0707107
0.124109
6.11124e-06
6.10986e-06
6.11056e-06
6.10951e-06
6.11039e-06
6.10507e-06
6.10485e-06
6.10514e-06
6.1054e-06
6.1055e-06
6.1059e-06
6.1065e-06
6.10727e-06
6.10849e-06
6.11018e-06
6.1125e-06
6.11572e-06
6.12008e-06
6.12598e-06
6.13411e-06
6.14498e-06
6.16051e-06
6.17057e-06
6.23468e-06
6.31433e-06
6.59369e-06
6.37413e-06
5.2596e-06
8.11196e-07
1.28133e-08
2.51829e-09
9.98447e-11
0
0
0
0.000198769
0.00184856
0.000374233
0.00873727
0.0380477
6.1046e-06
6.10391e-06
6.10482e-06
6.1046e-06
6.10531e-06
6.10553e-06
6.10569e-06
6.10573e-06
6.10586e-06
6.10595e-06
6.10612e-06
6.10646e-06
6.10694e-06
6.10765e-06
6.10869e-06
6.11015e-06
6.11221e-06
6.11509e-06
6.11904e-06
6.12463e-06
6.13213e-06
6.1399e-06
6.14855e-06
6.16416e-06
6.22585e-06
6.33297e-06
6.91774e-06
6.57732e-06
4.11757e-06
1.52524e-06
5.97109e-08
8.84212e-09
3.39709e-09
4.98847e-11
0
0
5.492e-05
0.00205252
0.00164183
6.10484e-06
6.10378e-06
6.10417e-06
6.10385e-06
6.10488e-06
6.10502e-06
6.10531e-06
6.10529e-06
6.10511e-06
6.10498e-06
6.10482e-06
6.10466e-06
6.10462e-06
6.10462e-06
6.10471e-06
6.10494e-06
6.10531e-06
6.1059e-06
6.10679e-06
6.10816e-06
6.1102e-06
6.11263e-06
6.11472e-06
6.11964e-06
6.1186e-06
6.11723e-06
6.20885e-06
6.62783e-06
6.94596e-06
6.65536e-06
5.458e-06
3.48089e-06
1.75963e-06
2.60145e-08
7.02601e-09
1.1282e-11
0
0
0.000397508
6.10429e-06
6.10315e-06
6.10315e-06
6.10273e-06
6.10481e-06
6.10495e-06
6.10509e-06
6.1049e-06
6.10472e-06
6.10444e-06
6.10421e-06
6.10409e-06
6.10397e-06
6.10391e-06
6.10393e-06
6.10403e-06
6.10426e-06
6.10466e-06
6.10528e-06
6.10623e-06
6.10766e-06
6.10956e-06
6.11129e-06
6.11348e-06
6.11505e-06
6.1132e-06
6.08786e-06
6.13446e-06
6.34591e-06
6.63818e-06
6.9602e-06
7.0897e-06
6.9377e-06
4.88431e-06
2.68718e-06
5.49198e-09
3.00635e-09
0
0
6.10424e-06
6.10298e-06
6.10263e-06
6.10417e-06
6.10388e-06
6.10358e-06
6.10335e-06
6.10314e-06
6.10296e-06
6.1028e-06
6.10269e-06
6.10261e-06
6.10255e-06
6.10253e-06
6.10252e-06
6.1026e-06
6.10269e-06
6.10287e-06
6.10342e-06
6.10507e-06
6.10796e-06
6.10283e-06
6.08557e-06
6.09221e-06
6.15188e-06
6.30043e-06
6.55389e-06
6.90303e-06
7.27908e-06
7.45149e-06
5.06673e-06
1.17894e-06
1.08798e-08
0
6.10302e-06
6.10282e-06
6.10264e-06
6.1025e-06
6.1024e-06
6.10234e-06
6.10232e-06
6.10236e-06
6.10247e-06
6.10267e-06
6.10299e-06
6.1035e-06
6.10408e-06
6.10458e-06
6.10513e-06
6.10626e-06
6.10776e-06
6.10393e-06
6.09341e-06
6.08496e-06
6.08983e-06
6.13086e-06
6.22519e-06
6.46692e-06
6.85522e-06
7.59115e-06
7.15527e-06
3.0405e-06
1.54303e-08
6.10214e-06
6.10201e-06
6.1019e-06
6.10182e-06
6.10175e-06
6.10173e-06
6.10172e-06
6.10176e-06
6.10184e-06
6.10197e-06
6.10219e-06
6.10259e-06
6.10316e-06
6.10399e-06
6.10538e-06
6.10663e-06
6.10568e-06
6.10172e-06
6.09442e-06
6.08761e-06
6.08134e-06
6.10532e-06
6.16723e-06
6.48761e-06
7.18284e-06
7.77256e-06
3.90714e-06
6.10166e-06
6.1016e-06
6.10155e-06
6.10153e-06
6.10152e-06
6.10154e-06
6.10161e-06
6.10171e-06
6.10189e-06
6.10214e-06
6.10246e-06
6.10284e-06
6.10333e-06
6.10406e-06
6.10512e-06
6.10624e-06
6.10698e-06
6.10685e-06
6.10525e-06
6.09915e-06
6.08792e-06
6.0678e-06
6.06624e-06
6.23425e-06
6.78015e-06
8.4782e-06
6.10138e-06
6.10135e-06
6.10135e-06
6.10135e-06
6.10136e-06
6.1014e-06
6.10147e-06
6.10157e-06
6.10172e-06
6.10195e-06
6.10227e-06
6.10268e-06
6.10323e-06
6.10396e-06
6.1049e-06
6.10602e-06
6.10743e-06
6.10919e-06
6.11084e-06
6.10944e-06
6.1019e-06
6.07273e-06
6.04547e-06
6.07043e-06
6.64522e-06
6.10125e-06
6.10126e-06
6.10128e-06
6.10131e-06
6.10134e-06
6.10139e-06
6.10145e-06
6.10155e-06
6.10167e-06
6.10186e-06
6.1021e-06
6.10241e-06
6.10281e-06
6.10334e-06
6.10405e-06
6.10494e-06
6.10606e-06
6.10758e-06
6.10991e-06
6.11272e-06
6.11503e-06
6.11298e-06
6.07919e-06
6.10149e-06
5.62765e-06
6.10126e-06
6.1013e-06
6.10135e-06
6.10139e-06
6.10144e-06
6.10149e-06
6.10156e-06
6.10166e-06
6.1018e-06
6.10199e-06
6.10224e-06
6.10256e-06
6.10298e-06
6.10354e-06
6.10428e-06
6.1052e-06
6.10632e-06
6.10779e-06
6.11013e-06
6.11263e-06
6.12029e-06
6.10338e-06
6.16443e-06
5.81183e-06
6.10135e-06
6.10141e-06
6.10146e-06
6.10151e-06
6.10157e-06
6.10164e-06
6.10172e-06
6.10184e-06
6.10199e-06
6.10219e-06
6.10245e-06
6.10278e-06
6.10323e-06
6.10385e-06
6.10465e-06
6.10562e-06
6.10672e-06
6.1083e-06
6.10978e-06
6.11491e-06
6.11346e-06
6.12469e-06
6.18836e-06
6.10143e-06
6.1015e-06
6.10156e-06
6.10162e-06
6.10167e-06
6.10174e-06
6.10181e-06
6.10191e-06
6.10203e-06
6.1022e-06
6.10242e-06
6.10269e-06
6.10306e-06
6.10358e-06
6.10426e-06
6.10512e-06
6.10612e-06
6.10732e-06
6.10877e-06
6.10993e-06
6.119e-06
6.08385e-06
6.31075e-06
6.10159e-06
6.10165e-06
6.10171e-06
6.10177e-06
6.10183e-06
6.1019e-06
6.10198e-06
6.10209e-06
6.10223e-06
6.1024e-06
6.10263e-06
6.10295e-06
6.10338e-06
6.10397e-06
6.10471e-06
6.10563e-06
6.10663e-06
6.10825e-06
6.1078e-06
6.11878e-06
6.0815e-06
6.24419e-06
6.10167e-06
6.10174e-06
6.10181e-06
6.10188e-06
6.10194e-06
6.10201e-06
6.10209e-06
6.10218e-06
6.1023e-06
6.10245e-06
6.10264e-06
6.1029e-06
6.10327e-06
6.10376e-06
6.1044e-06
6.10522e-06
6.10609e-06
6.10758e-06
6.10743e-06
6.11461e-06
6.09748e-06
6.15235e-06
6.10185e-06
6.10193e-06
6.102e-06
6.10207e-06
6.10214e-06
6.10222e-06
6.10231e-06
6.10242e-06
6.10255e-06
6.10271e-06
6.10293e-06
6.10324e-06
6.10366e-06
6.1042e-06
6.1049e-06
6.1057e-06
6.10688e-06
6.10753e-06
6.11041e-06
6.11006e-06
6.10407e-06
6.10195e-06
6.10204e-06
6.10211e-06
6.10219e-06
6.10227e-06
6.10235e-06
6.10243e-06
6.10253e-06
6.10266e-06
6.1028e-06
6.10299e-06
6.10326e-06
6.10362e-06
6.10409e-06
6.1047e-06
6.10543e-06
6.10634e-06
6.10746e-06
6.10809e-06
6.1139e-06
6.09444e-06
6.10215e-06
6.10224e-06
6.10232e-06
6.1024e-06
6.10249e-06
6.10258e-06
6.10267e-06
6.10279e-06
6.10292e-06
6.10309e-06
6.10332e-06
6.10363e-06
6.10404e-06
6.10457e-06
6.10523e-06
6.10598e-06
6.10716e-06
6.10736e-06
6.11264e-06
6.10032e-06
6.10226e-06
6.10236e-06
6.10245e-06
6.10254e-06
6.10263e-06
6.10272e-06
6.10282e-06
6.10293e-06
6.10305e-06
6.1032e-06
6.10341e-06
6.10368e-06
6.10404e-06
6.1045e-06
6.10509e-06
6.10576e-06
6.10678e-06
6.10727e-06
6.11034e-06
6.10685e-06
6.10237e-06
6.10248e-06
6.10258e-06
6.10268e-06
6.10278e-06
6.10287e-06
6.10297e-06
6.10308e-06
6.1032e-06
6.10334e-06
6.10352e-06
6.10377e-06
6.10408e-06
6.10449e-06
6.10501e-06
6.10563e-06
6.10646e-06
6.10725e-06
6.10876e-06
6.10983e-06
6.1026e-06
6.10271e-06
6.10282e-06
6.10293e-06
6.10303e-06
6.10313e-06
6.10325e-06
6.10336e-06
6.1035e-06
6.10366e-06
6.10388e-06
6.10416e-06
6.10452e-06
6.10498e-06
6.10555e-06
6.10626e-06
6.10713e-06
6.10802e-06
6.11016e-06
6.10273e-06
6.10285e-06
6.10296e-06
6.10308e-06
6.10319e-06
6.1033e-06
6.10342e-06
6.10354e-06
6.10367e-06
6.10383e-06
6.10403e-06
6.10428e-06
6.1046e-06
6.10501e-06
6.10552e-06
6.10614e-06
6.10697e-06
6.10774e-06
6.10956e-06
6.10284e-06
6.10298e-06
6.1031e-06
6.10322e-06
6.10334e-06
6.10346e-06
6.10359e-06
6.10371e-06
6.10384e-06
6.10399e-06
6.10418e-06
6.10441e-06
6.10471e-06
6.10508e-06
6.10554e-06
6.1061e-06
6.10684e-06
6.10762e-06
6.10896e-06
6.1031e-06
6.10324e-06
6.10337e-06
6.1035e-06
6.10363e-06
6.10376e-06
6.10389e-06
6.10402e-06
6.10417e-06
6.10435e-06
6.10456e-06
6.10483e-06
6.10517e-06
6.10559e-06
6.10611e-06
6.10677e-06
6.10754e-06
6.10859e-06
6.10323e-06
6.10337e-06
6.10352e-06
6.10366e-06
6.10379e-06
6.10393e-06
6.10407e-06
6.1042e-06
6.10435e-06
6.10452e-06
6.10473e-06
6.10498e-06
6.10529e-06
6.10568e-06
6.10615e-06
6.10675e-06
6.10748e-06
6.1084e-06
6.10335e-06
6.10351e-06
6.10366e-06
6.10381e-06
6.10396e-06
6.10411e-06
6.10425e-06
6.10439e-06
6.10454e-06
6.10471e-06
6.10491e-06
6.10514e-06
6.10543e-06
6.10579e-06
6.10623e-06
6.10678e-06
6.10745e-06
6.10831e-06
6.10364e-06
6.10381e-06
6.10396e-06
6.10412e-06
6.10428e-06
6.10443e-06
6.10458e-06
6.10474e-06
6.1049e-06
6.10509e-06
6.10532e-06
6.10559e-06
6.10593e-06
6.10633e-06
6.10684e-06
6.10746e-06
6.10827e-06
6.10377e-06
6.10395e-06
6.10412e-06
6.10429e-06
6.10445e-06
6.10462e-06
6.10477e-06
6.10493e-06
6.1051e-06
6.10529e-06
6.10551e-06
6.10577e-06
6.10608e-06
6.10647e-06
6.10694e-06
6.10751e-06
6.10827e-06
6.1039e-06
6.10409e-06
6.10427e-06
6.10445e-06
6.10463e-06
6.1048e-06
6.10496e-06
6.10513e-06
6.1053e-06
6.10549e-06
6.10571e-06
6.10596e-06
6.10626e-06
6.10662e-06
6.10706e-06
6.10759e-06
6.10422e-06
6.10442e-06
6.10461e-06
6.1048e-06
6.10498e-06
6.10515e-06
6.10532e-06
6.1055e-06
6.10569e-06
6.10591e-06
6.10616e-06
6.10644e-06
6.10679e-06
6.1072e-06
6.1077e-06
6.10436e-06
6.10457e-06
6.10477e-06
6.10497e-06
6.10516e-06
6.10534e-06
6.10552e-06
6.10571e-06
6.1059e-06
6.10612e-06
6.10636e-06
6.10664e-06
6.10697e-06
6.10737e-06
6.10784e-06
6.10449e-06
6.10471e-06
6.10492e-06
6.10513e-06
6.10534e-06
6.10553e-06
6.10572e-06
6.10591e-06
6.10611e-06
6.10633e-06
6.10658e-06
6.10685e-06
6.10717e-06
6.10755e-06
6.108e-06
6.10461e-06
6.10484e-06
6.10507e-06
6.10529e-06
6.10551e-06
6.10571e-06
6.10591e-06
6.10611e-06
6.10632e-06
6.10654e-06
6.10679e-06
6.10707e-06
6.10738e-06
6.10775e-06
6.10818e-06
6.10473e-06
6.10497e-06
6.10521e-06
6.10545e-06
6.10567e-06
6.10589e-06
6.1061e-06
6.10631e-06
6.10652e-06
6.10676e-06
6.10701e-06
6.10728e-06
6.10759e-06
6.10795e-06
6.10837e-06
6.10509e-06
6.10534e-06
6.10559e-06
6.10583e-06
6.10606e-06
6.10627e-06
6.10649e-06
6.10672e-06
6.10696e-06
6.10722e-06
6.1075e-06
6.10781e-06
6.10817e-06
6.10857e-06
6.10519e-06
6.10546e-06
6.10572e-06
6.10597e-06
6.10621e-06
6.10644e-06
6.10667e-06
6.10691e-06
6.10716e-06
6.10743e-06
6.10771e-06
6.10803e-06
6.10838e-06
6.10878e-06
6.10528e-06
6.10556e-06
6.10583e-06
6.1061e-06
6.10634e-06
6.10659e-06
6.10683e-06
6.10708e-06
6.10734e-06
6.10762e-06
6.10792e-06
6.10824e-06
6.10859e-06
6.10899e-06
6.10534e-06
6.10563e-06
6.10592e-06
6.1062e-06
6.10646e-06
6.10671e-06
6.10697e-06
6.10724e-06
6.10751e-06
6.1078e-06
6.1081e-06
6.10843e-06
6.1088e-06
6.10919e-06
6.10537e-06
6.10568e-06
6.10598e-06
6.10627e-06
6.10655e-06
6.10682e-06
6.10709e-06
6.10736e-06
6.10765e-06
6.10795e-06
6.10827e-06
6.10861e-06
6.10898e-06
6.10939e-06
6.1057e-06
6.10601e-06
6.10632e-06
6.10661e-06
6.10689e-06
6.10717e-06
6.10746e-06
6.10777e-06
6.10808e-06
6.10841e-06
6.10877e-06
6.10915e-06
6.10956e-06
6.10567e-06
6.106e-06
6.10632e-06
6.10663e-06
6.10692e-06
6.10722e-06
6.10753e-06
6.10785e-06
6.10818e-06
6.10852e-06
6.10889e-06
6.10929e-06
6.10561e-06
6.10595e-06
6.10629e-06
6.1066e-06
6.10691e-06
6.10723e-06
6.10755e-06
6.10789e-06
6.10823e-06
6.1086e-06
6.10898e-06
6.10939e-06
6.1055e-06
6.10586e-06
6.1062e-06
6.10653e-06
6.10686e-06
6.10719e-06
6.10753e-06
6.10788e-06
6.10825e-06
6.10863e-06
6.10903e-06
6.10945e-06
6.10533e-06
6.1057e-06
6.10606e-06
6.10641e-06
6.10675e-06
6.10709e-06
6.10745e-06
6.10782e-06
6.1082e-06
6.1086e-06
6.10902e-06
6.10947e-06
6.10548e-06
6.10586e-06
6.10622e-06
6.10658e-06
6.10694e-06
6.10731e-06
6.1077e-06
6.1081e-06
6.10852e-06
6.10896e-06
6.10943e-06
6.10519e-06
6.10559e-06
6.10596e-06
6.10633e-06
6.10671e-06
6.1071e-06
6.10751e-06
6.10793e-06
6.10837e-06
6.10883e-06
6.10932e-06
6.10483e-06
6.10523e-06
6.10562e-06
6.10601e-06
6.1064e-06
6.10681e-06
6.10724e-06
6.10768e-06
6.10814e-06
6.10862e-06
6.10913e-06
6.10437e-06
6.10479e-06
6.1052e-06
6.1056e-06
6.10601e-06
6.10644e-06
6.10688e-06
6.10734e-06
6.10783e-06
6.10833e-06
6.10886e-06
6.10382e-06
6.10426e-06
6.10468e-06
6.10509e-06
6.10552e-06
6.10597e-06
6.10643e-06
6.10691e-06
6.10742e-06
6.10794e-06
6.1085e-06
6.10317e-06
6.10362e-06
6.10406e-06
6.10449e-06
6.10493e-06
6.10539e-06
6.10588e-06
6.10638e-06
6.1069e-06
6.10745e-06
6.10242e-06
6.10288e-06
6.10333e-06
6.10377e-06
6.10423e-06
6.10471e-06
6.10521e-06
6.10573e-06
6.10628e-06
6.10685e-06
6.10204e-06
6.1025e-06
6.10295e-06
6.10343e-06
6.10392e-06
6.10444e-06
6.10498e-06
6.10554e-06
6.10613e-06
6.10109e-06
6.10156e-06
6.10203e-06
6.10252e-06
6.10303e-06
6.10356e-06
6.10411e-06
6.10469e-06
6.1053e-06
6.1e-06
6.10049e-06
6.10097e-06
6.10147e-06
6.102e-06
6.10255e-06
6.10313e-06
6.10373e-06
6.10436e-06
6.09872e-06
6.09921e-06
6.09971e-06
6.10023e-06
6.10078e-06
6.10136e-06
6.10196e-06
6.10259e-06
6.10324e-06
6.09713e-06
6.09763e-06
6.09814e-06
6.09868e-06
6.09925e-06
6.09986e-06
6.10049e-06
6.10116e-06
6.10186e-06
6.09518e-06
6.09568e-06
6.09619e-06
6.09674e-06
6.09734e-06
6.09796e-06
6.09863e-06
6.09934e-06
6.09294e-06
6.09342e-06
6.09392e-06
6.09447e-06
6.09506e-06
6.09569e-06
6.09637e-06
6.0971e-06
6.09056e-06
6.09101e-06
6.0915e-06
6.09202e-06
6.09259e-06
6.0932e-06
6.09387e-06
6.09458e-06
6.08858e-06
6.08904e-06
6.08954e-06
6.09008e-06
6.09066e-06
6.09129e-06
6.09197e-06
6.0861e-06
6.08654e-06
6.08701e-06
6.08753e-06
6.08809e-06
6.08869e-06
6.08934e-06
6.08348e-06
6.08391e-06
6.08438e-06
6.0849e-06
6.08546e-06
6.08606e-06
6.08671e-06
6.08095e-06
6.08137e-06
6.08184e-06
6.08235e-06
6.08292e-06
6.08354e-06
6.08419e-06
6.07863e-06
6.07902e-06
6.07944e-06
6.07992e-06
6.08046e-06
6.08103e-06
6.07632e-06
6.07665e-06
6.07702e-06
6.07744e-06
6.07792e-06
6.07842e-06
6.07399e-06
6.07427e-06
6.07458e-06
6.07494e-06
6.07536e-06
6.07578e-06
6.07183e-06
6.07202e-06
6.07224e-06
6.07251e-06
6.07284e-06
6.07316e-06
6.0706e-06
6.07064e-06
6.07069e-06
6.07075e-06
6.07087e-06
6.071e-06
6.07204e-06
6.07197e-06
6.07188e-06
6.07176e-06
6.07161e-06
6.07151e-06
6.07471e-06
6.07466e-06
6.07459e-06
6.07444e-06
6.07434e-06
6.0778e-06
6.07783e-06
6.07779e-06
6.07765e-06
6.07764e-06
6.08102e-06
6.08117e-06
6.08135e-06
6.08147e-06
6.08156e-06
6.08444e-06
6.08467e-06
6.08472e-06
6.08461e-06
6.08688e-06
6.08769e-06
6.08871e-06
6.08978e-06
6.09831e-06
6.09888e-06
6.09946e-06
6.09971e-06
)
;

boundaryField
{
    inlet
    {
        type            freestream;
        freestreamValue uniform 1e-05;
        value           nonuniform List<scalar> 4(6.09831e-06 6.09888e-06 6.09946e-06 6.09971e-06);
    }
    outlet
    {
        type            freestream;
        freestreamValue nonuniform List<scalar> 0();
        value           nonuniform List<scalar> 0();
    }
    walls
    {
        type            nutUSpaldingWallFunction;
        value           nonuniform List<scalar> 
42
(
0.00322601
0.0034524
0.00368873
0.00387635
0.00405219
0.00420684
0.0043273
0.00441983
0.00448689
0.00452662
0.00454633
0.00454453
0.00451588
0.00446256
0.00438034
0.00426716
0.00411653
0.00392205
0.00367028
0.0033499
0.00294419
0.00245301
0.00192327
0.00152455
0.00136086
0.00143215
0.00158943
0.0017528
0.00188569
0.00197355
0.00202077
0.00203754
0.00201935
0.00196923
0.00188445
0.00298579
0.00271396
0.00241518
0.00204551
0.00164354
0.00120845
0.000769903
)
;
    }
    frontAndBack
    {
        type            empty;
    }
    procBoundary5to0
    {
        type            processor;
        value           nonuniform List<scalar> 4(6.10473e-06 6.10423e-06 6.10295e-06 6.10231e-06);
    }
    procBoundary5to1
    {
        type            processor;
        value           nonuniform List<scalar> 
13
(
6.96117e-06
5.91115e-06
5.91115e-06
6.14154e-06
6.1003e-06
6.1003e-06
6.10918e-06
6.1063e-06
6.1063e-06
6.10551e-06
6.10435e-06
6.10205e-06
6.10205e-06
)
;
    }
    procBoundary5to4
    {
        type            processor;
        value           nonuniform List<scalar> 
95
(
6.10474e-06
6.10475e-06
6.10447e-06
6.10447e-06
6.10365e-06
6.10332e-06
6.10332e-06
6.10253e-06
6.10233e-06
6.10233e-06
6.10176e-06
6.10176e-06
6.10141e-06
6.10141e-06
6.10124e-06
6.10121e-06
6.10121e-06
6.10129e-06
6.10129e-06
6.10135e-06
6.10151e-06
6.10151e-06
6.10158e-06
6.10176e-06
6.10176e-06
6.10185e-06
6.10205e-06
6.10205e-06
6.10215e-06
6.10226e-06
6.10249e-06
6.10249e-06
6.1026e-06
6.10271e-06
6.10296e-06
6.10296e-06
6.10308e-06
6.10319e-06
6.10347e-06
6.10347e-06
6.10359e-06
6.10371e-06
6.10403e-06
6.10403e-06
6.10415e-06
6.10427e-06
6.10438e-06
6.10448e-06
6.10483e-06
6.10483e-06
6.10492e-06
6.10499e-06
6.10504e-06
6.10506e-06
6.10537e-06
6.10537e-06
6.10534e-06
6.10526e-06
6.10513e-06
6.10495e-06
6.10509e-06
6.10509e-06
6.10479e-06
6.10441e-06
6.10394e-06
6.10338e-06
6.10272e-06
6.10195e-06
6.10157e-06
6.10157e-06
6.1006e-06
6.09951e-06
6.09821e-06
6.09662e-06
6.09469e-06
6.09247e-06
6.09011e-06
6.08815e-06
6.08815e-06
6.08569e-06
6.08308e-06
6.08057e-06
6.07829e-06
6.07602e-06
6.07374e-06
6.07166e-06
6.07057e-06
6.0721e-06
6.07473e-06
6.07473e-06
6.07776e-06
6.08084e-06
6.08424e-06
6.08604e-06
6.09761e-06
)
;
    }
    procBoundary5to6
    {
        type            processor;
        value           nonuniform List<scalar> 
86
(
0.0869137
0.153837
0.206322
0.215348
0.175038
0.093235
0.0214739
0.000849009
0.000188551
0
0
9.68898e-09
2.30575e-06
9.90942e-06
9.26939e-06
6.42336e-06
5.26185e-06
5.30671e-06
5.74167e-06
6.07599e-06
6.19461e-06
6.18546e-06
6.14612e-06
6.11947e-06
6.1095e-06
6.10823e-06
6.10917e-06
6.10978e-06
6.10979e-06
6.10955e-06
6.10931e-06
6.10915e-06
6.10907e-06
6.1083e-06
6.1083e-06
6.10836e-06
6.10846e-06
6.10858e-06
6.10873e-06
6.1089e-06
6.10908e-06
6.10927e-06
6.10947e-06
6.10967e-06
6.10986e-06
6.11004e-06
6.10971e-06
6.10971e-06
6.10983e-06
6.10991e-06
6.10994e-06
6.10992e-06
6.10983e-06
6.10967e-06
6.10942e-06
6.10908e-06
6.10803e-06
6.10803e-06
6.10745e-06
6.10675e-06
6.10594e-06
6.10502e-06
6.10393e-06
6.10259e-06
6.10008e-06
6.10008e-06
6.09787e-06
6.09534e-06
6.0927e-06
6.09003e-06
6.08739e-06
6.0849e-06
6.08166e-06
6.08166e-06
6.07898e-06
6.07626e-06
6.07354e-06
6.07117e-06
6.07139e-06
6.07421e-06
6.07753e-06
6.08166e-06
6.08489e-06
6.08489e-06
6.0905e-06
6.10004e-06
)
;
    }
}


// ************************************************************************* //
