# p  FACE_DATA 300
# x y z  p
0.29787915 -0.05 -0.060005454 21536.204
0.29366024 -0.05 -0.059998184 21528.517
0.28948669 -0.05 -0.059982824 21522.632
0.28535801 -0.05 -0.05995956 21517.506
0.28127374 -0.05 -0.05992843 21513.978
0.27723341 -0.05 -0.059889544 21511.156
0.27323659 -0.05 -0.059843056 21509.568
0.2692828 -0.05 -0.059789027 21508.893
0.26537161 -0.05 -0.059727601 21508.629
0.26150257 -0.05 -0.05965892 21509.18
0.25767524 -0.05 -0.059583046 21510.865
0.2538892 -0.05 -0.059500074 21513.59
0.25014401 -0.05 -0.059410118 21517.341
0.24643926 -0.05 -0.059313284 21522.173
0.24277452 -0.05 -0.059209673 21528.106
0.23914938 -0.05 -0.059099387 21535.1
0.23556343 -0.05 -0.058982537 21542.872
0.23201627 -0.05 -0.058859254 21551.592
0.2285075 -0.05 -0.058729541 21561.988
0.22503671 -0.05 -0.058593532 21572.571
0.22160352 -0.05 -0.058451379 21584.435
0.21820754 -0.05 -0.058303115 21597.232
0.21484838 -0.05 -0.058148846 21611.046
0.21152567 -0.05 -0.05798866 21625.802
0.20823903 -0.05 -0.057822651 21641.598
0.20498809 -0.05 -0.057650874 21658.55
0.20177248 -0.05 -0.057473468 21675.998
0.19859184 -0.05 -0.057290478 21695.056
0.1954458 -0.05 -0.057101994 21714.127
0.19233402 -0.05 -0.056908168 21734.241
0.18925614 -0.05 -0.056708999 21755.579
0.18621181 -0.05 -0.056504562 21778.134
0.18320071 -0.05 -0.056294919 21801.908
0.18022246 -0.05 -0.056080229 21825.882
0.17727675 -0.05 -0.055860526 21851.71
0.17436324 -0.05 -0.05563585 21877.537
0.1714816 -0.05 -0.055406376 21904.32
0.16863151 -0.05 -0.055172052 21933.039
0.16581265 -0.05 -0.054932944 21962.211
0.16302469 -0.05 -0.054689208 21992.142
0.16026732 -0.05 -0.054440898 22022.865
0.15754024 -0.05 -0.054188056 22054.704
0.15484313 -0.05 -0.053930725 22087.544
0.15217569 -0.05 -0.053668978 22121.317
0.14953762 -0.05 -0.053402888 22156.281
0.14692863 -0.05 -0.053132457 22192.761
0.14434842 -0.05 -0.052857799 22228.954
0.14179669 -0.05 -0.052579044 22266.323
0.13927317 -0.05 -0.05229612 22305.638
0.13677758 -0.05 -0.052009061 22345.785
0.13430961 -0.05 -0.051717985 22386.725
0.13186901 -0.05 -0.051422993 22428.046
0.1294555 -0.05 -0.051124081 22471.179
0.12706881 -0.05 -0.050821224 22515.461
0.12470868 -0.05 -0.050514504 22560.637
0.12237483 -0.05 -0.05020403 22606.13
0.120067 -0.05 -0.049889836 22653.183
0.11778495 -0.05 -0.049571874 22701.396
0.11552842 -0.05 -0.049250263 22749.949
0.11329715 -0.05 -0.048924992 22800.335
0.1110909 -0.05 -0.048596121 22850.765
0.10890943 -0.05 -0.048263656 22903.991
0.10675251 -0.05 -0.047927554 22957.677
0.10461987 -0.05 -0.047587958 23012.001
0.1025113 -0.05 -0.047244937 23066.887
0.10042655 -0.05 -0.046898432 23123.733
0.098365405 -0.05 -0.046548446 23180.894
0.096327639 -0.05 -0.046195043 23239.446
0.094313028 -0.05 -0.045838237 23299.004
0.092321357 -0.05 -0.045478019 23360.859
0.090352417 -0.05 -0.04511438 23423.533
0.088405979 -0.05 -0.044747421 23486.962
0.086481845 -0.05 -0.044377096 23552.351
0.084579815 -0.05 -0.044003384 23618.481
0.082699669 -0.05 -0.043626384 23685.745
0.080841229 -0.05 -0.043246005 23755.577
0.0790043 -0.05 -0.042862236 23825.825
0.077188665 -0.05 -0.0424752 23897.269
0.07539416 -0.05 -0.042084789 23971.054
0.073620599 -0.05 -0.041690997 24045.503
0.071867788 -0.05 -0.041293877 24121.487
0.070135557 -0.05 -0.040893385 24198.943
0.068423742 -0.05 -0.040489457 24278.547
0.066732169 -0.05 -0.040082112 24359.212
0.065060663 -0.05 -0.039671361 24442.157
0.063409062 -0.05 -0.039257174 24526.727
0.061777219 -0.05 -0.038839488 24613.604
0.060164984 -0.05 -0.038418265 24701.078
0.058572196 -0.05 -0.037993513 24790.641
0.056998721 -0.05 -0.037565159 24882.595
0.055444419 -0.05 -0.03713316 24976.615
0.053909142 -0.05 -0.036697516 25072.142
0.052392764 -0.05 -0.036258171 25170.292
0.050895177 -0.05 -0.035815009 25270.607
0.049416244 -0.05 -0.035368033 25372.649
0.047955856 -0.05 -0.034917167 25477.496
0.046513915 -0.05 -0.034462309 25584.414
0.045090302 -0.05 -0.034003445 25693.672
0.043684931 -0.05 -0.033540468 25806.476
0.042297731 -0.05 -0.03307324 25922.794
0.040928604 -0.05 -0.032601735 26042.205
0.039577476 -0.05 -0.032125845 26165.612
0.038244292 -0.05 -0.03164545 26291.989
0.036928981 -0.05 -0.031160474 26422.392
0.0356315 -0.05 -0.030670795 26556.542
0.03435181 -0.05 -0.030176299 26695.413
0.033089918 -0.05 -0.029676761 26839.854
0.031845783 -0.05 -0.029172106 26987.454
0.030619394 -0.05 -0.028662209 27139.766
0.029410776 -0.05 -0.028146878 27295.922
0.028219949 -0.05 -0.027625962 27457.12
0.027046957 -0.05 -0.027099267 27622.901
0.025891857 -0.05 -0.026566614 27794.286
0.02475474 -0.05 -0.026027768 27971.1
0.023635681 -0.05 -0.025482558 28153.6
0.022534817 -0.05 -0.024930718 28342.564
0.021452274 -0.05 -0.024372036 28536.945
0.020388213 -0.05 -0.023806274 28737.734
0.019342865 -0.05 -0.023233111 28944.795
0.018316468 -0.05 -0.022652259 29158.5
0.017309264 -0.05 -0.02206346 29379.655
0.016321577 -0.05 -0.021466368 29610.523
0.015353757 -0.05 -0.020860644 29849.425
0.014406156 -0.05 -0.020245997 30097.186
0.013479274 -0.05 -0.019622013 30353.781
0.012573638 -0.05 -0.018988322 30618.947
0.0116898 -0.05 -0.018344552 30892.6
0.010828378 -0.05 -0.017690314 31174.34
0.0099901248 -0.05 -0.017025149 31464.931
0.0091759198 -0.05 -0.016348644 31763.515
0.008386597 -0.05 -0.0156605 32069.836
0.0076231725 -0.05 -0.014960218 32384.169
0.0068867853 -0.05 -0.014247452 32704.763
0.0061787359 -0.05 -0.013521943 33029.95
0.0055003792 -0.05 -0.012783302 33356.148
0.0048530826 -0.05 -0.012031363 33680.093
0.0042385571 -0.05 -0.011266143 33998.34
0.0036585397 -0.05 -0.010487553 34306.292
0.0031148318 -0.05 -0.0096957287 34596.455
0.0026094399 -0.05 -0.0088912322 34857.552
0.0021442246 -0.05 -0.0080745628 35080.063
0.0017210465 -0.05 -0.0072465895 35266.408
0.0013418093 -0.05 -0.0064087151 35409.131
0.0010080919 -0.05 -0.0055623679 35490.645
0.00072127228 -0.05 -0.0047092571 35506.053
0.00048251081 -0.05 -0.0038515496 35453.193
0.00029236329 -0.05 -0.0029916286 35325.194
0.0001508317 -0.05 -0.0021320102 35127.658
5.7495879e-05 -0.05 -0.0012752716 34862.612
1.1394864e-05 -0.05 -0.00042397109 34516.316
0.99768066 -0.05 -0.00033611804 26679.375
0.99304169 -0.05 -0.0010063364 26554.07
0.98840215 -0.05 -0.0016726212 26423.645
0.98376207 -0.05 -0.0023350721 26312.66
0.97912144 -0.05 -0.0029936636 26207.511
0.97448026 -0.05 -0.00364841 26110.022
0.96983855 -0.05 -0.0042993733 26017.826
0.96519632 -0.05 -0.0049465845 25930.682
0.96055357 -0.05 -0.0055900577 25847.849
0.95591031 -0.05 -0.0062298653 25768.775
0.95126654 -0.05 -0.0068660327 25693.297
0.94662228 -0.05 -0.0074985225 25621.068
0.94197752 -0.05 -0.0081274235 25551.61
0.9373323 -0.05 -0.008752761 25484.927
0.93268659 -0.05 -0.0093745713 25420.489
0.92804042 -0.05 -0.0099928964 25358.424
0.92339379 -0.05 -0.010607714 25298.518
0.91874669 -0.05 -0.011219031 25240.681
0.91409915 -0.05 -0.011826962 25184.383
0.90945116 -0.05 -0.012431486 25130.182
0.90480273 -0.05 -0.013032571 25077.359
0.90015387 -0.05 -0.013630361 25025.97
0.89550457 -0.05 -0.014224739 24976.351
0.89085486 -0.05 -0.014815813 24927.466
0.88620473 -0.05 -0.01540363 24880.236
0.88155418 -0.05 -0.0159881 24833.984
0.87690323 -0.05 -0.016569356 24788.689
0.87225187 -0.05 -0.017147383 24744.507
0.86760011 -0.05 -0.017722168 24701.316
0.86294795 -0.05 -0.018293719 24659.131
0.85829541 -0.05 -0.018862095 24617.651
0.85364248 -0.05 -0.01942729 24577.201
0.84898916 -0.05 -0.01998931 24537.311
0.84433547 -0.05 -0.020548224 24498.262
0.8396814 -0.05 -0.021103928 24460.232
0.83502695 -0.05 -0.021656533 24422.383
0.83037214 -0.05 -0.022206072 24385.502
0.82571696 -0.05 -0.022752481 24349.114
0.82106143 -0.05 -0.023295768 24313.609
0.81640553 -0.05 -0.023835961 24278.375
0.81174927 -0.05 -0.024373126 24243.721
0.80709266 -0.05 -0.024907211 24209.555
0.80243571 -0.05 -0.025438235 24175.84
0.7977784 -0.05 -0.025966147 24142.838
0.79312074 -0.05 -0.026490982 24109.925
0.78846275 -0.05 -0.027012845 24077.227
0.78380442 -0.05 -0.027531686 24045.055
0.77914575 -0.05 -0.028047403 24013.491
0.77448674 -0.05 -0.028560079 23981.859
0.76982739 -0.05 -0.029069752 23950.792
0.76516771 -0.05 -0.02957633 23920.117
0.7605077 -0.05 -0.030079852 23889.624
0.75584737 -0.05 -0.030580367 23859.251
0.75118671 -0.05 -0.03107785 23829.234
0.74652573 -0.05 -0.031572241 23799.591
0.74186441 -0.05 -0.032063551 23770.172
0.73720278 -0.05 -0.032551782 23741.027
0.73254083 -0.05 -0.03303698 23711.863
0.72787854 -0.05 -0.033519069 23683.286
0.72321595 -0.05 -0.033998064 23654.418
0.71855304 -0.05 -0.034473962 23626.238
0.71388981 -0.05 -0.034946671 23598.087
0.70922626 -0.05 -0.035416302 23569.809
0.7045624 -0.05 -0.03588285 23541.635
0.69989823 -0.05 -0.036346252 23513.61
0.69523375 -0.05 -0.036806454 23485.93
0.69056894 -0.05 -0.037263403 23458.427
0.68590382 -0.05 -0.037717206 23430.591
0.68123839 -0.05 -0.038167801 23403.337
0.67657265 -0.05 -0.038615123 23375.847
0.67190661 -0.05 -0.039059237 23348.531
0.66724025 -0.05 -0.039500049 23321.553
0.66257357 -0.05 -0.039937521 23294.664
0.6579066 -0.05 -0.040371712 23267.599
0.65323931 -0.05 -0.040802591 23240.753
0.64857171 -0.05 -0.041230085 23214.026
0.6439038 -0.05 -0.041654149 23187.534
0.63923558 -0.05 -0.042074786 23160.881
0.63456705 -0.05 -0.042492 23134.342
0.62989821 -0.05 -0.042905734 23107.862
0.62522906 -0.05 -0.043315943 23081.493
0.62055961 -0.05 -0.043722625 23054.986
0.61588983 -0.05 -0.044125719 23028.729
0.61121975 -0.05 -0.044525219 23002.183
0.60654937 -0.05 -0.044921074 22976.094
0.60187867 -0.05 -0.045313219 22949.793
0.59720766 -0.05 -0.045701683 22923.543
0.59253634 -0.05 -0.046086399 22897.388
0.58786471 -0.05 -0.046467288 22871.442
0.58319277 -0.05 -0.046844345 22845.35
0.57852051 -0.05 -0.047217535 22819.51
0.57384795 -0.05 -0.047586814 22793.54
0.56917507 -0.05 -0.047952124 22767.825
0.56450189 -0.05 -0.048313436 22741.829
0.55982839 -0.05 -0.048670677 22716.247
0.55515457 -0.05 -0.04902381 22690.324
0.55048045 -0.05 -0.04937281 22664.842
0.54580601 -0.05 -0.04971755 22639.41
0.54113126 -0.05 -0.050058049 22613.746
0.5364562 -0.05 -0.050394263 22588.074
0.53178083 -0.05 -0.050726133 22562.263
0.52710515 -0.05 -0.05105357 22536.825
0.52242915 -0.05 -0.051376464 22511.518
0.51775284 -0.05 -0.051694815 22486.132
0.51307623 -0.05 -0.052008601 22460.793
0.5083993 -0.05 -0.052317709 22435.715
0.50372205 -0.05 -0.052622098 22410.451
0.4990445 -0.05 -0.052921702 22385.48
0.49436664 -0.05 -0.053216428 22360.463
0.48968848 -0.05 -0.053506199 22335.753
0.48501001 -0.05 -0.053790938 22310.94
0.48033122 -0.05 -0.054070627 22286.208
0.47565213 -0.05 -0.05434516 22261.701
0.47097274 -0.05 -0.05461447 22237.107
0.46629305 -0.05 -0.054878504 22212.599
0.46161306 -0.05 -0.055137129 22188.342
0.45693277 -0.05 -0.055390258 22164.154
0.45225217 -0.05 -0.05563783 22140.088
0.44757129 -0.05 -0.055879797 22115.943
0.44289011 -0.05 -0.056116052 22092.251
0.43820865 -0.05 -0.056346461 22068.84
0.43352689 -0.05 -0.056570934 22045.69
0.42884486 -0.05 -0.056789429 22022.359
0.42416254 -0.05 -0.057001839 21999.377
0.41947994 -0.05 -0.057208045 21976.445
0.41479707 -0.05 -0.057407955 21954.005
0.41011393 -0.05 -0.057601449 21931.824
0.40543053 -0.05 -0.057788457 21909.893
0.40074687 -0.05 -0.057968847 21888.391
0.39606296 -0.05 -0.058142512 21867.003
0.3913788 -0.05 -0.05830933 21846.052
0.38669439 -0.05 -0.058469176 21825.317
0.38200975 -0.05 -0.058621944 21805.043
0.37732488 -0.05 -0.058767528 21785.124
0.37263978 -0.05 -0.058905769 21766.038
0.36795448 -0.05 -0.059036525 21747.217
0.36326896 -0.05 -0.059159726 21728.798
0.35858325 -0.05 -0.059275201 21711.016
0.35389735 -0.05 -0.059382803 21693.551
0.34921128 -0.05 -0.05948244 21676.422
0.34452504 -0.05 -0.059573923 21660.169
0.33983865 -0.05 -0.059657063 21644.579
0.33515211 -0.05 -0.059731741 21629.552
0.33046544 -0.05 -0.059797856 21614.934
0.32577866 -0.05 -0.059855197 21601.415
0.32109177 -0.05 -0.059903556 21588.481
0.31640481 -0.05 -0.059942821 21576.143
0.31171777 -0.05 -0.059972784 21564.164
0.30703069 -0.05 -0.059993273 21552.421
0.30234356 -0.05 -0.060004087 21542.924
