# p  FACE_DATA 150
# x y z  p
0.29576437 -0.05 -0.059999701 21780.486
0.28738431 -0.05 -0.059968924 21777.069
0.27918472 -0.05 -0.059906283 21777.477
0.27116186 -0.05 -0.05981265 21781.014
0.26331203 -0.05 -0.059689027 21788.094
0.25563166 -0.05 -0.059536266 21799.064
0.24811723 -0.05 -0.059355154 21814.047
0.24076528 -0.05 -0.059146557 21832.908
0.23357246 -0.05 -0.058911358 21855.431
0.22653546 -0.05 -0.058650342 21881.924
0.21965107 -0.05 -0.058364201 21912.237
0.21291613 -0.05 -0.058053757 21945.917
0.20632755 -0.05 -0.057719714 21983.447
0.19988232 -0.05 -0.057362759 22023.814
0.19357748 -0.05 -0.056983702 22067.607
0.18741014 -0.05 -0.056583118 22115.49
0.18137746 -0.05 -0.056161624 22167.456
0.17547671 -0.05 -0.055719844 22223.781
0.16970518 -0.05 -0.055258362 22283.586
0.16406021 -0.05 -0.05477783 22346.813
0.15853921 -0.05 -0.054278745 22413.896
0.15313968 -0.05 -0.053761636 22484.586
0.14785914 -0.05 -0.053226963 22559.832
0.14269518 -0.05 -0.052675258 22638.738
0.13764543 -0.05 -0.052106992 22721.665
0.13270762 -0.05 -0.051522466 22806.84
0.12787949 -0.05 -0.050922169 22894.971
0.12315883 -0.05 -0.050306449 22988.08
0.11854353 -0.05 -0.049675629 23084.384
0.11403148 -0.05 -0.04903008 23184.071
0.10962066 -0.05 -0.04837006 23287.804
0.10530909 -0.05 -0.047695796 23395.544
0.10109483 -0.05 -0.047007509 23507.059
0.096976017 -0.05 -0.046305459 23622.208
0.092950808 -0.05 -0.04558984 23742.281
0.08901745 -0.05 -0.044860715 23869.243
0.085174232 -0.05 -0.044118143 24002.631
0.081419479 -0.05 -0.043362242 24141.632
0.077751578 -0.05 -0.042593081 24287.501
0.074168981 -0.05 -0.041810614 24440.845
0.070670198 -0.05 -0.041014781 24600.24
0.06725379 -0.05 -0.040205491 24764.455
0.06391837 -0.05 -0.039382651 24933.872
0.060662655 -0.05 -0.038545988 25111.819
0.057485397 -0.05 -0.037695273 25297.041
0.054385414 -0.05 -0.036830261 25490.639
0.051361622 -0.05 -0.035950545 25692.73
0.048412992 -0.05 -0.035055749 25904.46
0.045538629 -0.05 -0.034145316 26126.91
0.042737712 -0.05 -0.03321865 26359.908
0.040009498 -0.05 -0.032275149 26603.353
0.037353406 -0.05 -0.031314032 26858.488
0.034768993 -0.05 -0.030334375 27128.012
0.032255944 -0.05 -0.029335211 27415.492
0.029814132 -0.05 -0.028315426 27721.833
0.027443661 -0.05 -0.027273729 28046.461
0.025144824 -0.05 -0.026208776 28392.414
0.022918276 -0.05 -0.02511886 28761.517
0.020764984 -0.05 -0.02400217 29152.76
0.018686283 -0.05 -0.022856725 29570.781
0.016684024 -0.05 -0.021680228 30015.669
0.01476059 -0.05 -0.020470219 30489.893
0.012919251 -0.05 -0.019223865 30995.626
0.011164249 -0.05 -0.017938283 31533.725
0.0095007128 -0.05 -0.016610449 32108.871
0.0079348886 -0.05 -0.015236971 32723.789
0.006474941 -0.05 -0.013814774 33355.323
0.0051312596 -0.05 -0.012341958 33964.376
0.0039150106 -0.05 -0.010816511 34520.623
0.0028396284 -0.05 -0.009238845 35029.99
0.0019206554 -0.05 -0.007613688 35404.777
0.0011720639 -0.05 -0.0059475212 35575.8
0.0006061561 -0.05 -0.004252283 35520.386
0.00023063831 -0.05 -0.0025452878 35201.39
4.5460517e-05 -0.05 -0.0008455405 34585.779
0.99536103 -0.05 -0.00067021835 26325.744
0.98608197 -0.05 -0.0020028877 26130.95
0.97680071 -0.05 -0.0033200849 25936.936
0.96751731 -0.05 -0.0046220425 25773.097
0.95823181 -0.05 -0.0059090613 25621.802
0.94894428 -0.05 -0.0071813587 25484.808
0.93965479 -0.05 -0.0084391859 25358.122
0.93036339 -0.05 -0.0096828487 25240.536
0.92107013 -0.05 -0.010912491 25130.723
0.91177504 -0.05 -0.012128333 25027.564
0.9024782 -0.05 -0.013330648 24930.497
0.89317963 -0.05 -0.014519511 24838.905
0.88387936 -0.05 -0.015695054 24751.848
0.87457746 -0.05 -0.016857552 24668.637
0.86527394 -0.05 -0.01800713 24589.077
0.85596885 -0.05 -0.019143876 24512.558
0.84666223 -0.05 -0.020267984 24438.772
0.8373541 -0.05 -0.021379502 24367.717
0.82804448 -0.05 -0.022478516 24298.921
0.8187334 -0.05 -0.023565119 24232.341
0.8094209 -0.05 -0.024639397 24167.6
0.80010698 -0.05 -0.025701394 24104.761
0.79079168 -0.05 -0.026751168 24043.329
0.78147501 -0.05 -0.027788748 23983.516
0.77215699 -0.05 -0.028814138 23924.952
0.76283764 -0.05 -0.029827333 23867.844
0.75351698 -0.05 -0.030828337 23811.659
0.744195 -0.05 -0.03181713 23756.504
0.73487174 -0.05 -0.032793639 23701.951
0.72554719 -0.05 -0.033757832 23648.31
0.71622136 -0.05 -0.034709535 23595.595
0.70689427 -0.05 -0.03564879 23543.24
0.69756593 -0.05 -0.03657554 23491.809
0.68823632 -0.05 -0.037489546 23441.174
0.67890547 -0.05 -0.03839067 23391.12
0.66957337 -0.05 -0.039278803 23341.2
0.66024004 -0.05 -0.040153805 23291.489
0.65090546 -0.05 -0.04101549 23242.046
0.64156964 -0.05 -0.041863622 23193.139
0.63223258 -0.05 -0.042697993 23144.543
0.62289428 -0.05 -0.043518409 23096.354
0.61355475 -0.05 -0.044324591 23048.482
0.60421397 -0.05 -0.045116235 23000.96
0.59487195 -0.05 -0.045893096 22953.521
0.58552869 -0.05 -0.046654869 22906.435
0.57618419 -0.05 -0.047401205 22859.456
0.56683843 -0.05 -0.048131797 22812.701
0.55749143 -0.05 -0.04884624 22766.287
0.54814318 -0.05 -0.049544112 22720.156
0.53879368 -0.05 -0.050225066 22673.957
0.52944294 -0.05 -0.050888717 22628.003
0.52009095 -0.05 -0.051534504 22582.668
0.51073771 -0.05 -0.052161963 22537.32
0.50138323 -0.05 -0.052770676 22492.36
0.49202751 -0.05 -0.05336005 22448.142
0.48267056 -0.05 -0.053929509 22404.462
0.47331239 -0.05 -0.054478508 22361.274
0.46395301 -0.05 -0.055006444 22318.572
0.45459243 -0.05 -0.05551264 22276.237
0.44523066 -0.05 -0.055996468 22233.879
0.43586772 -0.05 -0.056457197 22192.374
0.42650365 -0.05 -0.056894081 22151.665
0.41713847 -0.05 -0.057306403 22112.295
0.4077722 -0.05 -0.057693321 22074.697
0.39840488 -0.05 -0.058053993 22037.455
0.38903655 -0.05 -0.058387504 22001.643
0.37966728 -0.05 -0.058692933 21966.986
0.3702971 -0.05 -0.058969274 21934.248
0.36092607 -0.05 -0.059215505 21903.49
0.35155428 -0.05 -0.059430617 21875.074
0.34218182 -0.05 -0.059613395 21849.25
0.33280876 -0.05 -0.059762649 21826.038
0.32343521 -0.05 -0.059877122 21806.839
0.31406128 -0.05 -0.059955444 21792.282
0.30468712 -0.05 -0.059996221 21784.181
