/*--------------------------------*- C++ -*----------------------------------*\
| =========                 |                                                 |
| \\      /  F ield         | OpenFOAM: The Open Source CFD Toolbox           |
|  \\    /   O peration     | Version:  2306                                  |
|   \\  /    A nd           | Website:  www.openfoam.com                      |
|    \\/     M anipulation  |                                                 |
\*---------------------------------------------------------------------------*/
FoamFile
{
    version     2.0;
    format      ascii;
    arch        "LSB;label=32;scalar=64";
    class       volScalarField;
    location    "725";
    object      div(phi);
}
// * * * * * * * * * * * * * * * * * * * * * * * * * * * * * * * * * * * * * //

dimensions      [0 0 -1 0 0 0 0];

internalField   nonuniform List<scalar> 
1340
(
-9.61653e-07
1.20323e-06
3.75192e-08
2.03118e-06
-2.00251e-06
-1.1136e-06
1.91002e-07
7.01504e-07
1.41873e-07
3.59349e-07
-9.63635e-07
-2.8289e-07
2.81279e-07
2.45404e-07
2.19443e-07
-1.23259e-07
2.4593e-07
-3.55923e-07
-4.7874e-07
2.73666e-08
1.60193e-07
-3.16201e-08
9.43517e-08
-1.3142e-07
1.26432e-07
-7.38367e-07
-3.10238e-07
-3.80092e-08
-1.43222e-09
4.7739e-08
-1.38451e-07
8.4227e-08
-1.35287e-07
-8.05688e-09
-3.64663e-07
-2.69137e-07
-1.11831e-07
-3.70708e-08
-7.20737e-08
6.75089e-08
-1.05177e-07
4.13922e-08
-1.09456e-07
1.09373e-07
3.13503e-07
-2.6853e-07
-1.13756e-07
-7.04763e-08
-6.52372e-09
-1.10863e-07
8.02573e-08
-8.12164e-08
1.50346e-08
1.07386e-08
1.01632e-07
-2.08745e-07
-1.32733e-07
-7.95858e-08
-7.40564e-08
5.83854e-08
-7.15036e-08
6.40354e-08
-4.89433e-08
1.04872e-08
6.30089e-08
1.60932e-07
-2.21878e-07
-1.13664e-07
-8.16398e-08
-1.97013e-08
-8.80808e-08
7.88594e-08
-4.29894e-08
4.09957e-08
-3.9771e-08
7.94231e-10
6.07277e-08
-1.65553e-07
-1.20851e-07
-8.02074e-08
-6.3257e-08
5.4522e-08
-5.54454e-08
8.33897e-08
-5.06888e-08
1.34937e-08
-3.13188e-08
7.83487e-08
-2.04582e-07
-1.7962e-07
-9.84834e-08
-6.59692e-08
-1.80416e-08
-6.9131e-08
8.3973e-08
-2.82926e-08
6.88478e-08
-7.08032e-08
1.1947e-08
-7.68095e-08
1.54904e-07
-1.32596e-07
-9.89057e-08
-6.66261e-08
-4.77796e-08
5.68004e-08
-3.46042e-08
9.63014e-08
-3.61302e-08
3.04631e-08
-2.80444e-08
2.59567e-08
-2.07861e-07
-1.45584e-07
-7.91224e-08
-5.53612e-08
-1.1141e-08
-5.20064e-08
8.67536e-08
-1.72649e-08
8.81164e-08
-5.13447e-08
7.78811e-10
-5.25171e-08
1.37911e-07
-1.29115e-07
-1.12474e-07
-8.27807e-08
-5.30543e-08
-3.4864e-08
5.66621e-08
-2.72291e-08
1.04462e-07
-2.52554e-08
5.27917e-08
-3.65045e-08
-2.42069e-10
-2.51436e-08
4.08888e-08
-1.28293e-07
-6.14897e-08
-3.96902e-08
-6.49513e-09
-4.00073e-08
8.62574e-08
-6.30769e-09
1.03076e-07
-4.09947e-08
-3.40409e-09
-3.13996e-08
4.60429e-08
5.8852e-08
-9.87987e-09
-9.13007e-08
-7.20169e-08
-3.96414e-08
-2.42259e-08
5.4788e-08
-1.51365e-08
1.05871e-07
-1.01913e-08
6.26791e-08
-3.3882e-08
-7.75571e-09
-3.09196e-08
1.79417e-08
3.68214e-08
-1.24534e-07
-3.84549e-08
-3.42931e-08
-3.26905e-09
-3.11824e-08
8.18984e-08
-1.78005e-09
1.08771e-07
-3.57374e-08
-7.2452e-09
-2.43739e-08
5.51782e-08
2.11862e-08
-2.65217e-08
-6.78027e-08
-7.10652e-08
-2.13968e-08
-1.78026e-08
4.93022e-08
-1.37951e-08
1.03394e-07
-8.4076e-09
6.90313e-08
-2.73846e-08
3.16909e-09
-3.42941e-08
-5.67849e-09
8.72105e-08
-2.87037e-07
-2.07241e-07
4.08536e-08
-4.02447e-09
4.19253e-09
-2.49116e-08
7.55944e-08
2.00663e-09
1.08629e-07
-2.56908e-08
6.03588e-09
-1.67831e-08
5.71155e-08
7.00874e-08
-1.99159e-07
1.7307e-07
6.54505e-08
-3.17677e-08
3.56602e-08
4.73727e-10
4.63763e-08
-8.26247e-09
9.69021e-08
-1.99081e-09
7.51545e-08
-1.50391e-08
1.82051e-08
-2.34127e-08
-3.25288e-08
1.4586e-07
-4.46389e-07
-2.31355e-07
9.45936e-08
4.85185e-08
1.79438e-08
-1.84634e-08
6.87242e-08
1.05109e-09
1.04689e-07
-2.16249e-08
1.85358e-08
-1.48147e-08
6.64499e-08
7.89173e-08
-9.68171e-08
-6.21658e-08
-4.73315e-07
8.11905e-08
1.28285e-08
2.21845e-08
2.16418e-09
4.15548e-08
-9.43215e-09
8.95709e-08
-4.38483e-09
7.70912e-08
-9.28531e-09
2.42513e-08
-1.44429e-08
1.83906e-08
-3.04532e-08
-5.40087e-08
-4.45749e-07
5.66927e-08
1.93546e-08
1.13446e-08
-1.62312e-08
6.16288e-08
1.45423e-09
9.80137e-08
-1.43982e-08
2.21273e-08
-5.78547e-09
6.93346e-08
7.30972e-08
-1.00815e-07
-1.41857e-07
-7.10766e-09
-3.80067e-07
2.58382e-08
7.23577e-09
-3.0163e-09
3.55801e-08
-7.14969e-09
8.08528e-08
-1.52163e-09
7.3643e-08
-2.54463e-09
2.47737e-08
-9.6406e-09
3.69955e-09
1.2175e-08
-1.53624e-07
-7.31054e-08
9.16344e-08
1.25673e-08
5.08022e-09
5.21337e-09
-1.59874e-08
5.45691e-08
-1.02599e-09
8.98775e-08
-1.49168e-08
2.11174e-08
-8.63671e-09
7.44326e-08
5.05427e-08
-8.13955e-08
-1.73353e-07
1.32745e-07
-2.47459e-07
2.16263e-08
-9.67428e-10
-6.22604e-09
2.99706e-08
-9.31174e-09
7.26563e-08
-5.38142e-09
6.84381e-08
-5.88794e-09
2.62291e-08
-1.18324e-08
1.33142e-08
-1.25189e-07
2.57093e-09
-1.51683e-07
2.20347e-07
-2.82418e-07
2.32637e-09
-1.02168e-09
1.36378e-09
-1.53014e-08
4.79369e-08
-1.52328e-09
8.1239e-08
-1.35862e-08
1.95916e-08
-4.55228e-09
7.79272e-08
-2.78168e-08
-6.55284e-08
-1.91875e-07
4.60283e-08
-2.98175e-08
1.48893e-07
1.42592e-08
-4.89445e-09
-7.67125e-09
2.55957e-08
-8.06197e-09
6.41622e-08
-4.51749e-09
6.20999e-08
-4.03799e-09
2.74808e-08
-1.30245e-08
-2.40416e-08
-1.00001e-07
-6.5177e-08
-3.70065e-08
1.83253e-07
-2.35149e-07
-3.5305e-09
-4.68068e-09
-5.00229e-10
-1.4909e-08
4.18136e-08
-4.03053e-09
7.25926e-08
-1.57178e-08
1.78924e-08
-1.85146e-09
6.61161e-08
-6.20908e-09
-1.10983e-07
-6.02384e-08
4.56594e-08
1.69103e-09
2.23965e-07
-2.86877e-07
8.99537e-09
-6.94858e-09
-7.98909e-09
2.16953e-08
-9.86986e-09
5.65069e-08
-8.05218e-09
5.5944e-08
-5.31087e-09
2.80618e-08
-9.5457e-09
-2.34511e-08
-5.70817e-08
-5.46727e-08
1.76992e-08
1.15184e-07
2.72709e-10
8.77635e-08
-6.51562e-09
-5.45155e-09
-1.57936e-09
-1.38958e-08
3.62078e-08
-4.5605e-09
6.40998e-08
-1.40994e-08
1.68401e-08
1.08019e-09
6.29459e-08
3.70968e-09
-8.01561e-08
-3.75296e-08
7.47759e-08
1.45942e-08
2.56553e-07
-2.1596e-07
5.67563e-09
-6.93581e-09
-7.66687e-09
1.86551e-08
-8.84308e-09
4.89855e-08
-7.35551e-09
4.98661e-08
-3.43235e-09
2.64337e-08
-5.21429e-09
-1.03036e-08
-3.13789e-08
-2.58549e-08
3.13163e-08
1.9673e-07
1.02052e-08
2.00905e-07
-2.09613e-07
-6.8523e-09
-5.80666e-09
-1.77833e-09
-1.3178e-08
3.11892e-08
-6.51398e-09
5.6171e-08
-1.52279e-08
1.50627e-08
5.80506e-10
5.99046e-08
1.15757e-08
-5.474e-08
-1.57069e-08
7.4464e-08
6.16522e-08
1.89771e-07
-2.74388e-08
1.17287e-07
4.18063e-09
-6.75794e-09
-7.05475e-09
1.58201e-08
-1.00272e-08
4.24513e-08
-9.90076e-09
4.4083e-08
-4.56047e-09
2.39047e-08
-3.98389e-09
-4.72535e-09
-2.27871e-08
-2.34321e-08
1.7713e-08
1.83819e-07
-9.97872e-09
2.50217e-07
-2.66529e-07
-6.83511e-09
-5.07462e-09
-1.93146e-09
-1.20021e-08
2.668e-08
-6.68777e-09
4.87774e-08
-1.36448e-08
1.3486e-08
1.1248e-09
5.36692e-08
9.65678e-09
-5.38944e-08
-2.407e-08
4.66721e-08
2.58417e-08
2.38392e-07
-4.9819e-08
1.78809e-07
-2.04954e-07
3.43371e-09
-5.76766e-09
-6.3312e-09
1.35588e-08
-8.97569e-09
3.63226e-08
-9.04307e-09
3.85558e-08
-3.51284e-09
2.09058e-08
-5.11767e-09
-7.78096e-09
-2.70557e-08
-3.41559e-08
-2.77434e-09
1.39591e-07
3.25465e-09
1.54973e-07
-4.24252e-08
7.99862e-08
-5.77205e-09
-4.63794e-09
-1.68973e-09
-1.11665e-08
2.27582e-08
-7.87706e-09
4.21765e-08
-1.43758e-08
1.13498e-08
-6.24275e-10
4.53909e-08
5.23276e-09
-5.49626e-08
-3.12655e-08
2.76677e-08
-3.67693e-09
2.13587e-07
-5.14724e-08
1.81711e-07
-2.33841e-08
3.14271e-09
-5.12294e-09
-5.60388e-09
1.14539e-08
-9.5662e-09
3.11625e-08
-1.06618e-08
3.3437e-08
-4.92383e-09
1.72578e-08
-7.33759e-09
-1.11435e-08
-2.88007e-08
-3.69557e-08
-1.52104e-08
1.11153e-07
-2.07102e-08
1.90045e-07
2.08951e-08
1.18492e-07
-5.48902e-08
-5.13802e-09
-3.75407e-09
-1.59116e-09
-1.00056e-08
1.93328e-08
-7.6014e-09
3.61983e-08
-1.30323e-08
9.34012e-09
-1.47087e-09
3.76849e-08
1.64923e-09
-5.22635e-08
-3.23287e-08
1.94106e-08
-1.47419e-08
1.76776e-07
-2.72439e-08
1.25864e-07
-5.17555e-08
6.77793e-08
2.94808e-09
-4.17776e-09
-4.88671e-09
9.82115e-09
-8.3739e-09
2.6442e-08
-9.56455e-09
2.86612e-08
-4.6053e-09
1.38206e-08
-9.48999e-09
-1.29318e-08
-2.72359e-08
-3.44771e-08
-2.0607e-08
9.35519e-08
-2.29272e-08
1.64084e-07
-3.77534e-08
2.30609e-08
-1.77473e-08
-4.1418e-09
-3.24547e-09
-1.24713e-09
-9.06016e-09
1.64013e-08
-8.00512e-09
3.09416e-08
-1.34247e-08
7.13281e-09
-3.68112e-09
3.05244e-08
-5.10985e-10
-4.73889e-08
-3.08574e-08
1.62583e-08
-1.48952e-08
1.36382e-07
-3.09835e-08
-3.06321e-08
-7.82795e-09
-1.05711e-07
2.85441e-09
-3.53059e-09
-4.18478e-09
8.29182e-09
-8.40591e-09
2.24765e-08
-1.03883e-08
2.43529e-08
-5.90928e-09
1.056e-08
-1.1123e-08
-1.41646e-08
-2.47202e-08
-2.81324e-08
-2.06366e-08
7.4677e-08
-1.85663e-08
-1.54313e-08
-3.69417e-08
-6.18194e-08
2.44062e-08
-5.75079e-08
-3.46612e-09
-2.46271e-09
-1.07108e-09
-7.91331e-09
1.38208e-08
-7.37946e-09
2.61984e-08
-1.21397e-08
5.42999e-09
-4.35777e-09
2.42506e-08
-1.41638e-09
-3.92463e-08
-2.6154e-08
1.75887e-08
-4.97441e-09
-1.50255e-09
-3.0303e-08
2.45127e-08
-2.429e-08
8.74172e-08
-3.8495e-08
2.7898e-09
-2.77887e-09
-3.54571e-09
7.05065e-09
-7.13975e-09
1.88257e-08
-9.12914e-09
2.04994e-08
-5.45758e-09
7.89726e-09
-1.17974e-08
-1.25583e-08
-1.81801e-08
-2.0702e-08
-7.5492e-09
-1.35585e-08
-1.81361e-10
4.09938e-08
-7.75663e-09
1.23507e-07
-1.68315e-08
7.8602e-08
-2.68422e-09
-2.02834e-09
-7.43088e-10
-6.93403e-09
1.15486e-08
-7.26261e-09
2.20348e-08
-1.20008e-08
3.87338e-09
-5.58809e-09
1.96423e-08
-2.74783e-10
-3.10334e-08
-1.27437e-08
-1.04313e-08
5.77085e-09
3.94754e-08
-6.60446e-09
1.64014e-07
-2.08434e-08
1.36914e-07
-1.09167e-07
2.69961e-09
-2.19782e-09
-2.95299e-09
5.84221e-09
-6.87822e-09
1.56999e-08
-9.38333e-09
1.71268e-08
-6.04564e-09
5.82795e-09
-1.18769e-08
-9.57363e-09
-1.08328e-08
-1.06725e-08
-6.13717e-09
1.39643e-08
8.01999e-10
1.0078e-07
-1.61019e-08
1.50556e-07
-3.38672e-08
9.44455e-08
-1.1273e-07
-2.04264e-09
-1.42983e-09
-6.10393e-10
-5.95396e-09
9.49574e-09
-6.57365e-09
1.82903e-08
-1.06357e-08
2.87042e-09
-5.40962e-09
1.64251e-08
7.10105e-10
-2.23933e-08
-5.61824e-09
-4.47696e-09
1.26104e-08
4.77928e-08
-2.09157e-10
1.3952e-07
-2.74592e-08
7.19295e-08
-2.78985e-08
1.71677e-08
2.64139e-09
-1.68104e-09
-2.48303e-09
4.79546e-09
-5.78434e-09
1.28108e-08
-8.12741e-09
1.42049e-08
-5.20009e-09
4.57972e-09
-1.09547e-08
-7.73768e-09
-7.40361e-09
-8.65986e-09
-6.53912e-09
9.17437e-09
-3.4468e-09
8.22673e-08
-2.84256e-08
1.21761e-07
-3.81028e-08
4.00162e-08
-6.54244e-08
-1.51265e-09
-1.14128e-09
-4.2176e-10
-5.11626e-09
7.66109e-09
-6.22658e-09
1.50308e-08
-1.01083e-08
2.11475e-09
-5.36704e-09
1.38286e-08
5.9268e-10
-1.9313e-08
-6.1475e-09
-7.78972e-09
4.96549e-09
3.67e-08
-1.03165e-08
1.14016e-07
-3.66494e-08
5.94162e-08
-3.6061e-08
3.84346e-08
2.50052e-09
-1.25958e-09
-2.06784e-09
3.78532e-09
-5.40726e-09
1.03301e-08
-8.03204e-09
1.17093e-08
-5.15204e-09
3.76224e-09
-9.89083e-09
-6.10363e-09
-5.39474e-09
-5.87408e-09
-4.3567e-09
1.01078e-08
-2.83818e-09
7.09176e-08
-2.87445e-08
1.04008e-07
-4.09674e-08
7.43463e-08
-7.93374e-08
-9.72769e-10
-7.53212e-10
-3.55659e-10
-4.30194e-09
6.00896e-09
-5.54341e-09
1.20977e-08
-8.78288e-09
1.74399e-09
-4.47774e-09
1.23099e-08
1.63347e-09
-1.36677e-08
-1.68402e-09
-1.64044e-09
9.99497e-09
3.58192e-08
-3.67344e-09
9.6397e-08
-3.54064e-08
8.43918e-08
-3.64835e-08
5.36181e-08
-8.26527e-08
2.36255e-09
-9.29375e-10
-1.72994e-09
2.90972e-09
-4.46462e-09
8.03934e-09
-6.82095e-09
9.52139e-09
-4.09595e-09
3.42807e-09
-8.06446e-09
-4.17678e-09
-2.69864e-09
-3.74063e-09
-3.00376e-09
8.23325e-09
-3.47906e-09
5.7078e-08
-2.52058e-08
8.78545e-08
-3.70089e-08
3.66956e-08
-2.82359e-08
6.62575e-09
-5.99784e-10
-5.49014e-10
-2.29772e-10
-3.51842e-09
4.53675e-09
-4.9687e-09
9.49e-09
-8.05473e-09
1.43115e-09
-3.42962e-09
1.09421e-08
1.80588e-09
-1.18023e-08
-2.47204e-09
-4.28572e-09
4.17701e-09
2.6577e-08
-9.19806e-09
7.93649e-08
-3.57839e-08
6.99787e-08
-3.7348e-08
1.57755e-08
-5.24413e-08
2.20074e-09
-6.03957e-10
-1.36824e-09
2.08292e-09
-3.85379e-09
6.07986e-09
-6.49582e-09
7.62343e-09
-3.6584e-09
3.32938e-09
-6.75909e-09
-3.47264e-09
-2.09362e-09
-3.17121e-09
-2.76292e-09
7.24217e-09
-4.17117e-09
4.90093e-08
-2.37907e-08
7.41712e-08
-3.6208e-08
2.49686e-08
-3.39836e-08
9.88417e-10
-1.11471e-10
-2.43278e-10
-1.24952e-10
-2.68638e-09
3.23507e-09
-4.22987e-09
7.191e-09
-6.99388e-09
1.81607e-09
-2.42969e-09
9.43846e-09
2.26665e-09
-9.04202e-09
-7.18338e-10
-1.36827e-09
6.48436e-09
2.49029e-08
-5.20809e-09
6.78744e-08
-3.04794e-08
5.20706e-08
-3.64937e-08
7.15985e-10
-4.41008e-08
2.13131e-09
-2.71456e-10
-8.7849e-10
1.62585e-09
-2.96423e-09
4.65427e-09
-5.2444e-09
6.42187e-09
-2.18428e-09
3.42247e-09
-5.36665e-09
-3.14478e-09
-1.97729e-09
-7.44097e-10
-3.09329e-09
5.60433e-09
-5.65276e-09
3.90692e-08
-2.2082e-08
5.29321e-08
-3.47162e-08
-1.03049e-08
-2.97225e-08
-2.54054e-08
3.78564e-10
1.13038e-10
5.93634e-11
-1.98966e-09
2.88147e-09
-3.46796e-09
6.15447e-09
-5.6494e-09
1.21138e-09
-2.49059e-09
7.03295e-09
-6.20244e-10
-2.54538e-09
-6.37064e-09
3.58136e-10
-1.91965e-09
1.98461e-08
-1.14459e-08
4.54267e-08
-3.02509e-08
-7.83599e-09
-3.54983e-08
-1.9678e-08
-1.59609e-08
-1.47524e-08
1.92011e-09
2.7959e-11
-1.78543e-10
1.81243e-09
-2.39899e-09
4.55921e-09
-4.85817e-09
4.75232e-09
-1.71387e-09
2.3557e-09
-6.44178e-09
1.51019e-09
-8.01154e-09
5.89458e-09
-1.18366e-08
1.01939e-08
-1.4726e-08
2.11177e-08
-2.80827e-08
-9.31127e-09
-3.47807e-08
-9.63015e-11
-2.25142e-08
2.01988e-08
-2.1039e-08
1.0104e-09
6.89409e-10
3.21236e-10
-1.62381e-09
3.56113e-09
-3.12758e-09
5.18796e-09
-3.95767e-09
3.93162e-10
-3.02387e-09
5.90787e-09
-2.29787e-09
6.32597e-10
-7.71332e-09
-1.56609e-09
-3.83894e-09
2.80278e-09
-8.76204e-09
-7.40064e-09
-1.96467e-08
5.7882e-09
-1.99034e-08
3.77165e-08
-1.33862e-08
1.64827e-08
2.21456e-09
4.71634e-10
2.26025e-10
2.33853e-09
-2.03029e-09
4.1537e-09
-3.99856e-09
2.61553e-09
-1.92799e-09
1.35479e-09
-5.94926e-09
1.21531e-09
-3.86294e-09
-4.31827e-09
-2.68387e-09
-2.95709e-09
2.02972e-09
-9.02794e-10
-1.84385e-09
7.76435e-09
-1.17777e-08
4.09561e-08
-1.18078e-08
1.92756e-08
-1.77488e-08
1.05384e-09
8.44103e-10
6.79139e-10
-1.21734e-09
2.90433e-09
-2.61966e-09
3.47204e-09
-3.30532e-09
2.60722e-11
-3.2737e-09
4.09805e-09
-1.31674e-09
-5.79804e-09
-4.09591e-09
-6.58128e-09
3.45612e-11
-1.48915e-09
1.32142e-09
1.18623e-09
-4.12361e-09
3.0618e-08
-9.81315e-09
3.23061e-08
-9.65932e-09
1.37918e-08
2.48451e-09
7.4088e-10
2.12705e-10
1.8025e-09
-1.75523e-09
2.72598e-09
-3.4709e-09
1.5572e-09
-2.47879e-09
7.82308e-10
-4.2849e-09
-3.48468e-09
-1.41768e-09
-1.06866e-08
1.82697e-09
-9.68546e-09
6.35187e-09
-7.90838e-09
5.94042e-09
2.04061e-08
-4.07624e-09
4.26128e-08
-9.11859e-09
1.49107e-08
-1.71196e-08
1.32697e-09
1.01295e-09
7.33922e-10
-1.09389e-09
1.78579e-09
-2.44666e-09
2.07611e-09
-3.06645e-09
-2.12553e-10
-2.77896e-09
2.08501e-09
-1.22599e-09
-6.76723e-09
-3.64447e-09
-4.5716e-09
-9.10119e-10
-4.06102e-09
-3.11147e-10
9.65952e-09
-5.72461e-09
3.59932e-08
-1.13501e-08
2.13064e-08
-9.54403e-09
8.91661e-09
2.48447e-09
9.2526e-10
-3.28221e-11
1.08182e-09
-1.78094e-09
1.40681e-09
-3.04245e-09
9.46026e-10
-2.47726e-09
5.63671e-10
-3.40641e-09
-2.76454e-09
-3.70033e-09
-3.20415e-09
-3.92235e-09
-1.32036e-09
-4.42908e-09
-3.98844e-11
-8.27512e-09
1.90772e-08
-1.35558e-08
2.77554e-08
-1.07306e-08
6.12091e-09
-1.44155e-08
1.54918e-09
8.55847e-10
5.75459e-10
-1.26127e-09
7.78654e-10
-2.33986e-09
1.08856e-09
-2.60691e-09
-1.73955e-10
-2.04736e-09
1.93755e-09
-3.80119e-09
-3.58543e-09
-4.38262e-09
-2.69879e-09
-2.38264e-09
-3.20605e-09
-2.15421e-09
9.73505e-09
-8.73162e-09
2.41997e-08
-1.34087e-08
8.50868e-10
-9.41853e-09
-6.02886e-09
2.54827e-09
9.98219e-10
-5.7405e-10
6.3247e-10
-1.76372e-09
4.52012e-10
-2.50415e-09
5.93281e-10
-2.01297e-09
8.71581e-10
-4.61667e-09
-1.15628e-09
-6.27073e-09
-9.07131e-11
-6.35157e-09
2.41642e-09
-7.03174e-09
4.62045e-09
-1.07325e-08
1.16058e-08
-1.5738e-08
-1.61834e-09
-1.32485e-08
-5.06224e-09
-4.3521e-09
-3.45038e-09
1.57835e-09
2.5634e-10
5.24381e-10
-1.3071e-09
1.12823e-10
-1.7253e-09
2.81493e-10
-1.81495e-09
1.97407e-11
-1.91564e-09
1.43547e-09
-4.20136e-09
-2.60212e-09
-3.09181e-09
-6.91853e-10
-2.73964e-09
1.10158e-09
-4.72401e-09
2.39301e-09
-1.06728e-08
-4.94067e-09
-1.30234e-08
3.00739e-09
-7.19936e-09
9.07382e-09
-9.24668e-09
4.50877e-10
1.8101e-09
-2.01352e-09
1.3038e-09
-9.31337e-10
-4.48274e-10
-1.47374e-09
4.65056e-11
-1.56637e-09
5.86287e-10
-3.71941e-09
-2.26911e-09
-2.48113e-09
-2.56365e-09
-8.35691e-10
-2.9459e-09
2.04241e-10
-4.07903e-09
-4.59672e-10
-3.89534e-09
-3.90377e-09
4.94664e-09
-8.7554e-09
7.43487e-09
-8.66224e-09
3.79509e-09
3.79728e-09
-1.77738e-09
1.42546e-09
-3.48175e-10
2.18246e-10
-9.7174e-10
-8.07599e-10
-1.47802e-09
-1.45473e-09
-2.62437e-09
-1.45606e-09
-3.34208e-09
-3.00151e-09
-2.56947e-09
-1.77604e-09
-2.83257e-09
-1.26938e-09
-4.33763e-09
-1.74406e-09
-5.77089e-09
-2.30913e-09
-1.08745e-08
7.07848e-09
-9.93366e-09
3.74228e-09
-1.42328e-08
-1.26311e-09
6.80735e-10
1.4218e-10
5.04715e-10
-1.61935e-10
-8.8529e-10
-1.39151e-09
-1.12097e-09
-1.37278e-09
-1.18336e-09
-2.46277e-09
-3.43828e-09
-1.66715e-09
-3.66815e-09
-6.99031e-10
-4.80099e-09
-1.16844e-09
-6.66486e-09
-3.44297e-09
-6.90377e-09
-5.45205e-09
5.28285e-09
-8.90557e-09
-9.70462e-10
-1.20841e-08
-5.20055e-09
8.78206e-10
1.06408e-10
1.39725e-10
2.91759e-11
-2.25277e-10
-3.43103e-10
-2.79138e-10
-2.55655e-10
-2.24693e-10
-5.69603e-10
-9.57566e-10
-8.01798e-10
-1.35421e-09
-6.37003e-10
-2.19471e-09
-1.04033e-09
-3.7334e-09
-1.98445e-09
-5.50064e-09
-4.71798e-09
-2.16071e-09
-7.73195e-09
-4.77538e-09
-9.68611e-09
-8.12627e-09
-1.18473e-08
)
;

boundaryField
{
    inlet
    {
        type            extrapolatedCalculated;
        value           nonuniform List<scalar> 
26
(
8.78206e-10
1.06408e-10
1.39725e-10
2.91759e-11
-2.25277e-10
-3.43103e-10
-2.79138e-10
-2.55655e-10
-2.24693e-10
-5.69603e-10
-9.57566e-10
-8.01798e-10
-1.35421e-09
-6.37003e-10
-2.19471e-09
-1.04033e-09
-3.7334e-09
-1.98445e-09
-5.50064e-09
-4.71798e-09
-2.16071e-09
-7.73195e-09
-4.77538e-09
-9.68611e-09
-8.12627e-09
-1.18473e-08
)
;
    }
    outlet
    {
        type            extrapolatedCalculated;
        value           nonuniform List<scalar> 0();
    }
    walls
    {
        type            extrapolatedCalculated;
        value           nonuniform List<scalar> 0();
    }
    frontAndBack
    {
        type            empty;
    }
    procBoundary0to1
    {
        type            processor;
        value           nonuniform List<scalar> 
94
(
2.9145e-06
1.24478e-06
1.24478e-06
6.59873e-07
6.59873e-07
2.84202e-07
2.84202e-07
2.5735e-07
2.5735e-07
4.16633e-07
4.16633e-07
3.29982e-07
1.86229e-07
1.86229e-07
9.6333e-08
1.1802e-07
1.1802e-07
2.80423e-07
-2.67827e-07
3.63695e-07
3.63695e-07
2.02125e-07
1.0911e-07
1.0911e-07
5.71229e-08
-1.2825e-08
3.78182e-08
3.78182e-08
3.1888e-08
-7.52347e-07
1.4353e-07
1.4353e-07
-3.72943e-07
1.95069e-07
1.95069e-07
1.4501e-07
-1.61985e-07
4.21306e-07
4.21306e-07
2.60403e-07
-1.67667e-07
3.88497e-07
3.88497e-07
1.69781e-07
-1.45379e-07
3.11298e-07
3.11298e-07
1.73277e-07
-1.90235e-07
2.69998e-07
2.69998e-07
1.18252e-07
9.68784e-08
1.70304e-07
1.70304e-07
8.93513e-08
-1.89581e-09
-1.67322e-08
4.39583e-08
4.39583e-08
4.82893e-09
6.14934e-08
-4.26784e-08
1.42142e-07
1.42142e-07
5.53524e-08
-3.61882e-08
2.0935e-08
-4.89175e-08
7.48334e-08
7.48334e-08
2.87043e-08
-3.96795e-08
-6.91585e-09
-4.30407e-08
-2.05503e-08
-2.5988e-08
-2.5988e-08
-1.99409e-08
1.13052e-08
-1.68071e-08
9.87296e-09
-1.25255e-08
6.86533e-09
-1.022e-08
-4.76845e-10
-5.64142e-09
-5.64142e-09
-5.226e-09
5.05622e-09
-9.13946e-09
-2.78545e-09
-1.66705e-08
-1.72692e-08
)
;
    }
    procBoundary0to4
    {
        type            processor;
        value           nonuniform List<scalar> 
72
(
-1.72214e-06
-5.5323e-07
-9.76151e-07
-3.4182e-07
-3.15787e-07
-2.73745e-07
-1.67149e-07
-2.1185e-07
-1.15092e-07
-1.75489e-07
-8.12865e-08
-1.46804e-07
-6.54065e-08
-1.25588e-07
-5.44702e-08
-1.2355e-07
-5.92469e-08
-1.1927e-07
-2.71483e-08
-2.42049e-07
-1.1122e-08
-1.30411e-07
-1.26121e-07
-1.26121e-07
6.66377e-09
1.45869e-08
2.65546e-09
1.65427e-08
-1.76413e-09
1.2659e-08
-4.34637e-09
9.27136e-09
-6.10118e-09
6.98455e-09
-5.72309e-09
6.10041e-09
-5.65298e-09
5.37709e-09
-4.54131e-09
5.13573e-09
-4.16293e-09
4.78971e-09
-3.12775e-09
4.58474e-09
-2.73675e-09
4.35747e-09
-1.85527e-09
4.08737e-09
-1.5055e-09
3.90935e-09
-8.20453e-10
3.5478e-09
-4.90659e-10
3.37298e-09
1.24079e-10
3.12361e-09
3.38407e-10
3.26638e-09
4.51394e-10
4.0177e-09
4.29346e-10
3.6212e-09
8.28094e-10
3.15653e-09
1.37818e-09
3.02585e-09
1.57771e-09
2.5531e-09
2.07722e-09
-2.16633e-10
2.99072e-09
3.6653e-10
)
;
    }
    procBoundary0to5
    {
        type            processor;
        value           nonuniform List<scalar> 4(-1.96729e-07 -1.86084e-07 1.8348e-06 -1.47247e-06);
    }
}


// ************************************************************************* //
