/*--------------------------------*- C++ -*----------------------------------*\
| =========                 |                                                 |
| \\      /  F ield         | OpenFOAM: The Open Source CFD Toolbox           |
|  \\    /   O peration     | Version:  2306                                  |
|   \\  /    A nd           | Website:  www.openfoam.com                      |
|    \\/     M anipulation  |                                                 |
\*---------------------------------------------------------------------------*/
FoamFile
{
    version     2.0;
    format      ascii;
    arch        "LSB;label=32;scalar=64";
    class       volScalarField;
    location    "800";
    object      div(phi);
}
// * * * * * * * * * * * * * * * * * * * * * * * * * * * * * * * * * * * * * //

dimensions      [0 0 -1 0 0 0 0];

internalField   nonuniform List<scalar> 
1340
(
1.55735e-06
7.16228e-07
8.66544e-07
4.32596e-07
4.68311e-07
5.87736e-08
3.24979e-07
2.42877e-07
8.81056e-07
1.65798e-07
9.52706e-08
3.20123e-08
1.55807e-07
2.79478e-07
-4.46294e-07
2.6173e-07
1.51846e-07
2.17873e-08
9.19087e-08
1.46066e-07
5.15576e-08
1.95991e-07
-1.30063e-06
3.1042e-07
7.779e-08
2.54591e-08
6.70342e-08
1.98469e-07
2.00574e-07
-2.22845e-07
5.08668e-08
-7.41123e-07
2.4057e-07
4.353e-08
4.08288e-08
1.19537e-07
1.60921e-07
1.20947e-07
6.83785e-08
-1.80936e-07
-9.23559e-08
1.85674e-07
7.2904e-08
1.96372e-08
7.78152e-08
2.3336e-07
2.12076e-07
-1.03606e-07
-8.14429e-09
-1.03311e-08
-9.21569e-08
1.99493e-07
1.06589e-08
5.52357e-08
1.46689e-07
1.61307e-07
1.28779e-07
1.55049e-07
-1.55157e-07
-1.01498e-07
1.80668e-07
3.38172e-08
1.43491e-07
7.85916e-08
1.64021e-08
9.70764e-08
2.39759e-07
2.26026e-07
-7.73904e-08
2.21779e-08
1.50281e-08
-6.87298e-08
1.15039e-07
1.78819e-07
-7.10471e-09
7.8035e-08
1.52306e-07
1.51086e-07
1.20359e-07
1.8836e-07
-1.14701e-07
-5.6805e-08
7.81289e-08
6.36453e-08
-7.03163e-09
1.11419e-07
8.89789e-08
1.93338e-08
8.69949e-08
2.41695e-07
2.20111e-07
-6.63116e-08
8.37582e-08
1.01205e-08
-9.21714e-08
-2.15437e-08
-5.46769e-08
1.60177e-07
-1.35093e-08
7.83105e-08
1.51781e-07
1.38064e-07
1.1568e-07
2.20518e-07
-8.4091e-08
-1.00894e-07
8.53137e-08
-1.172e-07
-5.03558e-08
-2.19022e-07
9.5033e-08
8.98701e-08
8.7386e-09
8.83792e-08
2.28324e-07
2.23103e-07
-5.877e-08
8.26587e-08
3.45663e-08
-1.87397e-07
-4.8495e-08
-1.31236e-07
-6.48925e-08
1.41962e-07
-1.99602e-08
8.74219e-08
1.39291e-07
1.18867e-07
1.05408e-07
2.21521e-07
-7.92092e-08
-1.0425e-07
4.10195e-08
-1.13547e-07
-7.7184e-08
1.19909e-07
-6.48937e-07
8.01213e-08
9.9431e-08
1.02487e-08
7.08141e-08
2.16965e-07
2.0282e-07
-6.3382e-08
9.35309e-08
2.79798e-08
-1.94324e-07
-6.76028e-08
4.07452e-08
-2.18348e-07
4.50717e-07
1.43257e-07
-1.56037e-08
8.3674e-08
1.29255e-07
1.01493e-07
9.27408e-08
2.20459e-07
-7.79339e-08
-1.20515e-07
5.25695e-08
-6.87953e-08
-3.44428e-09
2.97287e-07
-2.54276e-07
7.85354e-08
9.77466e-08
3.67145e-09
7.00263e-08
1.94996e-07
1.92006e-07
-7.20586e-08
8.30044e-08
3.75241e-08
-1.8079e-07
1.71806e-08
1.45759e-07
3.75018e-08
7.21896e-07
1.38483e-07
1.34503e-07
-1.15752e-08
9.02237e-08
1.15977e-07
8.31959e-08
7.6093e-08
2.01253e-07
-7.68253e-08
-1.07678e-07
8.83553e-08
1.4295e-08
1.25405e-07
4.02861e-07
1.71332e-07
6.99657e-07
4.30424e-08
9.51037e-08
9.80753e-09
5.6706e-08
1.79712e-07
1.64678e-07
-7.32897e-08
8.04792e-08
4.77416e-08
-1.17927e-07
8.50884e-08
2.19543e-07
1.6182e-07
6.64325e-07
9.56652e-08
2.48087e-07
4.44361e-09
8.48552e-08
1.08648e-07
6.99295e-08
6.51736e-08
1.88626e-07
-7.11016e-08
-8.09754e-08
1.15498e-07
7.10691e-08
1.71025e-07
4.41335e-07
1.03248e-07
6.63966e-07
-2.8757e-07
2.91578e-08
9.99701e-08
9.5013e-09
5.79164e-08
1.59375e-07
1.51847e-07
-7.42607e-08
7.8971e-08
5.32161e-08
-7.72568e-08
1.15171e-07
2.33421e-07
1.64961e-07
6.30264e-07
-1.01808e-07
4.60987e-07
1.4161e-07
-8.22008e-09
8.48616e-08
9.64492e-08
5.6623e-08
5.34327e-08
1.68837e-07
-6.46493e-08
-6.18335e-08
1.25476e-07
8.53157e-08
1.72423e-07
4.14207e-07
2.36647e-08
5.6904e-07
-2.50149e-07
1.38548e-07
1.62605e-08
8.51385e-08
1.03151e-08
4.62889e-08
1.44729e-07
1.27665e-07
-6.897e-08
7.58477e-08
5.73813e-08
-5.72639e-08
1.20164e-07
2.18191e-07
1.2822e-07
5.61449e-07
-9.85599e-08
5.51571e-07
-1.66539e-07
1.50268e-08
4.50783e-08
-1.27502e-08
7.48701e-08
8.75918e-08
4.67356e-08
4.59787e-08
1.56374e-07
-5.68288e-08
-4.99231e-08
1.21716e-07
8.65475e-08
1.47324e-07
3.68994e-07
-1.18145e-08
5.4583e-07
-1.16971e-07
4.63226e-07
-8.13146e-09
4.31681e-09
7.31589e-08
5.02403e-09
4.51264e-08
1.26396e-07
1.16936e-07
-6.6648e-08
7.1745e-08
5.45776e-08
-4.60349e-08
1.09604e-07
1.92999e-07
8.98975e-08
5.0224e-07
-9.48834e-08
5.11026e-07
-1.90688e-07
1.51589e-08
3.38346e-08
-1.76669e-08
7.05814e-08
7.50708e-08
3.61737e-08
3.71851e-08
1.38573e-07
-5.13851e-08
-4.17379e-08
1.13586e-07
7.45784e-08
1.26088e-07
3.18542e-07
-1.97841e-08
5.13842e-07
-1.38866e-07
3.90109e-07
-6.98686e-08
-9.61817e-09
5.65591e-10
6.57241e-08
3.93008e-09
3.36539e-08
1.12989e-07
9.69591e-08
-6.08334e-08
6.66073e-08
5.26921e-08
-4.169e-08
9.69437e-08
1.65673e-07
6.45768e-08
4.41349e-07
-9.7048e-08
4.45409e-07
-1.40332e-08
2.6069e-07
1.7229e-08
2.77329e-08
-1.68214e-08
6.01439e-08
6.56884e-08
2.84407e-08
3.13536e-08
1.27244e-07
-4.59246e-08
-3.70855e-08
1.01312e-07
6.40496e-08
9.88437e-08
2.78536e-07
-5.36044e-08
4.52681e-07
-1.01042e-07
3.71795e-07
-2.03495e-07
-1.07502e-08
-5.01475e-10
5.78885e-08
-1.01589e-09
3.15573e-08
9.71332e-08
8.83237e-08
-5.85809e-08
6.0974e-08
4.63592e-08
-4.00989e-08
7.95989e-08
1.3889e-07
3.41263e-08
3.78138e-07
-8.60545e-08
4.31674e-07
-1.68869e-07
3.99493e-07
1.69696e-08
2.50386e-08
-1.80609e-08
5.52215e-08
5.49121e-08
2.03923e-08
2.43067e-08
1.11724e-07
-4.29624e-08
-3.43921e-08
8.94827e-08
4.82503e-08
7.77709e-08
2.32719e-07
-5.27363e-08
3.93719e-07
-1.21093e-07
4.01919e-07
-1.34419e-07
-6.15087e-09
-5.9017e-10
5.18251e-08
-1.62486e-09
2.20412e-08
8.58797e-08
7.22581e-08
-5.39502e-08
5.50082e-08
4.25104e-08
-4.04987e-08
6.56621e-08
1.1365e-07
1.88234e-08
3.23763e-07
-9.6881e-08
3.80324e-07
-1.36599e-07
2.87237e-07
2.68711e-07
1.70097e-08
2.12994e-08
-1.63551e-08
4.6165e-08
4.73454e-08
1.49531e-08
1.96264e-08
1.01902e-07
-3.92192e-08
-3.22838e-08
7.77346e-08
3.84634e-08
5.69769e-08
2.0043e-07
-7.4836e-08
3.36484e-07
-1.32604e-07
3.00905e-07
6.91527e-08
1.73852e-07
-7.1796e-09
-1.16636e-09
4.50674e-08
-5.07001e-09
2.05115e-08
7.29654e-08
6.56676e-08
-5.17555e-08
4.96449e-08
3.69087e-08
-3.92695e-08
5.19441e-08
9.2953e-08
-2.22939e-09
2.79563e-07
-1.0594e-07
3.16827e-07
-1.32789e-07
2.84034e-07
5.82794e-09
1.44805e-08
1.88147e-08
-1.68214e-08
4.17908e-08
3.90706e-08
9.4444e-09
1.43258e-08
8.88114e-08
-3.63341e-08
-2.99132e-08
6.8183e-08
2.66039e-08
4.21812e-08
1.67425e-07
-7.59417e-08
2.89547e-07
-1.39756e-07
3.08876e-07
-1.64957e-07
2.51494e-07
-4.99983e-09
-1.49797e-09
3.96776e-08
-4.95308e-09
1.33776e-08
6.3947e-08
5.29824e-08
-4.71321e-08
4.43287e-08
3.37536e-08
-3.87386e-08
4.15092e-08
7.40247e-08
-1.30645e-08
2.42176e-07
-1.17465e-07
2.83716e-07
-1.93304e-07
2.68831e-07
-2.28493e-07
1.31033e-08
1.54372e-08
-1.51392e-08
3.44696e-08
3.34038e-08
5.96399e-09
1.09771e-08
8.01638e-08
-3.28894e-08
-2.81583e-08
5.80009e-08
1.89968e-08
2.61219e-08
1.43878e-07
-9.37233e-08
2.54669e-07
-1.54306e-07
2.79951e-07
-2.10019e-07
1.5064e-07
-2.02383e-07
-6.46062e-09
-2.11829e-09
3.39859e-08
-7.0589e-09
1.25274e-08
5.36543e-08
4.77922e-08
-4.46828e-08
3.90395e-08
2.8237e-08
-3.80709e-08
2.9736e-08
5.76856e-08
-2.94153e-08
2.09464e-07
-1.21538e-07
2.52106e-07
-1.83788e-07
2.17074e-07
-1.18563e-07
7.97117e-08
1.03815e-08
1.32579e-08
-1.51028e-08
3.08265e-08
2.71766e-08
2.38855e-09
7.03998e-09
6.87315e-08
-3.08849e-08
-2.72081e-08
4.86961e-08
8.61892e-09
1.42978e-08
1.17839e-07
-9.13731e-08
2.20267e-07
-1.43148e-07
2.42008e-07
-1.85107e-07
1.41961e-07
-2.28805e-07
-5.08584e-09
-2.38821e-09
2.94576e-08
-6.48888e-09
7.32219e-09
4.6378e-08
3.76517e-08
-4.07323e-08
3.34509e-08
2.42547e-08
-3.85376e-08
2.07362e-08
4.26591e-08
-3.49971e-08
1.78789e-07
-1.20103e-07
2.15805e-07
-1.75778e-07
2.15178e-07
-2.08285e-07
1.56361e-07
9.02012e-09
1.0545e-08
-1.34768e-08
2.50081e-08
2.2895e-08
1.72806e-10
4.48813e-09
6.08053e-08
-2.85831e-08
-2.66489e-08
3.94003e-08
2.71188e-09
3.25337e-09
9.93404e-08
-9.77447e-08
1.89327e-07
-1.43635e-07
2.14043e-07
-1.9278e-07
1.97001e-07
-1.85645e-07
-6.14673e-09
-2.81156e-09
2.48243e-08
-7.6851e-09
6.82451e-09
3.81381e-08
3.3425e-08
-3.84448e-08
2.81871e-08
1.89881e-08
-3.75758e-08
1.22045e-08
3.15697e-08
-4.25997e-08
1.52073e-07
-1.15349e-07
1.8572e-07
-1.55704e-07
2.07611e-07
-1.53281e-07
1.51447e-07
-2.22523e-07
6.82721e-09
8.82801e-09
-1.31024e-08
2.19863e-08
1.81695e-08
-2.04511e-09
1.58586e-09
5.09538e-08
-2.69431e-08
-2.57016e-08
3.20204e-08
-3.42717e-09
-2.58601e-09
8.03584e-08
-8.83999e-08
1.60638e-07
-1.22724e-07
1.8355e-07
-1.60674e-07
1.79807e-07
-1.26793e-07
4.7967e-08
-5.03276e-09
-2.92842e-09
2.11375e-08
-6.9112e-09
3.10561e-09
3.22775e-08
2.54369e-08
-3.47882e-08
2.327e-08
1.57304e-08
-3.60733e-08
7.50812e-09
2.28611e-08
-4.05494e-08
1.27901e-07
-1.03086e-07
1.58209e-07
-1.36118e-07
1.8433e-07
-1.52949e-07
9.67322e-08
-1.64125e-07
5.72947e-09
6.77294e-09
-1.15494e-08
1.74352e-08
1.49479e-08
-3.34046e-09
-1.62085e-10
4.40476e-08
-2.46008e-08
-2.4197e-08
2.57577e-08
-4.98607e-09
-6.60729e-09
6.78432e-08
-8.38406e-08
1.36415e-07
-1.11372e-07
1.58867e-07
-1.37616e-07
1.55232e-07
-1.20983e-07
5.10327e-08
-5.67866e-09
-3.12881e-09
1.7454e-08
-7.44787e-09
2.85099e-09
2.58255e-08
2.20859e-08
-3.22016e-08
1.90756e-08
1.20964e-08
-3.27404e-08
3.91931e-09
1.78571e-08
-3.97792e-08
1.07713e-07
-9.06435e-08
1.35399e-07
-1.1072e-07
1.58593e-07
-1.2428e-07
8.5271e-08
-1.19783e-07
4.06474e-09
5.48208e-09
-1.09436e-08
1.4976e-08
1.14249e-08
-4.5322e-09
-2.04422e-09
3.6046e-08
-2.25186e-08
-2.19495e-08
2.14062e-08
-6.27765e-09
-6.80326e-09
5.53483e-08
-6.96033e-08
1.13594e-07
-8.71357e-08
1.34574e-07
-1.07902e-07
1.32548e-07
-1.01745e-07
1.10147e-07
-4.71825e-09
-3.11196e-09
1.45205e-08
-6.60472e-09
3.11325e-10
2.12592e-08
1.60629e-08
-2.85501e-08
1.55275e-08
1.02847e-08
-2.88619e-08
3.1975e-09
1.42963e-08
-3.28323e-08
8.8865e-08
-7.42984e-08
1.10807e-07
-8.92244e-08
1.3124e-07
-1.0309e-07
1.30064e-07
-1.18609e-07
3.2227e-09
3.97476e-09
-9.5152e-09
1.14987e-08
9.07603e-09
-5.12266e-09
-2.97572e-09
3.05184e-08
-1.97554e-08
-1.91916e-08
1.80069e-08
-4.71298e-09
-6.14446e-09
4.68584e-08
-6.11729e-08
9.24153e-08
-7.62442e-08
1.08086e-07
-8.94589e-08
1.2675e-07
-8.72495e-08
1.17976e-07
-1.39201e-07
-5.05159e-09
-3.14247e-09
1.16526e-08
-6.68641e-09
2.46632e-10
1.64434e-08
1.36254e-08
-2.56216e-08
1.27074e-08
8.27965e-09
-2.4161e-08
2.7555e-09
1.25496e-08
-2.95149e-08
7.31971e-08
-6.58652e-08
8.88239e-08
-7.59838e-08
1.05266e-07
-8.62448e-08
1.00909e-07
-5.38888e-08
5.02382e-08
2.02906e-09
3.03857e-09
-8.80007e-09
9.55088e-09
6.57455e-09
-5.54696e-09
-3.88702e-09
2.44492e-08
-1.72809e-08
-1.62654e-08
1.55823e-08
-3.90178e-09
-4.96201e-09
3.85773e-08
-5.19335e-08
7.5309e-08
-6.51285e-08
8.58542e-08
-7.62483e-08
1.01643e-07
-7.73336e-08
5.88471e-08
-6.72762e-08
-4.20872e-09
-3.06342e-09
9.387e-09
-5.8716e-09
-1.41186e-09
1.3111e-08
9.40201e-09
-2.20831e-08
1.03063e-08
7.24557e-09
-2.00902e-08
2.90421e-09
1.05689e-08
-2.45514e-08
6.0994e-08
-5.6097e-08
7.2188e-08
-6.68722e-08
8.37977e-08
-7.6177e-08
7.87454e-08
-5.44184e-08
4.19998e-08
1.35176e-09
1.96091e-09
-7.60289e-09
6.96526e-09
4.91213e-09
-5.55849e-09
-4.15224e-09
2.03077e-08
-1.47677e-08
-1.37303e-08
1.31414e-08
-2.7972e-09
-4.25604e-09
3.29704e-08
-4.44553e-08
6.3309e-08
-5.72752e-08
7.0629e-08
-6.74054e-08
8.07098e-08
-6.57157e-08
4.16879e-08
-5.48862e-08
-4.32818e-09
-3.07988e-09
7.23542e-09
-5.68711e-09
-1.32496e-09
9.65133e-09
7.77258e-09
-1.94629e-08
8.28972e-09
5.66038e-09
-1.67985e-08
2.32399e-09
9.14821e-09
-2.11217e-08
5.17903e-08
-4.72539e-08
6.20236e-08
-5.65923e-08
7.01162e-08
-6.30603e-08
5.73286e-08
-4.46729e-08
2.74292e-08
3.83319e-10
1.23184e-09
-6.77838e-09
5.4935e-09
3.18355e-09
-5.54305e-09
-4.53007e-09
1.59767e-08
-1.28534e-08
-1.17333e-08
1.10068e-08
-2.61057e-09
-3.80723e-09
2.75532e-08
-3.57398e-08
5.44189e-08
-4.4485e-08
6.16676e-08
-5.22666e-08
6.22387e-08
-5.0753e-08
8.45454e-09
-4.4987e-08
-3.75937e-09
-2.92205e-09
5.52373e-09
-4.91628e-09
-2.41163e-09
7.25428e-09
4.99913e-09
-1.65666e-08
6.80296e-09
4.86782e-09
-1.45354e-08
1.92585e-09
7.45207e-09
-1.66626e-08
4.29189e-08
-3.52106e-08
5.26085e-08
-4.12512e-08
5.7538e-08
-4.5888e-08
3.3307e-09
-3.9383e-08
-4.36301e-09
-8.94517e-11
3.08621e-10
-5.9873e-09
3.63712e-09
1.74324e-09
-5.61554e-09
-4.26238e-09
1.38076e-08
-1.05636e-08
-1.04862e-08
9.1835e-09
-2.12084e-09
-3.02686e-09
2.20244e-08
-2.83407e-08
4.27457e-08
-3.37161e-08
4.91596e-08
-3.84044e-08
8.10292e-09
-3.5022e-08
1.19948e-09
-2.10828e-08
1.34099e-08
-4.05933e-09
-2.38751e-09
4.44302e-09
-5.00549e-09
-1.56063e-09
5.97401e-09
4.36726e-09
-1.42884e-08
5.55055e-09
6.04659e-09
-1.00742e-08
1.81113e-09
5.04751e-09
-1.4746e-08
3.21494e-08
-3.05062e-08
3.84177e-08
-3.46753e-08
1.86607e-08
-2.12415e-08
7.16842e-09
-2.33275e-08
3.37632e-08
-1.77214e-08
-3.37407e-10
-8.69394e-10
-5.17532e-09
3.9439e-09
2.42535e-10
-5.46001e-09
-3.5533e-09
1.20118e-08
-6.33988e-09
-8.32775e-09
6.8239e-09
-1.6769e-09
-2.74101e-09
1.58154e-08
-2.51814e-08
3.07065e-08
-3.19028e-08
2.76677e-08
-2.41621e-08
2.93386e-09
-1.19825e-08
4.30213e-08
-2.09655e-08
2.27005e-08
-4.68756e-09
-1.79263e-09
4.6806e-09
-5.90246e-09
-1.3393e-09
6.07894e-09
3.5987e-09
-1.15319e-08
3.12909e-09
6.06211e-09
-5.81204e-09
1.57397e-09
2.991e-09
-1.28546e-08
2.37402e-08
-2.97077e-08
2.87825e-08
-3.58786e-08
1.39481e-08
-5.52785e-09
2.84538e-08
-2.95702e-08
3.18474e-08
-2.65859e-08
-2.75981e-10
-1.3921e-09
-5.33469e-09
4.02762e-09
4.04919e-10
-5.16891e-09
-3.8743e-09
9.71324e-09
-2.78951e-09
-5.79188e-09
5.32607e-09
-1.2315e-09
-3.27022e-09
1.19413e-08
-2.29998e-08
2.42875e-08
-3.22891e-08
2.21346e-08
-2.17702e-08
5.10802e-09
-1.56586e-08
3.67416e-08
-2.53028e-08
1.65488e-08
-4.20873e-09
-2.05867e-09
3.45899e-09
-4.62687e-09
-1.60815e-09
3.56442e-09
3.41925e-09
-8.41838e-09
2.15358e-09
5.46443e-09
-4.49025e-09
1.10679e-09
2.8094e-09
-1.27369e-08
1.93636e-08
-2.78422e-08
2.22709e-08
-3.16581e-08
8.01507e-09
-1.01028e-08
1.88009e-08
-2.90811e-08
1.97165e-08
-2.40855e-08
-8.04822e-10
-9.53726e-10
-4.64493e-09
2.49152e-09
4.0003e-10
-3.834e-09
-4.06729e-09
6.46497e-09
-1.75746e-09
-4.4636e-09
4.45673e-09
-1.37941e-09
-4.03729e-09
1.03421e-08
-2.16039e-08
2.04225e-08
-2.98875e-08
1.66857e-08
-1.83728e-08
3.15573e-09
-2.29985e-08
2.1581e-08
-2.37247e-08
1.27084e-08
-3.58423e-09
-2.37091e-09
2.14645e-09
-3.52755e-09
-2.21664e-09
1.49772e-09
1.87749e-09
-6.69559e-09
8.93318e-10
3.91247e-09
-4.70387e-09
2.60843e-10
2.32519e-09
-1.21316e-08
1.70135e-08
-2.4785e-08
1.89381e-08
-2.57619e-08
6.23533e-09
-1.90082e-08
6.71966e-09
-3.14785e-08
1.01646e-08
-2.41143e-08
-1.45893e-09
-9.47019e-10
-3.87699e-09
9.36129e-10
5.25156e-11
-3.32679e-09
-4.1705e-09
3.80498e-09
-1.96143e-09
-4.57555e-09
3.39959e-09
-1.90375e-09
-4.2369e-09
9.43653e-09
-1.89046e-08
1.82031e-08
-2.43629e-08
1.40149e-08
-2.11515e-08
-4.38565e-09
-2.91118e-08
1.14287e-08
-2.30874e-08
1.78287e-08
-3.44625e-09
-2.54002e-09
9.4868e-10
-2.74085e-09
-2.42888e-09
-2.53562e-10
7.32982e-10
-5.88907e-09
-4.58896e-10
2.68658e-09
-5.29365e-09
-1.87202e-10
2.23591e-09
-1.06904e-08
1.55256e-08
-1.99466e-08
1.58639e-08
-2.17254e-08
-3.48417e-09
-2.22924e-08
9.01515e-09
-2.35893e-08
2.18128e-08
-2.33612e-08
-1.73069e-09
-1.15443e-09
-3.06451e-09
-1.60336e-10
-5.94817e-10
-2.81883e-09
-4.31385e-09
1.40423e-09
-2.1872e-09
-4.55339e-09
2.90054e-09
-1.70414e-09
-3.75595e-09
8.88658e-09
-1.54936e-08
1.50548e-08
-1.85881e-08
-1.20874e-09
-1.97892e-08
5.36671e-09
-1.8913e-08
2.5516e-08
-1.49371e-08
1.64416e-08
-2.79749e-08
-2.87394e-09
-2.14583e-09
-6.75469e-11
-1.81938e-09
-2.49607e-09
-1.50753e-09
-8.10753e-10
-5.20349e-09
-1.40283e-09
1.92332e-09
-5.01724e-09
-1.96713e-10
2.40648e-09
-8.98115e-09
1.29524e-08
-1.53733e-08
-4.20366e-10
-1.78756e-08
3.21904e-09
-1.57078e-08
2.38399e-08
-1.5958e-08
1.46581e-08
-1.31694e-08
5.35115e-09
-2.35261e-09
-1.19751e-09
-1.85573e-09
-1.41695e-09
-1.182e-09
-2.92955e-09
-3.67077e-09
-9.06759e-10
-2.36675e-09
-3.32209e-09
1.72642e-09
-1.66504e-09
-3.3698e-09
7.49522e-09
-1.21826e-08
6.16701e-10
-1.44559e-08
1.36157e-09
-1.38156e-08
1.81667e-08
-1.37347e-08
1.80387e-08
-1.50342e-08
5.66462e-09
-2.15788e-08
1.40809e-11
-1.59135e-09
-1.48664e-09
-1.89578e-09
-3.11293e-09
-1.70868e-09
-2.60951e-09
-4.85349e-09
-8.50881e-10
-9.41927e-10
-4.92078e-09
-3.55961e-09
8.44676e-11
-8.32329e-09
-1.72355e-10
-1.15254e-08
-2.16343e-09
-1.1718e-08
9.085e-09
-1.23253e-08
9.2182e-09
-1.71382e-08
1.83656e-09
-1.62854e-08
1.84249e-09
-3.33132e-09
-1.7493e-09
-1.94123e-09
-2.6116e-09
-1.66935e-09
-2.92253e-09
-4.29885e-09
-1.3692e-09
-3.20994e-09
-3.95836e-09
-5.14273e-09
-3.90425e-09
-5.22755e-09
-2.42463e-09
-7.93548e-09
-4.83626e-09
-8.3571e-09
-1.27099e-10
-1.01142e-08
-2.43787e-09
-1.50285e-08
-5.47831e-09
-1.87415e-08
-6.45481e-09
-1.75003e-08
-5.07157e-10
-6.87526e-10
-7.16411e-10
-6.77201e-10
-9.69401e-10
-1.34723e-09
-8.30142e-10
-1.49476e-09
-1.30483e-09
-1.39439e-09
-2.50444e-09
-1.73581e-09
-1.5145e-09
-2.66192e-09
-2.49192e-09
-3.01079e-09
-1.95999e-09
-4.154e-09
-3.97278e-09
-6.70966e-09
-6.89842e-09
-1.19648e-08
-1.05489e-08
-1.21433e-08
-9.63153e-09
)
;

boundaryField
{
    inlet
    {
        type            extrapolatedCalculated;
        value           nonuniform List<scalar> 
25
(
-5.07157e-10
-6.87526e-10
-7.16411e-10
-6.77201e-10
-9.69401e-10
-1.34723e-09
-8.30142e-10
-1.49476e-09
-1.30483e-09
-1.39439e-09
-2.50444e-09
-1.73581e-09
-1.5145e-09
-2.66192e-09
-2.49192e-09
-3.01079e-09
-1.95999e-09
-4.154e-09
-3.97278e-09
-6.70966e-09
-6.89842e-09
-1.19648e-08
-1.05489e-08
-1.21433e-08
-9.63153e-09
)
;
    }
    outlet
    {
        type            extrapolatedCalculated;
        value           nonuniform List<scalar> 0();
    }
    walls
    {
        type            extrapolatedCalculated;
        value           nonuniform List<scalar> 0();
    }
    frontAndBack
    {
        type            empty;
    }
    procBoundary4to0
    {
        type            processor;
        value           nonuniform List<scalar> 
72
(
8.38844e-07
9.60573e-07
2.29164e-07
4.21539e-07
2.86651e-07
2.53256e-07
2.70755e-07
2.18187e-07
2.33747e-07
1.8502e-07
1.99914e-07
1.57631e-07
1.65758e-07
1.41091e-07
1.49181e-07
1.15954e-07
1.40029e-07
9.07695e-08
2.13992e-07
-4.23898e-08
2.32475e-07
-5.46089e-08
-5.46089e-08
-3.57268e-08
-1.21833e-08
8.06255e-09
-1.18611e-08
1.08812e-08
-7.39671e-09
1.7851e-08
-4.05635e-09
1.52749e-08
-2.36231e-09
1.66433e-08
-1.88152e-09
1.24919e-08
-2.07274e-09
1.22256e-08
-2.31242e-09
8.60046e-09
-2.64758e-09
8.18758e-09
-2.81056e-09
5.43195e-09
-3.01588e-09
5.08048e-09
-3.03019e-09
3.05195e-09
-3.08229e-09
2.82001e-09
-2.98186e-09
1.3812e-09
-2.90159e-09
1.16472e-09
-2.77092e-09
7.3422e-11
-2.65026e-09
-4.11191e-10
-2.32719e-09
-1.23001e-09
-2.58298e-09
-1.12584e-09
-2.86181e-09
-1.52213e-09
-2.85946e-09
-1.73795e-09
-2.93501e-09
-1.86708e-09
-7.20702e-10
-4.19882e-09
1.01823e-09
-1.07503e-09
)
;
    }
    procBoundary4to5
    {
        type            processor;
        value           nonuniform List<scalar> 
95
(
3.66949e-07
1.02033e-06
3.76087e-07
2.89262e-07
2.89262e-07
9.14187e-08
1.30837e-07
1.30837e-07
1.29007e-07
3.4522e-07
3.4522e-07
4.79966e-07
4.79966e-07
9.09317e-08
1.26002e-07
1.26002e-07
2.22891e-07
2.22891e-07
1.89715e-07
3.07088e-08
3.07088e-08
-7.09153e-08
-1.50991e-07
-1.50991e-07
-1.72899e-07
4.82279e-08
4.82279e-08
4.55874e-07
-3.34836e-07
1.02279e-06
1.02279e-06
8.82087e-07
2.43599e-07
7.4175e-07
7.4175e-07
5.09817e-07
-2.3466e-07
6.74769e-07
6.74769e-07
5.84585e-07
-7.83448e-08
4.7567e-07
4.7567e-07
3.66297e-07
-1.87829e-08
4.1345e-07
-6.70333e-08
3.92273e-07
3.92273e-07
2.38918e-07
3.28703e-07
3.08223e-07
-1.50295e-07
1.73868e-07
1.73868e-07
8.84256e-08
-2.33772e-07
7.17029e-08
-2.92234e-07
1.16915e-07
1.16915e-07
4.80344e-08
-2.13533e-07
1.82051e-08
-1.26665e-07
5.30339e-08
-1.16618e-07
1.55244e-07
1.55244e-07
9.58668e-08
-4.43585e-08
3.72807e-08
-4.36077e-08
2.76033e-08
-3.67141e-08
1.11625e-09
-2.86223e-08
-2.86223e-08
-1.58747e-08
2.73893e-08
-1.2759e-08
1.58034e-08
-2.17892e-08
8.51151e-09
-2.04755e-08
5.9838e-09
-2.35463e-08
1.9207e-08
1.9207e-08
7.11322e-09
-1.84439e-08
-3.44084e-09
-2.06118e-08
-1.10322e-08
-2.28116e-08
)
;
    }
}


// ************************************************************************* //
