/*--------------------------------*- C++ -*----------------------------------*\
| =========                 |                                                 |
| \\      /  F ield         | OpenFOAM: The Open Source CFD Toolbox           |
|  \\    /   O peration     | Version:  2306                                  |
|   \\  /    A nd           | Website:  www.openfoam.com                      |
|    \\/     M anipulation  |                                                 |
\*---------------------------------------------------------------------------*/
FoamFile
{
    version     2.0;
    format      ascii;
    arch        "LSB;label=32;scalar=64";
    class       volScalarField;
    location    "800";
    object      p;
}
// * * * * * * * * * * * * * * * * * * * * * * * * * * * * * * * * * * * * * //

dimensions      [0 2 -2 0 0 0 0];

internalField   nonuniform List<scalar> 
1340
(
5.06223
12.9758
7.62098
8.947
5.04586
12.7211
8.49266
8.40894
7.51098
8.77577
5.01629
12.4633
9.2982
8.98649
8.69998
8.32253
8.24045
7.38879
8.5918
4.97104
12.2045
10.3931
10.1134
9.86646
9.60728
9.33589
9.05618
8.76359
8.49319
8.13804
8.05706
7.25354
8.39401
4.91219
11.9395
11.408
11.1536
10.8871
10.61
10.3238
10.032
9.77586
9.54868
9.30932
9.05773
8.79738
8.5244
8.2704
7.93837
7.85819
7.10455
8.18152
4.84094
11.6652
11.9813
11.8742
11.7496
11.6077
11.4487
11.273
11.0813
10.8743
10.653
10.4187
10.1729
9.91662
9.65353
9.42082
9.21343
8.99398
8.76234
8.52157
8.26851
8.03113
7.72285
7.64334
6.94107
7.95396
4.75731
11.3804
10.9895
11.0707
11.1435
11.2068
11.2599
11.3016
11.3312
11.3478
11.3506
11.3389
11.3119
11.2692
11.2102
11.1345
11.0419
10.9324
10.806
10.663
10.5037
10.3289
10.1393
9.93604
9.72037
9.49336
9.25838
9.04881
8.86102
8.66138
8.44967
8.22853
7.99554
7.77495
7.49083
7.41206
6.76232
7.71092
4.66134
11.0833
6.38745
6.42788
6.46634
6.5072
6.54978
6.59451
6.64134
6.69039
6.74172
6.79543
6.85159
6.91028
6.97156
7.03551
7.10221
7.17171
7.24406
7.31933
7.39754
7.47874
7.56293
7.65012
7.74031
7.83346
7.92952
8.02842
8.13006
8.23432
8.34104
8.45003
8.56107
8.67387
8.78814
8.90354
9.01965
9.13605
9.25222
9.36765
9.48171
9.59379
9.70319
9.80918
9.91094
10.0077
10.0985
10.1826
10.259
10.3267
10.3849
10.4326
10.469
10.4931
10.5042
10.5013
10.484
10.4515
10.4033
10.3391
10.2586
10.1617
10.0485
9.91928
9.77444
9.61463
9.44076
9.25394
9.05509
8.84736
8.66038
8.49182
8.31169
8.1197
7.91809
7.70514
7.50143
7.24165
7.16386
6.56759
7.45163
4.5535
10.7708
5.73734
5.77266
5.80645
5.84233
5.87978
5.91913
5.96036
6.00359
6.04888
6.09631
6.14596
6.19789
6.2522
6.30895
6.36822
6.43006
6.49456
6.56177
6.63173
6.70451
6.78013
6.85862
6.94001
7.02429
7.11145
7.20146
7.29427
7.3898
7.48796
7.58862
7.69162
7.79676
7.90382
8.01254
8.1226
8.23365
8.34529
8.45706
8.56846
8.67895
8.78793
8.89474
8.99868
9.09901
9.19493
9.28562
9.37022
9.44782
9.51753
9.57842
9.62958
9.6701
9.69912
9.71579
9.71933
9.70904
9.68429
9.64459
9.58954
9.51887
9.43251
9.33054
9.21323
9.08102
8.93465
8.77504
8.60298
8.42135
8.25616
8.10624
7.94515
7.7725
7.59012
7.39699
7.21017
6.97472
6.89827
6.35636
7.17493
4.43509
10.4376
5.16921
5.20009
5.22979
5.26129
5.2942
5.32881
5.36509
5.40316
5.44307
5.4849
5.52872
5.57461
5.62265
5.67289
5.72541
5.78029
5.8376
5.8974
5.95974
6.02469
6.0923
6.16261
6.23565
6.31145
6.39001
6.47134
6.55542
6.6422
6.73164
6.82366
6.91815
7.01496
7.11395
7.21492
7.31763
7.42181
7.52713
7.63324
7.73973
7.84613
7.95195
8.05663
8.15954
8.26004
8.35742
8.45092
8.53975
8.62307
8.70004
8.76975
8.83131
8.88383
8.92642
8.95822
8.97838
8.98614
8.98081
8.96175
8.92847
8.88058
8.81784
8.74016
8.64764
8.54061
8.41955
8.28521
8.13828
7.98133
7.83689
7.70484
7.5621
7.40816
7.24457
7.07086
6.90081
6.68943
6.61464
6.12836
6.87854
4.30876
10.0774
4.66561
4.69265
4.71877
4.74646
4.77541
4.80586
4.83781
4.87135
4.90652
4.94342
4.98209
5.02262
5.06507
5.10951
5.15601
5.20464
5.25547
5.30857
5.36399
5.4218
5.48205
5.54481
5.61009
5.67796
5.74844
5.82153
5.89724
5.97558
6.0565
6.13998
6.22594
6.31429
6.40492
6.49769
6.59243
6.68892
6.78693
6.88616
6.98629
7.08695
7.18772
7.28813
7.38766
7.48575
7.58177
7.67506
7.76491
7.85056
7.93122
8.00606
8.07423
8.13487
8.1871
8.23004
8.26288
8.28479
8.295
8.29286
8.27775
8.24914
8.20675
8.15031
8.07974
7.99521
7.89708
7.78587
7.66213
7.52817
7.40328
7.28814
7.16285
7.02683
6.88136
6.7265
6.57302
6.38536
6.31197
5.88431
6.55817
4.18163
9.678
4.22515
4.2487
4.2715
4.29566
4.32093
4.34753
4.37545
4.40476
4.43553
4.46782
4.50169
4.53721
4.57444
4.61345
4.65431
4.69707
4.74181
4.7886
4.83749
4.88855
4.94184
4.99742
5.05532
5.11561
5.17832
5.24348
5.31112
5.38121
5.45377
5.52881
5.60629
5.68613
5.76826
5.85258
5.939
6.02733
6.11736
6.20891
6.30173
6.39551
6.48989
6.58449
6.67888
6.77258
6.86508
6.95577
7.04406
7.12925
7.21062
7.28745
7.35892
7.42424
7.48259
7.53307
7.57488
7.60727
7.62936
7.64047
7.63998
7.62721
7.60181
7.56343
7.51179
7.44694
7.36909
7.27861
7.17589
7.06294
6.95612
6.85675
6.7478
6.6287
6.50052
6.36366
6.22625
6.06208
5.98847
5.62605
6.2075
4.063
9.23039
3.69614
3.71592
3.73513
3.75548
3.77678
3.79921
3.82276
3.8475
3.8735
3.90079
3.92945
3.95953
3.99108
4.02415
4.05885
4.09519
4.13324
4.17309
4.21478
4.25838
4.30393
4.35151
4.40118
4.45299
4.50696
4.56315
4.6216
4.68233
4.74535
4.81069
4.87836
4.94831
5.02048
5.09487
5.17145
5.25002
5.33048
5.41271
5.49656
5.58178
5.66811
5.75525
5.84286
5.93061
6.01808
6.10476
6.19018
6.27375
6.35481
6.43279
6.50693
6.57654
6.64088
6.69905
6.75032
6.79397
6.82913
6.855
6.87098
6.87631
6.87049
6.85307
6.82365
6.7821
6.72842
6.66277
6.58547
6.498
6.41328
6.33333
6.24457
6.14655
6.04002
5.92585
5.80882
5.67564
5.5999
5.32906
5.77786
3.95751
8.68209
3.14942
3.16519
3.18059
3.19688
3.21396
3.23196
3.25086
3.27074
3.29166
3.31363
3.33673
3.36099
3.38645
3.41319
3.44127
3.47072
3.50158
3.53397
3.56789
3.60345
3.64065
3.67957
3.7203
3.76287
3.80729
3.85366
3.90202
3.95242
4.00488
4.05942
4.11609
4.17488
4.23577
4.29881
4.36396
4.43115
4.5003
4.57138
4.64426
4.71881
4.79486
4.8722
4.95062
5.02989
5.10963
5.18955
5.26926
5.34828
5.4261
5.50226
5.57615
5.64713
5.7146
5.77779
5.83599
5.88852
5.93458
5.9734
6.00429
6.0265
6.03941
6.0425
6.03528
6.01743
5.98874
5.94917
5.89889
5.83905
5.77855
5.72003
5.65389
5.57964
5.49786
5.4096
5.31794
5.21703
5.1543
4.95344
5.35231
3.70303
8.32926
2.68688
2.69962
2.71209
2.72528
2.73913
2.75371
2.76905
2.7852
2.80216
2.82002
2.83879
2.85851
2.87921
2.90098
2.92385
2.94784
2.97303
2.99946
3.02719
3.05627
3.08673
3.11861
3.15201
3.18697
3.22351
3.26173
3.30161
3.34325
3.38668
3.43192
3.47901
3.52799
3.57884
3.63162
3.68633
3.74292
3.80137
3.86168
3.92374
3.9875
4.05286
4.11969
4.18785
4.25713
4.32731
4.3982
4.4695
4.54081
4.6118
4.68207
4.75118
4.81856
4.88374
4.94611
5.00501
5.05988
5.11
5.15466
5.19322
5.22496
5.24926
5.26559
5.27336
5.27219
5.26176
5.24188
5.21261
5.17482
5.13416
5.09353
5.0466
4.99289
4.93294
4.86783
4.79976
4.72819
4.68081
4.54233
4.9141
3.40616
7.98323
2.26529
2.25352
2.27557
2.28564
2.29632
2.30751
2.31931
2.33174
2.34481
2.35855
2.37302
2.38824
2.40424
2.42105
2.43873
2.45732
2.47682
2.49733
2.51886
2.54145
2.56516
2.59002
2.61609
2.6434
2.67202
2.70198
2.73334
2.76611
2.80037
2.83615
2.87348
2.9124
2.95296
2.99514
3.03902
3.08458
3.13181
3.18074
3.23133
3.28356
3.33739
3.39275
3.44957
3.50775
3.56714
3.62762
3.68902
3.75114
3.81369
3.87642
3.939
4.00112
4.06234
4.12225
4.18041
4.23626
4.28931
4.33898
4.38463
4.42574
4.46166
4.49179
4.51564
4.53263
4.54235
4.54447
4.53872
4.52506
4.50416
4.47917
4.45297
4.42184
4.38537
4.34411
4.29912
4.25231
4.20696
4.17501
4.09466
4.44018
3.08482
7.54539
1.87172
1.86245
1.87985
1.88783
1.89629
1.90516
1.91452
1.92437
1.93474
1.94565
1.95712
1.96921
1.98193
1.99531
2.00937
2.02416
2.0397
2.05605
2.07322
2.09124
2.11017
2.13005
2.15092
2.17279
2.19573
2.21977
2.24496
2.27133
2.2989
2.32775
2.3579
2.38939
2.42225
2.45649
2.49218
2.52931
2.56787
2.60791
2.64943
2.6924
2.73681
2.78263
2.82979
2.87827
2.92796
2.97876
3.03055
3.08319
3.13652
3.19031
3.24431
3.2983
3.35194
3.40492
3.4569
3.5074
3.55607
3.60242
3.64593
3.68614
3.72252
3.75455
3.78176
3.80367
3.81986
3.83002
3.83389
3.83138
3.82295
3.80993
3.79502
3.77651
3.75407
3.72831
3.7002
3.67178
3.64864
3.63097
3.60154
3.92035
2.71581
7.02483
1.51
1.50286
1.51628
1.52244
1.52896
1.53581
1.54302
1.55062
1.55862
1.56703
1.57588
1.58521
1.59502
1.60533
1.61618
1.62759
1.63959
1.65221
1.66547
1.67938
1.69401
1.70937
1.72549
1.74241
1.76016
1.77877
1.79828
1.81872
1.8401
1.86249
1.88591
1.91041
1.93598
1.96267
1.99053
2.01956
2.04975
2.08116
2.1138
2.14764
2.18271
2.21899
2.25643
2.29503
2.33474
2.37548
2.41717
2.45972
2.50303
2.54694
2.59128
2.63587
2.68047
2.72485
2.76876
2.81183
2.85377
2.89424
2.93281
2.96909
3.00265
3.03311
3.06005
3.08304
3.10176
3.11591
3.12526
3.12974
3.12964
3.12508
3.11838
3.10923
3.09743
3.08366
3.06879
3.05518
3.04945
3.04337
3.056
3.34725
2.28106
6.42041
1.13206
1.1268
1.13672
1.1413
1.14615
1.15125
1.15662
1.16229
1.16827
1.17455
1.18117
1.18815
1.19549
1.20322
1.21136
1.21994
1.22897
1.23846
1.24844
1.25894
1.26999
1.28159
1.29378
1.30659
1.32005
1.33417
1.34898
1.36452
1.38079
1.39784
1.4157
1.43438
1.4539
1.4743
1.49559
1.51779
1.5409
1.56497
1.58999
1.61595
1.64286
1.67074
1.69953
1.72924
1.75983
1.79123
1.82344
1.85636
1.88994
1.92406
1.95861
1.99346
2.02844
2.06342
2.09818
2.1325
2.16615
2.19889
2.2304
2.26042
2.2886
2.31468
2.3383
2.35916
2.37704
2.39166
2.40281
2.41051
2.41492
2.41545
2.4141
2.41124
2.40683
2.40152
2.39592
2.39268
2.39805
2.39768
2.43988
2.70102
1.74948
5.67246
0.828279
0.824685
0.831415
0.834448
0.837673
0.84105
0.844605
0.848342
0.852267
0.856398
0.86075
0.865321
0.870116
0.875153
0.880454
0.886027
0.891876
0.89801
0.904453
0.911229
0.918336
0.925786
0.933596
0.941794
0.950405
0.959418
0.96886
0.978755
0.989121
0.999972
1.01133
1.02322
1.03564
1.04863
1.0622
1.07636
1.09113
1.10653
1.1226
1.1393
1.15665
1.17468
1.19337
1.21271
1.2327
1.25332
1.27454
1.29633
1.31864
1.34142
1.3646
1.38809
1.4118
1.43561
1.4594
1.48302
1.50634
1.52915
1.55127
1.57251
1.59266
1.61152
1.62886
1.64445
1.6582
1.66985
1.67933
1.68664
1.6919
1.69459
1.69555
1.69554
1.69467
1.69361
1.6928
1.69539
1.70668
1.70725
1.76542
1.99436
1.13369
4.71578
0.34176
0.339378
0.343892
0.34602
0.348286
0.350666
0.353182
0.355831
0.358615
0.361561
0.364678
0.367958
0.371406
0.375038
0.378874
0.382914
0.387161
0.391627
0.39633
0.401287
0.406484
0.41194
0.417678
0.4237
0.430014
0.436625
0.443548
0.450787
0.458359
0.466261
0.4745
0.483095
0.492034
0.501332
0.510978
0.520974
0.531321
0.542022
0.553075
0.564454
0.576172
0.588214
0.600549
0.613173
0.626085
0.639255
0.652653
0.66627
0.680057
0.693987
0.708025
0.722116
0.736229
0.750295
0.764264
0.778067
0.791649
0.804923
0.817805
0.830248
0.842113
0.853306
0.863699
0.873192
0.881719
0.889118
0.895364
0.900477
0.904554
0.906967
0.908779
0.91054
0.912389
0.914521
0.916245
0.919296
0.926403
0.912468
0.950756
1.13792
0.368168
3.23058
0.302962
0.302928
0.30297
0.302936
0.30289
0.302822
0.302739
0.30264
0.302511
0.30236
0.302185
0.30198
0.30174
0.301463
0.301151
0.300797
0.300399
0.299951
0.299452
0.298905
0.298296
0.297627
0.296903
0.296112
0.295254
0.29433
0.293342
0.292285
0.291168
0.289985
0.288743
0.287452
0.286113
0.284735
0.283321
0.281888
0.280447
0.279007
0.277582
0.276184
0.274841
0.273556
0.272338
0.271207
0.270184
0.269271
0.268484
0.267839
0.267334
0.266982
0.266783
0.266748
0.266877
0.267148
0.267548
0.268037
0.268583
0.269133
0.269653
0.270132
0.270514
0.270793
0.270958
0.271018
0.270988
0.270865
0.270749
0.270601
0.27056
0.27189
0.27115
0.269086
0.265954
0.262497
0.259621
0.261184
0.271824
0.275228
0.309421
0.409827
0.00586149
1.35224
)
;

boundaryField
{
    inlet
    {
        type            freestreamPressure;
        freestreamValue uniform 0;
        value           nonuniform List<scalar> 
23
(
7.31515
7.17164
7.0264
6.88057
6.73123
6.57671
6.41626
6.24894
6.0729
5.88531
5.6825
5.4576
5.20555
4.89674
4.69827
4.50376
4.25756
3.96478
3.62471
3.2036
2.66449
1.82619
0.764987
)
;
    }
    outlet
    {
        type            freestreamPressure;
        freestreamValue uniform 0;
        value           nonuniform List<scalar> 
82
(
0.000904698
0.000904789
0.000904526
0.00090476
0.000904702
0.000904585
0.000904431
0.000904232
0.000903952
0.000903612
0.000903209
0.000902723
0.000902144
0.000901463
0.000900688
0.0008998
0.000898788
0.000897642
0.000896359
0.000894945
0.000893359
0.000891612
0.000889718
0.000887644
0.000885386
0.000882955
0.000880353
0.00087757
0.000874632
0.000871527
0.00086827
0.0008649
0.000861418
0.000857857
0.000854223
0.000850572
0.000846943
0.000843362
0.000839877
0.000836527
0.000833398
0.00083051
0.000827891
0.000825609
0.000823732
0.000822281
0.000821304
0.000820865
0.000820969
0.000821663
0.000822965
0.000824918
0.000827542
0.000830781
0.000834616
0.000838944
0.00084368
0.000848684
0.000853858
0.0008592
0.000864545
0.00086989
0.000875225
0.000880592
0.000886065
0.000891655
0.000897712
0.000904153
0.000911467
0.000922782
0.000926499
0.000926404
0.000923325
0.000919835
0.000919192
0.000935237
0.000985567
0.00101323
0.00115609
0.00155899
2.34938e-05
0.00500607
)
;
    }
    walls
    {
        type            zeroGradient;
    }
    frontAndBack
    {
        type            empty;
    }
    procBoundary3to2
    {
        type            processor;
        value           nonuniform List<scalar> 
88
(
5.07634
13.2086
7.72046
9.10422
9.10422
8.64938
8.56324
8.56324
9.52398
9.19372
8.89139
8.89139
10.7361
10.433
10.1665
9.88777
9.59693
9.59693
11.9278
11.639
11.3393
11.0305
10.7138
10.7138
12.7603
12.6179
12.4579
12.2805
12.0861
11.8753
11.649
11.649
12.0471
12.1132
12.1689
12.2135
12.246
12.2656
12.2715
12.2629
12.2392
12.1997
12.1438
12.0711
12.0711
7.18444
7.22818
7.2747
7.32309
7.3739
7.42702
7.48261
7.54071
7.60143
7.66483
7.73099
7.79997
7.87183
7.94664
8.02445
8.10529
8.1892
8.27618
8.36625
8.4594
8.55558
8.65475
8.75683
8.86172
8.96929
9.07938
9.1918
9.30632
9.42268
9.54057
9.65964
9.7795
9.89972
10.0198
10.1392
10.2574
10.3736
10.4872
10.5976
10.7038
10.8051
10.9006
10.9006
)
;
    }
    procBoundary3to6
    {
        type            processor;
        value           uniform 7.13812;
    }
    procBoundary3to7
    {
        type            processor;
        value           nonuniform List<scalar> 
16
(
6.33864
5.69504
5.13244
4.6336
4.19737
3.67298
3.13113
2.67224
2.67224
2.24089
1.85251
1.49519
1.12115
0.82083
0.336802
0.302918
)
;
    }
}


// ************************************************************************* //
