/*--------------------------------*- C++ -*----------------------------------*\
| =========                 |                                                 |
| \\      /  F ield         | OpenFOAM: The Open Source CFD Toolbox           |
|  \\    /   O peration     | Version:  2306                                  |
|   \\  /    A nd           | Website:  www.openfoam.com                      |
|    \\/     M anipulation  |                                                 |
\*---------------------------------------------------------------------------*/
FoamFile
{
    version     2.0;
    format      ascii;
    arch        "LSB;label=32;scalar=64";
    class       volScalarField;
    location    "975";
    object      div(phi);
}
// * * * * * * * * * * * * * * * * * * * * * * * * * * * * * * * * * * * * * //

dimensions      [0 0 -1 0 0 0 0];

internalField   nonuniform List<scalar> 
1340
(
-9.39221e-07
1.10698e-06
2.52831e-09
1.88137e-06
-1.96052e-06
-1.06585e-06
1.63753e-07
6.44134e-07
1.09503e-07
3.17366e-07
-9.7335e-07
-2.90625e-07
2.52188e-07
2.11657e-07
1.85501e-07
-1.42442e-07
2.04846e-07
-3.98431e-07
-4.68152e-07
3.82386e-09
1.29077e-07
-5.21368e-08
6.21461e-08
-1.48713e-07
8.39766e-08
-7.72681e-07
-3.19115e-07
-5.69238e-08
-2.542e-08
2.03462e-08
-1.49264e-07
4.6442e-08
-1.48267e-07
-4.90183e-08
-3.94114e-07
-2.79149e-07
-1.30758e-07
-6.01827e-08
-8.85713e-08
3.33644e-08
-1.12124e-07
3.97378e-09
-1.20193e-07
7.29111e-08
2.78439e-07
-2.83828e-07
-1.32538e-07
-9.19192e-08
-3.20759e-08
-1.17121e-07
4.29215e-08
-8.71558e-08
-1.95114e-08
-2.48544e-09
7.66325e-08
-2.27142e-07
-1.49947e-07
-1.01292e-07
-8.91839e-08
2.31322e-08
-7.53402e-08
2.9042e-08
-5.40932e-08
-1.9312e-08
4.43596e-08
1.3111e-07
-2.38103e-07
-1.35668e-07
-1.01943e-07
-4.39596e-08
-9.10077e-08
4.25255e-08
-4.41481e-08
8.22966e-09
-4.64487e-08
-2.01361e-08
4.05895e-08
-1.91338e-07
-1.37148e-07
-1.00704e-07
-7.73983e-08
2.00465e-08
-5.4792e-08
4.91482e-08
-5.11038e-08
-1.54554e-08
-4.67365e-08
6.21026e-08
-2.29663e-07
-1.98955e-07
-1.20832e-07
-8.61173e-08
-4.05633e-08
-6.98298e-08
4.8891e-08
-2.78969e-08
3.64007e-08
-7.63584e-08
-8.26352e-09
-9.55162e-08
1.29208e-07
-1.57931e-07
-1.13532e-07
-8.67887e-08
-6.12836e-08
2.32824e-08
-3.36194e-08
6.33232e-08
-3.63365e-08
2.07198e-09
-4.25984e-08
6.81533e-09
-2.20405e-07
-1.62838e-07
-1.03785e-07
-7.40559e-08
-3.21459e-08
-5.10473e-08
5.36418e-08
-1.49818e-08
5.68026e-08
-5.43747e-08
-1.80165e-08
-6.77716e-08
1.11311e-07
-1.58098e-07
-1.4138e-07
-9.58381e-08
-7.17967e-08
-4.78332e-08
2.5338e-08
-2.38223e-08
7.31888e-08
-2.28454e-08
2.62373e-08
-4.78344e-08
-1.64024e-08
-3.40023e-08
2.57778e-08
-1.45129e-07
-8.45312e-08
-5.71578e-08
-2.48272e-08
-3.79831e-08
5.55973e-08
-3.61152e-09
7.37192e-08
-4.25876e-08
-1.93358e-08
-4.23229e-08
2.46089e-08
3.99208e-08
-2.352e-08
-1.15639e-07
-8.1207e-08
-5.68747e-08
-3.57369e-08
2.58208e-08
-1.20135e-08
7.71692e-08
-7.70761e-09
3.8605e-08
-4.25496e-08
-2.05087e-08
-3.50632e-08
5.96288e-09
1.39249e-08
-1.35732e-07
-6.16383e-08
-4.88749e-08
-1.93349e-08
-2.79864e-08
5.41543e-08
2.15234e-09
8.19923e-08
-3.48381e-08
-2.01977e-08
-3.17217e-08
3.65858e-08
5.04078e-09
-3.23945e-08
-9.22931e-08
-7.80505e-08
-3.63816e-08
-2.82913e-08
2.35167e-08
-9.06033e-09
7.73673e-08
-4.07046e-09
4.76414e-08
-3.31138e-08
-7.40726e-09
-3.71548e-08
-1.60188e-08
6.46333e-08
-3.02735e-07
-2.09756e-07
2.31107e-08
-1.67077e-08
-9.14263e-09
-2.11972e-08
5.08962e-08
5.90684e-09
8.4557e-08
-2.39793e-08
-5.01788e-09
-2.2819e-08
3.95603e-08
5.50172e-08
-2.08714e-07
1.53434e-07
4.20074e-08
-3.9431e-08
2.28326e-08
-7.95153e-09
2.35562e-08
-4.0316e-09
7.38256e-08
1.99428e-09
5.62183e-08
-1.96998e-08
8.62027e-09
-2.60687e-08
-4.18367e-08
1.22619e-07
-4.61854e-07
-2.29442e-07
8.04962e-08
3.60298e-08
6.43601e-09
-1.41286e-08
4.6987e-08
5.68195e-09
8.33402e-08
-1.86301e-08
9.15974e-09
-1.97776e-08
5.09409e-08
6.34425e-08
-1.01767e-07
-8.44911e-08
-4.92899e-07
5.31483e-08
2.78549e-09
1.27364e-08
-5.02185e-09
2.19086e-08
-4.24445e-09
6.91642e-08
6.20688e-10
6.04743e-08
-1.2408e-08
1.62788e-08
-1.62153e-08
1.30338e-08
-5.13556e-08
-6.02393e-08
-4.69273e-07
3.54013e-08
8.0171e-09
2.03198e-09
-1.18505e-08
4.26228e-08
5.73947e-09
7.92201e-08
-1.13959e-08
1.42528e-08
-9.56129e-09
5.67879e-08
6.16604e-08
-1.03178e-07
-1.56241e-07
-1.29526e-08
-4.03985e-07
1.47419e-08
-2.24024e-09
-9.25085e-09
1.81927e-08
-2.59964e-09
6.3063e-08
2.82712e-09
5.91766e-08
-4.86796e-09
1.86105e-08
-9.49679e-09
7.72633e-10
-2.26656e-09
-1.61387e-07
-8.11573e-08
8.39511e-08
-6.64731e-09
-4.01023e-09
-2.51199e-09
-1.12891e-08
3.80251e-08
3.61556e-09
7.34482e-08
-1.12442e-08
1.4824e-08
-1.06878e-08
6.49515e-08
4.19958e-08
-8.24153e-08
-1.83829e-07
1.27282e-07
-2.59183e-07
1.33779e-08
-7.31336e-09
-1.12203e-08
1.52026e-08
-4.20552e-09
5.7127e-08
-5.47343e-10
5.59135e-08
-6.90909e-09
2.17455e-08
-1.03958e-08
1.18242e-08
-1.35475e-07
-7.76252e-10
-1.57308e-07
2.17483e-07
-2.95362e-07
-1.01719e-08
-8.55947e-09
-4.46202e-09
-1.06729e-08
3.36548e-08
2.63159e-09
6.69176e-08
-1.01889e-08
1.44489e-08
-5.90088e-09
7.01815e-08
-3.3262e-08
-6.5845e-08
-1.97448e-07
4.34846e-08
-3.26218e-08
1.43929e-07
8.11355e-09
-1.11162e-08
-1.17758e-08
1.26728e-08
-3.57234e-09
5.07631e-08
-4.25159e-10
5.12547e-08
-4.82535e-09
2.39135e-08
-1.0855e-08
-2.67343e-08
-1.07038e-07
-6.90176e-08
-4.10944e-08
1.79742e-07
-2.45112e-07
-1.71462e-08
-1.05222e-08
-5.208e-09
-1.01438e-08
2.95222e-08
2.58967e-10
6.01533e-08
-1.21291e-08
1.36561e-08
-2.52392e-09
5.89969e-08
-1.06957e-08
-1.1453e-07
-6.54935e-08
4.00591e-08
-2.26958e-09
2.17796e-07
-2.98942e-07
4.1989e-09
-1.07944e-08
-1.11717e-08
1.08667e-08
-5.09152e-09
4.49162e-08
-3.79523e-09
4.65353e-08
-5.4713e-09
2.51385e-08
-7.52823e-09
-2.6559e-08
-6.397e-08
-6.01022e-08
1.39242e-08
1.07655e-07
-3.50295e-09
7.61878e-08
-1.52629e-08
-1.02769e-08
-4.95332e-09
-9.35246e-09
2.57124e-08
-7.90714e-10
5.33166e-08
-1.09883e-08
1.32239e-08
5.50044e-10
5.67015e-08
-3.5219e-10
-8.36409e-08
-4.31386e-08
6.90802e-08
1.08322e-08
2.47496e-07
-2.26379e-07
2.24597e-09
-1.09032e-08
-1.01984e-08
9.26212e-09
-4.6659e-09
3.9062e-08
-3.81022e-09
4.17141e-08
-3.62563e-09
2.39665e-08
-3.26017e-09
-1.29767e-08
-3.74448e-08
-3.06023e-08
2.80031e-08
1.89224e-07
6.74296e-09
1.9008e-07
-2.21191e-07
-1.66753e-08
-9.44309e-09
-4.45234e-09
-8.68879e-09
2.22393e-08
-2.74288e-09
4.68495e-08
-1.21232e-08
1.20326e-08
3.91826e-10
5.45483e-08
8.25694e-09
-5.73237e-08
-2.00446e-08
6.99595e-08
6.14161e-08
1.8064e-07
-3.10697e-08
1.07622e-07
1.55031e-09
-8.96347e-09
-8.9382e-09
8.04432e-09
-5.7623e-09
3.39285e-08
-6.33282e-09
3.7022e-08
-4.38539e-09
2.18692e-08
-2.10524e-09
-6.67289e-09
-2.72997e-08
-2.643e-08
1.60605e-08
1.78791e-07
-1.08046e-08
2.41548e-07
-2.75578e-07
-1.29002e-08
-8.02801e-09
-3.69949e-09
-7.84087e-09
1.91081e-08
-3.40587e-09
4.07316e-08
-1.09983e-08
1.08909e-08
9.18266e-10
4.90925e-08
7.1546e-09
-5.527e-08
-2.67795e-08
4.37224e-08
2.71811e-08
2.30775e-07
-5.26284e-08
1.69596e-07
-2.14774e-07
1.70836e-09
-8.16753e-09
-7.75022e-09
6.8711e-09
-5.27456e-09
2.90668e-08
-6.07682e-09
3.24454e-08
-3.42616e-09
1.91968e-08
-3.37093e-09
-9.11267e-09
-3.03234e-08
-3.60411e-08
-3.52439e-09
1.35248e-07
5.81739e-09
1.45841e-07
-4.59533e-08
7.14623e-08
-1.26685e-08
-6.75405e-09
-3.04624e-09
-7.17945e-09
1.63485e-08
-4.66632e-09
3.52374e-08
-1.17826e-08
9.18278e-09
-6.26459e-10
4.14919e-08
3.30391e-09
-5.5721e-08
-3.31658e-08
2.51939e-08
-2.15574e-09
2.07197e-07
-5.26979e-08
1.73877e-07
-3.11517e-08
1.88047e-09
-6.23795e-09
-6.58059e-09
5.97659e-09
-5.90525e-09
2.49567e-08
-7.73287e-09
2.8146e-08
-4.59119e-09
1.58524e-08
-5.68273e-09
-1.20852e-08
-3.13138e-08
-3.83331e-08
-1.56821e-08
1.07127e-07
-1.79824e-08
1.81851e-07
1.74385e-08
1.14458e-07
-6.66196e-08
-9.1822e-09
-5.41931e-09
-2.3579e-09
-6.3893e-09
1.39423e-08
-4.83534e-09
3.02153e-08
-1.08305e-08
7.49227e-09
-1.47638e-09
3.42975e-08
1.38157e-10
-5.26169e-08
-3.37164e-08
1.72298e-08
-1.33778e-08
1.70425e-07
-2.54896e-08
1.20075e-07
-5.66439e-08
6.56547e-08
2.2664e-09
-5.49531e-09
-5.55058e-09
5.13881e-09
-5.2427e-09
2.11713e-08
-7.1438e-09
2.40811e-08
-4.35496e-09
1.26358e-08
-7.91914e-09
-1.35398e-08
-2.91503e-08
-3.54238e-08
-2.08224e-08
8.96459e-08
-2.01066e-08
1.57274e-07
-3.87877e-08
1.81283e-08
-1.93837e-08
-8.7954e-09
-4.34304e-09
-1.80664e-09
-5.70228e-09
1.18579e-08
-5.37673e-09
2.57846e-08
-1.12943e-08
5.60123e-09
-3.49847e-09
2.76425e-08
-1.6527e-09
-4.73683e-08
-3.17881e-08
1.43333e-08
-1.35377e-08
1.30633e-07
-2.86753e-08
-3.65516e-08
-6.1053e-09
-1.12028e-07
2.42607e-09
-3.95603e-09
-4.57964e-09
4.48759e-09
-5.41253e-09
1.79812e-08
-8.04193e-09
2.0392e-08
-5.48382e-09
9.59366e-09
-9.58422e-09
-1.44468e-08
-2.61386e-08
-2.87604e-08
-2.05841e-08
7.1102e-08
-1.60539e-08
-2.01973e-08
-3.47488e-08
-6.66435e-08
2.61233e-08
-6.44803e-08
-6.02905e-09
-3.29467e-09
-1.27753e-09
-4.94558e-09
1.00183e-08
-5.14951e-09
2.17631e-08
-1.03296e-08
4.1332e-09
-4.16104e-09
2.17851e-08
-2.2628e-09
-3.89785e-08
-2.67536e-08
1.58351e-08
-3.87057e-09
-4.77271e-09
-2.77487e-08
2.00326e-08
-2.48649e-08
8.28849e-08
-3.98069e-08
2.70689e-09
-3.40459e-09
-3.7612e-09
3.82008e-09
-4.63114e-09
1.50243e-08
-7.2006e-09
1.70778e-08
-5.10981e-09
7.09018e-09
-1.03077e-08
-1.26078e-08
-1.92539e-08
-2.11464e-08
-7.5735e-09
-1.49797e-08
1.22568e-09
3.7008e-08
-6.29371e-09
1.17324e-07
-1.76393e-08
7.2977e-08
-5.69558e-09
-2.50613e-09
-8.77411e-10
-4.26144e-09
8.36607e-09
-5.19692e-09
1.82301e-08
-1.02679e-08
2.8041e-09
-5.25097e-09
1.75586e-08
-9.01547e-10
-3.0603e-08
-1.33499e-08
-1.13689e-08
5.12694e-09
3.69073e-08
-5.74498e-09
1.58666e-07
-2.14343e-08
1.32698e-07
-1.12429e-07
2.74086e-09
-2.24166e-09
-3.0213e-09
3.24485e-09
-4.54138e-09
1.24844e-08
-7.53419e-09
1.4179e-08
-5.58937e-09
5.16714e-09
-1.04375e-08
-9.48137e-09
-1.17314e-08
-1.1076e-08
-7.05119e-09
1.27469e-08
8.14139e-10
9.71241e-08
-1.41252e-08
1.45317e-07
-3.51692e-08
9.08538e-08
-1.1566e-07
-3.58031e-09
-1.76412e-09
-5.40477e-10
-3.63271e-09
6.86104e-09
-4.82724e-09
1.50462e-08
-9.15993e-09
1.96064e-09
-5.09806e-09
1.46011e-08
2.2603e-10
-2.19403e-08
-6.09493e-09
-5.33097e-09
1.17791e-08
4.54786e-08
7.41661e-10
1.34673e-07
-2.59906e-08
6.76857e-08
-2.85903e-08
1.3327e-08
2.86503e-09
-1.88961e-09
-2.44737e-09
2.62243e-09
-3.84303e-09
1.01261e-08
-6.59935e-09
1.16708e-08
-4.8349e-09
4.00023e-09
-9.63956e-09
-7.57828e-09
-8.06915e-09
-8.78162e-09
-6.99811e-09
8.47756e-09
-2.99176e-09
7.91863e-08
-2.62466e-08
1.17368e-07
-3.8244e-08
3.72427e-08
-6.59577e-08
-3.35937e-09
-1.25646e-09
-3.36419e-10
-3.06217e-09
5.49375e-09
-4.62332e-09
1.22832e-08
-8.70267e-09
1.35335e-09
-5.0116e-09
1.22278e-08
2.26004e-10
-1.87456e-08
-6.3309e-09
-8.17968e-09
4.67588e-09
3.48118e-08
-9.04693e-09
1.0949e-07
-3.49311e-08
5.58263e-08
-3.6019e-08
3.51217e-08
2.78879e-09
-1.09071e-09
-1.93956e-09
2.07994e-09
-3.61541e-09
8.10378e-09
-6.55853e-09
9.54545e-09
-4.73261e-09
3.25691e-09
-8.68788e-09
-5.94793e-09
-5.90978e-09
-5.98063e-09
-4.71745e-09
9.37674e-09
-2.47016e-09
6.78402e-08
-2.68859e-08
9.97516e-08
-4.06705e-08
7.14761e-08
-7.98898e-08
-1.80578e-09
-7.74125e-10
-1.3985e-10
-2.51908e-09
4.26271e-09
-4.1626e-09
9.80414e-09
-7.56989e-09
1.08677e-09
-4.18111e-09
1.08432e-08
1.28319e-09
-1.32297e-08
-1.96434e-09
-2.18666e-09
9.44144e-09
3.37964e-08
-3.00087e-09
9.19698e-08
-3.38587e-08
8.06114e-08
-3.64926e-08
5.13995e-08
-8.28705e-08
2.77087e-09
-8.54489e-10
-1.51496e-09
1.53645e-09
-2.96195e-09
6.23497e-09
-5.58118e-09
7.69513e-09
-3.76605e-09
2.95485e-09
-7.0475e-09
-4.0737e-09
-3.1618e-09
-3.82732e-09
-3.25037e-09
7.61893e-09
-3.09396e-09
5.42491e-08
-2.36203e-08
8.36693e-08
-3.56877e-08
3.40489e-08
-2.78991e-08
4.71642e-09
-1.59376e-09
-4.10117e-10
-3.20528e-12
-1.95826e-09
3.15892e-09
-3.70703e-09
7.61003e-09
-6.89833e-09
8.82062e-10
-3.18715e-09
9.60821e-09
1.49067e-09
-1.13228e-08
-2.57967e-09
-4.53143e-09
3.97214e-09
2.49029e-08
-8.37194e-09
7.52269e-08
-3.41441e-08
6.65648e-08
-3.67414e-08
1.4328e-08
-5.18421e-08
2.66463e-09
-2.59911e-10
-1.07996e-09
1.07716e-09
-2.49173e-09
4.64681e-09
-5.28693e-09
6.11489e-09
-3.30373e-09
2.87414e-09
-5.89405e-09
-3.39254e-09
-2.42361e-09
-3.21617e-09
-2.90655e-09
6.65192e-09
-3.81973e-09
4.6261e-08
-2.23671e-08
7.0215e-08
-3.47452e-08
2.2827e-08
-3.32499e-08
-4.98059e-10
-3.88308e-10
-2.03589e-11
1.82184e-10
-1.35424e-09
2.21207e-09
-3.13228e-09
5.69582e-09
-5.96547e-09
1.27557e-09
-2.28119e-09
8.19506e-09
1.97301e-09
-8.6562e-09
-8.37583e-10
-1.70419e-09
6.08474e-09
2.31871e-08
-4.79609e-09
6.39561e-08
-2.90158e-08
4.90733e-08
-3.56687e-08
-1.90648e-10
-4.31484e-08
2.56772e-09
-8.98611e-11
-6.2314e-10
8.38792e-10
-1.83285e-09
3.54872e-09
-4.24851e-09
5.13634e-09
-2.00136e-09
2.91448e-09
-4.64598e-09
-3.10832e-09
-2.13743e-09
-9.34111e-10
-3.12779e-09
5.05957e-09
-5.31692e-09
3.66801e-08
-2.0796e-08
4.95647e-08
-3.31829e-08
-1.12e-08
-2.83409e-08
-2.62072e-08
1.3539e-10
5.53888e-10
4.79426e-10
-8.14988e-10
2.08876e-09
-2.51515e-09
4.8976e-09
-4.78456e-09
7.789e-10
-2.30904e-09
5.96661e-09
-6.34452e-10
-2.54408e-09
-6.07435e-09
-3.68007e-12
-1.89619e-09
1.84066e-08
-1.07364e-08
4.22974e-08
-2.85426e-08
-8.61147e-09
-3.37127e-08
-1.98804e-08
-1.49374e-08
-1.60254e-08
2.24363e-09
1.76755e-10
-7.14221e-11
1.21277e-09
-1.39873e-09
3.60075e-09
-3.9042e-09
3.74896e-09
-1.56415e-09
1.93708e-09
-5.64857e-09
1.26701e-09
-7.66071e-09
5.37199e-09
-1.13785e-08
9.49205e-09
-1.39342e-08
1.96056e-08
-2.61484e-08
-9.60261e-09
-3.25162e-08
-8.80776e-10
-2.15337e-08
1.86753e-08
-2.06196e-08
1.04259e-09
1.09487e-09
8.48926e-10
-5.37496e-10
2.79979e-09
-2.2584e-09
4.14928e-09
-3.3214e-09
1.18964e-10
-2.77593e-09
4.96296e-09
-2.10278e-09
5.03113e-10
-7.25231e-09
-1.58557e-09
-3.70026e-09
2.48355e-09
-8.00757e-09
-7.34384e-09
-1.80393e-08
4.76955e-09
-1.85636e-08
3.4997e-08
-1.28713e-08
1.48748e-08
2.47821e-09
5.87043e-10
3.6035e-10
1.7841e-09
-1.1742e-09
3.35822e-09
-3.18901e-09
1.96851e-09
-1.72026e-09
1.05947e-09
-5.14823e-09
1.03214e-09
-3.62284e-09
-4.08911e-09
-2.53851e-09
-2.88926e-09
1.8291e-09
-1.10047e-09
-1.63276e-09
6.88972e-09
-1.09065e-08
3.82082e-08
-1.11654e-08
1.78193e-08
-1.70778e-08
9.26304e-10
1.13552e-09
9.78871e-10
-3.99415e-10
2.3649e-09
-1.88423e-09
2.72877e-09
-2.71714e-09
-1.90822e-10
-2.94987e-09
3.35698e-09
-1.16429e-09
-5.23895e-09
-3.72349e-09
-6.1037e-09
-1.70872e-11
-1.53407e-09
1.18664e-09
9.02771e-10
-3.75994e-09
2.84737e-08
-9.10446e-09
3.01272e-08
-9.25551e-09
1.26159e-08
2.71455e-09
9.56949e-10
4.54164e-10
1.45988e-09
-1.03819e-09
2.19723e-09
-2.69553e-09
1.06928e-09
-2.11106e-09
5.67173e-10
-3.59144e-09
-3.19368e-09
-1.24581e-09
-9.85499e-09
1.87128e-09
-9.30806e-09
6.02781e-09
-7.81002e-09
5.57624e-09
1.87459e-08
-3.83801e-09
3.97988e-08
-8.68212e-09
1.38525e-08
-1.63908e-08
1.30291e-09
1.21409e-09
9.40851e-10
-4.19341e-10
1.46536e-09
-1.76005e-09
1.54993e-09
-2.42757e-09
-4.06114e-10
-2.45542e-09
1.49903e-09
-1.05887e-09
-6.02608e-09
-3.2221e-09
-4.29486e-09
-8.05482e-10
-4.04404e-09
-2.51801e-10
8.72937e-09
-5.37389e-09
3.3485e-08
-1.06751e-08
1.98274e-08
-9.11291e-09
8.13882e-09
2.71569e-09
1.11068e-09
3.08272e-10
8.94567e-10
-1.15046e-09
1.10657e-09
-2.29689e-09
5.35646e-10
-2.02624e-09
3.40792e-10
-2.76017e-09
-2.52836e-09
-3.24063e-09
-2.84156e-09
-3.57168e-09
-1.28454e-09
-4.11863e-09
-1.67315e-10
-7.69258e-09
1.76214e-08
-1.27607e-08
2.57748e-08
-1.02734e-08
5.62125e-09
-1.38508e-08
1.47348e-09
1.08106e-09
7.27894e-10
-6.56189e-10
6.49486e-10
-1.68805e-09
7.46901e-10
-1.96769e-09
-4.18094e-10
-1.78536e-09
1.25642e-09
-3.12995e-09
-3.12603e-09
-3.69653e-09
-2.59427e-09
-2.0717e-09
-3.22339e-09
-1.93718e-09
8.75452e-09
-8.23986e-09
2.21244e-08
-1.27535e-08
5.3374e-10
-8.96413e-09
-5.87265e-09
2.77233e-09
1.18075e-09
-1.45305e-10
5.79273e-10
-1.17144e-09
3.69148e-10
-1.79099e-09
2.29636e-10
-1.5654e-09
5.42306e-10
-3.64499e-09
-1.06567e-09
-5.29421e-09
-9.53931e-12
-5.57681e-09
2.03598e-09
-6.26926e-09
3.93249e-09
-9.88478e-09
1.02756e-08
-1.48368e-08
-1.8046e-09
-1.24712e-08
-4.95672e-09
-4.17121e-09
-3.62122e-09
1.57818e-09
5.84292e-10
6.66412e-10
-7.52319e-10
1.8134e-10
-1.17422e-09
1.3465e-10
-1.28008e-09
-3.82447e-10
-1.67682e-09
7.07174e-10
-3.33314e-09
-2.04602e-09
-2.53965e-09
-5.02216e-10
-2.35214e-09
9.59102e-10
-4.23441e-09
2.02776e-09
-9.86838e-09
-4.74396e-09
-1.2083e-08
2.44094e-09
-6.81528e-09
8.02256e-09
-8.73475e-09
9.82653e-10
1.79997e-09
-1.35231e-09
1.22345e-09
-5.2776e-10
-2.58805e-10
-9.62984e-10
-1.96593e-10
-1.18529e-09
1.45744e-10
-2.71902e-09
-1.78015e-09
-1.77751e-09
-1.88758e-09
-4.73792e-10
-2.38261e-09
3.08388e-10
-3.65131e-09
-4.12022e-10
-3.688e-09
-3.53599e-09
4.27378e-09
-8.01383e-09
6.34558e-09
-8.12638e-09
3.12576e-09
3.47269e-09
-1.10106e-09
1.41471e-09
-1.31604e-11
4.01067e-10
-5.34452e-10
-5.29718e-10
-9.05557e-10
-1.07719e-09
-1.81371e-09
-1.06606e-09
-2.26389e-09
-1.8328e-09
-1.77338e-09
-9.5518e-10
-2.09763e-09
-7.5211e-10
-3.50017e-09
-1.36007e-09
-4.75314e-09
-1.85459e-09
-9.33874e-09
5.80362e-09
-9.01278e-09
2.94575e-09
-1.2735e-08
-4.87309e-10
8.98185e-10
4.087e-10
6.7711e-10
1.30508e-10
-4.50922e-10
-7.73427e-10
-7.21678e-10
-9.10748e-10
-8.04942e-10
-1.572e-09
-2.14002e-09
-9.99697e-10
-2.2747e-09
-3.61345e-10
-3.26624e-09
-7.99711e-10
-5.1126e-09
-2.7132e-09
-5.46604e-09
-4.09063e-09
4.29683e-09
-7.45001e-09
-9.97695e-10
-1.028e-08
-4.28019e-09
9.91432e-10
2.02333e-10
1.9074e-10
9.99578e-11
-1.04748e-10
-1.87946e-10
-1.69266e-10
-1.68071e-10
-1.48689e-10
-3.58644e-10
-5.91246e-10
-4.85425e-10
-8.09117e-10
-3.85404e-10
-1.3644e-09
-7.42546e-10
-2.56088e-09
-1.55621e-09
-3.95016e-09
-3.38618e-09
-1.32977e-09
-5.44702e-09
-3.57585e-09
-7.5396e-09
-6.28355e-09
-9.37298e-09
)
;

boundaryField
{
    inlet
    {
        type            extrapolatedCalculated;
        value           nonuniform List<scalar> 
26
(
9.91432e-10
2.02333e-10
1.9074e-10
9.99578e-11
-1.04748e-10
-1.87946e-10
-1.69266e-10
-1.68071e-10
-1.48689e-10
-3.58644e-10
-5.91246e-10
-4.85425e-10
-8.09117e-10
-3.85404e-10
-1.3644e-09
-7.42546e-10
-2.56088e-09
-1.55621e-09
-3.95016e-09
-3.38618e-09
-1.32977e-09
-5.44702e-09
-3.57585e-09
-7.5396e-09
-6.28355e-09
-9.37298e-09
)
;
    }
    outlet
    {
        type            extrapolatedCalculated;
        value           nonuniform List<scalar> 0();
    }
    walls
    {
        type            extrapolatedCalculated;
        value           nonuniform List<scalar> 0();
    }
    frontAndBack
    {
        type            empty;
    }
    procBoundary0to1
    {
        type            processor;
        value           nonuniform List<scalar> 
94
(
2.69289e-06
1.13971e-06
1.13971e-06
5.90415e-07
5.90415e-07
2.2431e-07
2.2431e-07
1.9857e-07
1.9857e-07
3.65752e-07
3.65752e-07
2.92687e-07
1.54922e-07
1.54922e-07
6.76208e-08
9.30498e-08
9.30498e-08
2.55635e-07
-2.91986e-07
3.34453e-07
3.34453e-07
1.79807e-07
7.64982e-08
7.64982e-08
2.62073e-08
-2.76887e-08
7.206e-09
7.206e-09
4.26969e-09
-7.82169e-07
1.16947e-07
1.16947e-07
-4.06934e-07
1.8827e-07
1.8827e-07
1.36928e-07
-1.77599e-07
4.15962e-07
4.15962e-07
2.52676e-07
-1.78338e-07
3.84088e-07
3.84088e-07
1.58572e-07
-1.58035e-07
2.97861e-07
2.97861e-07
1.62965e-07
-2.04602e-07
2.59295e-07
2.59295e-07
1.08918e-07
8.56177e-08
1.63627e-07
1.63627e-07
8.6821e-08
-1.19262e-08
-2.13062e-08
4.51979e-08
4.51979e-08
4.57583e-09
5.61504e-08
-4.64889e-08
1.37767e-07
1.37767e-07
5.09238e-08
-3.82341e-08
1.75764e-08
-5.02003e-08
7.22273e-08
7.22273e-08
2.65765e-08
-3.97641e-08
-8.16239e-09
-4.25896e-08
-2.12865e-08
-2.45867e-08
-2.45867e-08
-1.90398e-08
1.00247e-08
-1.65605e-08
8.66981e-09
-1.2273e-08
6.08961e-09
-9.96713e-09
-6.86222e-10
-5.47876e-09
-5.47876e-09
-5.03946e-09
4.15354e-09
-8.70792e-09
-2.86446e-09
-1.39928e-08
-1.32412e-08
)
;
    }
    procBoundary0to4
    {
        type            processor;
        value           nonuniform List<scalar> 
72
(
-1.64892e-06
-5.38151e-07
-9.35268e-07
-3.34487e-07
-3.19015e-07
-2.75169e-07
-1.83947e-07
-2.22317e-07
-1.37895e-07
-1.88884e-07
-1.05496e-07
-1.66211e-07
-8.93945e-08
-1.43131e-07
-7.61116e-08
-1.43082e-07
-7.68082e-08
-1.32608e-07
-4.28558e-08
-2.46413e-07
-2.84068e-08
-1.40553e-07
-1.34322e-07
-1.34322e-07
-1.42229e-08
9.40123e-09
-1.43081e-08
1.01455e-08
-1.68546e-08
1.02894e-08
-1.70228e-08
5.58878e-09
-1.74554e-08
6.29079e-09
-1.51315e-08
4.20094e-09
-1.39721e-08
5.61724e-09
-1.12997e-08
4.33974e-09
-1.00345e-08
5.47942e-09
-7.79648e-09
4.43395e-09
-6.71319e-09
5.20175e-09
-4.95507e-09
4.27723e-09
-4.0805e-09
4.73339e-09
-2.77907e-09
3.90609e-09
-2.04886e-09
4.13544e-09
-9.84676e-10
3.56141e-09
-4.45205e-10
3.95313e-09
-7.68993e-11
4.53743e-09
-9.58994e-11
4.00272e-09
5.23937e-10
3.33766e-09
1.20385e-09
3.16806e-09
1.50048e-09
2.65204e-09
2.03425e-09
3.40341e-10
2.88948e-09
5.70143e-10
)
;
    }
    procBoundary0to5
    {
        type            processor;
        value           nonuniform List<scalar> 4(-2.13983e-07 -1.91836e-07 1.70597e-06 -1.43159e-06);
    }
}


// ************************************************************************* //
