/*--------------------------------*- C++ -*----------------------------------*\
| =========                 |                                                 |
| \\      /  F ield         | OpenFOAM: The Open Source CFD Toolbox           |
|  \\    /   O peration     | Version:  2306                                  |
|   \\  /    A nd           | Website:  www.openfoam.com                      |
|    \\/     M anipulation  |                                                 |
\*---------------------------------------------------------------------------*/
FoamFile
{
    version     2.0;
    format      ascii;
    arch        "LSB;label=32;scalar=64";
    class       volScalarField;
    location    "800";
    object      div(phi);
}
// * * * * * * * * * * * * * * * * * * * * * * * * * * * * * * * * * * * * * //

dimensions      [0 0 -1 0 0 0 0];

internalField   nonuniform List<scalar> 
1340
(
3.00762e-05
7.66839e-05
-2.13405e-05
5.37242e-05
1.21349e-05
7.11662e-05
5.40795e-05
8.43816e-05
1.94068e-05
2.51896e-05
-4.1672e-05
9.655e-06
7.99472e-06
4.71274e-05
3.56306e-05
6.4294e-05
1.99324e-05
1.69557e-05
-4.52419e-05
1.35461e-07
9.17706e-06
3.9476e-05
2.44446e-05
4.99814e-05
2.24065e-05
1.55221e-05
-4.87277e-05
-7.42703e-07
1.09341e-05
3.59774e-05
1.59823e-05
3.82493e-05
2.16789e-05
1.28153e-05
-5.08642e-05
-1.1612e-06
1.08917e-05
2.87492e-05
9.95981e-06
2.89165e-05
1.83089e-05
1.09315e-05
-4.91518e-05
6.4583e-07
1.01845e-05
2.15384e-05
5.60964e-06
2.12622e-05
1.48623e-05
9.10308e-06
-4.42058e-05
1.26365e-06
9.27385e-06
1.52619e-05
2.73094e-06
1.53296e-05
1.15746e-05
9.29914e-06
-3.94493e-05
2.4653e-06
7.95545e-06
1.07126e-05
8.69324e-07
1.15454e-05
8.79287e-06
8.85443e-06
-3.4041e-05
2.87992e-06
6.30604e-06
6.71029e-06
-2.28517e-07
8.71586e-06
6.44675e-06
8.87522e-06
-2.94986e-05
3.17254e-06
4.61151e-06
3.71383e-06
-1.07222e-06
6.78292e-06
4.80004e-06
8.64647e-06
-2.42386e-05
3.14584e-06
3.29455e-06
1.66019e-06
-1.63346e-06
5.19248e-06
3.83338e-06
7.00076e-06
-2.0133e-05
3.22157e-06
2.28001e-06
4.73616e-07
-1.94266e-06
4.04848e-06
2.62657e-06
4.70255e-06
-1.50652e-05
3.03184e-06
1.73191e-06
1.17321e-07
-1.64901e-06
3.14535e-06
1.85059e-06
2.57893e-06
-1.11841e-05
2.88336e-06
1.29977e-06
2.14154e-07
-1.14257e-06
2.46126e-06
1.26415e-06
8.01053e-07
-7.54688e-06
2.56731e-06
1.63928e-06
3.49631e-07
-4.09455e-07
1.83416e-06
8.69193e-08
-8.1808e-08
-4.56636e-06
1.8568e-06
1.46399e-06
4.9166e-07
1.07864e-07
1.33716e-06
-1.48632e-07
-3.39359e-07
-2.54267e-06
1.15514e-06
-2.94458e-06
9.7563e-07
4.73274e-07
3.9416e-07
9.21934e-07
1.63041e-06
-4.75401e-08
-3.07058e-07
-1.33461e-06
6.41961e-07
-1.08019e-06
6.51502e-07
4.20364e-07
4.60887e-07
6.28569e-07
1.2876e-06
-3.41002e-08
-2.39105e-07
-5.95141e-07
2.41425e-07
-9.44119e-07
4.07342e-07
3.38679e-07
4.0209e-07
4.2547e-07
1.08812e-06
-4.52111e-08
-1.2432e-07
-2.85064e-07
7.38645e-08
-8.31224e-07
2.44042e-07
2.43652e-07
2.99301e-07
2.90212e-07
9.05818e-07
-3.53711e-08
-6.18662e-08
-1.46134e-07
1.06024e-08
-4.20946e-07
1.64191e-07
1.5999e-07
2.04902e-07
1.98678e-07
3.4825e-07
-6.47751e-08
-2.53066e-08
-7.89663e-08
-3.29842e-09
-3.04765e-07
9.19422e-08
9.19321e-08
1.41901e-07
1.31065e-07
1.95605e-07
-2.52229e-08
8.32203e-09
-3.13187e-08
-2.44124e-09
-3.00289e-07
-2.27524e-07
7.37529e-08
6.68585e-08
9.37489e-08
9.80901e-08
5.81047e-08
2.24984e-07
1.52288e-08
3.38431e-08
4.9669e-09
-6.25153e-10
-4.12361e-08
-1.35478e-07
7.06848e-08
5.25963e-08
6.77104e-08
7.16209e-08
6.04741e-08
1.83408e-07
3.37006e-08
4.98369e-08
1.78588e-08
1.0513e-08
1.63299e-08
-7.75346e-08
6.3169e-08
3.72273e-08
5.10536e-08
5.19896e-08
-9.65983e-09
1.24603e-07
2.75406e-08
4.99824e-08
2.95982e-08
1.20461e-08
-1.18258e-08
-5.30213e-08
4.68654e-08
3.13412e-08
3.81016e-08
4.41219e-08
-1.2906e-08
6.50616e-08
1.96913e-08
4.24628e-08
3.84404e-08
1.46436e-08
1.89415e-08
-3.45144e-08
-5.58297e-09
1.56544e-08
2.292e-08
4.25538e-08
-3.80232e-08
-5.70988e-08
-4.72271e-08
-1.28374e-09
8.76337e-09
4.63324e-08
2.48682e-08
-2.47613e-08
-4.71839e-08
-1.16867e-08
-3.23656e-08
1.07809e-08
1.53044e-08
5.32802e-08
4.12342e-08
2.51594e-09
-4.04252e-08
4.72437e-09
1.76958e-09
3.95651e-08
2.59606e-08
-4.67736e-09
-1.28989e-08
1.77344e-08
-1.55533e-08
3.56033e-09
-8.63643e-09
3.93501e-08
3.80083e-08
2.04805e-08
-1.7855e-08
-3.26402e-09
-3.07831e-08
1.67962e-08
-4.76322e-09
5.65911e-09
-2.1808e-09
1.24078e-08
-2.80649e-08
1.11357e-08
-2.51208e-08
2.77417e-08
1.57605e-08
2.22989e-08
-2.871e-09
2.3316e-08
-1.42076e-08
2.45544e-08
8.44146e-09
2.15507e-08
1.72614e-08
1.46069e-08
2.71576e-08
-2.45308e-09
2.65868e-08
6.93478e-09
1.92759e-08
2.34346e-08
1.50028e-08
1.77793e-08
7.19542e-09
2.07514e-08
1.27692e-09
1.86722e-08
1.99346e-09
1.01786e-08
1.08754e-08
1.17451e-08
1.31465e-08
8.89028e-09
1.16178e-08
9.78536e-09
1.59237e-08
2.32245e-08
5.79279e-09
8.76271e-09
1.02103e-08
9.17244e-09
1.01581e-08
1.0538e-08
1.3841e-08
-1.56013e-08
2.346e-09
3.31047e-09
6.39128e-09
5.01103e-09
1.64777e-08
8.06306e-09
1.11126e-08
7.39768e-09
-1.6223e-09
4.81144e-09
1.36962e-09
2.41884e-08
6.5186e-09
1.53896e-08
1.28438e-08
-1.24828e-08
5.07936e-09
-5.30301e-11
2.64508e-08
-1.52769e-09
2.82425e-08
4.02066e-09
8.71831e-09
-6.63758e-09
3.6106e-09
1.35798e-09
1.3205e-08
-2.58374e-09
1.86294e-08
-2.91092e-09
8.71559e-09
-1.78939e-09
1.58465e-09
1.90336e-09
5.80265e-09
8.55313e-10
8.43453e-09
-1.83216e-09
5.78143e-09
1.19195e-09
1.0358e-08
4.61021e-09
4.41241e-09
4.03378e-09
5.31208e-09
4.30677e-09
5.44727e-09
4.90349e-09
7.4521e-09
6.48985e-09
1.18193e-09
1.83036e-09
4.28827e-09
5.47205e-09
5.4851e-09
6.42886e-09
6.52455e-09
6.98616e-09
5.54247e-09
6.28046e-10
1.81809e-09
1.40316e-09
3.17029e-09
4.65133e-09
4.80975e-09
4.10226e-09
5.10262e-09
3.39124e-09
-4.05678e-09
-1.19952e-09
-3.0963e-10
1.10737e-09
7.05203e-10
1.79679e-09
1.80935e-09
1.60092e-09
5.35207e-10
-7.71291e-10
-4.25174e-09
-3.63483e-09
-2.41506e-09
-1.63337e-09
-1.26244e-09
-2.23064e-09
-3.94607e-10
-1.79129e-09
-2.19706e-08
-6.82975e-09
-5.83245e-09
-4.66696e-09
-4.98593e-09
-4.40554e-09
-3.91107e-09
-3.16276e-09
-4.09737e-09
-1.31499e-08
-6.29113e-09
-6.47147e-09
-5.60698e-09
-6.36542e-09
-4.84772e-09
-6.3879e-09
-3.3846e-09
-3.6846e-09
-1.18598e-08
-5.76229e-09
-5.98033e-09
-5.89388e-09
-6.2726e-09
-6.76192e-09
-7.35152e-09
-6.41809e-09
-5.50743e-09
-6.11652e-09
-9.87268e-09
-6.50481e-09
-5.92355e-09
-6.66318e-09
-7.06294e-09
-7.03657e-09
-6.94132e-09
-5.76124e-09
-4.70538e-09
-4.63024e-09
-1.10518e-08
-4.83426e-09
-5.15339e-09
-4.45763e-09
-4.64428e-09
-4.00862e-09
-3.80728e-09
-2.7994e-09
-2.6433e-09
-2.11966e-09
0.000149051
-8.17729e-05
3.6511e-05
-4.70041e-05
3.46135e-05
-1.99993e-05
2.54479e-05
-3.00961e-06
2.07755e-05
7.78639e-06
1.50212e-05
1.13859e-05
8.90672e-06
1.06885e-05
4.85006e-06
8.83114e-06
2.2995e-06
6.86817e-06
1.62088e-06
4.79678e-06
1.00699e-06
2.95854e-06
9.75205e-07
1.59723e-06
1.22588e-06
7.91601e-07
1.36836e-06
5.04631e-07
1.39399e-06
5.51895e-07
1.35137e-06
5.661e-07
1.06352e-06
5.64424e-07
6.66717e-07
4.85364e-07
4.13097e-07
3.79037e-07
2.23922e-07
2.77948e-07
1.26785e-07
1.89626e-07
7.95097e-08
1.29883e-07
5.71459e-08
7.61295e-08
5.16288e-08
4.93863e-08
3.3141e-08
3.75824e-08
2.12632e-08
3.06916e-08
-1.1882e-08
2.90692e-08
1.91337e-09
4.30561e-08
3.7054e-08
3.87633e-08
4.26254e-08
-9.97786e-09
2.75454e-08
1.54886e-08
3.5353e-08
1.48525e-08
1.5157e-08
9.76606e-09
-7.31002e-10
6.42674e-09
1.52748e-08
1.84708e-09
1.36738e-08
1.16423e-08
1.00873e-08
1.95037e-09
2.44983e-09
-2.77694e-09
-7.14473e-09
-9.12088e-09
-1.00359e-08
-6.08194e-09
6.70933e-05
-4.93098e-05
1.91085e-05
-3.77055e-05
2.13586e-05
-2.58356e-05
1.76134e-05
-1.54847e-05
1.61446e-05
-7.82834e-06
1.28393e-05
-3.03666e-06
9.41257e-06
-4.01942e-07
5.35185e-06
6.41986e-07
2.85641e-06
8.98967e-07
1.09916e-06
8.52064e-07
3.36299e-07
6.89435e-07
1.76063e-07
4.80504e-07
9.91214e-08
2.99596e-07
2.69472e-07
1.6146e-07
4.03641e-07
4.17218e-08
3.42001e-07
8.19643e-08
2.84339e-07
1.443e-07
2.59132e-07
2.14122e-07
1.84892e-07
2.41109e-07
1.51108e-07
2.1615e-07
1.14467e-07
1.66197e-07
8.67467e-08
1.0664e-07
6.79202e-08
7.4248e-08
4.6976e-08
4.4934e-08
4.06268e-08
2.42241e-08
2.72617e-08
2.90786e-09
1.57318e-08
-1.97465e-08
1.80485e-08
-6.41374e-09
2.67838e-08
1.68103e-08
2.99253e-09
4.51834e-08
1.09503e-08
2.38399e-08
6.57749e-10
2.43222e-08
1.83954e-08
1.29001e-08
1.61274e-08
5.79716e-09
-3.5231e-09
1.86049e-08
7.4281e-09
6.34212e-09
5.90587e-11
9.36484e-10
-1.63921e-09
-8.23635e-09
-2.08206e-09
-1.29856e-08
-5.12738e-09
1.84141e-05
-3.0718e-05
2.98253e-06
-2.92122e-05
4.88049e-06
-2.57646e-05
5.01492e-06
-2.09253e-05
5.80233e-06
-1.70285e-05
5.57458e-06
-1.3663e-05
6.18181e-06
-9.14545e-06
5.22557e-06
-5.27069e-06
4.28118e-06
-2.57513e-06
3.0734e-06
-1.20067e-06
2.14968e-06
-7.29408e-07
1.15256e-06
-6.96969e-07
7.08313e-07
-7.30107e-07
3.72125e-07
-6.41439e-07
1.92538e-07
-3.59349e-07
2.36584e-07
-1.22787e-07
2.34137e-07
6.03872e-08
1.69608e-07
1.49152e-07
1.55203e-07
1.72605e-07
1.13067e-07
1.62135e-07
8.7349e-08
1.32432e-07
6.72035e-08
1.06014e-07
5.42145e-08
6.60513e-08
4.98048e-08
4.14897e-08
3.46581e-08
2.61737e-08
2.83224e-08
1.72531e-08
-1.55166e-09
1.11857e-08
-2.35019e-08
7.83925e-09
-1.71841e-08
1.17751e-08
2.70232e-08
-7.6081e-09
2.52925e-08
1.14632e-08
3.38522e-08
1.1934e-08
1.21945e-08
7.02768e-09
-6.0439e-09
3.3333e-09
1.58098e-08
5.28071e-09
1.22392e-08
7.15643e-09
1.38158e-08
-1.19475e-08
2.21576e-09
-1.15527e-09
-9.85455e-09
-1.70822e-09
-1.4156e-05
-3.84764e-05
-5.86276e-06
-2.71055e-05
1.25926e-06
-2.04939e-05
4.54208e-06
-1.52863e-05
5.2923e-06
-1.1743e-05
6.08453e-06
-9.49305e-06
5.99022e-06
-7.38199e-06
5.85505e-06
-5.09804e-06
4.66161e-06
-3.34213e-06
3.88459e-06
-2.01909e-06
2.72899e-06
-1.08417e-06
2.13922e-06
-4.25231e-07
1.6131e-06
-5.02446e-08
1.19833e-06
1.40765e-07
9.8852e-07
1.29723e-07
6.29166e-07
1.07193e-07
3.61052e-07
9.55405e-08
2.28127e-07
1.18783e-07
1.20354e-07
1.42778e-07
9.04705e-08
1.43212e-07
7.07657e-08
1.24255e-07
6.00374e-08
8.59196e-08
4.90514e-08
6.52338e-08
3.50892e-08
4.17784e-08
3.38683e-08
2.65035e-08
2.63881e-08
1.78137e-08
2.10403e-08
-1.3806e-09
5.41422e-09
-2.08324e-08
4.5921e-09
-1.42372e-08
-1.26945e-08
3.46937e-08
1.13392e-08
2.27119e-08
-2.76325e-09
1.94777e-08
1.01763e-08
9.41571e-09
1.62443e-08
3.75607e-09
1.2365e-09
1.0647e-08
5.75639e-09
6.59132e-09
1.90027e-09
2.91819e-10
-6.16687e-09
-1.04223e-08
4.88284e-09
2.42263e-05
-1.28984e-05
4.75851e-06
-1.17392e-05
4.68453e-06
-1.11112e-05
4.54997e-06
-9.89514e-06
4.06304e-06
-8.39905e-06
3.99104e-06
-7.36509e-06
3.85918e-06
-6.39717e-06
3.99688e-06
-4.91538e-06
3.52833e-06
-3.4744e-06
3.13057e-06
-2.26126e-06
2.5014e-06
-1.43687e-06
2.10584e-06
-9.50822e-07
1.45391e-06
-7.13786e-07
1.10821e-06
-5.40413e-07
6.57834e-07
-3.2217e-07
4.69708e-07
-1.14754e-07
3.6727e-07
5.07997e-08
2.52409e-07
1.26407e-07
1.98384e-07
1.37858e-07
1.23799e-07
1.21558e-07
7.72958e-08
9.7309e-08
4.75967e-08
8.46975e-08
3.61066e-08
5.72823e-08
3.48967e-08
3.95749e-08
2.58e-08
2.5727e-08
2.62664e-08
2.06603e-08
1.96845e-08
1.50682e-08
1.68277e-09
6.75547e-09
-2.48657e-08
-1.75583e-09
1.8756e-08
-8.23058e-09
1.61447e-08
-1.60282e-10
2.99082e-08
4.09374e-09
1.17673e-08
1.83702e-08
-4.21842e-09
8.45236e-09
-2.09217e-09
5.9394e-09
7.28988e-09
1.02226e-08
9.08987e-09
-1.75978e-08
6.80297e-09
5.55905e-09
2.06072e-05
-9.1454e-06
5.24257e-06
-6.89758e-06
5.05547e-06
-5.98289e-06
4.67001e-06
-5.26051e-06
4.23079e-06
-4.45934e-06
3.64405e-06
-3.87614e-06
3.45478e-06
-3.49079e-06
3.13068e-06
-3.0784e-06
2.88676e-06
-2.46965e-06
2.36284e-06
-1.89227e-06
2.11407e-06
-1.31432e-06
1.65981e-06
-7.74648e-07
1.52016e-06
-2.73913e-07
1.3116e-06
4.86117e-08
1.15909e-06
1.63351e-07
8.8219e-07
1.6496e-07
5.73058e-07
1.08713e-07
3.56781e-07
8.17251e-08
1.79931e-07
8.32045e-08
1.06242e-07
8.96383e-08
6.60719e-08
8.82377e-08
4.93481e-08
6.5344e-08
3.55924e-08
5.4157e-08
2.31325e-08
3.75795e-08
2.37161e-08
2.66896e-08
2.01438e-08
1.83959e-08
2.41641e-08
1.68701e-08
1.77612e-08
-1.51576e-09
1.11653e-08
-9.60972e-09
-2.05662e-08
1.10376e-08
-4.75222e-09
1.92208e-08
-1.03081e-08
1.496e-08
6.70853e-09
-5.12981e-09
2.29018e-08
-3.56194e-09
8.51077e-09
-2.92816e-09
2.27361e-09
-6.2508e-10
3.05726e-09
1.03102e-08
1.50814e-05
-6.48702e-06
3.74218e-06
-5.14958e-06
3.38438e-06
-4.66041e-06
3.0955e-06
-4.31592e-06
2.8481e-06
-3.88279e-06
2.506e-06
-3.37803e-06
2.34395e-06
-3.0316e-06
2.2284e-06
-2.71592e-06
2.19175e-06
-2.21491e-06
1.95416e-06
-1.67772e-06
1.76173e-06
-1.17318e-06
1.48859e-06
-7.83684e-07
1.35455e-06
-5.40897e-07
1.03915e-06
-3.98366e-07
7.86466e-07
-2.4496e-07
5.87447e-07
-1.31927e-07
4.36032e-07
-2.31184e-08
2.96729e-07
3.87174e-08
2.24585e-07
5.88031e-08
1.38742e-07
5.77475e-08
8.1596e-08
5.03445e-08
4.17576e-08
5.4989e-08
2.6566e-08
4.36513e-08
2.43922e-08
3.49162e-08
1.74113e-08
2.38608e-08
1.97397e-08
2.09885e-08
1.9466e-08
2.09655e-08
1.58983e-08
1.80038e-08
-1.55754e-08
-1.35837e-08
-7.17625e-09
-2.80959e-08
-6.29004e-09
-2.5802e-08
1.7372e-08
-2.75564e-09
-3.97935e-09
2.10196e-08
-8.13641e-09
1.32642e-08
-9.82162e-09
1.06177e-08
6.70048e-09
1.76628e-08
1.16375e-05
-6.85135e-06
2.38216e-06
-4.27029e-06
2.95232e-06
-3.28275e-06
2.97172e-06
-2.78867e-06
2.81734e-06
-2.43321e-06
2.57852e-06
-2.0562e-06
2.29103e-06
-1.75606e-06
2.17255e-06
-1.55913e-06
2.00233e-06
-1.40278e-06
1.83021e-06
-1.18378e-06
1.508e-06
-9.6816e-07
1.33799e-06
-7.17146e-07
1.05863e-06
-4.28018e-07
9.84918e-07
-1.55506e-07
9.33967e-07
-3.62608e-08
7.4976e-07
6.66701e-10
5.47941e-07
-3.05363e-08
3.58238e-07
-5.43068e-08
1.7869e-07
-4.19162e-08
9.66141e-08
-7.78754e-09
5.51622e-08
2.49819e-08
4.21855e-08
3.09113e-08
2.9534e-08
3.63239e-08
1.74839e-08
3.06818e-08
1.71806e-08
2.66634e-08
1.5632e-08
2.01723e-08
2.2013e-08
1.41595e-08
2.06804e-08
9.92285e-10
-1.5929e-09
-1.53601e-08
-4.0483e-08
-1.76851e-08
-4.09759e-08
1.07377e-08
-1.51646e-08
5.26903e-09
9.18693e-09
-2.01072e-08
3.5314e-08
-2.06354e-09
1.57534e-08
1.26868e-05
-4.55616e-06
2.91448e-06
-3.40321e-06
2.73877e-06
-2.84571e-06
2.45226e-06
-2.53103e-06
2.18636e-06
-2.30525e-06
1.95594e-06
-2.05092e-06
1.71585e-06
-1.76411e-06
1.55669e-06
-1.56249e-06
1.45788e-06
-1.41388e-06
1.37202e-06
-1.21902e-06
1.20031e-06
-1.00403e-06
1.05327e-06
-7.84066e-07
8.8431e-07
-6.16164e-07
8.31991e-07
-4.93965e-07
5.8293e-07
-3.70872e-07
5.20062e-07
-2.64247e-07
4.01481e-07
-1.75766e-07
2.74593e-07
-1.046e-07
2.11287e-07
-5.6946e-08
1.37724e-07
-2.79502e-08
8.66094e-08
-9.2738e-09
4.53332e-08
1.60535e-08
2.69526e-08
2.38436e-08
2.19691e-08
2.7457e-08
1.46812e-08
2.3281e-08
1.5849e-08
2.24878e-08
1.34083e-08
2.09628e-08
1.69546e-08
2.56601e-09
4.81305e-09
-2.9899e-08
-3.75287e-09
-4.42302e-08
1.48635e-08
-2.89489e-08
3.44543e-08
-3.07597e-09
-1.40873e-08
3.44453e-08
7.63618e-06
-3.00266e-06
2.30854e-06
-2.37568e-06
2.08857e-06
-1.97463e-06
1.8973e-06
-1.66716e-06
1.75151e-06
-1.48234e-06
1.61498e-06
-1.36184e-06
1.43248e-06
-1.24448e-06
1.24075e-06
-1.15856e-06
1.12132e-06
-1.12251e-06
1.00327e-06
-1.08681e-06
9.17849e-07
-9.87315e-07
7.57651e-07
-8.64568e-07
6.82003e-07
-6.7861e-07
5.44017e-07
-4.68927e-07
6.04044e-07
-3.11695e-07
5.22673e-07
-2.32922e-07
4.09561e-07
-2.01951e-07
3.05296e-07
-1.85965e-07
1.67175e-07
-1.52788e-07
9.45119e-08
-9.56183e-08
5.73686e-08
-3.5138e-08
4.78246e-08
-3.90179e-09
3.53545e-08
1.63194e-08
2.04665e-08
2.0019e-08
1.77648e-08
2.28465e-08
1.61745e-08
1.89126e-08
2.16312e-08
2.19782e-08
5.8281e-09
2.66519e-08
-1.71503e-08
2.90148e-08
-2.89894e-08
3.99032e-08
-4.18069e-08
4.59984e-08
7.71352e-06
-1.48171e-06
2.45963e-06
-1.41627e-06
2.06371e-06
-1.36976e-06
1.75328e-06
-1.23688e-06
1.50834e-06
-1.16522e-06
1.33658e-06
-1.13034e-06
1.16304e-06
-1.09644e-06
1.00793e-06
-1.0364e-06
8.75094e-07
-1.00596e-06
7.88791e-07
-9.84766e-07
7.2004e-07
-9.13498e-07
6.27303e-07
-8.02084e-07
5.54877e-07
-6.79092e-07
4.79476e-07
-5.63875e-07
4.41473e-07
-4.37889e-07
3.69807e-07
-3.30953e-07
3.58671e-07
-2.38928e-07
2.73972e-07
-1.71193e-07
2.16381e-07
-1.12243e-07
1.59717e-07
-6.49901e-08
1.18235e-07
-3.61502e-08
7.28258e-08
-7.40661e-09
4.29335e-08
4.75078e-09
2.74095e-08
1.77174e-08
1.80727e-08
2.36124e-08
1.26618e-08
2.07413e-08
1.82304e-08
1.3832e-08
2.87069e-08
-7.45864e-09
4.56463e-08
2.51256e-06
-3.13174e-06
9.67825e-08
-2.13109e-06
7.61752e-07
-1.62075e-06
9.23733e-07
-1.28165e-06
9.35857e-07
-1.06174e-06
8.90261e-07
-9.3591e-07
8.44328e-07
-8.52963e-07
7.6949e-07
-7.74807e-07
6.86031e-07
-7.08364e-07
6.25858e-07
-6.66064e-07
5.73767e-07
-6.28084e-07
5.26722e-07
-5.6187e-07
4.59895e-07
-4.88202e-07
4.07265e-07
-4.03999e-07
3.5078e-07
-3.37327e-07
3.43619e-07
-2.89711e-07
2.68642e-07
-2.60042e-07
2.19793e-07
-2.2245e-07
1.59636e-07
-1.60018e-07
1.08636e-07
-1.15754e-07
8.36053e-08
-5.30676e-08
6.69077e-08
-2.11213e-08
4.34161e-08
-1.63708e-09
2.57578e-08
1.05522e-08
2.20791e-08
1.2179e-09
5.31848e-06
-1.4569e-06
1.69649e-06
-1.0959e-06
1.82914e-06
-9.90153e-07
1.69552e-06
-8.95628e-07
1.49668e-06
-7.72548e-07
1.30981e-06
-6.87421e-07
1.18115e-06
-6.24754e-07
1.06907e-06
-5.75264e-07
9.55048e-07
-5.21489e-07
8.58145e-07
-4.86418e-07
7.77666e-07
-4.61962e-07
7.08756e-07
-4.33297e-07
6.05111e-07
-3.91444e-07
5.22241e-07
-3.48032e-07
4.33287e-07
-3.02364e-07
3.71288e-07
-2.60019e-07
2.9425e-07
-2.04254e-07
2.42774e-07
-1.63275e-07
2.85398e-07
-3.47035e-07
)
;

boundaryField
{
    inlet
    {
        type            extrapolatedCalculated;
        value           nonuniform List<scalar> 
11
(
-1.10518e-08
-4.83426e-09
-5.15339e-09
-4.45763e-09
-4.64428e-09
-4.00862e-09
-3.80728e-09
-2.7994e-09
-2.6433e-09
-2.11966e-09
-6.08194e-09
)
;
    }
    outlet
    {
        type            extrapolatedCalculated;
        value           nonuniform List<scalar> 0();
    }
    walls
    {
        type            extrapolatedCalculated;
        value           nonuniform List<scalar> 4(3.00762e-05 7.66839e-05 -2.13405e-05 5.37242e-05);
    }
    frontAndBack
    {
        type            empty;
    }
    procBoundary6to2
    {
        type            processor;
        value           nonuniform List<scalar> 
13
(
-0.000139009
-8.89502e-05
-4.92472e-05
-7.9449e-05
-8.8435e-06
-2.28645e-05
-1.4931e-05
-1.24681e-05
-4.03459e-06
-6.76711e-06
-2.83635e-06
-6.2663e-06
-1.24081e-06
)
;
    }
    procBoundary6to3
    {
        type            processor;
        value           uniform -5.23529e-06;
    }
    procBoundary6to5
    {
        type            processor;
        value           nonuniform List<scalar> 
86
(
-8.89019e-06
-5.31693e-08
-7.60229e-06
1.01249e-06
-8.166e-06
1.25618e-06
-9.54488e-06
1.39247e-06
-9.21491e-06
1.51232e-06
-8.57297e-06
1.64633e-06
-7.77143e-06
1.51817e-06
-7.08978e-06
1.43056e-06
-7.49319e-06
1.2417e-06
-7.21301e-06
1.00274e-06
-6.89319e-06
8.07004e-07
-5.99958e-06
9.13066e-07
-4.37447e-06
1.47143e-06
-2.98202e-06
2.09587e-06
-3.3818e-07
-1.09546e-07
1.12382e-06
-2.22941e-06
2.67611e-06
2.67611e-06
1.33996e-06
-1.04206e-06
1.0242e-06
-8.62757e-07
8.70612e-07
-7.40062e-07
8.12396e-07
-3.71118e-07
4.05771e-07
-1.13497e-07
-1.27692e-07
1.12402e-07
1.12402e-07
2.51562e-07
-1.99688e-07
1.68006e-07
-1.22555e-07
1.11698e-07
-8.89942e-08
2.2464e-08
-5.20565e-08
9.54407e-08
9.54407e-08
1.08902e-07
2.19311e-08
-3.02221e-08
5.79963e-08
-1.71633e-08
1.81493e-08
1.22955e-08
1.22955e-08
1.57271e-08
6.2159e-09
2.41378e-08
-1.30914e-08
1.62963e-08
-1.46075e-08
-4.96739e-11
-4.96739e-11
-1.66565e-09
4.55944e-09
-2.81621e-10
2.83589e-09
-2.54556e-09
4.13591e-09
-1.14008e-08
-5.37871e-09
-9.26672e-09
-9.26672e-09
-6.76004e-09
-6.17533e-09
-5.61418e-09
)
;
    }
    procBoundary6to7
    {
        type            processor;
        value           nonuniform List<scalar> 
91
(
-1.29455e-08
-1.29455e-08
-1.97816e-08
-1.97816e-08
-2.12133e-08
-2.12133e-08
-1.44427e-08
-9.11728e-09
-1.44427e-08
-1.52933e-08
1.09021e-08
-9.11728e-09
-2.08161e-08
-2.72358e-09
8.6531e-09
1.09021e-08
-2.98662e-09
-7.79042e-09
2.03799e-08
-2.72358e-09
-8.29281e-09
-3.36524e-08
1.096e-08
1.36769e-08
-7.79042e-09
-1.8817e-08
-1.89872e-08
5.06283e-08
-5.00061e-08
4.28819e-08
-3.36524e-08
-3.05164e-08
2.49958e-08
2.01053e-08
2.21562e-08
3.1701e-08
1.42419e-08
3.24423e-08
-1.89872e-08
1.25327e-08
2.97329e-07
-9.56334e-08
1.21478e-07
-5.21091e-08
9.31576e-08
-3.38994e-08
5.53782e-08
-1.99226e-08
4.69761e-08
-1.46478e-09
4.07639e-08
2.49958e-08
6.28733e-09
3.36341e-07
-1.4709e-06
-4.85736e-07
-1.00353e-06
-2.42407e-07
-7.95233e-07
-1.08072e-07
-6.34769e-07
7.94722e-09
-5.14565e-07
4.41144e-08
-4.54448e-07
7.99507e-08
-4.2051e-07
8.27023e-08
-4.02601e-07
1.07716e-07
-3.86857e-07
1.11154e-07
-3.88924e-07
1.31253e-07
-3.93947e-07
1.49504e-07
-3.82524e-07
1.61923e-07
-3.50029e-07
1.79704e-07
-3.04974e-07
1.72636e-07
-2.38741e-07
1.97177e-07
-1.69483e-07
2.07601e-07
-1.22814e-07
1.93262e-07
-8.20784e-08
2.97329e-07
1.5295e-07
)
;
    }
}


// ************************************************************************* //
