/*--------------------------------*- C++ -*----------------------------------*\
| =========                 |                                                 |
| \\      /  F ield         | OpenFOAM: The Open Source CFD Toolbox           |
|  \\    /   O peration     | Version:  2306                                  |
|   \\  /    A nd           | Website:  www.openfoam.com                      |
|    \\/     M anipulation  |                                                 |
\*---------------------------------------------------------------------------*/
FoamFile
{
    version     2.0;
    format      ascii;
    arch        "LSB;label=32;scalar=64";
    class       volScalarField;
    location    "800";
    object      nuTilda;
}
// * * * * * * * * * * * * * * * * * * * * * * * * * * * * * * * * * * * * * //

dimensions      [0 2 -1 0 0 0 0];

internalField   nonuniform List<scalar> 
1340
(
0.0869128
0.0784498
0.068319
0.0332561
0.153838
0.148528
0.139507
0.139918
0.206324
0.207572
0.20148
0.210275
0.21535
0.231942
0.239141
0.255238
0.175043
0.21717
0.248035
0.278262
0.0932781
0.160392
0.223977
0.278311
0.0217348
0.07823
0.166187
0.252303
0.00542034
0.0161567
0.0903868
0.200051
0
0.00441099
0.0302868
0.133004
0
6.58015e-05
0.00303889
0.0730354
0
0
0.00140766
0.0333366
7.84672e-06
0
0.000285757
0.0130482
3.14839e-05
8.62663e-07
9.96883e-05
0.00434172
4.68275e-05
8.04533e-06
2.66641e-05
0.00110796
4.52398e-05
3.09158e-05
3.29276e-06
9.67508e-05
4.06739e-05
4.57515e-05
2.04904e-06
2.22849e-05
3.84483e-05
4.89877e-05
3.35719e-06
9.37029e-08
3.85276e-05
4.54778e-05
2.79754e-05
3.71378e-06
3.93856e-05
4.1533e-05
4.14008e-05
1.34047e-05
4.00164e-05
3.9639e-05
4.40604e-05
2.83322e-05
4.02349e-05
3.93654e-05
4.26202e-05
3.70384e-05
4.02178e-05
3.967e-05
4.09956e-05
4.01586e-05
4.01453e-05
3.99565e-05
4.01931e-05
4.06386e-05
4.00961e-05
4.00857e-05
3.99897e-05
4.04014e-05
4.00777e-05
4.01105e-05
4.0012e-05
4.01804e-05
4.00753e-05
4.01e-05
4.00611e-05
4.00931e-05
4.00771e-05
4.00881e-05
4.00846e-05
4.00803e-05
4.00782e-05
4.00825e-05
4.00885e-05
4.00867e-05
4.00782e-05
4.00809e-05
4.00859e-05
4.0091e-05
4.00778e-05
4.00806e-05
4.00832e-05
4.00912e-05
4.00773e-05
4.00804e-05
4.00818e-05
4.00897e-05
4.00771e-05
4.008e-05
4.00811e-05
4.00883e-05
4.00769e-05
4.00797e-05
4.00807e-05
4.00872e-05
4.00755e-05
4.00769e-05
4.00794e-05
4.00804e-05
4.00863e-05
4.00756e-05
4.00769e-05
4.00793e-05
4.00801e-05
4.00857e-05
4.00758e-05
4.0077e-05
4.00792e-05
4.008e-05
4.00852e-05
4.0076e-05
4.00771e-05
4.00792e-05
4.00799e-05
4.00848e-05
4.00763e-05
4.00773e-05
4.00793e-05
4.00799e-05
4.00844e-05
4.00766e-05
4.00776e-05
4.00794e-05
4.008e-05
4.00842e-05
4.00769e-05
4.00779e-05
4.00796e-05
4.00801e-05
4.00841e-05
4.00773e-05
4.00782e-05
4.00799e-05
4.00804e-05
4.0084e-05
4.00776e-05
4.00785e-05
4.00801e-05
4.00806e-05
4.00841e-05
4.0078e-05
4.00789e-05
4.00804e-05
4.00809e-05
4.00842e-05
4.00784e-05
4.00792e-05
4.00807e-05
4.00812e-05
4.00843e-05
4.00787e-05
4.00796e-05
4.0081e-05
4.00815e-05
4.00845e-05
4.00781e-05
4.0079e-05
4.00799e-05
4.00813e-05
4.00819e-05
4.00847e-05
4.00783e-05
4.00792e-05
4.00801e-05
4.00815e-05
4.00822e-05
4.00848e-05
4.00784e-05
4.00794e-05
4.00803e-05
4.00817e-05
4.00824e-05
4.0085e-05
4.00785e-05
4.00795e-05
4.00805e-05
4.00818e-05
4.00826e-05
4.00851e-05
4.00785e-05
4.00795e-05
4.00805e-05
4.00819e-05
4.00827e-05
4.00852e-05
4.00783e-05
4.00793e-05
4.00804e-05
4.00818e-05
4.00827e-05
4.00852e-05
4.0078e-05
4.00791e-05
4.00802e-05
4.00816e-05
4.00826e-05
4.0085e-05
4.00776e-05
4.00787e-05
4.00798e-05
4.00813e-05
4.00824e-05
4.00847e-05
4.00769e-05
4.00781e-05
4.00793e-05
4.00808e-05
4.0082e-05
4.00843e-05
4.0075e-05
4.00761e-05
4.00773e-05
4.00786e-05
4.00801e-05
4.00814e-05
4.00837e-05
4.00739e-05
4.00751e-05
4.00763e-05
4.00776e-05
4.00792e-05
4.00806e-05
4.00829e-05
4.00726e-05
4.00738e-05
4.00751e-05
4.00765e-05
4.00781e-05
4.00796e-05
4.00819e-05
4.00711e-05
4.00724e-05
4.00737e-05
4.00751e-05
4.00768e-05
4.00783e-05
4.00806e-05
4.00694e-05
4.00707e-05
4.00721e-05
4.00735e-05
4.00752e-05
4.00768e-05
4.00791e-05
4.00674e-05
4.00687e-05
4.00702e-05
4.00717e-05
4.00734e-05
4.00751e-05
4.00774e-05
4.00649e-05
4.00663e-05
4.00678e-05
4.00694e-05
4.00712e-05
4.00731e-05
4.00754e-05
4.00602e-05
4.00617e-05
4.00632e-05
4.00649e-05
4.00666e-05
4.00685e-05
4.00705e-05
4.0073e-05
4.00561e-05
4.00577e-05
4.00593e-05
4.0061e-05
4.00629e-05
4.0065e-05
4.00671e-05
4.00698e-05
4.00515e-05
4.0053e-05
4.00546e-05
4.00564e-05
4.00583e-05
4.00605e-05
4.00628e-05
4.00656e-05
4.00466e-05
4.0048e-05
4.00496e-05
4.00513e-05
4.00532e-05
4.00553e-05
4.00577e-05
4.00606e-05
4.00416e-05
4.0043e-05
4.00445e-05
4.00461e-05
4.00478e-05
4.00499e-05
4.00522e-05
4.0055e-05
4.00367e-05
4.00381e-05
4.00395e-05
4.00411e-05
4.00427e-05
4.00447e-05
4.00468e-05
4.00494e-05
4.00321e-05
4.00335e-05
4.0035e-05
4.00365e-05
4.00383e-05
4.00402e-05
4.00423e-05
4.00447e-05
4.00261e-05
4.00273e-05
4.00287e-05
4.00302e-05
4.00318e-05
4.00335e-05
4.00355e-05
4.00376e-05
4.00401e-05
4.00211e-05
4.00222e-05
4.00235e-05
4.00248e-05
4.00263e-05
4.00279e-05
4.00298e-05
4.00319e-05
4.00344e-05
4.0016e-05
4.0017e-05
4.00181e-05
4.00192e-05
4.00205e-05
4.0022e-05
4.00236e-05
4.00255e-05
4.00278e-05
4.0011e-05
4.00118e-05
4.00127e-05
4.00137e-05
4.00148e-05
4.0016e-05
4.00175e-05
4.00191e-05
4.00212e-05
4.00066e-05
4.0007e-05
4.00075e-05
4.00081e-05
4.00088e-05
4.00097e-05
4.00108e-05
4.00121e-05
4.00137e-05
4.0007e-05
4.00068e-05
4.00066e-05
4.00064e-05
4.00064e-05
4.00065e-05
4.00068e-05
4.00073e-05
4.0008e-05
4.00122e-05
4.00119e-05
4.00116e-05
4.00112e-05
4.00108e-05
4.00104e-05
4.001e-05
4.00097e-05
4.00094e-05
4.00184e-05
4.00181e-05
4.00177e-05
4.00172e-05
4.00167e-05
4.00161e-05
4.00154e-05
4.00146e-05
4.00136e-05
4.00261e-05
4.00262e-05
4.00264e-05
4.00266e-05
4.00267e-05
4.00267e-05
4.00267e-05
4.00267e-05
4.00265e-05
4.00321e-05
4.00322e-05
4.0032e-05
4.00318e-05
4.00314e-05
4.0031e-05
4.00306e-05
4.00301e-05
4.00299e-05
4.00297e-05
4.00425e-05
4.00442e-05
4.0046e-05
4.0048e-05
4.005e-05
4.0052e-05
4.00541e-05
4.00563e-05
4.00589e-05
4.00614e-05
4.00602e-05
4.00605e-05
4.00607e-05
4.00608e-05
4.00608e-05
4.00607e-05
4.00609e-05
4.00614e-05
4.00623e-05
4.0063e-05
0.172351
0.214952
0.255349
0.299983
0.326383
0.329392
0.30733
0.25883
0.186556
0.105361
0.0438455
0.0154414
0.00480629
0.00111084
6.74391e-05
1.52254e-05
0
1.60056e-06
7.58123e-06
2.55012e-05
3.60642e-05
4.00532e-05
4.07617e-05
4.05052e-05
4.02276e-05
4.0108e-05
4.00854e-05
4.00916e-05
4.00972e-05
4.00979e-05
4.0096e-05
4.0094e-05
4.00924e-05
4.00911e-05
4.00901e-05
4.00892e-05
4.00884e-05
4.00877e-05
4.00872e-05
4.00868e-05
4.00864e-05
4.00862e-05
4.0086e-05
4.00859e-05
4.00859e-05
4.00859e-05
4.00859e-05
4.00858e-05
4.00858e-05
4.00858e-05
4.00857e-05
4.00857e-05
4.00855e-05
4.00851e-05
4.00846e-05
4.00839e-05
4.00829e-05
4.00817e-05
4.00803e-05
4.00786e-05
4.00766e-05
4.00742e-05
4.00712e-05
4.00671e-05
4.00621e-05
4.00564e-05
4.00507e-05
4.0046e-05
4.00414e-05
4.00357e-05
4.0029e-05
4.00221e-05
4.00145e-05
4.00084e-05
4.00092e-05
4.00133e-05
4.00263e-05
4.00295e-05
4.0063e-05
4.00634e-05
0.213603
0.258494
0.288523
0.31697
0.345746
0.357733
0.345385
0.305899
0.239459
0.153051
0.0689463
0.0208253
0.00564566
0.00139602
9.05732e-05
2.05663e-05
0
1.12503e-06
5.29526e-06
2.3609e-05
3.53763e-05
3.99235e-05
4.08076e-05
4.05634e-05
4.02573e-05
4.01173e-05
4.00874e-05
4.00928e-05
4.0099e-05
4.00998e-05
4.00977e-05
4.00954e-05
4.00935e-05
4.00922e-05
4.00911e-05
4.00901e-05
4.00893e-05
4.00886e-05
4.00881e-05
4.00876e-05
4.00872e-05
4.0087e-05
4.00868e-05
4.00867e-05
4.00866e-05
4.00866e-05
4.00865e-05
4.00865e-05
4.00865e-05
4.00864e-05
4.00864e-05
4.00864e-05
4.00862e-05
4.00859e-05
4.00854e-05
4.00847e-05
4.00838e-05
4.00826e-05
4.00812e-05
4.00795e-05
4.00776e-05
4.00752e-05
4.00722e-05
4.00681e-05
4.00631e-05
4.00573e-05
4.00516e-05
4.00468e-05
4.00422e-05
4.00365e-05
4.00297e-05
4.00227e-05
4.00151e-05
4.00086e-05
4.00091e-05
4.00132e-05
4.00261e-05
4.00294e-05
4.00641e-05
0.217789
0.269138
0.303781
0.326763
0.347897
0.366373
0.368532
0.346286
0.296146
0.219068
0.124839
0.043889
0.00720816
0.000799259
2.59225e-06
5.91881e-07
0
3.34789e-07
1.56624e-06
1.98344e-05
3.37983e-05
3.96394e-05
4.08815e-05
4.06517e-05
4.03018e-05
4.01307e-05
4.00881e-05
4.00913e-05
4.00987e-05
4.01006e-05
4.00988e-05
4.00964e-05
4.00945e-05
4.00931e-05
4.00921e-05
4.00911e-05
4.00903e-05
4.00896e-05
4.0089e-05
4.00886e-05
4.00882e-05
4.00879e-05
4.00877e-05
4.00876e-05
4.00875e-05
4.00875e-05
4.00875e-05
4.00874e-05
4.00874e-05
4.00873e-05
4.00873e-05
4.00873e-05
4.00872e-05
4.00869e-05
4.00864e-05
4.00857e-05
4.00848e-05
4.00837e-05
4.00822e-05
4.00806e-05
4.00786e-05
4.00763e-05
4.00732e-05
4.00692e-05
4.00642e-05
4.00584e-05
4.00525e-05
4.00477e-05
4.0043e-05
4.00373e-05
4.00305e-05
4.00234e-05
4.00156e-05
4.00088e-05
4.0009e-05
4.00131e-05
4.00259e-05
4.00293e-05
0.202659
0.258523
0.300405
0.328231
0.346517
0.362701
0.374798
0.371353
0.344257
0.28938
0.207408
0.110571
0.0326061
0.000694034
0.000196486
0
0
0
3.3934e-06
1.56553e-05
3.08556e-05
3.86557e-05
4.08533e-05
4.08151e-05
4.0391e-05
4.01528e-05
4.00883e-05
4.00888e-05
4.00979e-05
4.01013e-05
4.01002e-05
4.00978e-05
4.00958e-05
4.00944e-05
4.00933e-05
4.00924e-05
4.00915e-05
4.00908e-05
4.00902e-05
4.00897e-05
4.00893e-05
4.0089e-05
4.00888e-05
4.00886e-05
4.00886e-05
4.00885e-05
4.00885e-05
4.00885e-05
4.00885e-05
4.00884e-05
4.00884e-05
4.00884e-05
4.00883e-05
4.0088e-05
4.00875e-05
4.00868e-05
4.00859e-05
4.00848e-05
4.00834e-05
4.00817e-05
4.00797e-05
4.00774e-05
4.00744e-05
4.00703e-05
4.00653e-05
4.00594e-05
4.00535e-05
4.00486e-05
4.00439e-05
4.00381e-05
4.00312e-05
4.0024e-05
4.00162e-05
4.00091e-05
4.00089e-05
4.00131e-05
4.00257e-05
0.172716
0.232711
0.281661
0.317716
0.341523
0.356921
0.369865
0.378295
0.372098
0.343191
0.2868
0.203231
0.106122
0.0278118
0.00147291
0.000400419
0
0
0
5.71925e-06
2.44876e-05
3.75059e-05
4.08257e-05
4.09525e-05
4.05344e-05
4.02146e-05
4.00922e-05
4.00824e-05
4.00957e-05
4.01018e-05
4.01016e-05
4.00995e-05
4.00974e-05
4.00958e-05
4.00947e-05
4.00937e-05
4.00929e-05
4.00921e-05
4.00915e-05
4.00909e-05
4.00905e-05
4.00902e-05
4.009e-05
4.00898e-05
4.00897e-05
4.00897e-05
4.00896e-05
4.00896e-05
4.00896e-05
4.00895e-05
4.00895e-05
4.00895e-05
4.00894e-05
4.00891e-05
4.00887e-05
4.0088e-05
4.00871e-05
4.0086e-05
4.00845e-05
4.00829e-05
4.00809e-05
4.00786e-05
4.00756e-05
4.00716e-05
4.00665e-05
4.00605e-05
4.00546e-05
4.00496e-05
4.00448e-05
4.0039e-05
4.00321e-05
4.00247e-05
4.00169e-05
4.00094e-05
4.00088e-05
4.0013e-05
0.130132
0.193673
0.249312
0.294153
0.327072
0.348796
0.362584
0.373393
0.379781
0.372516
0.343469
0.287291
0.204063
0.106409
0.0305174
0.00245431
0.000584477
0
0
0
6.87345e-06
2.8597e-05
4.08216e-05
4.16476e-05
4.07074e-05
4.02757e-05
4.01272e-05
4.00817e-05
4.00888e-05
4.01018e-05
4.01041e-05
4.01014e-05
4.00989e-05
4.00973e-05
4.00962e-05
4.00952e-05
4.00943e-05
4.00935e-05
4.00928e-05
4.00923e-05
4.00918e-05
4.00915e-05
4.00912e-05
4.0091e-05
4.00909e-05
4.00909e-05
4.00908e-05
4.00908e-05
4.00908e-05
4.00907e-05
4.00907e-05
4.00907e-05
4.00906e-05
4.00903e-05
4.00899e-05
4.00893e-05
4.00884e-05
4.00872e-05
4.00858e-05
4.00841e-05
4.00822e-05
4.00798e-05
4.00768e-05
4.00728e-05
4.00678e-05
4.00617e-05
4.00557e-05
4.00506e-05
4.00458e-05
4.00399e-05
4.0033e-05
4.00254e-05
4.00175e-05
4.00097e-05
0.0788383
0.142578
0.203878
0.257079
0.299947
0.331568
0.352538
0.365593
0.374961
0.380288
0.373
0.344877
0.290097
0.207954
0.111163
0.0359901
0.000747733
0.000206086
0
0
0
7.55299e-06
3.11756e-05
4.26374e-05
4.20992e-05
4.04166e-05
4.00561e-05
4.00876e-05
4.00912e-05
4.00923e-05
4.01016e-05
4.01044e-05
4.01016e-05
4.0099e-05
4.00977e-05
4.00967e-05
4.00958e-05
4.0095e-05
4.00943e-05
4.00937e-05
4.00932e-05
4.00928e-05
4.00925e-05
4.00923e-05
4.00922e-05
4.00921e-05
4.00921e-05
4.00921e-05
4.00921e-05
4.0092e-05
4.0092e-05
4.00919e-05
4.00919e-05
4.00916e-05
4.00912e-05
4.00906e-05
4.00897e-05
4.00885e-05
4.00871e-05
4.00854e-05
4.00835e-05
4.00811e-05
4.00782e-05
4.00742e-05
4.00691e-05
4.0063e-05
4.00569e-05
4.00517e-05
4.00469e-05
4.00409e-05
4.00339e-05
4.00262e-05
0.0299728
0.0828561
0.145789
0.206046
0.25848
0.300993
0.332661
0.35387
0.36686
0.37528
0.380185
0.373573
0.347107
0.294487
0.214328
0.119814
0.0403409
0.00135491
0.00040885
0
0
0
7.24664e-06
2.93544e-05
4.32972e-05
4.26359e-05
4.02725e-05
3.98766e-05
4.00824e-05
4.01326e-05
4.01064e-05
4.00994e-05
4.01021e-05
4.01017e-05
4.00997e-05
4.00984e-05
4.00974e-05
4.00966e-05
4.00958e-05
4.00952e-05
4.00946e-05
4.00942e-05
4.00939e-05
4.00937e-05
4.00935e-05
4.00935e-05
4.00934e-05
4.00934e-05
4.00934e-05
4.00933e-05
4.00933e-05
4.00933e-05
4.00932e-05
4.0093e-05
4.00925e-05
4.00919e-05
4.00911e-05
4.00899e-05
4.00885e-05
4.00868e-05
4.00848e-05
4.00825e-05
4.00796e-05
4.00756e-05
4.00705e-05
4.00644e-05
4.00581e-05
4.00528e-05
4.0048e-05
0.00321511
0.0283071
0.0794006
0.141503
0.201846
0.254859
0.298267
0.331033
0.353278
0.366756
0.374609
0.379502
0.374043
0.349777
0.299889
0.222881
0.129831
0.0472453
0.00386613
0.00108525
0
0
0
5.92519e-06
2.34215e-05
4.26085e-05
4.34169e-05
4.0328e-05
3.96086e-05
3.99716e-05
4.01481e-05
4.01286e-05
4.01029e-05
4.01006e-05
4.01016e-05
4.01005e-05
4.00992e-05
4.00983e-05
4.00975e-05
4.00968e-05
4.00962e-05
4.00957e-05
4.00954e-05
4.00951e-05
4.00949e-05
4.00948e-05
4.00948e-05
4.00948e-05
4.00948e-05
4.00947e-05
4.00947e-05
4.00946e-05
4.00946e-05
4.00944e-05
4.0094e-05
4.00934e-05
4.00925e-05
4.00914e-05
4.009e-05
4.00883e-05
4.00863e-05
4.0084e-05
4.0081e-05
4.00771e-05
4.0072e-05
4.00658e-05
0.000425848
0.0016856
0.0227615
0.0700316
0.130989
0.192187
0.246848
0.292187
0.32694
0.350942
0.365503
0.373516
0.378486
0.374349
0.352595
0.306002
0.232447
0.140698
0.0557542
0.00776413
0.00211161
0
0
0
3.60541e-06
1.34123e-05
4.0138e-05
4.48186e-05
4.1287e-05
3.96726e-05
3.98522e-05
4.01152e-05
4.01373e-05
4.0108e-05
4.01006e-05
4.01016e-05
4.01012e-05
4.01002e-05
4.00992e-05
4.00985e-05
4.00978e-05
4.00973e-05
4.00969e-05
4.00966e-05
4.00964e-05
4.00963e-05
4.00962e-05
4.00962e-05
4.00962e-05
4.00962e-05
4.00961e-05
4.00961e-05
4.0096e-05
4.00958e-05
4.00955e-05
4.00949e-05
4.0094e-05
4.00929e-05
4.00915e-05
4.00898e-05
4.00878e-05
4.00855e-05
0
0.000341883
0.00139047
0.0167041
0.0570186
0.115592
0.1777
0.234735
0.282871
0.320432
0.346951
0.363382
0.372516
0.377526
0.374644
0.355499
0.312485
0.242415
0.152314
0.0655044
0.0128708
0.00344558
2.1708e-05
0
0
4.49388e-07
8.44346e-08
3.27902e-05
4.38168e-05
4.19742e-05
3.99428e-05
3.98197e-05
4.00811e-05
4.01378e-05
4.01126e-05
4.01023e-05
4.01027e-05
4.01023e-05
4.01011e-05
4.01002e-05
4.00995e-05
4.0099e-05
4.00986e-05
4.00982e-05
4.0098e-05
4.00978e-05
4.00978e-05
4.00977e-05
4.00977e-05
4.00977e-05
4.00976e-05
4.00976e-05
4.00975e-05
4.00974e-05
4.0097e-05
4.00964e-05
4.00956e-05
0
0
5.60262e-05
0.00018102
0.0103696
0.0427519
0.0968009
0.159069
0.21872
0.270315
0.311452
0.341277
0.360386
0.371117
0.376365
0.374778
0.358326
0.318968
0.252513
0.164394
0.076167
0.0191399
0.000816561
0.000262015
0
0
2.72725e-09
7.23116e-06
2.89884e-05
4.26683e-05
4.23112e-05
4.01694e-05
3.98081e-05
4.00511e-05
4.0134e-05
4.0113e-05
4.01015e-05
4.01031e-05
4.01038e-05
4.01027e-05
4.01016e-05
4.01008e-05
4.01003e-05
4.00999e-05
4.00996e-05
4.00995e-05
4.00994e-05
4.00993e-05
4.00993e-05
4.00993e-05
8.74041e-06
3.34124e-08
0
1.7881e-06
0.00121875
0.00475915
0.0288123
0.0763203
0.137216
0.19917
0.254605
0.299951
0.333766
0.35618
0.368979
0.374736
0.374525
0.360827
0.3252
0.26251
0.176658
0.0877705
0.0260204
0.00282257
0.000697288
0
0
0
6.27402e-06
2.50648e-05
4.1691e-05
4.27712e-05
4.04325e-05
3.98071e-05
4.00378e-05
4.01497e-05
4.01241e-05
4.01027e-05
)
;

boundaryField
{
    inlet
    {
        type            freestream;
        freestreamValue uniform 4e-05;
        value           nonuniform List<scalar> 
11
(
4.00602e-05
4.00605e-05
4.00607e-05
4.00608e-05
4.00608e-05
4.00607e-05
4.00609e-05
4.00614e-05
4.00623e-05
4.0063e-05
4.00634e-05
)
;
    }
    outlet
    {
        type            freestream;
        freestreamValue nonuniform List<scalar> 0();
        value           nonuniform List<scalar> 0();
    }
    walls
    {
        type            fixedValue;
        value           uniform 0;
    }
    frontAndBack
    {
        type            empty;
    }
    procBoundary6to2
    {
        type            processor;
        value           nonuniform List<scalar> 
13
(
0.12658
0.149853
0.151234
0.13516
0.104401
0.0649677
0.0258217
0.00297671
0.000805578
0
0
8.04899e-06
3.50296e-05
)
;
    }
    procBoundary6to3
    {
        type            processor;
        value           uniform 3.84932e-05;
    }
    procBoundary6to5
    {
        type            processor;
        value           nonuniform List<scalar> 
86
(
0.0927939
0.159339
0.203441
0.193209
0.124103
0.038063
0.00167167
0.000386726
0
0
8.68175e-06
3.56771e-05
4.41109e-05
4.11133e-05
3.91921e-05
3.95263e-05
4.02291e-05
4.04483e-05
4.03257e-05
4.01566e-05
4.00674e-05
4.00496e-05
4.00606e-05
4.00728e-05
4.00783e-05
4.00789e-05
4.00778e-05
4.00767e-05
4.0076e-05
4.00757e-05
4.00755e-05
4.00754e-05
4.00754e-05
4.00754e-05
4.00742e-05
4.00744e-05
4.00746e-05
4.00749e-05
4.00752e-05
4.00756e-05
4.0076e-05
4.00764e-05
4.00767e-05
4.00771e-05
4.00775e-05
4.00778e-05
4.00778e-05
4.00773e-05
4.00775e-05
4.00776e-05
4.00776e-05
4.00776e-05
4.00774e-05
4.0077e-05
4.00765e-05
4.00758e-05
4.00758e-05
4.00739e-05
4.00728e-05
4.00715e-05
4.00699e-05
4.00682e-05
4.00661e-05
4.00635e-05
4.00635e-05
4.00589e-05
4.00547e-05
4.005e-05
4.00452e-05
4.00403e-05
4.00354e-05
4.00308e-05
4.00308e-05
4.00249e-05
4.00201e-05
4.00151e-05
4.00103e-05
4.00063e-05
4.00072e-05
4.00125e-05
4.00186e-05
4.00259e-05
4.00259e-05
4.00315e-05
4.00412e-05
4.00596e-05
)
;
    }
    procBoundary6to7
    {
        type            processor;
        value           nonuniform List<scalar> 
91
(
4.00638e-05
4.00638e-05
4.00652e-05
4.00652e-05
4.00292e-05
4.00292e-05
4.00255e-05
4.00087e-05
4.00255e-05
4.00129e-05
4.00182e-05
4.00087e-05
4.00101e-05
4.0042e-05
4.00349e-05
4.00182e-05
4.00271e-05
4.00594e-05
4.00541e-05
4.0042e-05
4.00492e-05
4.00826e-05
4.00787e-05
4.00736e-05
4.00594e-05
4.00673e-05
4.00945e-05
4.00931e-05
4.00914e-05
4.00894e-05
4.00826e-05
4.00871e-05
4.00992e-05
4.00992e-05
4.00991e-05
4.0099e-05
4.00986e-05
4.00981e-05
4.00945e-05
4.00973e-05
4.01021e-05
4.01035e-05
4.01032e-05
4.01027e-05
4.01023e-05
4.01018e-05
4.01014e-05
4.01012e-05
4.01011e-05
4.0101e-05
4.0101e-05
4.00992e-05
4.01009e-05
3.93748e-06
1.02584e-06
0
0
0.000159245
0.000469283
0.0161141
0.0551949
0.112664
0.176088
0.235511
0.285619
0.324075
0.350415
0.365813
0.372618
0.37375
0.362752
0.330896
0.272104
0.188975
0.0998846
0.0338941
0.00195461
0.000541997
0
0
0
5.08094e-06
2.00367e-05
4.03602e-05
4.33625e-05
4.07229e-05
3.97006e-05
3.99359e-05
4.01373e-05
4.01021e-05
4.01376e-05
)
;
    }
}


// ************************************************************************* //
