# p  FACE_DATA 300
# x y z  p
0.29787915 -0.05 -0.060005454 21766.934
0.29366024 -0.05 -0.059998184 21763.176
0.28948669 -0.05 -0.059982824 21760.947
0.28535801 -0.05 -0.05995956 21759.617
0.28127374 -0.05 -0.05992843 21759.293
0.27723341 -0.05 -0.059889544 21759.361
0.27323659 -0.05 -0.059843056 21760.455
0.2692828 -0.05 -0.059789027 21762.584
0.26537161 -0.05 -0.059727601 21765.286
0.26150257 -0.05 -0.05965892 21768.915
0.25767524 -0.05 -0.059583046 21773.661
0.2538892 -0.05 -0.059500074 21779.427
0.25014401 -0.05 -0.059410118 21786.207
0.24643926 -0.05 -0.059313284 21794.012
0.24277452 -0.05 -0.059209673 21802.792
0.23914938 -0.05 -0.059099387 21812.502
0.23556343 -0.05 -0.058982537 21822.925
0.23201627 -0.05 -0.058859254 21834.24
0.2285075 -0.05 -0.058729541 21847.173
0.22503671 -0.05 -0.058593532 21860.274
0.22160352 -0.05 -0.058451379 21874.598
0.21820754 -0.05 -0.058303115 21889.758
0.21484838 -0.05 -0.058148846 21905.898
0.21152567 -0.05 -0.05798866 21922.949
0.20823903 -0.05 -0.057822651 21941.001
0.20498809 -0.05 -0.057650874 21960.137
0.20177248 -0.05 -0.057473468 21979.7
0.19859184 -0.05 -0.057290478 22000.781
0.1954458 -0.05 -0.057101994 22021.866
0.19233402 -0.05 -0.056908168 22044.059
0.18925614 -0.05 -0.056708999 22067.538
0.18621181 -0.05 -0.056504562 22092.18
0.18320071 -0.05 -0.056294919 22117.893
0.18022246 -0.05 -0.056080229 22143.709
0.17727675 -0.05 -0.055860526 22171.288
0.17436324 -0.05 -0.05563585 22198.923
0.1714816 -0.05 -0.055406376 22227.528
0.16863151 -0.05 -0.055172052 22257.985
0.16581265 -0.05 -0.054932944 22288.883
0.16302469 -0.05 -0.054689208 22320.558
0.16026732 -0.05 -0.054440898 22353.052
0.15754024 -0.05 -0.054188056 22386.642
0.15484313 -0.05 -0.053930725 22421.134
0.15217569 -0.05 -0.053668978 22456.468
0.14953762 -0.05 -0.053402888 22492.948
0.14692863 -0.05 -0.053132457 22530.951
0.14434842 -0.05 -0.052857799 22568.819
0.14179669 -0.05 -0.052579044 22607.763
0.13927317 -0.05 -0.05229612 22648.541
0.13677758 -0.05 -0.052009061 22690.179
0.13430961 -0.05 -0.051717985 22732.503
0.13186901 -0.05 -0.051422993 22775.15
0.1294555 -0.05 -0.051124081 22819.626
0.12706881 -0.05 -0.050821224 22865.266
0.12470868 -0.05 -0.050514504 22911.766
0.12237483 -0.05 -0.05020403 22958.555
0.120067 -0.05 -0.049889836 23006.886
0.11778495 -0.05 -0.049571874 23056.363
0.11552842 -0.05 -0.049250263 23106.159
0.11329715 -0.05 -0.048924992 23157.772
0.1110909 -0.05 -0.048596121 23209.441
0.10890943 -0.05 -0.048263656 23263.848
0.10675251 -0.05 -0.047927554 23318.723
0.10461987 -0.05 -0.047587958 23374.229
0.1025113 -0.05 -0.047244937 23430.224
0.10042655 -0.05 -0.046898432 23488.142
0.098365405 -0.05 -0.046548446 23546.424
0.096327639 -0.05 -0.046195043 23606.251
0.094313028 -0.05 -0.045838237 23667.197
0.092321357 -0.05 -0.045478019 23730.248
0.090352417 -0.05 -0.04511438 23793.971
0.088405979 -0.05 -0.044747421 23858.507
0.086481845 -0.05 -0.044377096 23924.974
0.084579815 -0.05 -0.044003384 23992.211
0.082699669 -0.05 -0.043626384 24060.595
0.080841229 -0.05 -0.043246005 24131.461
0.0790043 -0.05 -0.042862236 24202.712
0.077188665 -0.05 -0.0424752 24275.186
0.07539416 -0.05 -0.042084789 24350.075
0.073620599 -0.05 -0.041690997 24425.567
0.071867788 -0.05 -0.041293877 24502.501
0.070135557 -0.05 -0.040893385 24580.91
0.068423742 -0.05 -0.040489457 24661.636
0.066732169 -0.05 -0.040082112 24743.519
0.065060663 -0.05 -0.039671361 24827.676
0.063409062 -0.05 -0.039257174 24913.233
0.061777219 -0.05 -0.038839488 25000.812
0.060164984 -0.05 -0.038418265 25089.141
0.058572196 -0.05 -0.037993513 25179.87
0.056998721 -0.05 -0.037565159 25272.802
0.055444419 -0.05 -0.03713316 25367.78
0.053909142 -0.05 -0.036697516 25464.214
0.052392764 -0.05 -0.036258171 25563.223
0.050895177 -0.05 -0.035815009 25664.401
0.049416244 -0.05 -0.035368033 25767.293
0.047955856 -0.05 -0.034917167 25872.995
0.046513915 -0.05 -0.034462309 25980.762
0.045090302 -0.05 -0.034003445 26090.868
0.043684931 -0.05 -0.033540468 26204.558
0.042297731 -0.05 -0.03307324 26321.698
0.040928604 -0.05 -0.032601735 26441.659
0.039577476 -0.05 -0.032125845 26565.528
0.038244292 -0.05 -0.03164545 26692.967
0.036928981 -0.05 -0.031160474 26824.178
0.0356315 -0.05 -0.030670795 26959.08
0.03435181 -0.05 -0.030176299 27098.688
0.033089918 -0.05 -0.029676761 27243.508
0.031845783 -0.05 -0.029172106 27390.845
0.030619394 -0.05 -0.028662209 27542.99
0.029410776 -0.05 -0.028146878 27698.854
0.028219949 -0.05 -0.027625962 27859.653
0.027046957 -0.05 -0.027099267 28024.901
0.025891857 -0.05 -0.026566614 28195.576
0.02475474 -0.05 -0.026027768 28371.585
0.023635681 -0.05 -0.025482558 28553.265
0.022534817 -0.05 -0.024930718 28741.248
0.021452274 -0.05 -0.024372036 28934.213
0.020388213 -0.05 -0.023806274 29132.8
0.019342865 -0.05 -0.023233111 29336.977
0.018316468 -0.05 -0.022652259 29548.065
0.017309264 -0.05 -0.02206346 29767.353
0.016321577 -0.05 -0.021466368 29995.436
0.015353757 -0.05 -0.020860644 30230.988
0.014406156 -0.05 -0.020245997 30474.604
0.013479274 -0.05 -0.019622013 30726.471
0.012573638 -0.05 -0.018988322 30986.153
0.0116898 -0.05 -0.018344552 31253.445
0.010828378 -0.05 -0.017690314 31528.051
0.0099901248 -0.05 -0.017025149 31810.759
0.0091759198 -0.05 -0.016348644 32100.636
0.008386597 -0.05 -0.0156605 32396.5
0.0076231725 -0.05 -0.014960218 32700.211
0.0068867853 -0.05 -0.014247452 33007.9
0.0061787359 -0.05 -0.013521943 33318.241
0.0055003792 -0.05 -0.012783302 33627.72
0.0048530826 -0.05 -0.012031363 33933.091
0.0042385571 -0.05 -0.011266143 34230.754
0.0036585397 -0.05 -0.010487553 34515.362
0.0031148318 -0.05 -0.0096957287 34777.896
0.0026094399 -0.05 -0.0088912322 35007.251
0.0021442246 -0.05 -0.0080745628 35199.591
0.0017210465 -0.05 -0.0072465895 35356.602
0.0013418093 -0.05 -0.0064087151 35462.011
0.0010080919 -0.05 -0.0055623679 35503.746
0.00072127228 -0.05 -0.0047092571 35481.097
0.00048251081 -0.05 -0.0038515496 35388.025
0.00029236329 -0.05 -0.0029916286 35221.136
0.0001508317 -0.05 -0.0021320102 34988.144
5.7495879e-05 -0.05 -0.0012752716 34677.92
1.1394864e-05 -0.05 -0.00042397109 34285.571
0.99768066 -0.05 -0.00033611804 26482.363
0.99304169 -0.05 -0.0010063364 26368.294
0.98840215 -0.05 -0.0016726212 26246.384
0.98376207 -0.05 -0.0023350721 26142.906
0.97912144 -0.05 -0.0029936636 26044.537
0.97448026 -0.05 -0.00364841 25953.323
0.96983855 -0.05 -0.0042993733 25867.018
0.96519632 -0.05 -0.0049465845 25785.434
0.96055357 -0.05 -0.0055900577 25707.856
0.95591031 -0.05 -0.0062298653 25633.752
0.95126654 -0.05 -0.0068660327 25562.998
0.94662228 -0.05 -0.0074985225 25495.279
0.94197752 -0.05 -0.0081274235 25430.126
0.9373323 -0.05 -0.008752761 25367.589
0.93268659 -0.05 -0.0093745713 25307.155
0.92804042 -0.05 -0.0099928964 25248.98
0.92339379 -0.05 -0.010607714 25192.84
0.91874669 -0.05 -0.011219031 25138.638
0.91409915 -0.05 -0.011826962 25085.826
0.90945116 -0.05 -0.012431486 25034.984
0.90480273 -0.05 -0.013032571 24985.386
0.90015387 -0.05 -0.013630361 24937.11
0.89550457 -0.05 -0.014224739 24890.504
0.89085486 -0.05 -0.014815813 24844.532
0.88620473 -0.05 -0.01540363 24800.146
0.88155418 -0.05 -0.0159881 24756.685
0.87690323 -0.05 -0.016569356 24714.126
0.87225187 -0.05 -0.017147383 24672.623
0.86760011 -0.05 -0.017722168 24632.044
0.86294795 -0.05 -0.018293719 24592.4
0.85829541 -0.05 -0.018862095 24553.394
0.85364248 -0.05 -0.01942729 24515.366
0.84898916 -0.05 -0.01998931 24477.858
0.84433547 -0.05 -0.020548224 24441.156
0.8396814 -0.05 -0.021103928 24405.427
0.83502695 -0.05 -0.021656533 24369.813
0.83037214 -0.05 -0.022206072 24335.116
0.82571696 -0.05 -0.022752481 24300.874
0.82106143 -0.05 -0.023295768 24267.479
0.81640553 -0.05 -0.023835961 24234.294
0.81174927 -0.05 -0.024373126 24201.61
0.80709266 -0.05 -0.024907211 24169.341
0.80243571 -0.05 -0.025438235 24137.487
0.7977784 -0.05 -0.025966147 24106.342
0.79312074 -0.05 -0.026490982 24075.284
0.78846275 -0.05 -0.027012845 24044.432
0.78380442 -0.05 -0.027531686 24014.093
0.77914575 -0.05 -0.028047403 23984.356
0.77448674 -0.05 -0.028560079 23954.539
0.76982739 -0.05 -0.029069752 23925.283
0.76516771 -0.05 -0.02957633 23896.412
0.7605077 -0.05 -0.030079852 23867.722
0.75584737 -0.05 -0.030580367 23839.151
0.75118671 -0.05 -0.03107785 23810.944
0.74652573 -0.05 -0.031572241 23783.127
0.74186441 -0.05 -0.032063551 23755.55
0.73720278 -0.05 -0.032551782 23728.234
0.73254083 -0.05 -0.03303698 23700.866
0.72787854 -0.05 -0.033519069 23674.074
0.72321595 -0.05 -0.033998064 23647.007
0.71855304 -0.05 -0.034473962 23620.649
0.71388981 -0.05 -0.034946671 23594.344
0.70922626 -0.05 -0.035416302 23567.919
0.7045624 -0.05 -0.03588285 23541.606
0.69989823 -0.05 -0.036346252 23515.446
0.69523375 -0.05 -0.036806454 23489.668
0.69056894 -0.05 -0.037263403 23464.106
0.68590382 -0.05 -0.037717206 23438.236
0.68123839 -0.05 -0.038167801 23412.971
0.67657265 -0.05 -0.038615123 23387.483
0.67190661 -0.05 -0.039059237 23362.166
0.66724025 -0.05 -0.039500049 23337.201
0.66257357 -0.05 -0.039937521 23312.331
0.6579066 -0.05 -0.040371712 23287.284
0.65323931 -0.05 -0.040802591 23262.443
0.64857171 -0.05 -0.041230085 23237.705
0.6439038 -0.05 -0.041654149 23213.21
0.63923558 -0.05 -0.042074786 23188.582
0.63456705 -0.05 -0.042492 23164.084
0.62989821 -0.05 -0.042905734 23139.641
0.62522906 -0.05 -0.043315943 23115.303
0.62055961 -0.05 -0.043722625 23090.838
0.61588983 -0.05 -0.044125719 23066.65
0.61121975 -0.05 -0.044525219 23042.191
0.60654937 -0.05 -0.044921074 23018.207
0.60187867 -0.05 -0.045313219 22994.023
0.59720766 -0.05 -0.045701683 22969.892
0.59253634 -0.05 -0.046086399 22945.861
0.58786471 -0.05 -0.046467288 22922.065
0.58319277 -0.05 -0.046844345 22898.147
0.57852051 -0.05 -0.047217535 22874.471
0.57384795 -0.05 -0.047586814 22850.631
0.56917507 -0.05 -0.047952124 22827.033
0.56450189 -0.05 -0.048313436 22803.187
0.55982839 -0.05 -0.048670677 22779.804
0.55515457 -0.05 -0.04902381 22756.096
0.55048045 -0.05 -0.04937281 22732.808
0.54580601 -0.05 -0.04971755 22709.547
0.54113126 -0.05 -0.050058049 22686.064
0.5364562 -0.05 -0.050394263 22662.613
0.53178083 -0.05 -0.050726133 22639.058
0.52710515 -0.05 -0.05105357 22615.896
0.52242915 -0.05 -0.051376464 22592.891
0.51775284 -0.05 -0.051694815 22569.836
0.51307623 -0.05 -0.052008601 22546.846
0.5083993 -0.05 -0.052317709 22524.134
0.50372205 -0.05 -0.052622098 22501.251
0.4990445 -0.05 -0.052921702 22478.66
0.49436664 -0.05 -0.053216428 22456.031
0.48968848 -0.05 -0.053506199 22433.75
0.48501001 -0.05 -0.053790938 22411.444
0.48033122 -0.05 -0.054070627 22389.276
0.47565213 -0.05 -0.05434516 22367.361
0.47097274 -0.05 -0.05461447 22345.375
0.46629305 -0.05 -0.054878504 22323.51
0.46161306 -0.05 -0.055137129 22301.955
0.45693277 -0.05 -0.055390258 22280.535
0.45225217 -0.05 -0.05563783 22259.288
0.44757129 -0.05 -0.055879797 22238.006
0.44289011 -0.05 -0.056116052 22217.212
0.43820865 -0.05 -0.056346461 22196.721
0.43352689 -0.05 -0.056570934 22176.487
0.42884486 -0.05 -0.056789429 22156.083
0.42416254 -0.05 -0.057001839 22136.088
0.41947994 -0.05 -0.057208045 22116.213
0.41479707 -0.05 -0.057407955 22096.851
0.41011393 -0.05 -0.057601449 22077.758
0.40543053 -0.05 -0.057788457 22058.917
0.40074687 -0.05 -0.057968847 22040.526
0.39606296 -0.05 -0.058142512 22022.3
0.3913788 -0.05 -0.05830933 22004.565
0.38669439 -0.05 -0.058469176 21987.093
0.38200975 -0.05 -0.058621944 21970.112
0.37732488 -0.05 -0.058767528 21953.504
0.37263978 -0.05 -0.058905769 21937.755
0.36795448 -0.05 -0.059036525 21922.311
0.36326896 -0.05 -0.059159726 21907.314
0.35858325 -0.05 -0.059275201 21892.983
0.35389735 -0.05 -0.059382803 21878.988
0.34921128 -0.05 -0.05948244 21865.362
0.34452504 -0.05 -0.059573923 21852.668
0.33983865 -0.05 -0.059657063 21840.698
0.33515211 -0.05 -0.059731741 21829.347
0.33046544 -0.05 -0.059797856 21818.424
0.32577866 -0.05 -0.059855197 21808.613
0.32109177 -0.05 -0.059903556 21799.384
0.31640481 -0.05 -0.059942821 21790.725
0.31171777 -0.05 -0.059972784 21782.411
0.30703069 -0.05 -0.059993273 21774.593
0.30234356 -0.05 -0.060004087 21769.62
