# p  FACE_DATA 150
# x y z  p
0.29576437 -0.05 0.059999701 96463.916
0.28738431 -0.05 0.059968924 96391.407
0.27918472 -0.05 0.059906283 96320.935
0.27116186 -0.05 0.05981265 96250.455
0.26331203 -0.05 0.059689027 96180.128
0.25563166 -0.05 0.059536266 96109.904
0.24811723 -0.05 0.059355154 96040.059
0.24076528 -0.05 0.059146557 95970.407
0.23357246 -0.05 0.058911358 95900.817
0.22653546 -0.05 0.058650341 95831.141
0.21965107 -0.05 0.058364202 95761.299
0.21291613 -0.05 0.058053757 95690.996
0.20632755 -0.05 0.057719714 95621.298
0.19988232 -0.05 0.057362758 95551.401
0.19357748 -0.05 0.056983702 95481.396
0.18741014 -0.05 0.056583118 95411.835
0.18137746 -0.05 0.056161624 95341.914
0.17547671 -0.05 0.055719844 95271.846
0.16970518 -0.05 0.055258362 95201.403
0.16406021 -0.05 0.05477783 95130.715
0.15853921 -0.05 0.054278745 95059.791
0.15313967 -0.05 0.053761636 94988.396
0.14785914 -0.05 0.053226963 94917.548
0.14269518 -0.05 0.052675259 94845.86
0.13764543 -0.05 0.052106992 94774.195
0.13270762 -0.05 0.051522466 94702.124
0.12787949 -0.05 0.050922169 94629.192
0.12315883 -0.05 0.050306449 94556.144
0.11854353 -0.05 0.049675628 94482.294
0.11403148 -0.05 0.04903008 94407.619
0.10962065 -0.05 0.04837006 94332.182
0.10530908 -0.05 0.047695796 94256.237
0.10109483 -0.05 0.047007509 94179.736
0.096976017 -0.05 0.046305459 94102.131
0.092950808 -0.05 0.04558984 94023.133
0.08901745 -0.05 0.044860715 93942.851
0.085174232 -0.05 0.044118143 93861.27
0.081419479 -0.05 0.043362243 93778.125
0.077751578 -0.05 0.042593081 93693.376
0.074168981 -0.05 0.041810614 93608.001
0.070670198 -0.05 0.041014781 93522.353
0.06725379 -0.05 0.040205491 93435.999
0.06391837 -0.05 0.039382651 93348.067
0.060662655 -0.05 0.038545988 93260.582
0.057485397 -0.05 0.037695273 93171.572
0.054385413 -0.05 0.036830261 93082.057
0.051361621 -0.05 0.035950545 92990.627
0.048412992 -0.05 0.035055749 92897.65
0.045538629 -0.05 0.034145316 92804.191
0.042737712 -0.05 0.03321865 92709.799
0.040009498 -0.05 0.032275149 92613.433
0.037353406 -0.05 0.031314032 92514.845
0.034768993 -0.05 0.030334375 92414.707
0.032255944 -0.05 0.02933521 92315.799
0.029814132 -0.05 0.028315426 92219.48
0.027443661 -0.05 0.027273729 92124.662
0.025144824 -0.05 0.026208776 92031.26
0.022918276 -0.05 0.02511886 91943.293
0.020764984 -0.05 0.02400217 91864.315
0.018686283 -0.05 0.022856725 91801.109
0.016684024 -0.05 0.021680228 91760.588
0.01476059 -0.05 0.020470219 91752.149
0.012919252 -0.05 0.019223865 91786.471
0.011164249 -0.05 0.017938283 91867.193
0.0095007128 -0.05 0.016610449 91998.974
0.0079348886 -0.05 0.015236971 92206.239
0.006474941 -0.05 0.013814774 92544.839
0.0051312596 -0.05 0.012341958 93031.443
0.0039150106 -0.05 0.010816511 93692.583
0.0028396284 -0.05 0.009238845 94546.968
0.0019206554 -0.05 0.007613688 95646.496
0.0011720639 -0.05 0.0059475212 96948.99
0.00060615611 -0.05 0.004252283 98420.156
0.00023063831 -0.05 0.0025452878 99949.417
4.5460517e-05 -0.05 0.0008455405 101444.13
0.99536103 -0.05 0.00067021835 101387.34
0.98608198 -0.05 0.0020028877 101175.72
0.97680071 -0.05 0.0033200849 100978.72
0.96751731 -0.05 0.0046220425 100820.13
0.95823181 -0.05 0.0059090613 100680.53
0.94894428 -0.05 0.0071813587 100558.04
0.93965479 -0.05 0.0084391859 100447.97
0.93036339 -0.05 0.0096828487 100348.09
0.92107012 -0.05 0.010912491 100256.36
0.91177504 -0.05 0.012128333 100171.51
0.90247819 -0.05 0.013330648 100092.24
0.89317963 -0.05 0.014519511 100018.15
0.88387936 -0.05 0.015695054 99948.117
0.87457746 -0.05 0.016857552 99881.704
0.86527394 -0.05 0.01800713 99818.433
0.85596885 -0.05 0.019143875 99757.938
0.84666223 -0.05 0.020267984 99699.542
0.8373541 -0.05 0.021379502 99643.185
0.82804448 -0.05 0.022478516 99588.354
0.8187334 -0.05 0.023565119 99535.073
0.8094209 -0.05 0.024639397 99482.815
0.80010698 -0.05 0.025701394 99431.664
0.79079168 -0.05 0.026751168 99381.2
0.78147501 -0.05 0.027788748 99331.694
0.77215699 -0.05 0.028814138 99282.641
0.76283764 -0.05 0.029827333 99234.294
0.75351698 -0.05 0.030828337 99186.184
0.74419501 -0.05 0.03181713 99138.681
0.73487174 -0.05 0.032793639 99091.289
0.72554719 -0.05 0.033757832 99044.275
0.71622136 -0.05 0.034709535 98997.567
0.70689427 -0.05 0.03564879 98950.984
0.69756592 -0.05 0.036575541 98904.493
0.68823633 -0.05 0.037489546 98858.154
0.67890547 -0.05 0.03839067 98811.843
0.66957337 -0.05 0.039278803 98765.62
0.66024004 -0.05 0.040153805 98719.242
0.65090546 -0.05 0.04101549 98672.736
0.64156964 -0.05 0.041863622 98626.141
0.63223258 -0.05 0.042697993 98579.443
0.62289428 -0.05 0.043518409 98532.479
0.61355475 -0.05 0.04432459 98485.273
0.60421397 -0.05 0.045116236 98437.824
0.59487195 -0.05 0.045893096 98390.013
0.58552869 -0.05 0.046654869 98341.738
0.57618419 -0.05 0.047401205 98292.793
0.56683843 -0.05 0.048131797 98243.266
0.55749143 -0.05 0.048846241 98193.249
0.54814318 -0.05 0.049544112 98142.799
0.53879368 -0.05 0.050225066 98091.599
0.52944294 -0.05 0.050888717 98039.801
0.52009095 -0.05 0.051534504 97987.469
0.51073771 -0.05 0.052161963 97934.437
0.50138323 -0.05 0.052770675 97880.648
0.49202751 -0.05 0.05336005 97826.269
0.48267057 -0.05 0.053929509 97770.938
0.47331239 -0.05 0.054478508 97714.812
0.46395301 -0.05 0.055006444 97657.753
0.45459243 -0.05 0.05551264 97600.01
0.44523065 -0.05 0.055996468 97541.131
0.43586772 -0.05 0.056457197 97481.667
0.42650365 -0.05 0.05689408 97421.151
0.41713847 -0.05 0.057306402 97359.999
0.4077722 -0.05 0.057693321 97297.85
0.39840488 -0.05 0.058053993 97234.955
0.38903656 -0.05 0.058387503 97170.882
0.37966728 -0.05 0.058692933 97105.47
0.3702971 -0.05 0.058969274 97038.748
0.36092607 -0.05 0.059215505 96970.895
0.35155429 -0.05 0.059430617 96901.707
0.34218182 -0.05 0.059613395 96831.733
0.33280876 -0.05 0.059762649 96760.601
0.3234352 -0.05 0.059877122 96688.24
0.31406128 -0.05 0.059955444 96612.349
0.30468712 -0.05 0.059996221 96534.697
