# p  FACE_DATA 300
# x y z  p
0.29787915 -0.05 -0.060005454 21726.196
0.29366024 -0.05 -0.059998184 21721.744
0.28948669 -0.05 -0.059982824 21718.93
0.28535801 -0.05 -0.05995956 21717.003
0.28127374 -0.05 -0.05992843 21716.226
0.27723341 -0.05 -0.059889544 21715.89
0.27323659 -0.05 -0.059843056 21716.45
0.2692828 -0.05 -0.059789027 21718.033
0.26537161 -0.05 -0.059727601 21720.185
0.26150257 -0.05 -0.05965892 21723.258
0.25767524 -0.05 -0.059583046 21727.453
0.2538892 -0.05 -0.059500074 21732.677
0.25014401 -0.05 -0.059410118 21738.923
0.24643926 -0.05 -0.059313284 21746.204
0.24277452 -0.05 -0.059209673 21754.479
0.23914938 -0.05 -0.059099387 21763.7
0.23556343 -0.05 -0.058982537 21773.642
0.23201627 -0.05 -0.058859254 21784.482
0.2285075 -0.05 -0.058729541 21796.948
0.22503671 -0.05 -0.058593532 21809.583
0.22160352 -0.05 -0.058451379 21823.449
0.21820754 -0.05 -0.058303115 21838.166
0.21484838 -0.05 -0.058148846 21853.877
0.21152567 -0.05 -0.05798866 21870.503
0.20823903 -0.05 -0.057822651 21888.134
0.20498809 -0.05 -0.057650874 21906.864
0.20177248 -0.05 -0.057473468 21926.035
0.19859184 -0.05 -0.057290478 21946.737
0.1954458 -0.05 -0.057101994 21967.433
0.19233402 -0.05 -0.056908168 21989.217
0.18925614 -0.05 -0.056708999 22012.291
0.18621181 -0.05 -0.056504562 22036.556
0.18320071 -0.05 -0.056294919 22061.917
0.18022246 -0.05 -0.056080229 22087.388
0.17727675 -0.05 -0.055860526 22114.627
0.17436324 -0.05 -0.05563585 22141.917
0.1714816 -0.05 -0.055406376 22170.18
0.16863151 -0.05 -0.055172052 22200.304
0.16581265 -0.05 -0.054932944 22230.871
0.16302469 -0.05 -0.054689208 22262.216
0.16026732 -0.05 -0.054440898 22294.382
0.15754024 -0.05 -0.054188056 22327.656
0.15484313 -0.05 -0.053930725 22361.841
0.15217569 -0.05 -0.053668978 22396.859
0.14953762 -0.05 -0.053402888 22433.051
0.14692863 -0.05 -0.053132457 22470.759
0.14434842 -0.05 -0.052857799 22508.316
0.14179669 -0.05 -0.052579044 22546.959
0.13927317 -0.05 -0.05229612 22587.446
0.13677758 -0.05 -0.052009061 22628.798
0.13430961 -0.05 -0.051717985 22670.875
0.13186901 -0.05 -0.051422993 22713.258
0.1294555 -0.05 -0.051124081 22757.459
0.12706881 -0.05 -0.050821224 22802.835
0.12470868 -0.05 -0.050514504 22849.085
0.12237483 -0.05 -0.05020403 22895.621
0.120067 -0.05 -0.049889836 22943.698
0.11778495 -0.05 -0.049571874 22992.924
0.11552842 -0.05 -0.049250263 23042.472
0.11329715 -0.05 -0.048924992 23093.841
0.1110909 -0.05 -0.048596121 23145.269
0.10890943 -0.05 -0.048263656 23199.443
0.10675251 -0.05 -0.047927554 23254.081
0.10461987 -0.05 -0.047587958 23309.35
0.1025113 -0.05 -0.047244937 23365.12
0.10042655 -0.05 -0.046898432 23422.838
0.098365405 -0.05 -0.046548446 23480.904
0.096327639 -0.05 -0.046195043 23540.48
0.094313028 -0.05 -0.045838237 23601.156
0.092321357 -0.05 -0.045478019 23663.973
0.090352417 -0.05 -0.04511438 23727.492
0.088405979 -0.05 -0.044747421 23791.816
0.086481845 -0.05 -0.044377096 23858.068
0.084579815 -0.05 -0.044003384 23925.084
0.082699669 -0.05 -0.043626384 23993.257
0.080841229 -0.05 -0.043246005 24063.934
0.0790043 -0.05 -0.042862236 24134.983
0.077188665 -0.05 -0.0424752 24207.234
0.07539416 -0.05 -0.042084789 24281.917
0.073620599 -0.05 -0.041690997 24357.211
0.071867788 -0.05 -0.041293877 24433.963
0.070135557 -0.05 -0.040893385 24512.191
0.068423742 -0.05 -0.040489457 24592.699
0.066732169 -0.05 -0.040082112 24674.344
0.065060663 -0.05 -0.039671361 24758.304
0.063409062 -0.05 -0.039257174 24843.682
0.061777219 -0.05 -0.038839488 24931.122
0.060164984 -0.05 -0.038418265 25019.295
0.058572196 -0.05 -0.037993513 25109.81
0.056998721 -0.05 -0.037565159 25202.555
0.055444419 -0.05 -0.03713316 25297.356
0.053909142 -0.05 -0.036697516 25393.638
0.052392764 -0.05 -0.036258171 25492.494
0.050895177 -0.05 -0.035815009 25593.503
0.049416244 -0.05 -0.035368033 25696.249
0.047955856 -0.05 -0.034917167 25801.791
0.046513915 -0.05 -0.034462309 25909.412
0.045090302 -0.05 -0.034003445 26019.387
0.043684931 -0.05 -0.033540468 26132.929
0.042297731 -0.05 -0.03307324 26249.925
0.040928604 -0.05 -0.032601735 26369.769
0.039577476 -0.05 -0.032125845 26493.532
0.038244292 -0.05 -0.03164545 26620.805
0.036928981 -0.05 -0.031160474 26751.91
0.0356315 -0.05 -0.030670795 26886.682
0.03435181 -0.05 -0.030176299 27026.174
0.033089918 -0.05 -0.029676761 27171.058
0.031845783 -0.05 -0.029172106 27318.403
0.030619394 -0.05 -0.028662209 27470.601
0.029410776 -0.05 -0.028146878 27626.535
0.028219949 -0.05 -0.027625962 27787.436
0.027046957 -0.05 -0.027099267 27952.808
0.025891857 -0.05 -0.026566614 28123.63
0.02475474 -0.05 -0.026027768 28299.794
0.023635681 -0.05 -0.025482558 28481.634
0.022534817 -0.05 -0.024930718 28669.823
0.021452274 -0.05 -0.024372036 28863.097
0.020388213 -0.05 -0.023806274 29062.161
0.019342865 -0.05 -0.023233111 29266.875
0.018316468 -0.05 -0.022652259 29478.436
0.017309264 -0.05 -0.02206346 29698.072
0.016321577 -0.05 -0.021466368 29926.705
0.015353757 -0.05 -0.020860644 30162.95
0.014406156 -0.05 -0.020245997 30407.346
0.013479274 -0.05 -0.019622013 30660.099
0.012573638 -0.05 -0.018988322 30920.798
0.0116898 -0.05 -0.018344552 31189.271
0.010828378 -0.05 -0.017690314 31465.207
0.0099901248 -0.05 -0.017025149 31749.361
0.0091759198 -0.05 -0.016348644 32040.846
0.008386597 -0.05 -0.0156605 32338.796
0.0076231725 -0.05 -0.014960218 32644.33
0.0068867853 -0.05 -0.014247452 32954.364
0.0061787359 -0.05 -0.013521943 33267.417
0.0055003792 -0.05 -0.012783302 33579.932
0.0048530826 -0.05 -0.012031363 33888.656
0.0042385571 -0.05 -0.011266143 34190.054
0.0036585397 -0.05 -0.010487553 34478.997
0.0031148318 -0.05 -0.0096957287 34746.71
0.0026094399 -0.05 -0.0088912322 34981.586
0.0021442246 -0.05 -0.0080745628 35178.586
0.0017210465 -0.05 -0.0072465895 35341.396
0.0013418093 -0.05 -0.0064087151 35453.616
0.0010080919 -0.05 -0.0055623679 35502.085
0.00072127228 -0.05 -0.0047092571 35486.163
0.00048251081 -0.05 -0.0038515496 35400.434
0.00029236329 -0.05 -0.0029916286 35240.323
0.0001508317 -0.05 -0.0021320102 35013.679
5.7495879e-05 -0.05 -0.0012752716 34711.412
1.1394864e-05 -0.05 -0.00042397109 34327.126
0.99768066 -0.05 -0.00033611804 26519.967
0.99304169 -0.05 -0.0010063364 26403.669
0.98840215 -0.05 -0.0016726212 26280.033
0.98376207 -0.05 -0.0023350721 26175.045
0.97912144 -0.05 -0.0029936636 26075.317
0.97448026 -0.05 -0.00364841 25982.846
0.96983855 -0.05 -0.0042993733 25895.364
0.96519632 -0.05 -0.0049465845 25812.673
0.96055357 -0.05 -0.0055900577 25734.052
0.95591031 -0.05 -0.0062298653 25658.965
0.95126654 -0.05 -0.0068660327 25587.279
0.94662228 -0.05 -0.0074985225 25518.672
0.94197752 -0.05 -0.0081274235 25452.671
0.9373323 -0.05 -0.008752761 25389.316
0.93268659 -0.05 -0.0093745713 25328.092
0.92804042 -0.05 -0.0099928964 25269.157
0.92339379 -0.05 -0.010607714 25212.287
0.91874669 -0.05 -0.011219031 25157.387
0.91409915 -0.05 -0.011826962 25103.91
0.90945116 -0.05 -0.012431486 25052.428
0.90480273 -0.05 -0.013032571 25002.217
0.90015387 -0.05 -0.013630361 24953.353
0.89550457 -0.05 -0.014224739 24906.178
0.89085486 -0.05 -0.014815813 24859.658
0.88620473 -0.05 -0.01540363 24814.737
0.88155418 -0.05 -0.0159881 24770.755
0.87690323 -0.05 -0.016569356 24727.688
0.87225187 -0.05 -0.017147383 24685.692
0.86760011 -0.05 -0.017722168 24644.636
0.86294795 -0.05 -0.018293719 24604.528
0.85829541 -0.05 -0.018862095 24565.073
0.85364248 -0.05 -0.01942729 24526.606
0.84898916 -0.05 -0.01998931 24488.668
0.84433547 -0.05 -0.020548224 24451.546
0.8396814 -0.05 -0.021103928 24415.408
0.83502695 -0.05 -0.021656533 24379.401
0.83037214 -0.05 -0.022206072 24344.32
0.82571696 -0.05 -0.022752481 24309.702
0.82106143 -0.05 -0.023295768 24275.942
0.81640553 -0.05 -0.023835961 24242.408
0.81174927 -0.05 -0.024373126 24209.394
0.80709266 -0.05 -0.024907211 24176.809
0.80243571 -0.05 -0.025438235 24144.644
0.7977784 -0.05 -0.025966147 24113.191
0.79312074 -0.05 -0.026490982 24081.83
0.78846275 -0.05 -0.027012845 24050.68
0.78380442 -0.05 -0.027531686 24020.046
0.77914575 -0.05 -0.028047403 23990.018
0.77448674 -0.05 -0.028560079 23959.913
0.76982739 -0.05 -0.029069752 23930.372
0.76516771 -0.05 -0.02957633 23901.219
0.7605077 -0.05 -0.030079852 23872.246
0.75584737 -0.05 -0.030580367 23843.393
0.75118671 -0.05 -0.03107785 23814.902
0.74652573 -0.05 -0.031572241 23786.796
0.74186441 -0.05 -0.032063551 23758.93
0.73720278 -0.05 -0.032551782 23731.333
0.73254083 -0.05 -0.03303698 23703.687
0.72787854 -0.05 -0.033519069 23676.612
0.72321595 -0.05 -0.033998064 23649.253
0.71855304 -0.05 -0.034473962 23622.599
0.71388981 -0.05 -0.034946671 23595.993
0.70922626 -0.05 -0.035416302 23569.267
0.7045624 -0.05 -0.03588285 23542.649
0.69989823 -0.05 -0.036346252 23516.181
0.69523375 -0.05 -0.036806454 23490.085
0.69056894 -0.05 -0.037263403 23464.199
0.68590382 -0.05 -0.037717206 23438.003
0.68123839 -0.05 -0.038167801 23412.41
0.67657265 -0.05 -0.038615123 23386.588
0.67190661 -0.05 -0.039059237 23360.934
0.66724025 -0.05 -0.039500049 23335.627
0.66257357 -0.05 -0.039937521 23310.415
0.6579066 -0.05 -0.040371712 23285.026
0.65323931 -0.05 -0.040802591 23259.847
0.64857171 -0.05 -0.041230085 23234.771
0.6439038 -0.05 -0.041654149 23209.933
0.63923558 -0.05 -0.042074786 23184.954
0.63456705 -0.05 -0.042492 23160.104
0.62989821 -0.05 -0.042905734 23135.309
0.62522906 -0.05 -0.043315943 23110.622
0.62055961 -0.05 -0.043722625 23085.806
0.61588983 -0.05 -0.044125719 23061.258
0.61121975 -0.05 -0.044525219 23036.437
0.60654937 -0.05 -0.044921074 23012.087
0.60187867 -0.05 -0.045313219 22987.535
0.59720766 -0.05 -0.045701683 22963.035
0.59253634 -0.05 -0.046086399 22938.634
0.58786471 -0.05 -0.046467288 22914.46
0.58319277 -0.05 -0.046844345 22890.161
0.57852051 -0.05 -0.047217535 22866.109
0.57384795 -0.05 -0.047586814 22841.9
0.56917507 -0.05 -0.047952124 22817.927
0.56450189 -0.05 -0.048313436 22793.696
0.55982839 -0.05 -0.048670677 22769.919
0.55515457 -0.05 -0.04902381 22745.817
0.55048045 -0.05 -0.04937281 22722.137
0.54580601 -0.05 -0.04971755 22698.489
0.54113126 -0.05 -0.050058049 22674.614
0.5364562 -0.05 -0.050394263 22650.76
0.53178083 -0.05 -0.050726133 22626.794
0.52710515 -0.05 -0.05105357 22603.217
0.52242915 -0.05 -0.051376464 22579.789
0.51775284 -0.05 -0.051694815 22556.304
0.51307623 -0.05 -0.052008601 22532.88
0.5083993 -0.05 -0.052317709 22509.729
0.50372205 -0.05 -0.052622098 22486.404
0.4990445 -0.05 -0.052921702 22463.37
0.49436664 -0.05 -0.053216428 22440.296
0.48968848 -0.05 -0.053506199 22417.561
0.48501001 -0.05 -0.053790938 22394.787
0.48033122 -0.05 -0.054070627 22372.141
0.47565213 -0.05 -0.05434516 22349.746
0.47097274 -0.05 -0.05461447 22327.275
0.46629305 -0.05 -0.054878504 22304.919
0.46161306 -0.05 -0.055137129 22282.86
0.45693277 -0.05 -0.055390258 22260.925
0.45225217 -0.05 -0.05563783 22239.155
0.44757129 -0.05 -0.055879797 22217.341
0.44289011 -0.05 -0.056116052 22196.009
0.43820865 -0.05 -0.056346461 22174.977
0.43352689 -0.05 -0.056570934 22154.204
0.42884486 -0.05 -0.056789429 22133.252
0.42416254 -0.05 -0.057001839 22112.691
0.41947994 -0.05 -0.057208045 22092.235
0.41479707 -0.05 -0.057407955 22072.289
0.41011393 -0.05 -0.057601449 22052.609
0.40543053 -0.05 -0.057788457 22033.177
0.40074687 -0.05 -0.057968847 22014.188
0.39606296 -0.05 -0.058142512 21995.351
0.3913788 -0.05 -0.05830933 21976.995
0.38669439 -0.05 -0.058469176 21958.894
0.38200975 -0.05 -0.058621944 21941.278
0.37732488 -0.05 -0.058767528 21924.032
0.37263978 -0.05 -0.058905769 21907.643
0.36795448 -0.05 -0.059036525 21891.557
0.36326896 -0.05 -0.059159726 21875.914
0.35858325 -0.05 -0.059275201 21860.937
0.35389735 -0.05 -0.059382803 21846.295
0.34921128 -0.05 -0.05948244 21832.015
0.34452504 -0.05 -0.059573923 21818.66
0.33983865 -0.05 -0.059657063 21806.04
0.33515211 -0.05 -0.059731741 21794.057
0.33046544 -0.05 -0.059797856 21782.511
0.32577866 -0.05 -0.059855197 21772.055
0.32109177 -0.05 -0.059903556 21762.14
0.31640481 -0.05 -0.059942821 21752.798
0.31171777 -0.05 -0.059972784 21743.872
0.30703069 -0.05 -0.059993273 21735.42
0.30234356 -0.05 -0.060004087 21729.555
