/*--------------------------------*- C++ -*----------------------------------*\
| =========                 |                                                 |
| \\      /  F ield         | OpenFOAM: The Open Source CFD Toolbox           |
|  \\    /   O peration     | Version:  2306                                  |
|   \\  /    A nd           | Website:  www.openfoam.com                      |
|    \\/     M anipulation  |                                                 |
\*---------------------------------------------------------------------------*/
FoamFile
{
    version     2.0;
    format      ascii;
    arch        "LSB;label=32;scalar=64";
    class       volScalarField;
    location    "750";
    object      turbulenceProperties:k;
}
// * * * * * * * * * * * * * * * * * * * * * * * * * * * * * * * * * * * * * //

dimensions      [0 2 -2 0 0 0 0];

internalField   nonuniform List<scalar> 
10720
(
0.0199781
0.0232533
0.0274179
0.03305
0.0396728
0.0480533
0.0587087
0.0718507
0.0885053
0.109757
0.137256
0.17364
0.222542
0.28991
0.385878
0.526366
0.742768
1.07626
1.6618
2.57328
4.62744
7.73379
18.1059
35.3437
39.1657
37.4694
36.8195
37.4944
38.3301
38.5424
38.0322
36.8968
35.062
32.5518
29.3105
25.4143
20.1269
14.8751
3.46756
0.0170387
0.0146483
0.0119551
0.00963851
0.00744359
0.00545907
0.00385213
0.00288489
0.00301492
0.00406982
0.0060313
0.00903307
0.0133978
0.019637
0.0284189
0.0408172
0.0586625
0.0853445
0.12707
0.195059
0.311628
0.517848
0.911258
1.66855
3.31961
6.78861
15.1732
31.2658
44.3053
49.901
51.4883
51.7479
51.4499
50.7221
49.6017
48.1503
46.0271
43.5545
35.6742
0.00310761
0.00309044
0.0030551
0.00296698
0.00283057
0.00267373
0.0024886
0.00228038
0.00207426
0.0018721
0.00167936
0.00154523
0.00152589
0.00167374
0.00216393
0.00336934
0.00632414
0.0130685
0.0313854
0.0767771
0.227318
0.627437
1.92733
6.18313
12.101
18.1965
23.9248
27.986
28.7951
26.42
22.5167
18.5651
15.3598
12.9029
11.0154
9.51823
8.47188
7.38118
7.92663
0.00307934
0.00303751
0.00295212
0.00282555
0.00265253
0.00242442
0.00215683
0.00189734
0.00165748
0.00141947
0.001193
0.000996945
0.000831307
0.000690806
0.000571731
0.000471398
0.00038628
0.000314249
0.000251124
0.000193457
0.000136416
8.06513e-05
2.79568e-05
4.55976e-06
1.16252e-05
0.00159576
0.00854127
0.0688309
0.23145
0.451776
0.673433
0.867774
1.03115
1.1749
1.30944
1.44803
1.59466
1.92191
2.67276
0.00208395
0.00206749
0.00202087
0.0019496
0.00187507
0.00179316
0.00171036
0.00163591
0.00157187
0.0015222
0.00148378
0.00146171
0.00145581
0.00146814
0.00147203
0.001432
0.00120494
0.00108775
0.000360325
0.00641746
0.0125493
0.00063348
0.00686419
0.0158427
0.178933
0.641079
1.64125
3.70849
7.32687
12.1046
16.4264
18.5514
18.1375
16.2866
14.1307
12.1063
10.52
8.70943
9.78643
0.00210019
0.00209761
0.00209204
0.00205481
0.00198873
0.00187779
0.00172483
0.00155016
0.00138784
0.00122085
0.00104116
0.000867171
0.000711458
0.000577375
0.000466677
0.000377303
0.000307653
0.00025483
0.00021641
0.000188813
0.0001698
0.000157462
0.000150685
0.000146971
0.000146801
0.00014586
0.000155152
9.22758e-05
0.000635763
0.00417637
0.0118343
0.0247095
0.0551204
0.115003
0.203563
0.312044
0.429968
0.514679
0.878562
0.00175895
0.00176259
0.00175374
0.00173914
0.00170901
0.00166416
0.00160825
0.00153845
0.00145868
0.00137045
0.00127564
0.00117557
0.00107122
0.000964457
0.000856254
0.00074307
0.000627367
0.000534445
0.000414006
0.000226937
2.93713e-05
8.40335e-05
0
0.00397787
0.0211216
0.0426035
0.0596604
0.00143312
0.0341068
0.357942
1.59003
4.33423
8.12509
11.2751
12.6324
12.4501
11.7085
10.248
11.0365
0.00174008
0.0017115
0.00166663
0.00161258
0.00154482
0.0014561
0.00135251
0.00124228
0.00112751
0.00100294
0.000874202
0.000753505
0.000646868
0.000554966
0.000477316
0.000412218
0.000358662
0.000315044
0.000280036
0.000251537
0.000228379
0.000208929
0.000191498
0.000173166
0.000154333
0.000138679
0.000126853
0.000118356
0.000108053
9.47721e-05
7.11868e-05
4.49349e-05
0.000344179
0.000593894
0.00214567
0.011511
0.0379041
0.0959219
0.349098
0.0013196
0.00131727
0.00130698
0.00128864
0.00126026
0.00122178
0.00117527
0.00112144
0.00106205
0.00100073
0.000939449
0.000880675
0.000827032
0.000780152
0.000741149
0.000708363
0.000673995
0.000629602
0.000588352
0.000524715
0.000416307
0.000250959
2.66297e-05
7.73679e-06
0
0
0
0.000815089
0.0221811
0.00973711
0.0286477
0.0530163
0.333893
1.94929
5.00326
8.10737
10.0689
10.4368
11.6172
0.00131619
0.00130688
0.00128834
0.00125865
0.0012168
0.00115751
0.00108656
0.00101038
0.000929161
0.000840006
0.000747258
0.000656502
0.00057127
0.000493043
0.00042287
0.000361199
0.000308178
0.000263574
0.000226869
0.000196944
0.000172786
0.000153088
0.000136452
0.000120584
0.00010446
8.95691e-05
7.7746e-05
6.95793e-05
6.59977e-05
6.09868e-05
7.45233e-05
1.75995e-05
0.000114604
0.000540159
0.000150508
0.000490819
0.00134004
0.0031536
0.0677477
0.00108163
0.00108625
0.00108581
0.00108193
0.0010713
0.00105408
0.00103101
0.00100118
0.00096522
0.000924085
0.000878138
0.000828461
0.00077623
0.000722371
0.000667836
0.000611317
0.000549766
0.000486312
0.000427971
0.000375596
0.000336311
0.000296127
0.000254007
9.89547e-05
1.28178e-05
6.64181e-06
2.975e-06
1.80016e-07
0
0.00126518
0.00683898
0.0369059
0.0070627
0.0905494
0.197976
1.85447
5.17624
8.34381
11.0849
0.00107183
0.00105829
0.00103858
0.00101258
0.000979212
0.000935345
0.000884859
0.000830689
0.000771786
0.000706671
0.000638476
0.000570601
0.000505647
0.000445129
0.000390099
0.000341242
0.000298773
0.000262571
0.000232215
0.000206924
0.000185814
0.000167764
0.000151532
0.000135381
0.00011861
0.000102643
8.87155e-05
7.70601e-05
6.72853e-05
5.91579e-05
5.21831e-05
4.58227e-05
3.64806e-05
2.58931e-05
1.4437e-05
6.42847e-05
0.000229968
0.000721759
0.00771899
0.000874973
0.000878815
0.000879429
0.000877203
0.000870216
0.000858117
0.000841196
0.000818955
0.000791589
0.000759855
0.000724295
0.000685798
0.000645552
0.000604702
0.000564202
0.000525405
0.000490236
0.000457454
0.000423981
0.000389282
0.000355215
0.000323803
0.000306519
0.000269264
0.000190675
0.000116574
4.45247e-05
2.23112e-06
3.74031e-06
3.23245e-07
0
0
0.000932152
0.0285853
0.0216383
0.127642
0.850241
4.25499
8.89323
0.000867789
0.000858058
0.000843906
0.000824416
0.000799132
0.00076669
0.000730235
0.000690496
0.000646735
0.000598749
0.000548313
0.000497331
0.000447348
0.000399431
0.000354475
0.000313196
0.000275994
0.000243109
0.000214539
0.00018995
0.000168867
0.000150585
0.000134203
0.00011846
0.000102697
8.77605e-05
7.46306e-05
6.358e-05
5.43808e-05
4.69128e-05
4.1329e-05
3.77134e-05
3.56614e-05
3.2845e-05
2.36913e-05
7.1215e-06
1.25922e-06
6.80425e-08
0.000234846
0.000725201
0.000730151
0.000733091
0.000734275
0.000732265
0.000726773
0.000718018
0.000705357
0.000688788
0.000668662
0.000644951
0.000618116
0.000588682
0.000557133
0.00052403
0.00049005
0.000454768
0.00041727
0.000379271
0.000343424
0.00031157
0.000285362
0.000266176
0.000254052
0.00023474
0.000200966
0.000155418
0.000106312
6.40009e-05
5.09897e-06
3.05501e-06
1.13287e-07
0
0
0.00312479
0.0539479
0.0990843
0.967528
5.32813
0.000717763
0.000708798
0.000696783
0.000680834
0.000660849
0.000636084
0.00060903
0.000579207
0.000546185
0.00051036
0.000472538
0.000433906
0.000395415
0.000357788
0.000321758
0.000288025
0.000257012
0.000229093
0.000204406
0.000182808
0.000163953
0.00014731
0.000132156
0.000117541
0.000102967
8.90608e-05
7.65858e-05
6.57558e-05
5.63438e-05
4.81402e-05
4.1087e-05
3.50488e-05
2.9879e-05
2.54323e-05
2.22145e-05
1.85583e-05
1.35983e-05
1.58488e-06
1.6827e-05
0.000604943
0.00060971
0.000613184
0.000615353
0.000615274
0.000612634
0.000607494
0.000599287
0.000587942
0.000573561
0.0005561
0.000535805
0.000513034
0.000488153
0.000461703
0.000434109
0.000406
0.00037847
0.000351609
0.000325407
0.000300317
0.000277377
0.000256821
0.000238848
0.000221228
0.00020029
0.000177422
0.000152429
0.000128812
9.25476e-05
6.02059e-05
2.27591e-06
1.60821e-06
0
0
0
0.0311207
0.132184
2.11965
0.000598409
0.000590844
0.00058107
0.000568089
0.000552262
0.000533153
0.000512555
0.00048974
0.000464513
0.000437393
0.00040876
0.00037929
0.000349554
0.000319995
0.000291123
0.000263468
0.000237444
0.000213395
0.000191538
0.000171903
0.000154343
0.000138523
0.000123936
0.000109945
9.62016e-05
8.31056e-05
7.12881e-05
6.09876e-05
5.20714e-05
4.43867e-05
3.78995e-05
3.26527e-05
2.86527e-05
2.58667e-05
2.42617e-05
2.4501e-05
2.62724e-05
2.80004e-05
1.05725e-06
0.000509984
0.000514657
0.000518555
0.00052157
0.000522973
0.00052261
0.000520431
0.000515952
0.000509102
0.000499872
0.000488115
0.000473943
0.000457526
0.000439046
0.000418796
0.000397067
0.000374311
0.000350489
0.000325766
0.000301199
0.000278101
0.000257448
0.00023926
0.000221991
0.000203622
0.000183183
0.000162571
0.000144323
0.000129877
0.000117845
0.000105811
7.66226e-05
3.2205e-05
2.86099e-06
0
0
4.52111e-06
0.00245208
0.552987
0.000504001
0.000497411
0.000489197
0.000478405
0.000465646
0.000450732
0.000434684
0.00041692
0.00039746
0.000376681
0.000354774
0.000332142
0.00030908
0.000285824
0.00026275
0.000240247
0.00021863
0.00019825
0.000179324
0.000161966
0.00014614
0.000131642
0.000118127
0.000105171
9.251e-05
8.04352e-05
6.94419e-05
5.97433e-05
5.12431e-05
4.3802e-05
3.7367e-05
3.19109e-05
2.73573e-05
2.37791e-05
2.11633e-05
2.0628e-05
2.03123e-05
3.41464e-05
1.42508e-05
0.00043299
0.000437365
0.000441288
0.0004446
0.000446723
0.000447599
0.000447079
0.00044483
0.000440705
0.000434675
0.000426557
0.00041638
0.000404203
0.000390105
0.000374293
0.000357003
0.000338495
0.000319189
0.000299521
0.000279882
0.000260901
0.000243091
0.000226634
0.000210586
0.000193175
0.000173605
0.000153277
0.000135
0.000120335
0.000109649
0.000101639
9.6771e-05
8.46971e-05
4.93427e-05
3.28054e-06
0
0
0.00292733
0.14274
0.000427631
0.000421926
0.000415033
0.000406001
0.000395593
0.000383814
0.00037109
0.000357055
0.000341889
0.000325814
0.000308887
0.000291364
0.000273405
0.000255113
0.000236697
0.000218431
0.000200548
0.00018332
0.000166979
0.00015166
0.000137384
0.000124063
0.000111489
9.93931e-05
8.76204e-05
7.63917e-05
6.609e-05
5.69208e-05
4.88433e-05
4.17657e-05
3.56596e-05
3.05342e-05
2.63868e-05
2.32759e-05
2.11487e-05
2.08828e-05
2.07859e-05
2.94886e-05
3.68207e-05
0.000370105
0.000374181
0.00037801
0.000381418
0.000383978
0.000385642
0.000386287
0.000385603
0.00038348
0.000379861
0.000374563
0.000367566
0.000358866
0.00034848
0.00033651
0.000323094
0.000308434
0.000292832
0.000276398
0.000259494
0.000242867
0.000227086
0.000212292
0.000197821
0.000182285
0.000164883
0.000146527
0.000129367
0.000114885
0.000103267
9.37984e-05
8.7618e-05
8.46396e-05
8.15148e-05
5.3402e-05
2.63296e-06
0
0.000815496
0.0494301
0.00036531
0.000360311
0.000354473
0.000346864
0.000338285
0.00032884
0.000318614
0.000307398
0.000295458
0.00028288
0.000269692
0.000256043
0.000241995
0.000227554
0.000212862
0.000198081
0.000183352
0.000168896
0.00015489
0.000141498
0.000128787
0.000116734
0.000105209
9.40577e-05
8.32275e-05
7.28824e-05
6.33244e-05
5.47385e-05
4.71169e-05
4.03949e-05
3.45444e-05
2.95712e-05
2.54511e-05
2.22414e-05
1.99635e-05
1.93713e-05
1.95849e-05
2.51729e-05
4.02162e-05
0.000318123
0.000321876
0.000325516
0.000328869
0.0003316
0.000333687
0.000335031
0.000335352
0.000334552
0.000332569
0.00032923
0.000324496
0.00031832
0.000310669
0.000301599
0.000291193
0.000279567
0.00026698
0.000253625
0.000239756
0.000225827
0.000212255
0.000199135
0.000186054
0.00017208
0.000156605
0.000140266
0.000124715
0.000111239
9.99431e-05
9.02961e-05
8.2252e-05
7.66406e-05
7.45127e-05
7.84011e-05
4.02433e-05
6.25974e-08
0.000264173
0.016397
0.000313856
0.000309465
0.000304476
0.000298042
0.000290913
0.00028323
0.000274917
0.000265866
0.000256368
0.000246445
0.000236086
0.00022537
0.00021432
0.000202906
0.000191169
0.000179211
0.00016712
0.000155046
0.000143129
0.000131501
0.000120252
0.000109396
9.88831e-05
8.86492e-05
7.86943e-05
6.91651e-05
6.02972e-05
5.22599e-05
4.50737e-05
3.87018e-05
3.3132e-05
2.83839e-05
2.44575e-05
2.14107e-05
1.92663e-05
1.86334e-05
1.88978e-05
2.31764e-05
3.69555e-05
0.000274802
0.000278228
0.00028164
0.000284862
0.000287626
0.000289945
0.000291707
0.00029268
0.000292792
0.000291966
0.000290059
0.000287006
0.000282763
0.000277277
0.000270552
0.000262623
0.000253552
0.000243537
0.000232707
0.000221211
0.00020939
0.000197659
0.000186103
0.000174432
0.000161983
0.000148296
0.000133826
0.000119866
0.000107542
9.7029e-05
8.79528e-05
8.00235e-05
7.33609e-05
6.84402e-05
6.73354e-05
8.02282e-05
1.1162e-07
2.81881e-05
0.0041564
0.000270988
0.000267134
0.000262826
0.000257362
0.0002514
0.000245065
0.000238226
0.000230875
0.000223247
0.000215343
0.000207136
0.000198677
0.000189947
0.000180883
0.000171506
0.000161845
0.000151936
0.000141887
0.0001318
0.000121776
0.000111892
0.000102197
9.26872e-05
8.33675e-05
7.42758e-05
6.55385e-05
5.73542e-05
4.98709e-05
4.31275e-05
3.7111e-05
3.18187e-05
2.72746e-05
2.34788e-05
2.04882e-05
1.83359e-05
1.75961e-05
1.77528e-05
2.14577e-05
3.32423e-05
0.000238405
0.000241511
0.000244682
0.000247715
0.000250421
0.00025283
0.000254808
0.000256183
0.000256895
0.000256863
0.000255968
0.000254151
0.000251344
0.000247488
0.000242557
0.000236567
0.000229555
0.000221626
0.000212927
0.000203554
0.000193689
0.000183692
0.000173636
0.000163319
0.000152291
0.000140215
0.000127419
0.000114909
0.000103653
9.3915e-05
8.5454e-05
7.80926e-05
7.16304e-05
6.67837e-05
6.01342e-05
7.52011e-05
3.81618e-05
4.23444e-07
0.00030959
0.000234988
0.000231598
0.000227861
0.000223188
0.000218171
0.000212887
0.000207214
0.000201195
0.000195019
0.000188671
0.000182124
0.000175393
0.000168454
0.000161236
0.000153721
0.000145915
0.000137817
0.000129479
0.000120971
0.000112369
0.000103749
9.51611e-05
8.6626e-05
7.81745e-05
6.98903e-05
6.19031e-05
5.43716e-05
4.74249e-05
4.1115e-05
3.54481e-05
3.04323e-05
2.60988e-05
2.24574e-05
1.95681e-05
1.74633e-05
1.66631e-05
1.6722e-05
1.9852e-05
2.99835e-05
0.000207607
0.000210423
0.000213343
0.000216167
0.000218771
0.000221168
0.000223246
0.000224858
0.000225958
0.000226471
0.000226292
0.000225361
0.000223622
0.000221005
0.000217491
0.000213055
0.00020771
0.000201509
0.000194588
0.000186981
0.000178789
0.000170306
0.000161618
0.000152589
0.000142896
0.000132298
0.000121033
0.00010988
9.96508e-05
9.06533e-05
8.27574e-05
7.5888e-05
6.98336e-05
6.53518e-05
5.95076e-05
6.02596e-05
7.12231e-05
1.44406e-07
2.2863e-05
0.000204555
0.000201551
0.000198299
0.000194282
0.000190038
0.000185586
0.000180838
0.000175872
0.000170829
0.00016569
0.000160423
0.000155041
0.000149499
0.000143723
0.000137689
0.000131368
0.000124748
0.000117846
0.000110699
0.000103359
9.58807e-05
8.83173e-05
8.07016e-05
7.30954e-05
6.55932e-05
5.83217e-05
5.14154e-05
4.49912e-05
3.91086e-05
3.37882e-05
2.90471e-05
2.49215e-05
2.14256e-05
1.86199e-05
1.65394e-05
1.56626e-05
1.56314e-05
1.82549e-05
2.70298e-05
0.000181386
0.000183939
0.000186608
0.000189225
0.000191689
0.000194016
0.000196109
0.000197844
0.000199172
0.00020004
0.000200354
0.00020006
0.000199115
0.000197444
0.000195014
0.000191793
0.000187777
0.000182984
0.000177523
0.000171411
0.000164686
0.00015756
0.000150126
0.000142299
0.000133848
0.000124594
0.00011472
0.000104825
9.55799e-05
8.7308e-05
7.99645e-05
7.35138e-05
6.78767e-05
6.33168e-05
5.977e-05
5.27326e-05
7.8906e-05
3.5001e-07
3.29539e-10
0.000178668
0.000176003
0.00017315
0.000169684
0.000166071
0.000162287
0.000158285
0.000154159
0.00015001
0.000145816
0.000141552
0.000137212
0.000132756
0.000128117
0.000123253
0.000118133
0.000112719
0.000107016
0.00010103
9.47929e-05
8.83429e-05
8.1719e-05
7.49629e-05
6.81492e-05
6.13857e-05
5.47867e-05
4.84761e-05
4.25563e-05
3.70898e-05
3.21093e-05
2.76395e-05
2.37201e-05
2.03717e-05
1.76559e-05
1.56088e-05
1.46659e-05
1.45525e-05
1.67269e-05
2.42929e-05
0.000158946
0.000161254
0.000163683
0.0001661
0.000168401
0.000170629
0.000172678
0.000174451
0.000175909
0.000177004
0.000177653
0.00017782
0.000177447
0.000176478
0.000174875
0.000172603
0.000169648
0.000166001
0.000161739
0.000156874
0.000151409
0.000145467
0.000139161
0.000132441
0.000125132
0.000117102
0.000108489
9.97549e-05
9.14519e-05
8.38934e-05
7.7104e-05
7.10603e-05
6.58101e-05
6.1221e-05
5.86014e-05
5.12995e-05
6.69959e-05
2.53973e-05
5.26012e-07
0.00015652
0.000154153
0.000151641
0.000148634
0.000145544
0.000142304
0.000138908
0.000135454
0.000132014
0.000128564
0.000125085
0.000121566
0.000117964
0.000114215
0.000110281
0.00010612
0.00010169
9.6978e-05
9.19756e-05
8.66915e-05
8.11524e-05
7.53904e-05
6.94387e-05
6.33645e-05
5.72819e-05
5.1317e-05
4.55728e-05
4.01379e-05
3.50761e-05
3.04281e-05
2.6225e-05
2.25085e-05
1.93054e-05
1.66764e-05
1.46592e-05
1.36526e-05
1.34629e-05
1.52637e-05
2.17549e-05
0.000139648
0.000141726
0.00014394
0.000146152
0.000148295
0.000150397
0.000152374
0.000154128
0.000155642
0.000156867
0.000157736
0.00015821
0.00015825
0.000157799
0.000156828
0.000155293
0.000153174
0.000150455
0.000147172
0.000143342
0.000138945
0.000134037
0.000128741
0.000123026
0.000116756
0.00010983
0.000102356
9.46881e-05
8.72767e-05
8.04142e-05
7.41732e-05
6.85505e-05
6.36362e-05
5.92605e-05
5.64479e-05
5.165e-05
5.48538e-05
5.1484e-05
6.33532e-06
0.000137479
0.000135372
0.000133152
0.000130537
0.000127873
0.000125085
0.000122185
0.000119275
0.000116401
0.000113545
0.000110686
0.00010781
0.000104879
0.000101834
9.86365e-05
9.52457e-05
9.16148e-05
8.77201e-05
8.35446e-05
7.90851e-05
7.43459e-05
6.93478e-05
6.41213e-05
5.87378e-05
5.33038e-05
4.79329e-05
4.27202e-05
3.7746e-05
3.30732e-05
2.87473e-05
2.48044e-05
2.12871e-05
1.8228e-05
1.56856e-05
1.37e-05
1.26364e-05
1.23768e-05
1.38645e-05
1.9409e-05
0.000122976
0.000124848
0.00012686
0.000128883
0.000130864
0.000132834
0.000134709
0.000136415
0.000137932
0.000139219
0.000140219
0.000140905
0.000141238
0.000141174
0.000140675
0.000139708
0.000138242
0.000136261
0.000133766
0.000130789
0.000127294
0.000123287
0.000118879
0.000114062
0.000108727
0.000102794
9.6344e-05
8.96502e-05
8.30745e-05
7.68831e-05
7.11767e-05
6.59823e-05
6.13731e-05
5.73244e-05
5.41391e-05
5.13055e-05
4.84494e-05
5.53463e-05
2.61584e-05
0.000121037
0.000119157
0.000117192
0.000114912
0.000112596
0.000110186
0.000107698
0.000105227
0.000102809
0.000100427
9.806e-05
9.56945e-05
9.32936e-05
9.08075e-05
8.81972e-05
8.54225e-05
8.24401e-05
7.92202e-05
7.57354e-05
7.1974e-05
6.79343e-05
6.36217e-05
5.9055e-05
5.43011e-05
4.94622e-05
4.46415e-05
3.99268e-05
3.53897e-05
3.10904e-05
2.70763e-05
2.33868e-05
2.00645e-05
1.7147e-05
1.46897e-05
1.27356e-05
1.16202e-05
1.12968e-05
1.25327e-05
1.72597e-05
0.000108519
0.000110207
0.00011203
0.000113876
0.0001157
0.000117533
0.000119294
0.000120928
0.000122414
0.000123716
0.00012479
0.000125609
0.000126142
0.000126349
0.000126201
0.000125664
0.000124706
0.000123307
0.000121456
0.000119185
0.000116443
0.000113209
0.000109578
0.000105557
0.000101056
9.60082e-05
9.04746e-05
8.46638e-05
7.88656e-05
7.33156e-05
6.81276e-05
6.3356e-05
5.90479e-05
5.53047e-05
5.19906e-05
4.98774e-05
4.59144e-05
4.98331e-05
4.05187e-05
0.000106785
0.000105105
0.000103363
0.000101368
9.93435e-05
9.7248e-05
9.51032e-05
9.29945e-05
9.0947e-05
8.89454e-05
8.69694e-05
8.50073e-05
8.30288e-05
8.09858e-05
7.88446e-05
7.65651e-05
7.41066e-05
7.144e-05
6.8534e-05
6.53672e-05
6.19269e-05
5.8216e-05
5.42449e-05
5.00652e-05
4.57677e-05
4.14547e-05
3.72054e-05
3.30811e-05
2.91376e-05
2.54229e-05
2.19783e-05
1.88458e-05
1.60667e-05
1.36929e-05
1.17711e-05
1.06105e-05
1.02294e-05
1.12641e-05
1.52929e-05
9.59379e-05
9.74585e-05
9.91123e-05
0.000100791
0.000102467
0.000104162
0.000105806
0.000107353
0.000108785
0.00011007
0.00011117
0.000112065
0.000112729
0.000113127
0.000113237
0.000113022
0.000112457
0.00011152
0.000110187
0.000108483
0.000106361
0.000103787
0.000100829
9.75029e-05
9.37411e-05
8.94807e-05
8.47633e-05
7.97498e-05
7.46699e-05
6.97265e-05
6.50387e-05
6.06771e-05
5.66794e-05
5.31878e-05
4.997e-05
4.78592e-05
4.45979e-05
4.42716e-05
4.37913e-05
9.43887e-05
9.28826e-05
9.13352e-05
8.95844e-05
8.7808e-05
8.5979e-05
8.41212e-05
8.23098e-05
8.05638e-05
7.88683e-05
7.72099e-05
7.55731e-05
7.39292e-05
7.22382e-05
7.04698e-05
6.85898e-05
6.65575e-05
6.43428e-05
6.19152e-05
5.92499e-05
5.6329e-05
5.31426e-05
4.96959e-05
4.60317e-05
4.22327e-05
3.83887e-05
3.45696e-05
3.08311e-05
2.72237e-05
2.37946e-05
2.05855e-05
1.76377e-05
1.49934e-05
1.27016e-05
1.08126e-05
9.61249e-06
9.18152e-06
1.00606e-05
1.35028e-05
8.49559e-05
8.63264e-05
8.78229e-05
8.93483e-05
9.08841e-05
9.24451e-05
9.39736e-05
9.5424e-05
9.67874e-05
9.80328e-05
9.91297e-05
0.000100061
0.000100806
0.000101334
0.000101625
0.00010165
0.000101382
0.000100801
9.98789e-05
9.86314e-05
9.70206e-05
9.50046e-05
9.26248e-05
8.99036e-05
8.67887e-05
8.32205e-05
7.92257e-05
7.49275e-05
7.05059e-05
6.61324e-05
6.19225e-05
5.79549e-05
5.42698e-05
5.09988e-05
4.7971e-05
4.56958e-05
4.31738e-05
4.06332e-05
4.16058e-05
8.35713e-05
8.22209e-05
8.0843e-05
7.93008e-05
7.77362e-05
7.61347e-05
7.45165e-05
7.29528e-05
7.14551e-05
7.001e-05
6.8605e-05
6.72285e-05
6.5853e-05
6.44458e-05
6.29788e-05
6.14181e-05
5.97304e-05
5.78872e-05
5.58562e-05
5.36112e-05
5.11319e-05
4.84024e-05
4.54196e-05
4.2218e-05
3.88683e-05
3.54522e-05
3.2028e-05
2.86482e-05
2.53574e-05
2.22003e-05
1.92173e-05
1.64479e-05
1.39345e-05
1.1723e-05
9.86694e-06
8.63266e-06
8.15792e-06
8.92246e-06
1.18825e-05
7.53437e-05
7.65777e-05
7.79305e-05
7.93175e-05
8.07188e-05
8.2153e-05
8.35655e-05
8.4919e-05
8.62028e-05
8.73947e-05
8.84647e-05
8.94032e-05
9.01884e-05
9.07994e-05
9.12175e-05
9.14158e-05
9.13728e-05
9.10649e-05
9.04689e-05
8.95883e-05
8.83937e-05
8.68457e-05
8.49562e-05
8.2756e-05
8.02006e-05
7.72361e-05
7.38771e-05
7.02167e-05
6.63928e-05
6.25497e-05
5.87928e-05
5.52037e-05
5.1825e-05
4.87666e-05
4.59331e-05
4.35663e-05
4.1384e-05
3.82321e-05
3.82702e-05
7.41029e-05
7.28949e-05
7.16646e-05
7.03028e-05
6.89208e-05
6.75128e-05
6.60981e-05
6.47393e-05
6.34461e-05
6.22059e-05
6.10095e-05
5.98441e-05
5.86861e-05
5.75049e-05
5.62772e-05
5.49756e-05
5.35686e-05
5.20291e-05
5.03265e-05
4.84349e-05
4.63315e-05
4.39962e-05
4.142e-05
3.8628e-05
3.56808e-05
3.26496e-05
2.95902e-05
2.65425e-05
2.35481e-05
2.06484e-05
1.78812e-05
1.52836e-05
1.28975e-05
1.07651e-05
8.94178e-06
7.67771e-06
7.16557e-06
7.8485e-06
1.04192e-05
6.69082e-05
6.8019e-05
6.9241e-05
7.05016e-05
7.17781e-05
7.30925e-05
7.43931e-05
7.56482e-05
7.68507e-05
7.79782e-05
7.90084e-05
7.99318e-05
8.07311e-05
8.13896e-05
8.18892e-05
8.22111e-05
8.23327e-05
8.22332e-05
8.18917e-05
8.13008e-05
8.0445e-05
7.928e-05
7.78015e-05
7.60435e-05
7.39719e-05
7.15327e-05
6.87308e-05
6.56348e-05
6.23506e-05
5.89949e-05
5.5664e-05
5.2435e-05
4.93528e-05
4.65084e-05
4.38501e-05
4.14912e-05
3.93772e-05
3.62668e-05
3.52299e-05
6.57958e-05
6.47143e-05
6.36139e-05
6.24091e-05
6.11854e-05
5.99425e-05
5.87019e-05
5.75165e-05
5.63932e-05
5.53226e-05
5.42955e-05
5.33002e-05
5.23163e-05
5.13197e-05
5.0288e-05
4.91952e-05
4.80157e-05
4.67247e-05
4.52944e-05
4.3697e-05
4.19107e-05
3.99132e-05
3.76918e-05
3.52624e-05
3.26767e-05
2.99937e-05
2.7265e-05
2.45229e-05
2.18048e-05
1.91467e-05
1.65846e-05
1.41525e-05
1.18901e-05
9.83548e-06
8.04447e-06
6.75356e-06
6.209e-06
6.84203e-06
9.10674e-06
5.94872e-05
6.04885e-05
6.15921e-05
6.2735e-05
6.38974e-05
6.50983e-05
6.62927e-05
6.7451e-05
6.85712e-05
6.96297e-05
7.06105e-05
7.15038e-05
7.2298e-05
7.29759e-05
7.35258e-05
7.39309e-05
7.4171e-05
7.42277e-05
7.40811e-05
7.37185e-05
7.31328e-05
7.22833e-05
7.11487e-05
6.9766e-05
6.81052e-05
6.61161e-05
6.37961e-05
6.11956e-05
5.8395e-05
5.54852e-05
5.25501e-05
4.96613e-05
4.68643e-05
4.423e-05
4.17362e-05
3.94388e-05
3.73098e-05
3.43641e-05
3.26312e-05
5.84916e-05
5.75218e-05
5.65358e-05
5.54685e-05
5.43826e-05
5.32822e-05
5.21908e-05
5.11511e-05
5.01708e-05
4.92406e-05
4.83538e-05
4.74985e-05
4.66572e-05
4.58089e-05
4.49351e-05
4.40135e-05
4.30198e-05
4.19318e-05
4.07258e-05
3.93757e-05
3.78576e-05
3.61483e-05
3.42321e-05
3.212e-05
2.98537e-05
2.74858e-05
2.50563e-05
2.25952e-05
2.01331e-05
1.77019e-05
1.53346e-05
1.30616e-05
1.09188e-05
8.9413e-06
7.183e-06
5.86704e-06
5.29351e-06
5.90366e-06
7.93414e-06
5.29461e-05
5.38485e-05
5.48456e-05
5.58803e-05
5.69371e-05
5.80328e-05
5.91255e-05
6.01925e-05
6.12299e-05
6.22185e-05
6.31431e-05
6.39974e-05
6.47712e-05
6.54507e-05
6.60269e-05
6.64841e-05
6.68054e-05
6.69763e-05
6.69768e-05
6.67932e-05
6.64212e-05
6.58249e-05
6.49767e-05
6.39066e-05
6.25925e-05
6.09873e-05
5.90831e-05
5.6915e-05
5.45425e-05
5.20368e-05
4.94669e-05
4.68964e-05
4.43702e-05
4.19452e-05
3.9607e-05
3.73952e-05
3.52618e-05
3.24487e-05
3.0329e-05
5.20553e-05
5.11858e-05
5.03012e-05
4.93536e-05
4.83882e-05
4.74111e-05
4.64478e-05
4.55335e-05
4.46739e-05
4.3861e-05
4.30895e-05
4.23497e-05
4.16258e-05
4.08993e-05
4.01535e-05
3.93706e-05
3.85291e-05
3.76099e-05
3.6589e-05
3.54437e-05
3.41518e-05
3.26894e-05
3.10375e-05
2.92036e-05
2.722e-05
2.5132e-05
2.2973e-05
2.07676e-05
1.85413e-05
1.63224e-05
1.4139e-05
1.20183e-05
9.99227e-06
8.09143e-06
6.36599e-06
5.02502e-06
4.42379e-06
5.03615e-06
6.89421e-06
4.71706e-05
4.79826e-05
4.88839e-05
4.98195e-05
5.07793e-05
5.17777e-05
5.27752e-05
5.37556e-05
5.47117e-05
5.56304e-05
5.64961e-05
5.73052e-05
5.80477e-05
5.87153e-05
5.92982e-05
5.97838e-05
6.01599e-05
6.04105e-05
6.05211e-05
6.04753e-05
6.02716e-05
5.98763e-05
5.92622e-05
5.845e-05
5.74256e-05
5.61462e-05
5.45974e-05
5.28042e-05
5.08086e-05
4.86645e-05
4.64289e-05
4.41555e-05
4.18821e-05
3.9662e-05
3.74781e-05
3.53616e-05
3.3252e-05
3.05446e-05
2.8218e-05
4.63721e-05
4.55929e-05
4.47995e-05
4.39564e-05
4.30968e-05
4.22285e-05
4.1375e-05
4.0568e-05
3.98108e-05
3.90968e-05
3.84219e-05
3.77776e-05
3.71497e-05
3.65237e-05
3.58844e-05
3.52154e-05
3.44988e-05
3.37171e-05
3.285e-05
3.18762e-05
3.0774e-05
2.95209e-05
2.8097e-05
2.65047e-05
2.47704e-05
2.29313e-05
2.10153e-05
1.90426e-05
1.70337e-05
1.50127e-05
1.30034e-05
1.1029e-05
9.11769e-06
7.29411e-06
5.6025e-06
4.23484e-06
3.60342e-06
4.2421e-06
5.97846e-06
4.20611e-05
4.27928e-05
4.36058e-05
4.44522e-05
4.53226e-05
4.62301e-05
4.71402e-05
4.80375e-05
4.89166e-05
4.97657e-05
5.0572e-05
5.13319e-05
5.20386e-05
5.26841e-05
5.32607e-05
5.37588e-05
5.41668e-05
5.44718e-05
5.46612e-05
5.47192e-05
5.4644e-05
5.44076e-05
5.39816e-05
5.3383e-05
5.25981e-05
5.15896e-05
5.03423e-05
4.88712e-05
4.72051e-05
4.53828e-05
4.34493e-05
4.14497e-05
3.94161e-05
3.73891e-05
3.53609e-05
3.33421e-05
3.12814e-05
2.86764e-05
2.62478e-05
4.13451e-05
4.06477e-05
3.9936e-05
3.91837e-05
3.8418e-05
3.76454e-05
3.68875e-05
3.61728e-05
3.55032e-05
3.48737e-05
3.42805e-05
3.37159e-05
3.31683e-05
3.26246e-05
3.20728e-05
3.1498e-05
3.08844e-05
3.0217e-05
2.94775e-05
2.86469e-05
2.77051e-05
2.66297e-05
2.54012e-05
2.40186e-05
2.25021e-05
2.08843e-05
1.91864e-05
1.74247e-05
1.56156e-05
1.37785e-05
1.19338e-05
1.01002e-05
8.3016e-06
6.55684e-06
4.90176e-06
3.50481e-06
2.8359e-06
3.52639e-06
5.18037e-06
3.75341e-05
3.81937e-05
3.89265e-05
3.96917e-05
4.04806e-05
4.13041e-05
4.21333e-05
4.29528e-05
4.37593e-05
4.45412e-05
4.52888e-05
4.59984e-05
4.66649e-05
4.72808e-05
4.78418e-05
4.83379e-05
4.87618e-05
4.91016e-05
4.93458e-05
4.94796e-05
4.95018e-05
4.93885e-05
4.91132e-05
4.86865e-05
4.80982e-05
4.73154e-05
4.63217e-05
4.51246e-05
4.37432e-05
4.22047e-05
4.05427e-05
3.87924e-05
3.69815e-05
3.51412e-05
3.32639e-05
3.13508e-05
2.93563e-05
2.6864e-05
2.44055e-05
3.68924e-05
3.62679e-05
3.563e-05
3.49575e-05
3.4275e-05
3.35867e-05
3.29126e-05
3.22778e-05
3.1684e-05
3.11263e-05
3.06021e-05
3.01056e-05
2.96257e-05
2.91506e-05
2.86711e-05
2.8174e-05
2.7646e-05
2.70739e-05
2.64411e-05
2.57301e-05
2.49231e-05
2.39986e-05
2.29375e-05
2.17368e-05
2.04124e-05
1.89895e-05
1.74868e-05
1.59157e-05
1.42894e-05
1.26232e-05
1.09339e-05
9.23636e-06
7.54962e-06
5.88732e-06
4.27416e-06
2.84578e-06
2.12408e-06
2.89561e-06
4.49457e-06
3.35182e-05
3.4112e-05
3.47728e-05
3.54636e-05
3.6178e-05
3.69252e-05
3.76788e-05
3.8426e-05
3.91642e-05
3.98823e-05
4.05722e-05
4.12313e-05
4.1855e-05
4.24378e-05
4.29759e-05
4.34625e-05
4.38896e-05
4.42475e-05
4.45266e-05
4.47145e-05
4.48087e-05
4.47895e-05
4.46331e-05
4.43442e-05
4.39146e-05
4.3317e-05
4.2535e-05
4.15693e-05
4.04321e-05
3.91414e-05
3.77208e-05
3.61975e-05
3.45915e-05
3.29278e-05
3.11981e-05
2.93979e-05
2.74818e-05
2.51099e-05
2.26803e-05
3.29429e-05
3.23833e-05
3.18117e-05
3.12107e-05
3.06015e-05
2.99878e-05
2.93876e-05
2.88225e-05
2.82943e-05
2.77987e-05
2.73344e-05
2.68945e-05
2.64712e-05
2.60551e-05
2.56366e-05
2.52046e-05
2.47477e-05
2.42547e-05
2.37108e-05
2.31004e-05
2.24071e-05
2.16116e-05
2.06941e-05
1.96503e-05
1.84935e-05
1.72432e-05
1.59148e-05
1.4516e-05
1.3057e-05
1.15497e-05
1.00072e-05
8.44163e-06
6.86697e-06
5.29227e-06
3.7301e-06
2.27271e-06
1.46906e-06
2.36013e-06
3.91587e-06
2.99507e-05
3.04854e-05
3.10804e-05
3.17041e-05
3.23502e-05
3.30272e-05
3.37114e-05
3.43915e-05
3.50656e-05
3.5723e-05
3.63577e-05
3.69672e-05
3.75478e-05
3.80954e-05
3.86065e-05
3.90757e-05
3.94964e-05
3.98607e-05
4.01609e-05
4.03858e-05
4.05313e-05
4.05824e-05
4.05169e-05
4.03364e-05
4.00342e-05
3.95875e-05
3.89795e-05
3.82083e-05
3.72791e-05
3.62027e-05
3.49949e-05
3.3675e-05
3.2258e-05
3.07598e-05
2.91739e-05
2.74884e-05
2.5665e-05
2.34239e-05
2.10634e-05
2.94349e-05
2.89339e-05
2.84215e-05
2.78843e-05
2.73403e-05
2.67928e-05
2.62577e-05
2.57541e-05
2.52834e-05
2.48418e-05
2.44284e-05
2.40382e-05
2.36636e-05
2.32965e-05
2.29292e-05
2.25522e-05
2.21556e-05
2.17291e-05
2.12598e-05
2.07346e-05
2.01378e-05
1.94514e-05
1.86573e-05
1.77499e-05
1.67389e-05
1.56413e-05
1.44679e-05
1.32246e-05
1.19186e-05
1.05591e-05
9.15589e-06
7.71812e-06
6.25651e-06
4.77627e-06
3.27942e-06
1.80881e-06
8.72968e-07
1.93464e-06
3.43999e-06
2.67779e-05
2.72591e-05
2.77946e-05
2.83573e-05
2.89412e-05
2.9554e-05
3.01746e-05
3.07929e-05
3.1407e-05
3.2008e-05
3.25902e-05
3.31517e-05
3.36894e-05
3.42003e-05
3.46814e-05
3.51289e-05
3.55371e-05
3.58998e-05
3.62095e-05
3.64565e-05
3.66365e-05
3.67385e-05
3.67423e-05
3.66455e-05
3.64439e-05
3.61179e-05
3.56524e-05
3.50423e-05
3.42886e-05
3.33964e-05