/*--------------------------------*- C++ -*----------------------------------*\
| =========                 |                                                 |
| \\      /  F ield         | OpenFOAM: The Open Source CFD Toolbox           |
|  \\    /   O peration     | Version:  2306                                  |
|   \\  /    A nd           | Website:  www.openfoam.com                      |
|    \\/     M anipulation  |                                                 |
\*---------------------------------------------------------------------------*/
FoamFile
{
    version     2.0;
    format      ascii;
    arch        "LSB;label=32;scalar=64";
    class       volScalarField;
    location    "375";
    object      magR;
}
// * * * * * * * * * * * * * * * * * * * * * * * * * * * * * * * * * * * * * //

dimensions      [0 2 -2 0 0 0 0];

internalField   nonuniform List<scalar> 
10720
(
0.0235386
0.027463
0.0324779
0.0392901
0.047361
0.0576347
0.0707714
0.0870447
0.107708
0.134072
0.168133
0.213104
0.273431
0.35643
0.474574
0.647452
0.913698
1.32396
2.04432
3.16553
5.69284
9.51361
22.2756
43.4779
48.1752
46.0876
45.2884
46.1196
47.1487
47.4098
46.7833
45.3877
43.1305
40.0417
36.0539
31.2614
24.766
18.4816
6.83798
0.0200326
0.0171889
0.0140012
0.0112673
0.00868586
0.00635936
0.00448057
0.00335183
0.00350616
0.00474333
0.00705489
0.0106245
0.0158797
0.0234971
0.0343382
0.0497148
0.0718237
0.104782
0.156205
0.239898
0.383324
0.63702
1.12097
2.05256
4.08358
8.35094
18.6651
38.4615
54.5025
61.3864
63.3391
63.6587
63.2921
62.3967
61.0185
59.2331
56.6212
53.5796
43.8862
0.00360472
0.00358443
0.00354307
0.00344053
0.00328199
0.00309978
0.00288484
0.00264316
0.002404
0.00216951
0.00194595
0.00179068
0.00176934
0.00194399
0.00252462
0.00397273
0.00759169
0.0159135
0.0384802
0.0943446
0.279597
0.771895
2.37154
7.60819
14.8894
22.3881
29.4351
34.4294
35.4246
32.5027
27.7003
22.8387
18.8955
15.8731
13.5512
11.7095
10.4238
9.11418
10.5258
0.00357222
0.00352405
0.0034253
0.00327886
0.00307845
0.00281406
0.00250374
0.00220271
0.00192413
0.00164764
0.00138454
0.00115677
0.000964332
0.000801122
0.000662819
0.000546303
0.000447474
0.000363861
0.000290611
0.000223738
0.000157665
9.31621e-05
3.22837e-05
5.26555e-06
1.34194e-05
0.00191614
0.0103743
0.0836504
0.281737
0.551407
0.824362
1.06462
1.26667
1.44421
1.61009
1.78078
1.96128
2.36379
3.28785
0.0024198
0.0024007
0.00234657
0.00226377
0.0021772
0.00208204
0.00198584
0.00189932
0.0018249
0.00176718
0.00172256
0.00169698
0.00169026
0.00170483
0.00170946
0.00166259
0.00139696
0.00126032
0.000416211
0.00778011
0.0154053
0.000735956
0.00842752
0.0195354
0.22002
0.78582
2.00722
4.54731
9.01491
14.8992
20.2147
22.8284
22.317
20.0381
17.3849
14.894
12.9429
10.7217
12.0707
0.00243864
0.00243563
0.00242915
0.00238588
0.00230913
0.00218028
0.00200265
0.00179983
0.00161136
0.0014175
0.00120889
0.00100689
0.000826106
0.000670427
0.000541894
0.000438111
0.000357226
0.000295874
0.000251247
0.000219189
0.000197102
0.00018277
0.000174902
0.000170576
0.000170353
0.000169185
0.000179941
0.000106715
0.000756658
0.00502235
0.0142334
0.0299789
0.0675771
0.141399
0.250398
0.383859
0.528929
0.633137
1.08069
0.00204216
0.00204638
0.00203609
0.00201914
0.00198415
0.00193206
0.00186714
0.00178609
0.00169344
0.00159098
0.00148088
0.00136466
0.00124347
0.00111949
0.000993844
0.000862435
0.000728008
0.000620061
0.000479725
0.000262279
3.39156e-05
9.7122e-05
0
0.00482326
0.0259567
0.0527763
0.00955032
0.0110961
0.0508386
0.450428
1.96331
5.34164
10.0035
13.8773
15.5447
15.3185
14.4054
12.6091
13.568
0.00202026
0.00198708
0.00193499
0.00187225
0.00179358
0.00169057
0.0015703
0.00144232
0.00130907
0.00116445
0.00101497
0.000874833
0.000751024
0.000644321
0.000554165
0.000478583
0.000416399
0.000365754
0.000325105
0.000292012
0.000265121
0.000242534
0.000222292
0.000201004
0.00017913
0.000160942
0.000147193
0.000137313
0.000125328
0.0001099
8.25034e-05
5.20366e-05
0.000415184
0.000705861
0.00263354
0.0141594
0.0466194
0.117993
0.429359
0.00153211
0.00152941
0.00151746
0.00149616
0.00146321
0.00141853
0.00136453
0.00130203
0.00123307
0.00116186
0.0010907
0.00102245
0.000960151
0.000905707
0.000860412
0.00082235
0.000782476
0.000730943
0.000683201
0.000609229
0.000482756
0.000290207
3.07507e-05
8.93587e-06
0
0
0.00300968
0.0104251
0.0324555
0.0956796
0.0205905
0.0660094
0.410901
2.40006
6.15827
9.97686
12.3893
12.8412
14.2859
0.00152815
0.00151733
0.00149581
0.00146135
0.00141276
0.00134391
0.00126154
0.00117309
0.00107879
0.000975275
0.000867592
0.000762221
0.000663264
0.000572439
0.000490967
0.000419364
0.000357805
0.000306018
0.000263402
0.000228657
0.000200607
0.000177735
0.000158417
0.000139992
0.000121266
0.000103972
9.02365e-05
8.07403e-05
7.65748e-05
7.07201e-05
8.65901e-05
2.03336e-05
0.000134637
0.000659582
0.000180419
0.000602477
0.00164761
0.00387895
0.0833011
0.00125581
0.00126117
0.00126066
0.00125616
0.00124382
0.00122382
0.00119704
0.00116241
0.00112065
0.00107289
0.00101954
0.000961864
0.000901217
0.000838678
0.000775353
0.000709721
0.000638253
0.000564579
0.000496871
0.000436097
0.000390586
0.000343853
0.000294698
0.000114373
1.46422e-05
6.49146e-06
1.29638e-06
0
0
0
0.00485225
0.0459926
0.00832592
0.111278
0.243696
2.28119
6.37011
10.267
13.6358
0.00124443
0.00122871
0.00120583
0.00117564
0.0011369
0.00108597
0.00102735
0.000964457
0.000896068
0.000820467
0.000741291
0.000662485
0.000587072
0.000516808
0.000452916
0.000396191
0.000346884
0.000304852
0.000269607
0.000240244
0.000215734
0.000194776
0.00017593
0.000157178
0.000137706
0.000119166
0.000102994
8.94589e-05
7.81057e-05
6.86637e-05
6.05563e-05
5.31676e-05
4.22988e-05
2.99911e-05
1.66949e-05
7.61447e-05
0.000281013
0.000886722
0.00955588
0.00101587
0.00102033
0.00102105
0.00101846
0.00101035
0.000996304
0.000976658
0.000950836
0.000919063
0.000882219
0.000840932
0.000796235
0.000749508
0.000702078
0.000655055
0.000610006
0.000569173
0.000531112
0.000492252
0.000451973
0.000412443
0.000375998
0.000356229
0.000313196
0.000218346
0.000114644
1.94935e-05
6.60957e-06
3.81751e-06
4.66341e-07
0
0
0.00105537
0.0351317
0.0261645
0.155126
1.04769
5.2366
10.9425
0.00100753
0.000996234
0.000979803
0.000957174
0.000927821
0.000890154
0.000847827
0.000801689
0.00075088
0.000695167
0.000636608
0.000577416
0.000519384
0.000463751
0.000411556
0.00036363
0.000320438
0.000282256
0.000249086
0.000220537
0.000196059
0.000174834
0.000155813
0.000137535
0.000119233
0.000101891
8.66465e-05
7.38156e-05
6.31337e-05
5.44611e-05
4.7975e-05
4.37736e-05
4.13906e-05
3.81078e-05
2.74336e-05
8.22671e-06
1.45427e-06
0
0.00205743
0.000841983
0.00084773
0.000851144
0.000852519
0.000850185
0.000843808
0.000833644
0.000818944
0.000799706
0.00077634
0.000748811
0.000717653
0.00068348
0.00064685
0.000608416
0.000568963
0.000527998
0.00048446
0.000440342
0.000398724
0.000361742
0.000331313
0.00030912
0.000295193
0.000272027
0.000230642
0.000175175
0.00011603
6.96526e-05
7.35818e-06
3.52944e-06
1.36426e-07
0
0
0.00397541
0.0104376
0.128915
1.19016
6.55834
0.000833346
0.000822938
0.000808987
0.00079047
0.000767268
0.000738515
0.000707104
0.000672478
0.000634138
0.000592544
0.000548631
0.000503777
0.000459089
0.000415402
0.000373571
0.000334405
0.000298398
0.000265983
0.000237321
0.000212245
0.000190354
0.000171031
0.000153436
0.000136467
0.000119547
0.000103401
8.89173e-05
7.63432e-05
6.54152e-05
5.58903e-05
4.77004e-05
4.06886e-05
3.46852e-05
2.95198e-05
2.57858e-05
2.15212e-05
1.57446e-05
1.87817e-06
0
0.000702359
0.000707894
0.000711927
0.000714445
0.000714354
0.000711289
0.000705322
0.000695793
0.00068262
0.000665924
0.000645651
0.000622087
0.00059565
0.000566762
0.000536053
0.000504015
0.00047138
0.000439417
0.00040823
0.00037781
0.000348681
0.000322046
0.000298184
0.000277363
0.000256938
0.00023228
0.000204805
0.000176246
0.000149358
0.00010749
6.89977e-05
2.74055e-06
1.87955e-06
0
0
0.00111747
0.0402184
0.162958
2.60977
0.000694772
0.000685989
0.000674641
0.000659569
0.000641194
0.000619008
0.000595093
0.000568604
0.000539314
0.000507826
0.000474582
0.000440366
0.000405842
0.000371523
0.000338003
0.000305894
0.000275679
0.000247758
0.00022238
0.000199584
0.000179197
0.000160829
0.000143893
0.000127649
0.000111692
9.64874e-05
8.27669e-05
7.08077e-05
6.04557e-05
5.15334e-05
4.40014e-05
3.79094e-05
3.3265e-05
3.00302e-05
2.8168e-05
2.8454e-05
3.05897e-05
3.33362e-05
1.39558e-06
0.000592109
0.000597535
0.00060206
0.000605561
0.000607189
0.000606768
0.000604238
0.000599038
0.000591084
0.000580368
0.000566717
0.000550264
0.000531203
0.000509747
0.000486235
0.000461007
0.000434586
0.000406929
0.000378224
0.000349701
0.000322884
0.000298907
0.000277791
0.000257761
0.000236441
0.000212582
0.000188431
0.000167419
0.000150862
0.000137063
0.000122886
8.89395e-05
3.76281e-05
3.32562e-06
0
0
5.78873e-06
0.003176
0.680859
0.000585162
0.00057751
0.000567973
0.000555443
0.00054063
0.000523315
0.000504682
0.000484057
0.000461463
0.000437338
0.000411903
0.000385626
0.000358851
0.00033185
0.00030506
0.000278933
0.000253835
0.000230173
0.000208201
0.000188047
0.000169672
0.000152839
0.000137148
0.000122106
0.000107406
9.33869e-05
8.06234e-05
6.9363e-05
5.9494e-05
5.08546e-05
4.33834e-05
3.70486e-05
3.17617e-05
2.76074e-05
2.45702e-05
2.39525e-05
2.36007e-05
4.00574e-05
1.90739e-05
0.000502716
0.000507796
0.00051235
0.000516196
0.00051866
0.000519677
0.000519074
0.000516462
0.000511672
0.000504672
0.000495247
0.00048343
0.000469292
0.000452924
0.000434566
0.000414492
0.000393003
0.000370588
0.000347754
0.000324952
0.000302915
0.000282238
0.000263133
0.000244505
0.000224293
0.00020155
0.00017791
0.000156661
0.000139689
0.000127339
0.000118004
0.000112349
9.84906e-05
5.74724e-05
3.74336e-06
0
0
0.00363073
0.175675
0.000496494
0.000489869
0.000481867
0.000471379
0.000459296
0.000445621
0.000430848
0.000414552
0.000396944
0.00037828
0.000358627
0.000338282
0.000317431
0.000296194
0.000274812
0.000253604
0.000232842
0.000212839
0.000193867
0.000176081
0.000159506
0.00014404
0.000129442
0.000115398
0.000101729
8.86925e-05
7.67319e-05
6.60861e-05
5.67078e-05
4.84905e-05
4.14012e-05
3.54504e-05
3.06352e-05
2.70233e-05
2.45535e-05
2.42468e-05
2.41343e-05
3.43447e-05
4.31619e-05
0.000429705
0.000434437
0.000438882
0.000442839
0.000445811
0.000447743
0.000448491
0.000447697
0.000445233
0.000441031
0.000434879
0.000426756
0.000416654
0.000404597
0.000390699
0.000375122
0.000358102
0.000339987
0.000320906
0.000301281
0.000281977
0.000263655
0.00024648
0.000229681
0.000211647
0.00019144
0.000170112
0.000150179
0.00013338
0.000119913
0.000108908
0.000101689
9.82342e-05
9.47156e-05
6.1059e-05
2.91827e-06
0
0.00100335
0.0608443
0.000424137
0.000418332
0.000411555
0.00040272
0.00039276
0.000381793
0.00036992
0.000356899
0.000343035
0.000328432
0.00031312
0.000297273
0.000280963
0.000264196
0.000247139
0.000229978
0.000212877
0.000196092
0.000179832
0.000164283
0.000149525
0.000135531
0.00012215
0.000109203
9.66291e-05
8.4618e-05
7.35209e-05
6.35524e-05
5.47035e-05
4.6899e-05
4.01064e-05
3.43324e-05
2.95487e-05
2.58222e-05
2.31776e-05
2.24906e-05
2.27398e-05
2.92537e-05
4.69016e-05
0.000369351
0.000373709
0.000377934
0.000381828
0.000384998
0.000387421
0.000388981
0.000389354
0.000388425
0.000386123
0.000382247
0.00037675
0.000369579
0.000360696
0.000350166
0.000338084
0.000324586
0.000309972
0.000294467
0.000278364
0.000262193
0.000246436
0.000231205
0.000216018
0.000199795
0.000181828
0.000162854
0.000144795
0.000129151
0.000116043
0.000104845
9.54845e-05
8.89271e-05
8.6455e-05
9.09085e-05
4.45945e-05
7.2772e-08
0.000319162
0.0201958
0.000364397
0.000359299
0.000353506
0.000346036
0.000337759
0.000328839
0.000319188
0.000308678
0.000297651
0.000286129
0.000274102
0.000261661
0.000248831
0.00023558
0.000221953
0.000208069
0.000194031
0.000180013
0.000166176
0.000152676
0.000139615
0.000127012
0.000114806
0.000102924
9.1366e-05
8.03022e-05
7.00063e-05
6.06747e-05
5.23312e-05
4.49333e-05
3.84666e-05
3.29539e-05
2.83952e-05
2.48578e-05
2.23682e-05
2.16334e-05
2.19412e-05
2.69129e-05
4.29537e-05
0.000319054
0.000323032
0.000326993
0.000330733
0.000333943
0.000336635
0.00033868
0.00033981
0.000339941
0.000338981
0.000336768
0.000333223
0.000328296
0.000321927
0.00031412
0.000304913
0.000294381
0.000282754
0.000270181
0.000256834
0.000243109
0.00022949
0.000216073
0.000202523
0.000188071
0.00017218
0.00015538
0.00013917
0.00012486
0.000112657
0.000102123
9.29145e-05
8.51566e-05
7.94047e-05
7.80882e-05
9.31363e-05
1.45874e-07
3.27845e-05
0.00512535
0.000314626
0.000310151
0.000305149
0.000298804
0.000291883
0.000284528
0.000276588
0.000268053
0.000259196
0.00025002
0.000240491
0.00023067
0.000220533
0.000210011
0.000199124
0.000187906
0.000176401
0.000164735
0.000153023
0.000141385
0.00012991
0.000118654
0.000107612
9.67918e-05
8.62359e-05
7.60917e-05
6.65894e-05
5.7901e-05
5.00718e-05
4.30864e-05
3.69418e-05
3.1666e-05
2.72589e-05
2.37868e-05
2.12879e-05
2.04291e-05
2.06113e-05
2.4914e-05
3.86078e-05
0.000276796
0.000280402
0.000284084
0.000287604
0.000290747
0.000293543
0.00029584
0.000297436
0.000298263
0.000298225
0.000297187
0.000295077
0.000291818
0.000287342
0.000281617
0.000274662
0.00026652
0.000257315
0.000247215
0.000236333
0.000224879
0.000213273
0.000201599
0.00018962
0.000176817
0.000162797
0.00014794
0.000133415
0.000120346
0.00010904
9.92181e-05
9.0674e-05
8.31654e-05
7.75211e-05
6.97312e-05
8.74135e-05
4.41933e-05
4.98127e-07
0.000378905
0.000272829
0.000268892
0.000264553
0.000259128
0.000253304
0.000247168
0.000240582
0.000233593
0.000226423
0.000219053
0.000211451
0.000203636
0.000195579
0.0001872
0.000178474
0.000169412
0.000160009
0.000150329
0.00014045
0.000130463
0.000120455
0.000110485
0.000100575
9.07625e-05
8.11443e-05
7.18708e-05
6.31265e-05
5.50612e-05
4.77352e-05
4.11557e-05
3.53322e-05
3.03009e-05
2.60731e-05
2.27186e-05
2.02748e-05
1.93459e-05
1.94144e-05
2.30489e-05
3.48133e-05
0.000241038
0.000244307
0.000247698
0.000250976
0.000253999
0.000256782
0.000259195
0.000261067
0.000262344
0.00026294
0.000262732
0.000261652
0.000259632
0.000256594
0.000252513
0.000247363
0.000241158
0.000233958
0.000225923
0.000217092
0.00020758
0.000197732
0.000187645
0.000177163
0.000165909
0.000153604
0.000140526
0.000127577
0.000115699
0.000105253
9.60852e-05
8.81116e-05
8.1082e-05
7.58768e-05
6.90509e-05
6.99584e-05
8.29113e-05
1.66487e-07
2.70774e-05
0.000237495
0.000234008
0.000230231
0.000225568
0.00022064
0.000215471
0.000209959
0.000204192
0.000198337
0.000192371
0.000186256
0.000180007
0.000173573
0.000166866
0.000159861
0.000152522
0.000144836
0.000136823
0.000128525
0.000120002
0.00011132
0.000102539
9.36966e-05
8.48656e-05
7.61552e-05
6.77128e-05
5.96944e-05
5.22357e-05
4.54058e-05
3.92286e-05
3.3724e-05
2.89341e-05
2.48752e-05
2.16177e-05
1.92022e-05
1.81842e-05
1.81481e-05
2.11944e-05
3.13819e-05
0.000210595
0.000213559
0.000216657
0.000219696
0.000222556
0.000225259
0.000227688
0.000229703
0.000231245
0.000232252
0.000232617
0.000232276
0.000231178
0.000229239
0.000226417
0.000222678
0.000218014
0.00021245
0.00020611
0.000199014
0.000191207
0.000182933
0.000174302
0.000165215
0.000155404
0.00014466
0.000133196
0.000121706
0.000110973
0.000101369
9.2842e-05
8.53531e-05
7.88093e-05
7.35149e-05
6.93926e-05
6.11661e-05
9.20931e-05
4.0248e-07
3.78936e-10
0.000207439
0.000204345
0.000201033
0.000197008
0.000192813
0.000188421
0.000183774
0.000178983
0.000174166
0.000169297
0.000164346
0.000159307
0.000154133
0.000148747
0.0001431
0.000137155
0.00013087
0.000124248
0.000117298
0.000110057
0.000102568
9.48779e-05
8.70338e-05
7.91229e-05
7.12703e-05
6.36086e-05
5.62818e-05
4.94087e-05
4.30619e-05
3.72794e-05
3.20899e-05
2.75392e-05
2.36517e-05
2.04985e-05
1.81217e-05
1.70272e-05
1.68955e-05
1.94204e-05
2.8204e-05
0.000184541
0.00018722
0.000190041
0.000192847
0.000195518
0.000198105
0.000200484
0.000202543
0.000204235
0.000205507
0.000206261
0.000206455
0.000206022
0.000204896
0.000203035
0.000200397
0.000196966
0.000192732
0.000187785
0.000182136
0.000175791
0.000168892
0.000161571
0.00015377
0.000145283
0.00013596
0.00012596
0.00011582
0.00010618
9.7404e-05
8.9521e-05
8.25037e-05
7.64092e-05
7.10793e-05
6.80488e-05
5.95099e-05
7.80281e-05
2.93281e-05
6.07466e-07
0.000181725
0.000178977
0.000176059
0.000172568
0.000168981
0.000165219
0.000161276
0.000157266
0.000153272
0.000149267
0.000145227
0.000141141
0.000136959
0.000132607
0.000128039
0.000123208
0.000118064
0.000112594
0.000106786
0.000100651
9.42201e-05
8.75302e-05
8.062e-05
7.35678e-05
6.65057e-05
5.95803e-05
5.2911e-05
4.6601e-05
4.0724e-05
3.53275e-05
3.04476e-05
2.61326e-05
2.24137e-05
1.93613e-05
1.70193e-05
1.58506e-05
1.56305e-05
1.77215e-05
2.52575e-05
0.000162135
0.000164548
0.000167119
0.000169687
0.000172175
0.000174616
0.00017691
0.000178947
0.000180705
0.000182128
0.000183136
0.000183686
0.000183733
0.000183209
0.000182083
0.000180301
0.000177839
0.000174683
0.000170871
0.000166425
0.000161319
0.000155622
0.000149473
0.000142839
0.000135558
0.000127517
0.000118839
0.000109937
0.000101332
9.33643e-05
8.61181e-05
7.95897e-05
7.38848e-05
6.88024e-05
6.55462e-05
5.99429e-05
6.37425e-05
5.98047e-05
7.32032e-06
0.000159617
0.000157171
0.000154594
0.000151557
0.000148464
0.000145227
0.00014186
0.000138482
0.000135145
0.000131829
0.000128509
0.00012517
0.000121768
0.000118232
0.00011452
0.000110583
0.000106367
0.000101845
9.69974e-05
9.18199e-05
8.63175e-05
8.05146e-05
7.44464e-05
6.8196e-05
6.18869e-05
5.56512e-05
4.95991e-05
4.38239e-05
3.83985e-05
3.33761e-05
2.87983e-05
2.47146e-05
2.11629e-05
1.8211e-05
1.59057e-05
1.46709e-05
1.43696e-05
1.60971e-05
2.2534e-05
0.000142779
0.000144952
0.000147288
0.000149637
0.000151937
0.000154225
0.000156401
0.000158382
0.000160143
0.000161637
0.000162799
0.000163595
0.000163982
0.000163907
0.000163328
0.000162205
0.000160504
0.000158204
0.000155307
0.00015185
0.000147793
0.00014314
0.000138023
0.000132431
0.000126236
0.000119348
0.000111859
0.000104088
9.6453e-05
8.92645e-05
8.2639e-05
7.66078e-05
7.12567e-05
6.65552e-05
6.28603e-05
5.95633e-05
5.62412e-05
6.43932e-05
3.02308e-05
0.000140528
0.000138346
0.000136064
0.000133417
0.000130727
0.000127929
0.00012504
0.000122172
0.000119365
0.000116598
0.00011385
0.000111104
0.000108316
0.00010543
0.000102399
9.91778e-05
9.57151e-05
9.19767e-05
8.79307e-05
8.35637e-05
7.88735e-05
7.38664e-05
6.85643e-05
6.30448e-05
5.74268e-05
5.18298e-05
4.63558e-05
4.10882e-05
3.60965e-05
3.14361e-05
2.71525e-05
2.32952e-05
1.99078e-05
1.70547e-05
1.4786e-05
1.34911e-05
1.31157e-05
1.45508e-05
2.00387e-05
0.000125994
0.000127954
0.00013007
0.000132214
0.000134331
0.000136459
0.000138504
0.000140401
0.000142126
0.000143638
0.000144885
0.000145836
0.000146455
0.000146695
0.000146523
0.0001459
0.000144788
0.000143164
0.000141015
0.000138377
0.000135194
0.00013144
0.000127224
0.000122555
0.00011733
0.000111469
0.000105045
9.82981e-05
9.15662e-05
8.51224e-05
7.90988e-05
7.35587e-05
6.85568e-05
6.42107e-05
6.03628e-05
5.79129e-05
5.32886e-05
5.7935e-05
4.6973e-05
0.00012398
0.00012203
0.000120007
0.000117691
0.000115341
0.000112908
0.000110418
0.000107969
0.000105592
0.000103268
0.000100974
9.86958e-05
9.63986e-05
9.40266e-05
9.15406e-05
8.88941e-05
8.60397e-05
8.29436e-05
7.95697e-05
7.5893e-05
7.18987e-05
6.75902e-05
6.29797e-05
5.81269e-05
5.31374e-05
4.81298e-05
4.31963e-05
3.84078e-05
3.38293e-05
2.95165e-05
2.55172e-05
2.18802e-05
1.86535e-05
1.58975e-05
1.36663e-05
1.23188e-05
1.18764e-05
1.30779e-05
1.77554e-05
0.000111387
0.000113152
0.000115072
0.000117021
0.000118967
0.000120935
0.000122844
0.00012464
0.000126302
0.000127795
0.000129071
0.000130111
0.000130882
0.000131344
0.000131472
0.000131222
0.000130567
0.000129478
0.00012793
0.000125952
0.000123489
0.0001205
0.000117066
0.000113205
0.000108837
0.000103891
9.84136e-05
9.25927e-05
8.66948e-05
8.09552e-05
7.55123e-05
7.04484e-05
6.58068e-05
6.17531e-05
5.80161e-05
5.55696e-05
5.17675e-05
5.14241e-05
5.0842e-05
0.000109588
0.000107839
0.000106043
0.00010401
0.000101948
9.98241e-05
9.76671e-05
9.5564e-05
9.35368e-05
9.15682e-05
8.96428e-05
8.77423e-05
8.58338e-05
8.38704e-05
8.18172e-05
7.96345e-05
7.7275e-05
7.47036e-05
7.18851e-05
6.87906e-05
6.53993e-05
6.16999e-05
5.76982e-05
5.34439e-05
4.90331e-05
4.45701e-05
4.0136e-05
3.57955e-05
3.16072e-05
2.7626e-05
2.39001e-05
2.04776e-05
1.74075e-05
1.47466e-05
1.25534e-05
1.11602e-05
1.06599e-05
1.16806e-05
1.5677e-05
9.86363e-05
0.000100227
0.000101965
0.000103736
0.000105519
0.000107331
0.000109106
0.00011079
0.000112373
0.000113819
0.000115093
0.000116174
0.000117039
0.000117652
0.00011799
0.000118019
0.000117708
0.000117033
0.000115963
0.000114514
0.000112644
0.000110304
0.000107541
0.000104381
0.000100765
9.66222e-05
9.19841e-05
8.69938e-05
8.18601e-05
7.67822e-05
7.18943e-05
6.72877e-05
6.3009e-05
5.92115e-05
5.56954e-05
5.30558e-05
5.01216e-05
4.71777e-05
4.83174e-05
9.70288e-05
9.54609e-05
9.38612e-05
9.20705e-05
9.0254e-05
8.83946e-05
8.65158e-05
8.47003e-05
8.29613e-05
8.12836e-05
7.96523e-05
7.8054e-05
7.6457e-05
7.48232e-05
7.312e-05
7.13079e-05
6.93485e-05
6.72085e-05
6.48505e-05
6.2244e-05
5.93654e-05
5.61964e-05
5.27332e-05
4.90161e-05
4.5127e-05
4.11608e-05
3.71853e-05
3.32612e-05
2.94405e-05
2.5775e-05
2.23116e-05
1.90963e-05
1.6178e-05
1.36105e-05
1.14556e-05
1.00226e-05
9.47148e-06
1.03593e-05
1.3796e-05
8.74762e-05
8.89089e-05
9.04795e-05
9.20899e-05
9.37168e-05
9.53821e-05
9.7022e-05
9.85935e-05
0.000100084
0.000101468
0.00010271
0.0001038
0.000104712
0.000105421
0.000105906
0.000106137
0.000106087
0.000105729
0.000105037
0.000104015
0.000102628
0.000100831
9.86372e-05
9.60828e-05
9.31158e-05
8.9674e-05
8.57741e-05
8.15243e-05
7.70845e-05
7.26225e-05
6.82606e-05
6.40934e-05
6.01706e-05
5.66197e-05
5.33295e-05
5.0582e-05
4.80472e-05
4.43849e-05
4.44385e-05
8.60356e-05
8.46332e-05
8.32047e-05
8.16236e-05
8.0019e-05
7.83843e-05
7.67418e-05
7.51641e-05
7.36626e-05
7.22228e-05
7.08336e-05
6.94806e-05
6.81361e-05
6.67646e-05
6.53393e-05
6.38281e-05
6.21945e-05
6.04071e-05
5.84303e-05
5.62341e-05
5.3792e-05
5.10807e-05
4.80897e-05
4.48481e-05
4.14263e-05
3.79069e-05
3.43548e-05
3.08164e-05
2.73399e-05
2.39732e-05
2.07604e-05
1.77445e-05
1.49742e-05
1.24984e-05
1.03815e-05
8.91388e-06
8.31936e-06
9.1124e-06
1.2097e-05
7.76823e-05
7.8972e-05
8.03907e-05
8.18543e-05
8.33364e-05
8.48625e-05
8.63725e-05
8.78298e-05
8.9226e-05
9.05351e-05
9.17311e-05
9.28033e-05
9.37313e-05
9.44959e-05
9.5076e-05
9.54497e-05
9.55909e-05
9.54754e-05
9.5079e-05
9.43929e-05
9.33994e-05
9.20469e-05
9.03303e-05
8.82892e-05
8.58841e-05
8.30522e-05
7.9799e-05
7.62045e-05
7.23914e-05
6.84952e-05
6.46278e-05
6.08788e-05
5.73002e-05
5.39978e-05
5.09112e-05
4.81722e-05
4.5718e-05
4.21039e-05
4.09036e-05
7.63908e-05
7.51352e-05
7.38576e-05
7.24588e-05
7.1038e-05
6.95949e-05
6.81545e-05
6.67782e-05
6.5474e-05
6.42309e-05
6.30385e-05
6.1883e-05
6.07405e-05
5.95835e-05
5.83856e-05
5.71168e-05
5.57474e-05
5.42485e-05
5.25879e-05
5.07333e-05
4.86593e-05
4.63402e-05
4.37611e-05
4.09405e-05
3.79385e-05
3.48234e-05
3.16553e-05
2.84717e-05
2.53158e-05
2.22297e-05
1.9255e-05
1.64312e-05
1.38045e-05
1.14191e-05
9.33968e-06
7.84095e-06
7.20878e-06
7.94387e-06
1.05732e-05
6.90663e-05
7.02289e-05
7.15102e-05
7.28371e-05
7.41867e-05
7.5581e-05
7.69677e-05
7.83126e-05
7.96132e-05
8.08422e-05
8.19809e-05
8.30181e-05
8.39403e-05
8.47273e-05
8.53658e-05
8.58362e-05
8.61149e-05
8.61808e-05
8.60106e-05
8.55897e-05
8.49097e-05
8.39234e-05
8.26062e-05
8.10008e-05
7.90726e-05
7.67633e-05
7.40696e-05
7.10503e-05
6.77987e-05
6.44203e-05
6.10125e-05
5.76585e-05
5.4411e-05
5.13524e-05
4.84569e-05
4.57892e-05
4.33175e-05
3.9896e-05
3.78847e-05
6.79104e-05
6.67845e-05
6.56397e-05
6.44005e-05
6.31397e-05
6.18621e-05
6.05949e-05
5.93878e-05
5.82497e-05
5.71697e-05
5.614e-05
5.51469e-05
5.41702e-05
5.31852e-05
5.21707e-05
5.11007e-05
4.99471e-05
4.86838e-05
4.72836e-05
4.57162e-05
4.39536e-05
4.19691e-05
3.97443e-05
3.7292e-05
3.46608e-05
3.19116e-05
2.90909e-05
2.62335e-05
2.3375e-05
2.05522e-05
1.78038e-05
1.51647e-05
1.26769e-05
1.03809e-05
8.33952e-06
6.8117e-06
6.14588e-06
6.85441e-06
9.21185e-06
6.1472e-05
6.25196e-05
6.36773e-05
6.48787e-05
6.61056e-05
6.73777e-05
6.86465e-05
6.98853e-05
7.10897e-05
7.22376e-05
7.3311e-05
7.43029e-05
7.52014e-05
7.59903e-05
7.66594e-05
7.71901e-05
7.75633e-05
7.77617e-05
7.77623e-05
7.75491e-05
7.71173e-05
7.6425e-05
7.54403e-05
7.41979e-05
7.26722e-05
7.08085e-05
6.85976e-05
6.60803e-05
6.33259e-05
6.04166e-05
5.74328e-05
5.44483e-05
5.15152e-05
4.86997e-05
4.59849e-05
4.34166e-05
4.09395e-05
3.7673e-05
3.52118e-05
6.04377e-05
5.94282e-05
5.84012e-05
5.73009e-05
5.618e-05
5.50456e-05
5.39271e-05
5.28656e-05
5.18676e-05
5.09238e-05
5.0028e-05
4.91691e-05
4.83286e-05
4.74851e-05
4.66192e-05
4.57102e-05
4.47332e-05
4.3666e-05
4.24807e-05
4.1151e-05
3.96511e-05
3.79532e-05
3.60353e-05
3.3906e-05
3.1603e-05
2.91788e-05
2.66722e-05
2.41117e-05
2.15269e-05
1.89506e-05
1.64156e-05
1.39534e-05
1.16012e-05
9.39424e-06
7.39097e-06
5.8341e-06
5.13613e-06
5.8472e-06
8.00447e-06
5.47663e-05
5.57091e-05
5.67555e-05
5.78418e-05
5.89562e-05
6.01154e-05
6.12735e-05
6.24118e-05
6.35219e-05
6.45886e-05
6.55936e-05
6.65331e-05
6.73952e-05
6.81703e-05
6.8847e-05
6.94109e-05
6.98476e-05
7.01386e-05
7.0267e-05
7.02138e-05
6.99774e-05
6.95184e-05
6.88055e-05
6.78625e-05
6.66732e-05
6.51877e-05
6.33896e-05
6.13076e-05
5.89906e-05
5.65011e-05
5.39055e-05
5.1266e-05
4.86264e-05
4.60487e-05
4.35131e-05
4.10555e-05
3.86061e-05
3.54625e-05
3.27611e-05
5.38393e-05
5.29347e-05
5.20135e-05
5.10345e-05
5.00365e-05
4.90284e-05
4.80375e-05
4.71005e-05
4.62213e-05
4.53924e-05
4.46088e-05
4.38607e-05
4.31318e-05
4.24049e-05
4.16626e-05
4.08859e-05
4.00539e-05
3.91463e-05
3.81397e-05
3.70091e-05
3.57293e-05
3.42745e-05
3.26213e-05
3.07726e-05
2.8759e-05
2.66238e-05
2.43992e-05
2.21088e-05
1.97765e-05
1.743e-05
1.50971e-05
1.28049e-05
1.05858e-05
8.46855e-06
6.50455e-06
4.9167e-06
4.18368e-06
4.92529e-06
6.94124e-06
4.88341e-05
4.96836e-05
5.06275e-05
5.16102e-05
5.26208e-05
5.36745e-05
5.47312e-05
5.5773e-05
5.67936e-05
5.77795e-05
5.87156e-05
5.95979e-05
6.04185e-05
6.11679e-05
6.18373e-05
6.24157e-05
6.28894e-05
6.32435e-05
6.34635e-05
6.35308e-05
6.34436e-05
6.31691e-05
6.26745e-05
6.19795e-05
6.10682e-05
5.98973e-05
5.84492e-05
5.67412e-05
5.48068e-05
5.2691e-05
5.0446e-05
4.81245e-05
4.57633e-05
4.34098e-05
4.1055e-05
3.87109e-05
3.63182e-05
3.32934e-05
3.04739e-05
4.80028e-05
4.71931e-05
4.63669e-05
4.54934e-05
4.46043e-05
4.37073e-05
4.28274e-05
4.19976e-05
4.12201e-05
4.04893e-05
3.98005e-05
3.9145e-05
3.85093e-05
3.78779e-05
3.72373e-05
3.65699e-05
3.58576e-05
3.50826e-05
3.42241e-05
3.32597e-05
3.21663e-05
3.09177e-05
2.94914e-05
2.78861e-05
2.61254e-05
2.42472e-05
2.22759e-05
2.02305e-05
1.813e-05
1.59971e-05
1.38553e-05
1.17265e-05
9.6383e-06
7.61257e-06
5.69099e-06
4.06913e-06
3.29258e-06
4.09432e-06
6.01463e-06
4.35782e-05
4.43439e-05
4.51947e-05
4.60831e-05
4.69992e-05
4.79552e-05
4.8918e-05
4.98694e-05
5.08058e-05
5.17136e-05
5.25817e-05
5.34056e-05
5.41793e-05
5.48945e-05
5.55459e-05
5.61219e-05
5.6614e-05
5.70086e-05
5.72921e-05
5.74475e-05
5.74733e-05
5.73417e-05
5.70221e-05
5.65267e-05
5.58436e-05
5.49348e-05
5.37812e-05
5.23913e-05
5.07873e-05
4.90011e-05
4.70714e-05
4.50392e-05
4.29367e-05
4.07999e-05
3.86202e-05
3.63989e-05
3.40831e-05
3.11893e-05
2.8335e-05
4.28331e-05
4.2108e-05
4.13674e-05
4.05866e-05
3.97942e-05
3.89951e-05
3.82124e-05
3.74753e-05
3.67859e-05
3.61384e-05
3.55298e-05
3.49533e-05
3.43961e-05
3.38446e-05
3.32879e-05
3.27107e-05
3.20976e-05
3.14335e-05
3.06988e-05
2.98733e-05
2.89362e-05
2.78629e-05
2.6631e-05
2.5237e-05
2.36992e-05
2.20472e-05
2.03025e-05
1.84785e-05
1.65904e-05
1.46558e-05
1.26944e-05
1.07236e-05
8.76524e-06
6.83526e-06
4.96234e-06
3.30399e-06
2.46614e-06
3.36196e-06
5.2184e-06
3.89155e-05
3.96049e-05
4.03721e-05
4.11742e-05
4.20036e-05
4.28712e-05
4.37462e-05
4.46137e-05
4.54708e-05
4.63045e-05
4.71056e-05
4.78708e-05
4.8595e-05
4.92716e-05
4.98964e-05
5.04613e-05
5.09572e-05
5.13728e-05
5.16968e-05
5.1915e-05
5.20244e-05
5.20021e-05
5.18205e-05
5.14851e-05
5.09864e-05
5.02926e-05
4.93846e-05
4.82634e-05
4.69431e-05
4.54445e-05
4.37951e-05
4.20264e-05
4.01618e-05
3.82301e-05
3.62218e-05
3.41317e-05
3.19069e-05
2.91528e-05
2.63321e-05
3.82476e-05
3.75979e-05
3.69343e-05
3.62365e-05
3.55291e-05
3.48166e-05
3.41197e-05
3.34636e-05
3.28504e-05
3.2275e-05
3.17359e-05
3.12251e-05
3.07337e-05
3.02506e-05
2.97647e-05
2.92631e-05
2.87327e-05
2.81602e-05
2.75288e-05
2.68201e-05
2.60151e-05
2.50915e-05
2.40264e-05
2.28145e-05
2.14713e-05
2.00198e-05
1.84774e-05
1.68534e-05
1.51595e-05
1.34095e-05
1.16185e-05
9.80089e-06
7.97268e-06
6.1444e-06
4.33069e-06
2.63864e-06
1.70566e-06
2.74025e-06
4.5465e-06
3.47736e-05
3.53944e-05
3.60852e-05
3.68093e-05
3.75594e-05
3.83455e-05
3.91399e-05
3.99295e-05
4.07122e-05
4.14755e-05
4.22124e-05
4.29201e-05
4.35941e-05
4.42299e-05
4.48233e-05
4.53681e-05
4.58566e-05
4.62796e-05
4.66281e-05
4.68892e-05
4.70582e-05
4.71176e-05
4.70415e-05
4.6832e-05
4.64811e-05
4.59624e-05
4.52566e-05
4.43611e-05
4.32823e-05
4.20326e-05
4.06303e-05
3.90977e-05
3.74525e-05
3.5713e-05
3.38716e-05
3.19146e-05
2.97975e-05
2.71954e-05
2.44549e-05
3.41747e-05
3.35931e-05
3.29981e-05
3.23744e-05
3.17429e-05
3.11072e-05
3.04859e-05
2.99012e-05
2.93547e-05
2.88419e-05
2.83619e-05
2.79089e-05
2.7474e-05
2.70478e-05
2.66213e-05
2.61836e-05
2.57231e-05
2.52279e-05
2.46831e-05
2.40733e-05
2.33804e-05
2.25835e-05
2.16616e-05
2.0608e-05
1.94342e-05
1.81599e-05
1.67975e-05
1.53541e-05
1.38378e-05
1.22594e-05
1.06302e-05
8.96088e-06
7.26392e-06
5.54533e-06
3.80744e-06
2.10005e-06
1.01358e-06
2.24624e-06
3.99397e-06
3.10898e-05
3.16485e-05
3.22702e-05
3.29236e-05
3.36016e-05
3.43131e-05
3.50335e-05
3.57514e-05
3.64644e-05
3.71622e-05
3.78382e-05
3.84901e-05
3.91145e-05
3.97076e-05
4.02662e-05
4.07858e-05
4.12597e-05
4.16808e-05
4.20404e-05
4.23272e-05
4.25362e-05
4.26546e-05
4.26591e-05
4.25467e-05
4.23126e-05
4.19341e-05
4.13937e-05
4.06853e-05
3.98103e-05
3.87744e-05