/*--------------------------------*- C++ -*----------------------------------*\
| =========                 |                                                 |
| \\      /  F ield         | OpenFOAM: The Open Source CFD Toolbox           |
|  \\    /   O peration     | Version:  2306                                  |
|   \\  /    A nd           | Website:  www.openfoam.com                      |
|    \\/     M anipulation  |                                                 |
\*---------------------------------------------------------------------------*/
FoamFile
{
    version     2.0;
    format      ascii;
    arch        "LSB;label=32;scalar=64";
    class       volVectorField;
    location    "375";
    object      momentError;
}
// * * * * * * * * * * * * * * * * * * * * * * * * * * * * * * * * * * * * * //

dimensions      [0 1 -2 0 0 0 0];

internalField   nonuniform List<vector> 
10720
(
(-0.000887926 0.00423358 -6.95743e-15)
(-0.000634633 0.00421581 2.41145e-14)
(-0.000100634 0.00297724 -4.72341e-14)
(0.000161815 0.0028125 1.77798e-14)
(0.000342537 0.0025584 1.10242e-13)
(0.00046806 0.00227751 -1.75104e-13)
(0.000572809 0.002029 9e-14)
(0.000625533 0.00174264 -1.11071e-13)
(0.000640096 0.00148108 -2.54634e-13)
(0.000618006 0.00120085 3.44123e-13)
(0.000562374 0.000994683 1.2415e-13)
(0.000374938 0.000619752 -2.28813e-13)
(0.000226503 0.000381674 -3.34529e-13)
(9.36934e-05 0.000183331 -5.72041e-14)
(-6.76074e-05 -1.02595e-06 -1.39769e-13)
(-0.000236626 -0.000165733 -3.10396e-13)
(-0.000471863 -0.000322229 -1.46757e-13)
(-0.000815447 -0.000476535 8.32707e-13)
(-0.00101284 -0.000551947 4.23306e-13)
(-0.00182173 -0.000786582 -5.95085e-13)
(-0.0030794 -0.00105758 1.05313e-13)
(-0.00354015 -0.00119981 1.53272e-13)
(-0.00365391 -0.00134958 -6.74728e-14)
(-0.0124129 -0.0019285 -1.51579e-13)
(-0.0254573 -0.00409407 3.57113e-14)
(-0.0188068 -0.00479641 -2.35001e-15)
(-0.00223919 -0.00293424 4.15495e-14)
(0.00803705 -0.000328286 -1.64621e-14)
(0.00597486 0.000630473 4.39631e-14)
(0.00309712 0.000655997 1.54492e-13)
(0.00174355 0.000435253 3.03025e-14)
(-0.000192827 0.000279019 -1.28621e-13)
(-0.00108114 0.00018199 -7.92331e-15)
(-0.000574868 3.91975e-05 -2.15694e-13)
(-0.0002006 -0.000135248 -2.82294e-13)
(6.66002e-06 -0.00126876 1.15483e-13)
(-0.00160756 -0.0114306 -1.13964e-14)
(-0.05302 -0.0722313 4.17261e-16)
(-1.19466 0.130284 -5.66936e-14)
(-0.00100806 0.00389767 -1.07657e-14)
(-0.0010711 0.00314164 2.65572e-14)
(-0.00106257 0.00232729 1.73257e-15)
(-0.000908416 0.00157744 3.6165e-14)
(-0.000760343 0.00104559 -3.28852e-14)
(-0.000538436 0.000527564 -9.40188e-14)
(-0.000217468 9.53461e-05 -1.07357e-13)
(7.194e-05 -0.000163391 2.99423e-14)
(3.34729e-05 -5.40658e-06 -7.52e-14)
(-0.000167853 0.000200404 9.57949e-14)
(-0.000235312 0.000210378 -6.00392e-14)
(-0.000242944 0.000176119 -1.46125e-13)
(-0.000242875 0.000153324 -1.64676e-13)
(-0.000243096 0.000130756 1.32091e-14)
(-0.000224115 0.000104506 1.33036e-13)
(-0.00019879 8.33845e-05 3.9941e-14)
(-0.000176613 6.75841e-05 -5.03074e-14)
(-0.000156244 5.48055e-05 -3.54751e-14)
(-0.000136832 4.46881e-05 -2.18182e-14)
(-0.000119015 3.62188e-05 3.90402e-14)
(-0.00010268 2.99693e-05 1.72961e-14)
(-8.82805e-05 2.45973e-05 2.50515e-14)
(-7.53035e-05 2.16176e-05 -3.38378e-14)
(-6.75851e-05 1.98276e-05 -2.46552e-14)
(-6.47477e-05 1.70866e-05 1.8184e-14)
(-6.32457e-05 1.5763e-05 1.24073e-14)
(-6.47191e-05 1.2897e-05 6.93007e-15)
(-6.79407e-05 6.93027e-06 -1.46245e-15)
(-6.49242e-05 -1.88289e-07 -2.845e-16)
(-5.31993e-05 3.48443e-06 2.30707e-16)
(-4.97472e-05 1.34753e-07 -4.51457e-16)
(-5.69489e-05 -4.50302e-07 -1.86783e-15)
(-5.86051e-05 -1.40107e-06 -1.25985e-15)
(-7.29322e-05 -4.30809e-06 -3.84257e-15)
(-7.1855e-05 -6.21055e-06 -2.91039e-15)
(-0.000175212 -1.76608e-05 1.26223e-15)
(-3.17538e-05 2.19326e-05 -2.16344e-15)
(-0.00037428 0.000126909 -1.1055e-14)
(-0.00219483 0.00125346 -2.14902e-14)
(0.000127691 0.00307941 -1.31421e-14)
(0.00038224 0.00304916 5.88488e-15)
(0.000574103 0.00224897 7.81456e-15)
(0.000846518 0.00216252 -3.36637e-14)
(0.00103054 0.00200688 2.10332e-14)
(0.00113847 0.00183857 8.03991e-14)
(0.00126852 0.00166331 1.03896e-13)
(0.00133234 0.00147251 1.0064e-13)
(0.00135201 0.00127673 -3.98763e-15)
(0.0013478 0.00107795 1.90683e-13)
(0.00128035 0.00085129 -2.08862e-13)
(0.00126869 0.000887155 -1.1953e-13)
(0.00123298 0.000838229 4.48622e-13)
(0.00120316 0.00074144 1.28259e-13)
(0.00106931 0.000709271 -1.19188e-13)
(0.000962229 0.000674452 -1.78007e-14)
(0.000812102 0.000671389 3.42059e-13)
(0.00052893 0.000683165 -1.53336e-13)
(0.00103434 0.000455701 -4.91946e-13)
(0.00716547 -0.000971339 1.88438e-13)
(0.0118739 -0.00296162 2.35437e-13)
(-0.00196287 0.000971575 4.67758e-14)
(-0.0595656 -0.0213863 -1.30908e-13)
(-0.0277015 -0.00246969 1.92539e-13)
(0.0126323 -0.00203867 -4.1995e-14)
(0.0615374 0.00240373 -7.04609e-14)
(0.0589449 0.00544589 -3.01943e-14)
(0.0358051 0.00566882 5.59591e-15)
(0.0049853 0.00208001 -1.50038e-14)
(0.00280815 0.000728074 -1.5883e-14)
(0.00394858 0.0007909 -2.0394e-14)
(2.04785e-05 0.000538419 3.52693e-14)
(-0.00126877 0.00013927 -1.8821e-13)
(-0.00115698 -3.41006e-05 -2.24041e-13)
(-0.000641692 -9.04343e-05 1.62291e-13)
(-0.000161339 -0.000321819 -3.94938e-14)
(0.000228722 -0.00206014 3.30552e-14)
(0.0309351 -0.0139329 -1.40028e-14)
(0.986473 -0.118495 -4.40433e-14)
(-4.46806e-05 0.00286134 -4.63904e-15)
(-0.000266377 0.00236728 1.24096e-13)
(-0.000428396 0.00181715 -7.9833e-15)
(-0.000491489 0.00136611 -1.29073e-13)
(-0.000501401 0.00095169 -2.56853e-14)
(-0.000443278 0.000554732 1.27345e-13)
(-0.000285614 0.000228727 1.11424e-13)
(-0.000135134 7.65347e-05 5.95824e-14)
(-0.000131827 0.000144506 -8.25943e-14)
(-0.000218451 0.000220257 -1.06455e-14)
(-0.000269484 0.000198528 1.01897e-13)
(-0.000281173 0.000164976 -5.20989e-15)
(-0.000280694 0.000139977 1.22901e-14)
(-0.000275666 0.000110215 -2.47927e-14)
(-0.000257309 8.14384e-05 -3.25882e-14)
(-0.000231897 6.12177e-05 1.41527e-14)
(-0.00020804 4.6401e-05 1.7087e-14)
(-0.000185706 3.51024e-05 -5.8044e-14)
(-0.000164713 2.62844e-05 2.69298e-14)
(-0.000145046 1.99608e-05 1.78452e-14)
(-0.000127396 1.47892e-05 1.46789e-14)
(-0.000111398 1.12288e-05 3.19093e-14)
(-9.77662e-05 8.35506e-06 4.1782e-14)
(-8.83993e-05 7.66315e-06 1.76494e-14)
(-8.37026e-05 5.32797e-06 -1.51654e-14)
(-8.07013e-05 3.08999e-06 8.16099e-16)
(-7.94375e-05 1.21539e-06 -5.68197e-15)
(-8.01341e-05 -6.35941e-08 -2.08577e-15)
(-7.47304e-05 -1.15143e-06 3.93312e-16)
(-6.42709e-05 -3.1729e-06 -3.86602e-17)
(-7.55602e-05 2.29958e-06 2.83067e-16)
(-7.85705e-05 -1.93036e-06 6.14141e-16)
(-8.15889e-05 -1.99653e-06 1.84985e-15)
(-8.9722e-05 -3.45762e-06 2.35649e-15)
(-0.000121429 -9.884e-06 7.67107e-16)
(-5.93107e-05 -1.79726e-05 -1.55166e-15)
(-0.000224976 -2.7134e-05 -6.71296e-17)
(-0.000309734 -1.46595e-05 3.77875e-15)
(-0.00160004 -0.000214484 9.20235e-15)
(-0.00023559 0.00248383 -5.07346e-15)
(-0.000103151 0.00242793 -8.20648e-16)
(7.02899e-05 0.00185249 -5.83765e-15)
(0.000240124 0.00185173 1.55523e-14)
(0.00035351 0.00176741 3.9133e-15)
(0.000449025 0.00165738 -3.37387e-14)
(0.000545526 0.00154754 -1.07611e-13)
(0.000611959 0.00141989 -9.54194e-14)
(0.000652107 0.00126057 -1.11323e-13)
(0.000669113 0.00109482 1.10096e-14)
(0.000654148 0.00093032 2.64056e-13)
(0.000615327 0.000762847 7.06213e-14)
(0.00056894 0.000602921 -9.93115e-14)
(0.000502612 0.000479338 -2.41055e-13)
(0.000509263 0.000348849 1.10246e-13)
(0.000538814 0.000241694 1.45923e-13)
(0.00057045 0.000150852 -9.42425e-14)
(0.000691314 0.000220022 -1.89375e-13)
(2.5179e-05 0.00203411 3.17158e-13)
(-0.00642534 0.00762815 -9.48691e-14)
(-0.00630837 0.00974184 -1.19584e-13)
(0.0023335 0.000267215 1.78553e-13)
(0.0975803 0.052485 7.39208e-14)
(0.00238975 0.00102669 -3.35326e-15)
(0.016288 -0.000594384 -3.30849e-14)
(0.0203377 -0.00153251 3.55699e-15)
(-0.00519223 -0.000596443 -3.05979e-14)
(-0.054894 -0.00123702 2.1071e-14)
(-0.0483534 -0.00277013 -3.31634e-14)
(-0.0139745 -0.00016878 -7.2097e-14)
(-0.00826414 0.00108949 6.96078e-14)
(-0.00666478 0.000270594 3.08528e-14)
(-0.0012665 -0.000320969 -1.21837e-13)
(-0.000350624 -0.000365813 7.82256e-14)
(-0.000406123 -0.00021846 1.65029e-14)
(-0.000225509 -0.000184278 -3.61559e-14)
(0.0013211 -0.000996141 -9.97962e-14)
(0.0152512 -0.00183634 2.7664e-14)
(0.110922 -0.00956471 6.02695e-15)
(-0.00035288 0.00232349 2.92173e-14)
(-0.000427986 0.0019567 -2.76862e-14)
(-0.000479093 0.00151452 -9.83415e-14)
(-0.000493595 0.0011854 4.48514e-14)
(-0.000465757 0.000867863 2.05996e-14)
(-0.000402319 0.000566217 -6.45701e-14)
(-0.000296844 0.000303325 1.35476e-14)
(-0.000221577 0.00021116 -1.17649e-13)
(-0.000232116 0.000243865 -7.91908e-14)
(-0.000271949 0.000260973 -8.81249e-14)
(-0.000297365 0.000240239 9.75407e-14)
(-0.000298957 0.00021166 1.45326e-14)
(-0.000290725 0.000183116 -1.36537e-14)
(-0.000278245 0.000151657 -8.08996e-14)
(-0.00025816 0.000122335 -5.80887e-14)
(-0.00023277 9.88304e-05 3.78568e-14)
(-0.000208025 8.00542e-05 -2.1374e-14)
(-0.000185166 6.47373e-05 -4.39726e-14)
(-0.000163878 5.25519e-05 -4.00351e-15)
(-0.000144103 4.29295e-05 -4.02397e-14)
(-0.000126286 3.55339e-05 -4.30004e-14)
(-0.000110224 2.99008e-05 -8.43256e-14)
(-9.64099e-05 2.64473e-05 -6.39436e-14)
(-8.66214e-05 2.45204e-05 -1.79986e-14)
(-8.12715e-05 2.10618e-05 3.95035e-15)
(-7.79446e-05 1.71305e-05 -1.14744e-15)
(-7.6311e-05 1.36096e-05 -1.05285e-14)
(-7.67398e-05 1.02869e-05 4.47379e-15)
(-7.15161e-05 4.70104e-06 5.81735e-16)
(-6.13647e-05 6.02115e-06 -1.81319e-16)
(-6.36177e-05 1.72179e-06 -9.47675e-18)
(-6.85476e-05 -1.64802e-06 -5.34311e-16)
(-7.0774e-05 -2.36317e-06 -9.83385e-16)
(-8.26968e-05 3.79643e-07 -1.46501e-15)
(-8.38404e-05 -1.5477e-05 1.86578e-15)
(-8.48156e-05 -9.26915e-05 3.67586e-17)
(-3.39783e-05 -4.99316e-05 1.44749e-14)
(-0.000331948 -5.2425e-05 8.74913e-15)
(-0.0013074 -0.000220808 -1.03367e-13)
(-1.08201e-05 0.00197627 7.92661e-15)
(0.000118736 0.00192961 -2.34375e-15)
(0.000232102 0.00152269 6.63027e-17)
(0.000388289 0.00153169 -7.12993e-15)
(0.000488694 0.00145815 1.99668e-15)
(0.000583735 0.00136825 3.58154e-14)
(0.000678402 0.00128175 5.84668e-14)
(0.000745462 0.001162 5.46322e-14)
(0.000788572 0.0010226 -1.3339e-13)
(0.000810101 0.000877076 -1.11644e-13)
(0.00080013 0.000728802 1.41519e-13)
(0.000768753 0.000591855 2.56584e-13)
(0.000715353 0.000482312 1.35703e-13)
(0.000652198 0.000399825 -4.72151e-13)
(0.000599821 0.000324232 -1.62162e-13)
(0.000469222 0.000323228 3.85913e-13)
(0.000374952 0.00030571 8.39262e-14)
(0.000235982 0.000369548 -1.2427e-13)
(0.000101578 0.00018545 -2.28418e-13)
(-0.000218675 -0.00230098 1.97906e-13)
(-0.00426913 -0.00596859 4.36133e-14)
(0.000671301 0.00205833 -2.22443e-13)
(-0.0465248 -0.0233262 1.65591e-13)
(0.00393727 0.000529211 -1.14162e-13)
(-0.00345935 -0.00284504 -3.7197e-14)
(-0.00671524 -0.00578464 3.56445e-14)
(-0.0604008 0.00935938 -4.55844e-14)
(0.0135484 0.00592924 1.00934e-14)
(0.0474783 -0.00242083 1.36285e-14)
(0.0125272 -0.0053817 2.09629e-14)
(-0.0235217 0.00234196 -9.02067e-15)
(0.00679308 -0.00145851 2.5547e-14)
(0.00704502 -0.000531929 2.07231e-13)
(0.00278575 -0.000664805 5.34512e-14)
(3.39834e-05 -0.0003087 -7.58398e-14)
(-0.000701688 -7.6097e-05 -1.16588e-13)
(-7.18111e-06 -0.000317646 1.66346e-14)
(0.00569693 0.000361715 -2.82543e-14)
(0.0329832 -0.00924402 4.7201e-14)
(-0.000133965 0.00185984 1.88162e-14)
(-0.000236787 0.00160734 -3.68739e-14)
(-0.000320274 0.0012803 -4.04063e-15)
(-0.000365436 0.0010398 -3.37246e-14)
(-0.000376518 0.00079157 -2.08236e-14)
(-0.000347638 0.000549371 7.34767e-14)
(-0.000283627 0.000340968 -1.84169e-13)
(-0.000246492 0.00028082 1.69127e-13)
(-0.000279615 0.000304041 2.01485e-15)
(-0.000299955 0.000290093 -1.20416e-13)
(-0.000313762 0.000258234 -7.02467e-14)
(-0.000313169 0.000221836 -1.98381e-14)
(-0.000303055 0.000186319 5.95869e-14)
(-0.000287894 0.000151732 1.29281e-13)
(-0.000267571 0.000119938 2.11141e-14)
(-0.00024288 9.33552e-05 -4.7338e-14)
(-0.000218227 7.22259e-05 2.21984e-14)
(-0.000195019 5.55213e-05 5.00099e-14)
(-0.000173258 4.27547e-05 -3.67789e-15)
(-0.000152908 3.28863e-05 -7.78285e-15)
(-0.000134414 2.57083e-05 -2.14376e-14)
(-0.000117704 2.04018e-05 5.28071e-14)
(-0.000103177 1.74255e-05 3.09355e-14)
(-9.23614e-05 1.60228e-05 -1.07667e-14)
(-8.57025e-05 1.35249e-05 -1.69121e-14)
(-8.15255e-05 1.0328e-05 -6.96414e-15)
(-7.92786e-05 7.2649e-06 1.26254e-14)
(-7.88873e-05 4.47753e-06 -8.91373e-16)
(-7.30994e-05 -1.42016e-07 -5.13472e-16)
(-6.32269e-05 -4.02399e-07 2.01647e-16)
(-6.34203e-05 4.77874e-06 -3.98781e-17)
(-6.70871e-05 7.61427e-06 -3.6761e-17)
(-6.56909e-05 2.34813e-05 2.74418e-16)
(-0.000116852 -0.000119179 5.12039e-16)
(-0.000801258 -0.00229355 -3.23201e-15)
(-0.000600334 -0.00183234 7.59126e-15)
(-0.000270507 -0.000268262 -1.2889e-14)
(-0.000196683 0.000648704 -2.99063e-14)
(-0.00115796 -0.00027816 -1.04359e-16)
(-6.00997e-05 0.00164406 -4.04102e-15)
(3.48241e-05 0.00159771 4.77958e-15)
(0.00012284 0.00130785 5.67703e-17)
(0.000236434 0.00133663 -4.17676e-15)
(0.000313545 0.00129193 -2.88331e-14)
(0.000386523 0.00123016 3.46366e-14)
(0.000466459 0.00117295 1.26348e-14)
(0.000522532 0.00108349 -7.01541e-14)
(0.000561404 0.000976172 -5.82317e-14)
(0.000583014 0.000863397 -1.21382e-13)
(0.000578898 0.00074655 1.74614e-14)
(0.000557106 0.000638181 -1.32356e-13)
(0.000519749 0.000543187 8.04624e-15)
(0.000475132 0.00046064 3.54355e-13)
(0.00042322 0.000392658 -2.34208e-13)
(0.000386455 0.000310535 -1.67666e-13)
(0.000361726 0.000237718 1.0158e-13)
(0.000329528 0.000203291 -1.31966e-13)
(0.000287856 0.000216415 8.48915e-14)
(0.000243451 0.000236874 -1.43969e-13)
(1.83544e-05 0.000108544 -1.61818e-13)
(0.000222952 0.000475856 1.83268e-13)
(0.00142714 0.00118336 -4.0535e-14)
(0.0014764 0.000133897 8.96869e-14)
(0.00107085 -0.00282283 5.67711e-14)
(-0.00345422 -0.00401712 6.31571e-15)
(0.044192 -0.00702222 1.08822e-13)
(0.00365492 0.0039813 -2.11474e-14)
(-0.0155605 0.0109762 2.25347e-14)
(0.00134514 -0.000862182 -5.53728e-14)
(-0.0129428 -0.0057916 -1.55689e-13)
(0.0044086 0.000758026 1.36852e-15)
(0.00442838 -0.000699704 1.40171e-13)
(0.00697269 -0.000571305 -3.31486e-14)
(0.00193582 -0.000254751 -1.04846e-13)
(-0.000568265 7.44664e-05 1.18015e-13)
(-0.000934525 -4.28546e-06 -3.96361e-14)
(0.00310038 0.000739014 -1.66213e-14)
(0.0201447 -0.00966029 -9.81094e-16)
(-0.000141336 0.00154997 2.02824e-14)
(-0.000213668 0.00135899 1.43633e-14)
(-0.000268891 0.00110044 -3.19922e-14)
(-0.000307739 0.000912224 7.88746e-14)
(-0.000321391 0.000714432 1.86885e-13)
(-0.000306443 0.000520564 -6.87561e-14)
(-0.000276892 0.000381098 -7.24476e-14)
(-0.000268411 0.000336104 1.50444e-13)
(-0.000296241 0.000331665 1.26934e-13)
(-0.000311809 0.000305367 3.56491e-14)
(-0.000319757 0.000270706 -5.19385e-14)
(-0.000317412 0.000233718 5.91814e-14)
(-0.000305809 0.000197943 4.54275e-14)
(-0.000289072 0.000164186 -3.98218e-15)
(-0.000268353 0.000133423 -9.37211e-14)
(-0.000244064 0.000106854 3.96413e-15)
(-0.000219752 8.55066e-05 3.73015e-15)
(-0.000196478 6.83743e-05 2.06816e-16)
(-0.000174697 5.48589e-05 1.51384e-14)
(-0.000154221 4.40801e-05 -5.43057e-15)
(-0.000135566 3.60682e-05 1.23011e-14)
(-0.000118705 2.99893e-05 -2.67244e-14)
(-0.000103966 2.65312e-05 -1.53651e-14)
(-9.26219e-05 2.44041e-05 1.55018e-14)
(-8.52664e-05 2.16928e-05 2.09531e-14)
(-8.07098e-05 1.79419e-05 1.25525e-15)
(-7.83554e-05 1.41283e-05 -1.23693e-15)
(-7.77741e-05 1.01958e-05 -3.25994e-15)
(-7.22419e-05 4.68168e-06 6.54264e-16)
(-6.27153e-05 5.30037e-06 -1.04572e-16)
(-6.27379e-05 4.4735e-06 -5.30396e-16)
(-6.83757e-05 -1.03733e-05 -2.80085e-17)
(-7.51044e-05 -2.87279e-05 7.70681e-17)
(-0.000103059 0.000234559 -7.11377e-17)
(0.000121114 0.00339252 -9.27679e-16)
(-1.57081e-05 0.00260582 -6.87897e-16)
(-6.00796e-05 0.000260818 1.03183e-14)
(-0.000176803 -0.000760043 -1.08676e-14)
(-0.00106385 -5.47224e-05 5.48069e-15)
(-1.41381e-05 0.0013761 1.93829e-15)
(6.62811e-05 0.00133177 5.0673e-16)
(0.000137256 0.00112175 3.16242e-15)
(0.000236053 0.00115668 -2.45887e-15)
(0.000304868 0.00111942 -1.0843e-15)
(0.000372516 0.0010685 1.63389e-14)
(0.000447904 0.00101945 7.60528e-15)
(0.000501122 0.000938707 4.0478e-14)
(0.000540221 0.000845513 6.79666e-14)
(0.000564589 0.000746194 -3.20437e-14)
(0.000566132 0.000643107 -7.79469e-15)
(0.000552192 0.000546042 7.50092e-14)
(0.000525358 0.000458988 -1.45508e-13)
(0.000486929 0.00038374 -2.89387e-13)
(0.000443013 0.000319511 1.75231e-13)
(0.000397991 0.000262254 2.68356e-13)
(0.000329128 0.00026086 -3.55851e-13)
(0.000277943 0.000271991 6.06684e-14)
(0.000236286 0.000286218 1.11899e-13)
(0.000175887 0.000274464 -1.12966e-13)
(5.487e-05 0.000332814 8.56222e-14)
(5.27996e-05 0.000732493 -8.7337e-14)
(0.000709025 0.00117055 -1.69251e-13)
(0.00165759 9.3079e-05 -5.03162e-14)
(0.00132966 -0.00231331 -1.16204e-13)
(-0.000554193 -0.002847 5.6324e-14)
(-0.00104755 -0.000797837 -1.6213e-14)
(-0.00560578 0.00251982 -1.09013e-14)
(-0.00175963 0.00293219 2.13825e-14)
(-0.0234486 0.00449208 4.23931e-14)
(0.0176694 -0.00302035 3.28944e-14)
(-0.0078437 -0.000321064 -4.52618e-14)
(-0.000272329 -0.000477491 -1.1644e-13)
(0.00220787 1.81068e-05 -1.48655e-13)
(0.0021375 0.000144903 3.37805e-14)
(-0.00127795 0.000760991 7.33079e-14)
(-0.00190969 -1.89422e-05 8.46011e-14)
(0.00251636 0.000578262 3.84747e-14)
(0.0172933 -0.0102746 2.88071e-14)
(-8.8472e-05 0.00130163 8.5948e-15)
(-0.000153401 0.00115805 -2.06927e-14)
(-0.000208071 0.000952947 1.04908e-14)
(-0.000248085 0.000803254 -5.83295e-15)
(-0.000268996 0.000644696 4.68102e-15)
(-0.000268252 0.000484963 -7.81809e-14)
(-0.000261265 0.000389904 -2.94257e-14)
(-0.000272628 0.0003614 -3.50584e-14)
(-0.000297462 0.000344743 2.74172e-14)
(-0.000310779 0.000312229 1.35735e-13)
(-0.000316841 0.0002755 -3.03591e-14)
(-0.000314728 0.000238212 -5.88493e-14)
(-0.000303883 0.000201877 2.5013e-15)
(-0.000287689 0.000167803 -5.12984e-14)
(-0.000267745 0.000136838 1.70033e-14)
(-0.000244683 0.000109545 2.54112e-14)
(-0.000221387 8.70885e-05 3.93181e-14)
(-0.000198792 6.88453e-05 1.50491e-14)
(-0.000177394 5.4197e-05 -1.77031e-14)
(-0.000157144 4.25454e-05 2.27258e-14)
(-0.000138574 3.37476e-05 2.51828e-14)
(-0.000121654 2.73763e-05 1.82594e-14)
(-0.000106791 2.36218e-05 3.8157e-15)
(-9.48826e-05 2.14553e-05 -1.44098e-14)
(-8.6744e-05 1.89692e-05 1.18017e-14)
(-8.15514e-05 1.57117e-05 3.28036e-15)
(-7.8857e-05 1.19915e-05 -1.13709e-14)
(-7.78854e-05 8.19262e-06 1.22342e-15)
(-7.25126e-05 2.57445e-06 -1.18429e-16)
(-6.34145e-05 2.62935e-06 2.05575e-16)
(-6.30548e-05 3.89444e-06 6.67098e-16)
(-6.8172e-05 2.79899e-06 -1.6048e-16)
(-7.18092e-05 4.80419e-06 -2.50689e-16)
(-5.39427e-05 -6.67507e-05 5.63557e-16)
(0.000290622 -0.00112612 1.39431e-15)
(0.000218184 -0.000906998 -1.19103e-14)
(-0.000143037 1.28794e-05 3.46343e-15)
(-0.00045859 0.000247924 4.41712e-14)
(-0.00131693 0.000332701 3.10358e-14)
(-4.98355e-06 0.00117006 3.09099e-15)
(5.64615e-05 0.00112485 5.82426e-16)
(0.000111653 0.000978127 -1.12625e-15)
(0.00019347 0.00101968 4.1699e-15)
(0.000249718 0.000983733 -8.69077e-15)
(0.000308426 0.000947686 -1.09475e-15)
(0.000374828 0.000912686 2.36001e-14)
(0.000421105 0.000850216 -1.11471e-14)
(0.000455356 0.000774683 -3.96151e-14)
(0.000477502 0.000694717 2.65387e-14)
(0.000480228 0.000610497 -6.0779e-14)
(0.000470509 0.000531019 -1.50862e-13)
(0.000448987 0.000459669 1.06605e-13)
(0.000416555 0.000396195 3.77169e-13)
(0.000378668 0.000341933 -1.38918e-14)
(0.000335501 0.000299328 -4.01371e-13)
(0.00029725 0.000259657 3.32536e-13)
(0.000270331 0.000237248 2.3337e-13)
(0.000244141 0.000230464 1.24569e-13)
(0.00021826 0.000229019 5.87361e-14)
(0.000158818 0.000272701 -2.88414e-14)
(0.000197953 0.000573386 1.61934e-13)
(0.000739874 0.000960337 1.11966e-13)
(0.00132183 0.000339374 -1.01886e-14)
(0.000566405 -0.00121834 2.14258e-13)
(-0.00116162 -0.00152594 -6.5705e-14)
(-0.00204491 4.96927e-05 -7.65328e-15)
(0.000102454 0.00137038 5.67704e-15)
(0.00185174 0.00158288 -2.01422e-14)
(0.00450598 0.00036225 -2.08065e-14)
(0.00190237 -0.000631608 -1.52569e-14)
(-0.0017868 -0.000590877 4.77709e-14)
(-0.00238692 -0.000366467 -2.27686e-14)
(-0.0008081 0.000112712 -1.27981e-13)
(-0.000245277 0.000570769 -2.08076e-14)
(-0.0225074 0.00763417 -1.02628e-13)
(0.0054959 -0.00277986 -5.75723e-14)
(0.00180669 0.000699066 6.46666e-15)
(0.0141302 -0.00943667 -2.59272e-14)
(-6.77253e-05 0.00111073 -9.66496e-15)
(-0.000121243 0.000997983 1.2194e-14)
(-0.000169714 0.000831725 -2.61343e-14)
(-0.00020759 0.000708761 -3.94504e-15)
(-0.000229875 0.000575967 7.38165e-15)
(-0.000235041 0.00044514 1.10938e-14)
(-0.00024079 0.000383391 8.06398e-14)
(-0.00026489 0.000365378 -1.01461e-13)
(-0.000288283 0.000343589 -3.28006e-14)
(-0.000302196 0.000310597 -3.11484e-14)
(-0.00030847 0.000274603 1.17307e-13)
(-0.00030711 0.000238661 -4.64463e-14)
(-0.000297665 0.000203428 -4.56663e-15)
(-0.00028273 0.000170513 1.85393e-14)
(-0.000264007 0.000140472 1.77851e-14)
(-0.000242253 0.000113855 1.20877e-14)
(-0.000220195 9.16567e-05 -7.68259e-14)
(-0.000198438 7.34981e-05 -2.81418e-14)
(-0.000177565 5.86975e-05 3.58172e-14)
(-0.00015767 4.68997e-05 1.42863e-15)
(-0.000139349 3.77686e-05 3.63862e-14)
(-0.000122548 3.12776e-05 -1.03903e-14)
(-0.000107658 2.71781e-05 1.5066e-15)
(-9.54337e-05 2.47747e-05 2.42354e-14)
(-8.6704e-05 2.23068e-05 -2.03629e-14)
(-8.11162e-05 1.92793e-05 -6.98983e-15)
(-7.81123e-05 1.56562e-05 6.58218e-15)
(-7.69526e-05 1.14245e-05 2.19793e-15)
(-7.17782e-05 5.5868e-06 -1.1676e-18)
(-6.31811e-05 5.02719e-06 -2.57094e-16)
(-6.22796e-05 5.22204e-06 6.37537e-16)
(-6.63763e-05 4.16405e-07 7.50697e-17)
(-6.97784e-05 -2.86711e-07 -1.08038e-15)
(-7.74444e-05 2.55143e-06 5.43769e-17)
(-8.36251e-05 2.51908e-05 -3.16206e-15)
(-7.31704e-05 8.67616e-05 7.24214e-15)
(-0.000177219 -1.72934e-05 -1.54293e-15)
(-0.000258616 -7.59519e-05 -2.461e-15)
(-0.000727849 -0.00039198 -4.22056e-14)
(6.19137e-06 0.00100443 1.40111e-15)
(5.87287e-05 0.000978011 1.51047e-15)
(0.000105653 0.00085218 -9.49611e-16)
(0.000178415 0.000892903 -1.91875e-15)
(0.000233291 0.00089032 -3.80298e-15)
(0.000280257 0.000831765 1.6506e-14)
(0.000336954 0.000796609 1.38756e-14)
(0.000380423 0.000747604 -5.19123e-14)
(0.000413023 0.000687078 2.17313e-14)
(0.000435516 0.000621815 1.11286e-13)
(0.000441067 0.000549691 4.6318e-14)
(0.000435675 0.000481421 2.1313e-14)
(0.000419972 0.000418342 -1.87883e-13)
(0.000393784 0.000360746 -4.29858e-13)
(0.000361227 0.000310636 -3.04039e-13)
(0.000324774 0.000268446 1.20068e-13)
(0.000287637 0.000235713 -7.38529e-14)
(0.00025224 0.000233251 -3.77116e-13)
(0.000224383 0.000242522 -1.94583e-13)
(0.000200331 0.000263896 1.60889e-13)
(0.00016515 0.000320746 1.60969e-13)
(0.000224899 0.000540414 -9.33432e-14)
(0.000648222 0.000769298 -3.83137e-14)
(0.00106634 0.000235888 2.40008e-15)
(0.000492633 -0.000917862 -6.09653e-14)
(-0.0008264 -0.00103065 6.32925e-14)
(-0.0012213 0.000300488 7.21979e-15)
(-0.000449875 0.0013748 4.32085e-15)
(0.000649594 0.00123188 -4.415e-15)
(0.0013029 0.000592974 5.21807e-14)
(0.00182112 -0.000180508 3.49627e-14)
(0.00035212 -0.000535986 -3.44448e-15)
(-0.000907645 -0.000408587 1.13107e-13)
(-0.000858133 -0.000213869 7.80683e-14)
(0.00100313 -0.00199045 -4.04123e-14)
(0.0159476 -0.00218719 7.07813e-14)
(0.00402066 0.00101927 5.82093e-14)
(0.00264515 -0.00071144 -3.49663e-14)
(0.0105654 -0.00718715 -2.77434e-14)
(-4.73759e-05 0.000954109 7.39122e-15)
(-9.6383e-05 0.000864573 -1.20441e-14)
(-0.000141366 0.000726291 3.26951e-15)
(-0.000178521 0.000624583 6.10923e-14)
(-0.000199782 0.000517104 3.14438e-15)
(-0.000209751 0.000418251 1.01651e-13)
(-0.000225229 0.000376892 1.36655e-13)
(-0.000253603 0.000363108 -5.30007e-14)
(-0.00027393 0.000334159 -7.25299e-14)
(-0.000288076 0.000302343 -5.54114e-14)
(-0.000295812 0.000269074 -1.02165e-13)
(-0.000296041 0.000235358 -5.52893e-15)
(-0.000288361 0.000201826 -4.30503e-14)
(-0.000275298 0.000170228 5.78121e-14)
(-0.000258213 0.000141251 1.93967e-14)
(-0.000238156 0.000115334 -3.07512e-14)
(-0.000217645 9.34986e-05 -3.26286e-15)
(-0.000197038 7.52905e-05 -2.54406e-14)
(-0.000176961 6.02402e-05 2.79086e-15)
(-0.000157673 4.80112e-05 -1.77681e-14)
(-0.000139779 3.85075e-05 -3.338e-14)
(-0.000123328 3.15966e-05 1.47958e-14)
(-0.00010855 2.71334e-05 -2.76256e-14)
(-9.61554e-05 2.43559e-05 -1.00664e-14)
(-8.69529e-05 2.1961e-05 6.28575e-15)
(-8.09587e-05 1.91262e-05 3.97119e-15)
(-7.75705e-05 1.58219e-05 1.56322e-15)
(-7.6136e-05 1.14672e-05 -1.03506e-15)
(-7.11425e-05 5.72329e-06 -4.35131e-16)
(-6.30531e-05 4.40162e-06 -7.72718e-17)
(-6.18154e-05 4.51124e-06 -1.03022e-15)
(-6.56365e-05 5.03022e-07 5.53283e-16)
(-6.99918e-05 -2.46132e-07 3.06323e-15)
(-7.89149e-05 1.08446e-06 5.11925e-17)
(-9.05349e-05 -8.59771e-06 2.49727e-15)
(-0.000106942 -2.57018e-05 -3.42268e-15)
(-0.00014071 -4.42838e-05 -6.46541e-15)
(-0.000239686 -8.11105e-05 3.78582e-15)
(-0.000331751 -0.000605484 -2.2629e-14)
(7.78094e-06 0.000868456 2.41728e-15)
(5.56853e-05 0.000906025 4.02426e-15)
(9.46561e-05 0.000765252 -1.7609e-16)
(0.000158535 0.000794197 5.08985e-19)
(0.000214034 0.000827062 -2.54008e-15)
(0.000255551 0.000773522 -6.73455e-15)
(0.000307846 0.000746122 -4.93884e-15)
(0.000337166 0.000675981 -5.23689e-14)
(0.000363424 0.000617937 -1.00723e-15)
(0.00038481 0.000564243 1.92807e-14)
(0.000392289 0.000505601 -2.32917e-14)
(0.000391003 0.000448917 1.41247e-13)
(0.000378993 0.000396355 1.49072e-13)
(0.000357337 0.000347004 2.6949e-14)
(0.000329284 0.000303408 2.76873e-13)
(0.000297219 0.000267016 -5.76109e-14)
(0.000263741 0.000240902 -7.29863e-16)
(0.000236824 0.000223195 2.1447e-13)
(0.000217893 0.000225152 9.99258e-14)
(0.000203458 0.000241828 -2.94228e-14)
(0.000193561 0.00028737 -1.21911e-13)
(0.000259144 0.000426981 -1.15874e-14)
(0.000557107 0.000547526 -9.36599e-14)
(0.000830756 0.000142451 -8.10387e-14)
(0.000383811 -0.000679803 4.88758e-14)
(-0.000622245 -0.000725354 -3.10926e-14)
(-0.000990951 0.000355571 -5.64898e-14)
(-0.00023583 0.00121152 6.45119e-15)
(0.000792431 0.00101199 -3.1152e-15)
(0.00141175 0.000334034 -3.83223e-15)
(0.00142515 -0.00025088 8.20592e-14)
(0.000810166 -0.000524899 -2.93307e-14)
(-6.4401e-05 -0.000416543 -3.90364e-14)
(-0.000536998 -0.000160857 2.27049e-13)
(0.00080289 -0.000270833 3.70588e-14)
(0.0104044 -0.00540232 -8.29241e-14)
(-0.00496988 0.00242692 -1.57666e-14)
(-0.0056229 0.00805854 2.61382e-14)
(0.0024106 -0.00493198 -5.05035e-15)
(-3.88644e-05 0.00082634 -1.31443e-14)
(-8.12535e-05 0.000751387 -3.10174e-14)
(-0.000122272 0.000637978 5.06885e-14)
(-0.000151569 0.000555119 9.71637e-14)
(-0.000174134 0.000462214 6.43187e-14)
(-0.000189128 0.000393285 -1.65789e-13)
(-0.000207497 0.000357698 -1.14059e-13)
(-0.000237882 0.000349925 -3.87775e-14)
(-0.000259088 0.000323992 7.08582e-14)
(-0.000271828 0.000290618 7.32035e-14)
(-0.000280509 0.000259839 2.72949e-14)
(-0.000282561 0.000228976 2.50408e-14)
(-0.000276874 0.000197765 -2.67406e-14)
(-0.000265903 0.000167968 -8.73373e-14)
(-0.000250668 0.000140454 1.34149e-14)
(-0.000232502 0.000115771 2.70942e-14)
(-0.000213636 9.47666e-05 1.84378e-14)
(-0.000194267 7.69432e-05 5.1086e-14)
(-0.000175134 6.20731e-05 -2.84807e-14)
(-0.000156595 4.97645e-05 -2.12613e-14)
(-0.000139275 4.01937e-05 -1.53182e-14)
(-0.000123236 3.30936e-05 -3.15585e-15)
(-0.000108701 2.83708e-05 2.46382e-14)
(-9.62261e-05 2.53127e-05 1.64549e-14)
(-8.67555e-05 2.29309e-05 1.90874e-14)
(-8.03926e-05 2.03939e-05 6.47001e-15)
(-7.6725e-05 1.73792e-05 2.82305e-17)
(-7.49518e-05 1.32424e-05 2.2131e-15)
(-7.02024e-05 7.33243e-06 -3.08458e-16)
(-6.26006e-05 5.54999e-06 3.02093e-16)
(-6.11765e-05 5.21386e-06 -3.79777e-16)
(-6.47221e-05 1.23017e-06 3.17669e-17)
(-6.9425e-05 -4.9638e-07 -1.7593e-15)
(-7.80784e-05 -5.09212e-07 4.2391e-16)
(-9.08892e-05 -3.63631e-06 4.62895e-15)
(-0.000104529 -9.88063e-06 -1.09942e-15)
(-0.000144859 -1.57217e-05 8.88835e-16)
(-0.000260555 -4.91143e-05 -8.14176e-15)
(-0.000683041 -0.000196304 7.93502e-15)
(8.63543e-06 0.000756151 -2.94629e-15)
(5.078e-05 0.000788207 1.78902e-16)
(8.56805e-05 0.000726463 -1.65396e-15)
(0.000139763 0.00070583 -1.5231e-15)
(0.000183342 0.000683865 9.00229e-15)
(0.000237425 0.000731377 -2.93903e-15)
(0.000282072 0.000684979 2.92748e-14)
(0.000311887 0.000630349 2.04792e-14)
(0.000336968 0.000582271 5.16004e-15)
(0.000347836 0.000513821 -1.70697e-15)
(0.000355418 0.000459424 7.11995e-15)
(0.000356909 0.000411105 -3.14155e-14)
(0.000350134 0.000366078 -1.37086e-13)
(0.000332352 0.000322349 3.64128e-14)
(0.000309053 0.000283282 1.88142e-14)
(0.000281086 0.00025011 5.25273e-14)
(0.000252387 0.000224197 -4.53426e-16)
(0.000224904 0.000209342 -9.40646e-14)
(0.000209346 0.000214159 -1.38998e-13)
(0.00019959 0.000232913 -1.19687e-13)
(0.000202415 0.000271994 -6.9697e-14)
(0.000264028 0.0003622 -5.64248e-14)
(0.000476048 0.000408762 1.91325e-14)
(0.000652348 7.9701e-05 6.72244e-14)
(0.000310561 -0.000523041 -3.61854e-14)
(-0.000439992 -0.000540552 -1.37662e-14)
(-0.000694086 0.000303884 4.44593e-14)
(-5.56699e-05 0.00101506 2.1051e-15)
(0.000774403 0.000870206 2.45306e-14)
(0.00113767 0.000270951 -3.0576e-14)
(0.00101722 -0.000268372 -1.01142e-13)
(0.000598681 -0.000510468 -5.51582e-14)
(0.000108119 -0.000416859 3.49532e-14)
(-0.000316189 -0.000178359 -1.5018e-14)
(-0.000330708 2.63935e-05 2.03703e-14)
(-0.000592185 0.000884753 3.04927e-14)
(-9.30759e-05 -0.00012554 5.42023e-15)
(0.00247966 0.000629836 -1.6898e-14)
(-0.000836452 -0.00567478 4.26372e-14)
(-3.13229e-05 0.000718913 -2.40512e-14)
(-6.91653e-05 0.000657283 1.50618e-14)
(-0.000103841 0.000564486 4.42746e-14)
(-0.000132101 0.000493321 1.44975e-14)
(-0.000151104 0.000414344 1.02132e-13)
(-0.000170458 0.000366992 1.87089e-14)
(-0.000195328 0.000350114 -2.79124e-15)
(-0.000217106 0.000321189 -9.34344e-14)
(-0.000241294 0.000306203 -3.8817e-14)
(-0.000255545 0.000278107 5.64916e-14)
(-0.000264592 0.00024914 6.41649e-14)
(-0.000267753 0.000220654 1.04452e-13)
(-0.0002639 0.000191679 9.98124e-14)
(-0.000254965 0.000163953 -2.10588e-14)