/*--------------------------------*- C++ -*----------------------------------*\
| =========                 |                                                 |
| \\      /  F ield         | OpenFOAM: The Open Source CFD Toolbox           |
|  \\    /   O peration     | Version:  2306                                  |
|   \\  /    A nd           | Website:  www.openfoam.com                      |
|    \\/     M anipulation  |                                                 |
\*---------------------------------------------------------------------------*/
FoamFile
{
    version     2.0;
    format      ascii;
    arch        "LSB;label=32;scalar=64";
    class       volScalarField;
    location    "375";
    object      nuTilda;
}
// * * * * * * * * * * * * * * * * * * * * * * * * * * * * * * * * * * * * * //

dimensions      [0 2 -1 0 0 0 0];

internalField   nonuniform List<scalar> 
10720
(
6.29098e-05
6.61144e-05
7.0216e-05
7.53186e-05
8.16875e-05
8.97472e-05
0.000100162
0.000113485
0.000130975
0.000154083
0.000185123
0.000227462
0.000285638
0.000367529
0.000486584
0.000664683
0.000946305
0.00139547
0.00221755
0.00358945
0.00690204
0.0127115
0.0339174
0.076052
0.0937365
0.0946623
0.0956976
0.0992278
0.102745
0.104483
0.104461
0.103214
0.100845
0.0974128
0.0927919
0.0869112
0.0784775
0.0690199
0.0538227
6.0001e-05
5.73609e-05
5.46057e-05
5.1907e-05
4.91583e-05
4.63761e-05
4.36722e-05
4.15916e-05
4.34422e-05
4.7296e-05
5.29033e-05
6.05934e-05
7.10603e-05
8.55644e-05
0.000105908
0.000135073
0.000177818
0.000242224
0.000342405
0.000503213
0.000773839
0.00124217
0.00211761
0.00376985
0.00732793
0.0147226
0.0324769
0.0663206
0.0934689
0.105025
0.108433
0.109375
0.109471
0.108975
0.107973
0.106577
0.104431
0.101996
0.0924632
3.8071e-05
3.78508e-05
3.76496e-05
3.74809e-05
3.72851e-05
3.71033e-05
3.69672e-05
3.68471e-05
3.67951e-05
3.68408e-05
3.69025e-05
3.75061e-05
3.96457e-05
4.42931e-05
5.39083e-05
7.2042e-05
0.000107846
0.000173834
0.000318888
0.000589643
0.00132229
0.00283145
0.00711454
0.0205117
0.0395465
0.0633252
0.0925382
0.123664
0.148701
0.16266
0.167962
0.168795
0.167213
0.163861
0.159347
0.153845
0.148556
0.139898
0.147221
3.8244e-05
3.84755e-05
3.86703e-05
3.89311e-05
3.91945e-05
3.9457e-05
3.97066e-05
3.99144e-05
3.97971e-05
3.95291e-05
3.91565e-05
3.86933e-05
3.81511e-05
3.75296e-05
3.67953e-05
3.59242e-05
3.48274e-05
3.34378e-05
3.15607e-05
2.8973e-05
2.5173e-05
1.98028e-05
1.18099e-05
4.78915e-06
7.59824e-06
0.00011549
0.000541145
0.00415662
0.0141153
0.0287192
0.0437269
0.0550623
0.0618252
0.065607
0.0680049
0.0699951
0.0717267
0.0752987
0.07846
4.03655e-05
4.03971e-05
4.04298e-05
4.04649e-05
4.05078e-05
4.05557e-05
4.06103e-05
4.06739e-05
4.07488e-05
4.08361e-05
4.09393e-05
4.10654e-05
4.12047e-05
4.14504e-05
4.14618e-05
4.07955e-05
3.72033e-05
3.54252e-05
2.03713e-05
0.000118548
0.000260174
3.87931e-05
0.00147436
0.000526853
0.00289639
0.00738826
0.0154507
0.0308686
0.0572817
0.0937285
0.132784
0.164521
0.184939
0.196776
0.203463
0.206341
0.2076
0.201644
0.212155
4.03414e-05
4.03066e-05
4.028e-05
4.02404e-05
4.02063e-05
4.01697e-05
4.0137e-05
4.01111e-05
4.01199e-05
4.01475e-05
4.01837e-05
4.02278e-05
4.02816e-05
4.03416e-05
4.04091e-05
4.04833e-05
4.05673e-05
4.06632e-05
4.07771e-05
4.09146e-05
4.10898e-05
4.13121e-05
4.16238e-05
4.19506e-05
4.23859e-05
4.19224e-05
4.2074e-05
3.13482e-05
0.000107673
0.000790896
0.00301742
0.00754186
0.0142527
0.0224359
0.031157
0.0396004
0.0469996
0.0536718
0.0631645
4.00344e-05
4.003e-05
4.00288e-05
4.00295e-05
4.00312e-05
4.00362e-05
4.00453e-05
4.00578e-05
4.00764e-05
4.01015e-05
4.01347e-05
4.01781e-05
4.02344e-05
4.03051e-05
4.03988e-05
4.05111e-05
4.02422e-05
3.98167e-05
3.62292e-05
2.60304e-05
8.59491e-06
1.31521e-05
0
0.000108153
0.000605187
0.00158761
0.000438714
0.00131443
0.00416144
0.0136036
0.035667
0.0728401
0.118878
0.161375
0.193252
0.215379
0.231974
0.239222
0.255752
4.00357e-05
4.004e-05
4.00458e-05
4.00499e-05
4.00569e-05
4.00607e-05
4.00631e-05
4.00649e-05
4.00609e-05
4.00559e-05
4.00494e-05
4.00425e-05
4.00361e-05
4.00297e-05
4.00235e-05
4.00171e-05
4.00102e-05
4.00028e-05
3.99934e-05
3.99839e-05
3.9974e-05
3.99633e-05
3.99506e-05
3.99389e-05
3.99262e-05
3.99306e-05
3.9917e-05
4.00278e-05
3.98716e-05
3.97851e-05
3.83236e-05
3.60552e-05
0.000233068
0.0010468
0.00304058
0.00689418
0.0131036
0.0218476
0.0392286
4.00809e-05
4.00819e-05
4.00824e-05
4.00841e-05
4.00869e-05
4.00906e-05
4.00955e-05
4.01021e-05
4.01108e-05
4.01222e-05
4.01372e-05
4.01567e-05
4.01822e-05
4.02151e-05
4.02594e-05
4.03106e-05
4.03937e-05
4.03937e-05
4.0826e-05
4.05201e-05
3.75302e-05
2.91098e-05
8.98893e-06
4.53802e-06
0
0
9.39213e-05
0.00028562
0.000916828
0.0030642
0.000924103
0.00810746
0.0295735
0.0707414
0.124148
0.175079
0.21721
0.248093
0.278432
4.0081e-05
4.00784e-05
4.00797e-05
4.00777e-05
4.00794e-05
4.00771e-05
4.00732e-05
4.00697e-05
4.00678e-05
4.00673e-05
4.00673e-05
4.00671e-05
4.00677e-05
4.00687e-05
4.00705e-05
4.00728e-05
4.00757e-05
4.00791e-05
4.00831e-05
4.00877e-05
4.00928e-05
4.00985e-05
4.01048e-05
4.01118e-05
4.0121e-05
4.01289e-05
4.01533e-05
4.01158e-05
4.03775e-05
3.92933e-05
4.4376e-05
2.15058e-05
6.2741e-05
0.000253329
9.29408e-05
0.000313732
0.00104333
0.00174566
0.013707
4.00695e-05
4.00691e-05
4.00697e-05
4.00701e-05
4.00703e-05
4.00711e-05
4.00722e-05
4.00736e-05
4.00759e-05
4.0079e-05
4.00833e-05
4.00892e-05
4.00973e-05
4.01082e-05
4.01232e-05
4.01433e-05
4.01719e-05
4.01905e-05
4.03081e-05
4.04531e-05
4.09533e-05
4.05605e-05
3.84285e-05
2.34087e-05
8.22821e-06
5.47857e-06
2.4489e-06
0
0
0
0.000207353
0.00185035
0.000379615
0.00874737
0.0380733
0.0932769
0.160433
0.22403
0.278403
4.00687e-05
4.00674e-05
4.00691e-05
4.00687e-05
4.00718e-05
4.00713e-05
4.00688e-05
4.00665e-05
4.00647e-05
4.00636e-05
4.00628e-05
4.00619e-05
4.00614e-05
4.00611e-05
4.00611e-05
4.00612e-05
4.00614e-05
4.00618e-05
4.00622e-05
4.00627e-05
4.00631e-05
4.00634e-05
4.00635e-05
4.00628e-05
4.00627e-05
4.00633e-05
4.00641e-05
4.00674e-05
4.00666e-05
4.00832e-05
4.00469e-05
4.02002e-05
3.89095e-05
3.61302e-05
3.00319e-05
7.79061e-05
0.000247322
0.000456612
0.00240303
4.007e-05
4.00704e-05
4.00707e-05
4.00708e-05
4.0071e-05
4.00712e-05
4.00715e-05
4.00721e-05
4.0073e-05
4.00743e-05
4.00762e-05
4.00789e-05
4.00828e-05
4.00881e-05
4.00954e-05
4.01057e-05
4.01196e-05
4.01339e-05
4.01499e-05
4.01787e-05
4.0292e-05
4.04869e-05
4.15167e-05
4.09285e-05
3.58999e-05
2.75648e-05
1.21251e-05
7.50296e-06
5.89222e-06
2.04656e-06
0
0
8.65714e-05
0.00205508
0.00164807
0.0214956
0.0783192
0.166238
0.252395
4.00691e-05
4.00671e-05
4.00679e-05
4.00673e-05
4.00703e-05
4.00702e-05
4.0068e-05
4.00658e-05
4.00642e-05
4.00633e-05
4.00626e-05
4.00622e-05
4.0062e-05
4.00621e-05
4.0062e-05
4.00621e-05
4.00624e-05
4.00628e-05
4.00634e-05
4.00642e-05
4.00651e-05
4.00662e-05
4.00675e-05
4.00689e-05
4.00708e-05
4.00731e-05
4.00762e-05
4.00801e-05
4.0085e-05
4.00911e-05
4.0099e-05
4.01174e-05
4.02457e-05
3.94395e-05
3.38328e-05
1.83612e-05
7.68664e-06
0
0.000575283
4.00692e-05
4.00694e-05
4.007e-05
4.00699e-05
4.00696e-05
4.00693e-05
4.00691e-05
4.00688e-05
4.00687e-05
4.00687e-05
4.00688e-05
4.00693e-05
4.007e-05
4.00711e-05
4.00727e-05
4.00752e-05
4.0079e-05
4.00835e-05
4.00874e-05
4.00965e-05
4.00946e-05
4.00921e-05
4.02606e-05
4.10163e-05
4.15565e-05
4.10622e-05
3.8856e-05
3.43124e-05
2.85552e-05
9.78638e-06
7.07986e-06
1.41779e-06
0
0
0.00040125
0.000853847
0.0171171
0.0904085
0.200168
4.00681e-05
4.0066e-05
4.0066e-05
4.00652e-05
4.00682e-05
4.00684e-05
4.00668e-05
4.00649e-05
4.00634e-05
4.00625e-05
4.00619e-05
4.00616e-05
4.00615e-05
4.00617e-05
4.00618e-05
4.0062e-05
4.00622e-05
4.00622e-05
4.00623e-05
4.00625e-05
4.00627e-05
4.0063e-05
4.00633e-05
4.00636e-05
4.00638e-05
4.00641e-05
4.00646e-05
4.0065e-05
4.00655e-05
4.00657e-05
4.00667e-05
4.00622e-05
4.00828e-05
3.99988e-05
4.02334e-05
3.79627e-05
3.26041e-05
9.09515e-06
0
4.0069e-05
4.00693e-05
4.00696e-05
4.00692e-05
4.00689e-05
4.00684e-05
4.00679e-05
4.00677e-05
4.00675e-05
4.00674e-05
4.00674e-05
4.00676e-05
4.0068e-05
4.00688e-05
4.00699e-05
4.00717e-05
4.00743e-05
4.00778e-05
4.00811e-05
4.00851e-05
4.0088e-05
4.00846e-05
4.00376e-05
4.01244e-05
4.05107e-05
4.10281e-05
4.15929e-05
4.18182e-05
4.15373e-05
3.76224e-05
3.20016e-05
6.66095e-06
5.72609e-06
0
0
0.000198342
0.00464375
0.0306624
0.132972
4.0068e-05
4.00657e-05
4.0065e-05
4.00639e-05
4.00668e-05
4.00672e-05
4.0066e-05
4.00642e-05
4.00629e-05
4.00621e-05
4.00616e-05
4.00614e-05
4.00613e-05
4.00614e-05
4.00616e-05
4.00618e-05
4.00621e-05
4.00624e-05
4.00625e-05
4.00625e-05
4.00627e-05
4.00629e-05
4.00632e-05
4.00635e-05
4.00639e-05
4.00646e-05
4.00655e-05
4.00667e-05
4.00683e-05
4.00703e-05
4.00728e-05
4.00756e-05
4.0081e-05
4.00811e-05
4.01354e-05
4.02798e-05
4.10963e-05
3.75516e-05
5.93011e-06
4.00689e-05
4.00689e-05
4.00689e-05
4.00684e-05
4.00678e-05
4.00673e-05
4.00668e-05
4.00663e-05
4.00659e-05
4.00656e-05
4.00653e-05
4.00651e-05
4.0065e-05
4.00649e-05
4.00648e-05
4.00648e-05
4.00649e-05
4.00651e-05
4.00654e-05
4.00665e-05
4.00695e-05
4.00749e-05
4.00654e-05
4.00334e-05
4.00467e-05
4.01533e-05
4.04259e-05
4.08922e-05
4.15015e-05
4.2118e-05
4.23941e-05
3.80241e-05
2.57772e-05
7.8981e-06
0
0
1.04726e-05
0.000483655
0.072487
4.0068e-05
4.00656e-05
4.00644e-05
4.0063e-05
4.00656e-05
4.00662e-05
4.00652e-05
4.00636e-05
4.00624e-05
4.00617e-05
4.00614e-05
4.00611e-05
4.0061e-05
4.00611e-05
4.00612e-05
4.00615e-05
4.00618e-05
4.00621e-05
4.00624e-05
4.00627e-05
4.00629e-05
4.00631e-05
4.0063e-05
4.00631e-05
4.00632e-05
4.00633e-05
4.00637e-05
4.00642e-05
4.00648e-05
4.00656e-05
4.00664e-05
4.00677e-05
4.00671e-05
4.00771e-05
4.00396e-05
4.02038e-05
3.9534e-05
4.46732e-05
2.30907e-05
4.00687e-05
4.00684e-05
4.00682e-05
4.00675e-05
4.00669e-05
4.00663e-05
4.00657e-05
4.00654e-05
4.0065e-05
4.00648e-05
4.00646e-05
4.00645e-05
4.00644e-05
4.00645e-05
4.00647e-05
4.00651e-05
4.00657e-05
4.00666e-05
4.00677e-05
4.00686e-05
4.00697e-05
4.00718e-05
4.00745e-05
4.00674e-05
4.00482e-05
4.00319e-05
4.00401e-05
4.01189e-05
4.02961e-05
4.07283e-05
4.13999e-05
4.26254e-05
4.19096e-05
3.30684e-05
8.61994e-06
0
0
0.000809653
0.0333471
4.0068e-05
4.00657e-05
4.00641e-05
4.00623e-05
4.00647e-05
4.00654e-05
4.00645e-05
4.0063e-05
4.00621e-05
4.00615e-05
4.00612e-05
4.00609e-05
4.00607e-05
4.00607e-05
4.00608e-05
4.00611e-05
4.00614e-05
4.00617e-05
4.00621e-05
4.00624e-05
4.00627e-05
4.0063e-05
4.00632e-05
4.00633e-05
4.00634e-05
4.00636e-05
4.00638e-05
4.00643e-05
4.00649e-05
4.00657e-05
4.00666e-05
4.00682e-05
4.00682e-05
4.00766e-05
4.00483e-05
4.01796e-05
3.96081e-05
4.19696e-05
3.67252e-05
4.00683e-05
4.00678e-05
4.00674e-05
4.00667e-05
4.0066e-05
4.00653e-05
4.00648e-05
4.00644e-05
4.00641e-05
4.00638e-05
4.00637e-05
4.00635e-05
4.00634e-05
4.00633e-05
4.00633e-05
4.00634e-05
4.00635e-05
4.00638e-05
4.00642e-05
4.00649e-05
4.0066e-05
4.00675e-05
4.00701e-05
4.00724e-05
4.00707e-05
4.00635e-05
4.00493e-05
4.00365e-05
4.00268e-05
4.00725e-05
4.01844e-05
4.07602e-05
4.19601e-05
4.29243e-05
3.53897e-05
7.67095e-06
0
0.000287602
0.0131324
4.0068e-05
4.00658e-05
4.00639e-05
4.00619e-05
4.0064e-05
4.00646e-05
4.00639e-05
4.00626e-05
4.00617e-05
4.00611e-05
4.00609e-05
4.00606e-05
4.00604e-05
4.00603e-05
4.00604e-05
4.00606e-05
4.00608e-05
4.00612e-05
4.00616e-05
4.00619e-05
4.00623e-05
4.00627e-05
4.00631e-05
4.00634e-05
4.00636e-05
4.00638e-05
4.00639e-05
4.0064e-05
4.00643e-05
4.00647e-05
4.00653e-05
4.00661e-05
4.00666e-05
4.00695e-05
4.00631e-05
4.00956e-05
3.99869e-05
4.0272e-05
4.02753e-05
4.00679e-05
4.00671e-05
4.00665e-05
4.00658e-05
4.00651e-05
4.00645e-05
4.0064e-05
4.00637e-05
4.00634e-05
4.00632e-05
4.00631e-05
4.0063e-05
4.0063e-05
4.0063e-05
4.0063e-05
4.00631e-05
4.00633e-05
4.00636e-05
4.00641e-05
4.00647e-05
4.00654e-05
4.00663e-05
4.00677e-05
4.00696e-05
4.00717e-05
4.00731e-05
4.00728e-05
4.00696e-05
4.00586e-05
4.00388e-05
4.0002e-05
3.9998e-05
4.0306e-05
4.12782e-05
4.40258e-05
3.07115e-05
1.23012e-06
9.98736e-05
0.00434979
4.00678e-05
4.00659e-05
4.00639e-05
4.00616e-05
4.00634e-05
4.0064e-05
4.00634e-05
4.00621e-05
4.00614e-05
4.00608e-05
4.00605e-05
4.00603e-05
4.006e-05
4.00599e-05
4.00599e-05
4.00601e-05
4.00603e-05
4.00607e-05
4.0061e-05
4.00615e-05
4.00619e-05
4.00624e-05
4.00628e-05
4.00632e-05
4.00635e-05
4.00638e-05
4.00639e-05
4.0064e-05
4.00641e-05
4.00644e-05
4.00649e-05
4.00654e-05
4.00662e-05
4.00669e-05
4.00689e-05
4.00654e-05
4.0092e-05
3.99768e-05
4.03722e-05
4.00673e-05
4.00664e-05
4.00658e-05
4.00651e-05
4.00644e-05
4.00638e-05
4.00633e-05
4.0063e-05
4.00628e-05
4.00627e-05
4.00627e-05
4.00626e-05
4.00626e-05
4.00626e-05
4.00627e-05
4.00627e-05
4.00628e-05
4.0063e-05
4.00633e-05
4.00637e-05
4.00643e-05
4.00651e-05
4.00661e-05
4.00675e-05
4.00692e-05
4.00713e-05
4.00739e-05
4.00771e-05
4.00801e-05
4.00778e-05
4.00642e-05
4.00103e-05
3.99591e-05
4.0005e-05
4.10446e-05
4.60979e-05
1.78287e-06
2.68545e-05
0.00111393
4.00676e-05
4.00659e-05
4.00638e-05
4.00614e-05
4.00629e-05
4.00635e-05
4.00629e-05
4.00618e-05
4.0061e-05
4.00605e-05
4.00602e-05
4.006e-05
4.00597e-05
4.00595e-05
4.00595e-05
4.00596e-05
4.00599e-05
4.00602e-05
4.00606e-05
4.0061e-05
4.00615e-05
4.0062e-05
4.00624e-05
4.00629e-05
4.00633e-05
4.00636e-05
4.00639e-05
4.0064e-05
4.0064e-05
4.00642e-05
4.00644e-05
4.00648e-05
4.00654e-05
4.00657e-05
4.00677e-05
4.0064e-05
4.00836e-05
4.0027e-05
4.01533e-05
4.00667e-05
4.00657e-05
4.00651e-05
4.00644e-05
4.00637e-05
4.00631e-05
4.00628e-05
4.00626e-05
4.00625e-05
4.00624e-05
4.00624e-05
4.00625e-05
4.00625e-05
4.00626e-05
4.00626e-05
4.00627e-05
4.00628e-05
4.0063e-05
4.00632e-05
4.00636e-05
4.0064e-05
4.00646e-05
4.00653e-05
4.00663e-05
4.00677e-05
4.00693e-05
4.00714e-05
4.00742e-05
4.00785e-05
4.00837e-05
4.00881e-05
4.00845e-05
4.00219e-05
4.0063e-05
3.9162e-05
4.52044e-05
3.19993e-05
3.37818e-06
9.89525e-05
4.00672e-05
4.00658e-05
4.00638e-05
4.00613e-05
4.00625e-05
4.0063e-05
4.00625e-05
4.00614e-05
4.00607e-05
4.00602e-05
4.00599e-05
4.00596e-05
4.00593e-05
4.00592e-05
4.00591e-05
4.00592e-05
4.00594e-05
4.00597e-05
4.00601e-05
4.00605e-05
4.0061e-05
4.00615e-05
4.0062e-05
4.00625e-05
4.0063e-05
4.00634e-05
4.00637e-05
4.00639e-05
4.0064e-05
4.00641e-05
4.00642e-05
4.00644e-05
4.00648e-05
4.00652e-05
4.00662e-05
4.00659e-05
4.00705e-05
4.00644e-05
4.00756e-05
4.00661e-05
4.00651e-05
4.00644e-05
4.00637e-05
4.00631e-05
4.00626e-05
4.00623e-05
4.00622e-05
4.00622e-05
4.00623e-05
4.00624e-05
4.00625e-05
4.00625e-05
4.00626e-05
4.00627e-05
4.00628e-05
4.00629e-05
4.0063e-05
4.00632e-05
4.00635e-05
4.00638e-05
4.00643e-05
4.00649e-05
4.00657e-05
4.00667e-05
4.00681e-05
4.00698e-05
4.00719e-05
4.00746e-05
4.00789e-05
4.00836e-05
4.00978e-05
4.00666e-05
4.01795e-05
3.9517e-05
4.06536e-05
4.54601e-05
2.00153e-06
2.27921e-05
4.00668e-05
4.00657e-05
4.00637e-05
4.00612e-05
4.00622e-05
4.00626e-05
4.0062e-05
4.00611e-05
4.00604e-05
4.00599e-05
4.00596e-05
4.00593e-05
4.0059e-05
4.00588e-05
4.00587e-05
4.00588e-05
4.0059e-05
4.00593e-05
4.00596e-05
4.006e-05
4.00605e-05
4.0061e-05
4.00615e-05
4.00621e-05
4.00626e-05
4.00631e-05
4.00635e-05
4.00638e-05
4.0064e-05
4.00641e-05
4.00641e-05
4.00642e-05
4.00645e-05
4.00648e-05
4.00653e-05
4.0066e-05
4.00664e-05
4.00709e-05
4.00657e-05
4.00655e-05
4.00645e-05
4.00638e-05
4.00631e-05
4.00626e-05
4.00622e-05
4.0062e-05
4.00621e-05
4.00621e-05
4.00623e-05
4.00624e-05
4.00625e-05
4.00626e-05
4.00627e-05
4.00628e-05
4.00629e-05
4.0063e-05
4.00632e-05
4.00633e-05
4.00635e-05
4.00638e-05
4.00642e-05
4.00647e-05
4.00653e-05
4.00661e-05
4.00673e-05
4.00688e-05
4.00706e-05
4.00726e-05
4.00755e-05
4.00783e-05
4.00878e-05
4.00851e-05
4.01061e-05
4.02229e-05
3.84337e-05
4.89824e-05
3.17674e-06
8.86664e-08
4.00663e-05
4.00655e-05
4.00636e-05
4.00611e-05
4.00618e-05
4.00622e-05
4.00617e-05
4.00608e-05
4.00601e-05
4.00595e-05
4.00592e-05
4.0059e-05
4.00587e-05
4.00585e-05
4.00584e-05
4.00585e-05
4.00586e-05
4.00589e-05
4.00592e-05
4.00596e-05
4.006e-05
4.00606e-05
4.00611e-05
4.00617e-05
4.00622e-05
4.00627e-05
4.00632e-05
4.00635e-05
4.00638e-05
4.0064e-05
4.00641e-05
4.00642e-05
4.00643e-05
4.00645e-05
4.00648e-05
4.00654e-05
4.00656e-05
4.00692e-05
4.00669e-05
4.0065e-05
4.0064e-05
4.00632e-05
4.00626e-05
4.00622e-05
4.00619e-05
4.00619e-05
4.0062e-05
4.00621e-05
4.00623e-05
4.00625e-05
4.00626e-05
4.00628e-05
4.00629e-05
4.0063e-05
4.00631e-05
4.00632e-05
4.00633e-05
4.00635e-05
4.00637e-05
4.00639e-05
4.00642e-05
4.00646e-05
4.00651e-05
4.00658e-05
4.00668e-05
4.0068e-05
4.00696e-05
4.00715e-05
4.00737e-05
4.00764e-05
4.00786e-05
4.00954e-05
4.00302e-05
4.0447e-05
3.8523e-05
4.54782e-05
2.78954e-05
3.69686e-06
4.00658e-05
4.00652e-05
4.00635e-05
4.0061e-05
4.00616e-05
4.00618e-05
4.00613e-05
4.00605e-05
4.00598e-05
4.00592e-05
4.00589e-05
4.00586e-05
4.00583e-05
4.00582e-05
4.00581e-05
4.00581e-05
4.00583e-05
4.00585e-05
4.00588e-05
4.00592e-05
4.00596e-05
4.00601e-05
4.00607e-05
4.00612e-05
4.00618e-05
4.00623e-05
4.00628e-05
4.00632e-05
4.00636e-05
4.00639e-05
4.00641e-05
4.00641e-05
4.00642e-05
4.00643e-05
4.00645e-05
4.00649e-05
4.00653e-05
4.00676e-05
4.00672e-05
4.00645e-05
4.00635e-05
4.00627e-05
4.00622e-05
4.00618e-05
4.00617e-05
4.00618e-05
4.00619e-05
4.00621e-05
4.00624e-05
4.00626e-05
4.00628e-05
4.00629e-05
4.00631e-05
4.00632e-05
4.00633e-05
4.00634e-05
4.00635e-05
4.00636e-05
4.00638e-05
4.0064e-05
4.00643e-05
4.00646e-05
4.0065e-05
4.00656e-05
4.00664e-05
4.00675e-05
4.00689e-05
4.00706e-05
4.00724e-05
4.00755e-05
4.00746e-05
4.0095e-05
4.00258e-05
4.03259e-05
3.93818e-05
4.15298e-05
4.13647e-05
1.33372e-05
4.00653e-05
4.0065e-05
4.00633e-05
4.0061e-05
4.00613e-05
4.00614e-05
4.0061e-05
4.00602e-05
4.00594e-05
4.00589e-05
4.00586e-05
4.00583e-05
4.0058e-05
4.00579e-05
4.00578e-05
4.00579e-05
4.0058e-05
4.00582e-05
4.00584e-05
4.00588e-05
4.00592e-05
4.00597e-05
4.00603e-05
4.00608e-05
4.00614e-05
4.00619e-05
4.00624e-05
4.00629e-05
4.00633e-05
4.00637e-05
4.00639e-05
4.00641e-05
4.00642e-05
4.00642e-05
4.00643e-05
4.00646e-05
4.0065e-05
4.00668e-05
4.00667e-05
4.0064e-05
4.0063e-05
4.00622e-05
4.00618e-05
4.00616e-05
4.00616e-05
4.00617e-05
4.0062e-05
4.00622e-05
4.00624e-05
4.00627e-05
4.00629e-05
4.0063e-05
4.00632e-05
4.00633e-05
4.00635e-05
4.00636e-05
4.00637e-05
4.00639e-05
4.0064e-05
4.00642e-05
4.00644e-05
4.00647e-05
4.0065e-05
4.00655e-05
4.00662e-05
4.00671e-05
4.00683e-05
4.00698e-05
4.00714e-05
4.00742e-05
4.00739e-05
4.00873e-05
4.00555e-05
4.01572e-05
4.0015e-05
3.96367e-05
4.40511e-05
2.83473e-05
4.00648e-05
4.00646e-05
4.00631e-05
4.00609e-05
4.0061e-05
4.00611e-05
4.00606e-05
4.00598e-05
4.00592e-05
4.00586e-05
4.00583e-05
4.0058e-05
4.00577e-05
4.00576e-05
4.00575e-05
4.00576e-05
4.00577e-05
4.00579e-05
4.00581e-05
4.00585e-05
4.00589e-05
4.00593e-05
4.00599e-05
4.00604e-05
4.0061e-05
4.00615e-05
4.0062e-05
4.00625e-05
4.0063e-05
4.00634e-05
4.00637e-05
4.00639e-05
4.00641e-05
4.00642e-05
4.00643e-05
4.00644e-05
4.00647e-05
4.00662e-05
4.00662e-05
4.00635e-05
4.00626e-05
4.00618e-05
4.00616e-05
4.00615e-05
4.00615e-05
4.00617e-05
4.0062e-05
4.00622e-05
4.00625e-05
4.00628e-05
4.0063e-05
4.00632e-05
4.00634e-05
4.00635e-05
4.00637e-05
4.00638e-05
4.0064e-05
4.00641e-05
4.00642e-05
4.00644e-05
4.00646e-05
4.00649e-05
4.00652e-05
4.00656e-05
4.00661e-05
4.00669e-05
4.00679e-05
4.00692e-05
4.00707e-05
4.00729e-05
4.00741e-05
4.00795e-05
4.00788e-05
4.00678e-05
4.02347e-05
3.93632e-05
4.26178e-05
3.70334e-05
4.00643e-05
4.00643e-05
4.00629e-05
4.00608e-05
4.00608e-05
4.00608e-05
4.00603e-05
4.00595e-05
4.00589e-05
4.00584e-05
4.0058e-05
4.00577e-05
4.00575e-05
4.00573e-05
4.00573e-05
4.00573e-05
4.00574e-05
4.00576e-05
4.00578e-05
4.00581e-05
4.00585e-05
4.0059e-05
4.00595e-05
4.006e-05
4.00605e-05
4.00611e-05
4.00616e-05
4.00621e-05
4.00626e-05
4.0063e-05
4.00634e-05
4.00637e-05
4.00639e-05
4.00641e-05
4.00641e-05
4.00642e-05
4.00644e-05
4.00658e-05
4.00658e-05
4.00631e-05
4.00622e-05
4.00615e-05
4.00614e-05
4.00614e-05
4.00615e-05
4.00617e-05
4.0062e-05
4.00623e-05
4.00626e-05
4.00629e-05
4.00631e-05
4.00633e-05
4.00635e-05
4.00637e-05
4.00639e-05
4.0064e-05
4.00642e-05
4.00643e-05
4.00645e-05
4.00646e-05
4.00648e-05
4.0065e-05
4.00653e-05
4.00657e-05
4.00662e-05
4.00668e-05
4.00677e-05
4.00688e-05
4.00702e-05
4.00719e-05
4.0074e-05
4.00752e-05
4.00859e-05
4.00499e-05
4.02181e-05
3.96686e-05
4.09945e-05
4.01594e-05
4.00639e-05
4.00639e-05
4.00627e-05
4.00606e-05
4.00605e-05
4.00604e-05
4.00599e-05
4.00592e-05
4.00586e-05
4.00581e-05
4.00577e-05
4.00574e-05
4.00572e-05
4.00571e-05
4.00571e-05
4.00571e-05
4.00572e-05
4.00573e-05
4.00575e-05
4.00578e-05
4.00582e-05
4.00586e-05
4.0059e-05
4.00596e-05
4.00601e-05
4.00606e-05
4.00612e-05
4.00617e-05
4.00622e-05
4.00626e-05
4.00631e-05
4.00634e-05
4.00638e-05
4.0064e-05
4.00641e-05
4.00642e-05
4.00643e-05
4.00654e-05
4.00654e-05
4.00627e-05
4.00619e-05
4.00612e-05
4.00612e-05
4.00613e-05
4.00615e-05
4.00618e-05
4.00621e-05
4.00624e-05
4.00627e-05
4.0063e-05
4.00633e-05
4.00635e-05
4.00637e-05
4.00639e-05
4.00641e-05
4.00643e-05
4.00644e-05
4.00646e-05
4.00647e-05
4.00649e-05
4.00651e-05
4.00653e-05
4.00655e-05
4.00658e-05
4.00663e-05
4.00669e-05
4.00676e-05
4.00686e-05
4.00698e-05
4.00712e-05
4.00734e-05
4.00738e-05
4.00836e-05
4.00607e-05
4.01456e-05
3.9956e-05
4.01923e-05
4.06397e-05
4.00634e-05
4.00635e-05
4.00624e-05
4.00605e-05
4.00602e-05
4.00601e-05
4.00596e-05
4.00589e-05
4.00583e-05
4.00578e-05
4.00574e-05
4.00571e-05
4.00569e-05
4.00569e-05
4.00568e-05
4.00568e-05
4.00569e-05
4.00571e-05
4.00572e-05
4.00575e-05
4.00578e-05
4.00582e-05
4.00587e-05
4.00592e-05
4.00597e-05
4.00602e-05
4.00607e-05
4.00612e-05
4.00618e-05
4.00622e-05
4.00627e-05
4.00631e-05
4.00635e-05
4.00638e-05
4.0064e-05
4.00641e-05
4.00642e-05
4.00651e-05
4.00651e-05
4.00623e-05
4.00616e-05
4.00611e-05
4.00611e-05
4.00613e-05
4.00615e-05
4.00618e-05
4.00621e-05
4.00624e-05
4.00628e-05
4.00631e-05
4.00634e-05
4.00637e-05
4.00639e-05
4.00641e-05
4.00643e-05
4.00645e-05
4.00647e-05
4.00648e-05
4.0065e-05
4.00652e-05
4.00653e-05
4.00655e-05
4.00658e-05
4.00661e-05
4.00664e-05
4.0067e-05
4.00676e-05
4.00685e-05
4.00696e-05
4.00708e-05
4.00727e-05
4.00736e-05
4.00793e-05
4.00728e-05
4.00963e-05
4.00857e-05
3.99891e-05
4.0402e-05
4.0063e-05
4.00632e-05
4.00622e-05
4.00603e-05
4.006e-05
4.00598e-05
4.00592e-05
4.00585e-05
4.00579e-05
4.00575e-05
4.00571e-05
4.00569e-05
4.00567e-05
4.00566e-05
4.00566e-05
4.00566e-05
4.00567e-05
4.00568e-05
4.00569e-05
4.00572e-05
4.00575e-05
4.00578e-05
4.00583e-05
4.00587e-05
4.00593e-05
4.00598e-05
4.00603e-05
4.00608e-05
4.00613e-05
4.00618e-05
4.00623e-05
4.00628e-05
4.00632e-05
4.00635e-05
4.00638e-05
4.0064e-05
4.0064e-05
4.00648e-05
4.00649e-05
4.0062e-05
4.00614e-05
4.00609e-05
4.0061e-05
4.00612e-05
4.00614e-05
4.00618e-05
4.00622e-05
4.00625e-05
4.00629e-05
4.00632e-05
4.00635e-05
4.00638e-05
4.00641e-05
4.00643e-05
4.00645e-05
4.00647e-05
4.00649e-05
4.00651e-05
4.00653e-05
4.00654e-05
4.00656e-05
4.00658e-05
4.00661e-05
4.00663e-05
4.00667e-05
4.00671e-05
4.00677e-05
4.00685e-05
4.00694e-05
4.00706e-05
4.00721e-05
4.00736e-05
4.00764e-05
4.00784e-05
4.00778e-05
4.01107e-05
4.00118e-05
4.01806e-05
4.00626e-05
4.00628e-05
4.00619e-05
4.00601e-05
4.00597e-05
4.00594e-05
4.00589e-05
4.00582e-05
4.00576e-05
4.00572e-05
4.00568e-05
4.00566e-05
4.00564e-05
4.00563e-05
4.00563e-05
4.00563e-05
4.00564e-05
4.00565e-05
4.00566e-05
4.00569e-05
4.00571e-05
4.00575e-05
4.00579e-05
4.00583e-05
4.00588e-05
4.00593e-05
4.00598e-05
4.00603e-05
4.00608e-05
4.00614e-05
4.00619e-05
4.00624e-05
4.00628e-05
4.00632e-05
4.00636e-05
4.00638e-05
4.00639e-05
4.00645e-05
4.00646e-05
4.00617e-05
4.00611e-05
4.00607e-05
4.00609e-05
4.00612e-05
4.00614e-05
4.00618e-05
4.00622e-05
4.00626e-05
4.0063e-05
4.00633e-05
4.00637e-05
4.0064e-05
4.00642e-05
4.00645e-05
4.00647e-05
4.00649e-05
4.00651e-05
4.00653e-05
4.00655e-05
4.00657e-05
4.00659e-05
4.00661e-05
4.00664e-05
4.00666e-05
4.00669e-05
4.00673e-05
4.00678e-05
4.00685e-05
4.00694e-05
4.00704e-05
4.00717e-05
4.00734e-05
4.0075e-05
4.0079e-05
4.00754e-05
4.01001e-05
4.00611e-05
4.00931e-05
4.00622e-05
4.00624e-05
4.00616e-05
4.00599e-05
4.00594e-05
4.00591e-05
4.00585e-05
4.00578e-05
4.00573e-05
4.00568e-05
4.00565e-05
4.00563e-05
4.00561e-05
4.0056e-05
4.0056e-05
4.0056e-05
4.00561e-05
4.00562e-05
4.00563e-05
4.00565e-05
4.00568e-05
4.00571e-05
4.00575e-05
4.00579e-05
4.00584e-05
4.00588e-05
4.00593e-05
4.00598e-05
4.00604e-05
4.00609e-05
4.00614e-05
4.0062e-05
4.00624e-05
4.00629e-05
4.00633e-05
4.00636e-05
4.00637e-05
4.00641e-05
4.00643e-05
4.00614e-05
4.00609e-05
4.00606e-05
4.00609e-05
4.00611e-05
4.00614e-05
4.00618e-05
4.00623e-05
4.00627e-05
4.00631e-05
4.00634e-05
4.00638e-05
4.00641e-05
4.00644e-05
4.00647e-05
4.00649e-05
4.00652e-05
4.00654e-05
4.00656e-05
4.00658e-05
4.0066e-05
4.00662e-05
4.00665e-05
4.00667e-05
4.00669e-05
4.00672e-05
4.00676e-05
4.00681e-05
4.00687e-05
4.00694e-05
4.00704e-05
4.00715e-05
4.00731e-05
4.00745e-05
4.00779e-05
4.00772e-05
4.00882e-05
4.00847e-05
4.00803e-05
4.00618e-05
4.0062e-05
4.00612e-05
4.00596e-05
4.00591e-05
4.00587e-05
4.00581e-05
4.00575e-05
4.00569e-05
4.00565e-05
4.00562e-05
4.00559e-05
4.00558e-05
4.00557e-05
4.00557e-05
4.00557e-05
4.00558e-05
4.00559e-05
4.0056e-05
4.00562e-05
4.00564e-05
4.00567e-05
4.00571e-05
4.00575e-05
4.00579e-05
4.00584e-05
4.00589e-05
4.00594e-05
4.00599e-05
4.00604e-05
4.0061e-05
4.00615e-05
4.0062e-05
4.00625e-05
4.0063e-05
4.00633e-05
4.00635e-05
4.00638e-05
4.00641e-05
4.00611e-05
4.00607e-05
4.00605e-05
4.00608e-05
4.00611e-05
4.00614e-05
4.00619e-05
4.00623e-05
4.00627e-05
4.00632e-05
4.00636e-05
4.00639e-05
4.00643e-05
4.00646e-05
4.00649e-05
4.00651e-05
4.00654e-05
4.00656e-05
4.00659e-05
4.00661e-05
4.00663e-05
4.00665e-05
4.00668e-05
4.0067e-05
4.00672e-05
4.00675e-05
4.00679e-05
4.00683e-05
4.00689e-05
4.00695e-05
4.00704e-05
4.00714e-05
4.00728e-05
4.00743e-05
4.00767e-05
4.00783e-05
4.00825e-05
4.00886e-05
4.00867e-05
4.00614e-05
4.00617e-05
4.00609e-05
4.00594e-05
4.00588e-05
4.00584e-05
4.00578e-05
4.00571e-05
4.00565e-05
4.00561e-05
4.00558e-05
4.00556e-05
4.00555e-05
4.00554e-05
4.00554e-05
4.00554e-05
4.00555e-05
4.00556e-05
4.00557e-05
4.00559e-05
4.00561e-05
4.00563e-05
4.00567e-05
4.00571e-05
4.00575e-05
4.00579e-05
4.00584e-05
4.00589e-05
4.00594e-05
4.00599e-05
4.00605e-05
4.0061e-05
4.00616e-05
4.00621e-05
4.00626e-05
4.0063e-05
4.00633e-05
4.00635e-05
4.00638e-05
4.00608e-05
4.00605e-05
4.00603e-05
4.00607e-05
4.0061e-05
4.00614e-05
4.00619e-05
4.00624e-05
4.00628e-05
4.00632e-05
4.00637e-05
4.0064e-05
4.00644e-05
4.00647e-05
4.0065e-05
4.00653e-05
4.00656e-05
4.00659e-05
4.00661e-05
4.00664e-05
4.00666e-05
4.00668e-05
4.00671e-05
4.00673e-05
4.00676e-05
4.00678e-05
4.00682e-05
4.00686e-05
4.00691e-05
4.00697e-05
4.00705e-05
4.00715e-05
4.00727e-05
4.00741e-05
4.00761e-05
4.00783e-05
4.00809e-05
4.00859e-05
4.00911e-05
4.00611e-05
4.00613e-05
4.00606e-05
4.00591e-05
4.00585e-05
4.0058e-05
4.00574e-05
4.00567e-05
4.00561e-05
4.00558e-05
4.00554e-05
4.00552e-05
4.00551e-05
4.00551e-05
4.0055e-05
4.00551e-05
4.00551e-05
4.00552e-05
4.00553e-05
4.00555e-05
4.00557e-05
4.00559e-05
4.00563e-05
4.00566e-05
4.0057e-05
4.00574e-05
4.00579e-05
4.00583e-05
4.00588e-05
4.00594e-05
4.00599e-05
4.00605e-05
4.00611e-05
4.00616e-05
4.00621e-05
4.00626e-05
4.0063e-05
4.00631e-05
4.00635e-05
4.00606e-05
4.00603e-05
4.00602e-05
4.00606e-05
4.0061e-05
4.00614e-05
4.00619e-05
4.00624e-05
4.00629e-05
4.00633e-05
4.00638e-05
4.00642e-05
4.00645e-05
4.00649e-05
4.00652e-05
4.00655e-05
4.00658e-05
4.00661e-05
4.00664e-05
4.00666e-05
4.00669e-05
4.00671e-05
4.00674e-05
4.00677e-05
4.00679e-05
4.00682e-05
4.00685e-05
4.00689e-05
4.00693e-05
4.00699e-05
4.00706e-05
4.00715e-05
4.00726e-05
4.0074e-05
4.00757e-05
4.00778e-05
4.00806e-05
4.00833e-05
4.00913e-05
4.00608e-05
4.00609e-05
4.00602e-05
4.00588e-05
4.00581e-05
4.00576e-05
4.00569e-05
4.00563e-05
4.00557e-05
4.00554e-05
4.00551e-05
4.00549e-05
4.00548e-05
4.00547e-05
4.00547e-05
4.00547e-05
4.00548e-05
4.00548e-05
4.0055e-05
4.00551e-05
4.00553e-05
4.00555e-05
4.00558e-05
4.00562e-05
4.00566e-05
4.00569e-05
4.00574e-05
4.00578e-05
4.00583e-05
4.00588e-05
4.00594e-05
4.00599e-05
4.00605e-05
4.00611e-05
4.00616e-05
4.00622e-05
4.00626e-05
4.00627e-05
4.00633e-05
4.00603e-05
4.00601e-05
4.00601e-05
4.00605e-05
4.00609e-05
4.00614e-05
4.00619e-05
4.00624e-05
4.00629e-05
4.00634e-05
4.00639e-05
4.00643e-05
4.00647e-05
4.0065e-05
4.00654e-05
4.00657e-05
4.0066e-05
4.00663e-05
4.00666e-05
4.00669e-05
4.00672e-05
4.00675e-05
4.00677e-05
4.0068e-05
4.00683e-05
4.00685e-05
4.00688e-05
4.00692e-05
4.00697e-05
4.00702e-05
4.00709e-05
4.00717e-05
4.00727e-05
4.00739e-05
4.00755e-05
4.00774e-05
4.00804e-05
4.00819e-05
4.00898e-05
4.00604e-05
4.00606e-05
4.00599e-05
4.00585e-05
4.00578e-05
4.00572e-05
4.00565e-05
4.00558e-05
4.00553e-05
4.00549e-05
4.00547e-05
4.00545e-05
4.00544e-05
4.00543e-05
4.00543e-05
4.00543e-05
4.00544e-05
4.00545e-05
4.00546e-05
4.00547e-05
4.00549e-05
4.00551e-05
4.00554e-05
4.00557e-05
4.00561e-05
4.00564e-05
4.00568e-05
4.00573e-05
4.00577e-05
4.00582e-05
4.00588e-05
4.00594e-05
4.00599e-05
4.00605e-05
4.00611e-05
4.00617e-05
4.00622e-05
4.00624e-05
4.00631e-05
4.006e-05
4.00599e-05
4.00599e-05
4.00604e-05
4.00609e-05
4.00613e-05
4.00619e-05
4.00624e-05
4.0063e-05
4.00635e-05
4.00639e-05
4.00644e-05
4.00648e-05
4.00652e-05
4.00655e-05
4.00659e-05
4.00662e-05
4.00665e-05
4.00669e-05
4.00672e-05
4.00675e-05
4.00678e-05
4.0068e-05
4.00683e-05
4.00686e-05
4.00689e-05
4.00692e-05
4.00696e-05
4.007e-05
4.00705e-05
4.00711e-05
4.00719e-05
4.00728e-05
4.0074e-05
4.00755e-05
4.00771e-05
4.00801e-05
4.00812e-05
4.00883e-05
4.00601e-05
4.00602e-05
4.00595e-05
4.00582e-05
4.00574e-05
4.00568e-05
4.00561e-05
4.00554e-05
4.00549e-05
4.00545e-05
4.00542e-05
4.00541e-05
4.0054e-05
4.00539e-05
4.00539e-05
4.00539e-05
4.0054e-05
4.0054e-05
4.00541e-05
4.00543e-05
4.00544e-05
4.00546e-05
4.00549e-05
4.00552e-05
4.00555e-05
4.00559e-05
4.00563e-05
4.00567e-05
4.00571e-05
4.00576e-05