/*--------------------------------*- C++ -*----------------------------------*\
| =========                 |                                                 |
| \\      /  F ield         | OpenFOAM: The Open Source CFD Toolbox           |
|  \\    /   O peration     | Version:  2306                                  |
|   \\  /    A nd           | Website:  www.openfoam.com                      |
|    \\/     M anipulation  |                                                 |
\*---------------------------------------------------------------------------*/
FoamFile
{
    version     2.0;
    format      ascii;
    arch        "LSB;label=32;scalar=64";
    class       volSymmTensorField;
    location    "375";
    object      turbulenceProperties:devReff;
}
// * * * * * * * * * * * * * * * * * * * * * * * * * * * * * * * * * * * * * //

dimensions      [0 2 -2 0 0 0 0];

internalField   nonuniform List<symmTensor> 
10720
(
(0.00163717 0.00425793 -9.49955e-22 -0.00177377 -2.23889e-20 0.000136598)
(0.00238858 0.00488019 -1.25266e-22 -0.00248652 1.40372e-19 9.79433e-05)
(0.00361115 0.0054608 -2.76473e-20 -0.00380838 -4.35001e-19 0.000197231)
(0.00524606 0.00621508 1.19075e-19 -0.00549205 8.78851e-19 0.000245987)
(0.00742512 0.00687362 -2.25922e-19 -0.00769377 -8.34251e-19 0.000268651)
(0.0104042 0.0072621 -1.72321e-19 -0.0107957 -4.50658e-19 0.000391453)
(0.0142994 0.00737481 3.26005e-19 -0.0147857 1.25254e-18 0.00048627)
(0.0191881 0.00685925 -8.31342e-19 -0.0197707 -2.26139e-18 0.0005826)
(0.0252397 0.00535172 -2.06515e-19 -0.0259863 6.04435e-19 0.000746582)
(0.0325652 0.00260632 6.13791e-19 -0.0334657 1.25951e-18 0.000900476)
(0.0413431 -0.001898 1.57982e-18 -0.0424346 5.77722e-19 0.00109151)
(0.0519608 -0.00873414 -3.55247e-18 -0.0532786 -3.29935e-18 0.00131785)
(0.0649592 -0.0188223 6.72806e-19 -0.0665524 8.68412e-19 0.00159322)
(0.0812487 -0.0337499 2.68641e-18 -0.0832036 1.27315e-18 0.00195486)
(0.10237 -0.0561701 -4.07754e-18 -0.104836 -6.36959e-18 0.0024663)
(0.130533 -0.0904062 -4.36544e-18 -0.133708 -2.58509e-18 0.0031746)
(0.169887 -0.145063 1.92132e-17 -0.174193 1.77905e-17 0.00430673)
(0.224288 -0.232432 1.78591e-17 -0.230169 3.37919e-17 0.00588061)
(0.310946 -0.388901 -3.53892e-17 -0.319561 -5.48574e-17 0.00861544)
(0.426457 -0.641761 -1.37739e-18 -0.438632 1.45544e-17 0.0121747)
(0.666859 -1.21427 -2.72241e-17 -0.686254 5.20518e-17 0.0193956)
(0.945544 -2.11443 -1.24497e-17 -0.971661 4.18875e-17 0.0261167)
(1.76581 -5.12939 -1.43155e-16 -1.81797 -6.4205e-16 0.0521632)
(2.42859 -10.3118 3.31491e-16 -2.51203 5.58986e-16 0.0834365)
(1.52852 -11.6469 4.24225e-17 -1.5696 -7.12398e-16 0.0410765)
(0.526571 -11.2284 3.65771e-16 -0.515049 5.81326e-16 -0.0115221)
(-0.145916 -11.0443 -8.18611e-17 0.17584 -7.84449e-17 -0.0299235)
(-0.665082 -11.2277 2.74508e-16 0.689949 2.30575e-16 -0.0248666)
(-1.13638 -11.442 7.29029e-16 1.15286 1.20853e-15 -0.0164753)
(-1.5718 -11.4549 4.00532e-16 1.58016 1.99768e-15 -0.0083589)
(-1.95798 -11.2409 -1.41153e-15 1.95625 -1.93154e-15 0.00172666)
(-2.27372 -10.8347 -4.7492e-16 2.26322 -7.26176e-16 0.010496)
(-2.49372 -10.2211 -3.22707e-17 2.47877 -4.3681e-15 0.0149498)
(-2.60518 -9.41408 -2.58321e-15 2.5898 -7.29996e-15 0.0153792)
(-2.58924 -8.40562 1.0063e-15 2.57503 9.23214e-16 0.0142068)
(-2.43532 -7.22695 1.21994e-15 2.42432 1.14383e-15 0.0109973)
(-2.07483 -5.67526 -1.22449e-16 2.06161 -5.25248e-16 0.0132171)
(-1.60188 -4.21335 -1.54828e-15 1.60255 -2.10346e-17 -0.000671327)
(-0.759331 -1.48424 -3.64198e-16 0.762259 -3.32802e-15 -0.00292791)
(0.000968066 0.00371314 2.39366e-21 -0.00101995 5.55989e-20 5.18869e-05)
(0.000549691 0.00319724 -3.57136e-21 -0.000639719 2.66277e-23 9.00282e-05)
(0.000179297 0.00261118 -1.95637e-20 -0.000226365 -1.37152e-19 4.70682e-05)
(-6.70985e-05 0.00208977 4.97816e-21 3.29695e-05 9.36058e-20 3.4129e-05)
(-0.000179284 0.00159694 3.91973e-21 0.000160996 -1.82563e-20 1.82882e-05)
(-0.000172632 0.00116723 -3.3855e-20 0.000173027 1.10827e-19 -3.94643e-07)
(-8.40343e-05 0.000835328 -2.02268e-19 0.00010814 1.62796e-19 -2.41062e-05)
(5.47623e-05 0.000636937 1.39726e-19 -1.70635e-05 -5.51805e-20 -3.76988e-05)
(0.000231339 0.000621222 2.26702e-19 -0.000204943 -1.1467e-19 -2.63963e-05)
(0.00047129 0.000742207 -1.54458e-19 -0.000467998 3.90435e-20 -3.29131e-06)
(0.000812343 0.00102676 -3.88382e-20 -0.000822987 1.83174e-19 1.06436e-05)
(0.00130639 0.00156637 2.49335e-19 -0.00132437 1.03717e-19 1.79825e-05)
(0.00202422 0.00252559 4.59461e-19 -0.00205439 -7.15371e-20 3.0169e-05)
(0.00305556 0.00413703 -8.1362e-21 -0.00310686 -2.58801e-19 5.12987e-05)
(0.00447297 0.00664446 -8.04548e-20 -0.00454791 -1.73496e-19 7.49394e-05)
(0.00629908 0.0103375 2.68978e-20 -0.00640778 -5.82044e-20 0.000108702)
(0.00863894 0.0156347 -1.97147e-19 -0.0087847 6.70122e-19 0.000145751)
(0.0117399 0.0234241 7.42372e-19 -0.0119381 2.75953e-19 0.00019817)
(0.0161478 0.0354494 3.28022e-19 -0.0164162 -1.21849e-18 0.000268367)
(0.0226879 0.0549977 -1.32083e-18 -0.0230785 -3.46442e-19 0.000390534)
(0.03294 0.088615 -4.44077e-18 -0.0335309 -2.02924e-18 0.000590913)
(0.0490717 0.148525 -3.35494e-18 -0.0500511 -8.97237e-19 0.000979385)
(0.0757023 0.263747 6.22743e-18 -0.07748 -5.78829e-19 0.00177777)
(0.116279 0.487758 -7.46677e-18 -0.119915 1.20807e-18 0.00363654)
(0.183238 0.979424 4.06942e-18 -0.191084 -7.22385e-18 0.00784606)
(0.277936 2.01758 -1.26411e-16 -0.294311 2.61649e-18 0.0163746)
(0.410041 4.5326 -7.8322e-17 -0.448515 1.22984e-17 0.0384738)
(0.421159 9.36886 6.59241e-17 -0.501465 8.2469e-19 0.0803064)
(0.00812318 13.2918 8.69837e-18 -0.112265 -1.25624e-19 0.104142)
(-0.628745 14.9597 6.2858e-17 0.530414 4.35192e-19 0.0983312)
(-1.26785 15.3985 -4.37183e-16 1.1856 -4.89419e-18 0.0822436)
(-1.85322 15.4184 1.57307e-16 1.78588 2.09298e-17 0.0673379)
(-2.37738 15.2562 -1.88903e-15 2.32159 -1.53205e-16 0.0557946)
(-2.83315 14.9562 -3.45855e-15 2.78625 -2.36948e-16 0.0469015)
(-3.21855 14.5339 1.05846e-15 3.17822 1.08394e-16 0.0403266)
(-3.53764 14.0109 1.0246e-15 3.50238 1.64274e-16 0.0352629)
(-3.77531 13.2878 1.45055e-15 3.74322 2.66666e-16 0.0320882)
(-3.91954 12.4706 -2.90391e-16 3.88955 -3.67481e-17 0.0299936)
(-3.64029 10.0667 -4.55479e-15 3.63372 -7.84237e-16 0.00656955)
(0.000579435 -0.000460534 1.22845e-22 -0.000520051 4.00312e-21 -5.93839e-05)
(0.000492606 -0.000547362 2.90334e-20 -0.000425489 7.03544e-20 -6.71171e-05)
(0.000371416 -0.000622955 -2.69204e-20 -0.000291096 -4.74611e-20 -8.032e-05)
(0.000250518 -0.000652183 -1.81359e-20 -0.000158588 -5.16566e-20 -9.19302e-05)
(0.000133148 -0.000645114 1.22271e-19 -3.25536e-05 2.3731e-19 -0.000100594)
(2.3139e-05 -0.000610489 4.76161e-20 8.61835e-05 7.38717e-20 -0.000109322)
(-6.02921e-05 -0.000551405 2.25812e-19 0.000177201 2.07451e-19 -0.000116909)
(-0.000116638 -0.00047901 -1.16707e-19 0.000238474 -2.2459e-20 -0.000121837)
(-0.000149304 -0.000404778 1.64897e-19 0.000274584 1.14263e-19 -0.00012528)
(-0.000158013 -0.000336003 -5.85643e-21 0.000285261 2.50138e-22 -0.000127249)
(-0.000150113 -0.000278308 -2.23007e-19 0.00027701 -1.90526e-19 -0.000126897)
(-0.000132662 -0.000239952 2.87174e-19 0.000258891 3.57501e-19 -0.000126229)
(-0.000110888 -0.000226125 1.76606e-19 0.000240756 8.87458e-20 -0.000129868)
(-8.62522e-05 -0.0002458 -3.68432e-20 0.000231118 1.99835e-20 -0.000144866)
(-4.85387e-05 -0.000344644 -2.26885e-19 0.00024148 3.73474e-20 -0.000192941)
(6.2523e-05 -0.000658664 4.774e-19 0.000258283 5.46306e-19 -0.000320806)
(0.000455465 -0.00154883 8.55512e-19 0.000142078 -9.35478e-19 -0.000597543)
(0.0015024 -0.00354944 -4.41905e-18 -0.000499433 -5.72775e-18 -0.00100297)
(0.00420817 -0.00868178 5.06251e-19 -0.00253933 7.46951e-18 -0.00166884)
(0.0104895 -0.0211645 7.37511e-18 -0.00790483 -2.0713e-18 -0.00258472)
(0.0295601 -0.0626928 1.55258e-17 -0.0251396 6.15257e-18 -0.00442058)
(0.0741279 -0.174816 -2.35801e-17 -0.0679074 -2.2582e-17 -0.00622046)
(0.19555 -0.546411 7.43702e-17 -0.187742 1.87733e-16 -0.00780814)
(0.505354 -1.78657 1.5581e-19 -0.502585 -1.54941e-16 -0.00276938)
(0.74997 -3.55099 -2.73635e-16 -0.773709 1.69877e-16 0.0237388)
(0.790428 -5.39845 -9.72303e-17 -0.844834 -6.60652e-16 0.0544055)
(0.603568 -7.14974 1.18711e-18 -0.675502 7.56954e-17 0.0719337)
(0.204269 -8.39269 -2.9446e-16 -0.279893 -4.44759e-16 0.0756237)
(-0.295582 -8.63497 -4.93559e-16 0.22954 -2.83264e-15 0.0660417)
(-0.707155 -7.89683 -1.6697e-16 0.665913 -3.54657e-15 0.0412416)
(-0.931272 -6.69169 5.22948e-16 0.922858 4.89671e-15 0.00841356)
(-0.998273 -5.47803 -9.55233e-16 1.01643 -3.75098e-17 -0.0181584)
(-0.984404 -4.4984 -7.18986e-15 1.0142 1.34213e-15 -0.0297941)
(-0.930843 -3.75364 8.77271e-15 0.960486 1.59528e-14 -0.0296429)
(-0.863846 -3.18654 -1.48871e-15 0.887857 -8.63869e-16 -0.0240107)
(-0.781588 -2.74363 3.42275e-15 0.80205 -4.99298e-15 -0.0204611)
(-0.730797 -2.43285 -1.5038e-15 0.743898 1.52312e-15 -0.0131011)
(-0.561988 -2.14574 3.25243e-15 0.594718 4.03371e-16 -0.0327307)
(-0.851052 -2.43458 5.79845e-15 0.751873 8.24881e-15 0.099179)
(0.000645658 -0.000345016 9.37001e-21 -0.000595429 2.31781e-20 -5.02293e-05)
(0.000684425 -0.000224618 -1.27043e-20 -0.000637473 -9.6029e-20 -4.69514e-05)
(0.000691699 -7.63995e-05 -1.8644e-20 -0.000654668 -1.11222e-19 -3.70315e-05)
(0.000654255 8.66771e-05 -7.1233e-21 -0.000627669 1.6531e-19 -2.65854e-05)
(0.000565085 0.000235299 1.9258e-21 -0.000550962 4.34577e-20 -1.41226e-05)
(0.000429283 0.000348907 3.78234e-20 -0.000425625 -1.45271e-19 -3.65819e-06)
(0.000271231 0.000405981 7.026e-20 -0.000274645 -2.24669e-19 3.41327e-06)
(0.000131124 0.00040696 -3.17854e-19 -0.000140197 8.39176e-21 9.07248e-06)
(2.28749e-05 0.00037412 4.88614e-20 -3.33847e-05 2.1648e-19 1.05098e-05)
(-6.63134e-05 0.000316363 1.24687e-21 6.00876e-05 -1.29268e-19 6.22577e-06)
(-0.000121766 0.000243631 -8.327e-20 0.000123186 -7.89518e-20 -1.41941e-06)
(-0.000141757 0.000176674 -6.00713e-20 0.000150079 -8.49777e-20 -8.32236e-06)
(-0.000139971 0.000124398 -1.12038e-20 0.000152778 1.86594e-20 -1.28065e-05)
(-0.00012757 8.66294e-05 3.75298e-20 0.000142839 1.00992e-19 -1.52688e-05)
(-0.000111045 6.08902e-05 6.47344e-20 0.000127503 2.50104e-20 -1.6458e-05)
(-9.41914e-05 4.40026e-05 -9.21264e-20 0.000110952 -4.69977e-21 -1.67603e-05)
(-7.86832e-05 3.33875e-05 8.27049e-20 9.51009e-05 8.54321e-21 -1.64178e-05)
(-6.53913e-05 2.68722e-05 -9.84882e-21 8.10455e-05 -2.88784e-20 -1.56542e-05)
(-5.43348e-05 2.27328e-05 -3.38114e-20 6.89941e-05 5.37896e-20 -1.46594e-05)
(-4.52861e-05 1.99637e-05 -2.57774e-20 5.89193e-05 2.80597e-20 -1.36332e-05)
(-3.79978e-05 1.79322e-05 -6.20001e-20 5.07311e-05 6.9751e-20 -1.27333e-05)
(-3.26727e-05 1.64687e-05 -8.73206e-20 4.49202e-05 4.5301e-20 -1.22476e-05)
(-2.91897e-05 1.55181e-05 -1.25797e-19 4.16894e-05 1.0838e-20 -1.24997e-05)
(-2.68698e-05 1.54953e-05 5.61067e-20 4.05157e-05 5.32853e-21 -1.36458e-05)
(-2.46033e-05 1.72624e-05 -3.99453e-21 3.96875e-05 5.47751e-21 -1.50843e-05)
(-0.000235301 0.00021349 5.26681e-19 0.000404596 1.37773e-19 -0.000169296)
(-0.00119743 0.00135678 2.69653e-18 0.00216767 -1.92553e-19 -0.000970238)
(-0.00866861 0.0119933 1.08349e-18 0.0162501 -4.51469e-19 -0.00758146)
(-0.0262264 0.0459295 -7.54109e-19 0.0499584 1.03203e-19 -0.023732)
(-0.0449438 0.102714 4.96445e-17 0.0849981 2.01627e-18 -0.0400543)
(-0.0579718 0.170675 4.02649e-16 0.105297 9.72049e-18 -0.047325)
(-0.0659766 0.235238 2.39533e-16 0.11123 1.31178e-17 -0.0452534)
(-0.0730163 0.289378 1.76245e-15 0.112019 1.20939e-16 -0.0390025)
(-0.0819862 0.334935 2.54473e-15 0.114739 1.69245e-16 -0.0327529)
(-0.0941519 0.375372 -5.70583e-16 0.122123 -9.71538e-17 -0.0279712)
(-0.108448 0.41556 -4.90973e-16 0.133604 -8.6142e-17 -0.0251555)
(-0.128784 0.456183 -1.22519e-15 0.151572 -5.15036e-16 -0.0227883)
(-0.147319 0.552317 -2.5252e-15 0.174165 -3.51921e-18 -0.0268459)
(-0.207629 0.775767 -2.0391e-15 0.197413 1.35826e-15 0.0102154)
(0.000333681 -0.000312813 1.72575e-21 -0.000360069 2.38745e-21 2.63885e-05)
(0.000258358 -0.000372287 -2.7296e-20 -0.000290234 -6.63208e-20 3.18758e-05)
(0.000160848 -0.000413564 -6.02099e-21 -0.000197975 -3.03285e-21 3.71272e-05)
(5.20668e-05 -0.000426366 2.27883e-20 -9.69411e-05 4.92243e-20 4.48743e-05)
(-5.44303e-05 -0.000413081 -7.20976e-20 3.54925e-06 -1.46644e-19 5.08811e-05)
(-0.000154789 -0.00037246 -8.20736e-20 9.79122e-05 -1.34515e-19 5.68765e-05)
(-0.000238951 -0.000308491 -1.66417e-19 0.000175439 -2.4598e-19 6.35122e-05)
(-0.000300006 -0.000230745 -1.3406e-20 0.000231137 -1.99278e-21 6.88683e-05)
(-0.000337771 -0.00014542 -7.30694e-20 0.000264309 -1.74015e-19 7.3462e-05)
(-0.00035297 -6.11072e-05 3.05791e-19 0.000275459 3.47973e-19 7.75111e-05)
(-0.000348663 1.65924e-05 -5.00765e-20 0.000268539 6.81118e-20 8.01235e-05)
(-0.000331384 8.39173e-05 3.41322e-20 0.000250349 2.10025e-20 8.1035e-05)
(-0.000307341 0.000139298 -2.3354e-19 0.000227525 -2.97237e-19 7.98155e-05)
(-0.000281366 0.00018486 1.50373e-19 0.000204144 -1.39598e-20 7.72218e-05)
(-0.000253983 0.000218705 4.36314e-20 0.000181528 1.35397e-19 7.24553e-05)
(-0.000224016 0.000237812 5.34496e-20 0.000159043 2.56528e-20 6.49731e-05)
(-0.000179243 0.000226923 -2.40502e-19 0.000127526 -1.40074e-19 5.17166e-05)
(-0.000152643 0.000223648 2.08587e-19 0.000110181 1.55487e-19 4.24625e-05)
(-0.000102347 0.000169002 5.07102e-20 7.59617e-05 6.63025e-22 2.63857e-05)
(-0.000915136 0.00164944 -2.11619e-18 0.000707872 -3.18389e-19 0.000207264)
(-0.00180582 0.00345963 5.24986e-18 0.00147051 -2.06173e-18 0.000335311)
(-6.64147e-05 0.000131247 7.31047e-21 5.77474e-05 1.25335e-19 8.66727e-06)
(-0.0013412 0.00153001 5.94777e-18 0.00143207 -8.78453e-18 -9.08696e-05)
(0.00126151 -0.00469879 -2.28872e-18 -0.00101708 -2.44566e-18 -0.000244435)
(0.011901 -0.0526404 4.35282e-18 -0.0101172 1.53726e-17 -0.00178378)
(0.0315415 -0.189523 -2.79818e-17 -0.0274658 7.65966e-18 -0.00407569)
(0.0528078 -0.487195 1.46281e-17 -0.0468436 1.13856e-18 -0.00596419)
(0.0635377 -1.10763 -1.42258e-17 -0.0563561 7.5927e-17 -0.0071816)
(0.0253028 -2.1987 -4.39998e-16 -0.0185128 2.46032e-16 -0.00679004)
(-0.119931 -3.63179 2.16991e-16 0.123118 3.53289e-16 -0.00318733)
(-0.387271 -4.91504 1.56396e-15 0.382065 -5.86789e-16 0.00520587)
(-0.691928 -5.52515 -2.76542e-15 0.677517 2.16277e-15 0.0144112)
(-0.905708 -5.36806 5.13936e-16 0.889977 9.32863e-15 0.0157305)
(-0.983245 -4.78779 -4.86828e-17 0.974857 -6.36827e-15 0.00838768)
(-0.964984 -4.12872 3.05787e-15 0.963519 -2.30084e-15 0.00146537)
(-0.878603 -3.5241 -1.43666e-14 0.881575 5.20366e-16 -0.00297209)
(-0.79867 -3.05394 4.95864e-15 0.797647 -1.62552e-15 0.00102261)
(-0.531931 -2.55846 5.14286e-15 0.547042 -1.52316e-15 -0.0151111)
(-0.844265 -2.82258 -1.01088e-14 0.82703 3.05688e-15 0.0172344)
(0.000395295 -0.000236809 -3.54244e-21 -0.000419382 -6.74331e-21 2.40869e-05)
(0.000435597 -0.000154356 -1.34281e-20 -0.000454969 -1.90009e-20 1.93718e-05)
(0.00046005 -5.32834e-05 5.56868e-20 -0.000474976 1.20066e-19 1.49262e-05)
(0.000454766 5.43765e-05 1.14455e-20 -0.000464209 -1.35548e-20 9.44356e-06)
(0.000415691 0.000160466 7.89586e-21 -0.000421156 -8.8956e-20 5.4645e-06)
(0.000342129 0.000248049 -2.4653e-20 -0.00034411 6.3725e-20 1.98117e-06)
(0.000244202 0.00030301 2.3755e-20 -0.000243895 1.44096e-19 -3.06798e-07)
(0.000141064 0.00031991 1.56355e-19 -0.00014181 1.67854e-19 7.46232e-07)
(4.81397e-05 0.000309275 5.31672e-20 -4.96007e-05 -1.33524e-19 1.46102e-06)
(-2.83417e-05 0.000273937 1.18446e-19 2.72862e-05 7.01959e-20 1.05542e-06)
(-7.85696e-05 0.000221404 -8.35357e-20 7.72405e-05 2.14689e-20 1.32913e-06)
(-0.00010266 0.000166971 -1.20568e-20 0.000100154 7.06303e-20 2.50576e-06)
(-0.000108699 0.000119368 5.25838e-21 0.000104634 -6.34551e-20 4.06403e-06)
(-0.000104074 8.1008e-05 1.13349e-19 9.83167e-05 -7.97964e-20 5.75707e-06)
(-9.40458e-05 5.20555e-05 8.56382e-21 8.68714e-05 -1.25377e-20 7.1744e-06)
(-8.20402e-05 3.10438e-05 -1.26636e-20 7.36766e-05 5.23568e-20 8.36357e-06)
(-7.02293e-05 1.64121e-05 8.11339e-20 6.10094e-05 -9.58414e-20 9.21988e-06)
(-5.97409e-05 6.31528e-06 1.3194e-20 4.9899e-05 1.15878e-20 9.84199e-06)
(-5.10632e-05 -7.61995e-07 9.35626e-20 4.08721e-05 -6.54311e-21 1.01911e-05)
(-4.39378e-05 -6.08745e-06 1.00026e-19 3.34934e-05 2.24114e-20 1.04444e-05)
(-3.80781e-05 -1.04078e-05 2.55855e-19 2.74933e-05 -3.3797e-20 1.05848e-05)
(-3.29298e-05 -1.4453e-05 3.31047e-19 2.21562e-05 -5.00792e-20 1.07736e-05)
(-2.77602e-05 -1.86721e-05 1.96865e-19 1.66902e-05 1.70546e-20 1.107e-05)
(-2.10895e-05 -2.26158e-05 4.53302e-20 9.2363e-06 -9.27064e-21 1.18532e-05)
(-1.29584e-05 -2.48038e-05 -4.86226e-20 -2.34158e-07 2.34843e-20 1.31926e-05)
(-4.80933e-06 -2.40849e-05 1.81522e-19 -9.43718e-06 -2.94971e-20 1.42465e-05)
(2.16927e-06 -2.25524e-05 -4.8855e-20 -1.80221e-05 -4.75401e-21 1.58528e-05)
(5.47528e-06 -1.38327e-05 -3.13947e-20 -1.76536e-05 6.47222e-22 1.21784e-05)
(5.62309e-05 -7.33742e-05 2.76132e-20 -0.000143661 -8.68433e-22 8.74302e-05)
(0.000480993 -0.000275634 -1.44011e-18 -0.0011125 -5.4492e-20 0.00063151)
(0.00145029 0.000425516 -8.64996e-18 -0.00322064 -7.87483e-20 0.00177035)
(0.00231355 0.00468875 -5.48343e-17 -0.00521481 -3.18037e-18 0.00290127)
(0.00185827 0.0154468 -1.34329e-16 -0.00506972 -4.43296e-18 0.00321145)
(-0.000686716 0.0342903 -3.34074e-16 -0.00190459 -2.28707e-17 0.00259131)
(-0.00552545 0.0608577 -8.55049e-16 0.00397971 -7.65531e-17 0.00154575)
(-0.0113264 0.0929744 2.15605e-16 0.010823 -1.74186e-17 0.000503432)
(-0.0190691 0.127603 -1.1729e-15 0.0190195 2.10803e-16 4.952e-05)
(-0.00964077 0.154098 2.94729e-15 0.0104714 5.32898e-16 -0.000830608)
(-0.0374602 0.261201 4.63711e-15 0.0294778 9.50684e-16 0.00798241)
(0.000306281 -0.000258227 9.51576e-21 -0.000296876 1.62787e-20 -9.40428e-06)
(0.000259299 -0.000306086 -1.32544e-20 -0.000248912 -2.38935e-20 -1.03867e-05)
(0.000195911 -0.000347414 -6.02789e-21 -0.000182638 -3.3215e-21 -1.32728e-05)
(0.000125024 -0.000374215 7.16071e-20 -0.000109145 1.04796e-19 -1.58784e-05)
(5.17733e-05 -0.000382638 4.55072e-20 -3.28925e-05 8.24876e-20 -1.88808e-05)
(-2.1295e-05 -0.000372946 5.77215e-20 4.36714e-05 1.10846e-19 -2.23764e-05)
(-8.66767e-05 -0.000347087 8.81567e-20 0.000112592 1.01992e-19 -2.59155e-05)
(-0.000139541 -0.000308087 -5.05822e-20 0.000168996 -7.85523e-20 -2.94553e-05)
(-0.000178418 -0.000260564 -1.8092e-19 0.000211683 -1.79249e-19 -3.3265e-05)
(-0.000202006 -0.000209913 2.34924e-19 0.000238696 1.32301e-19 -3.66898e-05)
(-0.000211576 -0.000160037 1.97568e-19 0.000251487 1.67324e-19 -3.9911e-05)
(-0.000209293 -0.000114101 2.55706e-19 0.000251822 1.22496e-19 -4.25293e-05)
(-0.000197729 -7.42123e-05 -4.20855e-19 0.000241975 -1.34783e-19 -4.42454e-05)
(-0.000179864 -4.12307e-05 -3.5807e-19 0.000224682 -2.40535e-19 -4.48185e-05)
(-0.000157739 -1.50505e-05 4.73812e-19 0.000202212 1.4903e-19 -4.4472e-05)
(-0.000133134 7.47534e-06 9.57791e-20 0.000175307 5.89822e-20 -4.21733e-05)
(-0.000107455 2.65925e-05 -7.08911e-20 0.000145546 7.31677e-21 -3.80913e-05)
(-8.50135e-05 4.31456e-05 -2.30782e-19 0.000118157 -1.51199e-19 -3.31435e-05)
(-6.20239e-05 5.46969e-05 5.18244e-20 8.70625e-05 -1.98838e-20 -2.50387e-05)
(-4.30381e-05 5.86073e-05 2.00333e-19 5.90405e-05 6.18093e-20 -1.60024e-05)
(-3.80997e-05 7.09312e-05 -2.68892e-19 4.90778e-05 -7.73429e-20 -1.09782e-05)
(-4.0382e-05 9.39124e-05 1.4396e-19 4.8593e-05 2.05635e-20 -8.21102e-06)
(-3.7435e-05 0.000112364 -4.38605e-20 4.35044e-05 -9.51024e-21 -6.06933e-06)
(-0.000241804 0.00110008 -8.54099e-19 0.000288525 4.18879e-19 -4.67209e-05)
(-0.000592059 0.00637544 3.53958e-18 0.000863043 -1.12974e-18 -0.000270984)
(0.00051123 0.0129207 -7.50708e-18 8.34724e-05 9.96196e-18 -0.000594703)
(0.000449962 0.00233761 2.00186e-20 -0.000322154 -4.61507e-20 -0.000127808)
(0.00162977 0.00224627 3.01581e-18 -0.00136412 -1.07068e-18 -0.000265645)
(0.00476502 -0.0115625 7.07845e-18 -0.00420081 1.79113e-17 -0.000564202)
(0.0100876 -0.109503 2.70797e-17 -0.00883061 -1.22926e-16 -0.00125704)
(-0.000315319 -0.478909 -6.65437e-17 0.00253361 -3.96599e-16 -0.00221829)
(-0.0769137 -1.30047 2.07901e-15 0.0796312 5.5205e-16 -0.00271748)
(-0.263752 -2.42539 2.97177e-15 0.264633 6.72735e-16 -0.00088049)
(-0.514418 -3.34537 -1.64368e-15 0.511005 -2.23473e-15 0.00341301)
(-0.71573 -3.72343 -7.33415e-15 0.709774 1.42216e-15 0.00595651)
(-0.793 -3.651 4.79373e-15 0.790464 4.89487e-15 0.00253627)
(-0.801334 -3.42109 -1.01682e-14 0.796616 -1.30105e-16 0.00471819)
(-0.574064 -3.02003 -1.30306e-14 0.584054 1.88267e-15 -0.00999061)
(-0.813046 -3.21072 9.2262e-15 0.785275 -3.4875e-15 0.0277706)
(0.000342225 -0.000198501 -1.46076e-20 -0.0003359 -2.97429e-20 -6.32531e-06)
(0.000364716 -0.000135332 -5.02354e-21 -0.00035923 2.03035e-20 -5.48597e-06)
(0.000373315 -5.72487e-05 4.83503e-20 -0.000370624 9.2189e-20 -2.69038e-06)
(0.000363933 2.51529e-05 -2.0694e-20 -0.000362613 -1.16287e-21 -1.32023e-06)
(0.000332415 0.000105541 1.80248e-20 -0.000332517 1.14221e-19 1.01953e-07)
(0.000278553 0.000174404 5.52687e-20 -0.000278833 -1.58009e-20 2.79915e-07)
(0.000208877 0.000222873 5.97617e-20 -0.000208621 -1.55021e-21 -2.56176e-07)
(0.000134094 0.000246333 -1.47488e-19 -0.000134124 -8.9135e-20 2.98426e-08)
(6.20857e-05 0.000246783 -8.05845e-20 -6.28903e-05 6.96669e-21 8.04686e-07)
(-4.79484e-07 0.000226457 1.33621e-19 -6.6364e-07 6.03036e-20 1.14312e-06)
(-4.60132e-05 0.000192085 6.23697e-20 4.50213e-05 -5.11773e-21 9.9185e-07)
(-7.36459e-05 0.000153529 7.38464e-20 7.31314e-05 -4.55939e-20 5.14505e-07)
(-8.69234e-05 0.000117333 -1.14038e-19 8.71752e-05 -7.47484e-20 -2.51754e-07)
(-9.02496e-05 8.63943e-05 -1.41383e-19 9.13691e-05 2.66885e-20 -1.11949e-06)
(-8.73193e-05 6.17597e-05 1.29044e-20 8.93386e-05 3.73731e-20 -2.01926e-06)
(-8.10777e-05 4.30071e-05 4.37231e-20 8.39015e-05 -1.3012e-20 -2.82374e-06)
(-7.35835e-05 2.93011e-05 -1.07378e-19 7.71376e-05 -8.50217e-21 -3.55409e-06)
(-6.61112e-05 1.94558e-05 -4.12466e-21 7.02675e-05 -1.70998e-20 -4.15632e-06)
(-5.93563e-05 1.23045e-05 -4.12363e-20 6.40057e-05 -8.07186e-21 -4.64936e-06)
(-5.34505e-05 6.79502e-06 8.66499e-20 5.8436e-05 -4.99187e-20 -4.98557e-06)
(-4.83437e-05 2.25001e-06 -9.43807e-20 5.3592e-05 -3.27934e-20 -5.24829e-06)
(-4.37599e-05 -1.90779e-06 -1.96268e-19 4.92024e-05 -2.31693e-20 -5.44252e-06)
(-3.92322e-05 -6.02086e-06 8.8885e-21 4.48497e-05 -2.97501e-20 -5.6175e-06)
(-3.40473e-05 -9.84475e-06 5.03133e-20 3.9779e-05 -2.86284e-20 -5.73175e-06)
(-2.84137e-05 -1.2248e-05 1.52479e-19 3.44235e-05 -1.06384e-20 -6.00987e-06)
(-2.34556e-05 -1.29978e-05 -1.42859e-19 3.00706e-05 -8.27417e-21 -6.61503e-06)
(-1.95444e-05 -1.28635e-05 -2.45766e-20 2.68443e-05 7.64415e-21 -7.29982e-06)
(-1.65195e-05 -1.23523e-05 1.47861e-20 2.44676e-05 1.29337e-21 -7.94816e-06)
(-1.3684e-05 -1.14348e-05 -6.83165e-21 2.18799e-05 -2.74664e-22 -8.19586e-06)
(-1.08693e-05 -1.02009e-05 -9.94591e-21 1.87102e-05 4.8332e-22 -7.84094e-06)
(-7.46464e-06 -8.18751e-06 -1.60146e-20 1.38345e-05 -8.46121e-22 -6.36982e-06)
(-4.21544e-06 -5.76382e-06 4.61579e-20 8.62679e-06 1.33191e-21 -4.41135e-06)
(-3.03767e-05 -5.74162e-05 2.01488e-18 7.74852e-05 1.31106e-19 -4.71084e-05)
(-5.88764e-07 -4.59903e-05 1.88308e-17 0.000110426 1.75129e-18 -0.000109837)
(0.000235604 0.000599814 7.84925e-17 -0.000134589 1.03391e-17 -0.000101015)
(0.000881796 0.00333503 -1.73775e-16 -0.000938922 -2.65269e-17 5.71253e-05)
(0.00157058 0.011212 7.42406e-16 -0.00204679 1.09815e-16 0.000476214)
(0.00672189 0.0279233 -4.86436e-16 -0.00721108 -1.68333e-16 0.000489195)
(-0.00282884 0.104506 -3.29707e-16 -0.00194923 -1.41023e-15 0.00477807)
(0.000222634 -0.000196131 -1.35347e-20 -0.000225649 -2.01609e-20 3.01576e-06)
(0.000184148 -0.000231627 2.65857e-21 -0.000188508 4.23611e-21 4.36001e-06)
(0.000134443 -0.000261251 1.61108e-20 -0.000139277 1.74974e-20 4.83436e-06)
(7.79971e-05 -0.000279189 -9.89665e-20 -8.41619e-05 -1.40667e-19 6.16478e-06)
(1.893e-05 -0.000283321 -7.2449e-20 -2.6479e-05 -8.47334e-20 7.54908e-06)
(-4.04447e-05 -0.000273072 1.69307e-19 3.16145e-05 2.02669e-19 8.83017e-06)
(-9.48377e-05 -0.000249164 -1.79756e-19 8.42712e-05 -2.23211e-19 1.05665e-05)
(-0.00014035 -0.000213788 -8.12625e-20 0.000127931 -5.406e-20 1.24184e-05)
(-0.000174743 -0.000169936 -1.93187e-19 0.00016048 -1.44567e-19 1.42631e-05)
(-0.000196682 -0.000121817 -3.59992e-20 0.000180321 -6.55056e-20 1.63609e-05)
(-0.000206281 -7.28681e-05 2.4176e-20 0.000187826 -8.72374e-21 1.8455e-05)
(-0.000204706 -2.62621e-05 -1.3228e-19 0.000184164 -1.7544e-19 2.05427e-05)
(-0.000193973 1.54465e-05 4.30645e-19 0.000171447 2.94946e-19 2.25259e-05)
(-0.000176467 5.07395e-05 -1.4175e-19 0.000152271 -2.47895e-20 2.41967e-05)
(-0.000154505 7.94347e-05 -3.47389e-19 0.000128935 -1.5191e-19 2.55697e-05)
(-0.000130521 0.000100453 2.30335e-19 0.000104583 4.61e-21 2.59377e-05)
(-0.000106133 0.000113138 -1.67361e-19 8.13181e-05 -9.653e-20 2.48146e-05)
(-8.17573e-05 0.000118017 2.28559e-21 5.90857e-05 1.22191e-19 2.26716e-05)
(-5.96955e-05 0.000118141 -4.03238e-20 3.96064e-05 -3.16797e-20 2.00891e-05)
(-3.92413e-05 0.000110922 -2.8503e-19 2.2669e-05 -1.96933e-19 1.65724e-05)
(-2.21829e-05 9.473e-05 1.98231e-19 1.03299e-05 1.92441e-19 1.1853e-05)
(-1.15796e-05 7.54028e-05 3.94432e-21 4.40765e-06 -1.21606e-19 7.17198e-06)
(-6.77037e-06 6.98899e-05 3.84298e-20 2.13357e-06 1.17589e-20 4.6368e-06)
(-2.52497e-06 7.9858e-05 1.11654e-19 -1.21622e-06 -5.00038e-21 3.74119e-06)
(3.77058e-06 8.70093e-05 -3.76452e-20 -6.74932e-06 -1.19921e-20 2.97874e-06)
(9.47078e-06 8.92175e-05 1.26743e-19 -1.15684e-05 2.0242e-20 2.09767e-06)
(9.64958e-05 0.000673714 -5.23409e-20 -0.000105729 1.18901e-21 9.23318e-06)
(0.000420996 0.00257355 -4.09181e-19 -0.000437788 -2.53196e-19 1.67921e-05)
(0.00146868 0.00786181 2.32319e-20 -0.00148171 2.02728e-18 1.30257e-05)
(0.00519708 0.0228301 -6.64945e-17 -0.00515111 5.48948e-18 -4.59694e-05)
(0.00153699 0.00483995 -6.13672e-18 -0.00151119 1.02622e-18 -2.57995e-05)
(0.0107071 0.0121437 2.80804e-17 -0.010477 -1.63899e-16 -0.000230134)
(0.0187079 -0.0985487 5.7585e-16 -0.0178782 -7.06513e-16 -0.000829652)
(-0.0257137 -0.584763 -2.98415e-15 0.0277049 1.59056e-16 -0.00199121)
(-0.182327 -1.4907 4.83568e-15 0.184138 1.81669e-15 -0.00181135)
(-0.40085 -2.39987 -9.96228e-16 0.40155 4.27329e-16 -0.000700863)
(-0.586102 -2.96447 -1.75053e-15 0.582125 3.98527e-15 0.003977)
(-0.525621 -3.08631 6.73596e-16 0.536111 2.434e-16 -0.0104908)
(-0.77249 -3.40104 -1.72711e-14 0.735228 4.32363e-15 0.0372619)
(0.000253109 -0.000152906 8.63744e-21 -0.000256266 3.53094e-21 3.15758e-06)
(0.000274185 -0.000106575 -3.12486e-20 -0.000275958 -4.49332e-20 1.77291e-06)
(0.000285725 -4.9668e-05 3.99036e-21 -0.000287345 2.03318e-20 1.61924e-06)
(0.000283466 1.17688e-05 1.70412e-20 -0.00028429 -5.68572e-20 8.23716e-07)
(0.000264479 7.30916e-05 -1.38575e-19 -0.000265055 -1.99268e-19 5.76454e-07)
(0.000228059 0.000127522 -1.41947e-19 -0.000228068 7.28557e-20 8.55464e-09)
(0.000178333 0.000168591 1.98758e-19 -0.000178007 1.03193e-19 -3.25336e-07)
(0.000122702 0.000192328 -6.43105e-20 -0.000122583 -1.86805e-19 -1.19105e-07)
(6.67736e-05 0.000198831 -8.78184e-20 -6.69534e-05 2.49289e-20 1.79789e-07)
(1.59953e-05 0.000188954 -5.98852e-20 -1.63349e-05 -1.03993e-19 3.39601e-07)
(-2.36393e-05 0.000167062 2.09749e-20 2.33358e-05 3.16661e-20 3.03442e-07)
(-5.04741e-05 0.000139407 -3.93062e-20 5.01949e-05 -5.14057e-20 2.79219e-07)
(-6.58565e-05 0.000110989 -8.11795e-20 6.5526e-05 1.09211e-19 3.30468e-07)
(-7.23437e-05 8.47918e-05 8.6105e-20 7.18769e-05 5.05174e-20 4.66727e-07)
(-7.25481e-05 6.24362e-05 7.31688e-20 7.18745e-05 -3.36507e-20 6.73676e-07)
(-6.88983e-05 4.43335e-05 -1.50338e-20 6.79434e-05 -3.0114e-20 9.54923e-07)
(-6.32427e-05 3.02678e-05 4.36825e-20 6.19787e-05 9.72983e-21 1.26406e-06)
(-5.6927e-05 1.95711e-05 -6.47132e-20 5.53457e-05 1.6535e-20 1.58129e-06)
(-5.07694e-05 1.14603e-05 4.58166e-20 4.88925e-05 -1.20487e-21 1.87688e-06)
(-4.51122e-05 5.13644e-06 -6.03067e-20 4.296e-05 -2.81636e-20 2.15225e-06)
(-4.00224e-05 -2.26682e-08 5.81805e-20 3.76443e-05 4.86305e-21 2.37807e-06)
(-3.53183e-05 -4.52309e-06 7.79907e-20 3.27494e-05 1.70607e-20 2.56894e-06)
(-3.06276e-05 -8.65371e-06 -5.44295e-21 2.79078e-05 7.15667e-21 2.71982e-06)
(-2.53525e-05 -1.22587e-05 -1.46135e-19 2.24323e-05 6.97063e-23 2.92024e-06)
(-1.95038e-05 -1.45489e-05 -5.43768e-20 1.63511e-05 -2.32201e-20 3.15269e-06)
(-1.39165e-05 -1.5271e-05 -1.60215e-20 1.05757e-05 2.46902e-20 3.34081e-06)
(-9.03144e-06 -1.50182e-05 5.92786e-20 5.38521e-06 7.36094e-22 3.64624e-06)
(-4.81595e-06 -1.41932e-05 2.13743e-21 7.45659e-07 -4.86885e-22 4.07029e-06)
(-1.23707e-06 -1.31319e-05 -3.3556e-21 -3.32301e-06 2.86631e-22 4.56008e-06)
(1.63616e-06 -1.12933e-05 3.75534e-20 -6.35316e-06 1.74048e-22 4.717e-06)
(4.36894e-06 -1.1802e-05 3.32636e-20 -1.0025e-05 1.07546e-21 5.65606e-06)
(3.23018e-06 -5.83784e-06 -8.99593e-20 -6.13157e-06 -4.97861e-21 2.9014e-06)
(1.18712e-05 -1.72332e-05 -7.63464e-19 -1.98558e-05 -5.92157e-20 7.98463e-06)
(8.68827e-05 -0.000109108 -1.06769e-18 -0.000129196 -1.30338e-19 4.23137e-05)
(2.44997e-05 -2.67076e-05 2.06781e-19 -3.24279e-05 2.24054e-21 7.92817e-06)
(0.000109757 -8.93028e-05 -1.75218e-18 -0.000127454 6.95938e-19 1.76974e-05)
(0.000366622 -0.00013121 -1.79458e-17 -0.000396176 -1.49302e-17 2.95548e-05)
(0.000937592 0.000212755 5.60524e-17 -0.000915821 4.00288e-18 -2.17707e-05)
(0.0038391 0.0197205 -2.90742e-16 -0.00521159 5.23058e-17 0.00137249)
(0.00018413 -0.000161017 1.18696e-20 -0.000183018 1.37885e-20 -1.1117e-06)
(0.000155879 -0.000189724 -2.98491e-20 -0.000154872 -3.58779e-20 -1.00709e-06)
(0.000118627 -0.000214945 -2.41033e-21 -0.000117022 -4.98741e-21 -1.60476e-06)
(7.60883e-05 -0.000232392 -1.24405e-20 -7.41966e-05 -6.48749e-21 -1.89175e-06)
(3.10348e-05 -0.000239976 9.8637e-20 -2.87656e-05 1.13519e-19 -2.26922e-06)
(-1.54521e-05 -0.000237319 7.56361e-20 1.8429e-05 6.24062e-20 -2.97685e-06)
(-5.93419e-05 -0.000224512 9.6166e-22 6.29596e-05 3.04988e-20 -3.6177e-06)
(-9.76946e-05 -0.000202638 1.87632e-19 0.000102084 1.81805e-19 -4.38929e-06)
(-0.000128792 -0.00017356 -2.34319e-20 0.000134178 -3.12885e-21 -5.38586e-06)