/*--------------------------------*- C++ -*----------------------------------*\
| =========                 |                                                 |
| \\      /  F ield         | OpenFOAM: The Open Source CFD Toolbox           |
|  \\    /   O peration     | Version:  2306                                  |
|   \\  /    A nd           | Website:  www.openfoam.com                      |
|    \\/     M anipulation  |                                                 |
\*---------------------------------------------------------------------------*/
FoamFile
{
    version     2.0;
    format      ascii;
    arch        "LSB;label=32;scalar=64";
    class       volScalarField;
    location    "375";
    object      turbulenceProperties:k;
}
// * * * * * * * * * * * * * * * * * * * * * * * * * * * * * * * * * * * * * //

dimensions      [0 2 -2 0 0 0 0];

internalField   nonuniform List<scalar> 
10720
(
0.0199786
0.0232539
0.0274186
0.0330508
0.0396738
0.0480544
0.05871
0.0718523
0.0885072
0.109759
0.137259
0.173644
0.222547
0.289916
0.385887
0.526377
0.742787
1.07628
1.66186
2.57329
4.62774
7.73363
18.1078
35.343
39.1613
37.4642
36.8146
37.4903
38.3268
38.5391
38.0297
36.8953
35.0604
32.5496
29.3079
25.4121
20.1321
15.0235
5.55854
0.0170391
0.0146487
0.0119554
0.00963879
0.00744381
0.00545925
0.00385226
0.00288495
0.00301489
0.00406973
0.00603115
0.00903285
0.0133975
0.0196366
0.0284183
0.0408165
0.0586615
0.0853429
0.127067
0.195055
0.311621
0.517837
0.911237
1.66852
3.31952
6.78845
15.1728
31.2652
44.3049
49.9007
51.488
51.7477
51.4497
50.7218
49.6015
48.1501
46.0269
43.5544
35.6747
0.00310763
0.00309046
0.00305512
0.002967
0.00283059
0.00267375
0.00248862
0.00228039
0.00207427
0.00187211
0.00167937
0.00154525
0.00152593
0.0016738
0.00216405
0.00336958
0.00632475
0.0130698
0.0313902
0.076786
0.227369
0.627528
1.92784
6.18463
12.1035
18.1992
23.9277
27.9876
28.7965
26.4212
22.5174
18.5654
15.36
12.9032
11.0157
9.5186
8.47347
7.40899
8.55749
0.00307936
0.00303753
0.00295214
0.00282558
0.00265255
0.00242444
0.00215684
0.00189735
0.00165748
0.00141948
0.00119301
0.00099695
0.00083131
0.000690809
0.000571734
0.0004714
0.000386282
0.000314251
0.000251125
0.000193458
0.000136417
8.06521e-05
2.79572e-05
4.5601e-06
1.16214e-05
0.00159568
0.00854071
0.0688275
0.231443
0.451766
0.67342
0.867761
1.03113
1.17489
1.30942
1.44802
1.59463
1.92188
2.6727
0.00208396
0.00206751
0.00202089
0.00194962
0.00187508
0.00179318
0.00171038
0.00163593
0.00157189
0.00152223
0.00148381
0.00146174
0.00145584
0.00146817
0.00147206
0.00143202
0.00120494
0.00108773
0.000360294
0.00641775
0.0125508
0.000634261
0.0068519
0.0158868
0.17887
0.638813
1.63167
3.69648
7.32815
12.1115
16.4324
18.5571
18.1413
16.2888
14.1321
12.1072
10.5212
8.71563
9.81218
0.0021002
0.00209762
0.00209206
0.00205482
0.00198875
0.0018778
0.00172484
0.00155017
0.00138785
0.00122086
0.00104117
0.000867179
0.000711465
0.000577381
0.000466682
0.000377307
0.000307657
0.000254832
0.000216412
0.000188815
0.000169802
0.000157463
0.000150686
0.000146971
0.000146801
0.00014586
0.000155153
9.22778e-05
0.000635718
0.00417622
0.011834
0.0247087
0.0551184
0.115
0.203558
0.312037
0.429962
0.514674
0.878556
0.00175897
0.0017626
0.00175375
0.00173915
0.00170902
0.00166417
0.00160827
0.00153847
0.00145869
0.00137046
0.00127565
0.00117558
0.00107123
0.000964463
0.000856257
0.000743071
0.000627366
0.000534444
0.000414004
0.000226896
2.93714e-05
8.41036e-05
0
0.00398885
0.021106
0.0429098
0.00776797
0.00902767
0.0413339
0.366153
1.59596
4.34217
8.13178
11.2808
12.6362
12.4523
11.71
10.2498
11.0294
0.00174009
0.00171151
0.00166664
0.0016126
0.00154484
0.00145611
0.00135252
0.00124229
0.00112751
0.00100295
0.000874209
0.00075351
0.000646872
0.000554969
0.000477318
0.00041222
0.000358663
0.000315045
0.000280037
0.000251538
0.00022838
0.000208929
0.000191498
0.000173167
0.000154333
0.000138679
0.000126853
0.000118356
0.000108053
9.47703e-05
7.119e-05
4.49363e-05
0.000344174
0.000593899
0.00214547
0.0115103
0.0379025
0.0959179
0.349087
0.00131961
0.00131728
0.00130699
0.00128865
0.00126027
0.00122179
0.00117528
0.00112145
0.00106206
0.00100074
0.000939458
0.000880684
0.000827041
0.000780161
0.000741158
0.000708373
0.000674003
0.000629607
0.000588357
0.000524711
0.000416297
0.000250894
2.66304e-05
7.73869e-06
0
0
0.00250388
0.00848471
0.0263838
0.0777773
0.0167385
0.0536594
0.33402
1.95099
5.00601
8.11011
10.0711
10.4385
11.613
0.0013162
0.00130688
0.00128835
0.00125866
0.00121681
0.00115752
0.00108657
0.00101039
0.000929168
0.000840012
0.000747264
0.000656507
0.000571274
0.000493046
0.000422873
0.000361201
0.00030818
0.000263576
0.000226871
0.000196946
0.000172788
0.000153089
0.000136453
0.000120585
0.00010446
8.95692e-05
7.77459e-05
6.9579e-05
6.59971e-05
6.09865e-05
7.45217e-05
1.76014e-05
0.000114597
0.000540139
0.000150495
0.000490789
0.00133999
0.00315333
0.0677423
0.00108164
0.00108625
0.00108582
0.00108194
0.00107131
0.00105409
0.00103102
0.00100119
0.000965228
0.000924093
0.000878145
0.000828468
0.000776237
0.000722377
0.000667841
0.000611321
0.000549768
0.000486313
0.000427971
0.000375597
0.000336314
0.000296117
0.000254018
9.89748e-05
1.26803e-05
5.62176e-06
1.1227e-06
0
0
0
0.00395641
0.0373872
0.00677157
0.0904569
0.198099
1.85436
5.17821
8.34596
11.0845
0.00107184
0.00105829
0.00103859
0.00101259
0.000979219
0.000935352
0.000884866
0.000830695
0.000771792
0.000706676
0.000638481
0.000570605
0.000505651
0.000445132
0.000390101
0.000341244
0.000298775
0.000262573
0.000232216
0.000206925
0.000185814
0.000167764
0.000151532
0.000135381
0.00011861
0.000102643
8.87153e-05
7.70599e-05
6.7285e-05
5.91577e-05
5.21828e-05
4.58225e-05
3.64805e-05
2.58932e-05
1.44358e-05
6.42797e-05
0.000229959
0.000722151
0.00777146
0.000874979
0.000878822
0.000879435
0.00087721
0.000870222
0.000858123
0.000841202
0.000818961
0.000791595
0.000759861
0.0007243
0.000685803
0.000645557
0.000604707
0.000564207
0.000525409
0.000490241
0.000457458
0.000423984
0.000389284
0.000355215
0.000323793
0.000306616
0.000269651
0.000188388
9.91438e-05
1.68809e-05
5.72401e-06
3.30605e-06
4.03863e-07
0
0
0.000881454
0.0285584
0.0212691
0.126101
0.851659
4.2568
8.89519
0.000867795
0.000858065
0.000843912
0.000824422
0.000799138
0.000766696
0.00073024
0.000690501
0.00064674
0.000598754
0.000548317
0.000497334
0.000447351
0.000399434
0.000354477
0.000313198
0.000275996
0.00024311
0.00021454
0.000189951
0.000168867
0.000150586
0.000134203
0.000118461
0.000102697
8.77605e-05
7.46305e-05
6.35798e-05
5.43805e-05
4.69124e-05
4.13285e-05
3.77129e-05
3.56608e-05
3.28445e-05
2.36914e-05
7.12254e-06
1.25942e-06
0
0.00167504
0.000725206
0.000730156
0.000733096
0.000734281
0.000732271
0.000726778
0.000718024
0.000705363
0.000688793
0.000668667
0.000644957
0.00061812
0.000588687
0.000557138
0.000524034
0.000490054
0.000454771
0.000417272
0.000379273
0.000343425
0.000311571
0.000285362
0.000266225
0.00025414
0.000234133
0.000198561
0.000150962
0.000100166
6.02232e-05
6.37221e-06
3.05656e-06
1.18148e-07
0
0
0.00323299
0.00848505
0.104795
0.967478
5.33132
0.000717768
0.000708803
0.000696787
0.000680839
0.000660854
0.000636089
0.000609034
0.000579212
0.000546189
0.000510364
0.000472542
0.000433909
0.000395418
0.00035779
0.00032176
0.000288026
0.000257014
0.000229094
0.000204407
0.000182809
0.000163954
0.000147311
0.000132156
0.000117541
0.000102967
8.90606e-05
7.65856e-05
6.57555e-05
5.63434e-05
4.81398e-05
4.10865e-05
3.50483e-05
2.98786e-05
2.54319e-05
2.22141e-05
1.85581e-05
1.36003e-05
1.62652e-06
0
0.000604947
0.000609714
0.000613188
0.000615357
0.000615278
0.000612638
0.000607499
0.000599292
0.000587946
0.000573565
0.000556104
0.000535809
0.000513038
0.000488157
0.000461707
0.000434112
0.000406003
0.000378473
0.000351611
0.00032541
0.00030032
0.000277379
0.000256832
0.000238889
0.000221258
0.000199974
0.000176272
0.000151675
0.000128554
9.26798e-05
5.96062e-05
2.37337e-06
1.62773e-06
0
0
0.000911537
0.0326934
0.132474
2.12158
0.000598413
0.000590849
0.000581074
0.000568093
0.000552266
0.000533156
0.000512559
0.000489744
0.000464517
0.000437396
0.000408762
0.000379292
0.000349556
0.000319997
0.000291125
0.000263469
0.000237445
0.000213396
0.000191539
0.000171904
0.000154344
0.000138523
0.000123936
0.000109945
9.62016e-05
8.31055e-05
7.12879e-05
6.09874e-05
5.20711e-05
4.43863e-05
3.7899e-05
3.26522e-05
2.86522e-05
2.58663e-05
2.42619e-05
2.45063e-05
2.63358e-05
2.8744e-05
1.20861e-06
0.000509988
0.000514661
0.000518558
0.000521574
0.000522977
0.000522614
0.000520435
0.000515956
0.000509105
0.000499876
0.000488118
0.000473947
0.00045753
0.00043905
0.000418799
0.000397069
0.000374313
0.000350492
0.000325768
0.000301201
0.000278103
0.000257451
0.000239264
0.000222015
0.00020365
0.000183092
0.00016227
0.000144143
0.00012985
0.000117937
0.000105724
7.66728e-05
3.2551e-05
2.88004e-06
0
0
5.01302e-06
0.0025825
0.553606
0.000504005
0.000497414
0.0004892
0.000478409
0.000465649
0.000450735
0.000434687
0.000416923
0.000397463
0.000376684
0.000354776
0.000332144
0.000309082
0.000285826
0.000262752
0.000240248
0.000218631
0.000198251
0.000179325
0.000161967
0.00014614
0.000131642
0.000118127
0.000105171
9.251e-05
8.04351e-05
6.94417e-05
5.9743e-05
5.12427e-05
4.38016e-05
3.73666e-05
3.19104e-05
2.73568e-05
2.37787e-05
2.11631e-05
2.06296e-05
2.03325e-05
3.44218e-05
1.65067e-05
0.000432993
0.000437368
0.000441291
0.000444604
0.000446726
0.000447602
0.000447083
0.000444834
0.000440708
0.000434679
0.000426561
0.000416383
0.000404206
0.000390108
0.000374296
0.000357005
0.000338497
0.000319191
0.000299523
0.000279884
0.000260903
0.000243093
0.000226638
0.000210594
0.000193187
0.0001736
0.000153237
0.00013493
0.000120303
0.000109645
0.000101573
9.66462e-05
8.47559e-05
4.96341e-05
3.2418e-06
0
0
0.00295179
0.142907
0.000427634
0.000421929
0.000415036
0.000406004
0.000395596
0.000383817
0.000371093
0.000357057
0.000341892
0.000325817
0.000308889
0.000291366
0.000273407
0.000255115
0.000236699
0.000218432
0.000200549
0.000183321
0.00016698
0.000151661
0.000137384
0.000124063
0.00011149
9.93933e-05
8.76204e-05
7.63917e-05
6.60899e-05
5.69206e-05
4.8843e-05
4.17653e-05
3.56592e-05
3.05337e-05
2.63864e-05
2.32754e-05
2.11484e-05
2.08829e-05
2.07915e-05
2.95545e-05
3.72298e-05
0.000370108
0.000374184
0.000378012
0.000381421
0.000383981
0.000385645
0.00038629
0.000385606
0.000383483
0.000379864
0.000374565
0.000367569
0.000358868
0.000348483
0.000336512
0.000323097
0.000308437
0.000292834
0.0002764
0.000259496
0.000242869
0.000227089
0.000212295
0.000197825
0.000182293
0.00016489
0.00014652
0.000129352
0.000114883
0.000103282
9.37979e-05
8.75575e-05
8.45331e-05
8.14651e-05
5.26911e-05
2.52728e-06
0
0.000816656
0.0494962
0.000365312
0.000360313
0.000354476
0.000346867
0.000338287
0.000328842
0.000318616
0.000307401
0.00029546
0.000282882
0.000269694
0.000256045
0.000241997
0.000227555
0.000212864
0.000198082
0.000183353
0.000168896
0.000154891
0.000141498
0.000128788
0.000116734
0.000105209
9.40579e-05
8.32276e-05
7.28823e-05
6.33243e-05
5.47383e-05
4.71166e-05
4.03946e-05
3.4544e-05
2.95708e-05
2.54506e-05
2.22409e-05
1.99631e-05
1.93711e-05
1.95867e-05
2.51942e-05
4.03948e-05
0.000318125
0.000321878
0.000325518
0.000328871
0.000331603
0.000333689
0.000335033
0.000335354
0.000334554
0.000332572
0.000329233
0.000324499
0.000318322
0.000310671
0.000301601
0.000291195
0.000279569
0.000266982
0.000253627
0.000239758
0.000225829
0.000212258
0.000199138
0.000186058
0.000172085
0.000156609
0.000140267
0.000124713
0.000111239
9.99505e-05
9.03064e-05
8.22442e-05
7.65852e-05
7.44218e-05
7.81449e-05
3.85379e-05
6.30224e-08
0.0002648
0.0164264
0.000313858
0.000309467
0.000304478
0.000298044
0.000290915
0.000283232
0.000274919
0.000265867
0.00025637
0.000246446
0.000236087
0.000225372
0.000214321
0.000202908
0.00019117
0.000179212
0.000167121
0.000155047
0.000143129
0.000131502
0.000120252
0.000109397
9.88834e-05
8.86493e-05
7.86944e-05
6.91651e-05
6.02971e-05
5.22597e-05
4.50734e-05
3.87015e-05
3.31317e-05
2.83835e-05
2.4457e-05
2.14102e-05
1.92659e-05
1.86331e-05
1.8898e-05
2.31814e-05
3.69928e-05
0.000274804
0.00027823
0.000281642
0.000284863
0.000287628
0.000289947
0.000291709
0.000292682
0.000292794
0.000291968
0.000290061
0.000287008
0.000282765
0.000277279
0.000270554
0.000262625
0.000253554
0.000243539
0.000232709
0.000221213
0.000209392
0.000197662
0.000186106
0.000174435
0.000161987
0.000148299
0.000133829
0.000119868
0.000107542
9.70315e-05
8.79595e-05
8.00301e-05
7.33497e-05
6.83939e-05
6.72271e-05
7.99667e-05
1.26331e-07
2.83558e-05
0.00416821
0.00027099
0.000267136
0.000262828
0.000257363
0.000251401
0.000245066
0.000238228
0.000230877
0.000223249
0.000215345
0.000207137
0.000198678
0.000189948
0.000180884
0.000171507
0.000161846
0.000151936
0.000141888
0.0001318
0.000121776
0.000111893
0.000102198
9.26875e-05
8.33677e-05
7.42758e-05
6.55385e-05
5.73541e-05
4.98707e-05
4.31273e-05
3.71107e-05
3.18183e-05
2.72742e-05
2.34783e-05
2.04877e-05
1.83355e-05
1.75958e-05
1.77526e-05
2.14591e-05
3.32532e-05
0.000238407
0.000241513
0.000244684
0.000247716
0.000250423
0.000252831
0.00025481
0.000256185
0.000256897
0.000256865
0.00025597
0.000254153
0.000251346
0.00024749
0.000242559
0.000236569
0.000229556
0.000221628
0.000212928
0.000203555
0.000193691
0.000183694
0.000173639
0.000163322
0.000152294
0.000140218
0.000127422
0.000114911
0.000103655
9.39162e-05
8.54565e-05
7.80977e-05
7.16325e-05
6.67697e-05
6.00845e-05
7.50916e-05
3.8178e-05
4.3139e-07
0.000314552
0.00023499
0.000231599
0.000227862
0.000223189
0.000218173
0.000212888
0.000207216
0.000201196
0.00019502
0.000188672
0.000182125
0.000175394
0.000168455
0.000161237
0.000153722
0.000145916
0.000137818
0.00012948
0.000120971
0.000112369
0.000103749
9.51615e-05
8.66263e-05
7.81746e-05
6.98903e-05
6.19031e-05
5.43715e-05
4.74247e-05
4.11148e-05
3.54478e-05
3.0432e-05
2.60985e-05
2.2457e-05
1.95677e-05
1.74629e-05
1.66628e-05
1.67218e-05
1.98523e-05
2.99859e-05
0.000207608
0.000210424
0.000213344
0.000216168
0.000218772
0.000221169
0.000223247
0.00022486
0.000225959
0.000226473
0.000226294
0.000225363
0.000223624
0.000221007
0.000217492
0.000213056
0.000207712
0.00020151
0.00019459
0.000186983
0.000178791
0.000170308
0.00016162
0.000152592
0.000142899
0.0001323
0.000121036
0.000109883
9.96525e-05
9.06545e-05
8.27583e-05
7.58902e-05
6.98366e-05
6.53499e-05
5.9489e-05
6.02393e-05
7.12138e-05
1.44182e-07
2.34337e-05
0.000204557
0.000201553
0.000198301
0.000194284
0.000190039
0.000185587
0.00018084
0.000175873
0.00017083
0.000165691
0.000160424
0.000155042
0.0001495
0.000143724
0.00013769
0.000131369
0.000124749
0.000117847
0.0001107
0.000103359
9.58811e-05
8.83176e-05
8.07018e-05
7.30956e-05
6.55933e-05
5.83217e-05
5.14154e-05
4.49911e-05
3.91084e-05
3.37879e-05
2.90468e-05
2.49212e-05
2.14252e-05
1.86195e-05
1.6539e-05
1.56622e-05
1.56311e-05
1.82549e-05
2.70304e-05
0.000181387
0.00018394
0.000186609
0.000189226
0.00019169
0.000194018
0.00019611
0.000197845
0.000199174
0.000200041
0.000200355
0.000200062
0.000199116
0.000197446
0.000195015
0.000191795
0.000187778
0.000182985
0.000177524
0.000171412
0.000164688
0.000157562
0.000150128
0.000142301
0.000133851
0.000124597
0.000114722
0.000104826
9.55816e-05
8.73092e-05
7.99652e-05
7.35147e-05
6.78785e-05
6.33178e-05
5.97641e-05
5.27209e-05
7.89328e-05
3.48558e-07
3.28168e-10
0.000178669
0.000176004
0.000173151
0.000169685
0.000166072
0.000162289
0.000158286
0.00015416
0.000150011
0.000145817
0.000141553
0.000137213
0.000132757
0.000128118
0.000123254
0.000118133
0.000112719
0.000107016
0.00010103
9.47934e-05
8.83433e-05
8.17193e-05
7.49631e-05
6.81494e-05
6.13858e-05
5.47867e-05
4.84761e-05
4.25562e-05
3.70896e-05
3.21091e-05
2.76393e-05
2.37198e-05
2.03714e-05
1.76555e-05
1.56084e-05
1.46656e-05
1.45523e-05
1.67269e-05
2.4293e-05
0.000158947
0.000161255
0.000163684
0.000166101
0.000168402
0.00017063
0.000172679
0.000174452
0.00017591
0.000177005
0.000177655
0.000177821
0.000177449
0.000176479
0.000174876
0.000172604
0.000169649
0.000166002
0.000161741
0.000156875
0.00015141
0.000145468
0.000139163
0.000132443
0.000125134
0.000117104
0.000108491
9.97566e-05
9.14535e-05
8.38946e-05
7.71048e-05
7.10608e-05
6.5811e-05
6.12222e-05
5.86007e-05
5.12914e-05
6.70188e-05
2.53612e-05
5.26081e-07
0.000156521
0.000154154
0.000151642
0.000148635
0.000145545
0.000142305
0.000138909
0.000135455
0.000132015
0.000128565
0.000125086
0.000121567
0.000117965
0.000114216
0.000110282
0.000106121
0.00010169
9.69785e-05
9.19761e-05
8.66919e-05
8.11528e-05
7.53907e-05
6.94389e-05
6.33647e-05
5.7282e-05
5.13171e-05
4.55728e-05
4.01379e-05
3.5076e-05
3.04279e-05
2.62248e-05
2.25083e-05
1.93052e-05
1.66761e-05
1.46589e-05
1.36523e-05
1.34627e-05
1.52637e-05
2.1755e-05
0.000139648
0.000141727
0.000143941
0.000146153
0.000148296
0.000150398
0.000152375
0.000154129
0.000155643
0.000156869
0.000157737
0.000158211
0.000158251
0.0001578
0.000156829
0.000155295
0.000153175
0.000150456
0.000147173
0.000143343
0.000138946
0.000134038
0.000128742
0.000123028
0.000116758
0.000109832
0.000102357
9.46897e-05
8.72781e-05
8.04153e-05
7.41739e-05
6.8551e-05
6.36367e-05
5.92612e-05
5.64487e-05
5.16453e-05
5.48638e-05
5.14787e-05
6.33905e-06
0.00013748
0.000135373
0.000133153
0.000130538
0.000127874
0.000125085
0.000122186
0.000119276
0.000116402
0.000113546
0.000110686
0.00010781
0.00010488
0.000101835
9.86371e-05
9.52462e-05
9.16153e-05
8.77206e-05
8.3545e-05
7.90855e-05
7.43462e-05
6.93481e-05
6.41215e-05
5.87379e-05
5.33039e-05
4.7933e-05
4.27202e-05
3.77459e-05
3.3073e-05
2.87472e-05
2.48042e-05
2.12869e-05
1.82278e-05
1.56853e-05
1.36997e-05
1.26362e-05
1.23767e-05
1.38646e-05
1.94091e-05
0.000122977
0.000124849
0.000126861
0.000128884
0.000130865
0.000132835
0.000134709
0.000136416
0.000137933
0.00013922
0.00014022
0.000140906
0.000141239
0.000141175
0.000140676
0.000139709
0.000138244
0.000136263
0.000133768
0.00013079
0.000127295
0.000123288
0.00011888
0.000114064
0.000108728
0.000102795
9.63454e-05
8.96515e-05
8.30757e-05
7.68841e-05
7.11774e-05
6.59827e-05
6.13735e-05
5.73248e-05
5.41399e-05
5.13036e-05
4.84505e-05
5.53516e-05
2.61395e-05
0.000121038
0.000119158
0.000117193
0.000114913
0.000112597
0.000110187
0.000107699
0.000105228
0.00010281
0.000100428
9.80606e-05
9.56951e-05
9.32942e-05
9.0808e-05
8.81977e-05
8.5423e-05
8.24406e-05
7.92206e-05
7.57357e-05
7.19744e-05
6.79346e-05
6.3622e-05
5.90552e-05
5.43012e-05
4.94623e-05
4.46416e-05
3.99268e-05
3.53897e-05
3.10903e-05
2.70762e-05
2.33867e-05
2.00643e-05
1.71467e-05
1.46894e-05
1.27353e-05
1.162e-05
1.12967e-05
1.25328e-05
1.72598e-05
0.00010852
0.000110208
0.000112031
0.000113877
0.0001157
0.000117534
0.000119295
0.000120929
0.000122415
0.000123717
0.000124791
0.00012561
0.000126143
0.00012635
0.000126202
0.000125665
0.000124707
0.000123308
0.000121457
0.000119186
0.000116444
0.000113211
0.000109579
0.000105558
0.000101057
9.60095e-05
9.04758e-05
8.4665e-05
7.88667e-05
7.33165e-05
6.81282e-05
6.33565e-05
5.90482e-05
5.53049e-05
5.1991e-05
4.9877e-05
4.59126e-05
4.9838e-05
4.05108e-05
0.000106785
0.000105106
0.000103364
0.000101369
9.93442e-05
9.72486e-05
9.51038e-05
9.29951e-05
9.09476e-05
8.8946e-05
8.697e-05
8.50078e-05
8.30293e-05
8.09862e-05
7.8845e-05
7.65656e-05
7.4107e-05
7.14403e-05
6.85343e-05
6.53675e-05
6.19272e-05
5.82162e-05
5.42451e-05
5.00653e-05
4.57678e-05
4.14547e-05
3.72054e-05
3.3081e-05
2.91375e-05
2.54228e-05
2.19782e-05
1.88456e-05
1.60665e-05
1.36927e-05
1.17709e-05
1.06103e-05
1.02293e-05
1.12641e-05
1.52931e-05
9.59385e-05
9.74591e-05
9.91129e-05
0.000100791
0.000102467
0.000104163
0.000105807
0.000107354
0.000108785
0.000110071
0.00011117
0.000112066
0.00011273
0.000113128
0.000113238
0.000113023
0.000112458
0.000111521
0.000110188
0.000108484
0.000106362
0.000103788
0.00010083
9.75041e-05
9.37423e-05
8.94818e-05
8.47644e-05
7.97508e-05
7.46709e-05
6.97272e-05
6.50392e-05
6.06776e-05
5.66797e-05
5.3188e-05
4.99701e-05
4.78592e-05
4.45959e-05
4.42728e-05
4.37891e-05
9.43893e-05
9.28832e-05
9.13358e-05
8.9585e-05
8.78086e-05
8.59796e-05
8.41218e-05
8.23103e-05
8.05643e-05
7.88688e-05
7.72104e-05
7.55735e-05
7.39296e-05
7.22386e-05
7.04702e-05
6.85902e-05
6.65579e-05
6.43431e-05
6.19155e-05
5.92502e-05
5.63292e-05
5.31429e-05
4.96961e-05
4.60318e-05
4.22328e-05
3.83887e-05
3.45696e-05
3.08311e-05
2.72236e-05
2.37945e-05
2.05854e-05
1.76375e-05
1.49932e-05
1.27014e-05
1.08124e-05
9.61234e-06
9.18146e-06
1.00606e-05
1.35029e-05
8.49564e-05
8.63269e-05
8.78234e-05
8.93489e-05
9.08847e-05
9.24457e-05
9.39742e-05
9.54246e-05
9.67881e-05
9.80335e-05
9.91304e-05
0.000100062
0.000100807
0.000101335
0.000101626
0.000101651
0.000101383
0.000100802
9.98797e-05
9.86323e-05
9.70215e-05
9.50055e-05
9.26258e-05
8.99046e-05
8.67897e-05
8.32215e-05
7.92267e-05
7.49285e-05
7.05067e-05
6.61331e-05
6.1923e-05
5.79553e-05
5.427e-05
5.0999e-05
4.7971e-05
4.56957e-05
4.31724e-05
4.06322e-05
4.16053e-05
8.35719e-05
8.22214e-05
8.08436e-05
7.93013e-05
7.77367e-05
7.61352e-05
7.4517e-05
7.29533e-05
7.14555e-05
7.00105e-05
6.86055e-05
6.72289e-05
6.58533e-05
6.44461e-05
6.29791e-05
6.14184e-05
5.97307e-05
5.78875e-05
5.58565e-05
5.36115e-05
5.11321e-05
4.84026e-05
4.54197e-05
4.22181e-05
3.88684e-05
3.54522e-05
3.20281e-05
2.86482e-05
2.53574e-05
2.22002e-05
1.92172e-05
1.64478e-05
1.39343e-05
1.17229e-05
9.86678e-06
8.63255e-06
8.15788e-06
8.92254e-06
1.18827e-05
7.53441e-05
7.65782e-05
7.7931e-05
7.9318e-05
8.07193e-05
8.21536e-05
8.35661e-05
8.49196e-05
8.62034e-05
8.73952e-05
8.84653e-05
8.94039e-05
9.01891e-05
9.08001e-05
9.12182e-05
9.14165e-05
9.13735e-05
9.10656e-05
9.04697e-05
8.95891e-05
8.83946e-05
8.68465e-05
8.49571e-05
8.27569e-05
8.02015e-05
7.7237e-05
7.3878e-05
7.02175e-05
6.63935e-05
6.25503e-05
5.87933e-05
5.5204e-05
5.18253e-05
4.87667e-05
4.5933e-05
4.35661e-05
4.13831e-05
3.82305e-05
3.82694e-05
7.41033e-05
7.28954e-05
7.1665e-05
7.03033e-05
6.89212e-05
6.75133e-05
6.60985e-05
6.47397e-05
6.34465e-05
6.22063e-05
6.10098e-05
5.98445e-05
5.86865e-05
5.75052e-05
5.62775e-05
5.49759e-05
5.35689e-05
5.20294e-05
5.03268e-05
4.84351e-05
4.63317e-05
4.39964e-05
4.14202e-05
3.86282e-05
3.56809e-05
3.26497e-05
2.95902e-05
2.65425e-05
2.35481e-05
2.06483e-05
1.78811e-05
1.52835e-05
1.28974e-05
1.0765e-05
8.94165e-06
7.67761e-06
7.16555e-06
7.8486e-06
1.04193e-05
6.69086e-05
6.80194e-05
6.92414e-05
7.0502e-05
7.17786e-05
7.30929e-05
7.43935e-05
7.56487e-05
7.68512e-05
7.79788e-05
7.90089e-05
7.99323e-05
8.07317e-05
8.13902e-05
8.18898e-05
8.22117e-05
8.23333e-05
8.22339e-05
8.18924e-05
8.13015e-05
8.04458e-05
7.92808e-05
7.78023e-05
7.60443e-05
7.39727e-05
7.15335e-05
6.87315e-05
6.56355e-05
6.23513e-05
5.89954e-05
5.56644e-05
5.24353e-05
4.9353e-05
4.65085e-05
4.385e-05
4.14909e-05
3.93765e-05
3.62653e-05
3.52289e-05
6.57962e-05
6.47147e-05
6.36143e-05
6.24095e-05
6.11858e-05
5.99429e-05
5.87023e-05
5.75169e-05
5.63935e-05
5.53229e-05
5.42959e-05
5.33006e-05
5.23166e-05
5.132e-05
5.02883e-05
4.91955e-05
4.80159e-05
4.67249e-05
4.52946e-05
4.36972e-05
4.19108e-05
3.99133e-05
3.76919e-05
3.52626e-05
3.26768e-05
2.99938e-05
2.7265e-05
2.4523e-05
2.18048e-05
1.91467e-05
1.65845e-05
1.41524e-05
1.189e-05
9.83536e-06
8.04435e-06
6.75348e-06
6.209e-06
6.84213e-06
9.10688e-06
5.94875e-05
6.04889e-05
6.15925e-05
6.27354e-05
6.38978e-05
6.50987e-05
6.62931e-05
6.74514e-05
6.85716e-05
6.96302e-05
7.06109e-05
7.15043e-05
7.22985e-05
7.29764e-05
7.35263e-05
7.39315e-05
7.41715e-05
7.42283e-05
7.40817e-05
7.37191e-05
7.31335e-05
7.2284e-05
7.11494e-05
6.97667e-05
6.81059e-05
6.61168e-05
6.37967e-05
6.11962e-05
5.83955e-05
5.54857e-05
5.25505e-05
4.96616e-05
4.68645e-05
4.42301e-05
4.17361e-05
3.94385e-05
3.73091e-05
3.43629e-05
3.26301e-05
5.8492e-05
5.75222e-05
5.65362e-05
5.54688e-05
5.43829e-05
5.32825e-05
5.21911e-05
5.11514e-05
5.01711e-05
4.92409e-05
4.8354e-05
4.74988e-05
4.66575e-05
4.58091e-05
4.49353e-05
4.40137e-05
4.302e-05
4.1932e-05
4.0726e-05
3.93759e-05
3.78578e-05
3.61485e-05
3.42323e-05
3.21201e-05
2.98538e-05
2.74858e-05
2.50563e-05
2.25952e-05
2.01331e-05
1.77018e-05
1.53346e-05
1.30615e-05
1.09187e-05
8.9412e-06
7.18291e-06
5.86698e-06
5.29351e-06
5.90377e-06
7.93428e-06
5.29465e-05
5.38488e-05
5.48459e-05
5.58807e-05
5.69374e-05
5.80331e-05
5.91259e-05
6.01929e-05
6.12303e-05
6.22189e-05
6.31435e-05
6.39978e-05
6.47717e-05
6.54512e-05
6.60274e-05
6.64846e-05
6.68059e-05
6.69768e-05
6.69773e-05
6.67937e-05
6.64218e-05
6.58255e-05
6.49773e-05
6.39072e-05
6.25931e-05
6.09879e-05
5.90836e-05
5.69155e-05
5.4543e-05
5.20372e-05
4.94672e-05
4.68967e-05
4.43703e-05
4.19453e-05
3.9607e-05
3.73949e-05
3.52612e-05
3.24478e-05
3.03281e-05
5.20556e-05
5.11861e-05
5.03015e-05
4.93539e-05
4.83885e-05
4.74114e-05
4.64481e-05
4.55338e-05
4.46742e-05
4.38613e-05
4.30898e-05
4.235e-05
4.1626e-05
4.08995e-05
4.01537e-05
3.93708e-05
3.85293e-05
3.76101e-05
3.65892e-05
3.54439e-05
3.4152e-05
3.26896e-05
3.10377e-05
2.92037e-05
2.72201e-05
2.5132e-05
2.29731e-05
2.07676e-05
1.85413e-05
1.63224e-05
1.4139e-05
1.20182e-05
9.9922e-06
8.09135e-06
6.36591e-06
5.02497e-06
4.42381e-06
5.03625e-06
6.89434e-06
4.71708e-05
4.79828e-05
4.88842e-05
4.98198e-05
5.07796e-05
5.1778e-05
5.27755e-05
5.37559e-05
5.4712e-05
5.56308e-05
5.64964e-05
5.73056e-05
5.80481e-05
5.87157e-05
5.92986e-05
5.97842e-05
6.01603e-05
6.0411e-05
6.05215e-05
6.04758e-05
6.02721e-05
5.98768e-05
5.92627e-05
5.84505e-05
5.74261e-05
5.61467e-05
5.45979e-05
5.28047e-05
5.0809e-05
4.86648e-05
4.64292e-05
4.41557e-05
4.18822e-05
3.9662e-05
3.7478e-05
3.53613e-05
3.32515e-05
3.05438e-05
2.82172e-05
4.63723e-05
4.55932e-05
4.47997e-05
4.39566e-05
4.3097e-05
4.22287e-05
4.13752e-05
4.05682e-05
3.9811e-05
3.9097e-05
3.84222e-05
3.77778e-05
3.715e-05
3.65239e-05
3.58845e-05
3.52155e-05
3.4499e-05
3.37172e-05
3.28502e-05
3.18764e-05
3.07741e-05
2.95211e-05
2.80971e-05
2.65048e-05
2.47705e-05
2.29314e-05
2.10154e-05
1.90426e-05
1.70337e-05
1.50127e-05
1.30033e-05
1.1029e-05
9.11764e-06
7.29405e-06
5.60244e-06
4.23481e-06
3.60345e-06
4.2422e-06
5.97857e-06
4.20613e-05
4.2793e-05
4.3606e-05
4.44524e-05
4.53229e-05
4.62304e-05
4.71405e-05
4.80378e-05
4.89169e-05
4.9766e-05
5.05723e-05
5.13322e-05
5.2039e-05
5.26844e-05
5.3261e-05
5.37592e-05
5.41672e-05
5.44722e-05
5.46616e-05
5.47196e-05
5.46445e-05
5.4408e-05
5.39821e-05
5.33835e-05
5.25985e-05
5.15901e-05
5.03427e-05
4.88716e-05
4.72055e-05
4.53831e-05
4.34495e-05
4.14499e-05
3.94162e-05
3.73891e-05
3.53608e-05
3.33418e-05
3.1281e-05
2.86757e-05
2.62472e-05
4.13453e-05
4.0648e-05
3.99363e-05
3.9184e-05
3.84182e-05
3.76457e-05
3.68877e-05
3.6173e-05
3.55034e-05
3.48739e-05
3.42807e-05
3.37161e-05
3.31685e-05
3.26247e-05
3.2073e-05
3.14981e-05
3.08846e-05
3.02171e-05
2.94777e-05
2.8647e-05
2.77052e-05
2.66298e-05
2.54013e-05
2.40186e-05
2.25022e-05
2.08844e-05
1.91865e-05
1.74248e-05
1.56156e-05
1.37785e-05
1.19337e-05
1.01002e-05
8.30157e-06
6.55679e-06
4.90171e-06
3.50479e-06
2.83593e-06
3.52648e-06
5.18047e-06
3.75344e-05
3.81939e-05
3.89267e-05
3.96919e-05
4.04809e-05
4.13043e-05
4.21336e-05
4.2953e-05
4.37595e-05
4.45415e-05
4.52891e-05
4.59987e-05
4.66652e-05
4.72811e-05
4.78421e-05
4.83383e-05
4.87621e-05
4.9102e-05
4.93462e-05
4.948e-05
4.95022e-05
4.93889e-05
4.91136e-05
4.86869e-05
4.80986e-05
4.73158e-05
4.63221e-05
4.5125e-05
4.37435e-05
4.2205e-05
4.05429e-05
3.87926e-05
3.69816e-05
3.51412e-05
3.32638e-05
3.13505e-05
2.93559e-05
2.68634e-05
2.44049e-05
3.68926e-05
3.62681e-05
3.56302e-05
3.49577e-05
3.42752e-05
3.35869e-05
3.29128e-05
3.2278e-05
3.16842e-05
3.11265e-05
3.06023e-05
3.01057e-05
2.96258e-05
2.91508e-05
2.86713e-05
2.81741e-05
2.76461e-05
2.70741e-05
2.64413e-05
2.57302e-05
2.49232e-05
2.39987e-05
2.29376e-05
2.17369e-05
2.04124e-05
1.89895e-05
1.74868e-05
1.59157e-05
1.42895e-05
1.26232e-05
1.09338e-05
9.23634e-06
7.54959e-06
5.88728e-06
4.27412e-06
2.84576e-06
2.12412e-06
2.89569e-06
4.49466e-06
3.35184e-05
3.41122e-05
3.47729e-05
3.54638e-05
3.61782e-05
3.69254e-05
3.7679e-05
3.84262e-05
3.91645e-05
3.98825e-05
4.05725e-05
4.12315e-05
4.18553e-05
4.24381e-05
4.29762e-05
4.34628e-05
4.38899e-05
4.42478e-05
4.45269e-05
4.47148e-05
4.4809e-05
4.47898e-05
4.46334e-05
4.43445e-05
4.39149e-05
4.33174e-05
4.25353e-05
4.15696e-05
4.04324e-05
3.91417e-05
3.7721e-05
3.61976e-05
3.45916e-05
3.29278e-05
3.1198e-05
2.93977e-05
2.74815e-05
2.51094e-05
2.26798e-05
3.29431e-05
3.23835e-05
3.18119e-05
3.12109e-05
3.06017e-05
2.9988e-05
2.93877e-05
2.88226e-05
2.82945e-05
2.77989e-05
2.73345e-05
2.68946e-05
2.64713e-05
2.60552e-05
2.56368e-05
2.52047e-05
2.47478e-05
2.42548e-05
2.37109e-05
2.31005e-05
2.24072e-05
2.16117e-05
2.06942e-05
1.96504e-05
1.84935e-05
1.72433e-05
1.59148e-05
1.45161e-05
1.3057e-05
1.15497e-05
1.00072e-05
8.44162e-06
6.86695e-06
5.29224e-06
3.73007e-06
2.27269e-06
1.4691e-06
2.36021e-06
3.91595e-06
2.99508e-05
3.04856e-05
3.10806e-05
3.17042e-05
3.23503e-05
3.30274e-05
3.37116e-05
3.43917e-05
3.50658e-05
3.57232e-05
3.63579e-05
3.69675e-05
3.7548e-05
3.80956e-05
3.86067e-05
3.90759e-05
3.94967e-05
3.9861e-05
4.01612e-05
4.0386e-05
4.05316e-05
4.05827e-05
4.05172e-05
4.03367e-05
4.00345e-05
3.95878e-05
3.89798e-05
3.82086e-05
3.72794e-05
3.6203e-05
3.49951e-05
3.36751e-05
3.22581e-05
3.07598e-05
2.91738e-05
2.74882e-05
2.56647e-05
2.34235e-05
2.1063e-05
2.9435e-05
2.89341e-05
2.84217e-05
2.78844e-05
2.73405e-05
2.6793e-05
2.62579e-05
2.57543e-05
2.52836e-05
2.48419e-05
2.44285e-05
2.40383e-05
2.36637e-05
2.32966e-05
2.29293e-05
2.25523e-05
2.21557e-05
2.17292e-05
2.12599e-05
2.07346e-05
2.01379e-05
1.94515e-05
1.86574e-05
1.775e-05
1.67389e-05
1.56413e-05
1.44679e-05
1.32247e-05
1.19186e-05
1.05591e-05
9.1559e-06
7.71811e-06
6.25649e-06
4.77625e-06
3.27939e-06
1.80879e-06
8.73011e-07
1.93471e-06
3.44005e-06
2.6778e-05
2.72592e-05
2.77947e-05
2.83575e-05
2.89414e-05
2.95542e-05
3.01747e-05
3.07931e-05
3.14072e-05
3.20082e-05
3.25904e-05
3.31519e-05
3.36896e-05
3.42005e-05
3.46817e-05
3.51291e-05
3.55373e-05
3.59e-05
3.62098e-05
3.64568e-05
3.66368e-05
3.67388e-05
3.67426e-05
3.66458e-05
3.64442e-05
3.61181e-05
3.56527e-05