/*--------------------------------*- C++ -*----------------------------------*\
| =========                 |                                                 |
| \\      /  F ield         | OpenFOAM: The Open Source CFD Toolbox           |
|  \\    /   O peration     | Version:  2306                                  |
|   \\  /    A nd           | Website:  www.openfoam.com                      |
|    \\/     M anipulation  |                                                 |
\*---------------------------------------------------------------------------*/
FoamFile
{
    version     2.0;
    format      ascii;
    arch        "LSB;label=32;scalar=64";
    class       volVectorField;
    location    "375";
    object      U;
}
// * * * * * * * * * * * * * * * * * * * * * * * * * * * * * * * * * * * * * //

dimensions      [0 1 -1 0 0 0 0];

internalField   nonuniform List<vector> 
10720
(
(0.227259 27.6474 6.74553e-18)
(1.96452 29.9436 -5.62227e-17)
(4.13734 32.162 2.12838e-16)
(6.63501 33.8949 -4.10323e-16)
(9.39112 35.2251 3.14657e-16)
(12.3374 36.1105 2.00368e-16)
(15.3189 36.4527 -3.61647e-16)
(18.2398 36.2862 1.2424e-15)
(21.0152 35.676 -8.39342e-16)
(23.562 34.6568 -5.80905e-16)
(25.8435 33.324 3.00299e-16)
(27.8128 31.7265 1.67795e-15)
(29.423 29.8611 6.52298e-16)
(30.6577 27.7679 5.9781e-16)
(31.4739 25.4622 1.43022e-15)
(31.8437 22.9751 1.24024e-15)
(31.6968 20.3078 -2.52893e-15)
(30.9555 17.4967 -8.97278e-15)
(29.4858 14.5541 6.68078e-15)
(27.1596 11.5444 -3.12737e-16)
(23.8363 8.53199 -1.30839e-15)
(19.5658 5.67722 -2.42351e-15)
(14.8895 3.22828 8.27141e-15)
(11.4424 1.44086 -2.1489e-15)
(10.0593 0.261293 1.47843e-15)
(10.6959 -0.3588 -3.16033e-15)
(12.1156 -0.599655 1.894e-16)
(13.624 -0.71992 -1.37276e-15)
(14.8679 -0.871419 -5.4519e-15)
(15.6915 -1.08665 -7.68092e-15)
(16.1252 -1.34684 7.72203e-15)
(16.263 -1.62023 2.69343e-15)
(16.062 -1.86598 1.10766e-15)
(15.555 -2.06056 3.71532e-14)
(14.7255 -2.17959 -5.57746e-15)
(13.5766 -2.20856 -5.02555e-16)
(11.7304 -2.06629 8.63933e-16)
(9.72508 -1.82187 2.14941e-15)
(3.48633 -1.07534 1.69563e-14)
(-1.14277 25.1969 7.66807e-18)
(-2.24866 22.4364 1.16855e-17)
(-3.01415 19.3296 -9.05173e-17)
(-3.31661 15.7334 8.6052e-17)
(-2.99645 12.0186 -2.86078e-16)
(-2.02394 8.321 7.07912e-16)
(-0.486857 4.952 1.88653e-15)
(1.36423 2.18899 5.48263e-15)
(3.32249 -0.13934 -1.6451e-15)
(5.55283 -2.15973 5.08808e-16)
(7.8486 -3.66163 1.74124e-15)
(9.96496 -4.62783 2.62237e-15)
(11.8355 -5.18638 8.17053e-16)
(13.4721 -5.46186 -1.38872e-15)
(14.8999 -5.55111 -1.24465e-15)
(16.1498 -5.51717 6.67144e-16)
(17.2525 -5.40764 2.50566e-16)
(18.2405 -5.25146 8.37592e-16)
(19.1449 -5.06811 -6.87918e-16)
(19.9875 -4.86037 -1.35721e-16)
(20.7865 -4.62976 -5.97343e-16)
(21.5527 -4.36682 2.95518e-16)
(22.2874 -4.05757 8.09223e-16)
(22.9597 -3.67697 -2.71821e-16)
(23.502 -3.22511 -3.03587e-16)
(23.897 -2.74546 -2.9483e-16)
(24.175 -2.27771 -8.40496e-18)
(24.3721 -1.77843 9.26063e-18)
(24.5036 -1.18113 1.23631e-19)
(24.5698 -0.513059 -3.41267e-18)
(24.5503 0.15984 7.46623e-17)
(24.4304 0.789599 5.573e-17)
(24.2113 1.35359 1.25376e-16)
(23.9018 1.84541 3.63886e-16)
(23.5017 2.26733 9.76349e-18)
(23.0077 2.62725 2.30679e-16)
(22.3174 2.92665 8.27123e-16)
(21.3672 3.13422 2.18453e-15)
(18.7647 3.31188 2.34018e-15)
(7.154 23.9926 -3.54615e-18)
(9.04442 25.7196 -2.16015e-17)
(11.3478 27.2838 1.50548e-17)
(14.0036 28.5803 6.469e-17)
(16.8652 29.5496 -3.30538e-16)
(19.9376 30.1314 -1.76099e-16)
(23.1082 30.2792 -5.82006e-16)
(26.2443 30.0142 1.14481e-16)
(29.2922 29.3463 -4.87104e-16)
(32.1689 28.3272 -8.47213e-17)
(34.8184 27.0098 1.21731e-15)
(37.2336 25.4926 -1.62228e-15)
(39.4235 23.8657 -9.2797e-16)
(41.3996 22.1615 -1.68271e-17)
(43.149 20.4111 5.61698e-16)
(44.6311 18.6529 -1.17259e-15)
(45.8269 16.9105 -6.08665e-16)
(46.6995 15.2129 3.57361e-15)
(47.1878 13.5674 -5.87833e-16)
(47.1792 11.9785 -1.20879e-15)
(46.4799 10.3969 -1.70154e-15)
(44.8607 8.7239 1.47969e-15)
(42.1798 6.82175 -2.19522e-15)
(38.6408 4.75779 -2.05708e-16)
(35.1068 2.86612 1.1865e-15)
(31.9542 1.34547 1.13926e-15)
(29.1547 0.239811 8.55133e-17)
(26.7734 -0.550496 5.74372e-16)
(24.9184 -1.15064 1.34895e-15)
(23.5663 -1.62226 1.07687e-15)
(22.5399 -1.99173 -1.04671e-15)
(21.6144 -2.27798 -1.23112e-16)
(20.6908 -2.50239 1.44794e-14)
(19.6849 -2.67112 -1.0964e-14)
(18.5064 -2.76933 1.73627e-15)
(17.118 -2.77932 -4.9948e-15)
(15.1482 -2.6326 1.57982e-15)
(13.0635 -2.36634 -6.59229e-16)
(7.0622 -1.47559 4.49138e-15)
(5.55905 22.1534 3.08196e-17)
(4.17397 20.1087 -9.58584e-17)
(2.96015 17.7149 -4.79999e-16)
(2.03954 14.9947 4.47322e-16)
(1.59171 12.037 6.06244e-16)
(1.70546 8.98136 -2.53136e-17)
(2.4025 6.04003 -2.72075e-15)
(3.58754 3.43908 -4.60249e-15)
(5.0801 1.14204 3.07495e-15)
(6.84355 -0.758075 -1.62475e-15)
(8.73728 -2.12428 2.21169e-16)
(10.5864 -3.01224 -5.0848e-16)
(12.3095 -3.54988 2.78649e-17)
(13.8827 -3.83695 1.49374e-16)
(15.3007 -3.95446 5.00031e-16)
(16.5747 -3.95468 -9.10433e-16)
(17.7214 -3.88203 9.7789e-16)
(18.7645 -3.76158 -2.29137e-16)
(19.7281 -3.61118 -4.23725e-16)
(20.6352 -3.42807 -2.94989e-16)
(21.5011 -3.20993 -6.66846e-16)
(22.3381 -2.93939 -7.2938e-16)
(23.1482 -2.59508 -7.90782e-16)
(23.9087 -2.13663 3.15256e-16)
(24.5676 -1.57144 -2.11984e-17)
(25.0989 -0.963324 1.34864e-16)
(25.5134 -0.336457 9.93694e-17)
(25.8054 0.273765 5.90565e-18)
(25.9669 0.821302 -1.18798e-19)
(26.0004 1.28865 2.2055e-18)
(25.9349 1.68399 -4.28233e-17)
(25.797 2.03013 -1.90055e-17)
(25.5971 2.34669 -1.76879e-16)
(25.3361 2.64221 -1.2856e-16)
(25.0048 2.9201 -2.58316e-17)
(24.6044 3.18328 -1.08859e-16)
(24.0358 3.42891 -6.36358e-16)
(23.473 3.64811 -2.27495e-15)
(21.4975 3.7166 -2.42324e-15)
(8.30381 22.1 2.14484e-18)
(9.64536 23.6257 9.99956e-18)
(11.2778 25.1117 5.09782e-18)
(13.1539 26.4857 -5.36124e-17)
(15.2214 27.629 1.44076e-16)
(17.4795 28.5183 2.15197e-16)
(19.8537 29.1146 5.84725e-16)
(22.2695 29.3806 2.4605e-17)
(24.6699 29.316 6.10353e-16)
(26.997 28.9331 -1.19569e-15)
(29.1977 28.2516 -1.30083e-16)
(31.2378 27.2965 -3.34416e-16)
(33.0903 26.0979 1.51169e-15)
(34.738 24.6884 -3.33281e-16)
(36.1791 23.1024 -4.38906e-16)
(37.473 21.3509 -6.31106e-16)
(38.6499 19.464 1.95107e-15)
(39.7298 17.4981 -1.55499e-15)
(40.7732 15.5027 -9.2466e-16)
(41.8255 13.5516 2.37267e-15)
(42.948 11.6859 -1.87404e-15)
(44.06 9.89394 -3.57746e-16)
(44.8718 8.03559 -4.50337e-16)
(44.9386 6.02686 6.38552e-16)
(44.1678 4.02988 -3.69364e-16)
(42.8139 2.28467 5.95318e-16)
(41.1 0.902816 -1.14563e-16)
(39.0756 -0.18291 -8.58169e-17)
(36.6985 -1.07314 1.53222e-15)
(34.0093 -1.80061 2.17498e-16)
(31.218 -2.36344 -3.02812e-15)
(28.6114 -2.76888 3.15959e-15)
(26.3415 -3.03918 -7.69289e-16)
(24.3383 -3.1976 1.52562e-16)
(22.4109 -3.25659 -3.40879e-15)
(20.4304 -3.21325 1.06782e-14)
(18.0238 -3.02184 -2.3894e-15)
(15.5362 -2.65319 -3.7135e-16)
(9.75436 -1.88504 -6.252e-15)
(7.20961 20.4928 3.83897e-18)
(6.25001 18.7381 -8.46936e-17)
(5.45262 16.6729 2.92094e-16)
(4.8123 14.3625 2.30231e-16)
(4.48411 11.8816 -6.55618e-16)
(4.5137 9.29964 -6.21884e-16)
(4.92861 6.75382 1.24967e-15)
(5.69809 4.40224 1.8647e-15)
(6.78403 2.29688 1.61159e-15)
(8.13877 0.507401 -1.39261e-15)
(9.63634 -0.905453 -1.02373e-15)
(11.1562 -1.96289 2.63527e-16)
(12.6269 -2.72619 9.91717e-16)
(14.0129 -3.25337 1.40286e-15)
(15.2975 -3.59502 -2.7624e-16)
(16.4786 -3.79443 -3.25751e-17)
(17.5626 -3.8896 9.48154e-16)
(18.563 -3.90672 1.80345e-17)
(19.4968 -3.86397 7.18361e-16)
(20.3813 -3.76661 6.41906e-16)
(21.229 -3.61677 1.4936e-15)
(22.0488 -3.40622 1.55611e-15)
(22.8408 -3.12152 6.87061e-16)
(23.5857 -2.74227 1.34657e-16)
(24.2404 -2.28353 -1.24786e-16)
(24.7805 -1.79445 3.5954e-16)
(25.2164 -1.29721 -6.97879e-17)
(25.5616 -0.796773 -3.8496e-17)
(25.8215 -0.289627 2.72215e-18)
(25.9964 0.226066 3.62458e-19)
(26.0885 0.750031 1.64372e-17)
(26.099 1.27189 3.9807e-17)
(26.028 1.7735 5.65732e-17)
(25.875 2.23925 1.60095e-17)
(25.6308 2.66168 -1.92078e-16)
(25.2954 3.03919 1.03715e-16)
(24.7698 3.37351 -9.25116e-16)
(24.1692 3.6261 4.34719e-15)
(22.3696 3.72741 1.07065e-14)
(10.905 20.2247 1.19694e-17)
(12.1614 21.5196 -1.40365e-17)
(13.6681 22.7809 1.64236e-17)
(15.4018 23.934 -2.30643e-17)
(17.3163 24.8888 -6.94268e-17)
(19.4177 25.6265 -1.78961e-16)
(21.6502 26.103 -2.87119e-16)
(23.9533 26.2834 1.03982e-16)
(26.2805 26.1597 6.91532e-16)
(28.5768 25.7338 -4.5539e-16)
(30.7912 25.0186 -7.66574e-16)
(32.884 24.0373 -1.16233e-15)
(34.8198 22.824 1.31936e-15)
(36.5719 21.4161 2.22662e-15)
(38.1298 19.8463 -1.98816e-15)
(39.4539 18.1665 -8.587e-16)
(40.4988 16.4348 1.08875e-16)
(41.2605 14.6877 1.7458e-15)
(41.7489 12.9623 1.00845e-16)
(42.0125 11.2932 -2.52588e-15)
(42.1495 9.70748 3.3623e-15)
(42.3135 8.19907 -1.57223e-15)
(42.6088 6.6843 3.38231e-16)
(42.8888 5.07485 1.34215e-15)
(42.8487 3.4366 -8.00912e-16)
(42.3989 1.95661 6.69958e-16)
(41.7003 0.742369 7.42005e-17)
(40.9068 -0.253999 -3.7865e-16)
(40.0009 -1.12322 -3.02746e-16)
(38.8203 -1.89614 -4.3255e-16)
(37.176 -2.55644 4.84169e-16)
(34.9669 -3.07698 -4.98653e-15)
(32.2944 -3.43964 -5.14391e-15)
(29.4555 -3.64603 1.44345e-15)
(26.6819 -3.70866 5.69041e-15)
(24.004 -3.6302 -2.50199e-15)
(21.0733 -3.39175 3.3162e-15)
(18.087 -2.90979 6.54179e-16)
(12.3246 -2.20229 3.04606e-15)
(9.84987 18.8699 -5.22586e-17)
(8.90316 17.4011 -2.10352e-17)
(8.07694 15.6683 3.58809e-16)
(7.38574 13.7112 -1.58913e-16)
(6.9604 11.5993 9.40709e-16)
(6.83587 9.38093 7.95842e-16)
(7.03824 7.15976 -9.87515e-16)
(7.54183 5.05843 1.19231e-17)
(8.3245 3.1346 3.43408e-16)
(9.35341 1.45277 2.3828e-15)
(10.5375 0.0661622 1.75328e-16)
(11.7924 -1.01946 6.77834e-16)
(13.058 -1.83588 -1.85338e-15)
(14.2936 -2.42401 -1.14697e-15)
(15.4737 -2.82319 3.44685e-16)
(16.5864 -3.07251 1.9857e-16)
(17.6288 -3.20609 -9.52825e-16)
(18.605 -3.25098 9.43239e-17)
(19.5248 -3.22688 -2.30272e-16)
(20.3998 -3.14322 5.98291e-16)
(21.2391 -3.00321 -6.3015e-16)
(22.049 -2.80139 -9.16683e-16)
(22.8286 -2.52651 1.14685e-16)
(23.5614 -2.16105 2.24665e-16)
(24.2116 -1.71067 4.36474e-16)
(24.7553 -1.21289 -3.19593e-16)
(25.1974 -0.690758 -4.0491e-17)
(25.5489 -0.155345 1.39254e-17)
(25.8148 0.382864 -4.18139e-18)
(25.9978 0.908828 -2.53739e-18)
(26.1031 1.40673 3.72462e-18)
(26.1372 1.86088 -8.6709e-18)
(26.104 2.26811 -8.03126e-18)
(26.0051 2.63152 2.09732e-17)
(25.8309 2.95773 1.99231e-16)
(25.5775 3.25125 -5.65991e-16)
(25.1462 3.52021 2.55095e-15)
(24.6142 3.69601 -1.98928e-15)
(22.9849 3.75934 -2.1055e-15)
(12.4356 18.8259 -2.29756e-17)
(13.4919 19.9752 7.3063e-18)
(14.7659 21.1172 7.23652e-19)
(16.2229 22.1897 6.15113e-17)
(17.8232 23.1101 1.11953e-16)
(19.5873 23.8735 -3.03338e-16)
(21.4686 24.4404 4.33678e-16)
(23.42 24.7755 1.92195e-16)
(25.411 24.8688 5.37702e-16)
(27.3951 24.7137 2.80597e-16)
(29.3311 24.3116 -8.40401e-17)
(31.1842 23.6745 9.63136e-16)
(32.9204 22.8213 -2.01714e-15)
(34.5126 21.7734 1.41183e-16)
(35.9401 20.5548 2.09186e-15)
(37.1824 19.189 -1.03649e-15)
(38.2517 17.6717 1.07028e-15)
(39.1424 16.0258 -2.17233e-16)
(39.8471 14.2844 6.94767e-17)
(40.3588 12.4939 2.5615e-15)
(40.6839 10.6939 -1.75388e-15)
(40.8487 8.91501 7.15453e-17)
(40.8959 7.14933 -3.84965e-16)
(40.8183 5.39097 -1.76713e-15)
(40.523 3.71132 6.44724e-16)
(39.9713 2.2309 -2.16213e-15)
(39.2744 1.00721 -8.18003e-17)
(38.5783 -0.00821949 2.69909e-16)
(37.9469 -0.895488 -2.23082e-16)
(37.3603 -1.68998 4.06224e-15)
(36.7511 -2.39462 1.55221e-15)
(35.9826 -3.00518 -7.21999e-16)
(34.8192 -3.50408 -4.10872e-15)
(33.0166 -3.85307 6.53949e-15)
(30.5253 -4.01645 -4.82164e-15)
(27.5884 -3.97625 3.56915e-16)
(24.2463 -3.73096 4.7468e-16)
(20.7873 -3.16213 -4.45979e-17)
(14.9269 -2.4699 -3.73935e-15)
(11.5428 17.63 1.21307e-17)
(10.7393 16.3466 -1.52231e-16)
(10.0176 14.8318 5.98192e-17)
(9.38604 13.1243 3.82071e-17)
(8.96063 11.2881 -1.34033e-15)
(8.76615 9.35161 -1.15386e-15)
(8.83367 7.39051 3.56813e-15)
(9.15423 5.50448 -2.81216e-15)
(9.7184 3.75591 -1.11539e-17)
(10.5021 2.19705 3.55404e-17)
(11.4406 0.868656 -3.50144e-16)
(12.4708 -0.216222 -5.13734e-16)
(13.5451 -1.07508 -1.03631e-15)
(14.6252 -1.73494 1.26901e-15)
(15.6839 -2.22158 5.40893e-16)
(16.7051 -2.56468 -1.13599e-16)
(17.6804 -2.79053 2.87756e-16)
(18.6081 -2.92141 -5.25898e-16)
(19.4921 -2.97396 3.5481e-16)
(20.3392 -2.958 -3.43159e-16)
(21.1555 -2.87695 3.86285e-16)
(21.9448 -2.72762 3.54815e-16)
(22.7051 -2.50186 -6.2642e-17)
(23.4215 -2.1889 -5.29103e-16)
(24.0638 -1.7948 -1.3149e-16)
(24.6085 -1.35143 -4.53587e-17)
(25.0563 -0.88402 1.09788e-16)
(25.416 -0.405342 1.21361e-18)
(25.6916 0.0752334 -3.11566e-18)
(25.885 0.547585 1.95182e-17)
(26 1.00351 8.59287e-18)
(26.0418 1.44299 -3.94059e-18)
(26.0146 1.86612 5.62825e-18)
(25.9217 2.26937 6.90867e-18)
(25.7575 2.64969 3.31945e-17)
(25.5242 3.00273 -1.74905e-16)
(25.1356 3.32901 -8.60432e-16)
(24.6771 3.54902 2.85183e-15)
(23.3014 3.66106 -3.12202e-15)
(13.9267 17.5919 1.59561e-17)
(14.8866 18.609 -2.81703e-17)
(16.0396 19.6254 5.55605e-18)
(17.3538 20.5827 4.95953e-18)
(18.7905 21.4076 -7.22745e-17)
(20.3794 22.1005 -8.80747e-17)
(22.0804 22.6233 -2.73519e-17)
(23.8554 22.9439 -4.37137e-16)
(25.6839 23.0489 -3.89779e-17)
(27.5276 22.9273 2.02768e-16)
(29.3513 22.5747 -3.4597e-16)
(31.1251 21.9945 4.24869e-16)
(32.8158 21.1969 1.45031e-15)
(34.3953 20.1968 7.55183e-16)
(35.8392 19.0126 -2.99582e-15)
(37.128 17.6658 2.00449e-15)
(38.2345 16.1965 6.3994e-16)
(39.1312 14.6554 -1.34229e-15)
(39.808 13.0824 5.86729e-16)
(40.2723 11.5069 1.44959e-16)
(40.5419 9.94918 -5.46235e-16)
(40.6419 8.40667 2.87148e-15)
(40.5818 6.84806 1.30936e-16)
(40.3345 5.25441 2.35831e-15)
(39.8535 3.68855 -5.06623e-16)
(39.1403 2.26996 2.25456e-16)
(38.2855 1.07371 7.259e-17)
(37.4044 0.0775306 -2.38014e-17)
(36.5569 -0.784189 -1.27601e-15)
(35.7528 -1.54792 -1.03619e-15)
(35.0018 -2.22196 1.14665e-16)
(34.3251 -2.81041 3.68259e-15)
(33.7083 -3.31772 4.62474e-15)
(33.0178 -3.7375 2.34711e-15)
(31.917 -4.03424 -2.57507e-15)
(30.0274 -4.13068 -3.4085e-15)
(27.0855 -3.96946 -4.23839e-15)
(23.5147 -3.38249 -3.56887e-17)
(17.5863 -2.71555 1.02099e-15)
(13.107 16.5373 -3.71969e-17)
(12.3658 15.4125 -2.64401e-17)
(11.6863 14.0812 8.90662e-17)
(11.0782 12.5766 -2.3148e-16)
(10.6439 10.9599 -5.55106e-16)
(10.3998 9.24924 1.10165e-15)
(10.3731 7.50045 -9.85789e-16)
(10.565 5.80024 -8.66032e-16)
(10.97 4.21086 -9.55913e-16)
(11.5676 2.77134 -9.56745e-16)
(12.312 1.51466 1.47027e-15)
(13.1561 0.457924 -7.14325e-16)
(14.0632 -0.407319 7.96172e-16)
(15.0015 -1.09766 1.52569e-16)
(15.9448 -1.62888 -2.39964e-16)
(16.8761 -2.02226 -6.69027e-16)
(17.7841 -2.29774 -5.29003e-16)
(18.6626 -2.4736 2.90904e-16)
(19.5107 -2.5645 -1.295e-16)
(20.3309 -2.58035 -3.94689e-16)
(21.1258 -2.52568 -3.48832e-16)
(21.8965 -2.39963 -2.48031e-16)
(22.6396 -2.19654 3.10341e-16)
(23.3416 -1.90895 -1.02688e-16)
(23.976 -1.54125 -2.94851e-16)
(24.5207 -1.11879 3.28832e-16)
(24.9729 -0.664947 2.2053e-17)
(25.3387 -0.192135 2.18079e-18)
(25.6212 0.290654 4.27169e-18)
(25.8221 0.772906 -2.63218e-17)
(25.9446 1.24529 -4.03417e-18)
(25.9937 1.69805 1.21843e-17)
(25.9732 2.1213 -5.33016e-18)
(25.886 2.509 -2.12543e-17)
(25.7266 2.85953 8.90375e-17)
(25.4952 3.16966 6.63891e-16)
(25.1127 3.44509 -2.52929e-15)
(24.6512 3.59202 -3.30229e-15)
(23.4322 3.62886 1.0939e-15)
(15.126 16.5488 -1.16272e-17)
(15.9878 17.4621 -1.86916e-18)
(17.0228 18.3825 6.67046e-18)
(18.1971 19.2554 -1.86415e-17)
(19.4723 20.0154 1.12629e-16)
(20.8835 20.6689 -4.39022e-17)
(22.3939 21.1827 -8.03832e-17)
(23.9715 21.5276 1.85445e-16)
(25.6038 21.6924 2.47814e-16)
(27.2583 21.6654 -2.20575e-16)
(28.9065 21.4396 9.56543e-16)
(30.5242 21.0144 -5.0175e-16)
(32.0811 20.395 -1.36e-15)
(33.5503 19.5908 -2.40324e-15)
(34.9081 18.6158 3.53196e-15)
(36.1303 17.4895 -1.60154e-15)
(37.1973 16.2326 -2.14396e-15)
(38.101 14.8547 -1.32561e-15)
(38.8328 13.3786 -9.82807e-16)
(39.3888 11.837 -1.41185e-16)
(39.7732 10.2617 -4.84036e-16)
(39.9943 8.67759 -3.32028e-15)
(40.0493 7.0858 1.34626e-15)
(39.9016 5.48713 -3.70711e-15)
(39.5024 3.934 2.97396e-16)
(38.8533 2.52211 3.1957e-16)
(38.0327 1.31653 -8.14517e-17)
(37.1405 0.303381 2.69817e-16)
(36.2277 -0.57279 8.39609e-16)
(35.2967 -1.34513 1.56476e-16)
(34.348 -2.02016 1.09726e-16)
(33.4076 -2.6013 -3.16469e-15)
(32.5183 -3.09387 5.19997e-15)
(31.7348 -3.50196 1.7781e-15)
(31.0438 -3.82244 3.24446e-15)
(30.2505 -4.0196 6.90822e-15)
(28.613 -4.00905 1.10088e-15)
(25.8267 -3.5113 -6.53493e-17)
(20.1992 -2.92674 6.55625e-16)
(14.3842 15.6041 -1.29042e-19)
(13.7103 14.6028 1.01005e-16)
(13.0802 13.4155 -1.04689e-16)
(12.5035 12.0726 5.51489e-16)
(12.0723 10.6325 -2.65677e-16)
(11.7992 9.10515 1.17448e-16)
(11.7086 7.53193 1.17133e-15)
(11.8082 5.9915 8.6798e-16)
(12.0949 4.54409 3.71309e-16)
(12.5512 3.21773 -9.53261e-16)
(13.1431 2.03949 -4.59996e-16)
(13.8347 1.0267 7.47808e-16)
(14.5984 0.174653 8.08999e-17)
(15.4082 -0.527093 -3.10981e-17)
(16.2413 -1.08791 -5.43319e-16)
(17.0816 -1.5228 4.44808e-16)
(17.917 -1.84614 9.94305e-16)
(18.7388 -2.07162 -5.59126e-16)
(19.5429 -2.2108 -6.36316e-17)
(20.3283 -2.27219 -5.74034e-16)
(21.0948 -2.25986 -2.90159e-16)
(21.8412 -2.17372 3.04527e-16)
(22.563 -2.00985 -7.26881e-16)
(23.2473 -1.76355 2.5132e-16)
(23.8711 -1.43906 3.35625e-16)
(24.413 -1.05726 -1.13912e-16)
(24.8678 -0.640084 -9.69847e-17)
(25.2388 -0.200987 -1.88851e-17)
(25.5287 0.249875 -1.36538e-18)
(25.7384 0.701302 1.91786e-18)
(25.8707 1.14251 -3.97887e-17)
(25.9299 1.56551 6.92563e-17)
(25.9194 1.96678 -7.03302e-18)
(25.8416 2.34277 6.28728e-17)
(25.6906 2.69199 7.57968e-17)
(25.4658 3.01 -6.03743e-16)
(25.0932 3.29801 1.83113e-15)
(24.6336 3.46062 1.91085e-16)
(23.507 3.50385 5.68756e-15)
(16.1811 15.6301 -8.41412e-20)
(16.9712 16.454 2.65046e-18)
(17.9185 17.288 3.24442e-18)
(18.9894 18.0805 -2.42526e-20)
(20.1454 18.7727 -2.47371e-17)
(21.4244 19.3745 -2.15862e-16)
(22.7932 19.8552 1.41783e-17)
(24.224 20.1888 2.33106e-16)
(25.7098 20.3651 -5.68747e-16)
(27.2239 20.3716 -3.21246e-16)
(28.743 20.1994 6.41869e-17)
(30.2479 19.8448 7.71963e-16)
(31.7123 19.3076 2.19739e-15)
(33.1121 18.5915 3.13011e-15)
(34.4238 17.705 8.84889e-17)
(35.6237 16.6608 -1.8717e-16)
(36.6918 15.4746 2.7381e-15)
(37.6062 14.1756 2.37461e-15)
(38.3495 12.7987 -1.23532e-17)
(38.9157 11.3729 -2.36038e-15)
(39.309 9.92161 8.0324e-16)
(39.5395 8.45726 9.71268e-16)
(39.6107 6.97794 -1.75637e-16)
(39.4996 5.48377 1.4421e-15)
(39.1654 4.01665 -8.03172e-16)
(38.6007 2.65882 -3.80362e-16)
(37.8634 1.47444 -1.27434e-17)
(37.0371 0.463101 -4.18376e-16)
(36.1682 -0.416957 -1.34401e-16)
(35.2569 -1.19365 -2.57438e-15)
(34.2935 -1.8716 1.12645e-15)
(33.2802 -2.45123 -2.59919e-15)
(32.2293 -2.93482 -5.86781e-15)
(31.1766 -3.32376 3.09844e-16)
(30.1756 -3.61551 -1.90163e-15)
(29.363 -3.79842 -7.48861e-15)
(28.5116 -3.85053 1.75602e-15)
(27.1015 -3.48932 2.3146e-16)
(22.4591 -3.06401 1.84015e-15)
(15.4962 14.7795 -1.63315e-17)
(14.8723 13.8815 -5.80599e-17)
(14.2801 12.8146 1.06079e-16)
(13.7294 11.606 -4.32542e-16)
(13.3038 10.3122 -3.24749e-18)
(13.0122 8.93644 -1.87337e-16)
(12.8777 7.51078 -1.97369e-15)
(12.9102 6.10875 7.97204e-16)
(13.1078 4.78673 -1.15076e-16)
(13.4557 3.5644 1.03493e-15)
(13.9273 2.46473 -5.72735e-16)
(14.4945 1.50397 5.34913e-16)
(15.1364 0.678763 -7.77639e-16)
(15.8324 -0.017802 -5.96443e-16)
(16.5638 -0.590719 3.09771e-16)
(17.3166 -1.05027 3.35088e-16)
(18.0792 -1.40591 3.36385e-16)
(18.8419 -1.66699 1.97804e-16)
(19.5988 -1.84199 -2.32215e-16)
(20.3464 -1.93771 9.28466e-16)
(21.082 -1.95754 -2.70925e-16)
(21.8025 -1.90187 4.35139e-16)
(22.5021 -1.76799 4.53152e-16)
(23.1685 -1.55316 -1.63634e-18)
(23.7807 -1.26128 -8.82301e-17)
(24.3185 -0.909125 -6.98862e-17)
(24.7743 -0.516709 1.51978e-17)
(25.1494 -0.0976415 1.9907e-17)
(25.4452 0.337754 6.4967e-18)
(25.6623 0.77852 1.16112e-17)
(25.8025 1.21415 2.72328e-17)
(25.8696 1.63647 -1.33575e-16)
(25.8665 2.03744 -6.92465e-17)
(25.7954 2.41089 1.23341e-17)
(25.6506 2.7534 -1.52753e-16)
(25.4315 3.05764 6.69001e-16)
(25.0689 3.32356 -6.18597e-16)
(24.6199 3.44653 2.69391e-16)
(23.5732 3.43478 -3.06727e-16)
(17.092 14.8185 -1.39054e-17)
(17.8198 15.5666 -2.59223e-17)
(18.6912 16.3267 1.07596e-17)
(19.6724 17.0509 7.9629e-18)
(20.7254 17.6847 3.54152e-17)
(21.8889 18.2416 1.00262e-16)
(23.1323 18.6936 2.39849e-16)
(24.4307 19.0176 2.61563e-16)
(25.7811 19.2057 -2.56598e-16)
(27.1606 19.246 -6.08936e-17)
(28.5503 19.1295 -1.19092e-16)
(29.9357 18.8513 -1.95503e-15)
(31.2939 18.4089 5.00943e-16)
(32.6035 17.8032 -2.03104e-15)
(33.843 17.039 -5.43463e-16)
(34.9895 16.1255 6.6509e-16)
(36.0214 15.0776 -1.84187e-15)
(36.9205 13.9116 -1.00427e-15)
(37.6729 12.6453 -4.81741e-16)
(38.2688 11.3018 1.56115e-15)
(38.7052 9.90596 1.18432e-16)
(38.9827 8.47921 7.15981e-16)
(39.0988 7.03338 1.35563e-15)
(39.0352 5.58003 -2.75669e-16)
(38.7618 4.15663 -8.16396e-18)
(38.2724 2.82943 1.17784e-15)
(37.6131 1.65479 2.1801e-16)
(36.8565 0.63926 -4.35622e-17)
(36.0477 -0.248909 2.89498e-16)
(35.1917 -1.03419 -2.60716e-16)
(34.2798 -1.72117 -2.97175e-15)
(33.3083 -2.30931 5.58476e-15)
(32.2727 -2.79894 -5.9036e-15)
(31.172 -3.18749 -6.15475e-15)
(30.0014 -3.46794 5.72607e-15)
(28.8608 -3.62208 2.75741e-15)
(27.8182 -3.64094 -1.48843e-15)
(27.2408 -3.33309 -7.50132e-16)
(23.9942 -3.08603 -1.38427e-15)
(16.4572 14.047 8.58816e-18)
(15.8772 13.2354 1.22478e-16)
(15.3195 12.2693 -4.23372e-17)
(14.7937 11.1734 -4.67408e-16)
(14.377 10.0025 -2.84567e-16)
(14.0746 8.75419 -6.76243e-16)
(13.9097 7.45425 -1.69556e-16)
(13.893 6.17268 8.67461e-16)
(14.0228 4.96121 6.5797e-16)
(14.2868 3.83394 -1.89512e-16)
(14.6632 2.81024 1.58731e-15)
(15.1291 1.90502 -3.9737e-17)
(15.6684 1.115 1.16168e-15)
(16.2652 0.434969 4.70272e-16)
(16.9043 -0.137875 -4.24344e-16)
(17.5745 -0.610408 3.84454e-17)
(18.2653 -0.988552 -8.82597e-16)
(18.9675 -1.27822 5.82578e-17)
(19.6743 -1.48498 5.13061e-16)
(20.3804 -1.61354 2.18539e-17)
(21.0816 -1.66631 3.50095e-16)
(21.773 -1.6435 -4.41217e-16)
(22.448 -1.54304 -2.83698e-16)
(23.0945 -1.36342 -5.06038e-16)
(23.693 -1.10818 -3.142e-16)
(24.2244 -0.791117 -2.01571e-17)
(24.6795 -0.430239 -8.7778e-17)
(25.0575 -0.0392386 -1.65342e-18)
(25.3586 0.371192 -6.41281e-18)
(25.5828 0.789914 -1.57508e-18)
(25.7314 1.20604 3.22476e-17)
(25.8073 1.61032 -1.69269e-17)
(25.8132 1.99637 1.37201e-16)
(25.7507 2.35839 -3.07082e-16)
(25.6141 2.69277 3.53072e-17)
(25.4024 2.99154 -2.03475e-17)
(25.0508 3.25235 3.23052e-16)
(24.614 3.37065 3.29522e-16)
(23.6447 3.34528 -4.17608e-16)
(17.8937 14.0912 -4.02588e-18)
(18.5696 14.7733 -5.33024e-19)
(19.3778 15.4682 1.84315e-17)
(20.2845 16.1308 -1.85442e-17)
(21.2523 16.711 -1.01335e-17)
(22.3201 17.2238 -3.78522e-17)
(23.4591 17.6438 -3.68679e-16)
(24.6465 17.9508 6.43802e-17)
(25.8825 18.1382 -1.83957e-16)
(27.1473 18.195 4.30695e-16)
(28.4256 18.1124 -4.37962e-16)
(29.7065 17.8848 1.2419e-15)
(30.9706 17.5078 -8.76461e-17)
(32.1998 16.9793 -7.44272e-17)
(33.3749 16.3009 -3.71659e-16)
(34.4741 15.4781 -1.7404e-16)
(35.4768 14.5205 6.47277e-16)
(36.3643 13.4418 1.31187e-15)
(37.1184 12.2638 1.34599e-15)
(37.7259 11.01 8.89737e-16)
(38.1807 9.70205 7.01021e-16)
(38.481 8.35772 1.44252e-16)
(38.6226 6.98884 -9.14289e-16)
(38.591 5.60855 -2.11056e-17)
(38.3631 4.24946 5.91357e-16)
(37.9328 2.96729 -8.82388e-16)
(37.3361 1.81421 -1.8921e-16)
(36.6347 0.803874 -1.52097e-16)
(35.8723 -0.0856075 -2.95497e-16)
(35.0589 -0.874616 2.57484e-15)
(34.1909 -1.56728 2.43442e-15)
(33.2672 -2.16264 -1.32601e-15)
(32.2844 -2.66028 2.40783e-15)
(31.2348 -3.05637 -8.72776e-16)
(30.0873 -3.34104 -2.96969e-15)
(28.8611 -3.48971 -1.28676e-15)
(27.4794 -3.4813 1.41181e-15)
(26.8409 -3.13425 2.41801e-16)
(24.7095 -2.99186 -1.67653e-15)
(17.3011 13.388 5.85689e-17)
(16.7584 12.6504 1.77767e-16)
(16.2305 11.7708 -3.80316e-16)
(15.7276 10.7713 -7.78312e-16)
(15.3211 9.70495 -7.70836e-16)
(15.0134 8.56545 2.17222e-15)
(14.8272 7.3741 1.1628e-15)
(14.7742 6.19807 4.17618e-16)
(14.8522 5.08429 -1.73148e-15)
(15.0507 4.04306 -9.84641e-16)
(15.3511 3.09118 -1.78508e-15)
(15.7345 2.24199 -1.6413e-15)
(16.188 1.49164 -3.74854e-16)
(16.699 0.835591 2.54171e-16)
(17.2557 0.27236 -2.68288e-16)
(17.8493 -0.20306 -3.42987e-16)
(18.4712 -0.593912 3.70837e-16)
(19.1132 -0.9035 -4.94488e-16)
(19.7685 -1.13492 5.42373e-17)
(20.431 -1.29075 1.94443e-16)
(21.0953 -1.372 3.94613e-16)
(21.7555 -1.37847 -1.7873e-16)
(22.4043 -1.30836 -1.00076e-16)
(23.0295 -1.16064 -8.19018e-17)
(23.613 -0.93857 2.49206e-16)
(24.1362 -0.653445 -1.22824e-17)
(24.5889 -0.321094 5.51071e-17)
(24.9683 0.0451385 -7.82639e-18)
(25.2736 0.434418 -4.21915e-18)
(25.504 0.835718 -1.34086e-17)
(25.66 1.23805 -3.69257e-17)
(25.744 1.63212 -1.09995e-16)
(25.7579 2.01011 1.97084e-17)
(25.7033 2.36482 3.07478e-16)
(25.5744 2.69147 3.59924e-16)
(25.37 2.98012 2.61479e-16)
(25.0303 3.22632 2.11286e-15)
(24.6075 3.32285 -2.56791e-15)
(23.7158 3.26761 2.0038e-15)
(18.602 13.4344 1.5626e-17)
(19.2328 14.0589 1.4083e-17)
(19.986 14.6962 -3.90004e-18)
(20.8284 15.3042 1.82328e-17)
(21.7226 15.8363 -9.97006e-17)
(22.7075 16.3087 1.14633e-17)
(23.7558 16.6984 1.3422e-16)
(24.8465 16.9875 2.05395e-16)
(25.9813 17.1706 1.49206e-16)
(27.143 17.2381 -5.44213e-16)
(28.3194 17.1823 9.31877e-17)
(29.5025 16.9969 -4.15464e-16)
(30.6759 16.6771 -1.1869e-16)
(31.8242 16.2194 -3.57419e-16)
(32.9306 15.6232 2.72898e-16)
(33.9755 14.8911 4.69106e-16)
(34.9391 14.0299 -1.07514e-16)
(35.8026 13.051 -1.43305e-15)
(36.549 11.9684 -7.87206e-16)
(37.1639 10.8002 -8.68548e-16)
(37.6375 9.56616 -3.23443e-16)
(37.9639 8.28558 -6.80549e-16)
(38.136 6.97509 -1.1802e-16)
(38.1407 5.65238 1.08223e-15)
(37.9594 4.34723 2.51981e-17)
(37.5864 3.10563 5.5343e-16)
(37.0495 1.97384 1.05277e-16)
(36.4003 0.969771 5.01916e-16)
(35.6796 0.0798367 5.17452e-16)
(34.9009 -0.71203 -2.95579e-15)
(34.0646 -1.40919 -1.00169e-15)
(33.1727 -2.01016 -4.8641e-15)
(32.2258 -2.51406 5.10364e-15)
(31.222 -2.91687 3.60261e-16)
(30.1336 -3.20865 2.39379e-15)
(28.9715 -3.36169 -7.59474e-16)
(27.5275 -3.35893 -1.86249e-15)
(26.5199 -2.96193 1.02271e-16)
(24.8899 -2.82141 7.50066e-16)
(18.0462 12.7909 6.70281e-17)
(17.5363 12.117 -2.01081e-16)
(17.0354 11.3122 -7.60509e-18)
(16.5537 10.3963 4.40556e-16)
(16.1583 9.42034 -8.76408e-16)
(15.8493 8.37469 -1.40182e-15)
(15.6486 7.27837 -9.12319e-16)
(15.5685 6.19528 1.09957e-15)
(15.6066 5.16821 1.53287e-15)
(15.7535 4.20479 2.4298e-16)
(15.9932 3.31985 1.0655e-15)
(16.3092 2.52544 1.00162e-15)
(16.6908 1.8169 -6.01253e-16)
(17.1282 1.1896 4.02763e-16)
(17.612 0.642666 -1.04194e-16)
(18.1358 0.172245 6.91641e-16)
(18.6928 -0.223571 -4.24361e-16)
(19.2761 -0.546007 -6.92004e-16)
(19.8796 -0.796092 -2.40624e-16)
(20.4971 -0.974685 -5.7892e-16)
(21.1226 -1.08154 -5.11065e-16)
(21.7496 -1.11567 -4.51935e-16)
(22.3702 -1.07503 8.4076e-16)
(22.9727 -0.958775 5.19925e-16)
(23.5394 -0.769734 8.38067e-17)
(24.0525 -0.517062 2.83309e-16)
(24.501 -0.21462 4.79249e-17)
(24.8805 0.124805 1.29555e-17)
(25.1889 0.490329 -1.42031e-18)
(25.4248 0.870959 -2.48227e-18)
(25.588 1.25568 2.46031e-17)
(25.68 1.63465 -3.66536e-18)
(25.7024 2.00006 7.06665e-17)
(25.656 2.34447 1.53428e-16)
(25.5354 2.66244 -6.54161e-16)
(25.339 2.9429 2.71229e-17)
(25.012 3.17916 -2.46667e-15)
(24.6034 3.26445 4.19387e-15)
(23.7857 3.1913 2.17688e-15)
(19.2324 12.8368 -1.08267e-17)
(19.8238 13.4104 1.20226e-17)
(20.5292 13.9965 -1.90863e-17)
(21.3156 14.5552 -1.78513e-17)
(22.1463 15.0435 1.25256e-17)
(23.0596 15.4782 3.23903e-17)
(24.0293 15.8385 -1.42086e-16)
(25.0358 16.1081 -5.85431e-17)
(26.0821 16.283 4.40915e-16)
(27.153 16.3549 2.35757e-16)
(28.2386 16.3168 3.45867e-16)
(29.3331 16.1627 -1.82815e-16)
(30.4229 15.8875 -7.21883e-16)
(31.4954 15.4864 1.57359e-15)
(32.536 14.9573 -6.4821e-16)
(33.527 14.3005 -6.7733e-16)
(34.4503 13.5201 -4.44163e-16)
(35.2876 12.6239 1.29946e-15)
(36.022 11.6238 1.55938e-15)
(36.6372 10.5366 4.32999e-16)
(37.1209 9.38003 -1.81422e-15)
(37.4649 8.17217 4.03272e-16)
(37.6608 6.92995 -8.19247e-17)
(37.6967 5.67216 3.34776e-16)
(37.5576 4.42583 -1.5491e-16)
(37.2377 3.22938 1.15633e-16)
(36.7577 2.12403 4.62449e-17)
(36.1601 1.13097 -2.69161e-16)
(35.4816 0.244122 4.48819e-16)
(34.7375 -0.548193 1.91511e-15)
(33.9306 -1.24805 4.62678e-17)
(33.0643 -1.85314 5.01019e-15)
(32.1412 -2.36178 2.12929e-15)
(31.1636 -2.76935 -2.36907e-15)
(30.1115 -3.06665 -3.31319e-15)
(29.0096 -3.2228 -1.18242e-15)
(27.6675 -3.23537 -1.2206e-15)
(26.4495 -2.82395 -8.6977e-17)
(24.9076 -2.62524 1.60426e-15)
(18.709 12.2457 -4.74162e-17)
(18.2281 11.6278 -2.57534e-17)
(17.7516 10.8884 1.74115e-16)
(17.2898 10.0457 -4.61998e-17)
(16.9057 9.14857 5.41004e-16)
(16.5983 8.18509 9.23383e-16)
(16.388 7.1726 7.09304e-17)
(16.2877 6.17189 6.52128e-16)
(16.295 5.22205 -1.92881e-15)
(16.4012 4.32917 -1.29104e-15)
(16.5919 3.50624 8.64184e-16)
(16.8526 2.76411 1.26295e-15)
(17.1742 2.09757 -6.53877e-16)
(17.5487 1.50182 -9.16206e-17)
(17.9686 0.97595 -5.29755e-17)
(18.4293 0.516375 -1.73189e-16)
(18.9261 0.122109 6.3676e-16)
(19.4533 -0.20679 8.75206e-16)
(20.0057 -0.469866 8.1842e-17)
(20.5777 -0.666452 6.24474e-16)
(21.1632 -0.795056 2.15945e-16)
(21.7554 -0.853851 3.37313e-16)
(22.3465 -0.840447 -5.25735e-16)
(22.9247 -0.753719 -4.34936e-17)
(23.4732 -0.595841 -2.67163e-16)
(23.9744 -0.374251 -3.05665e-16)
(24.4169 -0.100854 -1.14821e-16)
(24.795 0.21236 2.83432e-17)
(25.1054 0.554641 9.4149e-18)
(25.3459 0.915208 6.14711e-18)
(25.5155 1.28308 1.27245e-18)
(25.6151 1.64824 -3.6565e-17)
(25.6455 2.00233 1.05062e-17)
(25.6073 2.33703 -2.56221e-16)
(25.495 2.64593 1.71432e-17)
(25.307 2.91656 -5.99589e-16)
(24.9936 3.14018 1.60287e-15)
(24.6007 3.21114 -2.35904e-15)
(23.854 3.11934 -4.08615e-15)
(19.7963 12.2897 1.0247e-17)
(20.3529 12.8179 -1.83009e-17)
(21.0159 13.358 -5.3578e-17)
(21.7528 13.8724 9.37711e-18)
(22.5277 14.3211 -3.23887e-18)
(23.3781 14.721 -9.54718e-17)
(24.2786 15.0533 1.93475e-16)
(25.2109 15.3034 -3.20931e-16)
(26.1789 15.4684 1.02748e-15)
(27.1688 15.5411 4.27986e-16)
(28.1724 15.5152 -8.81961e-16)
(29.1861 15.3855 -6.09153e-17)
(30.1982 15.1466 1.12505e-15)
(31.1985 14.7937 -5.35081e-16)