/*--------------------------------*- C++ -*----------------------------------*\
| =========                 |                                                 |
| \\      /  F ield         | OpenFOAM: The Open Source CFD Toolbox           |
|  \\    /   O peration     | Version:  2306                                  |
|   \\  /    A nd           | Website:  www.openfoam.com                      |
|    \\/     M anipulation  |                                                 |
\*---------------------------------------------------------------------------*/
FoamFile
{
    version     2.0;
    format      ascii;
    arch        "LSB;label=32;scalar=64";
    class       volSymmTensorField;
    location    "925";
    object      turbulenceProperties:R;
}
// * * * * * * * * * * * * * * * * * * * * * * * * * * * * * * * * * * * * * //

dimensions      [0 2 -2 0 0 0 0];

internalField   nonuniform List<symmTensor> 
1340
(
(0.0144987 0.00306874 -6.84736e-22 0.0120404 -1.6136e-20 0.0134172)
(0.0172866 0.00364567 -9.29455e-23 0.0136447 1.04863e-19 0.0155754)
(0.0210786 0.00423414 -2.14382e-20 0.0153257 -3.37288e-19 0.0184316)
(0.0262504 0.00499593 9.57184e-20 0.0176186 7.06455e-19 0.0222311)
(0.0326216 0.00571449 -1.87824e-19 0.0200522 -6.93568e-19 0.0266719)
(0.0409538 0.00622485 -1.47709e-19 0.0227818 -3.86292e-19 0.0323711)
(0.051733 0.00649515 2.87122e-19 0.0261171 1.10314e-18 0.0395674)
(0.0651914 0.00618101 -7.49144e-19 0.0300846 -2.03779e-18 0.0484255)
(0.0821902 0.0049164 -1.89717e-19 0.035131 5.55268e-19 0.0596894)
(0.10357 0.00243289 5.72955e-19 0.0419321 1.17571e-18 0.0740118)
(0.130614 -0.00179553 1.4945e-18 0.0513613 5.4652e-19 0.0925367)
(0.165468 -0.00835549 -3.39844e-18 0.0647917 -3.1563e-18 0.117021)
(0.211089 -0.0181758 6.49696e-19 0.0840949 8.38586e-19 0.1499)
(0.272353 -0.032849 2.6147e-18 0.112291 1.23916e-18 0.195176)
(0.357552 -0.0550344 -3.9951e-18 0.154536 -6.24079e-18 0.259668)
(0.479504 -0.0890629 -4.30058e-18 0.21919 -2.54666e-18 0.354038)
(0.663284 -0.143543 1.90117e-17 0.322813 1.76039e-17 0.499441)
(0.940194 -0.230775 1.7732e-17 0.488981 3.35505e-17 0.723345)
(1.41739 -0.38714 -3.52287e-17 0.789747 -5.4608e-17 1.11643)
(2.14082 -0.639985 -1.3741e-18 1.27813 1.45139e-17 1.72768)
(3.75092 -1.21248 -2.71842e-17 2.39982 5.19718e-17 3.10442)
(6.1008 -2.11286 -1.24333e-17 4.18504 4.18528e-17 5.18206)
(13.8357 -5.12734 -1.43102e-16 10.2534 -6.41739e-16 12.1227)
(25.99 -10.3104 3.31416e-16 21.0502 5.58831e-16 23.6453)
(27.6402 -11.6476 4.23682e-17 24.5421 -7.122e-16 26.153)
(25.5086 -11.2297 3.65793e-16 24.4663 5.81104e-16 24.9705)
(24.403 -11.0456 -8.18234e-17 24.7239 -7.84335e-17 24.5188)
(24.3318 -11.228 2.74499e-16 25.6862 2.30547e-16 24.9718)
(24.416 -11.4414 7.28976e-16 26.705 1.20839e-15 25.5358)
(24.1219 -11.4542 4.00526e-16 27.2738 1.99741e-15 25.6853)
(23.3962 -11.2402 -1.41141e-15 27.3103 -1.93127e-15 25.3558)
(22.3241 -10.834 -4.749e-16 26.8608 -7.26081e-16 24.6082)
(20.881 -10.2205 -3.22226e-17 25.8532 -4.36776e-15 23.3895)
(19.0958 -9.41361 -2.58303e-15 24.2905 -7.29921e-15 21.7163)
(16.9507 -8.40525 1.00622e-15 22.1147 9.23141e-16 19.554)
(0.0120301 0.00257345 1.65925e-21 0.0106522 3.85337e-20 0.0113951)
(0.0101308 0.00212441 -2.3732e-21 0.00934047 1.70747e-23 0.00982536)
(0.00808313 0.00164666 -1.2339e-20 0.00782729 -8.64903e-20 0.00799973)
(0.00638588 0.00123967 2.95485e-21 0.00644522 5.55273e-20 0.00644592)
(0.0048637 0.000879183 2.15764e-21 0.00505102 -1.00497e-20 0.00497246)
(0.00355262 0.00058671 -1.7019e-20 0.00372634 5.57116e-20 0.00363918)
(0.00253013 0.000377466 -9.14019e-20 0.00261695 7.3565e-20 0.0025572)
(0.00226707 -0.000155249 4.14166e-23 0.00189643 1.34947e-21 0.00205172)
(0.00222406 -0.000181973 9.65227e-21 0.00191883 2.33896e-20 0.00203798)
(0.00215863 -0.000204454 -8.83521e-21 0.0019412 -1.55767e-20 0.00201037)
(0.00205931 -0.00021172 -5.88763e-21 0.0019265 -1.67695e-20 0.00194814)
(0.00192972 -0.000206755 3.91872e-20 0.00187662 7.60562e-20 0.00185481)
(0.00178982 -0.00019331 1.50776e-20 0.00180978 2.33914e-20 0.00174787)
(0.00164015 -0.000173016 7.08532e-20 0.00171467 6.50922e-20 0.00162238)
(0.00148395 -0.000149084 -3.63228e-20 0.00159447 -6.98999e-21 0.00148233)
(0.00133653 -0.000125537 5.11405e-20 0.001468 3.54371e-20 0.00134398)
(0.00119891 -0.000104531 -1.82196e-21 0.00133681 7.78023e-23 0.00120848)
(0.00107268 -8.69447e-05 -6.96685e-20 0.00120611 -5.95213e-20 0.00107993)
(0.000987018 -7.80233e-05 9.33782e-20 0.00111434 1.16246e-19 0.00098911)
(0.000976209 -8.37159e-05 6.53833e-20 0.0011064 3.28555e-20 0.000969182)
(0.00107581 -0.000114017 -1.70904e-20 0.00122304 9.26952e-21 0.00104863)
(0.00141246 -0.000214136 -1.40971e-19 0.00159267 2.32055e-20 0.00132274)
(0.00229543 -0.000517907 3.75388e-19 0.0024494 4.2957e-19 0.00199403)
(0.00462249 -0.00138353 7.64222e-19 0.00434266 -8.3567e-19 0.00368189)
(0.0101337 -0.00334586 -4.16577e-18 0.00824688 -5.39941e-18 0.00777203)
(0.0249994 -0.00841296 4.90648e-19 0.0184614 7.23856e-18 0.0193044)
(0.0614737 -0.0208006 7.24871e-18 0.0433968 -2.03583e-18 0.0486244)
(0.180181 -0.0619697 1.53478e-17 0.126116 6.08153e-18 0.146593)
(0.491198 -0.173843 -2.34511e-17 0.349965 -2.24569e-17 0.411301)
(1.47324 -0.542986 7.39101e-17 1.0924 1.86555e-16 1.27119)
(4.60646 -1.77735 1.5888e-19 3.60385 -1.54135e-16 4.10103)
(8.7939 -3.54007 -2.72826e-16 7.27491 1.69334e-16 8.06985)
(12.912 -5.3929 -9.71851e-17 11.2783 -6.59957e-16 12.1765)
(16.5569 -7.14959 1.17854e-18 15.2778 7.57043e-17 16.0249)
(18.8684 -8.39461 -2.94551e-16 18.3844 -4.44853e-16 18.7396)
(18.906 -8.63621 -4.93592e-16 19.4315 -2.83274e-15 19.2677)
(16.9089 -7.89723 -1.66919e-16 18.2821 -3.54621e-15 17.6574)
(14.0809 -6.69154 5.22849e-16 15.9349 4.89598e-15 15.0206)
(11.3785 -5.47758 -9.55117e-16 13.3929 -3.75597e-17 12.3585)
(9.25531 -4.49796 -7.1891e-15 11.2536 1.34196e-15 10.2098)
(7.67108 -3.75329 8.77194e-15 9.56218 1.59509e-14 8.57219)
(6.47987 -3.18628 -1.48861e-15 8.23143 -8.63752e-16 7.31964)
(0.00227291 -0.000117567 3.19295e-21 0.00184999 7.89803e-21 0.00203578)
(0.00226157 -7.76371e-05 -4.39124e-21 0.00180466 -3.31924e-20 0.00200878)
(0.00221 -2.67194e-05 -6.52089e-21 0.0017391 -3.88994e-20 0.00195513)
(0.00211612 3.07932e-05 -2.53059e-21 0.00166073 5.87262e-20 0.00187426)
(0.00197222 8.48926e-05 6.95056e-22 0.00156958 1.5678e-20 0.00176326)
(0.00177352 0.000127801 1.38547e-20 0.00146038 -5.32126e-20 0.00161494)
(0.00151784 -0.000120502 6.64822e-22 0.00125059 9.1976e-22 0.00139946)
(0.00147803 -0.000143657 -1.0533e-20 0.00126633 -2.55916e-20 0.00139063)
(0.00140943 -0.000159865 -2.32742e-21 0.00127072 -1.17245e-21 0.0013616)
(0.0013199 -0.000165123 8.82559e-21 0.00126219 1.90636e-20 0.00131711)
(0.00122892 -0.000160346 -2.79862e-20 0.00125142 -5.69224e-20 0.00126979)
(0.0011352 -0.000144947 -3.19398e-20 0.00123354 -5.23477e-20 0.00121757)
(0.00104698 -0.000120401 -6.49511e-20 0.00120871 -9.60033e-20 0.00116503)
(0.000973122 -9.03613e-05 -5.24979e-21 0.00118112 -7.80404e-22 0.00111757)
(0.000915121 -5.71726e-05 -2.87274e-20 0.00115183 -6.84139e-20 0.0010768)
(0.000875398 -2.41351e-05 1.20772e-19 0.00112359 1.37431e-19 0.00104541)
(0.000850746 6.5875e-06 -1.9884e-20 0.00109582 2.70454e-20 0.001021)
(0.000842033 3.35379e-05 1.36416e-20 0.00107453 8.39392e-21 0.00100686)
(0.00084681 5.6066e-05 -9.3999e-20 0.00106209 -1.19637e-19 0.00100264)
(0.000864163 7.53515e-05 6.1295e-20 0.00106206 -5.69031e-21 0.00101033)
(0.000877933 8.92146e-05 1.77983e-20 0.00105559 5.52319e-20 0.00101109)
(0.00086384 9.31462e-05 2.09353e-20 0.00101387 1.00477e-20 0.00097703)
(0.000771719 7.75919e-05 -8.22357e-20 0.00087661 -4.7896e-20 0.00085069)
(0.00067553 6.1648e-05 5.74967e-20 0.000747974 4.28598e-20 0.00072931)
(8.13411e-05 8.87201e-07 2.66208e-22 8.22772e-05 3.47803e-24 8.20169e-05)
(0.00356404 0.00156624 -2.00941e-18 0.00510509 -3.02316e-19 0.00462979)
(0.00155945 0.000450944 6.84259e-19 0.00198647 -2.68714e-19 0.00183852)
(0.00246684 0.00115689 6.44441e-20 0.00356105 1.1046e-18 0.00312852)
(0.000281183 0.000114757 4.44339e-19 0.000488371 -6.56243e-19 0.000374544)
(0.0178389 -0.00696 -3.39414e-18 0.0144617 -3.6264e-18 0.0156059)
(0.146367 -0.0585625 4.84668e-18 0.121865 1.71123e-17 0.131134)
(0.47688 -0.197338 -2.91435e-17 0.415445 7.96438e-18 0.439785)
(1.16222 -0.496146 1.48983e-17 1.06082 1.15694e-18 1.10239)
(2.5422 -1.11362 -1.43007e-17 2.42189 7.63541e-17 2.47122)
(4.90903 -2.1976 -4.39813e-16 4.86545 2.45929e-16 4.87708)
(7.94946 -3.62916 2.16831e-16 8.19238 3.53049e-16 8.06612)
(10.5631 -4.9125 1.56322e-15 11.3319 -5.86501e-16 10.9552)
(11.6754 -5.52283 -2.76435e-15 13.044 2.16184e-15 12.3813)
(11.1859 -5.36646 5.13863e-16 12.9808 9.32614e-15 12.1069)
(9.87463 -4.78687 -4.87133e-17 11.8322 -6.36733e-15 10.866)
(8.45582 -4.12822 3.05758e-15 10.3841 -2.3007e-15 9.42215)
(0.0015522 -9.11044e-05 -1.3629e-21 0.00123878 -2.59439e-21 0.00140939)
(0.00156568 -5.92718e-05 -5.15643e-21 0.0012237 -7.29603e-21 0.00140584)
(0.0015711 -2.04301e-05 2.13536e-20 0.00121257 4.60391e-20 0.00140042)
(0.00154388 2.08073e-05 4.37932e-21 0.00119225 -5.18724e-21 0.00137349)
(0.00148458 6.12863e-05 3.01556e-21 0.00116498 -3.39741e-20 0.00132791)
(0.00138226 9.45469e-05 -9.39707e-21 0.0011207 2.42904e-20 0.00125262)
(0.00128851 -9.76977e-05 3.60022e-21 0.00106031 6.15888e-21 0.00116908)
(0.00127314 -0.000115777 -5.01347e-21 0.00108091 -9.03767e-21 0.00117113)
(0.00124326 -0.000131401 -2.27991e-21 0.00110008 -1.25638e-21 0.00116414)
(0.00120671 -0.000141544 2.70848e-20 0.00111814 3.96382e-20 0.00115342)
(0.00115892 -0.000144743 1.72144e-20 0.00112689 3.12031e-20 0.0011322)
(0.00110138 -0.000141116 2.18408e-20 0.00112596 4.19419e-20 0.00110097)
(0.00103936 -0.000131397 3.33735e-20 0.00111479 3.86112e-20 0.00106236)
(0.000972773 -0.000116712 -1.9162e-20 0.00108966 -2.97579e-20 0.00101448)
(0.000904794 -9.88105e-05 -6.8608e-20 0.00105273 -6.79745e-20 0.000959838)
(0.000836921 -7.97129e-05 8.92102e-20 0.00100427 5.02401e-20 0.000899698)
(0.000769938 -6.08835e-05 7.51611e-20 0.000946101 6.36552e-20 0.000835245)
(0.000703905 -4.35106e-05 9.75092e-20 0.000879742 4.67116e-20 0.000767497)
(0.000638514 -2.83865e-05 -1.60978e-19 0.000806701 -5.15545e-20 0.000697222)
(0.000573918 -1.5832e-05 -1.37493e-19 0.000729256 -9.23612e-20 0.000625773)
(0.00050996 -5.80832e-06 1.82848e-19 0.000648868 5.75119e-20 0.000553671)
(0.000443541 2.89973e-06 3.71581e-20 0.000563203 2.28825e-20 0.00047883)
(0.000378384 1.0248e-05 -2.73211e-20 0.00047589 2.81988e-21 0.000405117)
(0.000320814 1.57418e-05 -8.42061e-20 0.000394945 -5.51684e-20 0.000339739)
(0.000249412 1.52631e-05 1.44625e-20 0.000291016 -5.54891e-21 0.000259732)
(0.000147589 6.47507e-06 2.21348e-20 0.000158867 6.82926e-21 0.000150576)
(3.60464e-10 3.65557e-17 -1.38586e-31 3.60464e-10 -3.98595e-32 3.60464e-10)
(0.000337063 2.9173e-05 4.4722e-20 0.000364699 6.38817e-21 0.000347056)
(0.000245509 1.37515e-05 -5.36822e-21 0.000255413 -1.16382e-21 0.000249347)
(0.00385792 0.00175791 -1.36522e-18 0.004705 6.69501e-19 0.0041696)
(0.0150644 0.00700659 3.89133e-18 0.0166618 -1.242e-18 0.0154172)
(0.0300112 0.0132355 -7.6934e-18 0.0295709 1.02127e-17 0.0288803)
(0.0437517 0.0178415 1.54087e-19 0.0378525 -3.5222e-19 0.0393451)
(0.00215819 0.000628148 8.41372e-19 0.00132169 -2.98822e-19 0.00162888)
(0.0287866 -0.0102657 6.30495e-18 0.0207938 1.59517e-17 0.0240339)
(0.252763 -0.108803 2.6935e-17 0.233937 -1.22284e-16 0.241472)
(1.06008 -0.47715 -6.6346e-17 1.06286 -3.95371e-16 1.05815)
(2.81366 -1.29832 2.07625e-15 2.96981 5.51305e-16 2.88765)
(5.15407 -2.42357 2.97024e-15 5.6819 6.72317e-16 5.41665)
(7.00352 -3.34391 -1.64332e-15 8.0284 -2.23411e-15 7.52106)
(7.70676 -3.72243 -7.33307e-15 9.13187 1.42197e-15 8.42824)
(0.00128954 -7.51058e-05 -5.52712e-21 0.00103296 -1.12538e-20 0.00115766)
(0.00127903 -5.12169e-05 -1.90128e-21 0.00100504 7.68434e-21 0.00113892)
(0.00125241 -2.16722e-05 1.83046e-20 0.000970773 3.49006e-20 0.00111007)
(0.00121286 9.52562e-06 -7.83637e-21 0.000937747 -4.40099e-22 0.00107456)
(0.00115581 3.99811e-05 6.828e-21 0.000903922 4.32682e-20 0.00102992)
(0.000964184 -7.43941e-05 -5.1339e-21 0.000794144 -7.64719e-21 0.00088088)
(0.000948036 -8.78633e-05 1.00848e-21 0.000806675 1.60685e-21 0.000879836)
(0.000922323 -9.91032e-05 6.11157e-21 0.000818488 6.63758e-21 0.000873156)
(0.000888686 -0.000105918 -3.75458e-20 0.000827165 -5.33656e-20 0.000861434)
(0.000847358 -0.000107502 -2.74899e-20 0.000830127 -3.2151e-20 0.000843039)
(0.000799173 -0.000103634 6.42542e-20 0.000826518 7.69153e-20 0.000817872)
(0.000747514 -9.45867e-05 -6.82382e-20 0.000815505 -8.4734e-20 0.000787526)
(0.00069433 -8.11871e-05 -3.08597e-20 0.000796209 -2.05295e-20 0.000752344)
(0.000641643 -6.4565e-05 -7.33983e-20 0.000769004 -5.49259e-20 0.000713452)
(0.000592379 -4.63118e-05 -1.36859e-20 0.000735704 -2.49033e-20 0.000673371)
(0.000547813 -2.77255e-05 9.19857e-21 0.000697763 -3.31922e-21 0.000633321)
(0.000509147 -1.00034e-05 -5.03839e-20 0.000657262 -6.68227e-20 0.000594941)
(0.00047737 5.89105e-06 1.64256e-19 0.000616748 1.12498e-19 0.000559947)
(0.000452672 1.93871e-05 -5.41627e-20 0.000578283 -9.47204e-21 0.000529346)
(0.000434922 3.04248e-05 -1.33058e-19 0.000543485 -5.81848e-20 0.000503894)
(0.000422119 3.85837e-05 8.84717e-20 0.000512422 1.77056e-21 0.000482214)
(0.00040834 4.36394e-05 -6.45547e-20 0.000480643 -3.72336e-20 0.000458849)
(0.000389438 4.58348e-05 8.8759e-22 0.000444138 4.74563e-20 0.000429996)
(0.000367961 4.6453e-05 -1.58554e-20 0.000407006 -1.24565e-20 0.000399332)
(0.000333215 4.27386e-05 -1.09822e-19 0.000357068 -7.58785e-20 0.00035472)
(0.000229429 2.22798e-05 4.66221e-20 0.000237076 4.52594e-20 0.000237433)
(7.47998e-05 2.44464e-06 1.27874e-22 7.53182e-05 -3.94258e-21 7.54077e-05)
(1.23803e-05 6.18358e-08 3.40013e-23 1.23882e-05 1.04032e-23 1.23904e-05)
(1.97479e-06 1.38613e-09 1.9381e-24 1.97481e-06 -8.68795e-26 1.9749e-06)
(0 0 -0 0 -0 0)
(0 0 0 0 0 0)
(0 0 -0 0 0 0)
(0.00142447 0.000425902 -6.76855e-20 0.00128232 -4.19139e-20 0.00135761)
(0.0170003 0.00694227 2.06005e-20 0.0143946 1.79018e-18 0.0157154)
(0.0567713 0.0226525 -6.59578e-17 0.0465052 5.44561e-18 0.0515708)
(0.01213 0.00458091 -5.80409e-18 0.00924647 9.70635e-19 0.0106518)
(0.0463434 0.0121057 2.79436e-17 0.025254 -1.63102e-16 0.0354556)
(0.241242 -0.0984457 5.75507e-16 0.20465 -7.06079e-16 0.221702)
(1.27466 -0.584539 -2.98371e-15 1.32802 1.59037e-16 1.29835)
(3.15413 -1.49016 4.83508e-15 3.52046 1.81657e-15 3.33458)
(0.000973466 -5.79984e-05 3.27632e-21 0.000780253 1.33925e-21 0.000878656)
(0.000975238 -4.04187e-05 -1.18514e-20 0.00076659 -1.70412e-20 0.000871922)
(0.000967264 -1.88376e-05 1.5134e-21 0.000749906 7.7116e-21 0.000859506)
(0.000946607 4.46413e-06 6.463e-21 0.000731287 -2.15633e-20 0.000839416)
(0.000911514 2.7723e-05 -5.25595e-20 0.000710673 -7.55782e-20 0.000811421)
(0.000790889 -6.10369e-05 4.49952e-21 0.000651711 5.22684e-21 0.000720668)
(0.000783252 -7.19175e-05 -1.13148e-20 0.000665456 -1.36e-20 0.000723782)
(0.000768841 -8.14804e-05 -9.13692e-22 0.000679511 -1.89064e-21 0.000723263)
(0.000750132 -8.80968e-05 -4.716e-21 0.00069316 -2.45939e-21 0.00072057)
(0.000725967 -9.09726e-05 3.73925e-20 0.000703296 4.30341e-20 0.000713342)
(0.000696862 -8.99693e-05 2.86742e-20 0.000709706 2.36586e-20 0.000701591)
(0.000664843 -8.51191e-05 3.64649e-22 0.00071121 1.1563e-20 0.000685969)
(0.000630415 -7.68323e-05 7.11428e-20 0.000706162 6.89332e-20 0.000665792)
(0.000594642 -6.58153e-05 -8.8855e-21 0.000694361 -1.18646e-21 0.000641438)
(0.000558768 -5.31294e-05 -2.4573e-20 0.000675782 -1.15384e-20 0.000613621)
(0.000523167 -3.97212e-05 4.82709e-20 0.000650568 1.8014e-20 0.000582542)
(0.000488366 -2.64975e-05 -6.49866e-20 0.000619627 -2.51869e-20 0.00054893)
(0.000454737 -1.42771e-05 -1.1472e-19 0.000584127 -8.96762e-20 0.000513598)
(0.000422333 -3.55649e-06 -4.79317e-20 0.000545257 1.23545e-20 0.000477153)
(0.000391158 5.36855e-06 2.069e-19 0.000504247 9.34419e-20 0.000440268)
(0.000359898 1.22824e-05 -1.49585e-19 0.000460629 -6.81805e-20 0.000402105)
(0.000326228 1.76143e-05 -3.59846e-20 0.000412331 3.12057e-20 0.000360968)
(0.000291867 2.13315e-05 6.73187e-20 0.000362139 4.38793e-20 0.000319049)
(0.000259813 2.36621e-05 -4.25508e-20 0.00031446 -3.45332e-22 0.000279947)
(0.000232202 2.49065e-05 -1.40457e-20 0.000272573 3.51655e-20 0.000246211)
(0.00021065 2.55482e-05 2.00089e-20 0.000238471 -1.2854e-20 0.000219522)
(0.000178785 2.14407e-05 -1.27357e-19 0.000192618 1.23285e-20 0.000182515)
(0.000130297 1.22184e-05 7.07093e-22 0.000133212 -1.18641e-20 0.000130536)
(2.5525e-05 4.72628e-07 -1.89147e-21 2.54612e-05 1.90274e-22 2.5466e-05)
(6.83433e-06 3.24665e-08 3.51346e-23 6.81979e-06 1.02926e-23 6.82595e-06)
(3.95979e-06 1.06101e-08 -3.70144e-24 3.95271e-06 -1.56082e-23 3.95593e-06)
(1.55332e-06 1.6131e-09 -1.19933e-25 1.5521e-06 -1.1243e-26 1.55266e-06)
(1.08702e-08 7.59706e-14 1.27092e-29 1.08701e-08 3.09986e-31 1.08701e-08)
(0 0 0 0 -0 0)
(0 0 0 0 0 0)
(0.00284692 0.00104936 -3.06531e-19 0.00219276 6.327e-19 0.00251099)
(0.0282708 0.0106433 -3.55176e-17 0.0214563 1.15389e-17 0.0247804)
(0.0052795 0.00192253 -1.02578e-17 0.00386824 -6.9136e-18 0.00456265)
(0.0741041 0.0235312 -9.23589e-17 0.0468436 1.02058e-16 0.0603462)
(0.164391 -0.0500089 6.4897e-16 0.100126 -7.43952e-16 0.131778)
(0.000792765 -4.80001e-05 -4.92777e-21 0.000636441 -7.21169e-21 0.000714459)
(0.000789482 -3.41682e-05 1.75312e-21 0.00062175 4.84247e-22 0.00070534)
(0.000779552 -1.72546e-05 4.69967e-21 0.000605173 4.77318e-21 0.000692443)
(0.000761697 1.01201e-06 -4.23465e-21 0.000588401 -1.96851e-20 0.000675065)
(0.000639183 -4.98186e-05 -2.21411e-21 0.000527373 -2.08502e-21 0.00058339)
(0.00063308 -5.84617e-05 6.33378e-23 0.000538446 -5.61297e-22 0.000586105)
(0.000622173 -6.61051e-05 1.57117e-20 0.000550204 1.71349e-20 0.00058648)
(0.000607744 -7.14359e-05 6.15398e-22 0.000561572 -3.30729e-22 0.00058509)
(0.000589316 -7.38853e-05 -5.41819e-20 0.000570599 -5.75496e-20 0.000580517)
(0.000566912 -7.32728e-05 1.24508e-20 0.000576816 1.46755e-20 0.000572506)
(0.000541867 -6.95307e-05 1.21534e-20 0.000579186 7.52735e-21 0.000561339)
(0.000514739 -6.29108e-05 -2.81429e-20 0.000576524 -4.09754e-20 0.000546647)
(0.000486226 -5.38534e-05 -4.20517e-20 0.000568421 -2.48123e-20 0.000528532)
(0.000457397 -4.31086e-05 1.59571e-20 0.00055476 2.10121e-20 0.000507553)
(0.000428834 -3.13952e-05 -9.55829e-20 0.000535709 -7.90979e-20 0.000484046)
(0.000401135 -1.94432e-05 6.36612e-20 0.000511857 4.05278e-20 0.000458604)
(0.000374895 -7.98438e-06 1.29394e-19 0.000484176 7.33449e-20 0.000432035)
(0.000350508 2.47435e-06 1.66813e-19 0.000453806 6.28616e-20 0.00040509)
(0.000328181 1.15396e-05 -2.23184e-19 0.000421812 -1.67166e-19 0.000378413)
(0.000308307 1.89992e-05 1.20117e-19 0.000389575 9.18379e-20 0.000352925)
(0.000291585 2.46462e-05 1.28574e-19 0.000359142 2.97146e-20 0.000329749)
(0.000276643 2.82844e-05 8.20754e-20 0.000330371 -1.78901e-20 0.00030793)
(0.000261062 2.999e-05 4.19507e-20 0.000301534 2.23745e-20 0.000285402)
(0.000243942 3.00315e-05 -5.50024e-21 0.000272474 3.07561e-20 0.00026175)
(0.000227236 2.92791e-05 4.24185e-20 0.000245877 -6.99657e-21 0.000239401)
(0.00021319 2.84669e-05 1.46082e-19 0.000223614 6.15115e-20 0.000220543)
(0.000197978 2.65448e-05 -6.1737e-20 0.000200201 -8.32091e-21 0.000200563)
(0.000167108 2.00485e-05 1.38632e-19 0.00016186 3.26699e-20 0.000165354)
(0.000116686 1.03052e-05 -1.36573e-20 0.000109608 5.32049e-22 0.000113537)
(7.20619e-05 4.12492e-06 -2.71134e-21 6.72009e-05 1.88698e-21 6.97726e-05)
(2.36848e-05 4.80827e-07 1.21929e-22 2.28766e-05 5.28102e-23 2.32968e-05)
(1.34744e-07 1.66148e-11 -1.94566e-26 1.34709e-07 8.26534e-27 1.34727e-07)
(2.32765e-06 5.10189e-09 -1.5913e-23 2.31645e-06 -9.09794e-24 2.32229e-06)
(2.73674e-07 7.30068e-11 -1.90102e-26 2.73526e-07 1.48493e-25 2.73603e-07)
(0 0 0 0 -0 0)
(0 0 0 0 0 0)
(0.00068977 0.000180068 -1.4201e-18 0.000504984 1.33404e-18 0.000597933)
(0.0226691 0.00780518 -1.6371e-17 0.0155042 1.00935e-17 0.019082)
(0.017203 0.00576843 -3.75317e-17 0.0114452 1.45832e-18 0.0143335)
(0.000641261 -3.95807e-05 7.01724e-22 0.000515588 2.30604e-21 0.000578728)
(0.000639596 -2.8712e-05 1.07061e-20 0.000504439 9.46092e-21 0.000572082)
(0.000633082 -1.5425e-05 -1.06858e-20 0.000491983 -3.84852e-21 0.000562747)
(0.00062013 -9.55768e-07 2.64168e-20 0.000479049 2.55193e-20 0.000549653)
(0.00052952 -4.1641e-05 -9.9124e-23 0.000437483 -2.88156e-22 0.000483398)
(0.000525891 -4.87229e-05 -6.95129e-22 0.000447646 -5.6892e-22 0.000486765)
(0.000518791 -5.50864e-05 -2.04959e-21 0.000458736 -1.82404e-21 0.000488655)
(0.000509194 -5.96903e-05 -1.13313e-20 0.000469902 -1.04507e-20 0.000489455)
(0.000496771 -6.20805e-05 1.40268e-20 0.000479658 1.56792e-20 0.000488101)
(0.000481442 -6.21175e-05 7.33362e-20 0.00048771 6.20524e-20 0.000484394)
(0.000464248 -5.97103e-05 -4.42357e-21 0.000493255 -1.20986e-20 0.000478533)
(0.000445452 -5.4997e-05 -3.2103e-20 0.000495208 -2.65645e-20 0.000470054)
(0.00042547 -4.82566e-05 8.48511e-20 0.000493164 7.80551e-20 0.000458941)
(0.00040504 -4.00251e-05 3.41582e-20 0.000486824 2.15905e-20 0.000445461)
(0.000384389 -3.08241e-05 -2.78237e-20 0.000475949 -4.74827e-21 0.000429565)
(0.000363879 -2.12083e-05 -1.03701e-19 0.000460787 -5.03436e-20 0.000411565)
(0.000343793 -1.17675e-05 -1.94567e-19 0.000441749 -1.48147e-19 0.000391823)
(0.000324236 -2.96069e-06 -2.24048e-19 0.000419389 -1.3384e-19 0.000370642)
(0.000305262 4.84012e-06 -1.26643e-20 0.000394398 5.11666e-20 0.000348401)
(0.000286928 1.13456e-05 1.11577e-20 0.000367625 -2.42148e-20 0.000325548)
(0.000268613 1.64039e-05 -1.68055e-19 0.000339114 -7.7153e-20 0.000301808)
(0.000249416 2.00388e-05 -1.0937e-19 0.000308421 -4.71133e-20 0.000276716)
(0.000230082 2.2335e-05 2.79042e-20 0.00027706 2.55607e-21 0.00025142)
(0.00021186 2.34383e-05 1.1617e-19 0.00024717 1.56315e-20 0.000227602)
(0.000195989 2.36448e-05 -4.88419e-20 0.000220654 -2.02325e-20 0.000206756)
(0.000183594 2.3342e-05 -3.05135e-20 0.00019896 -5.74885e-20 0.00019009)
(0.000175148 2.29035e-05 5.86926e-21 0.000182057 2.16813e-21 0.000177772)
(0.000169681 2.24218e-05 -5.60791e-20 0.000168095 -5.44072e-20 0.000168365)
(0.000158694 2.01057e-05 4.05228e-20 0.000148947 8.71097e-21 0.000153514)
(0.000138864 1.57333e-05 1.2839e-20 0.000123862 -9.19172e-21 0.000131126)
(0.000108872 9.9824e-06 4.70761e-22 9.40468e-05 -3.20195e-21 0.000101257)
(7.39711e-05 4.78313e-06 8.41269e-21 6.39021e-05 2.53808e-21 6.88274e-05)
(4.39544e-05 1.6879e-06 2.77236e-21 3.90245e-05 2.02197e-21 4.14577e-05)
(4.3518e-06 1.62529e-08 3.30485e-22 4.28431e-06 1.7643e-23 4.31782e-06)
(2.06518e-06 3.00735e-09 -3.74508e-23 2.04762e-06 4.27705e-23 2.05636e-06)
(7.66764e-08 4.05999e-12 1.40193e-25 7.66509e-08 -1.8902e-25 7.66636e-08)
(0 0 0 0 0 0)
(0 0 -0 0 0 0)
(0.00274237 0.000796451 5.05127e-18 0.00161265 -2.312e-18 0.00217773)
(0.000530056 -3.33572e-05 -1.83622e-21 0.000426906 -2.82426e-21 0.000478562)
(0.000527993 -2.45763e-05 -5.78025e-21 0.000417099 -4.04186e-21 0.000472505)
(0.000522468 -1.38758e-05 8.98247e-21 0.000406499 3.38167e-21 0.000464599)
(0.000512101 -2.16585e-06 -3.71993e-20 0.000395672 -2.71692e-20 0.000453895)
(0.000441363 -3.50944e-05 -3.49997e-21 0.000365244 -2.55667e-21 0.000403278)
(0.000438826 -4.09188e-05 -1.10347e-20 0.000374073 -9.90376e-21 0.00040652)
(0.000433697 -4.61852e-05 -2.54099e-21 0.000383869 -2.54933e-21 0.000408801)
(0.000426601 -5.00467e-05 3.78307e-20 0.000393827 3.32019e-20 0.000410276)
(0.000417442 -5.2147e-05 -2.52655e-20 0.000402869 -2.24208e-20 0.000410236)
(0.000406033 -5.23732e-05 -2.66126e-20 0.000410763 -2.77081e-20 0.000408472)
(0.000393127 -5.06212e-05 -6.54641e-20 0.000416793 -4.75121e-20 0.000405069)
(0.000378888 -4.69685e-05 -4.48006e-20 0.000420065 -3.12237e-20 0.000399623)
(0.000363605 -4.15963e-05 4.94259e-20 0.000420209 3.22449e-20 0.000392069)
(0.00034778 -3.48862e-05 1.36659e-20 0.000416826 -6.42504e-22 0.000382516)
(0.000331611 -2.72159e-05 2.13422e-20 0.000409682 2.40712e-20 0.000370908)
(0.000315374 -1.90065e-05 1.92543e-19 0.000398823 1.17134e-19 0.000357413)
(0.000299324 -1.0739e-05 -6.58066e-20 0.000384459 -7.35973e-21 0.000342285)
(0.000283598 -2.80847e-06 1.4439e-19 0.000366954 1.24523e-19 0.000325755)
(0.000268348 4.43575e-06 1.92532e-20 0.000346866 1.48453e-20 0.000308193)
(0.00025359 1.06949e-05 -3.4069e-20 0.000324739 -1.66092e-20 0.000289889)
(0.000239432 1.58152e-05 1.02729e-19 0.000301297 7.07911e-20 0.000271271)
(0.000226203 1.9622e-05 3.91111e-20 0.000277728 2.84419e-20 0.000253011)
(0.000213605 2.2065e-05 1.8763e-20 0.000254515 -9.35129e-21 0.000235107)
(0.000201265 2.3237e-05 -6.85417e-20 0.000231963 -5.9849e-20 0.000217564)
(0.000189243 2.33762e-05 -7.96634e-22 0.000210619 1.52931e-21 0.000200698)
(0.000178236 2.28385e-05 -3.84716e-20 0.000191387 1.34819e-21 0.000185371)
(0.000168652 2.18604e-05 -5.65791e-20 0.000174318 -3.10698e-21 0.000171867)
(0.000160128 2.05318e-05 1.49526e-20 0.000158646 1.93181e-20 0.000159671)
(0.000151059 1.87279e-05 -2.63206e-21 0.000142861 -1.63382e-20 0.000147186)
(0.000139491 1.62776e-05 -4.66495e-20 0.000125825 1.54725e-21 0.000132792)
(0.000126227 1.3586e-05 -4.69042e-21 0.000108991 1.73627e-21 0.000117641)
(0.000110157 1.05368e-05 1.47853e-21 9.1944e-05 -3.56634e-21 0.000101045)
(9.45154e-05 7.69166e-06 -9.978e-21 7.69079e-05 1.75484e-21 8.57261e-05)
(6.81841e-05 3.84921e-06 9.27569e-21 5.60367e-05 -4.70434e-20 6.21271e-05)
(4.33005e-05 1.31111e-06 3.57402e-20 3.68451e-05 -6.94792e-21 4.00771e-05)
(1.54589e-06 1.08614e-09 -1.44859e-22 1.53422e-06 -6.31949e-24 1.54006e-06)
(1.07237e-06 -1.80627e-11 9.3167e-23 1.0662e-06 -5.16955e-23 1.06929e-06)
(0 -0 0 0 -0 0)
(0 0 -0 0 0 0)
(0.000441559 -2.83427e-05 2.25749e-21 0.000356259 2.98746e-21 0.000398999)
(0.000439808 -2.11778e-05 1.69841e-20 0.000347994 1.14942e-20 0.000393887)
(0.000435479 -1.24535e-05 -1.089e-20 0.000339212 -1.20956e-20 0.00038745)
(0.000354875 -4.43174e-05 1.58507e-20 0.000342419 1.3939e-20 0.000348652)
(0.000346591 -4.46837e-05 2.25068e-20 0.000350235 1.88421e-20 0.000348394)
(0.000337185 -4.34478e-05 9.51549e-20 0.000356731 7.31654e-20 0.000346947)
(0.000326761 -4.06557e-05 -1.61654e-20 0.000361186 -1.23737e-20 0.000343958)
(0.00031553 -3.64318e-05 3.32225e-20 0.000363296 1.5982e-20 0.000339378)
(0.000303845 -3.105e-05 -6.56992e-20 0.000362678 -3.8031e-20 0.000333222)
(0.000291818 -2.47917e-05 4.87322e-20 0.000359041 2.69501e-20 0.000325371)
(0.000279643 -1.79791e-05 -1.21692e-19 0.000352341 -9.5134e-20 0.000315903)
(0.000267482 -1.09845e-05 4.26721e-21 0.000342631 1.28798e-20 0.00030494)
(0.000255412 -4.13536e-06 1.94689e-20 0.000330087 -1.05198e-20 0.000292594)
(0.000243503 2.24575e-06 3.24865e-20 0.000315028 6.49908e-21 0.00027906)
(0.000231754 7.88658e-06 5.30013e-21 0.000297844 4.61321e-21 0.000264536)
(0.000220209 1.25917e-05 -3.9278e-20 0.000279102 -3.66517e-20 0.000249311)
(0.000208577 1.62193e-05 -7.57466e-20 0.00025902 -2.38716e-20 0.000233381)
(0.000196708 1.87465e-05 -6.51377e-20 0.000237956 -1.90534e-20 0.000216871)
(0.000184984 2.02287e-05 -4.75837e-20 0.000216915 1.30651e-20 0.000200505)
(0.000174016 2.083e-05 -3.02042e-20 0.000197016 -3.20435e-21 0.000185133)
(0.000164326 2.07549e-05 -3.23762e-21 0.000179119 1.41006e-20 0.000171427)
(0.000156045 2.01709e-05 3.70566e-20 0.000163281 2.34044e-20 0.000159457)
(0.00014811 1.90066e-05 -2.65228e-21 0.000148269 -1.46171e-20 0.000148083)
(0.000138849 1.71416e-05 -1.99969e-20 0.000132718 -3.08074e-21 0.00013575)
(0.000127396 1.47036e-05 3.48664e-20 0.000116452 1.03077e-20 0.000121894)
(0.000114988 1.21987e-05 4.67423e-21 0.000101043 1.7025e-21 0.000107956)
(0.000103639 1.00488e-05 5.70524e-21 8.8097e-05 -5.88127e-21 9.58096e-05)
(9.4731e-05 8.34324e-06 4.09648e-21 7.81679e-05 -1.99228e-21 8.64264e-05)
(8.73707e-05 6.79112e-06 -1.02325e-19 7.00697e-05 3.4416e-20 7.87215e-05)
(7.93957e-05 5.06083e-06 -8.74375e-20 6.21095e-05 -2.52231e-20 7.07517e-05)
(5.68157e-05 2.17891e-06 4.42291e-20 4.55956e-05 9.07963e-20 5.12004e-05)
(2.25959e-05 2.08578e-07 -1.72589e-20 2.02043e-05 -2.08912e-20 2.13996e-05)
(1.91304e-06 -7.24023e-10 4.7428e-23 1.89211e-06 -1.2937e-22 1.90257e-06)
(0 -0 0 0 0 0)
(0.000289785 -3.73523e-05 -3.6015e-20 0.000306307 -2.92317e-20 0.000298067)
(0.000281944 -3.51503e-05 -4.32374e-20 0.000311144 -2.78286e-20 0.000296573)
(0.000273444 -3.17452e-05 -9.70699e-21 0.000314146 -1.20069e-20 0.00029382)
(0.000264558 -2.73407e-05 8.00778e-20 0.000314985 5.48906e-20 0.000289808)
(0.000255344 -2.2142e-05 -3.00141e-21 0.00031337 -1.20235e-20 0.000284401)
(0.000245938 -1.63924e-05 3.18174e-20 0.0003092 3.68425e-20 0.000277621)
(0.00023646 -1.0388e-05 3.96889e-21 0.000302434 1.04522e-20 0.000269511)
(0.000226959 -4.40073e-06 3.98675e-20 0.000293132 1.43873e-21 0.000260119)
(0.0002175 1.30356e-06 -2.61063e-20 0.000281497 -1.02663e-20 0.000249589)
(0.000208111 6.47321e-06 -3.01945e-20 0.000267816 -7.85051e-21 0.000238079)
(0.000198786 1.09119e-05 9.02766e-21 0.000252445 1.63624e-20 0.000225759)
(0.000189568 1.44756e-05 7.83634e-20 0.000235889 3.0349e-20 0.000212921)
(0.000180496 1.7073e-05 3.70923e-20 0.000218728 1.10694e-20 0.00019982)
(0.000171558 1.86991e-05 3.77085e-20 0.00020149 1.66406e-20 0.00018672)
(0.000162945 1.94653e-05 8.20704e-21 0.000184818 2.80301e-20 0.000174037)
(0.000154843 1.9528e-05 3.02102e-20 0.000169186 4.10117e-21 0.000162128)
(0.000147398 1.90502e-05 -5.96799e-22 0.000154741 -8.63046e-21 0.000151146)
(0.000140027 1.80289e-05 -4.54724e-20 0.000140819 -1.09446e-20 0.000140488)
(0.000131358 1.63377e-05 4.75821e-22 0.000126296 7.65513e-21 0.000128892)
(0.000120516 1.40383e-05 -2.01132e-20 0.00011093 -1.22399e-20 0.00011576)
(0.000108259 1.15348e-05 -3.42867e-21 9.59215e-05 -2.62699e-21 0.000102084)
(9.66655e-05 9.31867e-06 -1.81113e-20 8.30368e-05 3.82495e-22 8.98296e-05)
(8.71939e-05 7.5524e-06 -1.02007e-20 7.29916e-05 -8.36682e-21 8.00863e-05)
(8.04489e-05 6.20407e-06 1.05139e-19 6.56934e-05 7.70687e-21 7.30767e-05)
(7.55298e-05 5.06018e-06 4.11452e-20 6.013e-05 2.64405e-20 6.78308e-05)