/*--------------------------------*- C++ -*----------------------------------*\
| =========                 |                                                 |
| \\      /  F ield         | OpenFOAM: The Open Source CFD Toolbox           |
|  \\    /   O peration     | Version:  2306                                  |
|   \\  /    A nd           | Website:  www.openfoam.com                      |
|    \\/     M anipulation  |                                                 |
\*---------------------------------------------------------------------------*/
FoamFile
{
    version     2.0;
    format      ascii;
    arch        "LSB;label=32;scalar=64";
    class       volScalarField;
    location    "50";
    object      div(phi);
}
// * * * * * * * * * * * * * * * * * * * * * * * * * * * * * * * * * * * * * //

dimensions      [0 0 -1 0 0 0 0];

internalField   nonuniform List<scalar> 
10720
(
0.000191533
-0.000355063
1.02081e-05
0.000257315
-0.000146063
0.000168015
-0.000837868
-0.000453374
-0.000265072
0.000128495
0.000269077
0.000233703
0.000109219
-5.10563e-05
-0.000129833
-0.000228354
-0.000227359
-0.000316658
-0.000225807
-0.000350806
5.648e-05
-4.56709e-05
0.00118198
0.000691349
8.19076e-05
-0.00147004
0.000421504
0.000612812
0.00304594
0.0113068
-0.00293626
-0.0254267
0.0283033
0.0225041
0.0531503
-0.0573766
-0.0707451
0.102964
-0.0247658
-3.14128e-05
-0.000327665
-0.000397522
-0.000449995
-0.00184814
0.000978434
-0.00188385
-4.41745e-05
-0.000340091
-0.000307513
-0.000184112
-0.000258268
-0.000204937
-0.000299903
-0.000234009
-0.000315978
-0.000284115
-0.000445821
-0.000384272
-0.00062973
-0.000357837
-0.000545405
0.000442449
0.000820652
0.000901748
0.000784323
0.000586039
0.00070157
-0.000897402
0.000950114
0.000418092
0.000702223
0.000236844
0.000553997
-0.00116281
0.0028234
0.0047638
0.00202896
0.0119928
-0.000264702
-0.000140415
-3.7844e-05
0.00013815
-4.59514e-05
-0.000370864
-0.000515512
-0.000573779
-0.000128184
0.000175555
0.000240356
0.000160437
-4.8917e-06
-0.000126906
-0.000192702
-0.000248062
-0.00021947
-0.000224005
-8.48277e-05
5.4982e-06
0.000415889
0.000750207
0.00162417
0.00195509
0.00192987
0.00169131
0.00112571
0.000656084
0.000911216
0.00326083
0.000963118
-0.00512473
0.00456956
0.00557466
0.0190251
-0.0115079
-0.0130123
0.0374532
-0.00660879
3.67631e-06
-0.000298541
-0.000142574
-0.000730071
-0.000167845
-0.00140367
0.000493024
-0.000404839
-0.000335237
-0.000222406
-0.00022965
-0.000222765
-0.000289097
-0.000355864
-0.000365038
-0.000440638
-0.00044156
-0.000576836
-0.00058453
-0.000744207
-0.0006053
-0.000613912
0.000150767
0.000535002
0.000831102
0.0007092
0.00071076
0.000594997
-0.000583539
0.000944793
0.000495121
0.000737415
0.000580471
0.000874882
3.6705e-05
0.00197881
0.00508354
0.00454774
0.0147649
-0.000428423
7.1567e-05
-0.000144322
3.00505e-05
-0.00010426
-0.00038119
-0.000586814
-0.000349304
-6.07228e-05
0.000139435
0.000236029
0.000182746
5.54582e-05
-3.45004e-05
-0.000165602
-0.000206852
-0.000288501
-0.00028339
-0.000338123
-0.000297583
-0.000293676
-0.000215727
-0.000197154
-0.000364
-0.00090483
-0.000845854
-0.000766487
-0.000166776
0.000728813
0.00272221
-0.00144443
-0.00678571
0.00826943
0.00706954
0.0178885
-0.0252305
-0.0313996
0.0382951
-0.00862918
-0.000240668
-1.18746e-05
-0.000712425
-0.000237152
-0.000817927
0.000297919
-0.000892227
-0.000172636
-0.000190278
-0.000153378
-0.000170423
-0.000180582
-0.000281324
-0.000269774
-0.000320589
-0.000272425
-0.000323833
-0.000330505
-0.00038519
-0.000424938
-0.000369027
-0.000294528
0.000227215
0.000612444
0.00078182
0.000676195
0.000733895
0.000597882
-0.000736614
0.000663215
0.000306573
0.000664462
2.07577e-05
0.000329802
-0.00177308
0.00306544
0.00395259
0.000190593
0.00695921
-0.00020509
-0.000156895
1.21664e-05
-2.42786e-05
-0.000169575
-0.000407467
-0.000413726
-0.000221072
-2.82094e-05
0.000164737
0.000196583
5.55161e-05
-5.07463e-05
-0.000174682
-0.000238739
-0.00026698
-0.000294009
-0.000236029
-0.000173502
4.78527e-06
0.000255835
0.000639384
0.00113729
0.00142121
0.00141808
0.00134124
0.000956295
0.000591716
0.000521508
0.00150567
0.000955668
-0.00148486
0.00112721
0.00187114
0.00803121
-0.00201153
-0.00231246
0.0172716
-0.00267398
-0.000196894
-0.000597836
-6.47319e-05
-0.000835852
6.81636e-05
-0.00125575
0.000170888
-0.000262337
-0.000159579
-0.000180202
-0.000141527
-0.000240509
-0.00030589
-0.000379556
-0.000432343
-0.00042674
-0.000490398
-0.000508063
-0.000623786
-0.000615335
-0.000649611
-0.000468176
-0.000112049
0.000340009
0.000563007
0.000696192
0.000702506
0.000638838
-0.000339371
0.000755409
0.000512182
0.000749365
0.000641382
0.000893059
1.60821e-05
0.00230909
0.00533235
0.00471468
0.0141934
6.15593e-05
-0.000195522
0.000118199
-9.81978e-05
-0.000324894
-0.000291332
-0.000274433
-0.000278666
1.54744e-05
0.000147215
0.000135407
8.27946e-05
5.89806e-06
-8.87192e-05
-0.00014004
-0.000237989
-0.000253407
-0.000307222
-0.00027935
-0.000309912
-0.000250206
-0.000271494
-0.000230153
-0.000470963
-0.000768227
-0.000980196
-0.000865307
-0.000653851
0.000382443
0.00196476
-0.00133831
-0.00504395
0.00600496
0.00587662
0.0131913
-0.0193134
-0.0248485
0.0317601
-0.00727823
-0.000289414
-9.51119e-05
-0.000735694
0.000101998
-0.00097837
-7.09507e-05
-0.000530991
-7.67727e-05
-0.000121997
-8.45549e-05
-0.000130386
-0.000210837
-0.000283549
-0.000379009
-0.000345342
-0.000381024
-0.000308782
-0.000380208
-0.000338392
-0.000408581
-0.000301617
-0.000276662
0.000115517
0.000316496
0.000654638
0.000631582
0.000796121
0.000602985
-0.000463768
0.000296996
0.000272202
0.000517448
-4.02812e-05
-7.26276e-07
-0.00209178
0.00324774
0.00353177
-0.00126903
0.00472764
-0.000332372
0.00027058
-0.00013004
-0.000258077
-0.000199953
-0.00041334
-0.000383871
-1.4657e-05
-1.11661e-05
0.000138465
5.64753e-05
-1.54447e-05
-0.000142319
-0.000188507
-0.000256176
-0.000282447
-0.000279508
-0.000265652
-0.000154599
-3.10911e-05
0.000225932
0.000521219
0.000940456
0.00122219
0.00139634
0.00138313
0.00113819
0.000722168
0.000608824
0.00106254
0.00095432
-0.000717422
0.000442848
0.00128006
0.005942
4.39696e-05
0.000129726
0.0129128
-0.00182694
-0.000254955
-0.000363448
0.000127117
-0.000828233
7.41303e-05
-0.000413118
0.000166243
-0.000196088
-0.000151908
-9.96144e-05
-0.000164488
-0.000210744
-0.000346658
-0.000402627
-0.000451749
-0.000442779
-0.000454686
-0.000514956
-0.000543443
-0.000587981
-0.000553771
-0.000453592
-0.00021425
0.000114234
0.000352255
0.000598425
0.000644541
0.000683947
-0.000156448
0.000603376
0.000519004
0.000708148
0.00064707
0.000833082
7.58273e-05
0.00229034
0.00472766
0.00443628
0.0123102
-0.000101055
-4.58348e-05
7.34247e-08
-0.000220804
-0.00045648
-0.000234703
-0.000110812
-0.00030902
7.17147e-05
1.84529e-05
2.58347e-05
-4.39378e-05
-7.49439e-05
-0.00010244
-0.000155647
-0.000182053
-0.000244743
-0.000225878
-0.000242881
-0.000181083
-0.000196805
-0.000125756
-0.000217879
-0.000304666
-0.000674489
-0.000851398
-0.00118967
-0.00084829
-0.000143125
0.001639
-0.00124038
-0.00438238
0.00511444
0.00553865
0.0124756
-0.0187497
-0.0238997
0.0291123
-0.00766994
-1.38742e-06
-4.07997e-05
-0.00020742
0.000184885
-0.000413247
0.000126319
-0.000444739
-0.00010474
-7.60035e-05
-9.76299e-05
-9.75451e-05
-0.000206436
-0.000309929
-0.000373533
-0.000415623
-0.000357382
-0.000380389
-0.000335319
-0.000389316
-0.00030575
-0.000349319
-0.000153879
-0.000112347
0.000275241
0.000295661
0.000698409
0.00060254
0.000798688
-0.000511324
0.000226667
0.000160558
0.000455823
-0.00017787
-0.00015576
-0.00226573
0.00303049
0.00267763
-0.00213754
0.00237794
0.000111973
0.000100785
-0.000277573
-0.000185029
-0.00015447
-0.000325737
-0.000365775
6.98467e-05
-9.90541e-05
3.72205e-05
-4.85533e-05
-0.00014919
-0.000154858
-0.000222801
-0.000230819
-0.000256807
-0.000259881
-0.000222799
-0.000156491
-9.01802e-06
0.000168882
0.000432004
0.000726419
0.000996596
0.00121287
0.00129112
0.00118696
0.00087279
0.000731473
0.00104136
0.000960044
-0.000388518
0.000225676
0.00121264
0.00554008
2.78665e-05
5.8669e-05
0.0114843
-0.00192606
-0.000104284
1.75732e-05
-5.70869e-05
-8.51959e-05
-0.000155599
-0.000334117
1.53245e-06
-0.000252652
-0.000138742
-0.000120162
-0.000117173
-0.000224695
-0.000298307
-0.000407978
-0.000397902
-0.000416809
-0.000409326
-0.00046469
-0.000474151
-0.000506543
-0.000458067
-0.000414714
-0.000243273
-3.9386e-05
0.000188071
0.000428369
0.000554431
0.000614073
-2.08958e-05
0.000503419
0.000573818
0.000682998
0.000657208
0.000758381
0.000119139
0.00217182
0.00395514
0.00386727
0.00958291
-0.000212673
-0.000243313
0.000129021
-0.000367476
-0.000151547
-5.06866e-05
-7.78492e-05
-0.000375275
1.17155e-05
-8.5095e-05
-0.000117504
-0.000126607
-0.000143289
-0.000122197
-0.000120902
-0.000159719
-0.000160025
-0.000180953
-0.000119839
-0.000106195
-3.45997e-05
-3.87662e-05
-3.32366e-05
-0.000159229
-0.00037959
-0.000664783
-0.00104635
-0.00107067
-0.000481704
0.00118228
-0.00130375
-0.00415109
0.00450633
0.00606247
0.0128714
-0.0192118
-0.0238137
0.0300952
-0.00833715
-6.05787e-05
-0.0003927
-1.95118e-05
-0.000631805
5.02949e-05
-0.000256916
-0.000297176
-0.000105808
-0.000112356
-4.39153e-05
-0.000100039
-0.000153165
-0.000275248
-0.000340115
-0.000358809
-0.00035651
-0.000333817
-0.000363268
-0.000314573
-0.000336195
-0.000228811
-0.000236028
-4.97285e-05
1.42278e-05
0.000265345
0.000363349
0.000618829
0.000565249
-0.000311599
4.42115e-05
0.000263422
0.000307969
-0.000174218
-0.000415611
-0.00224331
0.00274346
0.00207594
-0.00270983
0.000690172
-0.000192828
-0.00021467
-0.000646699
9.16182e-05
-0.000241257
-0.000442483
-0.000216776
0.000142601
-0.000224183
5.00367e-05
-0.000107908
-0.000152118
-0.000198531
-0.000173388
-0.000212736
-0.000204405
-0.000207259
-0.000185936
-0.000116218
-9.83987e-06
0.000143268
0.000333269
0.000561216
0.000772813
0.000984948
0.0010915
0.00110367
0.000875443
0.000831916
0.000974033
0.000946819
-0.000309061
0.00019179
0.0014639
0.0063777
-0.00037745
-0.000413004
0.0123158
-0.0026127
-0.00059028
-0.000223189
-0.000766699
6.50519e-05
-0.00106633
0.000225414
-0.000159028
-0.000125017
-6.30228e-05
-5.74429e-05
-9.56322e-05
-0.000146616
-0.000264383
-0.00029989
-0.000345207
-0.000316929
-0.000370287
-0.000363245
-0.000418927
-0.000373767
-0.000399903
-0.000312593
-0.000274375
-8.00819e-05
2.36457e-05
0.000292605
0.000364572
0.000505831
3.03508e-05
0.000471151
0.00059082
0.00071058
0.000664434
0.000697179
0.000147594
0.0020501
0.00326124
0.0032544
0.00720387
-0.000681097
-0.000442902
9.61829e-05
-0.000291923
-0.000326329
8.14286e-05
-0.000295332
-0.000630203
0.000397013
-0.000159732
-0.000214977
-0.000197678
-0.00013852
-0.000120047
-0.000102163
-9.74401e-05
-0.000106165
-7.50251e-05
-4.74602e-05
1.83091e-05
5.99261e-05
9.10235e-05
0.000109674
3.2557e-06
-7.94536e-05
-0.000440007
-0.000632985
-0.0010767
-0.000533899
0.00042341
-0.00132312
-0.00462646
0.00399587
0.00676536
0.0143884
-0.0216509
-0.0293183
0.0366588
-0.0110473
-0.000399093
-0.000608533
-0.000228383
-0.000827962
0.000395033
-0.000924751
0.000264458
-0.00016191
-1.58468e-05
-7.96386e-06
-9.41061e-06
-0.000115781
-0.000176965
-0.000263673
-0.000266815
-0.000289853
-0.000294273
-0.000306534
-0.000300169
-0.000258071
-0.000236169
-0.00016833
-0.000139206
-1.9354e-06
3.84424e-05
0.000265353
0.000296902
0.000464515
-0.000317341
5.55798e-05
0.000190836
0.000364317
-0.000248325
-0.000509884
-0.00216926
0.00243221
0.0016457
-0.00295784
-4.90632e-05
-0.000431665
-0.000216431
-0.000433832
-3.09081e-06
-2.51853e-05
-0.000348281
-0.00048039
0.000433046
-0.000849047
0.000151236
-7.08191e-05
-0.000251028
-0.000158362
-0.000176305
-0.000143316
-0.000152539
-0.000144046
-0.00012953
-8.47177e-05
6.35869e-06
0.000111053
0.000265788
0.00040984
0.000596256
0.000742566
0.00088693
0.000923123
0.000820352
0.000803486
0.000897229
0.000789621
-0.000218987
9.45932e-05
0.00179699
0.00807052
-0.00151917
-0.00390918
0.0190688
-0.00491728
-0.000565373
-0.000353978
-0.000459231
0.000156777
-0.000605912
0.000490874
-0.000704715
0.000156351
-4.3909e-05
-1.49898e-05
-1.79283e-05
-9.08356e-05
-0.000152413
-0.000217349
-0.000217318
-0.000258851
-0.000258809
-0.000318018
-0.000285799
-0.000322667
-0.000268489
-0.000295363
-0.000203114
-0.000162582
-1.73043e-05
0.000100597
0.00024044
0.000298166
9.90239e-05
0.000387293
0.000608365
0.000702922
0.000708773
0.000641072
0.000165459
0.00187958
0.00268782
0.00261885
0.00530603
-0.00040227
-0.00047227
0.000136478
-0.000224345
-0.000256374
-5.0107e-05
-2.32761e-05
-0.000562986
0.00055996
-0.000488362
-0.000289142
-0.000138173
-0.000153237
-9.55957e-05
-7.38645e-05
-4.00968e-05
-1.68441e-05
8.61382e-06
4.8696e-05
9.72416e-05
0.000137731
0.000190235
0.000179713
0.000187002
5.69954e-05
-7.04717e-05
-0.000391125
-0.000622524
-0.000596709
0.00010291
-0.00142081
-0.00383618
0.00297818
0.00744076
0.0152338
-0.0245654
-0.0386387
0.0528958
-0.0164211
-0.000169483
-0.000278615
-2.29925e-05
-0.000445931
0.000210892
-0.000417929
0.000359338
-0.000556928
0.000113038
5.71956e-05
1.05709e-05
-1.83853e-05
-0.000117482
-0.000137276
-0.000194477
-0.000192142
-0.000246282
-0.000238793
-0.000252616
-0.000212776
-0.000204967
-0.000166516
-0.000144892
-8.39776e-05
-4.46189e-05
6.81765e-05
0.000117286
0.000206707
-0.000248179
-1.07229e-05
0.000200152
0.000249315
-0.000183472
-0.000671338
-0.00201441
0.00209506
0.00131914
-0.00296117
-0.000518017
-0.000142711
-3.38248e-05
-0.000311376
4.72806e-05
-1.50072e-05
-0.000271213
-0.000284062
0.000234855
-0.00028602
5.83527e-05
-7.41444e-05
-0.000162643
-0.000162349
-0.000104557
-9.53861e-05
-6.66741e-05
-6.67663e-05
-7.47712e-05
-3.20595e-05
1.23358e-05
0.000109362
0.000187725
0.000322917
0.000416608
0.000572062
0.000653019
0.000749443
0.000680568
0.000737314
0.000764359
0.000672537
-8.35459e-05
6.2583e-06
0.00181421
0.0085451
-0.00194234
-0.00594537
0.0259575
-0.00817858
-0.000285649
-9.72633e-05
-0.000207466
0.000237219
-0.000311088
0.000179851
-0.000370629
0.000244779
-0.000282777
0.000103936
2.97137e-05
-2.24327e-05
-7.66593e-05
-0.00010846
-0.00014342
-0.000160832
-0.000211721
-0.000208892
-0.000238539
-0.000210744
-0.000240382
-0.000204887
-0.000214751
-0.000138324
-0.000104848
2.65178e-05
7.80987e-05
0.000177378
7.90297e-05
0.000354654
0.000523484
0.000700336
0.000699299
0.000626147
0.000150478
0.0017003
0.00216491
0.00202754
0.00378933
-0.000253871
-0.000181976
0.000196751
-0.000176212
-0.000190893
-1.72026e-05
4.32718e-05
-0.000299393
0.000164009
8.21266e-05
-0.000374825
1.92051e-05
-9.36402e-05
-8.34862e-05
-3.22187e-06
3.61368e-05
7.16419e-05
9.06704e-05
0.000117994
0.000147624
0.000189451
0.00021335
0.000257776
0.000229017
0.00024227
7.81578e-05
5.72529e-06
-0.000369966
-0.000209807
-0.000119584
-0.000999712
-0.00304634
0.00222606
0.00776882
0.0137788
-0.0230716
-0.0369482
0.0526005
-0.019544
1.43311e-05
-8.05853e-05
7.38848e-05
-0.000253359
0.000254023
-0.000236003
0.000160779
-0.000218159
0.000185005
-1.46916e-05
6.08398e-05
2.16157e-06
-2.17748e-05
-8.60735e-05
-9.01958e-05
-0.000155866
-0.000156871
-0.000205464
-0.000175672
-0.000198647
-0.000161668
-0.000177847
-0.000138636
-0.000141811
-9.69628e-05
-7.02748e-05
-6.5565e-06
-2.48925e-06
-0.000181316
-6.58604e-05
0.00010654
0.000170533
-0.000188412
-0.000791792
-0.00181082
0.00177517
0.00110549
-0.00288459
-0.000554653
1.67928e-05
5.17082e-05
-0.000224464
6.66132e-05
1.32885e-05
-0.000208791
-0.000186956
0.000265486
-8.21546e-05
-0.000113667
0.000231099
-0.000364283
1.63301e-05
-4.7923e-05
2.50276e-06
3.71232e-05
-4.45481e-06
-8.01749e-07
-5.56477e-06
5.27118e-05
7.80004e-05
0.00017157
0.00021069
0.00033603
0.000380712
0.000517824
0.000523979
0.000574582
0.00057812
0.000674705
0.000483685
1.20638e-05
-4.47327e-05
0.00170987
0.00747434
-0.0015234
-0.00421569
0.0208655
-0.00811544
-0.000109944
8.23653e-06
-6.64958e-05
0.000250641
-0.00017635
0.000211977
-0.000184217
0.000147566
2.11073e-05
3.7211e-05
8.16724e-05
1.7683e-05
-1.08877e-05
-4.57356e-05
-7.59627e-05
-0.000117005
-0.000139182
-0.000164647
-0.000159257
-0.000180933
-0.000166805
-0.000193331
-0.000158503
-0.000167031
-9.18931e-05
-6.89277e-05
3.1297e-05
4.89834e-05
0.000108141
0.000253151
0.000461726
0.000608775
0.000689984
0.000578021
0.000148508
0.00148329
0.00173397
0.00148266
0.00266326
-4.06659e-05
-0.000126871
0.000178883
-0.000108593
-0.000141925
1.17273e-05
6.38191e-05
-0.000217363
0.000202382
0.000133476
-0.000199277
0.000111726
-0.00018923
-1.72539e-05
6.87674e-05
0.000101649
0.00012808
0.000129204
0.000146978
0.000164896
0.000194291
0.000220834
0.000258278
0.00027349
0.000293
0.000240971
0.000196429
-2.69648e-05
7.50342e-05
4.84854e-05
-0.000436467
-0.00190007
0.00201158
0.00693659
0.0120839
-0.0201499
-0.0312147
0.044145
-0.017005
9.32471e-05
1.70553e-05
0.000114794
-0.000132392
0.000227969
-0.000125652
0.00019126
-7.29013e-05
7.14023e-05
0.000154809
4.86556e-05
6.13436e-05
-2.63211e-06
-8.76628e-06
-7.21187e-05
-7.98761e-05
-0.000138266
-0.000124575
-0.00016235
-0.000136695
-0.000165011
-0.000139024
-0.000158747
-0.000135603
-0.000148238
-0.000102104
-0.000109728
-6.17002e-05
-0.000186874
-6.90525e-05
-3.64977e-05
9.422e-05
-0.000264217
-0.000755523
-0.0017401
0.00146602
0.000897711
-0.00257175
-0.000553818
7.67127e-05
0.000115432
-0.00012745
8.09989e-05
2.0684e-05
-0.000143431
-0.000141763
0.000247014
-3.304e-05
-7.23554e-06
0.000155366
-5.1981e-05
-3.78498e-05
6.4001e-05
5.5525e-05
9.82824e-05
5.19673e-05
5.13977e-06
4.45424e-05
4.91085e-05
9.75283e-05
0.000114281
0.000185589
0.000222268
0.000306893
0.000354787
0.00040361
0.000419745
0.000469377
0.000532675
0.000384047
5.81001e-05
-2.24063e-05
0.00146249
0.00632137
-0.00130552
-0.0025328
0.0160735
-0.0066583
-3.76319e-05
6.86799e-05
5.70199e-06
0.000220316
-8.60037e-05
0.000198284
-8.89765e-05
0.000161034
6.10175e-05
5.36405e-05
9.84336e-05
3.5091e-05
7.26473e-05
-6.45523e-07
-4.33089e-05
-7.81648e-05
-0.000102476
-0.000113448
-0.000129342
-0.000126449
-0.000148983
-0.000135965
-0.00015678
-0.000120012
-0.000110969
-6.46202e-05
-2.32567e-05
2.51075e-05
8.16721e-05
0.000200699
0.000365492
0.000512049
0.000626145
0.000524642
0.000143084
0.00124723
0.00131522
0.00103999
0.00181018
-1.12217e-05
-1.09747e-06
0.000173685
-6.41141e-05
-8.67202e-05
1.83741e-05
7.71234e-05
-0.000155305
0.000183029
0.00015937
-7.28297e-05
1.33683e-05
8.76022e-06
-1.04796e-05
0.000103533
0.000107069
0.000112359
0.000130863
0.000128365
0.000170879
0.000165812
0.000215553
0.000217475
0.000289399
0.000275035
0.000344564
0.000258245
0.000265943
0.000213168
0.000407822
-4.67972e-05
-0.000549583
0.00157002
0.00606826
0.010518
-0.016687
-0.0250739
0.0363633
-0.0140213
0.000115414
6.08711e-05
0.000116416
-5.40152e-05
0.000201466
-5.51787e-05
0.000179859
-2.63201e-05
8.05804e-05
8.09954e-05
0.000103361
0.000101836
2.7942e-05
1.67612e-05
-1.5492e-05
-7.6373e-05
-7.2355e-05
-0.000114211
-9.69527e-05
-0.000130984
-0.000110605
-0.000138139
-0.000118378
-0.00014238
-0.000108872
-0.000138077
-8.39149e-05
-0.000127667
-0.00010728
-0.000146417
-3.81126e-05
-8.52385e-05
-0.000211372
-0.000790972
-0.00152819
0.00115312
0.000776683
-0.00228874
-0.000429306
0.000113216
0.000122749
-6.87143e-05
7.72427e-05
3.23427e-05
-9.36676e-05
-9.17584e-05
0.0002142
-1.06157e-06
7.38584e-06
0.000172799
4.39956e-05
3.05341e-05
7.10783e-05
7.90849e-05
0.000120505
2.4505e-05
2.81379e-05
5.22852e-05
8.17215e-05
8.73289e-05
0.000106445
0.000136743
0.00017806
0.00022767
0.000270803
0.000293502
0.000322776
0.000351675
0.000431849
0.000284354
9.15458e-05
-3.38908e-05
0.00139174
0.00506788
-0.00120493
-0.00151743
0.0121964
-0.00571071
2.32491e-05
8.58939e-05
4.53112e-05
0.000187101
-2.8566e-05
0.000170647
-3.71106e-05
0.000131659
4.80381e-05
5.02069e-05
1.67573e-05
5.24606e-05
0.000101309
1.65228e-05
-2.55055e-05
-4.88259e-05
-7.19065e-05
-8.28536e-05
-9.02654e-05
-0.000103286
-0.000102025
-0.000119853
-0.000106279
-9.3154e-05
-7.80579e-05
-5.78331e-05
-2.12894e-05
1.22569e-05
7.73298e-05
0.000149194
0.00029991
0.000402393
0.000550779
0.000436554
0.000154318
0.000997665
0.000958282
0.000651785
0.00124556
7.01047e-05
2.02921e-05
0.000139503
-2.11494e-05
-5.30694e-05
2.39991e-05
7.85593e-05
-0.000110849
0.000162728
0.000174906
-3.86265e-05
9.25527e-05
7.34813e-05
6.43423e-05
0.000163128
9.53074e-06
7.35193e-05
8.08393e-05
0.000133179
0.000141788
0.000169331
0.000159412
0.000207734
0.000216798
0.000283442
0.000293887
0.000333373
0.000310777
0.000382386
0.000494265
0.000378566
6.05292e-05
0.00145252
0.00485498
0.00886392
-0.0143017
-0.0214255
0.0288605
-0.0118548
0.000120044
8.43856e-05
0.000113824
-5.90335e-06
0.00016229
-1.17104e-05
0.000142724
-6.64597e-06
6.30691e-05
3.02263e-05
4.70881e-05
7.15045e-05
-2.14809e-06
3.4041e-05
-2.28542e-05
-2.85185e-05
-6.78697e-05
-5.69754e-05
-8.9578e-05
-7.22155e-05
-0.000100987
-8.32089e-05
-9.89566e-05
-7.31546e-05
-9.74409e-05
-7.64518e-05
-9.1778e-05
-7.45605e-05
-0.000108052
-9.9994e-05
-9.56698e-05
-9.95055e-05
-0.000247612
-0.00066952
-0.00136321
0.000894398
0.000597734
-0.00185654
-0.000347827
0.000115527
0.000132269
-1.53077e-05
7.09322e-05
3.34344e-05
-4.95358e-05
-6.86134e-05
0.000189819
2.35121e-05
1.57011e-05
0.000221534
8.79609e-05
6.87345e-05
0.000154036
-0.000119351
0.000308856
9.15083e-05
6.42801e-05
9.74836e-05
0.000108436
9.28464e-05
9.68933e-05
0.000106311
0.000141503
0.000176277
0.000207134
0.000224184
0.000241727
0.000272552
0.000328906
0.000211163
6.3082e-05
1.81149e-05
0.00130809
0.00380784
-0.00130858
-0.000818054
0.00908662
-0.00479202
5.13814e-05
9.82309e-05
6.19065e-05
0.000148515
7.85044e-06
0.00013662
-5.35188e-06
0.000103541
3.39257e-05
4.0287e-05
-3.91307e-06
2.35696e-05
7.53809e-05
1.21711e-06
-9.19576e-06
-3.59764e-05
-4.27876e-05
-5.63626e-05
-5.88399e-05
-6.65079e-05
-7.61998e-05
-7.46753e-05
-5.85907e-05
-4.7469e-05
-3.97004e-05
-3.31831e-05
-8.15703e-06
2.01608e-05
7.14816e-05
0.000124804
0.00024213
0.00031928
0.00045663
0.00034567
0.000160582
0.000776598
0.000659822
0.000367671
0.000860855
8.01421e-05
6.64999e-05
0.000118597
7.39132e-06
-2.06807e-05
1.89073e-05
8.21418e-05
-7.18458e-05
0.000148351
0.000205392
-2.76807e-06
0.00012812
0.000139521
-6.73949e-05
0.000462731
-0.000161591
-3.58112e-05
9.49361e-05
0.000135992
0.000157954
0.00014474
0.000142123
0.000144818
0.000181318
0.000207211
0.000261041
0.000273714
0.000332528
0.000354914
0.000548534
0.0004332
0.000415671
0.0011556
0.00365537
0.00693897
-0.0111333
-0.0158631
0.0222974
-0.00950958
0.00011168
9.11087e-05
0.000103073
2.43718e-05
0.000130585
1.54034e-05
0.000115402
1.06226e-05
5.10738e-05
1.94977e-05
5.26678e-05
4.21264e-05
-4.47594e-06
2.6587e-05
3.52345e-06
-3.31502e-05
-2.45724e-05
-5.12683e-05
-3.7947e-05
-6.181e-05
-4.77615e-05
-5.24419e-05
-2.7257e-05
-3.39026e-05
-3.29226e-05
-4.82433e-05
-4.2456e-05
-5.55279e-05
-5.36523e-05
-8.62995e-05
-6.43525e-05
-0.000125778
-0.00020135
-0.000569821
-0.0011068
0.00069462
0.000431599
-0.00156459
-0.000187011
0.000118142
0.000120141
1.89318e-05
6.17535e-05
3.6246e-05
-1.50221e-05
-3.89567e-05
0.000166732
5.34582e-05
2.44789e-05
0.000241061
0.000116652
4.71375e-05
0.000227845
-0.000184032
0.00029474
-1.54689e-05
2.96587e-05
0.000116824
0.000122506
0.000103938
7.96999e-05
8.95715e-05
0.000102014
0.000142724
0.000150298
0.000182542
0.000172298
0.00022358
0.000233636
0.000158732
4.92332e-05
4.28579e-05
0.00127995
0.00266304
-0.00108007
-0.000110428
0.00660259
-0.00392518
7.43226e-05
9.40745e-05
6.79933e-05
0.000117621
3.00526e-05
0.000109909
1.6734e-05
8.22741e-05
3.28288e-05
4.16157e-05
8.57314e-06
1.32398e-05
7.98503e-05
-3.6018e-06
-1.22647e-05
-8.43073e-06
-4.78312e-05
-1.95001e-05
-3.53788e-05
-3.7323e-05
-3.86563e-05
-2.29296e-05
-9.75492e-06
2.78812e-06
-8.14415e-06
-5.05813e-06
4.60396e-06
3.3519e-05
6.64577e-05
0.000111579
0.000193798
0.000252339
0.000364088
0.000258339
0.000181772
0.000586111
0.000450338
0.000174103
0.000630143
0.000103372
7.57904e-05
8.89019e-05
3.10781e-05
-1.06542e-06
1.96111e-05
8.35354e-05
-3.48379e-05
0.00013344
0.000210434
2.87083e-05
0.000120227
0.000146179
-8.17921e-05
0.000264409
-0.000344069
-2.08873e-06
5.6613e-05
0.000149597
0.000151767
0.000135001
0.000107162
0.000108665
0.000120949
0.000154433
0.000180661
0.000225584
0.000251565
0.000324189
0.000436737
0.000422389
0.000451826
0.000819874
0.00281826
0.0050767
-0.00812629
-0.0108123
0.0157485
-0.00757135
9.56153e-05
9.28885e-05
9.26207e-05
4.23746e-05
0.000100535
3.2272e-05
8.98099e-05
2.34706e-05
4.36985e-05
2.29954e-05
5.21797e-05
4.1582e-05
4.67046e-06
4.97994e-05
5.17059e-06
-4.77916e-05
-1.84927e-05
-1.56821e-05
-1.87849e-05
-1.63267e-05
-1.74307e-05
7.02369e-06
1.92753e-05
1.99772e-05
2.97864e-06
-1.13765e-05
-1.60467e-05
-1.87309e-05
-2.48961e-05
-4.73549e-05
-4.77246e-05
-0.000103685
-0.000159913
-0.000461827
-0.000818042
0.000479
0.000248028
-0.00115429
-0.000110533
0.000100531
0.000112191
4.41564e-05
4.80102e-05
3.71562e-05
1.27683e-05
-1.86557e-05
0.000145021
7.26194e-05
4.14401e-05
0.000212934
0.000111903
3.485e-05
0.000157681
-0.000242965
0.000175138
-0.000237862
0.000126447
0.000139898
0.000134127
9.45793e-05
8.00422e-05
5.9249e-05
8.83841e-05
9.31512e-05
0.000129133
0.00012561
0.000145923
0.000167307
0.000178002
0.000129271
2.54493e-05
0.000133876
0.00122697
0.00183664
-0.000881316
0.000300764
0.00446031
-0.00298584
8.5523e-05
8.99465e-05
6.67307e-05
8.77742e-05
4.3201e-05
8.37627e-05
3.11542e-05
6.41794e-05
3.33827e-05
3.98779e-05
2.1234e-05
2.59655e-05
4.50645e-05
1.22034e-05
-3.7726e-05
-2.52196e-05
-2.83005e-05
3.14638e-06
-8.42147e-06
2.36197e-06
9.70121e-06
2.11868e-05
3.913e-05
3.18909e-05
1.74599e-05
9.45492e-06
1.69062e-05
3.92691e-05
6.07064e-05
9.77454e-05
0.000149252
0.000199631
0.000272428
0.000191955
0.000182392
0.000437389
0.000324851
9.42269e-05
0.00047143
0.000105621
7.92807e-05
6.41343e-05
4.71761e-05
1.45801e-05
1.47323e-05
8.19439e-05
1.58914e-07
0.000119028
0.000186416
4.81854e-05
0.000104879
0.000101185
-7.42607e-05
8.14163e-05
-0.000175057
0.000155053
9.69129e-05
0.000155676
0.000135167
0.000115204
8.0716e-05
7.80947e-05
7.89499e-05
0.000104472
0.000122252
0.000159879
0.000184065
0.000250948
0.000318943
0.000344589
0.000351789
0.000610308
0.00222305
0.00326601
-0.00512258
-0.0063867
0.0109264
-0.00571812
8.2551e-05
8.53943e-05
8.08938e-05
5.17865e-05
7.5659e-05
4.22438e-05
6.93261e-05
3.26182e-05
3.98665e-05
2.67767e-05
4.37328e-05
3.46559e-05
2.19831e-05
-6.57899e-06
1.23039e-05
-7.05112e-05
1.59951e-05
-3.61508e-05
4.35715e-05
1.04953e-05
3.50829e-05
4.8606e-05
5.42454e-05
4.60541e-05
2.19524e-05
8.28404e-06
3.41279e-06
3.61876e-06
-4.86682e-06
-1.90948e-05
-3.23054e-05
-7.40971e-05
-0.00012821
-0.000357283
-0.000583418
0.000325083
0.000135129
-0.000848368
-1.00243e-05
9.11438e-05
9.43134e-05
5.98836e-05
3.6906e-05
3.49364e-05
3.34051e-05
3.479e-06
0.000119867
8.3869e-05
5.41046e-05
0.000166762
9.14879e-05
1.89432e-05
8.25712e-05
-0.000151806
0.000126532
-0.000109701
0.000284717
0.000134145
0.000125483
0.000102501
6.43644e-05
5.98243e-05
5.71487e-05
7.97234e-05
8.96186e-05
0.000103777
0.000111663
0.00013677
0.000138982
0.000106464
3.05405e-05
0.000256708
0.00106094
0.00126063
-0.000576551
0.000576521
0.00292523
-0.00205288
7.20527e-05
7.63663e-05
6.10809e-05
6.56534e-05
4.97289e-05
6.46323e-05
3.97059e-05
5.1582e-05
3.50341e-05
3.62109e-05
2.43623e-05
3.6898e-05
-2.90409e-06
4.11926e-05
-0.000122487
2.24699e-05
-7.43985e-05
6.66875e-05
1.2669e-05
6.06361e-05
5.80703e-05
6.49801e-05
6.17179e-05
4.65646e-05
2.48362e-05
1.6505e-05
2.18551e-05
3.6818e-05
5.14631e-05
7.87407e-05
0.000109855
0.000151052
0.000192153
0.000134027
0.000180338
0.000320114
0.000260334
7.70445e-05
0.000361353
9.31738e-05
8.12882e-05
4.10867e-05
5.55831e-05
2.33666e-05
1.49938e-05
7.64164e-05
3.10497e-05
0.000100085
0.000151208
6.03185e-05
7.50562e-05
6.1968e-05
-8.07654e-05
7.86064e-05
-0.00011228
0.000361646
5.30021e-07
0.000135416
0.00011242
9.16285e-05
7.87967e-05
5.09836e-05
6.44108e-05
6.11722e-05
9.02077e-05
0.00010044
0.000138038
0.000172379
0.00022741
0.00024319
0.000258112
0.000506815
0.00168449
0.00183167
-0.00276143
-0.00286638
0.00689822
-0.00416442
7.05117e-05
7.02599e-05
6.62719e-05
5.56521e-05
5.55786e-05
4.69129e-05
5.22482e-05
3.82533e-05
3.53124e-05
2.77301e-05
3.64895e-05
2.63972e-05
3.42151e-05
-6.05235e-05
4.50643e-05
-7.25181e-05
1.63338e-05
2.67807e-05
5.75141e-05
8.40207e-05
7.85913e-05
7.05993e-05
6.8723e-05
4.79616e-05
2.77752e-05
1.53372e-05
1.32374e-05
1.29516e-05
6.97491e-06
-4.02325e-06
-1.99883e-05
-5.05533e-05
-0.000101175
-0.00026876
-0.0003886
0.000191469
5.93344e-05
-0.000541403
3.92359e-05
7.53241e-05
8.97686e-05
6.90984e-05
2.30494e-05
3.45786e-05
4.58085e-05
1.98789e-05
9.18116e-05
8.8668e-05
6.25107e-05
0.000119058
7.13008e-05
-3.38943e-06
4.56315e-05
-0.000113808
0.000158279
1.91995e-06
0.000344453
7.93796e-05
9.23979e-05
9.31096e-05
6.54033e-05
5.39232e-05
4.90962e-05
6.07415e-05
6.99589e-05
7.88195e-05
9.14899e-05
0.000107826
0.000114219
8.77636e-05
5.73588e-05
0.000348235
0.00078301
0.000652756
-0.000319186
0.000642307
0.00175085
-0.00127294
5.72428e-05
6.33193e-05
5.25653e-05
4.48947e-05
5.22138e-05
4.56506e-05
4.40867e-05
3.83865e-05
3.51049e-05
3.16383e-05
2.95995e-05
3.40325e-05
1.5686e-05
-2.06158e-06
-6.16719e-05
-6.77867e-05
4.58126e-05
8.35961e-06
0.000102643
8.72432e-05
7.01673e-05
8.09765e-05
6.83349e-05
4.24634e-05
2.5025e-05
1.63493e-05
1.97965e-05
2.98816e-05
3.85872e-05
5.74309e-05
7.52398e-05
0.000107059
0.00012534
9.38148e-05
0.000158312
0.000226947
0.000216221
9.67357e-05
0.000270982
0.000101005
7.85792e-05
2.38954e-05
6.07761e-05
2.81994e-05
9.95333e-06
6.68826e-05
5.24712e-05
8.01564e-05
0.000117036
6.65751e-05
5.04221e-05
3.98409e-05
-7.44296e-05
7.17141e-05
-3.61194e-05
0.000249649
2.76562e-06
0.000134685
8.97894e-05
8.77308e-05
6.25399e-05
5.33427e-05
4.23171e-05
5.16563e-05
5.37555e-05
7.43536e-05
8.877e-05
0.000123142
0.000148871
0.000165094
0.000206472
0.000424119
0.00118451
0.000907792
-0.00133876
-0.00106653
0.00399757
-0.00275328
5.68307e-05
5.60218e-05
5.43876e-05
5.5034e-05
3.79417e-05
4.87664e-05
3.70343e-05
4.13287e-05
3.10057e-05
2.82711e-05
3.01657e-05
3.37373e-05