/*--------------------------------*- C++ -*----------------------------------*\
| =========                 |                                                 |
| \\      /  F ield         | OpenFOAM: The Open Source CFD Toolbox           |
|  \\    /   O peration     | Version:  2306                                  |
|   \\  /    A nd           | Website:  www.openfoam.com                      |
|    \\/     M anipulation  |                                                 |
\*---------------------------------------------------------------------------*/
FoamFile
{
    version     2.0;
    format      ascii;
    arch        "LSB;label=32;scalar=64";
    class       volScalarField;
    location    "50";
    object      magR;
}
// * * * * * * * * * * * * * * * * * * * * * * * * * * * * * * * * * * * * * //

dimensions      [0 2 -2 0 0 0 0];

internalField   nonuniform List<scalar> 
10720
(
0.0128486
0.0152463
0.0183757
0.0226069
0.0277453
0.034377
0.0429811
0.0538289
0.06775
0.0855892
0.108439
0.138438
0.178639
0.234347
0.312473
0.425061
0.594047
0.850665
1.28259
1.92389
3.3288
5.05992
10.6539
19.6105
14.226
8.46248
5.06153
3.23642
2.98559
2.44765
1.82892
1.97404
1.86866
0.53103
3.31028
4.4759
3.23021
2.35833
7.2686
0.0107445
0.00905026
0.00725907
0.00571837
0.00443802
0.00376463
0.00428224
0.00561595
0.0078212
0.0111199
0.0158705
0.0225606
0.031847
0.0446259
0.0621494
0.0867269
0.122364
0.176118
0.261284
0.40023
0.639081
1.06443
1.89713
3.41082
6.91047
13.9979
31.3035
54.1731
68.0992
73.0398
74.228
74.2421
73.6029
72.4098
70.6962
68.5929
65.4786
61.4903
50.5834
0.00304658
0.00304699
0.00301876
0.00294531
0.00283199
0.00269272
0.00252289
0.00232828
0.00212826
0.00192475
0.00172765
0.00155094
0.00139834
0.00126759
0.00129487
0.00158963
0.00268486
0.00567343
0.0146949
0.0396451
0.141063
0.474637
1.65165
7.69815
17.3728
27.0833
34.4366
34.062
29.1982
24.0004
19.3241
13.785
8.51665
7.94115
10.2078
12.3657
12.9996
15.0289
16.7157
0.0030121
0.00295739
0.00286987
0.00272769
0.00254999
0.00237555
0.00217831
0.0019491
0.00171865
0.00150108
0.0012959
0.00110612
0.000934239
0.000782013
0.000651102
0.000541984
0.000450336
0.000373936
0.000306573
0.00024393
0.000179912
0.000112209
6.06635e-05
3.15078e-05
0.000810733
0.00543547
0.0360626
0.184011
0.465436
0.794544
1.10483
1.3582
1.55724
1.72681
1.88403
2.05462
2.2325
2.76553
3.87971
0.0021427
0.00210573
0.00204194
0.00195179
0.00185346
0.0017427
0.00162573
0.00151573
0.00141667
0.00133531
0.0012733
0.00122968
0.00120295
0.00118831
0.00119186
0.00122847
0.00118195
0.00107751
0.000729308
0.00405186
0.0020377
0.00576278
0.0017245
0.205826
2.14322
8.61622
22.6687
37.2969
41.1558
37.2089
31.1958
23.1624
16.1857
17.2098
21.1078
21.3626
19.3216
16.7709
17.0273
0.0021677
0.00217407
0.00216066
0.00209604
0.0019934
0.00186921
0.00174175
0.00158369
0.00139607
0.00119525
0.000995963
0.000812806
0.000653678
0.000521288
0.000418982
0.000343581
0.000290572
0.000254505
0.000231177
0.000216994
0.000209345
0.000207473
0.0002104
0.000217853
0.000224565
0.000227867
0.000216959
0.000213159
0.00262815
0.0105635
0.0239535
0.046665
0.103233
0.205276
0.344311
0.502883
0.661265
0.780742
1.09887
0.00170395
0.00170303
0.00169171
0.00167217
0.00164042
0.00159596
0.00154179
0.00147626
0.00140194
0.00132044
0.00123339
0.00114327
0.00105245
0.000960529
0.000867367
0.000771808
0.000663476
0.000559241
0.000434684
0.000298645
2.72597e-05
0.000772811
0.000250925
0.0136219
1.91278e-05
0.269309
3.07912
14.363
32.6264
42.7618
41.0421
32.6326
24.8731
25.3283
28.7085
28.1166
24.0199
18.8337
16.1655
0.00169234
0.001675
0.00164466
0.00159254
0.00152746
0.00145179
0.00135982
0.00124817
0.00112568
0.00100195
0.000883028
0.000773605
0.00067539
0.000588929
0.000515185
0.000452854
0.000401244
0.000358976
0.000325343
0.000298188
0.000276174
0.000257109
0.000238824
0.000217851
0.000195305
0.00017682
0.000163013
0.000155092
0.00013312
0.000123739
7.30999e-06
6.31565e-05
0.0006675
0.00080506
0.00452538
0.0204192
0.0606002
0.156636
0.443588
0.00131384
0.00130773
0.00129465
0.00127248
0.00124147
0.001201
0.00115203
0.00109501
0.00103168
0.000964961
0.000897195
0.000831042
0.000768943
0.000712712
0.000663212
0.000623064
0.00059141
0.000559048
0.000514233
0.000467272
0.000323215
0.000143196
1.47445e-05
0
3.81532e-06
0.0203479
0.06218
0.728203
8.0829
25.9918
39.4183
38.7853
33.3863
33.4893
35.7427
33.6721
27.5884
20.2703
14.9536
0.00131142
0.00130383
0.00128575
0.00124964
0.00120462
0.00115175
0.0010883
0.00101173
0.000926439
0.000836143
0.000743545
0.000652116
0.000564686
0.000483419
0.000410503
0.00034706
0.000293654
0.000250115
0.000216003
0.00019001
0.000170822
0.00015678
0.000146194
0.000136419
0.0001257
0.00011511
0.000107307
0.000102769
0.000101701
9.90187e-05
0.000103982
2.06607e-05
0.000356669
4.75513e-05
0.00289101
0.00036115
0.0027994
0.0068022
0.0900495
0.00105541
0.00105613
0.00105291
0.00104491
0.00103172
0.00101286
0.000988307
0.000957581
0.000921222
0.000880174
0.000834935
0.000786451
0.000735686
0.000683197
0.000629566
0.000575927
0.000519669
0.000456607
0.000391159
0.000326518
0.000273127
0.00022007
0.000112348
9.58414e-06
0
0
0
0.0367831
0.136717
4.82057
20.4323
34.0713
38.0842
40.312
41.6876
37.9991
30.1368
21.1579
13.9603
0.00104902
0.00103991
0.0010244
0.000997114
0.000965362
0.000927935
0.000882352
0.000827801
0.000767203
0.000702842
0.000636588
0.000570936
0.000508016
0.000449346
0.000396235
0.000349552
0.000309557
0.000276012
0.000248431
0.000225915
0.00020738
0.00019147
0.000176735
0.00016119
0.000144049
0.000127366
0.0001131
0.000101652
9.23775e-05
8.4406e-05
7.61171e-05
6.53088e-05
4.71967e-05
2.90397e-05
1.65085e-06
2.46092e-05
0.000444596
0.00149651
0.0118488
0.0008545
0.000855711
0.000854508
0.000849572
0.000840901
0.000827807
0.000809985
0.000787061
0.000759216
0.000727063
0.000691084
0.000652038
0.000610903
0.000568435
0.000525555
0.000482917
0.000442173
0.000404852
0.000368401
0.000328791
0.000286741
0.000247239
0.000223287
9.99523e-05
8.20245e-06
0
0
0
0.026035
0.0161172
3.32472
17.176
33.5094
43.2227
45.6942
40.9219
31.6598
21.5505
13.1514
0.00084893
0.000841515
0.000829558
0.000808906
0.000785947
0.00075854
0.000725077
0.000685668
0.000642007
0.000595201
0.000546251
0.000496545
0.000447416
0.000399936
0.000355167
0.000314051
0.000277173
0.00024484
0.000217146
0.000193846
0.000174488
0.000158322
0.000144282
0.000130747
0.000116547
0.00010245
8.98404e-05
7.93484e-05
7.08899e-05
6.45249e-05
6.05987e-05
5.92456e-05
5.79292e-05
5.28957e-05
4.68723e-05
8.18494e-06
1.78715e-06
0
0.00257977
0.000702686
0.000705102
0.000706277
0.000704736
0.000700962
0.000694178
0.000684054
0.000670257
0.000652785
0.000631942
0.000607721
0.000580508
0.000550749
0.000518747
0.000484928
0.000449706
0.000413661
0.000375238
0.000334356
0.000293045
0.000254543
0.00021981
0.000204908
0.00018988
0.000106377
7.63014e-06
2.91821e-08
0
0
0.00928974
6.75845e-05
3.1069
19.113
38.3061
45.8873
41.7812
31.9224
21.3497
12.3447
0.000697132
0.000690491
0.000680851
0.000664832
0.000647845
0.000627377
0.000602381
0.000573295
0.000541247
0.000506823
0.000470518
0.000433281
0.000396002
0.000359439
0.000324401
0.000291734
0.000261992
0.000235558
0.000212589
0.000192948
0.000176243
0.000161795
0.000148634
0.000135459
0.000121449
0.000107289
9.41404e-05
8.24853e-05
7.21609e-05
6.29554e-05
5.47989e-05
4.75156e-05
4.10453e-05
3.54621e-05
3.13579e-05
2.3386e-05
1.65565e-05
2.01331e-06
0
0.000583496
0.000586227
0.000588412
0.000588292
0.000586736
0.000583063
0.000576735
0.000567538
0.000555382
0.000540314
0.000522312
0.000501552
0.000478303
0.000452812
0.000425458
0.00039658
0.000366564
0.000336087
0.000305639
0.000274928
0.000244503
0.000215957
0.000192581
0.000186299
0.000178807
0.000116189
5.0709e-07
1.51164e-08
0
0
1.1858e-05
0.106957
5.19706
24.5348
39.3948
39.1343
30.3123
20.2488
11.2824
0.00057854
0.000572811
0.000565132
0.00055261
0.000539701
0.00052407
0.000505176
0.000483466
0.000459594
0.000433967
0.000406831
0.000378707
0.000350139
0.000321591
0.000293595
0.000266779
0.000241672
0.000218645
0.000197957
0.00017966
0.000163608
0.000149377
0.000136305
0.000123488
0.000110333
9.72137e-05
8.50539e-05
7.43704e-05
6.51566e-05
5.72716e-05
5.07201e-05
4.56037e-05
4.16741e-05
3.87531e-05
3.65009e-05
3.5791e-05
3.63143e-05
3.70247e-05
1.38427e-06
0.000489224
0.000492031
0.000494733
0.000495784
0.00049564
0.000494063
0.000490696
0.000485132
0.000477283
0.00046715
0.000454591
0.000439703
0.000422619
0.000403442
0.00038235
0.00035951
0.000335281
0.000309818
0.000282761
0.000254944
0.000227824
0.000203683
0.000183543
0.000169749
0.000167392
0.000164331
0.000111332
1.6654e-07
8.67843e-09
0
0
0.012693
0.276879
9.17122
25.4357
31.0892
25.8256
17.7569
9.68411
0.000484657
0.000479659
0.000473496
0.00046361
0.000453556
0.000441483
0.00042703
0.000410639
0.000392697
0.000373384
0.000352916
0.000331618
0.00030976
0.000287593
0.000265498
0.000243947
0.00022336
0.000204113
0.000186444
0.000170485
0.000156172
0.000143226
0.000131146
0.000119303
0.000107234
9.51996e-05
8.38994e-05
7.37609e-05
6.47743e-05
5.67811e-05
4.96921e-05
4.35001e-05
3.80864e-05
3.35721e-05
2.96985e-05
2.82821e-05
2.61185e-05
4.45603e-05
1.90435e-05
0.000413309
0.000416089
0.000418948
0.000420485
0.000421266
0.000421033
0.000419201
0.000415834
0.000410824
0.000403902
0.000394934
0.000383971
0.000371077
0.000356281
0.000339669
0.000321367
0.000301538
0.000280566
0.000258596
0.000236113
0.000213892
0.000193287
0.000176091
0.000162097
0.00015183
0.000148269
0.000150944
9.85394e-05
1.29022e-07
6.57342e-09
0
0
0.0742265
1.23717
9.79923
17.8971
17.7874
13.4724
7.38585
0.000409214
0.000404851
0.000399874
0.000392044
0.000384026
0.000374583
0.000363454
0.000350931
0.000337323
0.000322716
0.000307148
0.000290912
0.000274147
0.000256953
0.000239531
0.000222211
0.000205306
0.00018911
0.000173879
0.000159752
0.00014674
0.000134701
0.000123315
0.000112167
0.000100947
8.983e-05
7.93239e-05
6.98122e-05
6.13406e-05
5.38184e-05
4.72011e-05
4.15843e-05
3.69076e-05
3.32633e-05
3.04146e-05
2.97736e-05
2.8903e-05
4.05591e-05
4.83864e-05
0.000351518
0.000354173
0.000357018
0.000358813
0.000360136
0.000360717
0.000360168
0.00035839
0.000355179
0.000350552
0.00034446
0.00033656
0.000326995
0.000315818
0.000303021
0.000288647
0.000272796
0.000255829
0.000237642
0.000218618
0.000199657
0.000181917
0.000166825
0.000154679
0.000143828
0.000133974
0.00013022
0.000132736
7.83585e-05
1.0011e-07
1.55203e-10
0
0.0048888
0.0739656
1.28905
5.31824
7.67548
7.43972
4.33988
0.00034788
0.000344048
0.000339988
0.000333756
0.000327334
0.000319776
0.000311113
0.000301529
0.000291124
0.000279986
0.000268091
0.000255649
0.000242761
0.000229423
0.00021575
0.000201931
0.000188173
0.000174717
0.000161769
0.000149495
0.000137961
0.000127086
0.000116658
0.000106397
9.6133e-05
8.59692e-05
7.6288e-05
6.74079e-05
5.94045e-05
5.22153e-05
4.57922e-05
4.01791e-05
3.53203e-05
3.13553e-05
2.81001e-05
2.69271e-05
2.62986e-05
3.35622e-05
5.57223e-05
0.00030067
0.000303138
0.000305882
0.000307773
0.000309359
0.000310431
0.000310661
0.000309891
0.000308113
0.000305128
0.000300865
0.000295288
0.000288203
0.000279713
0.000269808
0.000258507
0.000245842
0.000232099
0.000217299
0.000201712
0.000185983
0.000170988
0.000157728
0.000146762
0.000137068
0.000127055
0.000117106
0.000112954
0.000114169
6.31168e-05
2.28694e-06
0
0
0.0391477
0.182201
0.456556
1.1283
1.74851
1.29719
0.000297481
0.000294114
0.000290773
0.000285763
0.000280569
0.000274531
0.000267657
0.000260212
0.000252282
0.000243756
0.000234629
0.000225036
0.000215086
0.00020476
0.00019404
0.000183042
0.000171892
0.000160767
0.000149829
0.000139227
0.000129038
0.000119236
0.000109693
0.000100255
9.08299e-05
8.15078e-05
7.257e-05
6.42906e-05
5.67688e-05
4.99793e-05
4.38915e-05
3.85549e-05
3.39635e-05
3.02351e-05
2.71603e-05
2.5914e-05
2.51945e-05
3.02113e-05
5.16568e-05
0.000258466
0.000260719
0.000263306
0.000265198
0.000266911
0.000268265
0.000268947
0.000268924
0.000268011
0.000266274
0.000263455
0.000259505
0.000254416
0.000248057
0.000240452
0.000231654
0.000221666
0.000210668
0.000198737
0.000185944
0.000172833
0.000160152
0.000148644
0.000138755
0.000129994
0.000121121
0.000111624
0.000101515
9.66318e-05
0.000102516
3.43487e-05
4.50899e-08
0
0.000193436
0.0127177
0.12273
0.185533
0.250268
0.14021
0.000255667
0.000252729
0.00024994
0.000245895
0.000241653
0.000236793
0.000231345
0.000225455
0.000219334
0.000212848
0.00020581
0.000198405
0.000190705
0.000182684
0.000174306
0.00016559
0.000156594
0.000147453
0.000138291
0.000129228
0.000120327
0.000111602
0.000102985
9.44078e-05
8.58343e-05
7.73401e-05
6.91452e-05
6.14765e-05
5.44414e-05
4.80387e-05
4.22446e-05
3.70873e-05
3.2582e-05
2.88348e-05
2.56442e-05
2.41033e-05
2.30696e-05
2.71208e-05
4.60914e-05
0.000223148
0.000225184
0.000227598
0.000229423
0.000231163
0.000232662
0.000233623
0.000234042
0.000233796
0.000232838
0.000231081
0.000228445
0.000224892
0.000220134
0.000214311
0.000207506
0.000199702
0.000190956
0.000181408
0.00017105
0.000160249
0.000149613
0.000139716
0.000130901
0.000122935
0.000114955
0.000106678
9.76914e-05
8.55813e-05
8.99957e-05
8.27912e-05
2.51496e-06
0
0
0.00210017
0.0258673
0.0133
0.0293294
0.0328981
0.0002207
0.000218143
0.000215793
0.000212496
0.000209007
0.000205068
0.000200724
0.000196097
0.000191262
0.000186274
0.000180946
0.000175189
0.000169204
0.000162961
0.000156408
0.000149521
0.000142306
0.000134833
0.000127204
0.000119505
0.000111801
0.000104108
9.63945e-05
8.86278e-05
8.08413e-05
7.31103e-05
6.56072e-05
5.85158e-05
5.19509e-05
4.59291e-05
4.04423e-05
3.55197e-05
3.12001e-05
2.75738e-05
2.44499e-05
2.27821e-05
2.15943e-05
2.47144e-05
4.13395e-05
0.000193383
0.000195223
0.000197447
0.000199177
0.000200889
0.00020243
0.000203554
0.000204259
0.000204471
0.000204061
0.000203099
0.000201416
0.000198898
0.000195494
0.00019111
0.00018588
0.000179799
0.000172887
0.000165288
0.000156946
0.000148105
0.000139251
0.000130825
0.000123098
0.000115937
0.000108798
0.00010124
9.38477e-05
8.36002e-05
7.44992e-05
8.74024e-05
3.82938e-05
9.81139e-08
0
0
0
0.00246141
0.00561832
0.00414109
0.000191247
0.000189021
0.000187037
0.000184325
0.000181431
0.000178221
0.000174733
0.000171078
0.000167266
0.000163402
0.000159315
0.000154901
0.000150244
0.000145364
0.000140232
0.00013479
0.000129021
0.000122949
0.000116644
0.000110162
0.000103548
9.68195e-05
8.99656e-05
8.29991e-05
7.59798e-05
6.89853e-05
6.21489e-05
5.56283e-05
4.95335e-05
4.3895e-05
3.87154e-05
3.40253e-05
2.98599e-05
2.62963e-05
2.3161e-05
2.12944e-05
1.98879e-05
2.22592e-05
3.70642e-05
0.000168139
0.000169806
0.000171839
0.000173459
0.0001751
0.000176627
0.000177826
0.000178712
0.000179197
0.000179239
0.000178726
0.000177766
0.000176127
0.000173688
0.000170468
0.00016648
0.000161766
0.000156339
0.000150342
0.000143681
0.000136505
0.000129189
0.00012207
0.000115378
0.000109028
0.000102691
9.59016e-05
8.90277e-05
8.19992e-05
7.00819e-05
7.1359e-05
7.62485e-05
1.6015e-07
3.25069e-10
0
0
0
0
0.00413855
0.00016628
0.000164354
0.000162667
0.000160407
0.000157993
0.000155368
0.000152557
0.000149651
0.000146665
0.000143612
0.000140478
0.00013714
0.000133479
0.00012966
0.000125635
0.000121351
0.000116753
0.000111853
0.000106672
0.000101252
9.56116e-05
8.97673e-05
8.37215e-05
7.75155e-05
7.1225e-05
6.49242e-05
5.87239e-05
5.27572e-05
4.71225e-05
4.18642e-05
3.6992e-05
3.25414e-05
2.85472e-05
2.50711e-05
2.19544e-05
1.99198e-05
1.82989e-05
1.99474e-05
3.30491e-05
0.000146617
0.000148126
0.000149973
0.00015148
0.000153022
0.000154503
0.000155717
0.000156697
0.000157371
0.000157688
0.000157582
0.000157049
0.000156036
0.000154411
0.000152164
0.000149147
0.000145525
0.000141306
0.000136619
0.00013136
0.000125587
0.000119581
0.000113606
0.000107857
0.000102289
9.66806e-05
9.07398e-05
8.4325e-05
7.84595e-05
6.98997e-05
6.18218e-05
7.16542e-05
3.61324e-05
1.76836e-06
0
0
0
0
0.00433928
0.000144992
0.00014333
0.000141891
0.000139986
0.000137969
0.000135808
0.000133536
0.000131216
0.000128866
0.000126457
0.00012405
0.000121488
0.000118665
0.000115658
0.000112491
0.000109117
0.000105472
0.000101534
9.72998e-05
9.27836e-05
8.80032e-05
8.29713e-05
7.76895e-05
7.21982e-05
6.65867e-05
6.09416e-05
5.53487e-05
4.99147e-05
4.47318e-05
3.98476e-05
3.52831e-05
3.1072e-05
2.72488e-05
2.38567e-05
2.07527e-05
1.85491e-05
1.67073e-05
1.77378e-05
2.92392e-05
0.000128178
0.000129539
0.000131221
0.000132602
0.000134046
0.00013545
0.000136649
0.000137666
0.000138451
0.000138948
0.000139134
0.00013889
0.000138366
0.000137359
0.000135774
0.000133604
0.000130876
0.000127626
0.000123979
0.000119878
0.000115286
0.000110412
0.000105452
0.000100567
9.57473e-05
9.08246e-05
8.56547e-05
7.99929e-05
7.43852e-05
6.86192e-05
5.99057e-05
5.92868e-05
6.36981e-05
2.62327e-05
1.97145e-06
1.13537e-07
0
0
0.00468917
0.000126752
0.000125318
0.000124084
0.000122469
0.000120776
0.00011899
0.000117144
0.000115289
0.000113428
0.000111551
0.000109657
0.000107691
0.000105549
0.000103158
0.000100668
9.80205e-05
9.51433e-05
9.19858e-05
8.85344e-05
8.47912e-05
8.07619e-05
7.64508e-05
7.18628e-05
6.70413e-05
6.2076e-05
5.70414e-05
5.20151e-05
4.70831e-05
4.23326e-05
3.78103e-05
3.35469e-05
2.95732e-05
2.59247e-05
2.26265e-05
1.95532e-05
1.7208e-05
1.51637e-05
1.56572e-05
2.56644e-05
0.000112312
0.000113539
0.000115064
0.000116327
0.000117661
0.000118981
0.000120134
0.000121158
0.000121998
0.000122612
0.000122974
0.000123024
0.000122765
0.000122201
0.000121202
0.00011973
0.000117678
0.000115188
0.000112369
0.000109211
0.000105615
0.000101708
9.76387e-05
9.35383e-05
8.94179e-05
8.51555e-05
8.06618e-05
7.58163e-05
7.06618e-05
6.5939e-05
5.98084e-05
5.42589e-05
6.06854e-05
6.37541e-05
3.06663e-05
2.5463e-06
1.76606e-06
0
0.00518404
0.000111057
0.000109816
0.000108757
0.000107382
0.000105951
0.00010447
0.000102964
0.000101472
9.99972e-05
9.85277e-05
9.70422e-05
9.55269e-05
9.38753e-05
9.20271e-05
9.00745e-05
8.79872e-05
8.57085e-05
8.31824e-05
8.03757e-05
7.72853e-05
7.39119e-05
7.02501e-05
6.62943e-05
6.20876e-05
5.7713e-05
5.32399e-05
4.8737e-05
4.42788e-05
3.99395e-05
3.57684e-05
3.17978e-05
2.80583e-05
2.4582e-05
2.13823e-05
1.83478e-05
1.58813e-05
1.36487e-05
1.36868e-05
2.23498e-05
9.86048e-05
9.97163e-05
0.000101092
0.00010224
0.000103465
0.000104695
0.000105789
0.000106793
0.000107653
0.000108334
0.000108814
0.000109065
0.000109005
0.000108776
0.000108214
0.000107208
0.000105752
0.000103896
0.000101746
9.93348e-05
9.65483e-05
9.34488e-05
9.01533e-05
8.67624e-05
8.32935e-05
7.96613e-05
7.57969e-05
7.16765e-05
6.72276e-05
6.29704e-05
5.87791e-05
5.36634e-05
5.50027e-05
6.83474e-05
6.9711e-05
5.15333e-05
3.63556e-05
5.31086e-08
0.00560688
9.74975e-05
9.64208e-05
9.55128e-05
9.43365e-05
9.31208e-05
9.18868e-05
9.06526e-05
8.94506e-05
8.82793e-05
8.71305e-05
8.59533e-05
8.47863e-05
8.35151e-05
8.21107e-05
8.05725e-05
7.89112e-05
7.71004e-05
7.50875e-05
7.28209e-05
7.0286e-05
6.74758e-05
6.4388e-05
6.10045e-05
5.73561e-05
5.35154e-05
4.95576e-05
4.55414e-05
4.15298e-05
3.75833e-05
3.37517e-05
3.00664e-05
2.65568e-05
2.32507e-05
2.01551e-05
1.71668e-05
1.45971e-05
1.21896e-05
1.18269e-05
1.92994e-05
8.67207e-05
8.77268e-05
8.89687e-05
9.00048e-05
9.11282e-05
9.22652e-05
9.32958e-05
9.42617e-05
9.51165e-05
9.58289e-05
9.63827e-05
9.67482e-05
9.68978e-05
9.683e-05
9.65754e-05
9.6005e-05
9.50545e-05
9.36792e-05
9.20546e-05
9.02387e-05
8.81123e-05
8.56832e-05
8.30446e-05
8.02746e-05
7.73962e-05
7.43475e-05
7.10761e-05
6.759e-05
6.38671e-05
6.01643e-05
5.69345e-05
5.35408e-05
5.33978e-05
6.33937e-05
7.35047e-05
8.57648e-05
0.000113565
1.84632e-07
0.00545298
8.57433e-05
8.48056e-05
8.40258e-05
8.30162e-05
8.19798e-05
8.09479e-05
7.99333e-05
7.89603e-05
7.80271e-05
7.71232e-05
7.62133e-05
7.52804e-05
7.43146e-05
7.32737e-05
7.20311e-05
7.07114e-05
6.9279e-05
6.76767e-05
6.58527e-05
6.37859e-05
6.14669e-05
5.88776e-05
5.59967e-05
5.28461e-05
4.94968e-05
4.60134e-05
4.24481e-05
3.88543e-05
3.52826e-05
3.17777e-05
2.83709e-05
2.50871e-05
2.19492e-05
1.89635e-05
1.60285e-05
1.33705e-05
1.07879e-05
1.00662e-05
1.65038e-05
7.63865e-05
7.7298e-05
7.84156e-05
7.93503e-05
8.03773e-05
8.14231e-05
8.23854e-05
8.33019e-05
8.41355e-05
8.48535e-05
8.54495e-05
8.58918e-05
8.61812e-05
8.62434e-05
8.62238e-05
8.59588e-05
8.5335e-05
8.43888e-05
8.32065e-05
8.18598e-05
8.02496e-05
7.83646e-05
7.62812e-05
7.4057e-05
7.17103e-05
6.91953e-05
6.64774e-05
6.35718e-05
6.05025e-05
5.74566e-05
5.48613e-05
5.2693e-05
5.33314e-05
6.01266e-05
6.66396e-05
8.6317e-05
0.000148073
2.55251e-07
0.00455558
7.55207e-05
7.47034e-05
7.40339e-05
7.31633e-05
7.22763e-05
7.14111e-05
7.05716e-05
6.97824e-05
6.90379e-05
6.83252e-05
6.7621e-05
6.68783e-05
6.61508e-05
6.53288e-05
6.43851e-05
6.33327e-05
6.21854e-05
6.09074e-05
5.94499e-05
5.77795e-05
5.58763e-05
5.37144e-05
5.12709e-05
4.85649e-05
4.56588e-05
4.26097e-05
3.94586e-05
3.62535e-05
3.30352e-05
2.98424e-05
2.67049e-05
2.36423e-05
2.06728e-05
1.78054e-05
1.49342e-05
1.22085e-05
9.45752e-06
8.39954e-06
1.39617e-05
6.7376e-05
6.82026e-05
6.9208e-05
7.00514e-05
7.09832e-05
7.19429e-05
7.28348e-05
7.36975e-05
7.44945e-05
7.52028e-05
7.58128e-05
7.63024e-05
7.66658e-05
7.68673e-05
7.69531e-05
7.6877e-05
7.65573e-05
7.59745e-05
7.51251e-05
7.41297e-05
7.29256e-05
7.14899e-05
6.98763e-05
6.81253e-05
6.62492e-05
6.42142e-05
6.20008e-05
5.96299e-05
5.71444e-05
5.4737e-05
5.27509e-05
5.13026e-05
5.28536e-05
5.8312e-05
6.12997e-05
8.62668e-05
0.000135842
2.39536e-07
0.0030784
6.66041e-05
6.58945e-05
6.53181e-05
6.45653e-05
6.3804e-05
6.30755e-05
6.23781e-05
6.17332e-05
6.11368e-05
6.05745e-05
6.00254e-05
5.94573e-05
5.88742e-05
5.82469e-05
5.7542e-05
5.66713e-05
5.57522e-05
5.47467e-05
5.35965e-05
5.2254e-05
5.06913e-05
4.88882e-05
4.68244e-05
4.45138e-05
4.20063e-05
3.93481e-05
3.65764e-05
3.37272e-05
3.08363e-05
2.79374e-05
2.50562e-05
2.22097e-05
1.94121e-05
1.6667e-05
1.38716e-05
1.11054e-05
8.20765e-06
6.82053e-06
1.16796e-05
5.9501e-05
6.02528e-05
6.11545e-05
6.19146e-05
6.27586e-05
6.36353e-05
6.44572e-05
6.52633e-05
6.60198e-05
6.67026e-05
6.73108e-05
6.78219e-05
6.82325e-05
6.8523e-05
6.86841e-05
6.8758e-05
6.86654e-05
6.83583e-05
6.77877e-05
6.71039e-05
6.62543e-05
6.51965e-05
6.39721e-05
6.26088e-05
6.11232e-05
5.94915e-05
5.7709e-05
5.58069e-05
5.38355e-05
5.19933e-05
5.05723e-05
4.96373e-05
5.16707e-05
5.65414e-05
5.78526e-05
8.69828e-05
0.000112384
2.05708e-07
0.00108403
5.881e-05
5.81938e-05
5.76967e-05
5.70433e-05
5.63885e-05
5.57711e-05
5.51899e-05
5.46622e-05
5.41817e-05
5.37373e-05
5.33093e-05
5.28688e-05
5.24055e-05
5.19302e-05
5.13689e-05
5.06831e-05
4.99603e-05
4.91691e-05
4.82557e-05
4.71684e-05
4.58857e-05
4.43912e-05
4.26641e-05
4.07055e-05
3.85547e-05
3.62452e-05
3.38136e-05
3.12881e-05
2.87003e-05
2.60782e-05
2.34437e-05
2.08103e-05
1.81888e-05
1.55725e-05
1.28628e-05
1.00783e-05
7.05571e-06
5.33714e-06
9.67291e-06
5.26035e-05
5.32888e-05
5.40956e-05
5.47762e-05
5.55401e-05
5.63384e-05
5.70944e-05
5.78414e-05
5.85526e-05
5.92033e-05
5.97961e-05
6.0311e-05
6.07451e-05
6.10976e-05
6.13109e-05
6.15036e-05
6.1582e-05
6.14486e-05
6.11122e-05
6.06731e-05
6.00967e-05
5.93344e-05
5.84294e-05
5.73996e-05
5.62544e-05
5.49784e-05
5.35773e-05
5.20917e-05
5.05762e-05
4.92275e-05
4.82775e-05
4.77893e-05
5.00064e-05
5.43757e-05
5.49029e-05
8.45938e-05
0.000101612
2.01116e-07
0
5.1985e-05
5.1448e-05
5.10176e-05
5.0449e-05
4.98835e-05
4.93585e-05
4.88715e-05
4.84364e-05
4.80483e-05
4.76961e-05
4.73617e-05
4.70197e-05
4.6649e-05
4.62858e-05
4.58436e-05
4.53328e-05
4.47513e-05
4.41042e-05
4.33691e-05
4.24988e-05
4.14631e-05
4.02388e-05
3.88e-05
3.71435e-05
3.53011e-05
3.3303e-05
3.11771e-05
2.89501e-05
2.66459e-05
2.42871e-05
2.18923e-05
1.94701e-05
1.70259e-05
1.45469e-05
1.19374e-05
9.16529e-06
6.04046e-06
3.94574e-06
7.93901e-06
4.65517e-05
4.71759e-05
4.78941e-05
4.85013e-05
4.91924e-05
4.99183e-05
5.06103e-05
5.13018e-05
5.19638e-05
5.2577e-05
5.3145e-05
5.36518e-05
5.4095e-05
5.44724e-05
5.47544e-05
5.49867e-05
5.51471e-05
5.51729e-05
5.50345e-05
5.47661e-05
5.43826e-05
5.38453e-05
5.31934e-05
5.24364e-05
5.15849e-05
5.06261e-05
4.95704e-05
4.84598e-05
4.73492e-05
4.64281e-05
4.58669e-05
4.57617e-05
4.80415e-05
5.19624e-05
5.20381e-05
8.10166e-05
9.66931e-05
2.13166e-07
0
4.59977e-05
4.55286e-05
4.51538e-05
4.46569e-05
4.41665e-05
4.37172e-05
4.33073e-05
4.29474e-05
4.26324e-05
4.23522e-05
4.20891e-05
4.18229e-05
4.15367e-05
4.12403e-05
4.09083e-05
4.05395e-05
4.00332e-05
3.95004e-05
3.89197e-05
3.82416e-05
3.74188e-05
3.64209e-05
3.52204e-05
3.38197e-05
3.22452e-05
3.05232e-05
2.86746e-05
2.67201e-05
2.46782e-05
2.25675e-05
2.04012e-05
1.81853e-05
1.59197e-05
1.35873e-05
1.10968e-05
8.37467e-06
5.19704e-06
2.64975e-06
6.48436e-06
4.12352e-05
4.17984e-05
4.24324e-05
4.2974e-05
4.36004e-05
4.4262e-05
4.48934e-05
4.55296e-05
4.61415e-05
4.67158e-05
4.72529e-05
4.77421e-05
4.81808e-05
4.85693e-05
4.88902e-05
4.91428e-05
4.93659e-05
4.95077e-05
4.95175e-05
4.93955e-05
4.91879e-05
4.8848e-05
4.84016e-05
4.78564e-05
4.72326e-05
4.6527e-05
4.57518e-05
4.4953e-05
4.41807e-05
4.36118e-05
4.33726e-05
4.35666e-05
4.58824e-05
4.94759e-05
4.92522e-05
7.7226e-05
9.1676e-05
2.28183e-07
0
4.0735e-05
4.03249e-05
3.9997e-05
3.95611e-05
3.91334e-05
3.87476e-05
3.83998e-05
3.81004e-05
3.78436e-05
3.76191e-05
3.74114e-05
3.72041e-05
3.69801e-05
3.67427e-05
3.64996e-05
3.61898e-05
3.57804e-05
3.53578e-05
3.49051e-05
3.43774e-05
3.37209e-05
3.29044e-05
3.19021e-05
3.07188e-05
2.93791e-05
2.7902e-05
2.63017e-05
2.45935e-05
2.27908e-05
2.09087e-05
1.8956e-05
1.69371e-05
1.48465e-05
1.26655e-05
1.03117e-05
7.68453e-06
4.53799e-06
1.46163e-06
5.3514e-06
3.65517e-05
3.70568e-05
3.7616e-05
3.81019e-05
3.86697e-05
3.92701e-05
3.98455e-05
4.0428e-05
4.09909e-05
4.15225e-05
4.20268e-05
4.24919e-05
4.29197e-05
4.33057e-05
4.36512e-05
4.39138e-05
4.41902e-05
4.44199e-05
4.45157e-05
4.45187e-05
4.4443e-05
4.42477e-05
4.39509e-05
4.35756e-05
4.31419e-05
4.26501e-05
4.21117e-05
4.15721e-05
4.10784e-05
4.07926e-05
4.08176e-05
4.12445e-05
4.35702e-05
4.69407e-05
4.65329e-05
7.33122e-05
8.65892e-05
2.45218e-07
0
3.6102e-05
3.57431e-05
3.54548e-05
3.50702e-05
3.46956e-05
3.43628e-05
3.40659e-05
3.38149e-05
3.36039e-05
3.34235e-05
3.32607e-05
3.30942e-05
3.29206e-05
3.27249e-05
3.25382e-05
3.22763e-05
3.19828e-05
3.1647e-05
3.12807e-05
3.08592e-05
3.03373e-05
2.96722e-05
2.88373e-05
2.78402e-05
2.67038e-05
2.54431e-05
2.40634e-05
2.25764e-05
2.0991e-05
1.93183e-05
1.75651e-05
1.57333e-05
1.38137e-05
1.17896e-05
9.58768e-06
7.09263e-06
4.07403e-06
3.93605e-07
4.5882e-06
3.24219e-05
3.2871e-05
3.33643e-05
3.38031e-05
3.43179e-05
3.4861e-05
3.53833e-05
3.59135e-05
3.64296e-05
3.69197e-05
3.73886e-05
3.78262e-05
3.82351e-05
3.86122e-05
3.8957e-05
3.92497e-05
3.95266e-05
3.97788e-05
3.99561e-05
4.00598e-05
4.0068e-05
3.99573e-05
3.97567e-05
3.95073e-05
3.9234e-05
3.89319e-05
3.86036e-05
3.82877e-05
3.80277e-05
3.79697e-05
3.82142e-05
3.88185e-05
4.1103e-05
4.43281e-05
4.38612e-05
6.92027e-05
8.17195e-05
2.63342e-07
0
3.20178e-05
3.17023e-05
3.14477e-05
3.11069e-05
3.07779e-05
3.0489e-05
3.0234e-05
3.00222e-05
2.98478e-05
2.97016e-05
2.95707e-05
2.94392e-05
2.93028e-05
2.91491e-05
2.89836e-05
2.87851e-05
2.85817e-05
2.82904e-05
2.799e-05
2.76607e-05
2.72546e-05
2.67154e-05
2.60207e-05
2.51834e-05
2.42247e-05
2.31522e-05
2.19677e-05
2.06776e-05
1.92886e-05
1.78087e-05
1.62422e-05
1.45893e-05
1.28372e-05
1.09735e-05
8.93697e-06
6.61294e-06
3.82097e-06
5.79598e-07
4.19557e-06
2.87772e-05
2.91745e-05
2.96092e-05
3.00058e-05
3.04716e-05
3.09612e-05
3.14329e-05
3.19151e-05
3.23858e-05
3.28342e-05
3.32677e-05
3.36757e-05
3.40613e-05
3.44235e-05
3.47595e-05
3.50637e-05
3.53313e-05
3.55982e-05
3.58249e-05
3.59931e-05
3.60729e-05
3.60423e-05
3.59226e-05
3.57696e-05
3.56148e-05
3.54551e-05
3.52864e-05
3.51421e-05
3.50618e-05
3.51737e-05
3.55887e-05
3.63079e-05
3.85133e-05
4.16058e-05
4.12087e-05
6.47282e-05
7.66128e-05
2.80225e-07
0
2.84131e-05
2.81338e-05
2.79077e-05
2.76057e-05
2.73154e-05
2.70632e-05
2.6843e-05
2.66626e-05
2.65171e-05
2.63978e-05
2.62926e-05
2.61883e-05
2.60755e-05
2.59631e-05
2.58156e-05
2.56719e-05
2.54751e-05
2.5267e-05
2.5036e-05
2.47771e-05
2.44535e-05
2.40171e-05
2.34452e-05
2.27476e-05
2.19425e-05
2.10319e-05
2.00172e-05
1.89017e-05
1.76904e-05
1.63887e-05
1.49986e-05
1.35189e-05
1.19333e-05
1.02361e-05
8.37767e-06
6.25509e-06
3.77085e-06
1.43989e-06
4.11284e-06
2.55512e-05
2.59079e-05
2.62921e-05
2.66465e-05
2.70664e-05
2.75078e-05
2.79328e-05
2.83687e-05
2.87968e-05
2.92061e-05
2.96035e-05
2.99807e-05
3.03408e-05
3.06838e-05
3.10057e-05
3.13118e-05
3.15663e-05
3.18461e-05
3.21132e-05
3.23141e-05
3.24527e-05
3.24849e-05
3.24261e-05
3.23414e-05
3.22721e-05
3.22169e-05
3.21641e-05
3.21453e-05
3.21968e-05
3.24277e-05
3.29602e-05
3.37504e-05
3.58095e-05
3.88524e-05
3.84776e-05
5.96906e-05
7.10002e-05
2.93545e-07
0
2.52264e-05
2.49777e-05
2.4777e-05
2.45089e-05
2.42521e-05
2.4031e-05
2.38396e-05
2.36848e-05
2.35624e-05
2.34636e-05
2.33778e-05
2.32933e-05
2.32042e-05
2.31098e-05
2.29961e-05
2.28652e-05
2.27121e-05
2.2575e-05
2.23694e-05
2.2153e-05
2.19006e-05
2.15638e-05
2.11051e-05
2.05271e-05
1.98479e-05
1.90736e-05
1.82053e-05
1.72452e-05
1.61954e-05
1.50585e-05
1.38335e-05
1.25179e-05
1.10954e-05
9.56719e-06
7.89594e-06
6.00027e-06
3.87165e-06
2.20075e-06
4.23919e-06
2.2696e-05
2.30143e-05
2.33546e-05
2.36722e-05
2.405e-05
2.44465e-05
2.48292e-05
2.52233e-05
2.56102e-05
2.59816e-05
2.63447e-05
2.66908e-05
2.70239e-05
2.73445e-05
2.76489e-05
2.79404e-05
2.8204e-05
2.84662e-05
2.87251e-05
2.89532e-05
2.91372e-05
2.92072e-05
2.91789e-05
2.91303e-05
2.91173e-05
2.91397e-05
2.91786e-05
2.92577e-05
2.94118e-05
2.97281e-05
3.03343e-05
3.11769e-05
3.30113e-05
3.61358e-05
3.55341e-05
5.4253e-05
6.5181e-05
3.03331e-07
0
2.24054e-05
2.21843e-05
2.20056e-05
2.17674e-05
2.15401e-05
2.13453e-05
2.11777e-05
2.10439e-05
2.09397e-05
2.0857e-05
2.07865e-05
2.07167e-05
2.06443e-05
2.05666e-05
2.04768e-05
2.03625e-05
2.02548e-05
2.01258e-05
1.99539e-05
1.97885e-05
1.96038e-05
1.93478e-05
1.89773e-05
1.84947e-05
1.79207e-05
1.72644e-05
1.65263e-05
1.5706e-05
1.4802e-05
1.38139e-05