/*--------------------------------*- C++ -*----------------------------------*\
| =========                 |                                                 |
| \\      /  F ield         | OpenFOAM: The Open Source CFD Toolbox           |
|  \\    /   O peration     | Version:  2306                                  |
|   \\  /    A nd           | Website:  www.openfoam.com                      |
|    \\/     M anipulation  |                                                 |
\*---------------------------------------------------------------------------*/
FoamFile
{
    version     2.0;
    format      ascii;
    arch        "LSB;label=32;scalar=64";
    class       volSymmTensorField;
    location    "50";
    object      turbulenceProperties:devReff;
}
// * * * * * * * * * * * * * * * * * * * * * * * * * * * * * * * * * * * * * //

dimensions      [0 2 -2 0 0 0 0];

internalField   nonuniform List<symmTensor> 
10720
(
(0.00121597 0.00204678 -4.04859e-21 -0.00127136 -1.49887e-20 5.5391e-05)
(0.00160641 0.0023682 2.55373e-20 -0.00164275 9.26252e-20 3.63354e-05)
(0.0022457 0.00266666 -6.11495e-20 -0.00233309 -2.35207e-19 8.7389e-05)
(0.00312659 0.00306554 1.05328e-19 -0.00323982 4.41311e-19 0.000113227)
(0.00433289 0.00343695 -1.10557e-19 -0.00446046 -3.85214e-19 0.000127571)
(0.00603427 0.00368382 -1.31626e-19 -0.00623072 -2.92078e-19 0.000196445)
(0.0083588 0.00380373 2.8906e-19 -0.00861177 7.00966e-19 0.000252964)
(0.011417 0.00358188 -5.97789e-19 -0.0117322 -1.25886e-18 0.00031519)
(0.0153678 0.00275505 -1.23079e-19 -0.0157901 2.06385e-19 0.000422356)
(0.020307 0.00110885 4.80955e-19 -0.0208351 7.8421e-19 0.000528117)
(0.026277 -0.00175463 1.03401e-18 -0.0269403 5.30554e-19 0.000663297)
(0.0334846 -0.00626122 -2.31396e-18 -0.0343163 -2.07691e-18 0.000831743)
(0.0422435 -0.0130364 3.97177e-19 -0.0432845 4.89397e-19 0.00104096)
(0.0532311 -0.0231082 1.82418e-18 -0.0545367 9.24525e-19 0.0013056)
(0.0671696 -0.0380475 -2.91876e-18 -0.0688213 -3.90407e-18 0.0016518)
(0.0853538 -0.0605554 -3.3186e-18 -0.08747 -1.72868e-18 0.00211622)
(0.109958 -0.095608 1.14274e-17 -0.112826 9.91248e-18 0.00286789)
(0.143515 -0.15058 1.4786e-17 -0.147464 1.87508e-17 0.00394828)
(0.194787 -0.244803 -2.13023e-17 -0.200605 -2.79578e-17 0.00581756)
(0.260941 -0.389251 -4.0685e-18 -0.269257 6.25155e-18 0.00831663)
(0.400894 -0.703795 -1.62673e-17 -0.414505 2.2632e-17 0.013611)
(0.541677 -1.10569 1.87032e-18 -0.559879 1.85841e-17 0.0182018)
(0.991806 -2.39526 -6.04247e-17 -1.02558 -2.84682e-16 0.0337781)
(1.47184 -4.5414 1.15677e-16 -1.52774 3.38056e-16 0.0559002)
(0.724116 -3.38914 2.1393e-16 -0.760899 -5.13565e-16 0.036783)
(0.245744 -2.04874 8.46095e-17 -0.257113 1.09868e-15 0.011369)
(0.0657922 -1.23297 -1.20093e-16 -0.0612847 -9.6487e-17 -0.00450747)
(-0.0281275 -0.788918 2.44476e-16 0.0304351 3.50254e-16 -0.00230758)
(-0.0640196 -0.725423 3.56298e-16 0.06439 1.58394e-15 -0.000370308)
(-0.0661387 -0.593551 -2.98499e-16 0.0622212 2.43434e-15 0.00391758)
(-0.0788603 -0.439738 -6.3138e-16 0.0685072 -2.28479e-15 0.0103531)
(-0.127337 -0.464566 7.97531e-17 0.125987 -8.28726e-16 0.00134983)
(-0.090347 -0.444919 -8.85663e-16 0.10405 -2.08535e-15 -0.0137034)
(0.114456 0.059718 -9.34249e-16 -0.115435 -7.17064e-15 0.000978495)
(0.33056 0.73257 9.66592e-16 -0.347061 9.81147e-16 0.0165008)
(0.384134 1.01855 -6.99994e-17 -0.400635 1.28274e-15 0.016501)
(0.274089 0.737907 -2.3337e-16 -0.278364 -5.82096e-16 0.00427496)
(0.238414 0.525867 -8.34163e-17 -0.226893 -1.30882e-15 -0.0115205)
(0.52251 1.67591 -1.81916e-16 -0.607657 2.15537e-16 0.0851475)
(0.000883386 0.00178089 1.25549e-20 -0.000899163 2.86346e-20 1.57763e-05)
(0.000682173 0.00152009 -1.10661e-20 -0.000714871 -2.8043e-20 3.26978e-05)
(0.000511583 0.00124129 -9.12101e-20 -0.000523333 -4.41663e-20 1.17506e-05)
(0.000408167 0.000987457 1.0517e-19 -0.000401888 -5.12784e-21 -6.27843e-06)
(0.000377086 0.000756849 -3.50625e-20 -0.000342432 6.47779e-20 -3.46536e-05)
(0.000417672 0.00060074 -1.77882e-20 -0.000373876 2.10026e-19 -4.3796e-05)
(0.000568074 0.00058311 -2.70774e-20 -0.000540662 -3.06596e-20 -2.74114e-05)
(0.000812102 0.000654282 1.37343e-19 -0.000806511 -1.47209e-19 -5.59106e-06)
(0.00117577 0.000844138 1.43074e-19 -0.00118234 -4.16202e-20 6.57188e-06)
(0.00169374 0.00124055 -7.32188e-20 -0.00171336 -4.42821e-21 1.96183e-05)
(0.00243457 0.00196727 -5.07634e-20 -0.0024728 1.49883e-19 3.82318e-05)
(0.00348595 0.00319721 3.65634e-19 -0.00354637 -1.87452e-20 6.04187e-05)
(0.00490652 0.00516133 5.43842e-19 -0.00499829 -1.16566e-19 9.17656e-05)
(0.00672464 0.00810562 -1.77215e-19 -0.00685645 -1.52121e-19 0.000131804)
(0.00897404 0.0122659 1.93484e-19 -0.00914326 -1.99689e-19 0.000169218)
(0.0117373 0.0181045 3.45125e-19 -0.0119601 -1.1887e-19 0.000222812)
(0.0153316 0.0264566 -4.64666e-19 -0.0156127 5.60037e-19 0.000281048)
(0.0202661 0.0389433 9.07785e-19 -0.0206327 8.04336e-20 0.000366586)
(0.0275428 0.0586583 4.31616e-19 -0.0280298 -8.52781e-19 0.000486975)
(0.0384675 0.0909505 -2.02674e-18 -0.0391687 4.02072e-20 0.000701203)
(0.0557176 0.146793 -6.53909e-18 -0.056773 -4.03491e-19 0.00105544)
(0.083107 0.247093 -3.61187e-18 -0.0848418 -1.55285e-19 0.0017348)
(0.129759 0.445101 9.33603e-18 -0.132887 -1.74059e-18 0.00312713)
(0.19565 0.809172 -1.69358e-17 -0.201789 2.26356e-18 0.00613854)
(0.314006 1.65587 6.69468e-18 -0.327295 4.1215e-18 0.0132887)
(0.472189 3.38015 -2.05563e-16 -0.499808 2.4566e-17 0.0276194)
(0.697545 7.59989 -1.17907e-16 -0.762449 -1.37514e-17 0.0649047)
(0.600685 13.1953 9.29607e-17 -0.711321 -1.22893e-17 0.110636)
(0.0111667 16.6076 1.08531e-17 -0.1354 1.68345e-18 0.124234)
(-0.749298 17.7994 5.63441e-17 0.637514 -4.26933e-17 0.111784)
(-1.4872 18.0454 -5.27743e-16 1.39403 2.43308e-17 0.0931687)
(-2.16439 17.9811 1.69687e-16 2.08912 5.50484e-17 0.0752754)
(-2.77134 17.74 -2.30332e-15 2.71254 -3.44712e-16 0.0588007)
(-3.29887 17.3531 -4.078e-15 3.25487 5.33091e-16 0.0439968)
(-3.74379 16.8342 1.33934e-15 3.71128 3.00769e-16 0.0325061)
(-4.11251 16.2188 1.23327e-15 4.08784 5.11521e-17 0.0246659)
(-4.37373 15.3622 1.7053e-15 4.35068 2.03411e-16 0.023045)
(-4.50769 14.3065 -3.41424e-16 4.48781 -6.13248e-17 0.0198862)
(-4.1221 11.6381 -5.2874e-15 4.06206 -8.20025e-16 0.0600345)
(0.000532755 -0.000303969 6.42701e-22 -0.000503519 6.39766e-22 -2.92352e-05)
(0.000471151 -0.000396396 1.76091e-20 -0.000434475 5.39391e-20 -3.66757e-05)
(0.000376895 -0.000480592 -1.05945e-20 -0.000329566 -2.38412e-20 -4.73282e-05)
(0.000273535 -0.000527548 -3.02639e-20 -0.000216281 -5.28132e-20 -5.7254e-05)
(0.000166932 -0.000542576 1.00699e-19 -0.000101183 1.72434e-19 -6.57493e-05)
(6.19842e-05 -0.000529651 3.85368e-20 1.25314e-05 6.22189e-20 -7.45156e-05)
(-2.38326e-05 -0.000490294 1.75543e-19 0.000106233 1.75444e-19 -8.24001e-05)
(-8.72883e-05 -0.000434149 -7.56079e-20 0.00017563 -2.17752e-20 -8.8342e-05)
(-0.000129521 -0.000371048 1.21291e-19 0.000222565 9.77484e-20 -9.30436e-05)
(-0.000149438 -0.000308506 7.57097e-21 0.000245662 2.76675e-21 -9.62234e-05)
(-0.000152954 -0.000251838 -1.88875e-19 0.000250821 -1.6117e-19 -9.78671e-05)
(-0.000145354 -0.000204725 2.40491e-19 0.000244025 2.72238e-19 -9.86708e-05)
(-0.000129906 -0.00016833 1.38675e-19 0.000228834 7.5452e-20 -9.89273e-05)
(-0.00011089 -0.000144238 -1.99552e-20 0.00020849 1.03775e-20 -9.76001e-05)
(-9.44564e-05 -0.00014384 -1.08521e-19 0.000195964 9.83918e-21 -0.000101508)
(-8.0929e-05 -0.000182806 1.82208e-19 0.000203585 1.854e-19 -0.000122656)
(-6.13221e-05 -0.000381582 2.6355e-19 0.000279144 -2.68837e-19 -0.000217822)
(0.000108571 -0.00110713 -2.07946e-18 0.000374089 -2.21128e-18 -0.000482661)
(0.000947036 -0.00334411 4.67565e-19 6.1502e-05 3.29068e-18 -0.00100854)
(0.00357931 -0.00916697 4.03739e-18 -0.00181767 -8.34638e-19 -0.00176164)
(0.014128 -0.0320887 9.65515e-18 -0.0105323 3.85549e-18 -0.00359568)
(0.04827 -0.106787 -1.60106e-17 -0.042008 -1.26575e-17 -0.006262)
(0.159179 -0.372517 4.79265e-17 -0.149887 1.08996e-16 -0.00929141)
(0.658758 -1.76052 2.39607e-18 -0.649779 -1.44636e-16 -0.00897913)
(1.23777 -4.04946 -2.58933e-16 -1.25855 3.08671e-16 0.0207793)
(1.44004 -6.4427 4.75638e-17 -1.47347 -2.34505e-15 0.0334309)
(1.0396 -8.33213 1.90671e-17 -1.06797 2.65775e-16 0.0283636)
(0.312158 -8.30086 -2.61026e-16 -0.329032 -1.93694e-15 0.0168748)
(-0.182986 -7.11822 -4.38964e-16 0.20084 -9.07337e-15 -0.0178532)
(-0.445999 -5.83495 -3.8677e-16 0.473899 -1.2052e-14 -0.0279003)
(-0.635436 -4.6705 1.02477e-15 0.623222 1.32636e-14 0.0122141)
(-0.600646 -3.31183 -1.04336e-15 0.543526 2.58619e-15 0.0571205)
(-0.231672 -2.06404 -6.62986e-16 0.232582 1.36588e-15 -0.000910709)
(-0.13475 -1.92701 6.67736e-15 0.201446 4.0916e-14 -0.0666961)
(-0.521924 -2.42813 -9.19935e-16 0.568421 -4.4564e-15 -0.0464963)
(-1.04965 -2.8264 -1.41052e-15 1.05386 -8.42828e-15 -0.00421385)
(-1.29903 -2.89309 4.52823e-16 1.29411 3.11463e-15 0.00492073)
(-1.4296 -3.36795 1.31844e-15 1.46103 9.74536e-15 -0.0314301)
(-2.17352 -3.45879 1.80481e-16 2.14096 -7.69002e-16 0.0325508)
(0.000572034 -0.000190679 9.26811e-21 -0.000551418 -1.05264e-21 -2.06166e-05)
(0.000583345 -7.36419e-05 -1.2318e-20 -0.000569397 -1.20324e-19 -1.39476e-05)
(0.000561115 6.2979e-05 -2.57287e-20 -0.000557295 9.2563e-21 -3.82037e-06)
(0.000493226 0.00019876 -2.31681e-20 -0.000496501 2.0632e-19 3.27552e-06)
(0.000389295 0.000303968 4.59944e-20 -0.000397461 -2.2633e-20 8.16609e-06)
(0.000274216 0.000367107 -3.46358e-21 -0.000286252 -2.29764e-19 1.20362e-05)
(0.000149766 0.000394857 -3.67008e-20 -0.000160981 -1.1654e-19 1.12152e-05)
(2.35819e-05 0.000380447 -2.36929e-19 -2.78178e-05 1.12083e-19 4.23589e-06)
(-7.5948e-05 0.000328546 7.31689e-20 8.13239e-05 7.6021e-20 -5.37591e-06)
(-0.000136189 0.000259236 -4.22721e-20 0.00015019 -4.44153e-20 -1.40014e-05)
(-0.000160418 0.000191142 -3.60178e-20 0.000180918 -4.39422e-20 -2.05008e-05)
(-0.000159952 0.000134938 -4.8282e-20 0.000184793 -3.05869e-20 -2.48405e-05)
(-0.000145959 9.31506e-05 -3.63177e-21 0.000173278 1.62728e-20 -2.73185e-05)
(-0.000125989 6.50461e-05 2.64606e-20 0.000154243 4.91486e-20 -2.82543e-05)
(-0.000105337 4.78566e-05 5.72596e-20 0.00013327 4.7857e-21 -2.79326e-05)
(-8.69586e-05 3.78047e-05 -1.01421e-19 0.000113722 1.45744e-20 -2.67636e-05)
(-7.13535e-05 3.23242e-05 1.04046e-19 9.64414e-05 -1.00453e-20 -2.50879e-05)
(-5.87044e-05 2.95569e-05 -2.03099e-20 8.1866e-05 -9.99875e-21 -2.31616e-05)
(-4.86064e-05 2.79807e-05 -4.78897e-20 6.96933e-05 3.17915e-20 -2.10869e-05)
(-4.06323e-05 2.68069e-05 -3.56447e-20 5.97048e-05 1.67128e-20 -1.90725e-05)
(-3.43888e-05 2.55973e-05 -8.4105e-20 5.17057e-05 3.70045e-20 -1.73169e-05)
(-2.98771e-05 2.442e-05 -1.06139e-19 4.60223e-05 2.69214e-20 -1.61453e-05)
(-2.72284e-05 2.37786e-05 -1.35861e-19 4.33045e-05 1.82737e-20 -1.60761e-05)
(-2.54336e-05 2.40649e-05 6.58811e-20 4.24677e-05 -7.22308e-21 -1.70342e-05)
(-7.28196e-05 8.09877e-05 -1.77766e-20 0.000129297 -8.09311e-21 -5.64779e-05)
(-0.000580755 0.00078611 1.4289e-18 0.00108975 -4.40307e-19 -0.000509)
(-0.00344539 0.0055195 8.3851e-18 0.00670942 -2.56795e-20 -0.00326403)
(-0.0159661 0.030633 1.47697e-18 0.0316949 2.79526e-18 -0.0157289)
(-0.0357016 0.0863762 -6.62922e-19 0.0710372 -8.99823e-19 -0.0353356)
(-0.0523786 0.162904 7.49296e-17 0.101886 1.68172e-17 -0.0495069)
(-0.0633065 0.242588 5.25718e-16 0.115943 -4.39719e-17 -0.0526368)
(-0.0717108 0.309458 3.11269e-16 0.119861 3.08812e-17 -0.0481504)
(-0.0815838 0.360694 2.15116e-15 0.123515 5.83231e-17 -0.041931)
(-0.0940897 0.402363 3.03762e-15 0.131 -5.04667e-16 -0.0369103)
(-0.109356 0.43936 -7.37232e-16 0.14244 1.67866e-16 -0.033084)
(-0.125229 0.47911 -5.90508e-16 0.155412 1.04962e-17 -0.0301836)
(-0.144118 0.519956 -1.50092e-15 0.170291 -9.23689e-17 -0.026173)
(-0.172212 0.647503 -2.87421e-15 0.198191 -2.47921e-16 -0.0259784)
(-0.225154 0.921407 -2.24182e-15 0.199026 1.07367e-15 0.0261285)
(0.00036004 -0.000197357 3.6777e-21 -0.000370568 8.35533e-21 1.05277e-05)
(0.000306852 -0.000260007 -3.29144e-20 -0.000321046 -4.35538e-20 1.41938e-05)
(0.000232584 -0.000312138 -3.20769e-21 -0.000250752 -1.28837e-20 1.81677e-05)
(0.000145056 -0.000342237 3.25706e-20 -0.000168557 3.99624e-20 2.3501e-05)
(5.41e-05 -0.000349787 -6.55493e-20 -8.23765e-05 -9.5407e-20 2.82765e-05)
(-3.63839e-05 -0.00033297 -6.50051e-20 2.96688e-06 -9.91e-20 3.3417e-05)
(-0.000116717 -0.000293312 -1.46679e-19 7.75972e-05 -1.90542e-19 3.91195e-05)
(-0.000179956 -0.000237864 -8.39711e-21 0.000135819 -6.05383e-21 4.41372e-05)
(-0.000224426 -0.000171966 -8.7489e-20 0.000175628 -1.34842e-19 4.87986e-05)
(-0.000249075 -0.000103107 2.58326e-19 0.000195948 2.65402e-19 5.31265e-05)
(-0.000255879 -3.69629e-05 -2.30147e-20 0.000199285 4.88501e-20 5.65946e-05)
(-0.000248173 2.29139e-05 3.99333e-20 0.000188668 2.13201e-20 5.95044e-05)
(-0.000229776 7.43095e-05 -2.06502e-19 0.000167973 -2.28555e-19 6.18023e-05)
(-0.000203839 0.000116474 1.10737e-19 0.000140576 -2.91725e-21 6.32634e-05)
(-0.000176572 0.000149875 4.1829e-20 0.000113812 9.88378e-20 6.27599e-05)
(-0.00015365 0.000177919 5.3851e-20 9.22459e-05 2.38047e-20 6.14038e-05)
(-0.000127791 0.000189219 -2.2835e-19 7.26467e-05 -1.26228e-19 5.51442e-05)
(-0.000104612 0.000188514 1.89108e-19 5.78683e-05 1.36523e-19 4.67435e-05)
(-7.74582e-05 0.000161389 5.5006e-20 4.34531e-05 3.17613e-21 3.40052e-05)
(-0.000361725 0.000807043 -1.04755e-18 0.000216469 -1.83154e-19 0.000145256)
(-0.000162454 0.000354941 5.11251e-19 0.000105893 -1.58106e-19 5.65609e-05)
(-0.000653047 0.00129518 1.37688e-19 0.000429356 1.14818e-18 0.000223691)
(0.000129215 -0.000373075 3.36453e-19 -0.000168556 -3.71031e-19 3.93403e-05)
(0.017889 -0.047181 -8.08052e-18 -0.0176645 -7.34573e-18 -0.00022447)
(0.164113 -0.497184 6.32547e-18 -0.160888 5.14892e-17 -0.00322443)
(0.549949 -2.02936 -1.06612e-16 -0.543899 7.23506e-17 -0.00604963)
(1.09592 -5.41954 5.90851e-17 -1.09111 2.01627e-17 -0.00481276)
(1.14558 -9.02353 -1.35125e-16 -1.14688 4.76257e-16 0.0013028)
(0.498799 -10.0246 -7.8298e-16 -0.499735 1.1706e-15 0.000935616)
(-0.175854 -9.07251 7.51512e-16 0.188361 1.18227e-15 -0.0125064)
(-0.633339 -7.58192 7.25047e-16 0.622271 -1.2285e-15 0.011068)
(-0.68311 -5.61016 -1.58902e-15 0.624163 2.92618e-15 0.0589466)
(-0.272332 -3.93848 1.85506e-15 0.251558 1.93008e-14 0.020774)
(-0.330285 -4.17975 -1.1307e-15 0.40197 -1.47634e-14 -0.0716848)
(-1.11935 -5.0164 -1.32521e-15 1.18319 -1.9447e-15 -0.0638361)
(-1.83505 -4.87345 -6.568e-16 1.84789 -7.32165e-15 -0.0128446)
(-2.00396 -4.26433 1.31139e-15 2.00547 -1.33855e-15 -0.00151204)
(-1.69312 -3.70481 3.1117e-16 1.76612 -6.37523e-15 -0.0729995)
(-2.21405 -3.51579 -3.22878e-16 2.20547 5.27112e-16 0.00858419)
(0.000397772 -0.000122216 -7.91849e-21 -0.000406534 -1.40654e-20 8.76204e-06)
(0.000416501 -4.47008e-05 -1.30982e-20 -0.000422413 1.78546e-20 5.91176e-06)
(0.000414615 4.71574e-05 1.02602e-19 -0.000418862 1.08747e-19 4.24711e-06)
(0.000382393 0.000138269 -1.53731e-22 -0.000383271 -9.30264e-20 8.77954e-07)
(0.000320386 0.000217683 -7.75264e-21 -0.000319938 -8.31273e-20 -4.47898e-07)
(0.000237432 0.00027446 -3.72974e-20 -0.000238019 1.08737e-19 5.86976e-07)
(0.000143164 0.00030621 5.53688e-20 -0.000144309 1.11707e-19 1.14496e-06)
(4.91977e-05 0.000303421 1.27238e-19 -5.01817e-05 6.32858e-20 9.84001e-07)
(-2.82316e-05 0.000269538 8.12455e-20 2.62257e-05 -9.06487e-20 2.00585e-06)
(-8.13194e-05 0.000217822 3.33505e-20 7.69884e-05 6.16563e-20 4.33099e-06)
(-0.000109338 0.000161203 -8.46995e-20 0.000102179 3.00339e-20 7.15993e-06)
(-0.000117299 0.000109357 3.43026e-21 0.000107453 4.02424e-20 9.84542e-06)
(-0.000112064 6.67912e-05 4.74413e-20 9.98528e-05 -5.8027e-20 1.22108e-05)
(-9.93908e-05 3.47494e-05 1.41064e-19 8.51512e-05 -7.31103e-20 1.42395e-05)
(-8.43424e-05 1.26511e-05 -1.05262e-20 6.87465e-05 -1.9452e-21 1.55959e-05)
(-6.98389e-05 -1.96217e-06 -8.8229e-21 5.33124e-05 2.90438e-20 1.65265e-05)
(-5.72537e-05 -1.10749e-05 1.13392e-19 4.02563e-05 -7.03686e-20 1.69973e-05)
(-4.69929e-05 -1.6565e-05 1.03062e-20 2.9833e-05 5.47415e-21 1.71599e-05)
(-3.91531e-05 -1.99032e-05 1.15636e-19 2.2144e-05 -1.82755e-20 1.70091e-05)
(-3.31702e-05 -2.23205e-05 1.19468e-19 1.63937e-05 -2.55582e-21 1.67764e-05)
(-2.85491e-05 -2.44552e-05 3.03839e-19 1.21123e-05 -4.77727e-20 1.64368e-05)
(-2.45437e-05 -2.69099e-05 3.70842e-19 8.371e-06 -5.72691e-20 1.61727e-05)
(-2.02024e-05 -2.98982e-05 2.03652e-19 4.17677e-06 -1.65722e-20 1.60256e-05)
(-1.39406e-05 -3.2845e-05 4.30318e-20 -2.59875e-06 -2.99326e-21 1.65394e-05)
(-5.76558e-06 -3.3571e-05 -5.14274e-20 -1.18115e-05 2.62988e-21 1.7577e-05)
(2.20269e-06 -3.14558e-05 2.00424e-19 -2.08199e-05 -1.09656e-21 1.86172e-05)
(8.30221e-06 -2.64317e-05 -5.42986e-20 -2.70812e-05 9.32916e-21 1.87789e-05)
(1.23404e-05 -2.13513e-05 -4.24928e-20 -3.13226e-05 -2.9476e-22 1.89822e-05)
(0.000245266 -0.000258927 9.79265e-20 -0.000558859 1.05152e-20 0.000313593)
(0.00110831 -0.00050519 -2.98917e-18 -0.00239115 3.54115e-19 0.00128284)
(0.00257102 0.0011273 -1.52218e-17 -0.00543386 6.1344e-18 0.00286284)
(0.00327772 0.00841797 -8.29452e-17 -0.00718029 -3.38178e-18 0.00390257)
(0.00162885 0.0244505 -1.906e-16 -0.00512096 4.0105e-17 0.00349211)
(-0.00297978 0.0499695 -4.48534e-16 0.00120329 3.99082e-17 0.0017765)
(-0.0104242 0.0833158 -1.04312e-15 0.0107817 -2.71106e-16 -0.000357491)
(-0.0179815 0.12115 2.50786e-16 0.0200007 1.00812e-16 -0.00201925)
(-0.0259214 0.158884 -1.29527e-15 0.0289315 -2.87566e-16 -0.00301018)
(-0.013803 0.189921 3.51586e-15 0.0140182 5.7657e-16 -0.000215154)
(-0.0260581 0.266722 5.21281e-15 0.0142714 9.67532e-16 0.0117867)
(0.000291382 -0.000160018 7.58001e-21 -0.000288673 8.83592e-21 -2.70857e-06)
(0.000258373 -0.000209125 -7.94389e-21 -0.000254925 -1.41694e-20 -3.44859e-06)
(0.000210806 -0.000254492 -4.81596e-21 -0.00020562 -1.33961e-20 -5.18633e-06)
(0.000153876 -0.000288065 5.19684e-20 -0.000146856 7.23909e-20 -7.02013e-06)
(9.1938e-05 -0.000306449 4.23241e-20 -8.28787e-05 6.1807e-20 -9.05928e-06)
(2.73586e-05 -0.00030909 6.55055e-20 -1.58662e-05 7.70527e-20 -1.14924e-05)
(-3.33326e-05 -0.000296298 8.01175e-20 4.74664e-05 8.55892e-20 -1.41338e-05)
(-8.52058e-05 -0.000270134 -3.73877e-20 0.000102132 -4.94888e-20 -1.69262e-05)
(-0.000126164 -0.000234187 -1.59716e-19 0.0001462 -1.47109e-19 -2.00358e-05)
(-0.000154161 -0.000193013 1.76587e-19 0.000177157 1.06495e-19 -2.29965e-05)
(-0.000169601 -0.000150396 1.66139e-19 0.000195531 1.35477e-19 -2.59308e-05)
(-0.000174043 -0.000109589 2.20848e-19 0.000202705 1.15583e-19 -2.86623e-05)
(-0.000169524 -7.29792e-05 -3.29183e-19 0.000200708 -1.22271e-19 -3.11843e-05)
(-0.000158042 -4.17387e-05 -3.19822e-19 0.000191375 -2.04202e-19 -3.33327e-05)
(-0.000141629 -1.65409e-05 3.87497e-19 0.000176503 1.31538e-19 -3.48734e-05)
(-0.000121626 2.05002e-06 8.98434e-20 0.000157479 5.01404e-20 -3.5853e-05)
(-9.88149e-05 1.70208e-05 -5.44812e-20 0.00013361 5.12858e-21 -3.47948e-05)
(-7.59662e-05 2.88788e-05 -2.06224e-19 0.000108461 -1.26745e-19 -3.24952e-05)
(-5.26846e-05 3.77887e-05 4.05963e-20 7.97388e-05 -1.67645e-20 -2.70542e-05)
(-3.42685e-05 4.30698e-05 2.03136e-19 5.34295e-05 6.41028e-20 -1.9161e-05)
(-2.61196e-05 4.6988e-05 -2.29372e-19 3.74293e-05 -6.72881e-20 -1.13097e-05)
(-6.50771e-05 0.000124159 2.18079e-19 7.91069e-05 3.68437e-20 -1.40297e-05)
(-4.6826e-05 9.07554e-05 -3.63639e-20 5.17919e-05 -8.52383e-21 -4.96584e-06)
(-0.00146528 0.00300898 -3.69742e-18 0.00161665 1.08964e-18 -0.000151365)
(4.12908e-06 -1.85556e-05 4.85771e-20 -1.01379e-06 -8.93993e-21 -3.1153e-06)
(0.0190068 -0.0631762 -1.75377e-17 -0.0179321 1.53081e-17 -0.00107469)
(0.1785 -0.730169 2.77107e-19 -0.174486 -3.92908e-18 -0.00401374)
(0.626406 -3.44716 1.27679e-16 -0.620582 -4.20819e-17 -0.00582411)
(0.901104 -7.90589 -1.39218e-17 -0.899069 7.48755e-16 -0.00203512)
(0.447711 -10.4189 5.95665e-16 -0.450563 -1.58925e-15 0.00285243)
(-0.250927 -10.0061 -1.63434e-17 0.235157 -3.26826e-15 0.0157693)
(-0.518937 -7.9423 3.69343e-15 0.482325 3.13035e-15 0.0366117)
(-0.290536 -6.0591 2.07011e-15 0.282596 1.83531e-15 0.00794019)
(-0.512044 -6.15253 -1.56078e-15 0.570808 -4.51505e-15 -0.0587645)
(-1.51901 -6.8284 -2.25642e-15 1.56943 -7.23282e-16 -0.0504178)
(-2.40614 -6.41909 3.32827e-15 2.41526 1.9827e-14 -0.00912015)
(-2.50958 -5.2934 -5.08715e-15 2.50783 -4.5148e-15 0.00175121)
(-1.95571 -4.13686 -5.36589e-15 2.02983 -8.41376e-16 -0.0741212)
(-2.10293 -3.34629 3.27556e-15 2.06439 -1.22009e-15 0.0385373)
(0.000313089 -0.000102492 -1.45707e-20 -0.000312229 -2.16091e-20 -8.60182e-07)
(0.000322876 -4.38119e-05 -1.10608e-20 -0.000322553 4.30132e-20 -3.22361e-07)
(0.000318233 2.50158e-05 4.4042e-20 -0.000319327 4.53745e-20 1.09378e-06)
(0.000295093 9.35713e-05 -4.16956e-20 -0.000295215 1.87216e-20 1.22341e-07)
(0.000253409 0.000154969 2.37673e-20 -0.000253156 8.40504e-20 -2.53184e-07)
(0.000196716 0.000202278 8.12262e-20 -0.000196811 -6.42954e-20 9.51756e-08)
(0.000128452 0.000230761 4.21088e-20 -0.000129324 3.39519e-21 8.71992e-07)
(5.80392e-05 0.000235465 -1.03584e-19 -5.9e-05 -5.6901e-20 9.60782e-07)
(-3.63517e-06 0.000218813 -4.11551e-20 2.95494e-06 3.36758e-21 6.80238e-07)
(-5.08706e-05 0.000188054 1.62681e-19 5.07854e-05 6.88707e-22 8.5214e-08)
(-8.14203e-05 0.000150893 4.56356e-20 8.23765e-05 -7.82981e-21 -9.56174e-07)
(-9.68082e-05 0.000114096 7.32713e-20 9.91303e-05 -3.90792e-20 -2.32214e-06)
(-0.000100708 8.18022e-05 -1.5782e-19 0.000104478 -1.48839e-20 -3.76989e-06)
(-9.70658e-05 5.59106e-05 -1.46103e-19 0.000102233 3.96871e-20 -5.16718e-06)
(-8.94053e-05 3.68515e-05 2.74981e-20 9.58992e-05 1.76965e-20 -6.49383e-06)
(-8.03478e-05 2.34498e-05 3.80691e-20 8.79043e-05 -1.0799e-20 -7.55654e-06)
(-7.1456e-05 1.44437e-05 -1.26743e-19 7.98317e-05 1.34225e-20 -8.37575e-06)
(-6.34976e-05 8.50829e-06 5.70252e-21 7.24495e-05 -1.03209e-20 -8.95195e-06)
(-5.68531e-05 4.47136e-06 -4.10748e-20 6.62043e-05 1.17374e-21 -9.35122e-06)
(-5.14096e-05 1.29787e-06 1.0217e-19 6.09432e-05 -3.33383e-20 -9.53358e-06)
(-4.6919e-05 -1.60656e-06 -1.16581e-19 5.65066e-05 5.8486e-22 -9.58759e-06)
(-4.29234e-05 -4.70525e-06 -2.10881e-19 5.24346e-05 1.46258e-20 -9.51119e-06)
(-3.88145e-05 -8.18247e-06 2.38548e-20 4.81753e-05 -8.79971e-21 -9.36076e-06)
(-3.38096e-05 -1.15668e-05 6.33541e-20 4.29357e-05 -8.96429e-21 -9.12613e-06)
(-2.82253e-05 -1.34716e-05 1.64367e-19 3.73169e-05 -1.31784e-20 -9.0916e-06)
(-2.34102e-05 -1.36574e-05 -1.62174e-19 3.28837e-05 1.80802e-20 -9.47353e-06)
(-1.97427e-05 -1.30363e-05 -2.36196e-20 2.97096e-05 -5.49937e-21 -9.96693e-06)
(-1.71304e-05 -1.2368e-05 1.67291e-20 2.7608e-05 -4.27897e-21 -1.04776e-05)
(-1.37491e-05 -1.08682e-05 -7.79453e-21 2.36407e-05 8.12505e-22 -9.89164e-06)
(-1.14157e-05 -1.02833e-05 -1.121e-20 2.08857e-05 -8.54481e-21 -9.47e-06)
(-4.74474e-06 -5.26421e-06 -1.05196e-20 9.32518e-06 -6.71601e-21 -4.58044e-06)
(-4.24713e-06 -6.48967e-06 5.98875e-20 9.44749e-06 4.33842e-21 -5.20037e-06)
(-3.37818e-05 -9.71747e-05 3.88728e-18 0.000112519 9.51507e-19 -7.87373e-05)
(8.27534e-05 -3.59853e-05 3.15324e-17 5.17729e-05 3.69318e-19 -0.000134526)
(0.00052629 0.000981509 1.15316e-16 -0.000488546 -3.03168e-18 -3.77439e-05)
(0.00153484 0.00468283 -2.337e-16 -0.00179958 -2.11641e-17 0.000264741)
(0.00268547 0.0144478 9.40476e-16 -0.00333698 1.27901e-16 0.000651506)
(0.00939419 0.0367562 -6.26299e-16 -0.0109965 -1.42445e-16 0.00160236)
(0.0017885 0.107958 -4.33968e-16 -0.00604665 -1.18414e-15 0.00425814)
(0.000223933 -0.000121992 -1.38255e-20 -0.000224707 -1.2633e-20 7.73127e-07)
(0.000197747 -0.000158777 1.39456e-21 -0.00019915 -1.19956e-21 1.40269e-06)
(0.000161083 -0.000192568 1.74655e-20 -0.000162778 2.20432e-20 1.69476e-06)
(0.000116718 -0.000217375 -9.54141e-20 -0.000119048 -9.20994e-20 2.32965e-06)
(6.78948e-05 -0.000231007 -7.05933e-20 -7.10686e-05 -8.23721e-20 3.17372e-06)
(1.63757e-05 -0.000232608 1.52353e-19 -2.03767e-05 1.53946e-19 4.00104e-06)
(-3.31907e-05 -0.000221653 -1.53813e-19 2.8097e-05 -1.56345e-19 5.09369e-06)
(-7.70326e-05 -0.000199347 -6.02476e-20 7.07129e-05 -5.1661e-20 6.31974e-06)
(-0.000112704 -0.000167939 -1.59641e-19 0.000105136 -1.18989e-19 7.56802e-06)
(-0.000138271 -0.000130721 -4.11522e-20 0.000129228 -5.17758e-20 9.04249e-06)
(-0.000153243 -9.08127e-05 2.1968e-20 0.000142673 -2.81948e-21 1.05701e-05)
(-0.000158134 -5.11373e-05 -1.31715e-19 0.000145961 -1.38453e-19 1.21726e-05)
(-0.000154159 -1.40989e-05 3.65393e-19 0.00014032 2.40897e-19 1.38391e-05)
(-0.000142921 1.86895e-05 -1.03277e-19 0.00012736 -1.79706e-20 1.55615e-05)
(-0.00012607 4.59856e-05 -2.98336e-19 0.000108857 -1.35104e-19 1.72134e-05)
(-0.00010566 6.75341e-05 1.87588e-19 8.67943e-05 1.43953e-20 1.88654e-05)
(-8.39373e-05 8.24557e-05 -1.42794e-19 6.42544e-05 -7.80024e-20 1.96829e-05)
(-6.24707e-05 9.0134e-05 4.30258e-21 4.32658e-05 9.14275e-20 1.92049e-05)
(-4.16541e-05 9.03783e-05 -3.01e-20 2.41313e-05 -2.32145e-20 1.75228e-05)
(-2.35717e-05 8.56331e-05 -2.55333e-19 8.42953e-06 -1.61084e-19 1.51422e-05)
(-8.61895e-06 6.53225e-05 1.64567e-19 -1.31017e-06 1.43212e-19 9.92912e-06)
(-5.00882e-06 4.72478e-05 2.13183e-21 1.22245e-07 -7.99909e-20 4.88657e-06)
(-1.24048e-05 5.32934e-05 3.08686e-20 9.96665e-06 9.28485e-21 2.43818e-06)
(-2.28209e-05 7.51413e-05 9.83417e-20 2.14367e-05 2.68059e-21 1.38422e-06)
(-2.42211e-05 8.547e-05 -3.4245e-20 2.36195e-05 -9.872e-21 6.01557e-07)
(-0.000949252 0.00492549 9.73461e-18 0.000978168 1.78303e-18 -2.89163e-05)
(0.00718634 -0.0134877 -1.60936e-18 -0.00673365 2.59261e-19 -0.000452694)
(0.0422836 -0.172742 -1.36287e-17 -0.0414039 -8.25907e-18 -0.00087967)
(0.323148 -1.94508 -3.60784e-17 -0.319384 8.268e-17 -0.00376337)
(0.625226 -6.30803 -2.81198e-15 -0.624349 4.62356e-17 -0.000877325)
(0.339399 -9.60676 -1.12442e-15 -0.359161 1.99636e-16 0.0197627)
(-0.0872295 -9.45836 8.27336e-16 0.0586054 -5.38478e-15 0.0286241)
(-0.201723 -8.13934 2.75882e-15 0.214021 -6.62217e-15 -0.0122979)
(-0.690362 -8.13467 -6.27612e-15 0.752546 -4.14437e-16 -0.0621841)
(-1.86526 -8.51019 6.11162e-15 1.90454 1.08479e-14 -0.0392791)
(-2.81897 -7.71236 -1.86533e-15 2.82044 4.3567e-16 -0.00147023)
(-2.84658 -6.09816 -5.74757e-16 2.83807 1.33022e-14 0.00850343)
(-2.11857 -4.44894 3.94281e-16 2.18694 4.299e-15 -0.0683719)
(-1.94655 -3.09967 -8.53182e-15 1.8929 2.73822e-15 0.0536491)
(0.00024165 -7.96238e-05 1.01639e-20 -0.000242614 -4.24021e-21 9.63897e-07)
(0.000250628 -3.6062e-05 -3.49746e-20 -0.000251107 -2.63336e-20 4.79103e-07)
(0.000249114 1.49752e-05 -6.90407e-21 -0.000249868 1.77173e-20 7.54476e-07)
(0.000233811 6.66105e-05 2.97191e-20 -0.000233455 -8.67798e-20 -3.56752e-07)
(0.000204697 0.000114185 -1.90727e-19 -0.000204194 -1.56992e-19 -5.02793e-07)
(0.000163746 0.000152788 -1.69706e-19 -0.000163547 1.17683e-19 -1.9888e-07)
(0.000113433 0.000178516 2.27396e-19 -0.000113587 3.68546e-20 1.53833e-07)
(6.01839e-05 0.000187201 -1.08564e-19 -6.03563e-05 -1.04923e-19 1.72339e-07)
(1.14932e-05 0.000179711 -6.45423e-20 -1.16586e-05 1.95919e-20 1.65402e-07)
(-2.8098e-05 0.000160108 -3.90593e-20 2.7807e-05 -7.15307e-20 2.90987e-07)
(-5.59452e-05 0.000133361 3.54143e-21 5.54591e-05 2.99819e-20 4.86076e-07)
(-7.20768e-05 0.000104527 -4.83901e-20 7.13069e-05 -2.60907e-20 7.69873e-07)
(-7.84836e-05 7.73087e-05 -1.03528e-19 7.73011e-05 8.72258e-20 1.18247e-06)
(-7.78062e-05 5.38472e-05 1.18653e-19 7.61057e-05 1.06985e-20 1.70056e-06)
(-7.26755e-05 3.51421e-05 7.68247e-20 7.04135e-05 -2.94208e-20 2.26204e-06)
(-6.53875e-05 2.09717e-05 -1.5766e-20 6.25315e-05 -1.68175e-20 2.85594e-06)
(-5.75395e-05 1.0657e-05 4.49502e-20 5.41013e-05 -2.60704e-22 3.43821e-06)
(-5.00978e-05 3.29852e-06 -7.72998e-20 4.61434e-05 1.84083e-20 3.95435e-06)
(-4.35841e-05 -1.97273e-06 5.46583e-20 3.92252e-05 -6.65308e-21 4.35897e-06)
(-3.80781e-05 -5.98658e-06 -6.47695e-20 3.33981e-05 -7.53871e-21 4.68e-06)
(-3.34287e-05 -9.34155e-06 7.15393e-20 2.85085e-05 -5.53007e-21 4.92016e-06)
(-2.92498e-05 -1.24764e-05 8.14932e-20 2.41238e-05 -1.4692e-21 5.12596e-06)
(-2.50155e-05 -1.55665e-05 -1.50157e-20 1.97198e-05 4.3666e-21 5.2957e-06)
(-2.00224e-05 -1.82967e-05 -1.63573e-19 1.45044e-05 1.282e-20 5.51801e-06)
(-1.43474e-05 -1.97291e-05 -5.36016e-20 8.60334e-06 4.71391e-21 5.74408e-06)
(-9.00842e-06 -1.96127e-05 -1.71138e-20 3.14894e-06 -6.59375e-21 5.85947e-06)
(-4.49495e-06 -1.86723e-05 6.57797e-20 -1.55282e-06 -3.64942e-21 6.04777e-06)
(-7.44836e-07 -1.73768e-05 9.19371e-22 -5.56706e-06 1.18035e-21 6.3119e-06)
(2.3457e-06 -1.60654e-05 -2.91023e-21 -8.91898e-06 -1.0637e-21 6.57329e-06)
(4.68835e-06 -1.44923e-05 4.27829e-20 -1.12076e-05 4.1859e-21 6.51922e-06)
(6.56706e-06 -1.41051e-05 3.02042e-20 -1.30484e-05 1.77832e-21 6.48139e-06)
(4.32783e-06 -7.61494e-06 -9.89991e-20 -7.62961e-06 -1.13316e-20 3.30178e-06)
(3.76598e-05 -5.86044e-05 -2.04116e-18 -6.00172e-05 -1.14916e-19 2.23574e-05)
(5.49429e-06 -7.68366e-06 -5.7609e-20 -7.9181e-06 3.59644e-20 2.42381e-06)
(0.000407314 -0.000502017 2.63462e-18 -0.000534275 2.83918e-18 0.000126961)
(6.10213e-05 -5.6845e-05 -7.40433e-19 -7.19636e-05 -6.66397e-19 1.09423e-05)
(0.000592962 -0.000288425 -2.66146e-17 -0.000646382 -6.03853e-19 5.34204e-05)
(0.00159201 0.000333764 8.34664e-17 -0.0016649 9.45738e-18 7.28858e-05)
(0.0054809 0.0210055 -3.26367e-16 -0.0068323 3.27484e-17 0.0013514)
(0.000179971 -9.87154e-05 1.29465e-20 -0.00017971 1.03368e-20 -2.61092e-07)
(0.000160629 -0.000127965 -2.92173e-20 -0.000160429 -2.25417e-20 -1.99377e-07)
(0.00013325 -0.000155532 -4.66915e-22 -0.000132821 -6.57708e-21 -4.29451e-07)
(9.994e-05 -0.00017701 -5.65092e-21 -9.92798e-05 -1.34082e-20 -6.60192e-07)
(6.29454e-05 -0.000190557 8.49404e-20 -6.20984e-05 8.01534e-20 -8.46984e-07)
(2.30797e-05 -0.000195597 6.10833e-20 -2.18555e-05 5.57407e-20 -1.22423e-06)
(-1.62601e-05 -0.000191347 8.50482e-21 1.78654e-05 1.44252e-20 -1.60531e-06)
(-5.22822e-05 -0.000178321 1.64244e-19 5.43612e-05 1.41096e-19 -2.07903e-06)
(-8.31374e-05 -0.000157836 -1.18464e-20 8.58586e-05 3.3691e-21 -2.7212e-06)
(-0.000106983 -0.000132036 -5.35359e-20 0.000110391 -2.97316e-20 -3.40798e-06)
(-0.000123048 -0.000103123 1.03467e-19 0.000127258 4.63041e-20 -4.20992e-06)