/*--------------------------------*- C++ -*----------------------------------*\
| =========                 |                                                 |
| \\      /  F ield         | OpenFOAM: The Open Source CFD Toolbox           |
|  \\    /   O peration     | Version:  2306                                  |
|   \\  /    A nd           | Website:  www.openfoam.com                      |
|    \\/     M anipulation  |                                                 |
\*---------------------------------------------------------------------------*/
FoamFile
{
    version     2.0;
    format      ascii;
    arch        "LSB;label=32;scalar=64";
    class       volScalarField;
    location    "50";
    object      turbulenceProperties:k;
}
// * * * * * * * * * * * * * * * * * * * * * * * * * * * * * * * * * * * * * //

dimensions      [0 2 -2 0 0 0 0];

internalField   nonuniform List<scalar> 
10720
(
0.0109783
0.0130033
0.0156359
0.0191804
0.0234553
0.0289351
0.0359905
0.0448184
0.0560805
0.0704629
0.0888728
0.113079
0.145593
0.190744
0.254158
0.345619
0.482953
0.691539
1.04264
1.56396
2.70602
4.11324
8.66057
15.9414
11.5643
6.8791
4.11448
2.63086
2.42696
1.98968
1.48678
1.60468
1.51914
0.431672
2.691
3.6385
2.62582
1.91713
5.9098
0.00919504
0.00775598
0.00622936
0.00491343
0.00381769
0.0032409
0.00368222
0.00481962
0.00669269
0.00947517
0.0134424
0.0189603
0.026526
0.0368484
0.0509665
0.070804
0.0996546
0.143268
0.212448
0.325369
0.519516
0.865276
1.54217
2.77264
5.61749
11.3788
25.4465
44.0371
55.3576
59.3737
60.3395
60.3509
59.8312
58.8613
57.4683
55.7586
53.227
49.9849
41.1189
0.00262545
0.00262605
0.00260199
0.00253894
0.00244155
0.00232179
0.00217565
0.00200811
0.00183587
0.00166058
0.00149076
0.00133848
0.00120693
0.00109422
0.00111703
0.00136785
0.00228855
0.00474036
0.0120637
0.0323344
0.114783
0.385929
1.34268
6.25778
14.1223
22.0159
27.9933
27.6887
23.735
19.5098
15.7084
11.206
6.92311
6.45597
8.29809
10.052
10.5673
12.2169
13.5881
0.00259553
0.00254814
0.00247253
0.00234981
0.00219655
0.00204614
0.00187637
0.00167913
0.00148082
0.0012936
0.00111701
0.000953653
0.000805671
0.000674579
0.000561821
0.000467816
0.00038885
0.00032301
0.000264944
0.000210921
0.00015566
9.71373e-05
5.25298e-05
2.72857e-05
0.000692717
0.00447933
0.0296688
0.151207
0.381603
0.649627
0.901158
1.10615
1.26724
1.40467
1.53222
1.67073
1.81516
2.24837
3.154
0.00184535
0.0018135
0.00175855
0.00168092
0.00159624
0.00150086
0.00140017
0.00130548
0.00122022
0.00115022
0.00109686
0.00105934
0.00103634
0.00102373
0.00102672
0.00105803
0.00101844
0.000929255
0.000630331
0.00339411
0.00173565
0.00471112
0.00142664
0.167315
1.74221
7.00406
18.4272
30.3183
33.4552
30.2468
25.3588
18.8287
13.1573
13.99
17.1586
17.3655
15.7064
13.6333
13.8414
0.00186691
0.00187241
0.00186089
0.00180525
0.00171686
0.00160991
0.00150011
0.00136396
0.00120236
0.00102939
0.000857749
0.000700009
0.000562975
0.000448983
0.000360909
0.000296012
0.000250398
0.000219367
0.000199293
0.000187082
0.000180486
0.000178856
0.000181352
0.000187753
0.000193549
0.000196452
0.000187191
0.00018393
0.00218118
0.00877245
0.0198827
0.0383287
0.0840607
0.166886
0.279888
0.408799
0.537554
0.634659
0.893419
0.00146761
0.00146683
0.00145707
0.00144026
0.00141291
0.00137462
0.00132798
0.00127154
0.00120755
0.00113737
0.00106241
0.00098481
0.000906616
0.00082747
0.000747263
0.00066499
0.000571717
0.000481948
0.000374899
0.000258007
2.36072e-05
0.000664475
0.000217181
0.0110784
1.65637e-05
0.218925
2.50299
11.6756
26.5217
34.7607
33.3628
26.5268
20.2191
20.5894
23.337
22.8557
19.5256
15.3101
13.1409
0.00145762
0.00144268
0.00141655
0.00137166
0.0013156
0.00125042
0.00117121
0.00107505
0.000969549
0.000862986
0.000760557
0.000666313
0.000581723
0.000507258
0.000443749
0.00039007
0.000345626
0.000309229
0.000280269
0.000256886
0.00023793
0.000221513
0.000205766
0.000187704
0.000168292
0.000152384
0.000140515
0.00013369
0.000114825
0.000106681
6.33045e-06
5.44705e-05
0.000553516
0.000680963
0.00367903
0.0166028
0.04927
0.127348
0.360639
0.0011316
0.00112634
0.00111507
0.00109598
0.00106927
0.00103441
0.000992239
0.000943128
0.000888581
0.000831124
0.000772763
0.000715793
0.000662317
0.000613898
0.000571278
0.000536716
0.000509461
0.000481583
0.000442976
0.000402419
0.000278861
0.000123895
1.2769e-05
0
3.30417e-06
0.0165415
0.0505496
0.591951
6.57053
21.1285
32.0428
31.5283
27.1395
27.2233
29.055
27.3718
22.4264
16.4779
12.1559
0.00112951
0.00112299
0.00110741
0.00107632
0.00103754
0.000992002
0.000937349
0.000871404
0.000797939
0.000720167
0.000640412
0.000561665
0.000486362
0.000416367
0.000353565
0.000298924
0.000252927
0.000215432
0.000186055
0.000163672
0.00014715
0.00013506
0.000125946
0.000117532
0.000108307
9.91919e-05
9.24782e-05
8.85791e-05
8.76594e-05
8.53567e-05
8.95543e-05
1.78873e-05
0.000296826
4.10766e-05
0.0023568
0.0002963
0.00227686
0.00553041
0.0732252
0.000909023
0.00090964
0.000906868
0.000899975
0.000888621
0.000872375
0.000851228
0.000824764
0.000793448
0.000758094
0.000719129
0.000677371
0.000633647
0.00058844
0.000542252
0.000496058
0.000447611
0.000393302
0.000336927
0.000281242
0.000235177
0.000189493
9.71163e-05
8.30005e-06
0
0
0
0.029901
0.111137
3.9186
16.6092
27.6963
30.9583
32.7695
33.8876
30.8892
24.498
17.1993
11.3485
0.000903517
0.000895673
0.000882322
0.000858819
0.000831469
0.000799232
0.000759971
0.000712986
0.000660793
0.000605358
0.000548293
0.000491748
0.000437554
0.000387021
0.000341277
0.000301069
0.000266621
0.000237729
0.000213975
0.000194583
0.00017862
0.000164917
0.000152227
0.000138839
0.000124077
0.000109711
9.74297e-05
8.75769e-05
7.95974e-05
7.27418e-05
6.56091e-05
5.63062e-05
4.07321e-05
2.50931e-05
1.42966e-06
2.12258e-05
0.000362307
0.00121679
0.00963602
0.000735979
0.000737022
0.000735987
0.000731736
0.000724267
0.000712991
0.000697641
0.000677897
0.000653913
0.00062622
0.000595231
0.0005616
0.00052617
0.000489592
0.00045266
0.000415937
0.000380847
0.000348705
0.00031731
0.000283195
0.000246963
0.000212888
0.000192083
8.63989e-05
7.10345e-06
0
0
0
0.021164
0.0131017
2.70264
13.9623
27.2395
35.1356
37.1445
33.2651
25.736
17.5185
10.6909
0.000731183
0.000724799
0.000714502
0.000696716
0.00067694
0.000653334
0.000624511
0.000590568
0.000552962
0.000512648
0.000470487
0.000427675
0.00038536
0.000344465
0.000305905
0.000270492
0.000238729
0.00021088
0.000187027
0.000166959
0.000150285
0.000136362
0.00012427
0.000112613
0.000100382
8.8241e-05
7.73809e-05
6.83452e-05
6.10618e-05
5.55832e-05
5.22074e-05
5.10442e-05
4.99186e-05
4.56117e-05
4.04441e-05
7.08742e-06
1.5477e-06
0
0.00209978
0.000605224
0.000607305
0.000608317
0.00060699
0.00060374
0.000597897
0.000589178
0.000577295
0.000562245
0.000544293
0.000523431
0.000499991
0.000474358
0.000446794
0.000417665
0.000387327
0.000356282
0.000323187
0.000287975
0.000252395
0.00021923
0.000189327
0.000176397
0.000163383
9.1869e-05
6.60779e-06
2.52725e-08
0
0
0.00755383
5.8374e-05
2.52558
15.5369
31.139
37.3015
33.9636
25.9495
17.3553
10.0351
0.000600441
0.000594723
0.000586421
0.000572626
0.000557994
0.000540364
0.000518834
0.000493782
0.000466178
0.000436529
0.000405259
0.000373186
0.000341077
0.000309585
0.000279407
0.00025127
0.000225654
0.000202886
0.000183103
0.000166185
0.000151797
0.000139353
0.000128017
0.00011667
0.000104604
9.24076e-05
8.10831e-05
7.10452e-05
6.21534e-05
5.42254e-05
4.72012e-05
4.09288e-05
3.53561e-05
3.05481e-05
2.70086e-05
2.01791e-05
1.4308e-05
1.74355e-06
0
0.000502567
0.000504919
0.000506801
0.000506698
0.000505358
0.000502195
0.000496745
0.000488823
0.000478353
0.000465375
0.000449869
0.000431987
0.000411963
0.000390006
0.000366445
0.000341572
0.000315718
0.000289469
0.000263243
0.000236791
0.000210584
0.000185998
0.000165875
0.000160376
0.00015382
0.000100227
4.39153e-07
1.30912e-08
0
0
1.02692e-05
0.0869455
4.22467
19.9443
32.0238
31.812
24.6406
16.4604
9.17168
0.000498299
0.000493366
0.000486754
0.000475969
0.00046485
0.000451386
0.000435112
0.000416413
0.000395851
0.000373778
0.000350406
0.000326182
0.000301576
0.000276988
0.000252874
0.000229777
0.000208152
0.000188319
0.0001705
0.000154741
0.000140915
0.000128658
0.000117399
0.00010636
9.50289e-05
8.3729e-05
7.32558e-05
6.4054e-05
5.61182e-05
4.93271e-05
4.36848e-05
3.92787e-05
3.58948e-05
3.33791e-05
3.14378e-05
3.0824e-05
3.12622e-05
3.19261e-05
1.19881e-06
0.000421371
0.000423789
0.000426116
0.000427022
0.000426897
0.00042554
0.00042264
0.000417848
0.000411087
0.000402359
0.000391542
0.000378718
0.000364003
0.000347485
0.000329317
0.000309645
0.000288775
0.000266843
0.000243538
0.000219579
0.00019622
0.000175425
0.000158085
0.000146207
0.000144095
0.000141335
9.5995e-05
1.44228e-07
7.51574e-09
0
0
0.0103184
0.225082
7.45529
20.6765
25.2722
20.9935
14.4347
7.87257
0.000417438
0.000413135
0.000407828
0.000399314
0.000390654
0.000380254
0.000367805
0.000353687
0.000338233
0.000321598
0.000303969
0.000285625
0.000266798
0.000247705
0.000228674
0.000210113
0.000192381
0.000175803
0.000160585
0.000146838
0.000134511
0.00012336
0.000112956
0.000102755
9.23603e-05
8.19947e-05
7.22617e-05
6.35294e-05
5.57892e-05
4.89047e-05
4.2799e-05
3.7466e-05
3.28032e-05
2.8915e-05
2.55789e-05
2.43571e-05
2.25014e-05
3.82808e-05
1.64825e-05
0.000355986
0.00035838
0.000360843
0.000362167
0.00036284
0.00036264
0.000361061
0.000358162
0.000353846
0.000347884
0.00034016
0.000330717
0.00031961
0.000306866
0.000292557
0.000276793
0.000259714
0.00024165
0.000222726
0.000203361
0.000184221
0.000166473
0.00015166
0.000139614
0.000130769
0.000127638
0.000129767
8.49663e-05
1.11736e-07
5.69274e-09
0
0
0.0603401
1.00574
7.96572
14.5485
14.4593
10.9518
6.00462
0.000352459
0.000348703
0.000344417
0.000337674
0.000330768
0.000322634
0.000313048
0.00030226
0.00029054
0.000277959
0.000264549
0.000250565
0.000236125
0.000221315
0.000206309
0.000191392
0.00017683
0.000162881
0.000149762
0.000137594
0.000126388
0.000116018
0.000106211
9.66093e-05
8.69453e-05
7.73702e-05
6.83211e-05
6.01286e-05
5.28318e-05
4.63529e-05
4.06532e-05
3.58154e-05
3.17873e-05
2.86484e-05
2.6195e-05
2.56417e-05
2.48973e-05
3.48937e-05
4.17463e-05
0.000302766
0.000305052
0.000307503
0.000309049
0.000310189
0.000310689
0.000310217
0.000308685
0.00030592
0.000301934
0.000296687
0.000289882
0.000281643
0.000272016
0.000260993
0.000248612
0.000234959
0.000220345
0.000204679
0.000188293
0.000171961
0.000156682
0.000143681
0.00013322
0.000123879
0.000115391
0.000112098
0.000114095
6.76078e-05
8.66981e-08
1.3441e-10
0
0.00397477
0.0601433
1.04786
4.32324
6.23941
6.0478
3.52888
0.000299632
0.000296333
0.000292836
0.00028747
0.000281938
0.000275428
0.000267966
0.000259711
0.000250748
0.000241155
0.00023091
0.000220193
0.000209092
0.000197604
0.000185827
0.000173924
0.000162074
0.000150485
0.000139332
0.000128761
0.000118826
0.000109459
0.000100478
9.16397e-05
8.27993e-05
7.40451e-05
6.57066e-05
5.80581e-05
5.11646e-05
4.49724e-05
3.94401e-05
3.46055e-05
3.04205e-05
2.70053e-05
2.42015e-05
2.31909e-05
2.26501e-05
2.89005e-05
4.79899e-05
0.000258971
0.000261096
0.00026346
0.000265089
0.000266454
0.000267378
0.000267576
0.000266913
0.000265381
0.00026281
0.000259138
0.000254335
0.000248232
0.000240919
0.000232387
0.000222653
0.000211744
0.000199907
0.000187159
0.000173733
0.000160185
0.000147269
0.000135848
0.000126401
0.000118052
0.000109431
0.000100864
9.72293e-05
9.81245e-05
5.448e-05
1.98053e-06
0
0
0.0318248
0.148114
0.37118
0.917252
1.42148
1.05517
0.000256224
0.000253325
0.000250448
0.000246133
0.000241659
0.000236458
0.000230537
0.000224125
0.000217294
0.000209951
0.000202088
0.000193826
0.000185256
0.000176362
0.000167128
0.000157656
0.000148052
0.000138469
0.000129048
0.000119916
0.000111141
0.000102698
9.44792e-05
8.63495e-05
7.82318e-05
7.02027e-05
6.25045e-05
5.53733e-05
4.88946e-05
4.30468e-05
3.78032e-05
3.32068e-05
2.92521e-05
2.60407e-05
2.33923e-05
2.23186e-05
2.16988e-05
2.60196e-05
4.44815e-05
0.00022262
0.000224561
0.000226789
0.000228419
0.000229894
0.00023106
0.000231648
0.000231628
0.000230842
0.000229345
0.000226917
0.000223515
0.000219131
0.000213654
0.000207103
0.000199525
0.000190922
0.000181449
0.000171172
0.000160153
0.000148859
0.000137937
0.000128025
0.000119506
0.000111959
0.000104317
9.61395e-05
8.74362e-05
8.31784e-05
8.80524e-05
2.97025e-05
3.9049e-08
0
0.000165137
0.0103383
0.0997666
0.150819
0.203573
0.114054
0.00022021
0.000217679
0.000215277
0.000211794
0.00020814
0.000203954
0.000199261
0.000194188
0.000188916
0.000183329
0.000177267
0.000170889
0.000164257
0.000157348
0.000150132
0.000142624
0.000134875
0.000127002
0.000119111
0.000111305
0.000103638
9.61235e-05
8.87016e-05
8.13136e-05
7.39292e-05
6.66132e-05
5.95548e-05
5.29496e-05
4.68902e-05
4.13755e-05
3.6385e-05
3.19429e-05
2.80624e-05
2.48348e-05
2.20867e-05
2.07593e-05
1.98688e-05
2.33581e-05
3.96933e-05
0.0001922
0.000193954
0.000196033
0.000197606
0.000199104
0.000200395
0.000201223
0.000201584
0.000201372
0.000200547
0.000199033
0.000196763
0.000193702
0.000189604
0.000184588
0.000178727
0.000172005
0.000164471
0.000156247
0.000147325
0.000138022
0.000128861
0.000120336
0.000112743
0.000105881
9.90071e-05
9.1877e-05
8.41377e-05
7.37281e-05
7.73932e-05
7.11577e-05
2.17798e-06
0
0
0.00170821
0.0210275
0.0108115
0.0238619
0.0267486
0.000190092
0.00018789
0.000185866
0.000183027
0.000180021
0.000176629
0.000172887
0.000168902
0.000164737
0.000160441
0.000155851
0.000150893
0.000145737
0.000140361
0.000134715
0.000128784
0.000122569
0.000116133
0.000109562
0.00010293
9.62952e-05
8.9669e-05
8.30249e-05
7.63354e-05
6.96288e-05
6.29701e-05
5.65076e-05
5.03997e-05
4.47453e-05
3.95586e-05
3.48328e-05
3.05929e-05
2.68723e-05
2.37489e-05
2.10582e-05
1.96216e-05
1.85985e-05
2.12856e-05
3.5603e-05
0.000166563
0.000168148
0.000170064
0.000171554
0.000173029
0.000174356
0.000175324
0.000175932
0.000176115
0.000175761
0.000174932
0.000173483
0.000171314
0.000168382
0.000164606
0.0001601
0.000154863
0.000148909
0.000142364
0.000135178
0.000127563
0.000119937
0.000112678
0.000106023
9.98542e-05
9.37044e-05
8.71946e-05
8.08227e-05
7.20114e-05
6.41752e-05
7.50369e-05
3.30724e-05
8.49692e-08
0
0
0
0.00200149
0.00457116
0.00336644
0.000164724
0.000162807
0.000161098
0.000158762
0.00015627
0.000153505
0.0001505
0.000147353
0.000144069
0.000140741
0.00013722
0.000133418
0.000129408
0.000125204
0.000120784
0.000116097
0.000111127
0.000105897
0.000100466
9.48836e-05
8.91868e-05
8.33911e-05
7.74877e-05
7.14874e-05
6.54417e-05
5.94173e-05
5.35291e-05
4.79128e-05
4.26633e-05
3.78067e-05
3.33455e-05
2.93059e-05
2.57182e-05
2.26488e-05
1.99482e-05
1.83404e-05
1.71289e-05
1.91712e-05
3.19216e-05
0.000144821
0.000146257
0.000148007
0.000149403
0.000150816
0.000152132
0.000153164
0.000153927
0.000154346
0.000154381
0.00015394
0.000153113
0.000151701
0.000149601
0.000146827
0.000143392
0.000139331
0.000134657
0.000129491
0.000123754
0.000117573
0.00011127
0.000105138
9.93738e-05
9.39038e-05
8.84452e-05
8.25977e-05
7.66748e-05
7.06168e-05
6.03859e-05
6.14027e-05
6.54243e-05
1.38694e-07
2.81518e-10
0
0
0
0
0.00336434
0.00014322
0.00014156
0.000140108
0.000138162
0.000136083
0.000133821
0.0001314
0.000128897
0.000126325
0.000123696
0.000120996
0.000118121
0.000114968
0.000111678
0.000108211
0.000104521
0.000100561
9.63399e-05
9.18777e-05
8.72091e-05
8.2351e-05
7.73171e-05
7.21098e-05
6.67645e-05
6.13464e-05
5.59195e-05
5.05791e-05
4.544e-05
4.05868e-05
3.60577e-05
3.18612e-05
2.80279e-05
2.45876e-05
2.15935e-05
1.89091e-05
1.71566e-05
1.57604e-05
1.71802e-05
2.84639e-05
0.000126284
0.000127583
0.000129174
0.000130472
0.0001318
0.000133076
0.000134122
0.000134966
0.000135546
0.000135819
0.000135729
0.000135269
0.000134397
0.000132997
0.000131061
0.000128463
0.000125343
0.000121708
0.000117672
0.000113142
0.000108169
0.000102996
9.78487e-05
9.28964e-05
8.81005e-05
8.32692e-05
7.8152e-05
7.26272e-05
6.7568e-05
6.02097e-05
5.32603e-05
6.15338e-05
3.12065e-05
1.53144e-06
0
0
0
0
0.00352761
0.000124884
0.000123452
0.000122213
0.000120572
0.000118835
0.000116974
0.000115017
0.000113018
0.000110994
0.00010892
0.000106846
0.00010464
0.000102208
9.96178e-05
9.68902e-05
9.39842e-05
9.08447e-05
8.74522e-05
8.38054e-05
7.99154e-05
7.57979e-05
7.14638e-05
6.69145e-05
6.21847e-05
5.73515e-05
5.24893e-05
4.76721e-05
4.29918e-05
3.85277e-05
3.43209e-05
3.03894e-05
2.67624e-05
2.34694e-05
2.05477e-05
1.78742e-05
1.59761e-05
1.43897e-05
1.52772e-05
2.51828e-05
0.000110402
0.000111574
0.000113023
0.000114212
0.000115456
0.000116665
0.000117698
0.000118574
0.00011925
0.000119678
0.000119838
0.000119628
0.000119177
0.00011831
0.000116945
0.000115075
0.000112726
0.000109926
0.000106785
0.000103252
9.92972e-05
9.50988e-05
9.08263e-05
8.66183e-05
8.24666e-05
7.82262e-05
7.37726e-05
6.88965e-05
6.40638e-05
5.9095e-05
5.16115e-05
5.10291e-05
5.47522e-05
2.26943e-05
1.70732e-06
9.83257e-08
0
0
0.00381187
0.000109174
0.000107939
0.000106876
0.000105485
0.000104027
0.000102488
0.000100898
9.93004e-05
9.76978e-05
9.60811e-05
9.44495e-05
9.27561e-05
9.09108e-05
8.88518e-05
8.67066e-05
8.44264e-05
8.19482e-05
7.92285e-05
7.62558e-05
7.30316e-05
6.9561e-05
6.58478e-05
6.1896e-05
5.77432e-05
5.34664e-05
4.91301e-05
4.48009e-05
4.0553e-05
3.64614e-05
3.25662e-05
2.88941e-05
2.54715e-05
2.2329e-05
1.94882e-05
1.68411e-05
1.48211e-05
1.30603e-05
1.34854e-05
2.2104e-05
9.67362e-05
9.77928e-05
9.91068e-05
0.000100195
0.000101343
0.00010248
0.000103474
0.000104356
0.000105079
0.000105608
0.00010592
0.000105963
0.00010574
0.000105254
0.000104393
0.000103126
0.000101358
9.92132e-05
9.67854e-05
9.40652e-05
9.09674e-05
8.7602e-05
8.40969e-05
8.05648e-05
7.70155e-05
7.33439e-05
6.94728e-05
6.52991e-05
6.08594e-05
5.67869e-05
5.15146e-05
4.67394e-05
5.21962e-05
5.48949e-05
2.65329e-05
2.20515e-06
1.52945e-06
0
0.00421451
9.56551e-05
9.4586e-05
9.36744e-05
9.24904e-05
9.12578e-05
8.99821e-05
8.86846e-05
8.73999e-05
8.61294e-05
8.48637e-05
8.35842e-05
8.2279e-05
8.08564e-05
7.92644e-05
7.75826e-05
7.57847e-05
7.38219e-05
7.16462e-05
6.92286e-05
6.65667e-05
6.36611e-05
6.05072e-05
5.70999e-05
5.34766e-05
4.97087e-05
4.58559e-05
4.19775e-05
3.81376e-05
3.44002e-05
3.08075e-05
2.73876e-05
2.41668e-05
2.11726e-05
1.84166e-05
1.5803e-05
1.36785e-05
1.17555e-05
1.17884e-05
1.92494e-05
8.49297e-05
8.58871e-05
8.70719e-05
8.80607e-05
8.9116e-05
9.01752e-05
9.11183e-05
9.19824e-05
9.27238e-05
9.33098e-05
9.37232e-05
9.39399e-05
9.38881e-05
9.3691e-05
9.32071e-05
9.23398e-05
9.10859e-05
8.94877e-05
8.76354e-05
8.55585e-05
8.31583e-05
8.04886e-05
7.76499e-05
7.4729e-05
7.17409e-05
6.86121e-05
6.52833e-05
6.17338e-05
5.79021e-05
5.42332e-05
5.06219e-05
4.62262e-05
4.73611e-05
5.87929e-05
6.00807e-05
4.45307e-05
3.14577e-05
4.59934e-08
0.00456147
8.3976e-05
8.30487e-05
8.22667e-05
8.12538e-05
8.02067e-05
7.91439e-05
7.80808e-05
7.70455e-05
7.60366e-05
7.50471e-05
7.40331e-05
7.30279e-05
7.1933e-05
7.07233e-05
6.93984e-05
6.79675e-05
6.64077e-05
6.46739e-05
6.27216e-05
6.05383e-05
5.81177e-05
5.54581e-05
5.25438e-05
4.94013e-05
4.60933e-05
4.26843e-05
3.92251e-05
3.577e-05
3.23708e-05
2.90706e-05
2.58964e-05
2.28735e-05
2.00259e-05
1.73597e-05
1.47858e-05
1.25725e-05
1.04989e-05
1.01864e-05
1.66222e-05
7.46938e-05
7.55604e-05
7.66302e-05
7.75226e-05
7.84902e-05
7.94696e-05
8.03573e-05
8.11893e-05
8.19256e-05
8.25391e-05
8.30162e-05
8.3331e-05
8.34598e-05
8.34015e-05
8.31822e-05
8.26908e-05
8.18721e-05
8.06875e-05
7.92881e-05
7.7724e-05
7.58924e-05
7.38e-05
7.15273e-05
6.91413e-05
6.66618e-05
6.40357e-05
6.12176e-05
5.82145e-05
5.50079e-05
5.18179e-05
4.90335e-05
4.6115e-05
4.5992e-05
5.45684e-05
6.32941e-05
7.38253e-05
9.76201e-05
1.59896e-07
0.00444071
7.38519e-05
7.30443e-05
7.23728e-05
7.15034e-05
7.06107e-05
6.9722e-05
6.88481e-05
6.801e-05
6.72062e-05
6.64276e-05
6.56439e-05
6.48403e-05
6.40085e-05
6.31119e-05
6.20416e-05
6.09048e-05
5.96711e-05
5.82909e-05
5.67199e-05
5.49396e-05
5.29422e-05
5.0712e-05
4.82306e-05
4.55169e-05
4.26321e-05
3.96317e-05
3.65609e-05
3.34655e-05
3.03892e-05
2.73704e-05
2.44361e-05
2.16077e-05
1.8905e-05
1.63334e-05
1.38054e-05
1.15161e-05
9.2916e-06
8.66998e-06
1.42145e-05
6.57928e-05
6.65779e-05
6.75406e-05
6.83457e-05
6.92303e-05
7.01311e-05
7.096e-05
7.17494e-05
7.24674e-05
7.30858e-05
7.35992e-05
7.39802e-05
7.42294e-05
7.4283e-05
7.42661e-05
7.40378e-05
7.35005e-05
7.26855e-05
7.16672e-05
7.05072e-05
6.91203e-05
6.74966e-05
6.5702e-05
6.37862e-05
6.17647e-05
5.95983e-05
5.72571e-05
5.47541e-05
5.21101e-05
4.94863e-05
4.72494e-05
4.53833e-05
4.59318e-05
5.1775e-05
5.7416e-05
7.42674e-05
0.000126701
2.21054e-07
0.00371175
6.5047e-05
6.43432e-05
6.37665e-05
6.30169e-05
6.22529e-05
6.15077e-05
6.07846e-05
6.01048e-05
5.94636e-05
5.88498e-05
5.82432e-05
5.76035e-05
5.69768e-05
5.62689e-05
5.5456e-05
5.45495e-05
5.35612e-05
5.24605e-05
5.1205e-05
4.97663e-05
4.8127e-05
4.62649e-05
4.41602e-05
4.18295e-05
3.93264e-05
3.67002e-05
3.3986e-05
3.12255e-05
2.84536e-05
2.57036e-05
2.30012e-05
2.03633e-05
1.78056e-05
1.53359e-05
1.28629e-05
1.05152e-05
8.14577e-06
7.23453e-06
1.20251e-05
5.80319e-05
5.87439e-05
5.961e-05
6.03364e-05
6.1139e-05
6.19657e-05
6.27339e-05
6.34769e-05
6.41634e-05
6.47735e-05
6.52989e-05
6.57206e-05
6.60336e-05
6.62072e-05
6.62811e-05
6.62156e-05
6.59402e-05
6.54382e-05
6.47066e-05
6.38491e-05
6.2812e-05
6.15753e-05
6.01854e-05
5.86772e-05
5.70612e-05
5.53082e-05
5.34016e-05
5.13592e-05
4.92182e-05
4.71441e-05
4.54326e-05
4.41866e-05
4.55172e-05
5.02158e-05
5.28356e-05
7.41916e-05
0.000116352
2.07444e-07
0.0025085
5.7367e-05
5.67559e-05
5.62595e-05
5.56112e-05
5.49555e-05
5.4328e-05
5.37274e-05
5.3172e-05
5.26582e-05
5.21739e-05
5.17009e-05
5.12116e-05
5.07094e-05
5.0169e-05
4.95619e-05
4.88119e-05
4.80203e-05
4.71542e-05
4.61635e-05
4.50071e-05
4.36611e-05
4.2108e-05
4.03304e-05
3.83402e-05
3.61805e-05
3.38909e-05
3.15036e-05
2.90496e-05
2.65596e-05
2.40627e-05
2.15811e-05
1.91295e-05
1.67198e-05
1.43554e-05
1.19477e-05
9.56512e-06
7.06927e-06
5.87454e-06
1.00596e-05
5.1249e-05
5.18967e-05
5.26733e-05
5.3328e-05
5.4055e-05
5.48101e-05
5.5518e-05
5.62124e-05
5.6864e-05
5.74521e-05
5.79759e-05
5.84162e-05
5.87698e-05
5.90201e-05
5.91588e-05
5.92225e-05
5.91428e-05
5.88782e-05
5.83867e-05
5.77977e-05
5.70659e-05
5.61547e-05
5.51001e-05
5.39259e-05
5.26462e-05
5.12406e-05
4.97052e-05
4.80667e-05
4.63685e-05
4.47813e-05
4.35566e-05
4.27533e-05
4.44977e-05
4.8691e-05
4.98701e-05
7.47583e-05
9.64882e-05
1.78148e-07
0.000884193
5.06539e-05
5.01232e-05
4.9695e-05
4.91324e-05
4.85684e-05
4.80367e-05
4.7536e-05
4.70815e-05
4.66677e-05
4.62849e-05
4.59162e-05
4.55369e-05
4.51377e-05
4.47284e-05
4.42449e-05
4.36542e-05
4.30316e-05
4.23501e-05
4.15634e-05
4.06268e-05
3.9522e-05
3.82347e-05
3.67471e-05
3.50601e-05
3.32076e-05
3.12184e-05
2.91241e-05
2.69487e-05
2.47199e-05
2.24615e-05
2.01923e-05
1.79241e-05
1.56662e-05
1.34127e-05
1.10788e-05
8.68045e-06
6.07711e-06
4.59691e-06
8.33123e-06
4.53081e-05
4.58985e-05
4.65934e-05
4.71796e-05
4.78375e-05
4.85252e-05
4.91764e-05
4.98198e-05
5.04323e-05
5.09928e-05
5.15034e-05
5.19469e-05
5.23208e-05
5.26244e-05
5.28081e-05
5.29741e-05
5.30416e-05
5.29268e-05
5.2637e-05
5.22588e-05
5.17623e-05
5.11056e-05
5.03262e-05
4.94391e-05
4.84527e-05
4.73536e-05
4.61467e-05
4.4867e-05
4.35616e-05
4.23993e-05
4.15805e-05
4.11621e-05
4.30646e-05
4.68266e-05
4.73288e-05
7.26865e-05
8.72972e-05
1.74171e-07
0
4.47754e-05
4.43128e-05
4.39423e-05
4.34526e-05
4.29655e-05
4.25133e-05
4.20939e-05
4.17191e-05
4.13848e-05
4.10815e-05
4.07934e-05
4.04988e-05
4.01796e-05
3.98668e-05
3.94858e-05
3.90459e-05
3.8545e-05
3.79876e-05
3.73545e-05
3.66048e-05
3.57127e-05
3.46582e-05
3.3419e-05
3.19922e-05
3.04053e-05
2.86843e-05
2.68533e-05
2.49351e-05
2.29504e-05
2.09188e-05
1.88561e-05
1.67698e-05
1.46646e-05
1.25294e-05
1.02817e-05
7.89412e-06
5.20268e-06
3.39849e-06
6.83784e-06
4.00956e-05
4.06333e-05
4.12519e-05
4.17749e-05
4.23701e-05
4.29954e-05
4.35915e-05
4.41871e-05
4.47573e-05
4.52855e-05
4.57747e-05
4.62112e-05
4.65929e-05
4.6918e-05
4.71609e-05
4.7361e-05
4.74991e-05
4.75214e-05
4.74022e-05
4.7171e-05
4.68406e-05
4.63779e-05
4.58163e-05
4.51643e-05
4.44308e-05
4.3605e-05
4.26956e-05
4.17389e-05
4.07822e-05
3.99884e-05
3.95047e-05
3.94158e-05
4.13727e-05
4.47494e-05
4.48601e-05
6.96079e-05
8.30615e-05
1.84607e-07
0
3.96184e-05
3.92144e-05
3.88916e-05
3.84637e-05
3.80413e-05
3.76543e-05
3.73013e-05
3.69913e-05
3.672e-05
3.64787e-05
3.62521e-05
3.60228e-05
3.57763e-05
3.55209e-05
3.5235e-05
3.49173e-05
3.44812e-05
3.40223e-05
3.35222e-05
3.29381e-05
3.22294e-05
3.13698e-05
3.03359e-05
2.91293e-05
2.77732e-05
2.629e-05
2.46978e-05
2.30144e-05
2.12556e-05
1.94377e-05
1.75718e-05
1.56633e-05
1.37118e-05
1.17029e-05
9.55777e-06
7.21317e-06
4.47625e-06
2.28225e-06
5.58497e-06
3.55164e-05
3.60015e-05
3.65477e-05
3.70141e-05
3.75537e-05
3.81235e-05
3.86674e-05
3.92154e-05
3.97424e-05
4.02371e-05
4.06997e-05
4.1121e-05
4.14989e-05
4.18335e-05
4.21099e-05
4.23275e-05
4.25197e-05
4.26418e-05
4.26502e-05
4.25451e-05
4.23663e-05
4.20735e-05
4.16891e-05
4.12194e-05
4.06822e-05
4.00744e-05
3.94067e-05
3.87185e-05
3.80534e-05
3.75629e-05
3.73567e-05
3.75253e-05
3.95136e-05
4.26089e-05
4.24594e-05
6.635e-05
7.87466e-05
1.97612e-07
0
3.50856e-05
3.47324e-05
3.445e-05
3.40746e-05
3.37063e-05
3.3374e-05
3.30744e-05
3.28165e-05
3.25953e-05
3.2402e-05
3.22231e-05
3.20445e-05
3.18516e-05
3.16471e-05
3.14377e-05
3.11709e-05
3.08182e-05
3.04543e-05
3.00643e-05
2.96097e-05
2.90443e-05
2.8341e-05
2.74777e-05
2.64585e-05
2.53046e-05
2.40324e-05
2.2654e-05
2.11828e-05
1.96301e-05
1.80089e-05
1.63271e-05
1.45881e-05
1.27874e-05
1.09089e-05
8.88156e-06
6.61876e-06
3.90861e-06
1.25891e-06
4.60917e-06
3.14825e-05
3.19175e-05
3.23992e-05
3.28177e-05
3.33067e-05
3.38239e-05
3.43195e-05
3.48212e-05
3.53061e-05
3.5764e-05
3.61983e-05
3.65989e-05
3.69674e-05
3.72999e-05
3.75975e-05
3.78236e-05
3.80617e-05
3.82596e-05
3.83422e-05
3.83447e-05
3.82795e-05
3.81113e-05
3.78556e-05
3.75324e-05
3.71588e-05
3.67352e-05
3.62715e-05
3.58066e-05
3.53814e-05
3.51349e-05
3.51563e-05
3.55255e-05
3.75224e-05
4.04262e-05
4.01159e-05
6.29878e-05
7.43789e-05
2.12365e-07
0
3.10952e-05
3.0786e-05
3.05377e-05
3.02066e-05
2.98839e-05
2.95972e-05
2.93416e-05
2.91254e-05
2.89437e-05
2.87882e-05
2.8648e-05
2.85046e-05
2.8355e-05
2.81865e-05
2.80257e-05
2.78001e-05
2.75473e-05
2.72581e-05
2.69426e-05
2.65795e-05
2.613e-05
2.55571e-05
2.4838e-05
2.39791e-05
2.30003e-05
2.19145e-05
2.07262e-05
1.94454e-05
1.80798e-05
1.66391e-05
1.51291e-05
1.35513e-05
1.18979e-05
1.01545e-05
8.25798e-06
6.10895e-06
3.50899e-06
3.39017e-07
3.95184e-06
2.79255e-05
2.83122e-05
2.87372e-05
2.91151e-05
2.95585e-05
3.00263e-05
3.04761e-05
3.09328e-05
3.13773e-05
3.17995e-05
3.22034e-05
3.25803e-05
3.29325e-05
3.32573e-05
3.35543e-05
3.38064e-05
3.40449e-05
3.42621e-05
3.44149e-05
3.45042e-05
3.45112e-05
3.44159e-05
3.4243e-05
3.40283e-05
3.37929e-05
3.35326e-05
3.32499e-05
3.29778e-05
3.27538e-05
3.27036e-05
3.29141e-05
3.3436e-05
3.53981e-05
3.81765e-05
3.7813e-05
5.94574e-05
7.01991e-05
2.28061e-07
0
2.75774e-05
2.73057e-05
2.70864e-05
2.67929e-05
2.65096e-05
2.62607e-05
2.60411e-05
2.58586e-05
2.57085e-05
2.55825e-05
2.54697e-05
2.53565e-05
2.5239e-05
2.51066e-05
2.4964e-05
2.47931e-05
2.46178e-05
2.4367e-05
2.41082e-05
2.38246e-05
2.34748e-05
2.30104e-05
2.2412e-05
2.16908e-05
2.08651e-05
1.99413e-05
1.89211e-05
1.78099e-05
1.66136e-05
1.53389e-05
1.39897e-05
1.2566e-05
1.10569e-05
9.45159e-06
7.69753e-06
5.6958e-06
3.29104e-06
4.99211e-07
3.61367e-06
2.47862e-05
2.51284e-05
2.55028e-05
2.58444e-05
2.62456e-05
2.66674e-05
2.70736e-05
2.7489e-05
2.78944e-05
2.82806e-05
2.8654e-05
2.90054e-05
2.93375e-05
2.96495e-05
2.99389e-05
3.02009e-05
3.04314e-05
3.06613e-05
3.08566e-05
3.10015e-05
3.10701e-05
3.10438e-05
3.09407e-05
3.08089e-05
3.06756e-05
3.05381e-05
3.03928e-05
3.02685e-05
3.01993e-05
3.02955e-05
3.06528e-05
3.12738e-05
3.31681e-05
3.58324e-05
3.55259e-05
5.56137e-05
6.58176e-05
2.42682e-07
0
2.44726e-05
2.42321e-05
2.40373e-05
2.37772e-05
2.35272e-05
2.331e-05
2.31204e-05
2.2965e-05
2.28396e-05
2.27369e-05
2.26463e-05
2.25564e-05
2.24592e-05
2.23624e-05
2.22354e-05
2.21117e-05
2.19421e-05
2.17629e-05
2.15639e-05
2.13409e-05
2.10622e-05
2.06863e-05
2.01937e-05
1.95929e-05
1.88994e-05
1.81151e-05
1.72411e-05
1.62803e-05
1.5237e-05
1.41159e-05
1.29185e-05
1.1644e-05
1.02783e-05
8.81646e-06
7.21579e-06
5.38758e-06
3.24787e-06
1.24019e-06
3.54243e-06
2.20076e-05
2.23148e-05
2.26458e-05
2.2951e-05
2.33127e-05
2.36929e-05
2.40589e-05
2.44343e-05
2.48031e-05
2.51556e-05
2.54979e-05
2.58228e-05
2.6133e-05
2.64284e-05
2.67056e-05
2.69693e-05
2.71886e-05
2.74296e-05
2.76596e-05
2.78327e-05
2.7952e-05
2.79798e-05
2.79291e-05
2.78561e-05
2.77965e-05
2.77489e-05
2.77035e-05
2.76872e-05
2.77317e-05
2.79304e-05
2.83888e-05
2.9071e-05
3.08402e-05
3.34608e-05
3.31707e-05
5.12883e-05
6.10021e-05
2.54218e-07
0
2.17279e-05
2.15137e-05
2.13408e-05
2.11099e-05
2.08888e-05
2.06984e-05
2.05335e-05
2.04002e-05
2.02948e-05
2.02096e-05
2.01357e-05
2.00629e-05
1.99862e-05
1.99048e-05
1.98069e-05
1.96941e-05
1.95623e-05
1.94442e-05
1.92671e-05
1.90807e-05
1.88633e-05
1.85732e-05
1.81782e-05
1.76803e-05
1.70953e-05
1.64284e-05
1.56805e-05
1.48536e-05
1.39494e-05
1.29701e-05
1.1915e-05
1.07819e-05
9.55666e-06
8.24036e-06
6.80089e-06
5.16811e-06
3.33469e-06
1.89552e-06
3.65125e-06
1.95484e-05
1.98226e-05
2.01157e-05
2.03892e-05
2.07146e-05
2.10561e-05
2.13857e-05
2.17252e-05
2.20584e-05
2.23783e-05
2.2691e-05
2.29892e-05
2.3276e-05
2.35522e-05
2.38144e-05
2.40655e-05
2.42925e-05
2.45183e-05
2.47413e-05
2.49378e-05
2.50963e-05
2.51566e-05
2.51322e-05
2.50904e-05
2.50792e-05
2.50985e-05
2.5132e-05
2.52001e-05
2.53329e-05
2.56053e-05
2.61271e-05
2.68543e-05
2.84311e-05
3.11197e-05
3.06336e-05
4.66208e-05
5.60053e-05
2.62692e-07
0
1.92981e-05
1.91076e-05
1.89537e-05
1.87486e-05
1.85529e-05
1.83851e-05
1.82408e-05
1.81255e-05
1.80358e-05
1.79646e-05
1.79038e-05
1.78436e-05
1.77813e-05
1.77143e-05
1.7637e-05
1.75386e-05
1.74458e-05
1.73347e-05
1.71866e-05
1.70442e-05
1.68851e-05
1.66646e-05
1.63454e-05
1.59298e-05
1.54353e-05
1.48701e-05