/*--------------------------------*- C++ -*----------------------------------*\
| =========                 |                                                 |
| \\      /  F ield         | OpenFOAM: The Open Source CFD Toolbox           |
|  \\    /   O peration     | Version:  2306                                  |
|   \\  /    A nd           | Website:  www.openfoam.com                      |
|    \\/     M anipulation  |                                                 |
\*---------------------------------------------------------------------------*/
FoamFile
{
    version     2.0;
    format      ascii;
    arch        "LSB;label=32;scalar=64";
    class       volScalarField;
    location    "50";
    object      turbulenceProperties:I;
}
// * * * * * * * * * * * * * * * * * * * * * * * * * * * * * * * * * * * * * //

dimensions      [0 0 0 0 0 0 0];

internalField   nonuniform List<scalar> 
10720
(
0.00472119
0.00453397
0.00443016
0.00445702
0.00453517
0.00469022
0.00493559
0.00525638
0.00566588
0.00617572
0.00679546
0.00755682
0.00850418
0.00970309
0.0112575
0.0133189
0.0161658
0.0201651
0.0263878
0.0356148
0.0546775
0.0871531
0.197273
0.538822
1
1
1
1
1
1
1
1
0.806696
0.364737
0.283036
0.26712
0.265124
0.238619
0.276067
0.00499
0.00550634
0.00634439
0.00817446
0.0119735
0.0156547
0.0110155
0.00770936
0.00650379
0.0061807
0.00630032
0.0066925
0.00729055
0.0080772
0.00905477
0.0102682
0.0117951
0.0137527
0.0163286
0.0197365
0.0243821
0.0307868
0.0402511
0.0529891
0.0744375
0.105103
0.156442
0.2052
0.229679
0.237753
0.240102
0.241235
0.242092
0.242812
0.243522
0.244429
0.24574
0.249699
0.256301
0.00246902
0.00219759
0.00196071
0.00175266
0.00157223
0.00141579
0.00127811
0.001156
0.00104945
0.000955105
0.000872065
0.000801239
0.000741795
0.000692105
0.000686845
0.0007479
0.000954262
0.00135913
0.0021556
0.0035355
0.00677091
0.0129991
0.0269093
0.0705823
0.14183
0.256437
0.426662
0.563837
0.653091
0.742568
0.832089
0.719405
0.606271
1
0.960561
0.879136
1
1
1
0.00279001
0.00321569
0.00384762
0.00478191
0.00593191
0.00647939
0.00549735
0.00403718
0.00298952
0.00231321
0.00185814
0.00153422
0.00129134
0.00110208
0.000950847
0.00082832
0.00072607
0.000639493
0.000561646
0.000487082
0.000407346
0.000313604
0.000225008
0.000158557
0.000784183
0.00196595
0.00500755
0.0112337
0.0178064
0.0232724
0.0275354
0.0307117
0.0331536
0.0352675
0.037309
0.0395457
0.0421498
0.0480762
0.0613739
0.00208735
0.00187337
0.00167379
0.00149328
0.00133943
0.00120419
0.00108704
0.000989402
0.000908832
0.000844725
0.00079536
0.000758551
0.000732467
0.000714709
0.000706491
0.000711563
0.000695361
0.000663321
0.000545892
0.0012629
0.000894248
0.00144604
0.000783715
0.00866427
0.0303764
0.0714507
0.147873
0.255891
0.3591
0.439881
0.504922
0.507628
0.514867
1
1
1
1
1
1
0.00233268
0.00262858
0.00301451
0.00346871
0.003876
0.00402078
0.00372591
0.00312651
0.00251547
0.00201328
0.00162349
0.00132435
0.00109289
0.000912032
0.000773487
0.000668787
0.000591328
0.000534792
0.000494295
0.000465542
0.000445245
0.000432132
0.000424791
0.000422839
0.000421494
0.000418576
0.000404069
0.000397119
0.001359
0.00271439
0.00407881
0.00566513
0.00841299
0.0119174
0.0155673
0.0190348
0.022269
0.0248299
0.0315964
0.00182902
0.00168021
0.00153758
0.00140789
0.001292
0.00118652
0.00109247
0.00100823
0.000932718
0.000864878
0.000803637
0.0007482
0.000697977
0.000651655
0.000608152
0.000565927
0.000520012
0.000475538
0.000419977
0.000350578
0.000106989
0.000570312
0.000322718
0.00225462
8.63214e-05
0.0102078
0.0377341
0.0964051
0.185053
0.277555
0.350402
0.38898
0.436882
0.702287
1
1
1
0.649769
0.697828
0.0019872
0.00216788
0.00238196
0.00260892
0.00278917
0.00285042
0.00272347
0.00243424
0.00209091
0.0017714
0.00150322
0.00128741
0.00111475
0.000975924
0.000864302
0.000773478
0.000699335
0.000638449
0.000588758
0.000547406
0.0005126
0.000481966
0.000453315
0.000423399
0.000393332
0.000368599
0.000349709
0.0003379
0.000310923
0.000298212
7.24388e-05
0.000212324
0.00067773
0.000754321
0.00176431
0.00378182
0.00662434
0.0109014
0.0196019
0.00156574
0.00145538
0.00134523
0.00124026
0.00114394
0.00105372
0.000970827
0.00089521
0.00082621
0.000763982
0.000708246
0.000658837
0.000615725
0.000578834
0.000547888
0.000523553
0.000505222
0.000488649
0.000468154
0.000447473
0.000374844
0.000251971
8.13679e-05
0
4.05536e-05
0.00282259
0.00494599
0.0177204
0.0664073
0.145492
0.22955
0.293519
0.361196
0.522875
0.777049
0.839944
0.638364
0.448152
0.409289
0.00167818
0.00179879
0.00193169
0.00205972
0.00215363
0.0021838
0.00211969
0.00196387
0.00175846
0.00154393
0.00134388
0.00116771
0.00101579
0.000885649
0.00077491
0.000681014
0.000602024
0.000536334
0.0004828
0.00043978
0.000405784
0.000378916
0.000357201
0.00033754
0.00031792
0.000299582
0.000285743
0.000276984
0.000273566
0.000268629
0.000274413
0.00012256
0.000499933
0.000186588
0.0014215
0.000508037
0.00142914
0.0022714
0.00874224
0.00136251
0.00128377
0.00120255
0.00112366
0.00105014
0.000980088
0.000914824
0.000854475
0.000798604
0.000747234
0.000699941
0.000656356
0.000616202
0.000579036
0.000544448
0.000512331
0.000480874
0.000447325
0.000412666
0.00037734
0.000346569
0.000313241
0.000226145
6.66552e-05
0
0
0
0.0039355
0.00774539
0.0500803
0.122386
0.200709
0.283746
0.404025
0.540342
0.567474
0.464003
0.345012
0.292841
0.00143975
0.00151946
0.00160397
0.00168136
0.00173663
0.00175412
0.00171702
0.00162429
0.00149476
0.00134995
0.00120632
0.00107359
0.000955187
0.000851522
0.000762016
0.000685524
0.000620664
0.000566007
0.000520217
0.000481778
0.000449156
0.000420643
0.000394515
0.000368532
0.000341731
0.000316253
0.000294229
0.00027614
0.000261232
0.000248374
0.000235121
0.000217564
0.000185216
0.000145808
3.49981e-05
0.00013594
0.000569987
0.00106573
0.00315637
0.00119084
0.00113246
0.00107064
0.00100897
0.000950418
0.000893265
0.000838822
0.000787504
0.000739021
0.000693601
0.000651111
0.000611384
0.00057442
0.000540064
0.00050825
0.000478831
0.0004522
0.000428818
0.000407039
0.000384088
0.000359407
0.000335105
0.000320069
0.000216244
6.26388e-05
0
0
0
0.00345311
0.00273603
0.0419781
0.112276
0.202994
0.30996
0.404185
0.423395
0.36155
0.279795
0.229311
0.0012463
0.00130172
0.00135875
0.00140881
0.00144425
0.00145528
0.00143189
0.00137292
0.00128752
0.00118718
0.00108238
0.000980562
0.00088538
0.000798334
0.000719977
0.000650249
0.000588737
0.000534939
0.000488338
0.000448255
0.000413941
0.000384403
0.000358323
0.000333712
0.000309049
0.000285112
0.000263512
0.000245078
0.000229805
0.000218011
0.000210561
0.000207923
0.000205766
0.000197235
0.00018672
7.87738e-05
3.73435e-05
0
0.0014704
0.00105046
0.00100704
0.000960147
0.000912342
0.000866522
0.000821035
0.000777126
0.000735299
0.000695361
0.000657597
0.000621866
0.000588068
0.000556182
0.000526044
0.00049752
0.000470465
0.000444799
0.000419233
0.000393149
0.00036701
0.000342179
0.000318876
0.000309074
0.000299068
0.000226144
6.14324e-05
3.86076e-06
0
0
0.00214834
0.000188802
0.0418176
0.12399
0.225697
0.306904
0.328153
0.290401
0.232631
0.187898
0.00109073
0.00113007
0.00116992
0.00120387
0.00122802
0.00123545
0.0012198
0.00118021
0.0011216
0.00105045
0.000973312
0.000895678
0.000820698
0.00075012
0.000684988
0.000625851
0.000572822
0.000525845
0.000484685
0.00044887
0.000417728
0.000390318
0.000365389
0.000341313
0.000316994
0.000293092
0.000270868
0.000250815
0.000232632
0.000215972
0.000200728
0.000186598
0.000173499
0.000161674
0.000152795
0.000133079
0.00011365
4.04318e-05
0
0.000933148
0.00090024
0.000864137
0.000826456
0.000790015
0.000753303
0.000717291
0.000682544
0.000648905
0.000616632
0.00058569
0.000556003
0.000527602
0.000500422
0.00047443
0.000449558
0.000425724
0.000402981
0.000381291
0.000360066
0.000339155
0.000319162
0.000302317
0.00029857
0.000294337
0.000240069
1.61341e-05
2.84058e-06
0
0
8.19391e-05
0.00751481
0.056683
0.147208
0.225296
0.254056
0.234146
0.194305
0.156552
0.000963146
0.000991872
0.00102075
0.00104477
0.00106189
0.00106708
0.00105619
0.0010286
0.000987047
0.000935444
0.000877979
0.000818439
0.000759233
0.000701879
0.000647424
0.000596568
0.000549729
0.000507099
0.000468722
0.000434449
0.000403945
0.00037659
0.000351486
0.000327438
0.000303601
0.000280303
0.000258606
0.000239141
0.000221895
0.00020671
0.000193727
0.000183335
0.000175284
0.00016941
0.000165207
0.000164794
0.000168247
0.000173139
3.49641e-05
0.000834772
0.000809465
0.000781408
0.0007517
0.000722545
0.000692885
0.000663571
0.000634984
0.000607019
0.000579946
0.000553725
0.000528324
0.000503797
0.000480096
0.000457186
0.000435005
0.000413556
0.000392666
0.000371788
0.000351054
0.000331014
0.00031299
0.000297714
0.000287367
0.000286941
0.000286694
0.000239287
9.43644e-06
2.20096e-06
0
0
0.00265559
0.0124594
0.0784696
0.150459
0.187711
0.183733
0.159377
0.129287
0.000857359
0.000878723
0.000900234
0.000917795
0.000930278
0.000934052
0.000926253
0.000906436
0.000876236
0.000838025
0.000794643
0.000748757
0.000702064
0.000655737
0.000610737
0.000567774
0.000527352
0.000489854
0.00045545
0.000424183
0.000395882
0.00037012
0.000346204
0.000323281
0.000300682
0.000278635
0.000257946
0.00023911
0.000222055
0.00020651
0.000192328
0.000179534
0.000167965
0.000158008
0.000149294
0.000146726
0.000142908
0.000189686
0.000129303
0.000751196
0.000731543
0.000709496
0.000685769
0.000662399
0.000638345
0.000614151
0.000590485
0.000567183
0.000544354
0.000521995
0.000500101
0.000478737
0.000457873
0.000437486
0.000417559
0.000398055
0.000379026
0.000360331
0.000342021
0.000324321
0.000307951
0.000294221
0.000283111
0.000275404
0.000274266
0.000279667
0.000229695
8.48579e-06
1.95968e-06
0
0
0.00650389
0.027042
0.0824018
0.123057
0.133373
0.124141
0.102731
0.000768478
0.000784627
0.000801026
0.000814263
0.000823521
0.000826333
0.000820656
0.000806053
0.00078364
0.000754939
0.000721768
0.000686123
0.000649211
0.000611866
0.000574815
0.000538663
0.000503892
0.000470901
0.000439978
0.000411258
0.00038471
0.000360107
0.000336993
0.000314784
0.000293022
0.000271859
0.000251884
0.000233558
0.000216899
0.000201743
0.000188033
0.000176034
0.000165766
0.000157636
0.000151384
0.000150806
0.000150509
0.000181188
0.000205227
0.000679576
0.000664157
0.000646695
0.000627632
0.000608796
0.000589207
0.000569407
0.000549827
0.000530283
0.000511072
0.000492215
0.000473478
0.000455022
0.000436869
0.000418982
0.000401344
0.000383935
0.000366878
0.000349911
0.000333089
0.000316816
0.000301759
0.000288986
0.000278852
0.000270083
0.000262556
0.000261474
0.000267402
0.000209281
7.63953e-06
3.08517e-07
0
0.00171133
0.00657661
0.0282201
0.0612235
0.0795482
0.0845946
0.0732474
0.00069297
0.00070532
0.000718052
0.000728269
0.00073532
0.000737358
0.000733126
0.000722235
0.000705302
0.000683414
0.000657792
0.000629894
0.000600619
0.00057052
0.000540149
0.000509947
0.000480302
0.000451608
0.000424157
0.000398175
0.000373746
0.000350758
0.000328901
0.000307781
0.000287148
0.000267086
0.000248047
0.000230415
0.000214245
0.0001994
0.000185787
0.000173525
0.000162573
0.000153393
0.000145793
0.000143658
0.000143718
0.000164953
0.000219438
0.00061763
0.000605416
0.000591502
0.000576091
0.000560817
0.000544813
0.000528526
0.000512273
0.00049603
0.000479854
0.000463808
0.000447851
0.000431925
0.000416117
0.000400411
0.000384813
0.000369296
0.000353998
0.000338792
0.000323735
0.000309132
0.000295502
0.000283588
0.000273919
0.000265689
0.000257453
0.000249529
0.000248103
0.000253143
0.000191914
3.73522e-05
0
0
0.00487441
0.0105744
0.017424
0.0291573
0.038975
0.0382981
0.000628144
0.000637689
0.000647723
0.000655739
0.000661191
0.000662759
0.00065947
0.000651154
0.000638269
0.000621389
0.00060141
0.000579398
0.000556067
0.000531819
0.000506958
0.000481813
0.000456671
0.000431866
0.000407668
0.000384318
0.000361949
0.000340537
0.000319907
0.000299843
0.000280219
0.00026113
0.000242915
0.000225912
0.00021022
0.000195762
0.00018247
0.000170473
0.000159833
0.000150974
0.00014362
0.000141167
0.000140822
0.000156559
0.000210688
0.000563631
0.000553874
0.000542725
0.000530206
0.000517783
0.000504673
0.000491215
0.000477773
0.000464151
0.000450637
0.000437069
0.000423448
0.000409828
0.00039614
0.000382417
0.000368714
0.000355015
0.000341421
0.0003279
0.000314401
0.000301226
0.000288858
0.000277856
0.000268624
0.000260774
0.000253139
0.000245118
0.0002365
0.000234056
0.00024484
0.000144782
5.36254e-06
0
0.000356509
0.00284161
0.00912875
0.0118681
0.0147127
0.0125
0.000571948
0.000579407
0.000587394
0.000593788
0.000598051
0.000599271
0.000596732
0.000590212
0.000580243
0.000567176
0.000551453
0.000533994
0.000515321
0.000495724
0.000475413
0.000454554
0.000433333
0.000412027
0.000390871
0.00037008
0.000349793
0.000330058
0.000310794
0.00029192
0.00027341
0.000255362
0.000238053
0.000221768
0.000206628
0.00019259
0.000179587
0.000167683
0.000156958
0.000147778
0.000139832
0.000136373
0.000134893
0.000148363
0.000198487
0.000516201
0.000508353
0.000499393
0.000489171
0.000479036
0.000468275
0.000457142
0.000445972
0.000434617
0.000423234
0.000411812
0.000400295
0.000388706
0.000376853
0.000364889
0.000352905
0.000340885
0.000328863
0.000316901
0.00030492
0.000293139
0.000281983
0.000271892
0.000263168
0.000255616
0.000248389
0.00024114
0.000233241
0.00022131
0.000230367
0.000224699
4.00314e-05
0
0
0.00117042
0.00425691
0.0032244
0.00511423
0.00609867
0.00052283
0.000528709
0.000535123
0.000540274
0.000543638
0.000544595
0.000542614
0.000537521
0.000529609
0.000519368
0.000507055
0.000493085
0.000478058
0.000462178
0.000445568
0.000428307
0.000410484
0.000392277
0.00037389
0.000355498
0.000337251
0.00031921
0.000301356
0.000283669
0.000266243
0.0002492
0.000232767
0.000217182
0.000202586
0.000188966
0.000176279
0.000164583
0.000153998
0.000144849
0.000136811
0.000132802
0.000130639
0.000141644
0.000187482
0.000474255
0.000467924
0.000460699
0.000452326
0.000444044
0.000435191
0.000425977
0.000416696
0.000407242
0.000397657
0.000388086
0.000378353
0.000368433
0.000358313
0.000347952
0.000337504
0.000326977
0.000316388
0.000305844
0.000295245
0.000284753
0.000274737
0.000265549
0.000257426
0.000250237
0.000243419
0.000236443
0.000229872
0.000219709
0.000210521
0.000231431
0.000156261
8.0423e-06
0
0
0
0.0013973
0.00225817
0.00216774
0.000479574
0.000484234
0.000489438
0.000493615
0.000496282
0.000497039
0.00049547
0.000491452
0.000485148
0.000477038
0.000467271
0.000456133
0.000443996
0.000431069
0.000417468
0.000403184
0.000388255
0.000372779
0.000356903
0.000340761
0.000324468
0.000308095
0.000291657
0.000275214
0.000258915
0.000242906
0.000227375
0.000212535
0.000198529
0.00018537
0.000173029
0.000161558
0.000151055
0.000141787
0.000133423
0.000128603
0.00012549
0.00013443
0.000177062
0.000436929
0.000431819
0.00042598
0.000419109
0.000412329
0.00040504
0.000397407
0.000389707
0.000381811
0.000373824
0.000365691
0.000357534
0.000349151
0.000340485
0.000331582
0.000322501
0.000313302
0.000304014
0.000294766
0.000285441
0.00027615
0.000267203
0.000258884
0.000251396
0.000244638
0.00023825
0.000231655
0.000225184
0.000218611
0.000204977
0.00020997
0.000220314
1.02935e-05
4.69908e-07
0
0
0
0
0.00216049
0.000441223
0.000444947
0.000449194
0.000452586
0.000454708
0.000455314
0.000454067
0.000450864
0.000445848
0.0004393
0.00043153
0.000422678
0.000412783
0.000402234
0.000391073
0.000379277
0.000366803
0.000353715
0.000340079
0.000325996
0.000311539
0.000296776
0.000281741
0.000266548
0.000251383
0.000236407
0.000221787
0.000207715
0.000194321
0.000181648
0.000169678
0.000158464
0.000148094
0.000138774
0.000130164
0.000124585
0.000120483
0.000127256
0.000166775
0.000403538
0.000399412
0.000394691
0.00038905
0.000383489
0.000377492
0.000371168
0.00036478
0.000358208
0.000351532
0.000344729
0.000337798
0.000330728
0.000323411
0.000315863
0.000307988
0.000299985
0.000291881
0.000283819
0.000275672
0.000267493
0.000259536
0.000252038
0.000245178
0.000238891
0.000232912
0.000226862
0.000220458
0.000214909
0.000205504
0.000196162
0.000214215
0.000154814
3.47705e-05
0
0
0
0
0.00220344
0.000407006
0.000410003
0.000413489
0.000416239
0.000417941
0.000418423
0.000417428
0.000414856
0.000410833
0.00040553
0.000399312
0.000392193
0.000384189
0.00037553
0.000366345
0.000356594
0.000346205
0.000335172
0.000323513
0.000311274
0.000298519
0.000285305
0.000271665
0.00025771
0.000243663
0.000229721
0.000216025
0.000202734
0.00018998
0.000177815
0.000166242
0.000155306
0.000145077
0.000135695
0.000126809
0.000120416
0.000115225
0.000119992
0.000156486
0.000373516
0.000370185
0.000366387
0.000361739
0.000357192
0.000352257
0.000347027
0.000341733
0.000336275
0.000330704
0.000325039
0.000319139
0.000313231
0.000307083
0.000300638
0.000293929
0.000287022
0.000279981
0.00027296
0.000265892
0.000258745
0.000251725
0.000245024
0.000238797
0.000233014
0.00022746
0.00022193
0.000216026
0.000210351
0.000204469
0.00019376
0.000195615
0.000205661
0.000134365
3.76556e-05
9.37448e-06
0
0
0.00228334
0.000376317
0.000378736
0.000381609
0.000383841
0.000385209
0.000385589
0.000384787
0.000382715
0.000379462
0.00037519
0.000370116
0.000364376
0.000357933
0.000350773
0.000343204
0.000335155
0.000326521
0.000317237
0.000307293
0.000296707
0.000285511
0.000273741
0.00026143
0.000248698
0.000235776
0.00022285
0.000210062
0.000197545
0.000185435
0.000173783
0.000162616
0.000151964
0.000141893
0.000132469
0.00012334
0.000116168
0.000109867
0.000112724
0.000146268
0.000346404
0.000343723
0.000340674
0.000336851
0.000333133
0.000329083
0.000324762
0.000320392
0.000315867
0.000311239
0.000306511
0.000301607
0.000296576
0.000291431
0.000286045
0.000280404
0.000274431
0.000268322
0.000262228
0.000256138
0.00024995
0.00024381
0.000237873
0.000232277
0.000227017
0.000221926
0.000216867
0.000211618
0.000206126
0.000201346
0.000194299
0.000187788
0.000201423
0.000209815
0.000149178
4.45878e-05
3.89652e-05
0
0.00239556
0.000348659
0.000350612
0.000352991
0.000354806
0.000355895
0.000356196
0.000355543
0.00035386
0.000351219
0.000347753
0.000343608
0.00033895
0.000333706
0.00032786
0.000321623
0.000314954
0.000307761
0.000299961
0.000291498
0.000282373
0.0002726
0.00026219
0.000251151
0.000239599
0.00022776
0.000215819
0.000203913
0.000192167
0.000180698
0.000169571
0.000158815
0.000148457
0.000138544
0.000129086
0.000119721
0.000111776
0.00010432
0.000105378
0.000136197
0.000321816
0.000319677
0.000317236
0.000314093
0.000311062
0.00030775
0.00030419
0.000300596
0.000296862
0.00029303
0.000289106
0.000285047
0.000280781
0.000276514
0.000272033
0.000267247
0.000262186
0.000256947
0.000251683
0.000246449
0.000241121
0.000235784
0.000230573
0.000225604
0.000220883
0.000216287
0.000211707
0.000207064
0.000202174
0.000197703
0.00019338
0.000187391
0.00019251
0.000218028
0.000225587
0.000201233
0.00017735
7.30444e-06
0.00248684
0.000323624
0.000325199
0.000327178
0.00032865
0.000329511
0.000329744
0.000329206
0.000327834
0.000325682
0.000322865
0.000319444
0.000315655
0.000311377
0.000306637
0.000301473
0.000295912
0.000289907
0.000283368
0.000276198
0.000268371
0.000259877
0.000250725
0.000240891
0.000230466
0.000219658
0.000208669
0.000197629
0.000186649
0.000175827
0.000165237
0.000154904
0.000144851
0.000135103
0.000125628
0.000116039
0.00010733
9.86662e-05
9.79406e-05
0.0001263
0.000299433
0.000297742
0.000295808
0.000293222
0.000290768
0.000288071
0.000285153
0.000282212
0.000279146
0.000275991
0.000272752
0.000269383
0.000265875
0.000262241
0.000258531
0.000254601
0.000250392
0.000245891
0.000241358
0.000236884
0.000232331
0.000227725
0.000223188
0.000218818
0.000214634
0.000210543
0.000206462
0.000202371
0.000198183
0.00019421
0.000191133
0.000187862
0.000190399
0.000210935
0.000232651
0.000260158
0.00031357
1.36941e-05
0.00244625
0.000300876
0.000302139
0.000303789
0.000304981
0.000305656
0.000305832
0.000305386
0.000304258
0.000302495
0.000300189
0.000297402
0.000294239
0.00029077
0.000286961
0.000282618
0.000277982
0.000272979
0.000267499
0.000261439
0.000254752
0.000247421
0.000239412
0.000230688
0.000221318
0.000211507
0.000201444
0.00019125
0.000181027
0.00017086
0.000160816
0.000150924
0.00014119
0.000131617
0.000122149
0.000112351
0.00010288
9.28926e-05
9.03406e-05
0.000116571
0.000278992
0.000277673
0.000276154
0.000274036
0.000272064
0.000269882
0.000267505
0.000265112
0.000262614
0.000260032
0.000257381
0.000254607
0.000251738
0.000248675
0.000245645
0.000242419
0.000238876
0.000235105
0.000231258
0.000227451
0.000223565
0.000219608
0.000215693
0.000211899
0.000208245
0.000204661
0.000201092
0.000197545
0.000194021
0.000190768
0.000188467
0.000187111
0.000191019
0.000206352
0.000222611
0.000261938
0.000358571
1.61734e-05
0.00222877
0.000280129
0.000281138
0.00028252
0.000283477
0.000283998
0.000284128
0.000283748
0.000282818
0.000281369
0.000279473
0.000277195
0.000274555
0.000271742
0.000268571
0.000265032
0.000261152
0.000256951
0.000252354
0.000247253
0.000241574
0.000235271
0.000228289
0.000220576
0.000212195
0.000203331
0.000194159
0.000184784
0.000175303
0.000165787
0.000156294
0.000146852
0.000137451
0.00012807
0.00011864
0.000108665
9.84571e-05
8.70438e-05
8.251e-05
0.000107029
0.000260268
0.00025926
0.000258087
0.000256364
0.000254786
0.000253039
0.000251118
0.00024919
0.000247167
0.000245075
0.000242919
0.000240658
0.000238305
0.000235813
0.000233265
0.000230599
0.000227724
0.000224637
0.000221367
0.000218117
0.000214813
0.000211448
0.00020811
0.000204865
0.000201727
0.000198642
0.000195584
0.000192581
0.000189685
0.000187188
0.000185678
0.000185411
0.000190939
0.000204107
0.000214498
0.000262767
0.000344895
1.57108e-05
0.00182692
0.000261146
0.000261952
0.000263109
0.000263872
0.000264267
0.000264355
0.000264028
0.00026325
0.000262053
0.00026049
0.000258612
0.000256453
0.000254087
0.000251492
0.000248623
0.000245303
0.000241774
0.000237945
0.000233683
0.000228876
0.000223459
0.000217379
0.000210588
0.000203127
0.000195156
0.000186828
0.000178243
0.000169475
0.000160591
0.000151641
0.000142646
0.000133588
0.000124424
0.000115053
0.000104935
9.40449e-05
8.11506e-05
7.43399e-05
9.7736e-05
0.000243071
0.000242329
0.000241437
0.000240046
0.000238799
0.000237417
0.000235877
0.000234344
0.000232728
0.000231046
0.000229315
0.000227488
0.000225581
0.000223567
0.000221439
0.000219279
0.000216979
0.000214482
0.000211751
0.00020905
0.000206311
0.000203498
0.000200688
0.000197932
0.000195255
0.000192621
0.000190029
0.000187536
0.000185225
0.000183431
0.000182692
0.000183188
0.000189594
0.000201857
0.000209283
0.000264706
0.000315191
1.45749e-05
0.00108316
0.000243729
0.000244371
0.000245339
0.000245938
0.000246229
0.000246279
0.000245993
0.000245341
0.000244344
0.000243051
0.0002415
0.000239715
0.000237729
0.000235605
0.000233196
0.000230429
0.000227491
0.0002243
0.000220724
0.000216637
0.000211983
0.000206715
0.000200775
0.000194172
0.00018704
0.000179502
0.000171659
0.000163572
0.000155302
0.000146891
0.000138351
0.000129656
0.000120745
0.000111467
0.000101244
8.97226e-05
7.52983e-05
6.5753e-05
8.88186e-05
0.000227239
0.000226721
0.000226061
0.000224941
0.000223974
0.000222897
0.000221684
0.00022048
0.00021921
0.000217878
0.000216504
0.000215048
0.000213519
0.000211921
0.00021016
0.000208459
0.000206656
0.000204619
0.000202397
0.000200181
0.000197931
0.000195595
0.000193261
0.000190968
0.000188733
0.000186532
0.000184388
0.000182385
0.000180628
0.000179479
0.000179398
0.000180571
0.000187329
0.000198804
0.000204719
0.000261907
0.000300763
1.44073e-05
0
0.000227715
0.000228217
0.000229025
0.000229487
0.00022969
0.000229706
0.000229451
0.000228897
0.000228063
0.000226989
0.000225702
0.000224221
0.000222545
0.000220795
0.00021878
0.000216539
0.000214057
0.000211338
0.000208314
0.000204865
0.000200909
0.00019638
0.000191203
0.000185372
0.000179001
0.000172203
0.00016506
0.000157635
0.000149972
0.000142104
0.000134039
0.000125733
0.000117108
0.000107975
9.77199e-05
8.56863e-05
6.97238e-05
5.65314e-05
8.03654e-05
0.000212634
0.000212302
0.000211827
0.000210931
0.000210202
0.000209383
0.000208444
0.000207524
0.000206542
0.000205505
0.000204434
0.000203292
0.00020209
0.000200825
0.000199448
0.000198057
0.000196616
0.000195037
0.000193289
0.000191464
0.000189604
0.000187673
0.000185756
0.000183878
0.000182062
0.000180289
0.000178594
0.000177072
0.000175844
0.000175285
0.000175762
0.00017753
0.000184424
0.000195165
0.000200095
0.000257136
0.000294148
1.48143e-05
0
0.000212958
0.000213343
0.000214011
0.000214357
0.000214485
0.000214469
0.000214237
0.000213763
0.000213061
0.000212164
0.000211089
0.000209856
0.000208465
0.000206968
0.000205325
0.000203529
0.000201335
0.000199008
0.000196479
0.000193614
0.000190285
0.000186405
0.00018189
0.000176744
0.000171066
0.000164956
0.000158482
0.000151692
0.000144621
0.000137295
0.000129709
0.000121815
0.000113511
0.000104583
9.43944e-05
8.20249e-05
6.47236e-05
4.63254e-05
7.25544e-05
0.000199138
0.00019895
0.000198616
0.000197911
0.000197384
0.00019679
0.000196082
0.000195399
0.000194659
0.000193874
0.000193057
0.000192181
0.000191253
0.000190275
0.000189217
0.000188089
0.000186972
0.000185785
0.000184447
0.000182992
0.000181526
0.00017999
0.000178448
0.000176925
0.000175462
0.000174057
0.000172753
0.00017166
0.000170902
0.000170851
0.000171807
0.000174046
0.000181033
0.000191228
0.000195403
0.000251804
0.000286949
1.52992e-05
0
0.000199327
0.000199616
0.000200163
0.00020041
0.000200472
0.000200429
0.000200211
0.0001998
0.000199205
0.000198451
0.00019755
0.000196519
0.000195353
0.000194084
0.000192753
0.000191196
0.000189333
0.000187382
0.000185282
0.000182903
0.000180094
0.000176761
0.000172823
0.000168287
0.000163243
0.000157774
0.000151928
0.000145741
0.000139237
0.000132434
0.000125318
0.000117837
0.000109871
0.000101189
9.11619e-05
7.8684e-05
6.05289e-05
3.44077e-05
6.58558e-05
0.000186631
0.000186555
0.000186337
0.000185799
0.000185446
0.000185036
0.000184524
0.00018404
0.000183504
0.000182926
0.000182327
0.000181674
0.000180982
0.000180244
0.000179464
0.000178563
0.000177752
0.000176908
0.000175882
0.000174782
0.000173656
0.000172448
0.000171213
0.000170004
0.000168864
0.000167801
0.000166856
0.000166148
0.000165801
0.00016618
0.000167546
0.000170159
0.000177196
0.000187016
0.00019061
0.000246003
0.000279161
1.58253e-05
0
0.000186713
0.000186922
0.000187364
0.000187523
0.000187529
0.00018746
0.000187252
0.000186891
0.000186382
0.000185744
0.00018499
0.000184113
0.000183138
0.000182045
0.000180938
0.000179581
0.000178102
0.000176462
0.00017468
0.000172673
0.000170308
0.000167454
0.000164025
0.000160034
0.000155566
0.00015069
0.000145429
0.00013981
0.000133846
0.000127546
0.000120893
0.000113827
0.000106215
9.78298e-05
8.80618e-05
7.56985e-05
5.73982e-05
1.78577e-05
6.09395e-05
0.000175026
0.000175032
0.00017491
0.000174522
0.000174314
0.000174058
0.000173709
0.000173387
0.000173024
0.000172622
0.000172203
0.000171739
0.000171243
0.000170711
0.000170142
0.0001695
0.000168875
0.000168251
0.000167539
0.000166764
0.000165899
0.000164922
0.000163911
0.00016296
0.000162124
0.000161399
0.00016081
0.000160467
0.000160494
0.000161238
0.000162967
0.000165873
0.000172862
0.000182445
0.000185665
0.000239558
0.000271225
1.63571e-05
0
0.000175019
0.000175158
0.000175509
0.000175593
0.000175551
0.000175459
0.000175256
0.000174933
0.000174494
0.000173951
0.000173309
0.000172568
0.000171745
0.000170825
0.000169836
0.000168723
0.000167559
0.000166107
0.000164581
0.000162912
0.000160946
0.00015851
0.000155526
0.000152025
0.000148084
0.000143748
0.000139029
0.000133941
0.00012849
0.000122678
0.000116483
0.000109841
0.000102607
9.45705e-05
8.5169e-05
7.31937e-05
5.56332e-05
2.16742e-05
5.82469e-05
0.000164245
0.000164312
0.000164268
0.000164008
0.000163921
0.00016379
0.000163574
0.000163391
0.00016317
0.000162913
0.000162646
0.000162338
0.000162006
0.000161647
0.000161255
0.000160824
0.00016035
0.000159921
0.000159462
0.000158946
0.00015833
0.000157588
0.000156788
0.000156059
0.000155473
0.000155027
0.000154733
0.000154693
0.000155028
0.000156061
0.00015809
0.000161184
0.000168048
0.00017741
0.000180493
0.000232106
0.0002624
1.68179e-05
0
0.000164162
0.000164239
0.000164509
0.000164531
0.000164447
0.000164333
0.000164133
0.00016384
0.000163456
0.000162991
0.000162443
0.000161814
0.000161101
0.00016035
0.000159463
0.000158565
0.000157473
0.000156322
0.000155062
0.000153666
0.000152009
0.000149932
0.000147355
0.0001443
0.000140836
0.000136987
0.000132764
0.000128169
0.000123207
0.000117874
0.000112139
0.000105942
9.91257e-05
9.15114e-05
8.26e-05
7.12812e-05
5.53144e-05
3.41719e-05
5.76543e-05
0.000154198
0.000154331
0.000154353
0.000154189
0.0001542
0.000154175
0.000154069
0.000153997
0.000153895
0.00015376
0.000153617
0.00015344
0.000153244
0.000153029
0.000152785
0.00015253
0.000152184
0.000151943
0.000151716
0.000151396
0.000151012
0.000150484
0.000149865
0.000149315
0.00014893
0.000148712
0.000148653
0.000148853
0.00014943
0.000150675
0.000152921
0.00015613
0.000162718
0.000172035
0.000174856
0.000223189
0.000252188
1.71385e-05
0
0.000154062
0.000154083
0.000154286
0.000154256
0.000154136
0.000154003
0.000153804
0.000153534
0.000153195
0.00015279
0.000152318
0.000151778
0.000151173
0.000150517
0.000149777
0.00014896
0.000148052
0.000147169
0.000146036
0.000144826
0.000143448
0.000141731
0.000139545
0.00013689
0.000133835
0.000130416
0.00012664
0.000122508
0.000118014
0.000113149
0.000107876
0.000102131
9.57618e-05
8.86312e-05
8.03205e-05
6.99062e-05
5.60982e-05
4.22625e-05
5.85285e-05
0.000144832
0.000145013
0.000145091
0.000145011
0.000145102
0.000145161
0.000145147
0.00014517
0.000145164
0.000145127
0.000145088
0.000145018
0.000144933
0.000144835
0.000144714
0.000144584
0.000144409
0.000144268
0.000144159
0.000144027
0.000143855
0.000143489
0.000142988
0.000142553
0.000142321
0.000142295
0.000142443
0.000142852
0.000143637
0.000145048
0.00014744
0.000150743
0.000156858
0.000166445
0.0001684
0.00021296
0.000241048
1.73242e-05
0
0.000144652
0.000144628
0.000144771
0.000144698
0.000144551
0.0001444
0.000144199
0.000143947
0.000143643
0.000143288
0.000142879
0.000142408
0.000141888
0.00014132
0.000140693
0.000139965
0.000139245
0.000138429
0.000137445
0.00013645
0.000135344