/*--------------------------------*- C++ -*----------------------------------*\
| =========                 |                                                 |
| \\      /  F ield         | OpenFOAM: The Open Source CFD Toolbox           |
|  \\    /   O peration     | Version:  2306                                  |
|   \\  /    A nd           | Website:  www.openfoam.com                      |
|    \\/     M anipulation  |                                                 |
\*---------------------------------------------------------------------------*/
FoamFile
{
    version     2.0;
    format      ascii;
    arch        "LSB;label=32;scalar=64";
    class       volScalarField;
    location    "150";
    object      div(phi);
}
// * * * * * * * * * * * * * * * * * * * * * * * * * * * * * * * * * * * * * //

dimensions      [0 0 -1 0 0 0 0];

internalField   nonuniform List<scalar> 
10720
(
0.00179091
-0.00155145
0.000654805
-0.000834637
0.000261993
9.20031e-05
4.22019e-05
0.000458174
0.000161211
0.00016639
0.000128353
9.67697e-05
5.94638e-05
4.64229e-05
3.08051e-05
4.3454e-05
4.54773e-05
8.4206e-05
9.28483e-05
0.000157109
0.00012524
0.000202705
-3.02642e-05
-5.31364e-05
-0.000138439
-7.11685e-05
7.53788e-07
-7.39963e-06
7.37292e-05
8.26562e-05
0.000673171
-0.000584191
-1.75175e-05
4.07747e-05
0.000205498
0.00016417
0.000113007
-0.000177938
0.000278943
-0.00187634
0.00258771
-0.000184805
0.000981579
0.000306342
-0.00037629
-0.000896033
-0.000510033
-6.19264e-05
1.01781e-05
-2.11099e-05
3.683e-05
4.58981e-06
4.8023e-05
1.84144e-05
5.32429e-05
1.99662e-05
4.94508e-05
-8.37434e-06
9.85386e-06
-4.59695e-05
-4.54367e-05
-2.60756e-05
-1.43605e-05
1.01185e-06
7.04706e-06
1.19925e-05
3.7683e-05
-4.21412e-05
0.000104094
5.24521e-05
-6.71475e-06
-2.7473e-06
-7.29264e-05
-0.000166479
-7.31377e-06
5.98294e-05
-6.0248e-05
-7.88803e-05
0.000551207
-0.000549538
0.000336093
-0.000515509
0.000247364
8.82674e-05
0.00054428
7.31029e-06
0.000213383
0.000141375
0.000120674
0.000106929
0.000101429
9.06089e-05
8.11514e-05
7.60199e-05
6.16857e-05
6.17357e-05
4.04436e-05
4.42431e-05
-7.91322e-06
-3.05569e-05
-0.000194164
-0.000253864
-0.0002765
-0.000122309
7.09857e-05
0.000266592
0.000339082
0.000387865
0.000812485
-0.000254829
0.000183717
0.000108702
0.000159752
0.000194789
4.59452e-05
4.07655e-05
0.000554459
0.000253748
0.000801489
0.000108803
0.000368597
-0.000164071
-0.000446281
2.25471e-05
-3.93733e-05
3.15918e-05
-4.43318e-06
1.92885e-05
3.14184e-05
4.3247e-05
6.89545e-05
5.44228e-05
6.94474e-05
4.03414e-05
4.21321e-05
-5.51532e-06
-1.29051e-05
-5.04845e-05
-4.19797e-05
-1.31307e-06
2.61214e-05
2.47932e-05
-3.56778e-05
-9.39418e-05
-0.00016082
-0.000275285
-4.78483e-05
-0.00015047
-0.000165143
-0.000180933
-0.000146755
-0.00020296
-0.000198763
3.3804e-05
-4.25251e-05
2.41853e-05
-0.00187279
0.000819284
-0.00100931
0.000404748
9.92836e-05
0.000330652
9.69345e-05
0.00039402
7.52464e-05
7.62713e-05
6.32594e-05
4.92487e-05
4.74825e-05
3.74781e-05
4.95662e-05
5.12721e-05
7.11174e-05
8.15214e-05
0.000107616
0.000124395
0.000138807
0.000147675
9.75013e-05
6.65117e-05
2.77221e-05
1.93593e-05
-6.80515e-05
-3.67043e-05
-0.000108546
-7.22707e-05
0.000114034
-0.000297966
-7.77583e-05
-1.65623e-05
9.52888e-05
4.90378e-05
5.37675e-05
-0.000149821
3.21989e-05
0.00139212
-0.000592546
0.000383387
-0.000343683
-0.000161509
0.000120248
-0.00018153
0.000168989
8.95809e-05
3.75106e-05
3.60332e-05
1.36582e-05
4.64184e-05
2.38682e-05
4.63889e-05
2.09933e-05
2.94861e-05
1.17475e-05
-4.03889e-06
-1.5246e-05
-4.7136e-05
-5.057e-05
-5.92511e-05
-4.82871e-05
-3.58045e-05
-1.76826e-05
3.30942e-05
5.07537e-05
7.1185e-05
0.000103488
8.27547e-05
6.12251e-05
5.00919e-05
-4.35429e-05
-0.000136297
8.64147e-05
5.09616e-05
-5.88163e-05
-8.69533e-05
0.000857018
-0.00073111
0.000202911
-4.20039e-05
-7.51912e-06
0.000412362
0.000325396
-0.000112548
8.01897e-05
4.41186e-05
3.92772e-05
5.94248e-05
6.32535e-05
8.06261e-05
8.76447e-05
9.35512e-05
0.000101437
9.5566e-05
9.74514e-05
7.84984e-05
6.5309e-05
1.44938e-05
-5.94161e-05
-0.000150874
-0.000171104
-0.000138468
-6.53822e-06
0.000164465
0.00025436
0.00034221
0.000546752
-5.95892e-05
0.00018628
0.000111288
0.000138719
0.000153709
2.97587e-05
4.28628e-05
0.000389789
-0.000477253
7.87991e-05
-0.000305423
-0.000325357
-3.05938e-05
-0.000224698
0.000242007
0.000150574
7.66883e-05
6.39635e-05
3.14231e-05
4.2152e-05
5.28228e-05
5.28208e-05
6.19472e-05
4.07715e-05
3.67135e-05
2.02084e-06
-1.49166e-05
-4.96272e-05
-6.55483e-05
-6.60106e-05
-3.84791e-05
-4.64691e-06
7.38958e-06
-1.7236e-05
-5.99101e-05
-0.000130408
-0.000212002
-9.79091e-05
-0.000179123
-0.000180762
-0.000206152
-0.000168246
-0.000228341
-0.00019703
1.3616e-05
-4.53177e-05
4.49896e-05
0.000536929
2.62341e-05
-2.3633e-05
-0.000106951
0.000518027
-1.01388e-05
-5.59573e-05
0.000191607
-2.30487e-05
-4.11173e-06
1.23758e-05
2.16111e-05
2.6499e-05
3.77216e-05
3.74332e-05
5.37678e-05
5.50241e-05
7.52023e-05
8.04661e-05
0.000105728
0.000109937
0.000124691
0.000101621
8.30686e-05
5.44884e-05
2.04825e-06
-2.23706e-05
-7.53386e-05
-8.96839e-05
-0.000134014
-7.08781e-05
-0.000197198
-0.000102101
-4.86474e-05
8.26864e-05
2.22376e-05
5.58169e-05
-0.00015681
3.61285e-06
-0.000309618
-8.47022e-05
-0.000517875
-4.2405e-05
-0.000205561
0.000124622
0.000146304
0.0001292
9.78188e-05
4.75801e-05
3.03878e-05
4.16983e-05
3.38773e-05
6.05226e-05
3.64068e-05
4.89862e-05
1.97128e-05
2.1421e-05
-2.72071e-06
-1.00654e-05
-3.31646e-05
-4.17907e-05
-5.20767e-05
-5.62536e-05
-4.55697e-05
-3.06444e-05
1.37635e-05
5.12958e-05
0.000102116
6.35445e-05
0.000105473
8.94887e-05
8.57202e-05
-1.46267e-05
-0.000112258
0.000149361
4.01074e-05
-6.19667e-05
-9.61759e-05
-9.8065e-05
0.000110159
0.000205605
0.000350579
-0.000119935
0.000296875
0.000131652
-0.000145985
3.53376e-06
-2.49476e-06
2.31233e-05
2.59886e-05
5.97901e-05
6.60104e-05
8.77417e-05
9.67352e-05
0.000108579
0.000117469
0.000113063
0.000114045
8.94174e-05
7.19367e-05
4.11153e-06
-4.42074e-05
-0.000113832
-0.000111754
-7.62343e-05
7.07397e-05
0.00016033
0.000283547
0.000382756
6.27381e-05
0.000195028
0.000133632
0.000157009
0.000148263
4.02368e-05
3.79546e-05
0.000299031
7.45059e-06
-0.000379473
-0.000265767
-0.000187353
-5.38616e-05
9.06146e-05
0.000105602
0.000119167
9.37714e-05
5.39728e-05
4.53812e-05
3.76895e-05
5.06198e-05
5.4446e-05
5.54984e-05
4.4588e-05
1.92963e-05
2.76871e-06
-2.7682e-05
-5.09426e-05
-6.92224e-05
-7.13831e-05
-5.22962e-05
-2.36012e-05
7.67957e-08
3.55657e-06
-1.88128e-05
-6.54346e-05
-0.000131588
-9.41949e-05
-0.000152742
-0.000174183
-0.000194742
-0.000171261
-0.000219024
-0.00016863
-9.24446e-06
-4.05478e-05
5.38047e-05
-0.000307885
0.000430443
0.000136746
0.000119122
0.000427951
-6.61781e-05
-7.67019e-05
8.72291e-05
-2.73526e-05
9.97113e-06
1.52402e-05
3.25212e-05
3.63361e-05
3.82696e-05
4.32379e-05
3.89883e-05
4.94181e-05
4.71307e-05
6.26298e-05
6.50092e-05
8.13608e-05
7.89229e-05
8.54322e-05
6.77359e-05
5.68812e-05
1.51603e-05
-2.09764e-05
-3.72014e-05
-0.00010706
-0.000125248
-0.000175453
-0.000146901
-0.000110293
-7.08476e-05
6.15572e-05
-9.96253e-06
5.67144e-05
-0.000171136
2.41954e-05
1.20867e-05
-0.000427085
-3.16846e-05
-0.000122893
0.000224852
1.39931e-05
0.000138549
0.000111861
6.74046e-05
4.79719e-05
2.87382e-05
2.72781e-05
4.7055e-05
4.51628e-05
5.93728e-05
3.55905e-05
3.43484e-05
1.37821e-05
1.41405e-05
-8.50778e-06
-1.20319e-05
-2.97226e-05
-3.66362e-05
-4.38012e-05
-4.86046e-05
-2.98547e-05
-1.05693e-05
3.78772e-05
8.3797e-05
5.94518e-05
8.0352e-05
0.000107796
9.44747e-05
5.93367e-06
-7.43061e-05
0.000187139
3.72057e-05
-5.8535e-05
-8.78248e-05
0.000492275
0.000141992
0.000367788
0.000172703
-2.15687e-05
0.000108594
2.47456e-05
-0.000103686
-1.01867e-06
2.60855e-05
4.00699e-05
6.27909e-05
5.8029e-05
8.80666e-05
8.72575e-05
0.000104669
0.000111398
0.000122121
0.000127279
0.000119874
0.000118016
9.06499e-05
6.91903e-05
1.11011e-05
-2.81503e-05
-8.34489e-05
-8.01789e-05
-2.44483e-05
5.84608e-05
0.000168003
0.000236974
0.000109111
0.000182925
0.000139599
0.000159217
0.000129713
5.75294e-05
2.7999e-05
0.000229896
-0.000269607
-1.87017e-06
-0.000220283
0.000494911
-3.87642e-07
0.000133585
5.58347e-05
0.000116799
7.53978e-05
5.36319e-05
3.14011e-05
3.39888e-05
3.62853e-05
5.54063e-05
4.97826e-05
3.84471e-05
1.8888e-05
3.03356e-06
-2.10263e-05
-4.05189e-05
-5.98471e-05
-6.32826e-05
-5.37704e-05
-3.21872e-05
-6.87003e-06
1.02653e-05
9.5927e-06
-1.40051e-05
-5.94226e-05
-5.77494e-05
-0.00010114
-0.0001396
-0.000173046
-0.000164784
-0.00020102
-0.000131756
-2.44246e-05
-3.52744e-05
4.97489e-05
0.000147226
0.000353964
-8.59851e-05
0.00034714
-5.4631e-05
-0.000156496
-3.42836e-05
6.13494e-05
5.8454e-06
3.27787e-05
5.74689e-05
5.08443e-05
6.20661e-05
5.58146e-05
5.11459e-05
4.73304e-05
3.9564e-05
4.23334e-05
3.65032e-05
4.63592e-05
4.18447e-05
5.57283e-05
4.54635e-05
6.05687e-05
3.02241e-05
3.52009e-05
-1.97683e-05
-1.72943e-05
-8.32263e-05
-0.000119195
-0.00019127
-9.25404e-05
-0.000117472
-7.89751e-05
3.26709e-05
-3.81987e-05
5.67724e-05
-0.000182075
3.33137e-05
0.000114046
-0.000242882
0.000361216
-0.000181944
0.000250468
9.25046e-05
8.43106e-05
4.63488e-05
7.08528e-05
3.52567e-05
2.21737e-05
2.28644e-05
3.31335e-05
4.89315e-05
4.29594e-05
3.74231e-05
2.20974e-05
2.40749e-05
9.67521e-06
8.0517e-06
-7.53027e-06
-1.22265e-05
-2.2749e-05
-3.21574e-05
-3.52242e-05
-3.58038e-05
-1.73141e-05
8.51342e-06
5.53131e-05
2.6351e-05
7.47889e-05
8.41446e-05
0.000101127
1.57833e-05
-4.41213e-05
0.000200461
3.22249e-05
-5.1039e-05
-7.92949e-05
0.000378215
0.000266763
0.000689599
-0.000173246
0.000246624
0.000232879
-3.8729e-05
-7.63331e-05
7.12974e-05
-1.17952e-05
2.89093e-05
5.84354e-05
9.14772e-05
8.55372e-05
0.000107872
0.000105012
0.000114613
0.00012067
0.000123881
0.000124436
0.000116792
0.000109519
8.97748e-05
6.02251e-05
2.14937e-05
-3.08396e-05
-5.95565e-05
-6.56562e-05
-1.49645e-05
5.30323e-05
0.000133095
9.34012e-05
0.000143501
0.000134643
0.000149689
0.000105153
6.76093e-05
2.02703e-05
0.000164411
-6.44155e-05
0.000145372
-0.000133609
0.000411554
0.000159272
-2.51294e-05
4.49421e-05
0.00016624
2.59421e-05
3.06536e-05
2.46936e-05
1.83279e-05
3.68624e-05
4.11278e-05
4.36874e-05
2.75766e-05
2.31622e-05
6.14027e-06
-2.09664e-06
-2.73314e-05
-3.87726e-05
-5.06313e-05
-4.59954e-05
-3.39129e-05
-1.53153e-05
7.2164e-06
1.27832e-05
1.40333e-05
-1.70618e-05
-1.53437e-05
-4.48492e-05
-9.02215e-05
-0.000133938
-0.000153631
-0.0001819
-0.000100481
-3.5715e-05
-3.29543e-05
3.88477e-05
0.000499054
0.000291747
-9.12136e-05
0.000272155
9.67853e-05
-0.000199521
0.00024478
0.000253642
-0.000134567
8.14642e-05
9.58546e-05
6.71389e-05
6.16327e-05
7.42414e-05
6.44518e-05
5.65399e-05
4.50979e-05
3.53801e-05
3.10157e-05
2.16483e-05
2.90312e-05
1.69129e-05
3.73206e-05
1.47978e-05
4.15181e-05
-3.45556e-06
2.28776e-05
-3.93895e-05
-3.56573e-05
-0.000114627
-0.000152533
-0.000106904
-8.77825e-05
-8.82564e-05
1.27153e-05
-5.55641e-05
4.52499e-05
-0.000173218
4.05065e-05
0.000101054
8.0844e-05
7.07826e-05
0.000237034
0.000122776
0.000237607
6.37117e-05
6.34834e-05
2.54473e-05
3.85285e-07
5.40371e-06
1.59419e-05
2.65481e-05
3.63203e-05
3.12112e-05
2.48062e-05
2.18113e-05
1.97642e-05
1.79192e-05
8.59965e-06
2.18967e-06
-6.01532e-06
-1.13975e-05
-2.02763e-05
-2.77182e-05
-2.88531e-05
-2.81392e-05
-6.31129e-06
1.82531e-05
1.55901e-05
4.02302e-05
7.75636e-05
7.38192e-05
2.66899e-05
-2.42213e-05
0.00019244
3.65506e-05
-4.74128e-05
-5.9841e-05
0.000184435
0.000221863
0.000330356
-1.85193e-05
1.79815e-05
0.000254632
0.000134355
-0.000141296
0.000452224
-3.77411e-05
-1.55889e-05
0.000100624
8.25643e-05
0.000103075
9.82709e-05
0.000105265
0.000103135
0.000105733
0.000110678
0.00011197
0.000107704
0.000107096
9.48908e-05
8.1752e-05
5.19124e-05
1.3715e-05
-2.51635e-05
-5.75166e-05
-4.73555e-05
-1.20672e-05
5.73759e-05
5.46744e-05
8.95757e-05
0.000109847
0.000136679
8.27619e-05
7.13632e-05
1.39238e-05
0.000108547
0.000203652
0.000106539
0.000146618
-1.67944e-05
0.00023043
-3.54739e-05
0.000214436
6.60052e-05
-4.45282e-06
-1.77514e-05
-2.27454e-06
1.30226e-05
2.31939e-05
3.25451e-05
2.55868e-05
2.61374e-05
1.77825e-05
2.31541e-05
5.45506e-06
-4.10376e-06
-2.46871e-05
-3.17645e-05
-3.72327e-05
-3.23028e-05
-2.03527e-05
-6.02765e-06
6.2945e-06
1.13342e-05
4.19388e-06
7.16535e-06
-1.37217e-06
-3.97988e-05
-8.81736e-05
-0.000126988
-0.000161161
-7.30051e-05
-4.11265e-05
-3.30008e-05
2.68322e-05
0.000247725
0.00028171
-0.000105216
0.000164081
0.000146606
-1.0819e-05
7.15629e-05
0.000362506
-0.00015909
0.000305421
0.000138137
3.19712e-05
6.50662e-05
6.56558e-05
7.17183e-05
5.45404e-05
4.29491e-05
3.03906e-05
1.92079e-05
1.48582e-05
4.36044e-06
1.17425e-05
6.1329e-07
1.6579e-05
-5.35427e-07
1.42226e-05
-8.58157e-06
-3.41715e-06
-4.13053e-05
-6.79601e-05
-0.000124466
-7.67505e-05
-0.000101229
-6.9053e-05
-9.69075e-06
-6.44303e-05
3.48309e-05
-0.000157898
3.82933e-05
4.31082e-05
0.000109855
4.53249e-05
0.000217386
-2.57988e-05
0.000171106
5.726e-05
0.000146941
-3.90774e-05
-1.57619e-05
3.69945e-07
7.71228e-06
2.16991e-05
2.00572e-05
2.17865e-05
1.54161e-05
2.22088e-05
2.05603e-05
2.00773e-05
9.33892e-06
4.29148e-06
-2.26084e-06
-6.59794e-06
-1.34319e-05
-2.03645e-05
-2.49478e-05
-2.75929e-05
-1.81802e-05
-2.46942e-06
-2.60827e-07
2.53417e-05
4.60811e-05
6.13504e-05
1.50608e-05
-4.65844e-06
0.000180081
3.92419e-05
-3.61967e-05
-4.77724e-05
6.43205e-05
1.56018e-05
0.00021085
-4.94035e-05
-1.19027e-05
0.000169113
0.000164741
-6.18645e-05
0.000276001
4.95262e-05
3.54823e-05
7.32408e-05
8.66937e-05
7.91865e-05
8.39046e-05
7.89422e-05
7.63305e-05
7.85477e-05
8.51849e-05
8.88424e-05
9.39956e-05
8.98162e-05
9.41828e-05
7.86258e-05
7.30735e-05
3.60164e-05
1.7078e-05
-3.29809e-05
-2.86877e-05
-3.71304e-05
2.61485e-05
1.22484e-05
4.06612e-05
6.71684e-05
0.000114732
6.49162e-05
7.01946e-05
1.01407e-05
6.91417e-05
0.000163699
6.44055e-05
0.00011213
-4.84244e-05
0.000171572
-1.65839e-05
0.000134897
3.99514e-05
5.23823e-05
-2.15814e-05
-2.7328e-07
8.36639e-06
1.76901e-05
1.80197e-05
1.89667e-05
1.58552e-05
2.68026e-05
2.20141e-05
1.93547e-05
1.73489e-06
-7.14736e-06
-2.15395e-05
-2.63685e-05
-2.94348e-05
-2.48571e-05
-1.61533e-05
-9.54278e-06
4.83975e-07
4.1419e-07
1.40919e-05
1.45025e-05
-1.5017e-06
-4.53548e-05
-9.06133e-05
-0.000135345
-5.15168e-05
-4.40402e-05
-3.47571e-05
1.47177e-05
0.000168337
0.000104673
-0.00012623
0.000114682
9.36644e-05
-3.435e-05
3.2117e-06
0.000257858
-2.95343e-05
4.74626e-06
0.000276156
-4.66294e-05
4.46938e-05
6.09243e-05
4.68277e-05
3.82368e-05
2.4703e-05
1.84666e-05
1.07036e-05
2.46807e-06
-1.51973e-07
-5.10167e-06
-1.48223e-06
-6.2495e-06
7.20486e-07
-9.31279e-06
1.90815e-06
-1.55276e-05
-1.14546e-05
-5.1571e-05
-8.02697e-05
-7.57129e-05
-8.02858e-05
-7.85972e-05
-1.08109e-05
-6.49139e-05
2.62052e-05
-0.000141407
3.15564e-05
2.15567e-06
6.76724e-05
1.29653e-05
0.00015455
-6.06195e-05
0.000117467
-1.20559e-05
6.0118e-05
-3.44514e-05
8.37831e-06
-1.95741e-06
9.86584e-06
1.0025e-05
1.60141e-05
9.25727e-06
1.94122e-05
1.79173e-05
2.52366e-05
1.36322e-05
1.08316e-05
1.60695e-06
-1.1057e-06
-5.72986e-06
-1.06183e-05
-1.5251e-05
-2.1315e-05
-2.28902e-05
-2.1985e-05
-1.02175e-05
-7.82358e-06
1.06334e-05
2.94414e-05
3.63482e-05
7.43989e-06
-3.75533e-06
0.000154044
4.42037e-05
-2.89845e-05
-2.89587e-05
-1.00503e-06
-1.04776e-05
0.000156374
-5.33522e-05
-3.4019e-05
0.000114541
0.000105927
-0.000112177
0.000149291
0.000135818
-0.000148213
0.000250321
-1.86656e-05
4.84096e-05
4.2318e-05
3.8962e-05
4.53478e-05
4.77424e-05
5.8483e-05
7.03337e-05
7.26569e-05
8.06874e-05
7.62752e-05
8.09838e-05
6.76613e-05
6.0794e-05
3.58123e-05
1.12965e-05
-5.00799e-06
-1.37871e-05
9.75737e-06
-3.16308e-06
1.87729e-06
2.65438e-05
8.09997e-05
4.81778e-05
6.4821e-05
8.2922e-06
4.49867e-05
9.04211e-05
3.15518e-05
6.5104e-05
-6.6083e-05
0.000114333
-4.268e-05
7.8334e-05
-1.01331e-05
1.88995e-05
8.47054e-06
4.53411e-06
5.1199e-06
8.87561e-06
1.16024e-05
1.06883e-05
1.85657e-05
2.14908e-05
2.39262e-05
1.43669e-05
9.44273e-06
-3.8459e-06
-1.05262e-05
-2.07356e-05
-2.45252e-05
-2.5789e-05
-2.48186e-05
-1.96507e-05
-1.59887e-05
-7.03957e-06
3.06641e-06
1.50261e-05
1.31426e-05
-1.35384e-05
-5.45563e-05
-0.000104265
-3.29676e-05
-4.31132e-05
-3.69398e-05
5.13383e-06
5.79528e-05
0.000100512
-9.78112e-05
7.39061e-05
6.43502e-05
-4.93254e-05
-2.50929e-05
0.000183961
-5.95443e-05
-2.02725e-05
0.000173065
-8.60481e-05
0.000118053
2.97655e-05
1.92671e-05
1.14207e-05
1.02117e-05
9.79014e-06
9.57787e-06
2.53279e-06
-7.93029e-07
-5.71155e-06
-4.73943e-06
-8.11982e-06
-4.37719e-06
-1.14131e-05
-1.85177e-06
-1.33103e-05
-1.168e-06
-3.30886e-05
-4.46631e-05
-6.5846e-05
-6.86723e-05
-6.93945e-05
-2.18534e-05
-5.99668e-05
1.63521e-05
-0.000122364
2.76784e-05
-2.26678e-05
3.32022e-05
-7.07168e-06
0.000103419
-6.00405e-05
7.54014e-05
-2.94066e-05
4.55761e-05
2.81894e-06
6.574e-06
2.31054e-06
-5.0098e-07
1.05789e-05
4.95281e-06
1.45942e-05
1.20454e-05
2.28719e-05
1.37899e-05
1.44988e-05
4.18579e-06
2.16756e-06
-3.58082e-06
-5.44024e-06
-9.0775e-06
-1.22509e-05
-1.52337e-05
-1.8965e-05
-1.57957e-05
-1.32303e-05
-5.17937e-06
4.85166e-07
1.82999e-05
1.98761e-05
-4.56055e-06
-3.7431e-06
0.00013188
4.68645e-05
-1.71094e-05
-1.85213e-05
-8.08231e-06
-2.71069e-05
0.000104802
-5.57843e-05
-3.20866e-05
7.57272e-05
7.19529e-05
-0.000110817
9.81788e-05
7.10716e-05
-5.90825e-05
4.18632e-05
4.54016e-05
-9.81388e-06
1.27422e-05
1.69682e-05
2.0963e-05
3.69644e-05
4.37203e-05
5.66068e-05
6.3588e-05
6.50699e-05
6.91577e-05
6.76306e-05
6.82443e-05
6.28114e-05
5.3932e-05
3.75461e-05
2.48686e-05
1.41265e-05
1.40134e-05
-2.35306e-06
-1.49899e-05
-5.10927e-08
4.48088e-05
3.06036e-05
5.1459e-05
8.21935e-06
3.02907e-05
6.62082e-05
1.0008e-05
3.69814e-05
-6.11172e-05
7.52707e-05
-4.58656e-05
5.31375e-05
-1.59517e-05
1.79787e-05
2.60483e-06
7.65583e-06
1.31149e-05
-7.37898e-06
4.66741e-06
1.0112e-05
1.44372e-05
1.69939e-05
1.3746e-05
1.25567e-05
4.71716e-06
1.05348e-06
-8.12005e-06
-1.37474e-05
-2.02084e-05
-2.49296e-05
-2.66065e-05
-2.70614e-05
-2.41628e-05
-1.79733e-05
-8.22999e-06
4.64294e-06
1.19717e-05
1.69237e-06
-2.75714e-05
-7.34611e-05
-1.65794e-05
-3.74799e-05
-3.87548e-05
-2.60659e-06
6.70335e-05
4.19994e-05
-8.52939e-05
5.62854e-05
3.71594e-05
-4.76976e-05
-3.20334e-05
0.000127986
-5.33716e-05
-2.65922e-05
8.12015e-05
1.40545e-05
5.93127e-06
3.21981e-05
8.97797e-06
4.72256e-06
1.42469e-05
1.74073e-05
1.73809e-05
1.28715e-05
3.95682e-06
2.71203e-06
-4.79539e-06
2.0182e-08
-8.25236e-06
-2.06498e-06
-1.13664e-05
-6.59198e-07
-1.02353e-05
-6.8375e-06
-3.89617e-05
-3.73229e-05
-6.26415e-05
-5.48845e-05
-2.36875e-05
-5.32755e-05
1.4087e-05
-0.000106694
1.60876e-05
-2.1361e-05
1.76779e-05
-8.63951e-06
6.82644e-05
-5.50018e-05
5.07167e-05
-3.21971e-05
3.35296e-05
2.64012e-06
2.84011e-06
1.15646e-05
-9.40165e-06
4.42725e-06
1.34467e-06
3.67573e-06
1.51574e-05
8.63246e-06
1.3441e-05
4.66933e-06
4.96962e-06
-1.86639e-06
-2.87536e-06
-6.1412e-06
-6.98188e-06
-9.65894e-06
-1.18851e-05
-1.10318e-05
-1.26653e-05
-5.5768e-06
-6.47652e-06
3.67308e-06
7.19864e-06
1.08567e-05
-1.00692e-05
-1.52444e-05
0.000102529
4.52668e-05
-8.61082e-06
-4.81874e-06
-1.0686e-05
-1.747e-05
8.20357e-05
-4.51774e-05
-3.13181e-05
5.48537e-05
4.13021e-05
-9.07532e-05
6.96492e-05
4.57646e-05
-5.09369e-05
5.15883e-06
1.72388e-06
1.41176e-05
-1.7612e-05
9.87615e-06
2.7442e-05
3.13116e-05
4.38075e-05
4.86764e-05
5.5247e-05
5.54104e-05
5.73174e-05
5.74441e-05
5.89908e-05
5.97846e-05
5.65889e-05
5.14866e-05
4.06801e-05
3.54478e-05
1.97401e-05
9.77048e-06
-1.69059e-05
-6.27255e-06
1.50245e-05
1.7361e-05
3.30241e-05
6.05682e-06
2.47338e-05
4.00942e-05
5.26226e-06
1.97624e-05
-5.10677e-05
5.03239e-05
-3.93019e-05
3.65339e-05
-1.25653e-05
1.16811e-05
9.37658e-06
2.68254e-06
2.42677e-05
-1.56213e-05
-1.34213e-06
5.55414e-06
7.56632e-06
8.25998e-06
7.77393e-06
5.07306e-06
4.12286e-06
-8.54058e-07
-3.98034e-06
-9.66394e-06
-1.68467e-05
-2.21633e-05
-2.59544e-05
-2.789e-05
-2.74227e-05
-2.31639e-05
-1.72032e-05
-5.09916e-06
2.93468e-06
3.68628e-06
-1.44209e-05
-4.93417e-05
-5.12391e-06
-2.79742e-05
-3.6964e-05
-8.87338e-06
2.63011e-05
4.9753e-05
-6.07433e-05
3.95169e-05
2.63813e-05
-4.3382e-05
-2.59327e-05
9.42738e-05
-4.2946e-05
-2.37037e-05
5.46698e-05
-1.63705e-05
5.1333e-06
-1.94654e-05
1.76091e-05
2.18927e-05
1.80244e-05
2.53448e-05
2.32619e-05
2.00279e-05
1.29507e-05
5.37394e-06
4.27269e-06
-5.86111e-07
1.45444e-06
-5.49491e-06
-3.13758e-06
-7.41136e-06
-3.13385e-06
-1.07357e-05
-2.14197e-05
-3.13731e-05
-4.11809e-05
-4.34853e-05
-2.06228e-05
-4.71211e-05
4.77045e-06
-8.74306e-05
1.08512e-05
-2.06936e-05
9.89993e-06
-9.19543e-06
4.6797e-05
-4.17832e-05
3.41713e-05
-2.52902e-05
2.34839e-05
1.30978e-06
5.67652e-06
1.37214e-05
-1.35899e-05
9.23652e-06
-3.10668e-06
7.44678e-06
1.95355e-06
8.01619e-06
1.83895e-06
5.0696e-06
-7.66482e-07
-6.18146e-07
-4.1784e-06
-5.03566e-06
-7.80154e-06
-8.56298e-06
-7.88501e-06
-8.17737e-06
-5.02769e-06
-3.61294e-06
3.28584e-07
2.35357e-06
6.21181e-06
3.15603e-06
-1.25484e-05
-2.32637e-05
8.66015e-05
4.49181e-05
-3.49063e-07
5.25398e-06
-7.2874e-06
-1.61472e-05
5.75106e-05
-3.93277e-05
-2.22585e-05
3.93284e-05
3.09492e-05
-7.0993e-05
5.07994e-05
2.99062e-05
-4.70863e-05
3.25238e-06
-1.4199e-05
4.52804e-06
1.83772e-05
-3.07757e-05
-1.32207e-05
2.93505e-05
3.60223e-05
4.14061e-05
4.44464e-05
4.46589e-05
4.41407e-05
4.50305e-05
4.59681e-05
4.92394e-05
5.02976e-05
4.99393e-05
4.46079e-05
4.11548e-05
2.52857e-05
1.89941e-05
-8.34648e-06
-1.49774e-08
-1.13489e-07
7.99585e-06
1.75243e-05
1.86575e-06
2.4077e-05
3.49573e-05
1.20448e-06
1.21518e-05
-3.88938e-05
3.38943e-05
-3.08821e-05
2.44734e-05
-1.15464e-05
8.70718e-06
5.01198e-06
1.55328e-06
2.11077e-05
-9.30544e-06
5.24002e-06
9.97149e-07
3.71807e-06
2.6647e-06
2.28555e-06
1.93917e-06
5.2016e-07
4.85568e-09
-2.46213e-06
-8.67576e-06
-1.41375e-05
-1.99405e-05
-2.26624e-05
-2.47306e-05
-2.53433e-05
-2.33819e-05
-2.02499e-05
-1.16162e-05
-5.60309e-06
-1.08489e-06
-1.20917e-05
-3.28891e-05
1.32178e-06
-1.87072e-05
-3.19497e-05
-1.32326e-05
3.54024e-05
2.33193e-05
-4.95441e-05
3.24487e-05
1.61832e-05
-3.47477e-05
-2.0391e-05
6.87182e-05
-3.53169e-05
-1.90198e-05
3.67043e-05
-1.70144e-05
-3.56257e-06
1.13655e-05
-4.64449e-05
2.17923e-05
7.21519e-05
1.83707e-05
2.51695e-05
2.11213e-05
1.35215e-05
8.84433e-06
4.28544e-06
4.27582e-06
1.24562e-06
-3.5471e-07
-5.29236e-06
-4.22443e-06
-8.93383e-06
-6.64277e-06
-2.15561e-05
-1.75341e-05
-3.40596e-05
-2.36631e-05
-1.97825e-05
-3.29428e-05
-3.33551e-07
-7.53366e-05
9.82459e-06
-1.47819e-05
7.04729e-06
-5.35821e-06
3.20352e-05
-3.28339e-05
2.28521e-05
-2.09707e-05
1.50415e-05
2.14474e-07
4.00489e-06
1.05995e-06
-1.16019e-06
7.19572e-06
-7.22784e-07
-1.08082e-06
3.88583e-06
-2.64843e-06
3.28064e-06
-1.40516e-06
7.85086e-07
-2.1124e-06
-4.24142e-06
-7.43224e-06
-8.85493e-06
-8.27663e-06
-6.92225e-06
-4.26058e-06
-2.34707e-06
9.03567e-07
1.95188e-06
4.75573e-06
4.02839e-06
-3.14236e-08
-1.20881e-05
-2.47119e-05
6.35139e-05
3.78565e-05
8.25502e-06
1.07048e-05
-5.58891e-06
-9.55987e-06
4.62821e-05
-2.94034e-05
-1.85596e-05
3.1473e-05
1.89e-05
-5.36209e-05
3.85913e-05
2.16709e-05
-3.84463e-05
1.17009e-06
1.05015e-06
-1.78005e-05
4.90996e-05
9.21549e-06
1.44601e-05
6.57723e-05
4.00711e-05
3.04574e-05
3.16133e-05
3.0929e-05
3.15617e-05
3.05413e-05
3.25771e-05
3.43922e-05
3.93557e-05
3.89317e-05
4.05264e-05
3.58772e-05
2.84984e-05
2.19049e-05
3.91069e-06
8.46424e-06
-3.82369e-07
4.46842e-06
8.79719e-06
-2.93962e-06
2.48455e-05
2.32133e-05
1.38218e-06
6.33134e-06
-2.93556e-05
2.29818e-05
-2.33481e-05
1.5861e-05
-9.32043e-06
5.81506e-06
2.4073e-06
2.78257e-06
3.96695e-06
-2.20142e-06
3.97447e-06
-6.83189e-07
-5.30955e-06
7.2896e-06
-3.32852e-06
7.02085e-07
3.25554e-07
-2.12374e-08
-3.97008e-06
-7.52377e-06
-1.40474e-05
-1.6323e-05
-1.8068e-05
-1.94186e-05
-1.99899e-05
-2.00963e-05
-1.87375e-05
-1.40115e-05
-1.0957e-05
-6.76152e-06
-1.42519e-05
-2.52161e-05
1.13834e-06
-1.30655e-05
-2.52095e-05
-1.57304e-05
1.5526e-05
2.68488e-05
-3.52091e-05
2.38559e-05
1.27742e-05
-2.81017e-05
-1.38955e-05
5.36373e-05
-2.60872e-05
-1.54302e-05
2.95119e-05
-8.76903e-06
6.7804e-07
3.56941e-05
-2.24214e-05
9.7825e-05
6.96288e-05
3.96482e-05
2.41875e-05
1.71877e-05
1.07024e-05
6.43502e-06
4.24972e-06
3.46377e-06
2.77095e-06
-4.49158e-07
-2.93167e-06
-6.08457e-06
-7.31847e-06
-9.88423e-06
-1.5344e-05
-1.50053e-05
-2.27706e-05
-1.43936e-05
-1.21636e-05
-2.65015e-05
-5.13171e-06
-5.97595e-05
6.50117e-06
-1.36957e-05
4.34695e-06
-4.75816e-06
2.23558e-05
-2.34213e-05
1.51388e-05
-1.5473e-05
9.72738e-06
2.72635e-08
2.69997e-06
5.06342e-07
-3.49312e-07
4.28235e-06
-6.0992e-06
-3.78469e-06
1.29003e-05
-6.34931e-07
1.27847e-06
-2.47414e-06
-1.01843e-07
-2.58629e-06
-5.82411e-06
-1.01029e-05
-1.00857e-05
-8.85682e-06
-5.46979e-06
-2.80697e-06
-2.11535e-07
1.92635e-06
3.29381e-06
4.56584e-06
2.84201e-06
-1.69019e-06
-1.10993e-05
-2.40603e-05
4.71722e-05
3.36785e-05
1.11694e-05
1.56517e-05
-4.8799e-06
-9.94258e-06
3.28764e-05
-2.4733e-05
-1.21795e-05
2.41693e-05
1.65311e-05
-4.10472e-05
3.06352e-05
1.85195e-05
-2.79005e-05
8.50545e-06
1.22846e-05
-8.72039e-06
9.57188e-05
9.5998e-06
0.000107762
3.06221e-05
1.98076e-05
1.70172e-05
1.7733e-05
1.93254e-05
1.89303e-05
1.93273e-05
1.8671e-05
2.26467e-05
2.50323e-05
2.86929e-05
2.96853e-05
2.96134e-05
2.58943e-05
2.25055e-05
1.29155e-05
1.45631e-05
1.19536e-05
5.35804e-06
7.01307e-06
-5.02797e-06
2.46383e-05
1.89455e-05
-5.40292e-07
3.86304e-06
-2.14756e-05
1.55497e-05
-1.73104e-05
1.01073e-05
-7.4809e-06
4.05961e-06
1.26344e-06
7.4881e-07
3.33354e-06
-3.10082e-06
2.60174e-06
1.35454e-05
5.73195e-06
9.57569e-06
-5.77309e-06
1.43415e-06
-2.52593e-06
-3.25775e-06
-4.70653e-06
-9.4093e-06
-1.12919e-05
-1.2831e-05
-1.2458e-05
-1.32884e-05
-1.40608e-05
-1.5141e-05
-1.49842e-05
-1.36173e-05
-1.26147e-05
-1.06968e-05
-1.72867e-05
-2.03411e-05
-2.36015e-06
-9.84037e-06
-1.96778e-05
-1.59642e-05
1.57952e-05
1.16436e-05
-2.99894e-05
1.9728e-05
8.33902e-06
-2.15615e-05
-1.02169e-05
4.18761e-05
-1.97987e-05
-1.01983e-05
2.91684e-05
-9.76716e-07
7.07368e-06
4.90863e-05
-3.33237e-05
8.77107e-05
-2.94845e-05
1.02569e-05
1.02222e-05
6.7952e-06
4.60836e-06
2.53856e-06
2.08711e-06
1.97133e-06
2.54885e-06
1.55236e-07
-1.69318e-06
-4.88061e-06
-6.01817e-06
-9.08436e-06
-1.08625e-05
-1.2442e-05
-1.47241e-05
-8.39211e-06
-9.00167e-06
-1.48113e-05
-9.32696e-06
-4.68377e-05
6.7292e-06
-9.08202e-06
2.57884e-06
-2.36837e-06
1.53315e-05
-1.76433e-05
9.9139e-06
-1.19956e-05
5.86598e-06
-8.23482e-07
9.59371e-07
1.33207e-06
-1.10631e-07
-2.38258e-06
1.23144e-05
-2.0185e-06
2.81466e-05
-5.18265e-06
1.32929e-05
-1.03253e-05
-5.97123e-06
-7.10224e-06
-1.09268e-05
-1.06263e-05
-1.08316e-05
-7.13081e-06
-4.3454e-06
-1.9189e-06
1.73095e-07
1.68117e-06
2.89233e-06
3.13057e-06
1.61538e-06
-2.62403e-06
-1.02984e-05
-1.81036e-05
3.07715e-05
2.68076e-05
1.34084e-05
1.57033e-05
-5.293e-06
-7.66287e-06
2.57749e-05
-1.90019e-05
-1.01439e-05
2.01752e-05
1.1565e-05
-3.13881e-05
2.5787e-05
1.83016e-05
-1.81497e-05
1.29009e-05
1.61659e-05
-1.4058e-05
7.86705e-05
-5.2344e-05
7.12168e-05
-3.46419e-05
-2.15211e-05
1.12938e-06
6.87506e-06
9.57444e-06
1.06531e-05
9.86228e-06
1.02375e-05
1.19786e-05
1.53742e-05
1.78476e-05
2.09526e-05
2.14933e-05
2.21812e-05
1.97875e-05
1.82183e-05
1.49161e-05
2.56963e-05
6.76737e-06
9.4537e-06
-3.66004e-06
2.20226e-05
2.8263e-06
-1.90085e-06
1.49013e-06
-1.55807e-05
1.0441e-05
-1.25433e-05
6.16636e-06
-5.85312e-06
2.03582e-06
9.60147e-07
-7.63127e-07
-3.39322e-06
1.19743e-05
-1.53982e-05
5.66407e-05
-3.88645e-06
3.02763e-05
-1.63726e-05
-8.85588e-06
-1.19284e-05
-1.51735e-05
-1.0742e-05
-8.40034e-06
-8.60817e-06
-7.2128e-06
-7.38342e-06
-7.78101e-06
-8.85177e-06
-1.01916e-05
-1.09687e-05
-1.15287e-05
-1.18158e-05
-1.23438e-05
-1.73862e-05
-1.7858e-05
-5.74567e-06
-9.64805e-06
-1.58597e-05
-1.49757e-05
1.31809e-06
1.00472e-05
-2.25846e-05
1.48985e-05
7.0842e-06
-1.69661e-05
-6.9534e-06
3.51673e-05
-1.42963e-05
-6.60329e-06
2.74999e-05
3.59424e-06
7.28293e-06
4.11918e-05
-4.28417e-05
6.06725e-05
-6.88359e-05
2.3041e-05
2.69714e-05
-3.65755e-06
1.21171e-06
1.26478e-06
3.42261e-07
1.61295e-06
1.53412e-06
1.55773e-06
-1.07416e-06
-1.97054e-06
-4.61063e-06
-5.51355e-06
-8.07585e-06
-8.15994e-06
-1.05327e-05
-3.30442e-06
8.82891e-06
-7.68628e-06
-9.06084e-06
-3.57939e-05
5.81216e-06
-6.12351e-06
-3.60379e-06
-3.54626e-06
1.04017e-05
-1.22936e-05
6.36237e-06
-8.45879e-06
3.03994e-06
-9.55858e-07
-4.55707e-07
5.93324e-07
1.32712e-06
-1.23774e-05
3.14889e-05
-1.55337e-05
3.43483e-05
3.43597e-07
-9.28262e-06
-7.31271e-06
-2.60683e-05
-1.47909e-05
-9.70838e-06
-1.02557e-05
-6.68847e-06
-4.78289e-06
-2.72388e-06
-1.38957e-06
-1.14369e-07
7.63335e-07
1.57633e-06
1.42897e-06
3.71303e-07
-3.04426e-06
-8.65993e-06
-1.30847e-05
1.70891e-05
2.13709e-05
1.26158e-05
1.48071e-05
-2.99682e-06
-1.36029e-06
2.11052e-05
-1.54522e-05
-6.32979e-06
1.59604e-05
1.1183e-05
-2.49135e-05
2.17099e-05
1.64292e-05
-1.29953e-05
1.24895e-05
1.37641e-05
-1.34563e-05
5.87622e-05
-4.05907e-05
3.58562e-05
-6.4309e-06
-9.21964e-06
2.45849e-05
1.03841e-05
7.55217e-06
6.7639e-06
5.41046e-06
4.87727e-06
5.83515e-06
8.09153e-06
1.05083e-05
1.30579e-05
1.49834e-05
1.6566e-05
1.63441e-05
1.83503e-05
2.06303e-05
1.56779e-06
1.5323e-05
1.03568e-05
1.25716e-06
1.64518e-05
-5.61834e-06
-3.58877e-06
8.75513e-08
-1.13339e-05
6.97512e-06
-9.00308e-06
3.51278e-06
-4.33659e-06
6.08856e-07
9.68479e-07
-2.35162e-06
-5.30445e-06
2.83874e-06
5.18327e-07
3.51969e-05
2.60686e-05
-1.04624e-05
7.11071e-06
-3.12487e-05
-1.38777e-05
-9.04792e-06
-6.81519e-06
-5.20105e-06
-2.9072e-06
-2.86874e-06
-2.96673e-06
-3.67301e-06
-4.99945e-06
-6.19841e-06
-7.61935e-06
-8.69293e-06
-1.00291e-05
-1.13779e-05
-1.63009e-05
-1.48228e-05
-7.8866e-06
-8.88571e-06
-1.35138e-05
-1.3237e-05
1.08172e-05
9.01261e-06
-1.75596e-05
1.31677e-05
5.12773e-06
-1.30751e-05
-5.49857e-06
2.84e-05
-1.13453e-05
-5.15872e-06
2.39154e-05
3.13498e-06
5.58571e-06
3.12961e-05
-4.04585e-05
5.29009e-05
-2.38511e-05
4.79609e-05
3.03324e-05
1.20746e-05
7.59623e-06
3.57509e-06