/*--------------------------------*- C++ -*----------------------------------*\
| =========                 |                                                 |
| \\      /  F ield         | OpenFOAM: The Open Source CFD Toolbox           |
|  \\    /   O peration     | Version:  2306                                  |
|   \\  /    A nd           | Website:  www.openfoam.com                      |
|    \\/     M anipulation  |                                                 |
\*---------------------------------------------------------------------------*/
FoamFile
{
    version     2.0;
    format      ascii;
    arch        "LSB;label=32;scalar=64";
    class       volScalarField;
    location    "150";
    object      magR;
}
// * * * * * * * * * * * * * * * * * * * * * * * * * * * * * * * * * * * * * //

dimensions      [0 2 -2 0 0 0 0];

internalField   nonuniform List<scalar> 
10720
(
0.0215429
0.0251772
0.0298375
0.0361589
0.0436704
0.0532478
0.0655112
0.0807259
0.100035
0.12467
0.156252
0.198282
0.254538
0.33174
0.44089
0.601278
0.842241
1.22854
1.84315
2.97532
4.85494
9.18734
17.2088
40.7579
55.4419
56.7066
55.1913
54.665
54.6808
54.1945
52.7852
50.5157
47.5057
43.8216
39.3843
34.2316
27.5817
20.7355
7.35257
0.018308
0.0156757
0.0127374
0.010217
0.00784917
0.00573235
0.00410051
0.00328534
0.00382617
0.00538638
0.00802298
0.0119972
0.0177957
0.0261377
0.0379299
0.0546071
0.0786353
0.114581
0.170971
0.262833
0.421599
0.700726
1.24298
2.26742
4.5735
9.26534
21.0105
41.6171
57.0554
63.3613
65.0863
65.3257
64.8993
63.9411
62.498
60.6515
57.9641
54.845
45.0178
0.00351636
0.00350029
0.00346186
0.00336505
0.00321486
0.00304008
0.00283261
0.00259858
0.00236576
0.00213475
0.00191958
0.00173087
0.00164574
0.00173155
0.00211179
0.00314114
0.00567516
0.0117363
0.026134
0.0663069
0.167984
0.513242
1.34011
4.3455
9.49735
15.1959
20.762
25.3762
27.7386
27.0585
23.9929
20.1577
16.7497
14.0697
12.0348
10.4578
9.37102
8.4461
9.2719
0.00348209
0.0034303
0.00333237
0.00318867
0.00298973
0.00272533
0.00243126
0.00215995
0.00189031
0.00161583
0.00136148
0.00114208
0.000954713
0.000793921
0.000656869
0.000541473
0.000443697
0.000361088
0.000288569
0.000222133
0.000155971
9.08847e-05
3.14278e-05
4.43003e-06
4.98591e-05
0.00235528
0.0138358
0.102041
0.318925
0.601631
0.883934
1.12971
1.33438
1.51269
1.67833
1.849
2.02871
2.44007
3.39803
0.00236867
0.00234545
0.00228844
0.00220312
0.00211355
0.00201463
0.00191383
0.00182259
0.00174363
0.00168103
0.00163375
0.00159846
0.00158456
0.00158552
0.00160574
0.00158133
0.00140577
0.0011926
0.000686294
0.00636348
0.0124259
0.0100655
0.0280073
0.0011016
0.0656312
0.247144
0.703431
1.80243
4.07781
7.71171
11.9921
15.3428
16.5457
15.8018
14.1366
12.2791
10.7552
9.0878
10.3953
0.00238932
0.00238817
0.00238257
0.00234195
0.00226469
0.00212953
0.00195072
0.00176019
0.00157955
0.00138299
0.00117548
0.000977512
0.000800637
0.000647869
0.00052211
0.0004214
0.000343708
0.000285394
0.000243512
0.000213917
0.000193969
0.000181582
0.000175486
0.000173179
0.00017433
0.000174174
0.000183049
0.000103947
0.00102103
0.00587662
0.0158533
0.0337186
0.076697
0.157892
0.274685
0.414787
0.564517
0.667044
1.14435
0.0019842
0.00198833
0.0019783
0.00196117
0.00192718
0.00187663
0.00181364
0.00173532
0.0016459
0.00154703
0.00144146
0.00133199
0.00121885
0.00110222
0.000984957
0.000861561
0.000734098
0.0006215
0.000494643
0.000342888
3.55194e-05
0.000890546
1.59674e-07
0.00314263
0.0179474
0.0341969
0.0614989
0.0421109
0.028338
0.0459283
0.456251
1.83312
4.50419
7.76517
10.2315
11.1679
11.1066
10.1285
11.1526
0.00196324
0.00193204
0.0018835
0.00182465
0.00174865
0.00164814
0.00153197
0.00141028
0.00127904
0.00113551
0.000990661
0.000856385
0.000737418
0.000634152
0.000546663
0.000473331
0.000412994
0.00036381
0.000324348
0.0002922
0.000266064
0.000244059
0.000224241
0.000203205
0.000181439
0.000163443
0.000149708
0.000140651
0.000124906
0.000118959
6.22182e-05
4.76446e-05
0.000451802
0.000709851
0.003382
0.0166117
0.0524694
0.12894
0.459214
0.00149731
0.00149404
0.00148177
0.00146012
0.00142741
0.00138317
0.00132965
0.0012677
0.0011993
0.00112845
0.00105761
0.000989403
0.000926447
0.000871056
0.000824304
0.00078719
0.000750887
0.000708107
0.000657749
0.000608342
0.000468126
0.000190123
2.57376e-06
7.63802e-06
1.61422e-07
0
0
0.0119306
0.017199
0.0396601
0.0349381
0.0612824
0.0677281
0.501182
2.26019
5.11723
7.87317
9.35029
11.1199
0.00149325
0.00148273
0.00146172
0.00142797
0.00137872
0.00131065
0.00123132
0.00114629
0.00105337
0.000951738
0.000846936
0.000744661
0.000648276
0.000559371
0.000479455
0.000409266
0.000349039
0.000298492
0.000257057
0.000223467
0.000196566
0.000174845
0.000156688
0.000139414
0.000121739
0.000105338
9.24852e-05
8.37356e-05
8.06018e-05
7.34734e-05
9.57715e-05
1.20044e-05
0.000169274
0.000764034
0.000254878
0.000724942
0.00183927
0.00455197
0.090341
0.00122297
0.00122783
0.00122698
0.00122198
0.00120975
0.00119009
0.00116379
0.00112997
0.0010893
0.00104286
0.000991112
0.00093521
0.00087649
0.000816015
0.000755041
0.000693453
0.000626995
0.000556975
0.000489996
0.000429075
0.00038142
0.000331462
0.000256738
9.80741e-05
1.95116e-06
7.56647e-06
4.81418e-06
1.40546e-06
0
0
0.00507298
0.0151546
0.00575318
0.0409202
0.108582
0.440078
2.52259
5.97922
9.63766
0.00121219
0.00119751
0.00117601
0.00114702
0.00110813
0.00105829
0.00100261
0.000941896
0.000874355
0.000800544
0.000723701
0.000647419
0.000574418
0.000506265
0.000444227
0.000389198
0.00034145
0.000300808
0.000266785
0.000238495
0.000214927
0.000194792
0.000176651
0.00015847
0.000139388
0.000121085
0.000105068
9.16486e-05
8.03805e-05
7.098e-05
6.28735e-05
5.46938e-05
4.5694e-05
2.54378e-05
2.4613e-05
9.78537e-05
0.000324223
0.00105023
0.0106299
0.000990308
0.000994433
0.000994906
0.000992029
0.000984068
0.000970351
0.000951165
0.000926002
0.000895044
0.000859109
0.000818803
0.000775148
0.00072945
0.000682889
0.000636742
0.000592131
0.000551371
0.00051432
0.000477642
0.000439449
0.000400999
0.000366737
0.000335513
0.000289178
0.000226454
0.000153238
8.9955e-05
2.23889e-05
5.67844e-06
2.44662e-06
0
0
0.000459711
0.00674401
0.045044
0.0561212
0.147732
1.94452
6.44499
0.000982199
0.000971451
0.000955777
0.000933691
0.000904179
0.000867356
0.000827014
0.000782383
0.000732439
0.000678267
0.000621519
0.000564183
0.000507931
0.000453879
0.000403075
0.000356404
0.000314363
0.000277222
0.000244993
0.000217314
0.000193659
0.000173227
0.000154977
0.000137423
0.000119744
0.000102897
8.80724e-05
7.56297e-05
6.53121e-05
5.69841e-05
5.08401e-05
4.68732e-05
4.40943e-05
4.09926e-05
2.93151e-05
6.68645e-06
1.3702e-06
1.6559e-07
0.000447231
0.000819706
0.00082511
0.000828263
0.00082925
0.000826962
0.000820745
0.000810766
0.00079644
0.000777722
0.000755005
0.00072827
0.000698025
0.000664861
0.000629302
0.000592024
0.000553768
0.000514667
0.000473293
0.000430739
0.000389535
0.000351754
0.000319117
0.000293505
0.000271522
0.00025009
0.000220917
0.000186275
0.000144073
9.84233e-05
4.59951e-05
4.85627e-06
1.668e-06
0
0
0
0.0102044
0.00626648
0.221895
2.89532
0.000811464
0.000801657
0.000788515
0.000770389
0.000747274
0.000719434
0.000689313
0.000655775
0.000618366
0.000578014
0.000535521
0.000492132
0.000448891
0.000406566
0.000365995
0.000328012
0.000293134
0.000261779
0.0002341
0.000209941
0.000188904
0.000170376
0.00015351
0.000137186
0.000120787
0.000105025
9.08244e-05
7.84631e-05
6.76839e-05
5.8255e-05
5.01197e-05
4.30947e-05
3.70067e-05
3.18503e-05
2.79386e-05
2.31623e-05
1.51643e-05
1.75333e-06
3.94052e-05
0.000683479
0.000688764
0.000692683
0.000694901
0.000694843
0.000691921
0.000686119
0.000676904
0.000664135
0.000647956
0.000628318
0.000605488
0.000579857
0.000551827
0.000522015
0.000490943
0.000459164
0.00042778
0.000397195
0.000367216
0.000338008
0.000310241
0.000284963
0.000261343
0.000238091
0.000214136
0.000189623
0.000168384
0.000147949
0.000123199
8.70961e-05
3.58809e-05
3.91205e-06
4.19314e-07
0
0
0.00121764
0.0199046
0.801596
0.000676213
0.000667897
0.000657223
0.000642399
0.000624128
0.000602827
0.000579804
0.00055408
0.000525681
0.000495245
0.000463144
0.000430102
0.000396746
0.000363545
0.000331072
0.000299948
0.000270677
0.000243646
0.000219106
0.000197097
0.000177454
0.000159789
0.000143518
0.000127887
0.000112457
9.76749e-05
8.42938e-05
7.26213e-05
6.25115e-05
5.3792e-05
4.64269e-05
4.04761e-05
3.59079e-05
3.26572e-05
3.068e-05
3.07979e-05
3.27099e-05
3.14571e-05
1.06449e-06
0.0005758
0.000580973
0.000585389
0.000588686
0.000590236
0.000589815
0.000587364
0.000582335
0.000574644
0.000564288
0.000551059
0.00053512
0.000516666
0.000495884
0.000473109
0.000448668
0.000423047
0.000396371
0.00036855
0.000340437
0.000313308
0.000288127
0.000265371
0.000244166
0.000222382
0.000199106
0.000175699
0.000155564
0.000140243
0.000128598
0.000119668
0.000101027
6.87114e-05
8.72977e-06
1.26219e-06
0
0
0.00679919
0.187019
0.000569114
0.000561864
0.00055294
0.000540635
0.000525953
0.000509415
0.000491438
0.000471446
0.000449617
0.000426368
0.000401872
0.000376551
0.00035073
0.000324662
0.000298764
0.000273492
0.00024923
0.000226378
0.000205185
0.000185781
0.000168126
0.00015198
0.000136938
0.00012249
0.000108306
9.47038e-05
8.22716e-05
7.12786e-05
6.16206e-05
5.31372e-05
4.57726e-05
3.94837e-05
3.41867e-05
2.99705e-05
2.67872e-05
2.5917e-05
2.50833e-05
4.11339e-05
1.41426e-05
0.000488623
0.00049354
0.000497992
0.00050164
0.000504072
0.000505073
0.000504406
0.000501873
0.00049728
0.000490555
0.000481482
0.000470055
0.000456396
0.000440578
0.000422812
0.00040337
0.000382521
0.00036071
0.000338321
0.00031572
0.000293463
0.000272014
0.000251723
0.000232249
0.00021221
0.000190633
0.000168485
0.000148158
0.000131679
0.00011904
0.000110332
0.000104465
9.9472e-05
7.97327e-05
2.21635e-05
1.45625e-06
0
0.000917961
0.0590184
0.000482607
0.000476296
0.000468804
0.000458555
0.00044662
0.000433556
0.000419281
0.000403559
0.000386634
0.000368677
0.000349802
0.000330243
0.000310174
0.00028971
0.000269083
0.000248608
0.000228569
0.000209275
0.000190995
0.000173879
0.000157952
0.000143107
0.000129099
0.000115603
0.00010242
8.979e-05
7.81626e-05
6.77948e-05
5.86478e-05
5.06168e-05
4.36721e-05
3.78213e-05
3.30603e-05
2.94422e-05
2.68592e-05
2.63513e-05
2.56426e-05
3.57869e-05
4.1677e-05
0.000417439
0.000422052
0.000426415
0.000430175
0.000433089
0.000434973
0.000435686
0.00043492
0.000432459
0.000428341
0.00042253
0.000414692
0.000404913
0.000393263
0.000379815
0.000364716
0.000348171
0.000330536
0.000311883
0.000292488
0.000273023
0.000254117
0.00023606
0.000218577
0.000200676
0.000181546
0.000161774
0.000143133
0.000127176
0.000114119
0.000103629
9.60217e-05
9.14499e-05
9.23484e-05
8.15781e-05
2.31537e-05
4.14563e-08
0.000267994
0.0189682
0.00041204
0.000406484
0.000400109
0.000391537
0.000381759
0.000371223
0.000359786
0.000347256
0.000334014
0.000320027
0.000305327
0.000290126
0.000274466
0.000258347
0.000241932
0.000225405
0.000208938
0.000192779
0.000177138
0.000162197
0.000148035
0.000134616
0.000121788
0.00010936
9.72536e-05
8.5644e-05
7.48827e-05
6.51961e-05
5.65819e-05
4.89646e-05
4.23135e-05
3.66284e-05
3.18782e-05
2.81232e-05
2.53502e-05
2.44263e-05
2.4126e-05
3.01822e-05
4.67323e-05
0.000358637
0.000362901
0.000367055
0.000370767
0.000373861
0.000376213
0.000377721
0.000378078
0.000377218
0.000374893
0.000371118
0.000365938
0.00035899
0.000350397
0.000340211
0.000328494
0.000315368
0.000301099
0.000285877
0.000269913
0.0002536
0.000237424
0.000221586
0.000205932
0.000189827
0.000172727
0.000155065
0.000138239
0.000123514
0.000111157
0.000100712
9.20832e-05
8.52139e-05
8.24286e-05
8.44542e-05
8.68077e-05
1.06501e-07
2.22839e-05
0.00464723
0.00035382
0.000348916
0.000343445
0.000336224
0.000328152
0.000319559
0.000310264
0.000300205
0.000289688
0.000278763
0.000267194
0.000255287
0.000243009
0.000230308
0.00021723
0.000203896
0.00019041
0.00017694
0.000163649
0.000150691
0.000138165
0.000126085
0.000114386
0.000102984
9.18685e-05
8.11927e-05
7.12285e-05
6.21804e-05
5.40776e-05
4.68773e-05
4.05662e-05
3.51619e-05
3.06629e-05
2.71213e-05
2.45268e-05
2.35522e-05
2.33514e-05
2.7686e-05
4.29927e-05
0.000309653
0.000313557
0.000317454
0.000321019
0.000324145
0.000326757
0.00032872
0.000329824
0.000329937
0.000329053
0.000326797
0.000323399
0.000318724
0.000312534
0.000304956
0.000296015
0.000285759
0.000274368
0.000262017
0.000248794
0.000234985
0.000221069
0.000207228
0.000193362
0.000179028
0.000163838
0.00014812
0.000132983
0.000119522
0.000108062
9.82886e-05
8.99843e-05
8.29077e-05
7.78946e-05
7.41034e-05
8.99554e-05
4.94185e-05
2.44299e-07
0.000186266
0.000305341
0.00030102
0.000296279
0.000290163
0.000283453
0.000276362
0.000268721
0.000260577
0.000252176
0.000243459
0.000234389
0.000224982
0.000215311
0.000205267
0.000194853
0.00018411
0.000173085
0.000161896
0.000150662
0.000139503
0.000128508
0.000117728
0.000107155
9.67849e-05
8.66498e-05
7.68828e-05
6.77085e-05
5.93043e-05
5.17192e-05
4.49368e-05
3.8954e-05
3.3793e-05
2.94492e-05
2.59731e-05
2.33685e-05
2.22606e-05
2.19274e-05
2.55673e-05
3.85164e-05
0.000268524
0.000272067
0.000275682
0.00027904
0.000282097
0.000284803
0.000287012
0.000288565
0.00028936
0.000289336
0.000288306
0.000286203
0.000283164
0.000278815
0.000273237
0.000266483
0.000258556
0.000249525
0.000239584
0.000228784
0.000217278
0.00020546
0.000193491
0.000181311
0.000168631
0.000155183
0.000141221
0.000127621
0.000115321
0.000104693
9.55715e-05
8.77946e-05
8.11809e-05
7.6168e-05
7.11374e-05
7.31303e-05
9.27033e-05
7.60773e-07
1.03927e-05
0.000264652
0.000260839
0.000256714
0.000251494
0.000245875
0.000239963
0.000233632
0.000226983
0.000220199
0.000213187
0.000206079
0.000198566
0.000190901
0.000182941
0.000174626
0.000165968
0.000156975
0.000147706
0.000138242
0.000128676
0.000119097
0.000109558
0.000100079
9.06855e-05
8.14638e-05
7.25507e-05
6.4124e-05
5.63371e-05
4.92529e-05
4.2878e-05
3.72214e-05
3.23141e-05
2.81622e-05
2.48178e-05
2.22828e-05
2.11132e-05
2.06671e-05
2.36202e-05
3.46066e-05
0.000233735
0.000236947
0.000240274
0.000243399
0.000246335
0.000249029
0.000251351
0.000253166
0.000254404
0.000254965
0.000254813
0.000253699
0.000251709
0.00024886
0.000244863
0.000239837
0.000233783
0.000226704
0.00021877
0.00020999
0.00020046
0.000190477
0.000180202
0.000169609
0.000158487
0.000146659
0.000134327
0.000122179
0.000111001
0.000101179
9.26607e-05
8.53432e-05
7.91757e-05
7.42883e-05
7.08936e-05
6.44372e-05
9.45775e-05
7.09105e-06
6.29822e-09
0.000230275
0.000226889
0.000223291
0.00021881
0.000214071
0.000209093
0.000203802
0.00019834
0.00019278
0.000187202
0.000181418
0.000175523
0.000169398
0.000163043
0.000156388
0.000149391
0.000142052
0.000134391
0.000126454
0.000118304
0.000110005
0.000101616
9.31689e-05
8.47256e-05
7.63856e-05
6.82839e-05
6.05697e-05
5.33804e-05
4.6787e-05
4.08128e-05
3.54768e-05
3.08157e-05
2.68396e-05
2.35996e-05
2.11024e-05
1.9851e-05
1.93092e-05
2.16704e-05
3.1088e-05
0.000204131
0.00020704
0.000210075
0.000212972
0.00021575
0.000218363
0.000220703
0.000222657
0.000224144
0.000225119
0.000225463
0.000225185
0.000224006
0.000222139
0.000219434
0.000215753
0.00021118
0.000205701
0.000199418
0.000192352
0.000184542
0.000176185
0.000167442
0.00015831
0.000148637
0.000138297
0.000127462
0.00011667
0.000106575
9.75548e-05
8.96355e-05
8.27568e-05
7.69628e-05
7.21572e-05
6.95806e-05
6.3163e-05
7.83481e-05
4.69625e-05
1.22547e-06
0.000201047
0.000198031
0.000194878
0.000191018
0.000186985
0.000182761
0.000178314
0.000173783
0.000169235
0.000164673
0.000159996
0.00015535
0.000150401
0.000145306
0.000139958
0.0001343
0.000128308
0.000121991
0.000115359
0.00010845
0.000101306
9.39696e-05
8.6484e-05
7.89282e-05
7.14175e-05
6.40737e-05
5.70349e-05
5.04201e-05
4.43032e-05
3.87208e-05
3.37004e-05
2.92832e-05
2.54859e-05
2.23593e-05
1.99131e-05
1.85951e-05
1.79722e-05
1.98119e-05
2.78488e-05
0.000178804
0.000181431
0.000184191
0.000186865
0.000189459
0.000191963
0.000194253
0.000196246
0.00019788
0.000199103
0.000199827
0.000200027
0.000199573
0.000198405
0.000196679
0.000194056
0.000190665
0.000186491
0.000181577
0.00017595
0.000169607
0.000162661
0.00015528
0.000147472
0.000139118
0.000130133
0.000120658
0.000111121
0.000102058
9.38266e-05
8.65075e-05
8.00799e-05
7.46163e-05
7.00414e-05
6.72206e-05
6.35271e-05
6.56633e-05
7.11289e-05
1.56208e-05
0.000176054
0.000173362
0.000170586
0.000167248
0.000163794
0.000160184
0.000156425
0.000152639
0.000148885
0.00014511
0.000141382
0.00013757
0.000133632
0.000129506
0.000125182
0.000120596
0.000115707
0.000110508
0.000104985
9.91457e-05
9.30218e-05
8.66476e-05
8.00586e-05
7.3328e-05
6.658e-05
5.99508e-05
5.3554e-05
4.74922e-05
4.18392e-05
3.66407e-05
3.19307e-05
2.77537e-05
2.4131e-05
2.11132e-05
1.87119e-05
1.73276e-05
1.66279e-05
1.80367e-05
2.48567e-05
0.000157033
0.000159394
0.000161906
0.000164357
0.000166774
0.000169134
0.000171343
0.000173314
0.000175007
0.000176373
0.000177348
0.000177858
0.000177936
0.000177323
0.000176242
0.000174517
0.000172057
0.000168927
0.00016513
0.000160697
0.000155594
0.000149878
0.000143709
0.000137097
0.000129945
0.000122189
0.000113949
0.000105564
9.74757e-05
9.00093e-05
8.32822e-05
7.7316e-05
7.21675e-05
6.79025e-05
6.46924e-05
6.27812e-05
5.98314e-05
7.06006e-05
4.26114e-05
0.000154574
0.00015217
0.000149717
0.000146823
0.000143842
0.00014074
0.000137541
0.000134359
0.000131229
0.000128121
0.000125061
0.000121938
0.000118799
0.000115417
0.000111916
0.000108205
0.000104221
9.99392e-05
9.53415e-05
9.04224e-05
8.51882e-05
7.96625e-05
7.38799e-05
6.79194e-05
6.1898e-05
5.59384e-05
5.01443e-05
4.46081e-05
3.94012e-05
3.4575e-05
3.0168e-05
2.6227e-05
2.27769e-05
1.98686e-05
1.75144e-05
1.60719e-05
1.52996e-05
1.63455e-05
2.20942e-05
0.000138231
0.000140355
0.000142636
0.00014488
0.000147114
0.000149327
0.00015142
0.000153333
0.000155029
0.000156465
0.000157581
0.00015834
0.000158715
0.000158612
0.000157973
0.000156938
0.000155212
0.000152906
0.000150015
0.000146567
0.000142509
0.000137856
0.000132743
0.000127192
0.000121121
0.000114477
0.000107356
0.000100028
9.28537e-05
8.6124e-05
7.99757e-05
7.44669e-05
6.96393e-05
6.56579e-05
6.23353e-05
6.0841e-05
5.75296e-05
6.29185e-05
5.73581e-05
0.000136037
0.000133886
0.000131712
0.000129195
0.000126605
0.000123926
0.000121188
0.000118491
0.000115862
0.000113284
0.000110734
0.000108195
0.000105638
0.000102899
0.000100058
9.70384e-05
9.37782e-05
9.0244e-05
8.64101e-05
8.2265e-05
7.78069e-05
7.30422e-05
6.79935e-05
6.27362e-05
5.73827e-05
5.20429e-05
4.68132e-05
4.17746e-05
3.69949e-05
3.25273e-05
2.84142e-05
2.47026e-05
2.14212e-05
1.86207e-05
1.63141e-05
1.48217e-05
1.39849e-05
1.47393e-05
1.95635e-05
0.000121932
0.000123844
0.000125912
0.000127963
0.000130021
0.000132076
0.000134042
0.000135873
0.000137532
0.000138985
0.000140182
0.000141095
0.00014167
0.000141928
0.000141661
0.000141057
0.000139961
0.000138308
0.000136152
0.000133517
0.00013033
0.000126583
0.000122387
0.00011777
0.000112661
0.000107011
0.000100897
9.45322e-05
8.82095e-05
8.21842e-05
7.66003e-05
7.15395e-05
6.70422e-05
6.32962e-05
6.00794e-05
5.83756e-05
5.59627e-05
5.65099e-05
5.90529e-05
0.000119974
0.000118049
0.000116119
0.000113922
0.00011166
0.000109333
0.000106977
0.000104679
0.000102457
0.000100299
9.81604e-05
9.60928e-05
9.39605e-05
9.17848e-05
8.9441e-05
8.69591e-05
8.42797e-05
8.13586e-05
7.81656e-05
7.46799e-05
7.08872e-05
6.67917e-05
6.24066e-05
5.77911e-05
5.30444e-05
4.82759e-05
4.35716e-05
3.90003e-05
3.46249e-05
3.0499e-05
2.66677e-05
2.31769e-05
2.00608e-05
1.73667e-05
1.51096e-05
1.35774e-05
1.26865e-05
1.32122e-05
1.72511e-05
0.000107752
0.000109474
0.000111353
0.000113219
0.000115109
0.000117008
0.000118842
0.000120574
0.000122172
0.000123606
0.000124833
0.000125828
0.000126561
0.000127004
0.000127099
0.000126781
0.000126175
0.000125043
0.000123475
0.000121496
0.00011903
0.000116055
0.000112647
0.000108842
0.000104584
9.98181e-05
9.46023e-05
8.91078e-05
8.35707e-05
7.82101e-05
7.31708e-05
6.85455e-05
6.43838e-05
6.08504e-05
5.78078e-05
5.58374e-05
5.40557e-05
5.23338e-05
5.54062e-05
0.000106009
0.000104283
0.000102565
0.000100639
9.86572e-05
9.66281e-05
9.45897e-05
9.26183e-05
9.07279e-05
8.89023e-05
8.7122e-05
8.53887e-05
8.36208e-05
8.18755e-05
7.99168e-05
7.78756e-05
7.56732e-05
7.32535e-05
7.05876e-05
6.76551e-05
6.44383e-05
6.09266e-05
5.71269e-05
5.30878e-05
4.88992e-05
4.46563e-05
4.04352e-05
3.62984e-05
3.23026e-05
2.85009e-05
2.49388e-05
2.16613e-05
1.87056e-05
1.61152e-05
1.39081e-05
1.23449e-05
1.14119e-05
1.17671e-05
1.51536e-05
9.53809e-05
9.6933e-05
9.86347e-05
0.000100332
0.000102063
0.000103808
0.000105512
0.000107136
0.000108658
0.000110047
0.000111272
0.000112307
0.000113135
0.000113705
0.000114049
0.00011399
0.000113686
0.000112996
0.000111892
0.000110431
0.000108558
0.000106231
0.000103497
0.000100396
9.68823e-05
9.28985e-05
8.84834e-05
8.37737e-05
7.8958e-05
7.42221e-05
6.97029e-05
6.54979e-05
6.16666e-05
5.8345e-05
5.54716e-05
5.33539e-05
5.17461e-05
4.93704e-05
5.09079e-05
9.38271e-05
9.22809e-05
9.07488e-05
8.90539e-05
8.73101e-05
8.55345e-05
8.37606e-05
8.20605e-05
8.04416e-05
7.88879e-05
7.73927e-05
7.59125e-05
7.44881e-05
7.29891e-05
7.14223e-05
6.97218e-05
6.78879e-05
6.58727e-05
6.36425e-05
6.11769e-05
5.84542e-05
5.54542e-05
5.21729e-05
4.86494e-05
4.4961e-05
4.1195e-05
3.74153e-05
3.36813e-05
3.00425e-05
2.65492e-05
2.32455e-05
2.01741e-05
1.73741e-05
1.48849e-05
1.27285e-05
1.11404e-05
1.01706e-05
1.04032e-05
1.32621e-05
8.45569e-05
8.59557e-05
8.74967e-05
8.90394e-05
9.06157e-05
9.2219e-05
9.37926e-05
9.53073e-05
9.67414e-05
9.80713e-05
9.92656e-05
0.000100309
0.00010118
0.000101849
0.000102314
0.000102488
0.000102408
0.000102047
0.000101311
0.000100265
9.88759e-05
9.70911e-05
9.49257e-05
9.2428e-05
8.95561e-05
8.62548e-05
8.25476e-05
7.85409e-05
7.43827e-05
7.02301e-05
6.62062e-05
6.24086e-05
5.88991e-05
5.57947e-05
5.30704e-05
5.09086e-05
4.92357e-05
4.67896e-05
4.68798e-05
8.31691e-05
8.17884e-05
8.04179e-05
7.89216e-05
7.73829e-05
7.58226e-05
7.42724e-05
7.27962e-05
7.13997e-05
7.00698e-05
6.87981e-05
6.75556e-05
6.63503e-05
6.50955e-05
6.38237e-05
6.23738e-05
6.08444e-05
5.91706e-05
5.73123e-05
5.52453e-05
5.29432e-05
5.03807e-05
4.75481e-05
4.44761e-05
4.12327e-05
3.78946e-05
3.45226e-05
3.11617e-05
2.78577e-05
2.46562e-05
2.15988e-05
1.87257e-05
1.60767e-05
1.36869e-05
1.15816e-05
9.97479e-06
8.9731e-06
9.11677e-06
1.15549e-05
7.50632e-05
7.6324e-05
7.77175e-05
7.91188e-05
8.05524e-05
8.202e-05
8.34694e-05
8.4875e-05
8.62178e-05
8.74758e-05
8.86258e-05
8.96524e-05
9.05381e-05
9.12628e-05
9.18101e-05
9.2143e-05
9.22209e-05
9.21399e-05
9.16988e-05
9.09848e-05
8.99925e-05
8.86528e-05
8.69629e-05
8.49717e-05
8.2648e-05
7.9935e-05
7.68432e-05
7.34541e-05
6.98847e-05
6.62636e-05
6.27022e-05
5.9292e-05
5.60929e-05
5.32096e-05
5.06249e-05
4.84756e-05
4.66831e-05
4.426e-05
4.33678e-05
7.38223e-05
7.25893e-05
7.13618e-05
7.00375e-05
6.86757e-05
6.72987e-05
6.59396e-05
6.46521e-05
6.34399e-05
6.22935e-05
6.12024e-05
6.01497e-05
5.91109e-05
5.80724e-05
5.69904e-05
5.57892e-05
5.45204e-05
5.31289e-05
5.15749e-05
4.98296e-05
4.78715e-05
4.56765e-05
4.32324e-05
4.05602e-05
3.77181e-05
3.47682e-05
3.17666e-05
2.87485e-05
2.57548e-05
2.28255e-05
2e-05
1.73158e-05
1.48115e-05
1.25189e-05
1.04654e-05
8.84664e-06
7.82036e-06
7.91037e-06
1.00239e-05
6.67156e-05
6.78549e-05
6.91139e-05
7.03815e-05
7.16852e-05
7.30265e-05
7.43578e-05
7.56547e-05
7.69062e-05
7.80871e-05
7.91811e-05
8.01745e-05
8.10543e-05
8.18047e-05
8.23993e-05
8.28637e-05
8.30666e-05
8.31382e-05
8.29495e-05
8.24955e-05
8.18106e-05
8.08348e-05
7.95441e-05
7.79853e-05
7.61308e-05
7.39262e-05
7.13716e-05
6.8528e-05
6.54869e-05
6.23505e-05
5.92162e-05
5.61689e-05
5.3267e-05
5.05966e-05
4.81544e-05
4.60388e-05
4.41535e-05
4.173e-05
4.0208e-05
6.56069e-05
6.45054e-05
6.34047e-05
6.22293e-05
6.10213e-05
5.98026e-05
5.86068e-05
5.74774e-05
5.64198e-05
5.54245e-05
5.44832e-05
5.35824e-05
5.26851e-05
5.18166e-05
5.08886e-05
4.99205e-05
4.88471e-05
4.76695e-05
4.63539e-05
4.48724e-05
4.32055e-05
4.13285e-05
3.92241e-05
3.6906e-05
3.44202e-05
3.18212e-05
2.91525e-05
2.64472e-05
2.37386e-05
2.10621e-05
1.84546e-05
1.59496e-05
1.35831e-05
1.13847e-05
9.38308e-06
7.75787e-06
6.71491e-06
6.7857e-06
8.66081e-06
5.9363e-05
6.03903e-05
6.15266e-05
6.26727e-05
6.38573e-05
6.50811e-05
6.63001e-05
6.74953e-05
6.86534e-05
6.9756e-05
7.07875e-05
7.17373e-05
7.25955e-05
7.33472e-05
7.39776e-05
7.4486e-05
7.48147e-05
7.49868e-05
7.49797e-05
7.47272e-05
7.42802e-05
7.3594e-05
7.26337e-05
7.14337e-05
6.99746e-05
6.82052e-05
6.61183e-05
6.37561e-05
6.11881e-05
5.84954e-05
5.57583e-05
5.3052e-05
5.04334e-05
4.79736e-05
4.56717e-05
4.36047e-05
4.16695e-05
3.92346e-05
3.72972e-05
5.83693e-05
5.73862e-05
5.63989e-05
5.53521e-05
5.42789e-05
5.31975e-05
5.21415e-05
5.1148e-05
5.02204e-05
4.93506e-05
4.85329e-05
4.7754e-05
4.6988e-05
4.62396e-05
4.54525e-05
4.46587e-05
4.37212e-05
4.2722e-05
4.16094e-05
4.03565e-05
3.89439e-05
3.73442e-05
3.55352e-05
3.3526e-05
3.13522e-05
2.90616e-05
2.66912e-05
2.42683e-05
2.18206e-05
1.93797e-05
1.69769e-05
1.46425e-05
1.24091e-05
1.03032e-05
8.35289e-06
6.7232e-06
5.66506e-06
5.74497e-06
7.45913e-06
5.28746e-05
5.3799e-05
5.48236e-05
5.58585e-05
5.69349e-05
5.80513e-05
5.91642e-05
6.02618e-05
6.13293e-05
6.23539e-05
6.33192e-05
6.42191e-05
6.50433e-05
6.57823e-05
6.6424e-05
6.69582e-05
6.73626e-05
6.76009e-05
6.77537e-05
6.7662e-05
6.74064e-05
6.69531e-05
6.62622e-05
6.53545e-05
6.42198e-05
6.28132e-05
6.11199e-05
5.91704e-05
5.7015e-05
5.47168e-05
5.23427e-05
4.99555e-05
4.76026e-05
4.535e-05
4.31909e-05
4.11854e-05
3.92321e-05
3.68046e-05
3.45957e-05
5.19809e-05
5.11036e-05
5.02184e-05
4.92844e-05
4.83295e-05
4.7369e-05
4.64327e-05
4.55551e-05
4.47376e-05
4.39733e-05
4.32585e-05
4.25791e-05
4.19207e-05
4.12646e-05
4.06079e-05
3.99104e-05
3.912e-05
3.82759e-05
3.73381e-05
3.62798e-05
3.50773e-05
3.3707e-05
3.21471e-05
3.0402e-05
2.8501e-05
2.64833e-05
2.43801e-05
2.22141e-05
2.00071e-05
1.77859e-05
1.5577e-05
1.34066e-05
1.13035e-05
9.29003e-06
7.39173e-06
5.75767e-06
4.67896e-06
4.78662e-06
6.40289e-06
4.71368e-05
4.79702e-05
4.88915e-05
4.98277e-05
5.08041e-05
5.18191e-05
5.28348e-05
5.38394e-05
5.48203e-05
5.57671e-05
5.66666e-05
5.75117e-05
5.82972e-05
5.90119e-05
5.9651e-05
6.01931e-05
6.06615e-05
6.09544e-05
6.11775e-05
6.12278e-05
6.11191e-05
6.08466e-05
6.0372e-05
5.97085e-05
5.88442e-05
5.77411e-05
5.63829e-05
5.47881e-05
5.29922e-05
5.10426e-05
4.89931e-05
4.68974e-05
4.47953e-05
4.27374e-05
4.07243e-05
3.87882e-05
3.68423e-05
3.44477e-05
3.20766e-05
4.6333e-05
4.55503e-05
4.47571e-05
4.39218e-05
4.30708e-05
4.22164e-05
4.13843e-05
4.06065e-05
3.9883e-05
3.92085e-05
3.858e-05
3.79842e-05
3.74117e-05
3.68342e-05
3.62774e-05
3.56619e-05
3.5023e-05
3.42953e-05
3.34931e-05
3.25907e-05
3.15622e-05
3.03844e-05
2.90375e-05
2.75222e-05
2.58601e-05
2.40856e-05
2.22224e-05
2.02893e-05
1.83034e-05
1.6286e-05
1.42599e-05
1.22464e-05
1.02705e-05
8.34994e-06
6.50616e-06
4.86865e-06
3.76081e-06
3.91251e-06
5.47981e-06
4.20546e-05
4.28054e-05
4.36335e-05
4.44811e-05
4.53666e-05
4.62878e-05
4.7213e-05
4.813e-05
4.90302e-05
4.99021e-05
5.07359e-05
5.15256e-05
5.22664e-05
5.29498e-05
5.35714e-05
5.41169e-05
5.45905e-05
5.49497e-05
5.52111e-05
5.53587e-05
5.53583e-05
5.52208e-05
5.49173e-05
5.44505e-05
5.38092e-05
5.29605e-05
5.18873e-05
5.05983e-05
4.9117e-05
4.74778e-05
4.57219e-05
4.3892e-05
4.20226e-05
4.01532e-05
3.82823e-05
3.6429e-05
3.45127e-05
3.21763e-05
2.97293e-05
4.13327e-05
4.06336e-05
3.99234e-05
3.91751e-05
3.84162e-05
3.76549e-05
3.69142e-05
3.62225e-05
3.55802e-05
3.4982e-05
3.44259e-05
3.39024e-05
3.33996e-05
3.29002e-05
3.24054e-05
3.18796e-05
3.13521e-05
3.07102e-05
3.00223e-05
2.92532e-05
2.83741e-05
2.73613e-05
2.61969e-05
2.48801e-05
2.34279e-05
2.18669e-05
2.02182e-05
1.84949e-05
1.67107e-05
1.4882e-05
1.30273e-05
1.1164e-05
9.31233e-06
7.48631e-06
5.70069e-06
4.06117e-06
2.91183e-06
3.12848e-06
4.68531e-06
3.75472e-05
3.82238e-05
3.89675e-05
3.97347e-05
4.05367e-05
4.13722e-05
4.22131e-05
4.30494e-05
4.3873e-05
4.46736e-05
4.54436e-05
4.61772e-05
4.6871e-05
4.75183e-05
4.81143e-05
4.86519e-05
4.91227e-05
4.95136e-05
4.97951e-05
5.00326e-05
5.0116e-05
5.00827e-05
4.99141e-05
4.96031e-05
4.91384e-05
4.8494e-05
4.76539e-05
4.66196e-05
4.54058e-05
4.40362e-05
4.25408e-05
4.09531e-05
3.92983e-05
3.7608e-05
3.58775e-05
3.4119e-05
3.22504e-05
2.99894e-05
2.75393e-05
3.68991e-05
3.62741e-05
3.56383e-05
3.49685e-05
3.42906e-05
3.36114e-05
3.29513e-05
3.23348e-05
3.17627e-05
3.12303e-05
3.0737e-05
3.02733e-05
2.98282e-05
2.93975e-05
2.89514e-05
2.85175e-05
2.80278e-05
2.75059e-05
2.6913e-05
2.62507e-05
2.54935e-05
2.46183e-05
2.36083e-05
2.24622e-05
2.11939e-05
1.98229e-05
1.8366e-05
1.68323e-05
1.52317e-05
1.35771e-05
1.18829e-05
1.01633e-05
8.43348e-06
6.70395e-06
4.98208e-06
3.34407e-06
2.13232e-06
2.4464e-06
4.01934e-06
3.35426e-05
3.41533e-05
3.48228e-05
3.55154e-05
3.6241e-05
3.69981e-05
3.77613e-05
3.85224e-05
3.92748e-05
4.0008e-05
4.07162e-05
4.13951e-05
4.2041e-05
4.26499e-05
4.32163e-05
4.3737e-05
4.41967e-05
4.46155e-05
4.49174e-05
4.51844e-05
4.53424e-05
4.53893e-05
4.53226e-05
4.51346e-05
4.48129e-05
4.43353e-05
4.36866e-05
4.28649e-05
4.1877e-05
4.07381e-05
3.94697e-05
3.80967e-05
3.66383e-05
3.51158e-05
3.35235e-05
3.18642e-05
3.00643e-05
2.78974e-05
2.54935e-05
3.29625e-05
3.24039e-05
3.18348e-05
3.1235e-05
3.06294e-05
3.00231e-05
2.94338e-05
2.88837e-05
2.83729e-05
2.78976e-05
2.74578e-05
2.70457e-05
2.66526e-05
2.6271e-05
2.58842e-05
2.54956e-05
2.50753e-05
2.46439e-05
2.41142e-05
2.35406e-05
2.28872e-05
2.21316e-05
2.12582e-05
2.02635e-05
1.91565e-05
1.79533e-05
1.6666e-05
1.53017e-05
1.38676e-05
1.23736e-05
1.08304e-05
9.24863e-06
7.64002e-06
6.01103e-06
4.36239e-06
2.73605e-06
1.42836e-06
1.88402e-06
3.48086e-06
2.9983e-05
3.05315e-05
3.11347e-05
3.17605e-05
3.24165e-05
3.31017e-05
3.37941e-05
3.44862e-05
3.51715e-05
3.58418e-05
3.64918e-05
3.71172e-05
3.7716e-05
3.82841e-05
3.88182e-05
3.93147e-05
3.97651e-05
4.01722e-05
4.05089e-05
4.07803e-05
4.09842e-05
4.10861e-05
4.10933e-05
4.10001e-05
4.07928e-05