/*--------------------------------*- C++ -*----------------------------------*\
| =========                 |                                                 |
| \\      /  F ield         | OpenFOAM: The Open Source CFD Toolbox           |
|  \\    /   O peration     | Version:  2306                                  |
|   \\  /    A nd           | Website:  www.openfoam.com                      |
|    \\/     M anipulation  |                                                 |
\*---------------------------------------------------------------------------*/
FoamFile
{
    version     2.0;
    format      ascii;
    arch        "LSB;label=32;scalar=64";
    class       volSymmTensorField;
    location    "150";
    object      turbulenceProperties:devReff;
}
// * * * * * * * * * * * * * * * * * * * * * * * * * * * * * * * * * * * * * //

dimensions      [0 2 -2 0 0 0 0];

internalField   nonuniform List<symmTensor> 
10720
(
(0.00155342 0.00383415 -1.45364e-21 -0.00167645 -2.0729e-20 0.000123024)
(0.00223443 0.00439537 3.96314e-21 -0.00232262 1.29989e-19 8.81804e-05)
(0.00334306 0.00491964 -3.27411e-20 -0.00352163 -3.95208e-19 0.000178567)
(0.00483062 0.00560354 1.15833e-19 -0.00505394 7.94193e-19 0.000223313)
(0.00682081 0.00620657 -2.05459e-19 -0.00706564 -7.49486e-19 0.000244832)
(0.00955406 0.00656943 -1.63263e-19 -0.00991185 -4.17248e-19 0.000357789)
(0.0131494 0.00668594 3.12793e-19 -0.0135955 1.14588e-18 0.000446106)
(0.0176894 0.00622886 -7.80803e-19 -0.0182261 -2.07221e-18 0.000536667)
(0.0233326 0.00484971 -1.9057e-19 -0.0240232 5.39854e-19 0.000690664)
(0.0301881 0.00231561 5.8117e-19 -0.0310227 1.16753e-18 0.00083462)
(0.0383501 -0.00188726 1.47169e-18 -0.0393679 5.47909e-19 0.00101776)
(0.0482925 -0.00830224 -3.31425e-18 -0.0495322 -3.05605e-18 0.00123966)
(0.0604225 -0.0177525 6.22508e-19 -0.0619202 8.0951e-19 0.00149768)
(0.0755526 -0.0317062 2.51772e-18 -0.0773936 1.19844e-18 0.00184104)
(0.0949771 -0.0525785 -3.83396e-18 -0.0972951 -5.90863e-18 0.00231803)
(0.120964 -0.084505 -4.13655e-18 -0.123948 -2.36195e-18 0.00298389)
(0.156076 -0.134519 1.74794e-17 -0.160102 1.61187e-17 0.00402526)
(0.207 -0.216914 1.75151e-17 -0.212555 3.04125e-17 0.00555476)
(0.277966 -0.352727 -3.18336e-17 -0.28593 -4.75772e-17 0.00796415)
(0.395345 -0.606871 -2.62319e-18 -0.407209 1.3203e-17 0.011864)
(0.556799 -1.04214 -2.4415e-17 -0.574437 4.14077e-17 0.017638)
(0.887107 -2.05296 5.23868e-18 -0.915194 3.17289e-17 0.0280879)
(1.32842 -3.9745 -1.24568e-16 -1.37384 -3.7067e-16 0.0454198)
(2.26263 -9.66786 2.47312e-16 -2.3583 3.84187e-16 0.0956663)
(1.84164 -13.3895 2.74518e-17 -1.92547 -6.03423e-16 0.0838299)
(0.784469 -13.8073 4.26988e-16 -0.806669 4.88875e-16 0.0222008)
(-0.0641418 -13.4605 -6.50194e-17 0.0747292 -7.36181e-17 -0.0105874)
(-0.70954 -13.313 2.69956e-16 0.723699 2.09823e-16 -0.0141595)
(-1.26763 -13.2753 7.81666e-16 1.27633 1.11672e-15 -0.00869912)
(-1.76529 -13.0989 5.19828e-16 1.76818 1.86108e-15 -0.00289532)
(-2.18521 -12.6873 -1.49168e-15 2.1814 -1.80534e-15 0.00380721)
(-2.51052 -12.0629 -5.49673e-16 2.49972 -6.76751e-16 0.0107935)
(-2.73296 -11.2612 1.29646e-16 2.717 -4.40133e-15 0.015964)
(-2.84362 -10.3049 -2.67776e-15 2.82623 -6.86222e-15 0.0173835)
(-2.82637 -9.18281 9.74537e-16 2.8101 8.75054e-16 0.016269)
(-2.67099 -7.91228 1.33407e-15 2.65811 1.16147e-15 0.0128831)
(-2.31748 -6.31779 -1.25271e-16 2.30385 -5.39238e-16 0.0136316)
(-1.81387 -4.72159 -1.72584e-15 1.81054 1.18289e-18 0.0033217)
(-0.800526 -1.60407 -2.81419e-16 0.803686 -3.07432e-15 -0.00316033)
(0.000949668 0.00334797 3.99494e-21 -0.000996361 5.03505e-20 4.66927e-05)
(0.000572146 0.00288366 -4.60337e-21 -0.000652349 -4.0565e-21 8.02024e-05)
(0.000238533 0.00235849 -3.00979e-20 -0.000279989 -1.207e-19 4.14563e-05)
(1.8762e-05 0.00189121 1.77574e-20 -4.93092e-05 8.04436e-20 3.05472e-05)
(-7.84158e-05 0.00145001 4.81446e-22 6.26976e-05 -6.78177e-21 1.57182e-05)
(-6.74079e-05 0.00106427 -4.87486e-20 7.37021e-05 1.43709e-19 -6.29426e-06)
(1.75616e-05 0.000772233 -1.98209e-19 1.52203e-05 1.61115e-19 -3.27819e-05)
(0.00014502 0.00061441 1.50872e-19 -0.000107331 -6.61119e-20 -3.76886e-05)
(0.000333916 0.000639209 2.37289e-19 -0.000314656 -1.24424e-19 -1.92605e-05)
(0.000601146 0.000794376 -1.34743e-19 -0.000601169 2.78262e-20 2.2709e-08)
(0.000984042 0.00112762 -4.09749e-20 -0.00099529 1.75059e-19 1.12471e-05)
(0.00154031 0.00174773 2.58721e-19 -0.00156043 8.91817e-20 2.0124e-05)
(0.00234824 0.00283505 4.68243e-19 -0.00238367 -7.62366e-20 3.54343e-05)
(0.0034952 0.00463196 -2.76419e-20 -0.00355434 -2.48071e-19 5.91465e-05)
(0.00504298 0.00738054 -4.82019e-20 -0.00512741 -1.78134e-19 8.44329e-05)
(0.00701183 0.011384 6.55705e-20 -0.00713269 -6.68902e-20 0.000120868)
(0.00953441 0.0171168 -2.32011e-19 -0.00969543 6.64795e-19 0.00016102)
(0.0128999 0.0255785 7.71642e-19 -0.013118 2.56064e-19 0.000218132)
(0.0177308 0.0387319 3.44977e-19 -0.0180261 -1.19409e-18 0.000295246)
(0.0249183 0.0601608 -1.42573e-18 -0.025348 -3.0853e-19 0.000429675)
(0.0363062 0.0973437 -4.78533e-18 -0.0369584 -1.89302e-18 0.000652173)
(0.0540879 0.163241 -3.46951e-18 -0.055168 -8.36373e-19 0.0010801)
(0.084103 0.292285 6.77546e-18 -0.0860767 -7.1836e-19 0.00197369)
(0.128703 0.538637 -8.7356e-18 -0.132722 1.35803e-18 0.00401831)
(0.205638 1.09671 4.5445e-18 -0.214421 -6.37884e-18 0.00878325)
(0.309077 2.23827 -1.3959e-16 -0.32728 4.96456e-18 0.0182031)
(0.462751 5.10187 -8.67677e-17 -0.506165 1.02847e-17 0.043414)
(0.456605 10.1374 7.13466e-17 -0.542978 -6.49338e-19 0.086373)
(0.00802782 13.9144 9.08566e-18 -0.115331 9.21137e-20 0.107303)
(-0.649945 15.4409 6.27754e-17 0.550557 -4.73535e-18 0.099388)
(-1.30342 15.8232 -4.50976e-16 1.22064 -1.74688e-18 0.0827862)
(-1.90214 15.822 1.60084e-16 1.83427 2.48382e-17 0.0678671)
(-2.43805 15.6435 -1.94817e-15 2.3817 -1.75192e-16 0.0563506)
(-2.90353 15.3262 -3.5509e-15 2.85607 -1.5707e-16 0.0474602)
(-3.29683 14.8862 1.09614e-15 3.25595 1.29355e-16 0.0408806)
(-3.6226 14.3463 1.05424e-15 3.58678 1.53259e-16 0.0358117)
(-3.86506 13.6028 1.48839e-15 3.83242 2.61364e-16 0.0326326)
(-4.01158 12.7652 -2.97593e-16 3.98087 -3.95089e-17 0.0307091)
(-3.73941 10.3243 -4.67458e-15 3.73307 -8.05342e-16 0.00634137)
(0.000572749 -0.000436228 1.81591e-22 -0.000517886 3.62809e-21 -5.48627e-05)
(0.00048983 -0.000523943 2.75141e-20 -0.000427257 6.78249e-20 -6.25726e-05)
(0.000372989 -0.000600865 -2.48237e-20 -0.000297546 -4.44404e-20 -7.54433e-05)
(0.0002549 -0.000632935 -1.92991e-20 -0.000168012 -5.12322e-20 -8.6888e-05)
(0.000139326 -0.000629418 1.19027e-19 -4.37369e-05 2.28434e-19 -9.55886e-05)
(3.02357e-05 -0.000598248 4.64936e-20 7.41277e-05 7.22967e-20 -0.000104363)
(-5.35097e-05 -0.00054232 2.19011e-19 0.00016554 2.02391e-19 -0.000112031)
(-0.000110985 -0.000472568 -1.11122e-19 0.000228117 -2.21574e-20 -0.000117131)
(-0.000145214 -0.000400103 1.59363e-19 0.000266039 1.11641e-19 -0.000120825)
(-0.000155879 -0.000332351 -5.1783e-21 0.000278716 2.49027e-22 -0.000122836)
(-0.000150292 -0.000274157 -2.18e-19 0.000273679 -1.86072e-19 -0.000123387)
(-0.000134329 -0.000230387 2.77927e-19 0.000256561 3.43445e-19 -0.000122232)
(-0.000113402 -0.000208724 1.65568e-19 0.000236054 8.31743e-20 -0.000122652)
(-9.1949e-05 -0.000214208 -3.35534e-20 0.000223101 1.70797e-20 -0.000131152)
(-6.62315e-05 -0.000271008 -1.84527e-19 0.000227236 3.08189e-20 -0.000161004)
(-8.96734e-06 -0.000471783 3.69031e-19 0.000259781 4.17852e-19 -0.000250813)
(0.000201743 -0.00107691 6.30348e-19 0.000266084 -7.18078e-19 -0.000467828)
(0.000859093 -0.00258158 -3.64354e-18 -1.04094e-05 -4.57235e-18 -0.000848683)
(0.00246127 -0.00597738 5.02652e-19 -0.00107432 5.7522e-18 -0.00138695)
(0.00662719 -0.0151693 6.18117e-18 -0.00428864 -1.7801e-18 -0.00233855)
(0.0162803 -0.038419 1.11009e-17 -0.0126248 4.68582e-18 -0.00365548)
(0.0455575 -0.117995 -1.98735e-17 -0.0392451 -1.62347e-17 -0.00631245)
(0.102907 -0.31202 5.4106e-17 -0.0945518 1.08296e-16 -0.00835498)
(0.270938 -1.02668 2.13901e-19 -0.259446 -8.61896e-17 -0.011492)
(0.455828 -2.27185 -1.97708e-16 -0.453483 9.65233e-17 -0.0023452)
(0.524602 -3.66769 -9.61136e-17 -0.544694 -4.20633e-16 0.0200917)
(0.440082 -5.04256 -2.50114e-18 -0.480921 5.27137e-17 0.0408385)
(0.200552 -6.18453 -2.41346e-16 -0.250582 -3.11391e-16 0.0500304)
(-0.15105 -6.76355 -4.4752e-16 0.104199 -2.1572e-15 0.0468508)
(-0.501634 -6.58111 -1.79022e-16 0.469464 -2.80189e-15 0.0321699)
(-0.738865 -5.80527 4.80387e-16 0.728636 4.0788e-15 0.0102294)
(-0.840563 -4.84271 -8.47267e-16 0.852045 -1.24069e-16 -0.0114827)
(-0.850881 -3.99242 -6.89266e-15 0.876876 1.23328e-15 -0.0259955)
(-0.814371 -3.3293 8.10639e-15 0.844731 1.34881e-14 -0.0303601)
(-0.762361 -2.83048 -1.37138e-15 0.789044 -6.19739e-16 -0.0266826)
(-0.698621 -2.44956 3.25262e-15 0.720748 -4.73762e-15 -0.0221274)
(-0.658293 -2.18627 -1.45451e-15 0.673022 1.43828e-15 -0.0147294)
(-0.532466 -1.98515 3.22824e-15 0.563584 3.68431e-16 -0.0311174)
(-0.729237 -2.15103 5.71672e-15 0.644016 7.87609e-15 0.0852212)
(0.000634739 -0.00032101 9.30407e-21 -0.000588964 2.0151e-20 -4.57745e-05)
(0.000669079 -0.000201332 -1.27481e-20 -0.000626996 -9.75842e-20 -4.20832e-05)
(0.000672041 -5.54891e-05 -1.95087e-20 -0.000639871 -9.61313e-20 -3.21704e-05)
(0.00063054 0.000103417 -7.82774e-21 -0.000608969 1.66424e-19 -2.15707e-05)
(0.000537401 0.000247576 5.48273e-21 -0.000528277 3.41351e-20 -9.12405e-06)
(0.000399282 0.000354239 4.46282e-20 -0.000399445 -1.70628e-19 1.62945e-07)
(0.000247844 0.000403114 5.30223e-20 -0.000253214 -2.31864e-19 5.37025e-06)
(0.000118771 0.000401563 -3.33896e-19 -0.000128932 1.68012e-20 1.01614e-05)
(9.52034e-06 0.000368281 3.49608e-20 -1.91331e-05 1.99865e-19 9.61273e-06)
(-7.82076e-05 0.000307269 -7.76346e-21 7.45671e-05 -1.11894e-19 3.64041e-06)
(-0.000127805 0.000234793 -7.36516e-20 0.000132029 -7.18689e-20 -4.22484e-06)
(-0.000144011 0.000170118 -5.734e-20 0.000154526 -7.45156e-20 -1.05154e-05)
(-0.000140534 0.000119692 -9.74321e-21 0.000155067 1.83855e-20 -1.4533e-05)
(-0.000127054 8.33681e-05 3.55251e-20 0.00014385 9.20663e-20 -1.67956e-05)
(-0.000109813 5.89622e-05 6.33202e-20 0.000127635 2.15307e-20 -1.78219e-05)
(-9.26741e-05 4.31859e-05 -9.34309e-20 0.000110601 -1.57119e-21 -1.79266e-05)
(-7.71478e-05 3.33951e-05 8.59219e-20 9.45421e-05 5.57849e-21 -1.73943e-05)
(-6.3961e-05 2.7466e-05 -1.14669e-20 8.04364e-05 -2.57938e-20 -1.64754e-05)
(-5.30568e-05 2.37213e-05 -3.58876e-20 6.84049e-05 5.01859e-20 -1.53481e-05)
(-4.41874e-05 2.1202e-05 -2.71915e-20 5.83962e-05 2.62187e-20 -1.42088e-05)
(-3.70879e-05 1.93123e-05 -6.51234e-20 5.03048e-05 6.45278e-20 -1.32169e-05)
(-3.19567e-05 1.79442e-05 -8.99205e-20 4.46303e-05 4.24375e-20 -1.26737e-05)
(-2.86816e-05 1.7104e-05 -1.27265e-19 4.15979e-05 1.19424e-20 -1.29163e-05)
(-2.64895e-05 1.71895e-05 5.763e-20 4.05509e-05 3.48342e-21 -1.40614e-05)
(-2.46045e-05 1.92878e-05 -4.31474e-21 4.02781e-05 4.35508e-21 -1.56736e-05)
(-0.00028576 0.000285266 6.52341e-19 0.000498327 1.13673e-19 -0.000212567)
(-0.00153726 0.00188726 3.5128e-18 0.00281758 -2.15046e-19 -0.00128032)
(-0.0102139 0.0152002 1.23633e-18 0.0193364 -2.22642e-19 -0.00912247)
(-0.0285877 0.0537087 -7.92194e-19 0.0548692 8.71883e-21 -0.0262815)
(-0.047092 0.114704 5.41784e-17 0.0894729 3.66957e-18 -0.0423809)
(-0.0597905 0.185604 4.2599e-16 0.108651 4.21307e-18 -0.0488608)
(-0.0678084 0.251498 2.51636e-16 0.11397 1.53164e-17 -0.0461616)
(-0.0752149 0.306021 1.83073e-15 0.11482 1.16141e-16 -0.0396049)
(-0.0846845 0.351529 2.63147e-15 0.117925 1.00643e-16 -0.033241)
(-0.097379 0.391715 -5.95309e-16 0.125806 -7.02925e-17 -0.0284273)
(-0.11216 0.43174 -5.07293e-16 0.13779 -7.67584e-17 -0.0256298)
(-0.133051 0.472 -1.26895e-15 0.156286 -4.72902e-16 -0.0232348)
(-0.151661 0.570261 -2.58833e-15 0.179363 -3.50125e-17 -0.0277019)
(-0.213756 0.802088 -2.08311e-15 0.202128 1.32443e-15 0.0116274)
(0.000338752 -0.000294318 1.95245e-21 -0.000362257 3.06451e-21 2.35056e-05)
(0.000266939 -0.000354219 -2.78796e-20 -0.00029565 -6.29584e-20 2.87115e-05)
(0.000173158 -0.000397127 -5.56422e-21 -0.000206917 -4.16076e-21 3.37594e-05)
(6.78409e-05 -0.000412623 2.37108e-20 -0.000108952 4.76328e-20 4.1111e-05)
(-3.60395e-05 -0.000402616 -7.08094e-20 -1.09571e-05 -1.39467e-19 4.69967e-05)
(-0.000134629 -0.000365766 -7.97094e-20 8.17225e-05 -1.29346e-19 5.29061e-05)
(-0.00021794 -0.000305697 -1.62812e-19 0.000158531 -2.37505e-19 5.94095e-05)
(-0.000279069 -0.000231604 -1.23648e-20 0.000214331 -2.35548e-21 6.47386e-05)
(-0.000317642 -0.000149557 -7.40276e-20 0.000248264 -1.6804e-19 6.93776e-05)
(-0.000333931 -6.79942e-05 2.98544e-19 0.000260405 3.36004e-19 7.35262e-05)
(-0.000331252 7.35055e-06 -4.75822e-20 0.000254849 6.58569e-20 7.64039e-05)
(-0.000313761 7.35109e-05 3.51219e-20 0.000235468 2.04138e-20 7.82929e-05)
(-0.000289291 0.000127864 -2.27941e-19 0.000211167 -2.87865e-19 7.81245e-05)
(-0.000261714 0.000171596 1.45606e-19 0.000185721 -1.32962e-20 7.59921e-05)
(-0.000235427 0.000206969 4.23314e-20 0.00016259 1.32146e-19 7.28364e-05)
(-0.000206859 0.000228457 5.32148e-20 0.000140117 2.47854e-20 6.67414e-05)
(-0.000168872 0.00022644 -2.45029e-19 0.000113115 -1.42276e-19 5.57574e-05)
(-0.000135964 0.000215582 2.04097e-19 9.11589e-05 1.53457e-19 4.4805e-05)
(-9.78777e-05 0.000179892 5.31246e-20 6.66421e-05 -3.56144e-22 3.12356e-05)
(-0.000644387 0.00134024 -1.65818e-18 0.000453499 -2.39662e-19 0.000190889)
(-0.00124048 0.00287656 3.92319e-18 0.000914417 -1.59783e-18 0.000326066)
(-0.000913343 0.0023659 8.49201e-20 0.000713285 1.66959e-18 0.000200058)
(-0.0020878 0.00660649 3.75971e-18 0.0017439 -5.82666e-18 0.0003439)
(0.000210515 -0.000188656 -1.75686e-18 -0.000157338 -1.8969e-18 -5.31771e-05)
(0.00450907 -0.0155075 3.46406e-18 -0.003758 1.00076e-17 -0.000751072)
(0.0118415 -0.0593602 -1.54989e-17 -0.00999786 3.14037e-18 -0.00184363)
(0.0216447 -0.170508 8.13044e-18 -0.0183696 4.39088e-19 -0.00327511)
(0.0299865 -0.438879 -6.47744e-18 -0.025099 4.21917e-17 -0.00488754)
(0.0193764 -0.994555 -2.73021e-16 -0.0135051 1.43898e-16 -0.00587134)
(-0.0465139 -1.88029 1.20603e-16 0.0513145 2.265e-16 -0.00480057)
(-0.19996 -2.91794 1.16136e-15 0.200447 -4.14056e-16 -0.000487003)
(-0.420684 -3.71853 -2.12614e-15 0.414366 1.69989e-15 0.0063174)
(-0.624706 -3.98743 5.21054e-16 0.613287 7.49281e-15 0.0114191)
(-0.739367 -3.78315 -7.40537e-17 0.729172 -5.27487e-15 0.0101953)
(-0.762768 -3.36279 2.67663e-15 0.75772 -2.10143e-15 0.0050479)
(-0.715268 -2.90791 -1.27959e-14 0.715819 5.8891e-16 -0.000551409)
(-0.658932 -2.53898 4.47035e-15 0.658156 -1.54163e-15 0.000775917)
(-0.456059 -2.16766 4.71805e-15 0.46736 -1.45321e-15 -0.0113005)
(-0.709108 -2.43608 -9.9578e-15 0.694263 2.91106e-15 0.0148449)
(0.000396577 -0.000218419 -4.00994e-21 -0.000417825 -7.59145e-21 2.12479e-05)
(0.000433434 -0.000136816 -1.35714e-20 -0.000450118 -1.43132e-20 1.66837e-05)
(0.000453974 -3.73233e-05 6.1067e-20 -0.000466651 1.17098e-19 1.26778e-05)
(0.00044542 6.79456e-05 1.0508e-20 -0.00045315 -2.26294e-20 7.73022e-06)
(0.000403092 0.000170745 7.32558e-21 -0.000407238 -8.72252e-20 4.14545e-06)
(0.000326152 0.000253716 -2.77861e-20 -0.000327162 7.44546e-20 1.00998e-06)
(0.000227651 0.000303107 4.04745e-20 -0.000227448 1.53665e-19 -2.03095e-07)
(0.000127274 0.000317322 1.67888e-19 -0.000128345 1.58978e-19 1.07117e-06)
(3.6131e-05 0.000304717 6.23976e-20 -3.72454e-05 -1.24846e-19 1.11442e-06)
(-3.71001e-05 0.000266098 1.02966e-19 3.60817e-05 6.77e-20 1.01841e-06)
(-8.31527e-05 0.000212816 -8.31336e-20 8.13817e-05 2.24976e-20 1.77098e-06)
(-0.000104558 0.000159187 -9.4203e-21 0.000101357 6.53935e-20 3.20093e-06)
(-0.000109168 0.000112485 1.20473e-20 0.000104248 -6.23246e-20 4.91977e-06)
(-0.000103492 7.49967e-05 1.17555e-19 9.67844e-05 -7.84853e-20 6.70711e-06)
(-9.2695e-05 4.7024e-05 5.52151e-21 8.45564e-05 -1.07529e-20 8.13868e-06)
(-8.02942e-05 2.69578e-05 -1.20847e-20 7.09832e-05 4.85525e-20 9.31104e-06)
(-6.83752e-05 1.3126e-05 8.62787e-20 5.82404e-05 -9.17193e-20 1.01348e-05)
(-5.79263e-05 3.67923e-06 1.27318e-20 4.72174e-05 1.06294e-20 1.07089e-05)
(-4.93661e-05 -2.87682e-06 9.70483e-20 3.83672e-05 -8.38681e-21 1.09988e-05)
(-4.23937e-05 -7.79635e-06 1.03089e-19 3.1199e-05 1.85772e-20 1.11947e-05)
(-3.6696e-05 -1.18061e-05 2.6347e-19 2.54162e-05 -3.60164e-20 1.12798e-05)
(-3.16987e-05 -1.56205e-05 3.37572e-19 2.02783e-05 -5.12823e-20 1.14203e-05)
(-2.66426e-05 -1.96643e-05 1.98195e-19 1.49714e-05 1.19965e-20 1.16712e-05)
(-2.00416e-05 -2.34768e-05 4.5113e-20 7.60752e-06 -8.33509e-21 1.24341e-05)
(-1.19062e-05 -2.54613e-05 -4.9159e-20 -1.8262e-06 2.04752e-20 1.37324e-05)
(-3.79354e-06 -2.45397e-05 1.84492e-19 -1.09822e-05 -2.54115e-20 1.47757e-05)
(3.10854e-06 -2.25485e-05 -4.97437e-20 -1.93238e-05 -2.60511e-21 1.62153e-05)
(5.93428e-06 -1.3534e-05 -3.11608e-20 -1.81885e-05 5.17643e-22 1.22542e-05)
(8.21102e-05 -9.89908e-05 3.94714e-20 -0.000205426 -4.17487e-22 0.000123316)
(0.000574284 -0.000276566 -1.72084e-18 -0.00131293 -2.65857e-20 0.000738648)
(0.00161381 0.000696203 -9.86863e-18 -0.00356113 4.76181e-19 0.00194732)
(0.00242918 0.00572616 -6.04081e-17 -0.00548433 -3.37186e-18 0.00305515)
(0.00175843 0.0177957 -1.45377e-16 -0.00502515 -3.45508e-19 0.00326672)
(-0.00114854 0.0383476 -3.56954e-16 -0.00138661 -1.7528e-17 0.00253515)
(-0.00644819 0.0667301 -8.99121e-16 0.00503158 -9.82419e-17 0.0014166)
(-0.0126661 0.100403 2.24511e-16 0.0123142 -5.53827e-18 0.000351928)
(-0.0208439 0.136103 -1.20978e-15 0.0209209 1.5984e-16 -7.70276e-05)
(-0.0106033 0.162319 3.05849e-15 0.0115108 5.45838e-16 -0.000907509)
(-0.0407278 0.276448 4.78458e-15 0.0325177 9.74836e-16 0.0082101)
(0.000303873 -0.000242716 9.25535e-21 -0.000295834 1.52335e-20 -8.03898e-06)
(0.00025908 -0.000290847 -1.25984e-20 -0.000250105 -2.25562e-20 -8.97597e-06)
(0.000198202 -0.000332815 -5.80407e-21 -0.000186527 -4.50478e-21 -1.16756e-05)
(0.000129482 -0.000360664 6.90906e-20 -0.00011532 1.00207e-19 -1.41625e-05)
(5.79975e-05 -0.000370675 4.50592e-20 -4.1007e-05 7.94942e-20 -1.69904e-05)
(-1.37518e-05 -0.000362915 5.81755e-20 3.40703e-05 1.06413e-19 -2.03185e-05)
(-7.84119e-05 -0.000339072 8.69021e-20 0.000102142 9.94436e-20 -2.37305e-05)
(-0.000131119 -0.000302064 -4.89109e-20 0.000158282 -7.50729e-20 -2.71637e-05)
(-0.000170313 -0.000256358 -1.7752e-19 0.000201184 -1.74452e-19 -3.08719e-05)
(-0.000194568 -0.00020722 2.27952e-19 0.000228794 1.28771e-19 -3.4226e-05)
(-0.000205122 -0.000158582 1.93369e-19 0.00024257 1.63067e-19 -3.74483e-05)
(-0.000204172 -0.000113642 2.50759e-19 0.000244469 1.20383e-19 -4.02968e-05)
(-0.000193976 -7.45193e-05 -4.10658e-19 0.000236469 -1.32244e-19 -4.2493e-05)
(-0.000177354 -4.18473e-05 -3.51855e-19 0.000220905 -2.35084e-19 -4.35506e-05)
(-0.000156399 -1.63603e-05 4.64059e-19 0.000200261 1.45744e-19 -4.38617e-05)
(-0.000132764 4.69384e-06 9.44449e-20 0.000175184 5.74834e-20 -4.24195e-05)
(-0.000107826 2.24447e-05 -7.02799e-20 0.000147053 7.37268e-21 -3.92272e-05)
(-8.4662e-05 3.72223e-05 -2.29359e-19 0.00011967 -1.50288e-19 -3.5008e-05)
(-6.18308e-05 4.85198e-05 5.45353e-20 9.00129e-05 -2.08834e-20 -2.81822e-05)
(-4.23187e-05 5.43603e-05 2.19972e-19 6.21584e-05 6.80244e-20 -1.98397e-05)
(-2.98157e-05 5.75583e-05 -2.62805e-19 4.23713e-05 -7.55717e-20 -1.25556e-05)
(-5.68732e-05 0.000148999 2.76268e-19 7.58133e-05 3.75038e-20 -1.894e-05)
(-2.6842e-05 9.48195e-05 -4.26742e-20 3.40219e-05 -9.33973e-21 -7.1799e-06)
(-0.000121338 0.000671215 -5.5487e-19 0.000155593 2.8272e-19 -3.42543e-05)
(-0.000327235 0.00444159 2.37131e-18 0.000513819 -7.7854e-19 -0.000186583)
(0.000226217 0.00841734 -4.06966e-18 0.000103914 5.55438e-18 -0.000330131)
(0.00174463 0.0149815 1.15863e-19 -0.00117987 -1.8994e-19 -0.000564762)
(0.00222287 0.0101082 4.12447e-18 -0.00183241 -1.49594e-18 -0.000390464)
(0.0032611 0.00619622 4.6578e-18 -0.00288344 1.09227e-17 -0.000377663)
(0.00625266 -0.00946946 9.76052e-18 -0.00566048 -5.38123e-17 -0.000592179)
(0.00994092 -0.110922 -3.48235e-17 -0.00875468 -1.96299e-16 -0.00118623)
(-0.0101434 -0.447006 1.19001e-15 0.011808 3.13735e-16 -0.0016646)
(-0.094731 -1.09442 1.96334e-15 0.0960638 4.54179e-16 -0.00133287)
(-0.256386 -1.87644 -1.26798e-15 0.255894 -1.67094e-15 0.000491234)
(-0.439662 -2.45654 -5.66063e-15 0.436381 1.17393e-15 0.00328155)
(-0.557071 -2.66635 3.98649e-15 0.554241 4.05198e-15 0.00283068)
(-0.606512 -2.64038 -8.59043e-15 0.602251 -1.31729e-16 0.004261)
(-0.46539 -2.42521 -1.13836e-14 0.472389 1.6599e-15 -0.0069985)
(-0.653297 -2.64302 8.4828e-15 0.628887 -3.32782e-15 0.02441)
(0.000337565 -0.000183233 -1.45902e-20 -0.000332416 -2.84834e-20 -5.14825e-06)
(0.000358024 -0.000120751 -5.76896e-21 -0.00035364 2.29424e-20 -4.38423e-06)
(0.000364582 -4.41468e-05 4.79864e-20 -0.000362832 8.54814e-20 -1.75045e-06)
(0.000353346 3.62573e-05 -2.31695e-20 -0.000352784 1.60087e-21 -5.62306e-07)
(0.000320209 0.0001141 1.73941e-20 -0.000320624 1.10051e-19 4.15272e-07)
(0.000265395 0.000179712 5.80836e-20 -0.000265465 -2.42383e-20 7.00045e-08)
(0.00019595 0.000224477 5.78097e-20 -0.000195826 -1.85645e-21 -1.24027e-07)
(0.000122356 0.000245356 -1.43677e-19 -0.00012267 -8.51126e-20 3.13985e-07)
(5.16211e-05 0.000243216 -7.34402e-20 -5.24236e-05 6.98109e-21 8.02527e-07)
(-8.57322e-06 0.000220664 1.37649e-19 7.53647e-06 5.06925e-20 1.03675e-06)
(-5.15003e-05 0.000185756 5.92845e-20 5.06884e-05 -5.60098e-21 8.11867e-07)
(-7.71284e-05 0.000147671 7.36639e-20 7.69352e-05 -4.43528e-20 1.93218e-07)
(-8.90618e-05 0.000112161 -1.20896e-19 8.97062e-05 -6.526e-20 -6.44466e-07)
(-9.13982e-05 8.19333e-05 -1.41969e-19 9.29447e-05 2.8777e-20 -1.54659e-06)
(-8.774e-05 5.80837e-05 1.52441e-20 9.02384e-05 3.42622e-20 -2.4984e-06)
(-8.10524e-05 4.0111e-05 4.28547e-20 8.44008e-05 -1.26647e-20 -3.3484e-06)
(-7.33416e-05 2.70872e-05 -1.10506e-19 7.74397e-05 -5.06383e-21 -4.09812e-06)
(-6.57915e-05 1.78012e-05 -2.57907e-21 7.04942e-05 -1.6083e-20 -4.70263e-06)
(-5.90421e-05 1.10944e-05 -4.1278e-20 6.42321e-05 -6.61632e-21 -5.18993e-06)
(-5.31863e-05 5.92221e-06 8.92278e-20 5.86983e-05 -4.7458e-20 -5.51204e-06)
(-4.81504e-05 1.62242e-06 -9.79799e-20 5.39053e-05 -2.7725e-20 -5.75488e-06)
(-4.36392e-05 -2.36761e-06 -1.98991e-19 4.95645e-05 -1.74807e-20 -5.92528e-06)
(-3.91713e-05 -6.37536e-06 1.11619e-20 4.52463e-05 -2.67056e-20 -6.07504e-06)
(-3.40221e-05 -1.01309e-05 5.23878e-20 4.01879e-05 -2.58543e-20 -6.16583e-06)
(-2.84064e-05 -1.24644e-05 1.54758e-19 3.48332e-05 -1.10621e-20 -6.42677e-06)
(-2.34826e-05 -1.31401e-05 -1.46202e-19 3.05104e-05 -4.54323e-21 -7.02788e-06)
(-1.95973e-05 -1.29277e-05 -2.45261e-20 2.73025e-05 5.8382e-21 -7.70519e-06)
(-1.66683e-05 -1.24129e-05 1.51542e-20 2.50359e-05 5.43668e-22 -8.36756e-06)
(-1.3553e-05 -1.12355e-05 -6.92831e-21 2.19443e-05 -1.28034e-22 -8.39135e-06)
(-1.14416e-05 -1.062e-05 -1.06549e-20 1.9912e-05 -6.73396e-22 -8.47041e-06)
(-6.30938e-06 -6.8579e-06 -1.38116e-20 1.18136e-05 -1.7332e-21 -5.50423e-06)
(-3.92775e-06 -5.31695e-06 4.54984e-20 8.14878e-06 1.59338e-21 -4.22103e-06)
(-3.21986e-05 -5.97381e-05 2.36214e-18 8.50382e-05 2.07041e-19 -5.28396e-05)
(9.30606e-06 -1.56901e-05 2.15063e-17 0.000106651 1.78142e-18 -0.000115957)
(0.000274819 0.000783922 8.71883e-17 -0.000183608 9.8172e-18 -9.12104e-05)
(0.000958308 0.00392705 -1.89428e-16 -0.00105566 -2.74553e-17 9.73492e-05)
(0.00161898 0.0126379 7.97624e-16 -0.00217692 1.166e-16 0.00055794)
(0.00701944 0.0305881 -5.19709e-16 -0.00758351 -1.70375e-16 0.000564072)
(-0.00364148 0.111777 -3.54209e-16 -0.00136546 -1.41168e-15 0.00500693)
(0.000223712 -0.000184711 -1.35572e-20 -0.000226196 -1.90938e-20 2.48464e-06)
(0.000187134 -0.000220489 2.51305e-21 -0.000190846 3.55061e-21 3.71213e-06)
(0.000139427 -0.000250836 1.62449e-20 -0.00014357 1.78905e-20 4.14322e-06)
(8.48047e-05 -0.000269914 -9.8293e-20 -9.01366e-05 -1.33981e-19 5.33188e-06)
(2.72928e-05 -0.000275608 -7.20212e-20 -3.39301e-05 -8.3734e-20 6.63728e-06)
(-3.0912e-05 -0.000267257 1.66722e-19 2.30718e-05 1.95492e-19 7.84024e-06)
(-8.45994e-05 -0.000245398 -1.76084e-19 7.51402e-05 -2.14231e-19 9.45917e-06)
(-0.00012988 -0.000212098 -7.87016e-20 0.000118672 -5.33769e-20 1.12079e-05)
(-0.000164494 -0.000170242 -1.88856e-19 0.000151537 -1.40642e-19 1.29572e-05)
(-0.000187023 -0.000123891 -3.58783e-20 0.000172068 -6.36369e-20 1.49559e-05)
(-0.000197515 -7.64583e-05 2.38377e-20 0.000180569 -8.18672e-21 1.69458e-05)
(-0.000197034 -3.09845e-05 -1.30956e-19 0.000178061 -1.70464e-19 1.89732e-05)
(-0.00018737 1.00594e-05 4.21869e-19 0.000166374 2.87228e-19 2.09952e-05)
(-0.000170799 4.50185e-05 -1.38147e-19 0.000147986 -2.38282e-20 2.28126e-05)
(-0.000149538 7.34313e-05 -3.40435e-19 0.000125167 -1.48504e-19 2.43712e-05)
(-0.00012604 9.49688e-05 2.2536e-19 0.000100719 4.30053e-21 2.53212e-05)
(-0.000102027 0.000108488 -1.63929e-19 7.72682e-05 -9.42175e-20 2.47586e-05)
(-7.83411e-05 0.000114705 1.9499e-21 5.51883e-05 1.20636e-19 2.31528e-05)
(-5.58613e-05 0.000114691 -3.95907e-20 3.50825e-05 -3.10173e-20 2.07788e-05)
(-3.60389e-05 0.000110723 -2.83128e-19 1.79681e-05 -1.96198e-19 1.80708e-05)
(-1.73454e-05 9.20716e-05 1.94628e-19 4.11761e-06 1.90937e-19 1.32278e-05)
(-5.15168e-06 6.4112e-05 3.94318e-21 -2.49725e-06 -1.12023e-19 7.64893e-06)
(-1.58262e-07 5.90715e-05 3.806e-20 -5.26595e-06 1.17292e-20 5.42421e-06)
(4.01615e-06 6.34862e-05 1.0822e-19 -8.41497e-06 -5.07792e-21 4.39882e-06)
(8.79541e-06 6.7495e-05 -3.65519e-20 -1.24225e-05 -1.20525e-20 3.62704e-06)
(1.28238e-05 6.90261e-05 1.22976e-19 -1.56453e-05 2.01588e-20 2.8215e-06)
(1.5006e-05 6.96729e-05 -6.99409e-21 -1.70261e-05 1.88951e-22 2.02008e-06)
(0.00065028 0.00289355 -5.53953e-19 -0.000704393 -3.59024e-19 5.41126e-05)
(0.000965455 0.00414695 -3.45438e-20 -0.00100889 1.24958e-18 4.34399e-05)
(0.00239288 0.0094391 -2.84452e-17 -0.00243172 2.34313e-18 3.88419e-05)
(0.00245646 0.00822355 -8.60288e-18 -0.00245273 1.50799e-18 -3.72717e-06)
(0.00576256 0.0138467 1.14894e-17 -0.00570672 -7.24104e-17 -5.58358e-05)
(0.0145054 0.0081221 2.23126e-16 -0.0142824 -2.94148e-16 -0.000222912)
(0.0161815 -0.121224 -1.46475e-15 -0.0154556 7.16791e-17 -0.000725905)
(-0.0387268 -0.549851 2.90738e-15 0.0400227 1.1698e-15 -0.00129586)
(-0.174656 -1.23564 -6.39779e-16 0.176194 3.29777e-16 -0.00153822)
(-0.34672 -1.88874 -1.17275e-15 0.344876 3.22386e-15 0.00184338)
(-0.373675 -2.24886 6.439e-16 0.381366 2.27059e-16 -0.00769153)
(-0.586402 -2.65081 -1.49345e-14 0.554826 3.92979e-15 0.0315761)
(0.000252166 -0.000141469 8.80644e-21 -0.000254814 2.51884e-21 2.64858e-06)
(0.000271305 -9.54815e-05 -3.17315e-20 -0.000272705 -4.22162e-20 1.40076e-06)
(0.00028077 -3.93501e-05 2.77867e-21 -0.000282168 1.99228e-20 1.39828e-06)
(0.000276513 2.08247e-05 1.88075e-20 -0.000277242 -6.08388e-20 7.29533e-07)
(0.000255573 8.02963e-05 -1.44446e-19 -0.000256012 -1.94396e-19 4.39195e-07)
(0.000218007 0.000132214 -1.47551e-19 -0.000217762 8.3319e-20 -2.44971e-07)
(0.000168152 0.000170612 2.01946e-19 -0.000167828 9.58058e-20 -3.23785e-07)
(0.000112859 0.000192219 -6.79047e-20 -0.000112842 -1.77734e-19 -1.68263e-08)
(5.77944e-05 0.000196473 -8.38432e-20 -5.79591e-05 2.40208e-20 1.64747e-07)
(8.82717e-06 0.000184832 -5.63105e-20 -9.09668e-06 -9.84109e-20 2.69517e-07)
(-2.88632e-05 0.000162139 1.82306e-20 2.85842e-05 3.13714e-20 2.79048e-07)
(-5.39937e-05 0.000134384 -4.06904e-20 5.3698e-05 -4.74054e-20 2.95735e-07)
(-6.8056e-05 0.000106196 -8.47487e-20 6.7656e-05 1.05508e-19 3.99923e-07)
(-7.35245e-05 8.0378e-05 9.12489e-20 7.29276e-05 4.43242e-20 5.96905e-07)
(-7.29437e-05 5.85207e-05 7.37886e-20 7.20945e-05 -3.2934e-20 8.49147e-07)
(-6.87416e-05 4.09744e-05 -1.51787e-20 6.75773e-05 -2.80755e-20 1.16423e-06)
(-6.27506e-05 2.74407e-05 4.39385e-20 6.1243e-05 8.14444e-21 1.50763e-06)
(-5.62535e-05 1.72089e-05 -6.67919e-20 5.43992e-05 1.68613e-20 1.85424e-06)
(-5.00183e-05 9.4889e-06 4.72877e-20 4.78493e-05 -2.04961e-21 2.16906e-06)
(-4.43515e-05 3.48236e-06 -6.11516e-20 4.18959e-05 -2.5061e-20 2.45552e-06)
(-3.92933e-05 -1.42745e-06 6.03682e-20 3.66075e-05 3.26864e-21 2.68584e-06)
(-3.46379e-05 -5.73764e-06 7.87485e-20 3.17618e-05 1.4291e-20 2.87615e-06)
(-2.99938e-05 -9.72583e-06 -6.87748e-21 2.69714e-05 6.78053e-21 3.02241e-06)
(-2.47445e-05 -1.32177e-05 -1.49219e-19 2.15263e-05 1.95266e-21 3.21815e-06)
(-1.8902e-05 -1.54002e-05 -5.44664e-20 1.54548e-05 -1.92679e-20 3.44722e-06)
(-1.33214e-05 -1.60137e-05 -1.62419e-20 9.68995e-06 2.03508e-20 3.63142e-06)
(-8.44925e-06 -1.56689e-05 6.04494e-20 4.50985e-06 1.31531e-22 3.93941e-06)
(-4.24269e-06 -1.4753e-05 1.97705e-21 -1.2291e-07 -2.60391e-22 4.3656e-06)
(-6.86392e-07 -1.36721e-05 -3.32565e-21 -4.18002e-06 1.09119e-22 4.86641e-06)
(2.10498e-06 -1.16173e-05 3.78877e-20 -7.02868e-06 6.68056e-22 4.92371e-06)
(5.08247e-06 -1.28867e-05 3.49587e-20 -1.12406e-05 1.24235e-21 6.15814e-06)
(3.30229e-06 -5.87315e-06 -8.82471e-20 -6.15764e-06 -5.58435e-21 2.85534e-06)
(1.57448e-05 -2.30379e-05 -9.85912e-19 -2.60068e-05 -7.37816e-20 1.0262e-05)
(0.000100331 -0.000128752 -1.21244e-18 -0.000147572 -3.85891e-20 4.72415e-05)
(3.65283e-05 -4.09904e-05 3.01549e-19 -4.78524e-05 3.80372e-20 1.13241e-05)
(0.000130954 -0.000109872 -2.05547e-18 -0.000150697 5.26203e-19 1.97432e-05)
(0.000409503 -0.000150367 -2.03272e-17 -0.000439423 -1.46714e-17 2.99202e-05)
(0.00109861 0.000261003 6.58032e-17 -0.00106882 5.03862e-18 -2.97881e-05)
(0.00399443 0.0214305 -3.09329e-16 -0.00545855 5.10162e-17 0.00146412)
(0.00018383 -0.000151385 1.19814e-20 -0.000182933 1.32568e-20 -8.96797e-07)
(0.000156919 -0.000180262 -2.97329e-20 -0.000156136 -3.40283e-20 -7.83205e-07)
(0.000121147 -0.000205895 -2.18327e-21 -0.00011983 -5.15079e-21 -1.31668e-06)
(7.99569e-05 -0.000223999 -1.16275e-20 -7.83591e-05 -7.21865e-21 -1.59785e-06)
(3.60824e-05 -0.000232548 9.68847e-20 -3.4162e-05 1.08947e-19 -1.9204e-06)
(-9.45717e-06 -0.00023109 7.37924e-20 1.2017e-05 6.12411e-20 -2.55979e-06)
(-5.27193e-05 -0.000219585 1.78535e-21 5.58687e-05 2.86487e-20 -3.14944e-06)
(-9.07762e-05 -0.000199058 1.84481e-19 9.46341e-05 1.76151e-19 -3.85796e-06)
(-0.000121892 -0.000171283 -2.22366e-20 0.000126673 -2.53275e-21 -4.7814e-06)