/*--------------------------------*- C++ -*----------------------------------*\
| =========                 |                                                 |
| \\      /  F ield         | OpenFOAM: The Open Source CFD Toolbox           |
|  \\    /   O peration     | Version:  2306                                  |
|   \\  /    A nd           | Website:  www.openfoam.com                      |
|    \\/     M anipulation  |                                                 |
\*---------------------------------------------------------------------------*/
FoamFile
{
    version     2.0;
    format      ascii;
    arch        "LSB;label=32;scalar=64";
    class       volSymmTensorField;
    location    "150";
    object      turbulenceProperties:R;
}
// * * * * * * * * * * * * * * * * * * * * * * * * * * * * * * * * * * * * * //

dimensions      [0 2 -2 0 0 0 0];

internalField   nonuniform List<symmTensor> 
10720
(
(0.013301 0.0027072 -1.02638e-21 0.0110205 -1.46363e-20 0.012291)
(0.015869 0.00322317 2.90621e-21 0.0125273 9.53218e-20 0.0142952)
(0.0193665 0.0037528 -2.49756e-20 0.01413 -3.01473e-19 0.0169526)
(0.0241372 0.00444159 9.18141e-20 0.0163023 6.29509e-19 0.0204852)
(0.0300307 0.00509973 -1.68819e-19 0.0186207 -6.15828e-19 0.0246275)
(0.0377561 0.00557754 -1.38613e-19 0.0212292 -3.5425e-19 0.0299483)
(0.0477791 0.00584395 2.73402e-19 0.0244023 1.00157e-18 0.0366756)
(0.0603302 0.00557979 -6.99441e-19 0.0281573 -1.85628e-18 0.0449649)
(0.0761977 0.00443474 -1.74264e-19 0.0328939 4.93662e-19 0.0554931)
(0.0961761 0.00215383 5.40566e-19 0.0392419 1.08596e-18 0.0688735)
(0.121263 -0.0017802 1.3882e-18 0.0479536 5.16825e-19 0.0860482)
(0.153843 -0.00792446 -3.16344e-18 0.0604692 -2.91699e-18 0.108931)
(0.196383 -0.0171124 6.00064e-19 0.0784509 7.80324e-19 0.139582)
(0.253338 -0.0308166 2.44709e-18 0.104683 1.16482e-18 0.181695)
(0.331961 -0.0514574 -3.75221e-18 0.143789 -5.78264e-18 0.241278)
(0.444963 -0.0831776 -4.07158e-18 0.203897 -2.32485e-18 0.328835)
(0.610798 -0.133014 1.72838e-17 0.298158 1.59383e-17 0.460448)
(0.871238 -0.215267 1.73822e-17 0.454868 3.01816e-17 0.671322)
(1.27547 -0.350979 -3.16759e-17 0.71437 -4.73414e-17 1.00681)
(2.00662 -0.60507 -2.6154e-18 1.20645 1.31638e-17 1.62428)
(3.18691 -1.04034 -2.43728e-17 2.05763 4.13361e-17 2.64869)
(5.8653 -2.05122 5.23424e-18 4.06453 3.1702e-17 5.00701)
(10.6539 -3.97288 -1.24517e-16 7.95276 -3.70518e-16 9.37144)
(24.3503 -9.66636 2.47273e-16 19.7301 3.84127e-16 22.1837)
(31.8871 -13.3881 2.74489e-17 28.1204 -6.0336e-16 30.1295)
(31.5153 -13.806 4.26946e-16 29.9243 4.88827e-16 30.7531)
(29.8456 -13.4592 -6.50131e-17 29.9844 -7.3611e-17 29.8991)
(28.915 -13.3117 2.6993e-16 30.3481 2.09803e-16 29.6103)
(28.3655 -13.2741 7.81593e-16 30.9093 1.11662e-15 29.6244)
(27.6044 -13.0977 5.1978e-16 31.1375 1.86091e-15 29.3666)
(26.4208 -12.6861 -1.49154e-15 30.787 -1.80518e-15 28.6096)
(24.8656 -12.0618 -5.49621e-16 29.8754 -6.76687e-16 27.3867)
(23.0119 -11.2601 1.29634e-16 28.4614 -4.4009e-15 25.7606)
(20.9048 -10.3038 -2.67749e-15 26.5741 -6.86153e-15 23.7655)
(18.5174 -9.18184 9.74434e-16 24.1533 8.74961e-16 21.3597)
(15.8804 -7.91138 1.33392e-15 21.2089 1.16134e-15 18.5639)
(12.6301 -6.31701 -1.25256e-16 17.2508 -5.39171e-16 14.9609)
(9.42353 -4.72093 -1.7256e-15 13.0474 1.18272e-18 11.2405)
(3.18421 -1.60372 -2.81358e-16 4.78808 -3.07365e-15 3.9814)
(0.0110362 0.00226943 2.70797e-21 0.0097171 3.41302e-20 0.0104241)
(0.00928575 0.00187054 -2.98606e-21 0.00849147 -2.63132e-21 0.00896665)
(0.00740353 0.00144905 -1.8492e-20 0.00708495 -7.41575e-20 0.00728245)
(0.00584201 0.00109045 1.02387e-20 0.00580276 4.63829e-20 0.0058488)
(0.00444545 0.00077413 2.57035e-22 0.00452079 -3.62065e-21 0.00449571)
(0.00324948 0.00051813 -2.37328e-20 0.00331818 6.99636e-20 0.00327924)
(0.00235888 0.000338975 -8.70046e-20 0.00235786 7.07221e-20 0.00233678)
(0.00194403 0.000248256 6.09605e-20 0.00184207 -2.67129e-20 0.00187021)
(0.00234557 0.000292582 1.08613e-19 0.0020487 -5.69518e-20 0.00218391)
(0.00340215 0.00042713 -7.24501e-20 0.00275568 1.49619e-20 0.00307893)
(0.00518614 0.000708768 -2.57549e-20 0.00394203 1.10034e-19 0.00457469)
(0.00789614 0.00125545 1.85847e-19 0.00566878 6.40621e-20 0.00680414)
(0.0118592 0.00225648 3.72685e-19 0.00809298 -6.06783e-20 0.0100184)
(0.0175231 0.0039636 -2.36534e-20 0.0114908 -2.12277e-19 0.0145829)
(0.0254174 0.00662608 -4.32746e-20 0.0162867 -1.59925e-19 0.0209658)
(0.0363495 0.0105484 6.07576e-20 0.0232432 -6.19805e-20 0.0299644)
(0.0518154 0.016207 -2.19678e-19 0.0336077 6.29459e-19 0.0429402)
(0.0746032 0.0246005 7.42136e-19 0.0495802 2.46272e-19 0.0624064)
(0.109963 0.0376909 3.35706e-19 0.0751666 -1.162e-18 0.0929956)
(0.166926 0.0590605 -1.39966e-18 0.117579 -3.02887e-19 0.142885)
(0.264363 0.0961873 -4.72848e-18 0.191969 -1.87053e-18 0.229133)
(0.433435 0.16203 -3.44378e-18 0.32499 -8.30169e-19 0.380821)
(0.757346 0.291022 6.74618e-18 0.587902 -7.15255e-19 0.675572)
(1.35717 0.537323 -8.71429e-18 1.09639 1.35472e-18 1.23279)
(2.6839 1.09535 4.53888e-18 2.26437 -6.37094e-18 2.48729)
(5.33006 2.23688 -1.39503e-16 4.6941 4.96148e-18 5.03937)
(11.8489 5.10045 -8.67436e-17 10.8802 1.02819e-17 11.4296)
(23.0101 10.136 7.13365e-17 22.0107 -6.49247e-19 22.64)
(30.9281 13.913 9.08472e-18 30.8048 9.21042e-20 31.0274)
(33.6875 15.4394 6.27696e-17 34.8879 -4.73491e-18 34.4368)
(33.9689 15.8218 -4.50935e-16 36.4927 -1.74672e-18 35.355)
(33.4999 15.8206 1.6007e-16 37.236 2.4836e-17 35.4697)
(32.7329 15.6421 -1.94799e-15 37.5522 -1.75177e-16 35.2271)
(31.7482 15.3248 -3.55058e-15 37.5073 -1.57055e-16 34.699)
(30.5729 14.8849 1.09604e-15 37.1251 1.29344e-16 33.9103)
(29.2465 14.345 1.05414e-15 36.4552 1.53245e-16 32.9046)
(27.5477 13.6016 1.48825e-15 35.2445 2.61339e-16 31.445)
(25.7109 12.764 -2.97564e-16 33.7025 -3.95051e-17 29.7528)
(20.6574 10.3232 -4.67408e-15 28.1291 -8.05256e-16 24.4027)
(0.00221569 -0.0001484 6.17752e-23 0.00184466 1.23424e-21 0.00200218)
(0.00217624 -0.00017589 9.23664e-21 0.00186837 2.27692e-20 0.0019908)
(0.0021136 -0.000199223 -8.23055e-21 0.00189128 -1.47346e-20 0.00196492)
(0.00201808 -0.000207613 -6.33042e-21 0.00187936 -1.6805e-20 0.00190597)
(0.00189346 -0.000203863 3.8552e-20 0.00183417 7.39877e-20 0.00181737)
(0.00175772 -0.000191436 1.48777e-20 0.00177177 2.31346e-20 0.00171465)
(0.00161197 -0.000171889 6.94161e-20 0.0016814 6.41482e-20 0.00159343)
(0.00145967 -0.000148445 -3.49061e-20 0.00156619 -6.96019e-21 0.00145774)
(0.00131537 -0.000125095 4.98262e-20 0.00144395 3.49056e-20 0.001323)
(0.00117932 -0.000103852 -1.6181e-21 0.00131512 7.7815e-23 0.00118964)
(0.00105707 -8.62455e-05 -6.85794e-20 0.00119045 -5.85352e-20 0.00106554)
(0.000953255 -7.30957e-05 8.81791e-20 0.00107727 1.08966e-19 0.000957093)
(0.000907687 -7.16817e-05 5.68604e-20 0.0010277 2.85643e-20 0.00090451)
(0.000956857 -8.86835e-05 -1.38913e-20 0.00108729 7.0711e-21 0.000940627)
(0.00117344 -0.000148733 -1.01271e-19 0.0013345 1.69138e-20 0.00112142)
(0.00177886 -0.000342858 2.68186e-19 0.00197417 3.03666e-19 0.00160311)
(0.0033487 -0.000929134 5.4385e-19 0.00340421 -6.19542e-19 0.002771)
(0.00725269 -0.0024011 -3.3888e-18 0.00644398 -4.25268e-18 0.00566431)
(0.0166082 -0.00574692 4.83272e-19 0.0132089 5.53042e-18 0.0129083)
(0.042502 -0.0148682 6.05852e-18 0.0318027 -1.74477e-18 0.0337141)
(0.107213 -0.0380223 1.09862e-17 0.0786069 4.63743e-18 0.0874836)
(0.323562 -0.117479 -1.97866e-17 0.23913 -1.61637e-17 0.271919)
(0.828976 -0.311371 5.39935e-17 0.631927 1.08071e-16 0.717945)
(2.62571 -1.02593 2.13744e-19 2.09572 -8.61263e-17 2.34349)
(5.60255 -2.27106 -1.97639e-16 4.69355 9.64896e-17 5.14453)
(8.75962 -3.66693 -9.60935e-17 7.69054 -4.20545e-16 8.25521)
(11.6916 -5.04186 -2.50079e-18 10.7707 5.27064e-17 11.2924)
(13.9527 -6.1839 -2.41321e-16 13.5016 -3.1136e-16 13.8022)
(14.8814 -6.76301 -4.47484e-16 15.1366 -2.15702e-15 15.0792)
(14.1622 -6.58064 -1.79009e-16 15.1332 -2.80169e-15 14.696)
(12.2636 -5.80488 4.80355e-16 13.731 4.07853e-15 13.0126)
(10.0835 -4.84239 -8.47211e-16 11.776 -1.2406e-16 10.9125)
(8.22635 -3.99215 -6.89221e-15 9.95399 1.2332e-15 9.05118)
(6.81048 -3.32907 8.10584e-15 8.46947 1.34872e-14 7.59444)
(5.75974 -2.83029 -1.37128e-15 7.31103 -6.19696e-16 6.49536)
(4.96882 -2.44939 3.25238e-15 6.38809 -4.73728e-15 5.64527)
(4.42019 -2.1861 -1.45441e-15 5.75141 1.43817e-15 5.0637)
(4.04484 -1.98499 3.22799e-15 5.14081 3.68403e-16 4.54615)
(4.29616 -2.15086 5.71628e-15 5.6693 7.87548e-15 5.11055)
(0.00221912 -0.00011032 3.1975e-21 0.00179858 6.92522e-21 0.00198525)
(0.00220409 -7.01301e-05 -4.44053e-21 0.00175263 -3.39915e-20 0.00195637)
(0.00215133 -1.95475e-05 -6.87246e-21 0.00168917 -3.38649e-20 0.00190325)
(0.00205723 3.69718e-05 -2.79842e-21 0.0016141 5.94967e-20 0.0018241)
(0.00191225 8.97981e-05 1.98863e-21 0.00152572 1.23811e-20 0.00171402)
(0.00171215 0.000130306 1.64164e-20 0.00141834 -6.2765e-20 0.00156534)
(0.00148861 0.000150241 1.97615e-20 0.00130186 -8.64161e-20 0.00139824)
(0.00128511 0.000151459 -1.25937e-19 0.00119168 6.33699e-21 0.00124415)
(0.00108911 0.000137614 1.30637e-20 0.00107841 7.46828e-20 0.00108915)
(0.00089935 0.000112796 -2.84991e-21 0.000955433 -4.10754e-20 0.000929396)
(0.000736281 8.42018e-05 -2.64131e-20 0.000829463 -2.57738e-20 0.0007806)
(0.000606031 5.92872e-05 -1.99833e-20 0.000710073 -2.59691e-20 0.000652555)
(0.000501361 4.03227e-05 -3.28235e-21 0.000600944 6.19382e-21 0.000543809)
(0.000415299 2.69838e-05 1.14984e-20 0.000502983 2.97991e-20 0.000450986)
(0.000343922 1.81657e-05 1.95084e-20 0.000417078 6.63341e-21 0.000372264)
(0.000284657 1.25112e-05 -2.70675e-20 0.000343546 -4.55181e-22 0.000306311)
(0.000234785 8.90666e-06 2.29158e-20 0.000280576 1.48781e-21 0.000250722)
(0.000192688 6.53856e-06 -2.72982e-21 0.000227063 -6.14046e-21 0.000203992)
(0.000155604 4.75888e-06 -7.19963e-21 0.000179972 1.00681e-20 0.000163169)
(0.000121298 3.24081e-06 -4.15631e-21 0.000136978 4.00762e-21 0.00012588)
(8.64885e-05 1.81343e-06 -6.11511e-21 9.46947e-05 6.05919e-21 8.873e-05)
(5.1251e-05 6.76091e-07 -3.38798e-21 5.41366e-05 1.59894e-21 5.19776e-05)
(1.8002e-05 8.47019e-08 -6.30239e-22 1.83501e-05 5.91406e-23 1.80801e-05)
(2.55502e-06 1.72066e-09 5.76872e-24 2.56173e-06 3.48688e-25 2.55627e-06)
(2.84866e-05 2.32665e-07 -5.20478e-23 2.92693e-05 5.25344e-23 2.85944e-05)
(0.00103947 0.000262754 6.0086e-19 0.00176168 1.04702e-19 0.00110689)
(0.00607616 0.00186058 3.46314e-18 0.0103694 -2.12006e-19 0.00632947)
(0.0457618 0.0151694 1.23383e-18 0.0752524 -2.22191e-19 0.0468511)
(0.146014 0.0536743 -7.91686e-19 0.229418 8.71325e-21 0.148319)
(0.28138 0.114666 5.41607e-17 0.4179 3.66837e-18 0.28609)
(0.421441 0.185563 4.25897e-16 0.589845 4.21215e-18 0.432368)
(0.545953 0.251453 2.51591e-16 0.7277 1.53137e-17 0.567596)
(0.64889 0.305973 1.83044e-15 0.838894 1.16122e-16 0.684494)
(0.735689 0.351477 2.63108e-15 0.938269 1.00628e-16 0.787125)
(0.812562 0.391658 -5.95223e-16 1.03571 -7.02823e-17 0.881503)
(0.890171 0.431679 -5.07222e-16 1.14009 -7.67476e-17 0.976689)
(0.966598 0.471935 -1.26878e-15 1.2559 -4.72837e-16 1.0764)
(1.17096 0.570186 -2.58799e-15 1.50194 -3.50079e-17 1.2949)
(1.62779 0.801988 -2.08285e-15 2.04362 1.32427e-15 1.85315)
(0.00149023 -0.000113182 7.50829e-22 0.00122066 1.17848e-21 0.001369)
(0.00144945 -0.000136446 -1.07393e-20 0.00123274 -2.42518e-20 0.00135769)
(0.00138071 -0.000153239 -2.14706e-21 0.00123406 -1.60551e-21 0.00132692)
(0.00129116 -0.000159512 9.16613e-21 0.00122281 1.84139e-20 0.00128082)
(0.00119955 -0.00015599 -2.74345e-20 0.00120927 -5.40351e-20 0.00123173)
(0.00110446 -0.000142058 -3.09579e-20 0.00118849 -5.0236e-20 0.0011773)
(0.00101404 -0.000119051 -6.34057e-20 0.00116065 -9.24945e-20 0.00112205)
(0.000937546 -9.04784e-05 -4.83043e-21 0.0011303 -9.20193e-22 0.00107186)
(0.000876733 -5.86375e-05 -2.90243e-20 0.00109861 -6.58843e-20 0.00102847)
(0.000833896 -2.67697e-05 1.17538e-19 0.00106789 1.32286e-19 0.000994314)
(0.000807184 2.90811e-06 -1.8825e-20 0.00103906 2.60551e-20 0.000968466)
(0.000793134 2.92494e-05 1.39747e-20 0.00101167 8.12249e-21 0.000949129)
(0.000794042 5.12298e-05 -9.13268e-20 0.000994555 -1.15336e-19 0.000941251)
(0.000804702 6.9307e-05 5.88097e-20 0.00098542 -5.3703e-21 0.0009411)
(0.000825616 8.46152e-05 1.73064e-20 0.000988338 5.40255e-20 0.000951644)
(0.000825126 9.14802e-05 2.13086e-20 0.000964064 9.92471e-21 0.000934682)
(0.00074929 7.86807e-05 -8.51399e-20 0.000847271 -4.94363e-20 0.000827341)
(0.000647966 6.06417e-05 5.74112e-20 0.000711854 4.31665e-20 0.000698815)
(0.000383918 2.1733e-05 6.41804e-21 0.000403794 -4.30261e-23 0.000399516)
(0.00295025 0.00118502 -1.46614e-18 0.00392099 -2.11906e-19 0.00368879)
(0.00558386 0.00273413 3.72894e-18 0.00763206 -1.51872e-18 0.00707284)
(0.00460541 0.00225194 8.08296e-20 0.00615368 1.58917e-18 0.00566517)
(0.0131144 0.00654154 3.72275e-18 0.0169085 -5.76937e-18 0.0155222)
(0.000804718 -0.000184164 -1.71503e-18 0.000445624 -1.85174e-18 0.000547305)
(0.0400609 -0.01543 3.44674e-18 0.0318352 9.95759e-18 0.0348271)
(0.145759 -0.0592185 -1.54619e-17 0.123971 3.13287e-18 0.132106)
(0.402841 -0.170311 8.12105e-18 0.362873 4.38581e-19 0.37795)
(1.00677 -0.438635 -6.47384e-18 0.951712 4.21682e-17 0.971912)
(2.22926 -0.994274 -2.72944e-16 2.19638 1.43857e-16 2.20402)
(4.13269 -1.87999 1.20584e-16 4.2305 2.26464e-16 4.17439)
(6.29894 -2.91764 1.16124e-15 6.6993 -4.14012e-16 6.49839)
(7.89404 -3.71823 -2.12597e-15 8.72903 1.69976e-15 8.32101)
(8.3419 -3.98716 5.21019e-16 9.57981 7.4923e-15 8.97799)
(7.82411 -3.78292 -7.40492e-17 9.29256 -5.27454e-15 8.57363)
(6.89831 -3.3626 2.67648e-15 8.41871 -2.10131e-15 7.66608)
(5.93918 -2.90774 -1.27952e-14 7.37018 5.88876e-16 6.65385)
(5.16965 -2.53883 4.4701e-15 6.48666 -1.54154e-15 5.82932)
(4.46891 -2.16754 4.71778e-15 5.39228 -1.45312e-15 4.91364)
(4.92444 -2.43594 -9.95725e-15 6.32774 2.9109e-15 5.64835)
(0.00152414 -8.38872e-05 -1.54008e-21 0.00121136 -2.91561e-21 0.00137999)
(0.00153734 -5.24491e-05 -5.20268e-21 0.00119863 -5.48705e-21 0.00137758)
(0.00154177 -1.42882e-05 2.33779e-20 0.00118933 4.4828e-20 0.00137283)
(0.00151485 2.59601e-05 4.0148e-21 0.00117154 -8.64607e-21 0.00134762)
(0.00145408 6.51288e-05 2.79425e-21 0.00114499 -3.3271e-20 0.00130191)
(0.00134697 9.66367e-05 -1.05833e-20 0.00109813 2.83587e-20 0.00122312)
(0.00120667 0.000115283 1.53939e-20 0.00103358 5.84441e-20 0.00112001)
(0.00105904 0.000120537 6.37733e-20 0.00096194 6.03889e-20 0.0010111)
(0.000920698 0.000115856 2.37241e-20 0.0008928 -4.74674e-20 0.000907384)
(0.000779953 0.000101368 3.92243e-20 0.000807831 2.57899e-20 0.000794474)
(0.000643177 8.12614e-05 -3.17437e-20 0.000706003 8.59046e-21 0.000675604)
(0.000521225 6.09324e-05 -3.60584e-21 0.000600044 2.50309e-20 0.000562472)
(0.000417776 4.3182e-05 4.62486e-21 0.000499704 -2.39259e-20 0.000461573)
(0.00033211 2.88836e-05 4.52741e-20 0.000409243 -3.02271e-20 0.000374551)
(0.000263936 1.81756e-05 2.13416e-21 0.000332447 -4.15618e-21 0.00030291)
(0.000210791 1.04606e-05 -4.68932e-21 0.000269492 1.88402e-20 0.000245561)
(0.000170702 5.11579e-06 3.36268e-20 0.00022005 -3.57472e-20 0.000201301)
(0.000141192 1.44111e-06 4.98689e-21 0.000182375 4.1634e-21 0.000168076)
(0.000120395 -1.13345e-06 3.82366e-20 0.000154962 -3.30436e-21 0.000144179)
(0.000106041 -3.09347e-06 4.09042e-20 0.000135242 7.37114e-21 0.000127304)
(9.6724e-05 -4.7263e-06 1.05474e-19 0.000121589 -1.44183e-20 0.00011593)
(9.14713e-05 -6.3241e-06 1.36669e-19 0.000112515 -2.07621e-20 0.000108928)
(8.98523e-05 -8.08272e-06 8.14652e-20 0.000106957 4.93099e-21 0.000105601)
(9.11111e-05 -9.80832e-06 1.88477e-20 0.000102663 -3.4823e-21 0.000104679)
(9.50961e-05 -1.08289e-05 -2.09076e-20 9.93831e-05 8.70822e-21 0.000106)
(9.85373e-05 -1.01929e-05 7.66312e-20 9.55514e-05 -1.0555e-20 0.00010625)
(0.000106518 -9.29785e-06 -2.05117e-20 9.72685e-05 -1.07421e-21 0.000111923)
(6.10204e-05 -2.4835e-06 -5.71803e-21 5.65938e-05 9.49879e-23 6.21801e-05)
(0.000644771 -9.14166e-05 3.64513e-20 0.000379235 -3.85543e-22 0.000682824)
(0.00382602 -0.00027362 -1.70251e-18 0.00195891 -2.63025e-20 0.00398863)
(0.0103916 0.000694148 -9.83949e-18 0.00523191 4.74775e-19 0.0107241)
(0.0209224 0.00571917 -6.03344e-17 0.0130185 -3.36774e-18 0.0215476)
(0.0434343 0.017784 -1.45281e-16 0.0366552 -3.4528e-19 0.0449416)
(0.0844509 0.0383313 -3.56803e-16 0.0842129 -1.75205e-17 0.088133)
(0.142419 0.0667095 -8.98844e-16 0.153896 -9.82116e-17 0.150282)
(0.212122 0.100378 2.24456e-16 0.237096 -5.53692e-18 0.225137)
(0.285088 0.136075 -1.20953e-15 0.326844 1.59807e-16 0.30585)
(0.350889 0.162289 3.05793e-15 0.372999 5.45738e-16 0.360583)
(0.579484 0.276406 4.78384e-15 0.652718 9.74685e-16 0.628414)
(0.00125437 -9.18673e-05 3.50312e-21 0.00102738 5.76586e-21 0.00113631)
(0.00123979 -0.000110083 -4.76841e-21 0.00104706 -8.53735e-21 0.00113833)
(0.001211 -0.000125986 -2.19711e-21 0.00106536 -1.70527e-21 0.00113155)
(0.00117516 -0.000136553 2.61588e-20 0.00108248 3.79399e-20 0.00112078)
(0.00112859 -0.000140371 1.70634e-20 0.0010911 3.01035e-20 0.00110019)
(0.0010724 -0.000137477 2.20377e-20 0.00109051 4.03108e-20 0.00106991)
(0.00101172 -0.000128513 3.29371e-20 0.00108015 3.76905e-20 0.00103245)
(0.000946744 -0.000114566 -1.85509e-20 0.00105651 -2.84736e-20 0.000986172)
(0.00088048 -9.73303e-05 -6.73981e-20 0.00102153 -6.62335e-20 0.000933421)
(0.000814412 -7.87814e-05 8.66635e-20 0.000975367 4.89564e-20 0.000875371)
(0.00074966 -6.03974e-05 7.36461e-20 0.000920167 6.21053e-20 0.00081352)
(0.000687005 -4.33815e-05 9.57241e-20 0.000858268 4.59549e-20 0.000749562)
(0.000625728 -2.85312e-05 -1.57229e-19 0.000790533 -5.06322e-20 0.000683726)
(0.000564886 -1.60825e-05 -1.35222e-19 0.000717942 -9.03458e-20 0.000616309)
(0.000505338 -6.31728e-06 1.79189e-19 0.000643057 5.62768e-20 0.000548792)
(0.000443306 1.82338e-06 3.66884e-20 0.000562932 2.23302e-20 0.000478402)
(0.000379995 8.68504e-06 -2.7195e-20 0.000478621 2.85288e-21 0.000406539)
(0.000324798 1.42001e-05 -8.7499e-20 0.00040275 -5.73341e-20 0.000343741)
(0.000263836 1.61756e-05 1.81811e-20 0.000314458 -6.96215e-21 0.000275054)
(0.000188739 1.12948e-05 4.57052e-20 0.000210447 1.41339e-20 0.000193409)
(2.04346e-05 1.39111e-07 -6.35166e-22 2.06091e-05 -1.82647e-22 2.04763e-05)
(0.00048192 7.33491e-05 1.36e-19 0.000547239 1.84623e-20 0.000500594)
(9.21869e-08 2.29079e-12 -1.03099e-27 9.21884e-08 -2.25643e-28 9.21874e-08)
(0.00164995 0.000564944 -4.67019e-19 0.00188304 2.37958e-19 0.00172325)
(0.00941202 0.00433674 2.31533e-18 0.0102332 -7.60162e-19 0.00954935)
(0.0187592 0.00832354 -4.02432e-18 0.0186383 5.49249e-18 0.0182091)
(0.035068 0.0149045 1.15267e-19 0.0321585 -1.88964e-19 0.0327704)
(0.025035 0.0100536 4.10222e-18 0.0210016 -1.48787e-18 0.0224357)
(0.0186098 0.00617232 4.63984e-18 0.0124889 1.08806e-17 0.014985)
(0.031138 -0.00945333 9.74389e-18 0.0192452 -5.37206e-17 0.0243049)
(0.257193 -0.110859 -3.48038e-17 0.238508 -1.96188e-16 0.246072)
(0.983278 -0.446897 1.18972e-15 1.00522 3.13659e-16 0.991754)
(2.34623 -1.09427 1.96308e-15 2.537 4.54118e-16 2.43961)
(3.9518 -1.87627 -1.26787e-15 4.46404 -1.67079e-15 4.20866)
(5.10508 -2.45637 -5.66025e-15 5.98106 1.17385e-15 5.54799)
(5.49514 -2.6662 3.98625e-15 6.60639 4.05174e-15 6.05501)
(5.41247 -2.64024 -8.58997e-15 6.62117 -1.31722e-16 6.02322)
(5.02356 -2.42509 -1.1383e-14 5.96129 1.65982e-15 5.48193)
(5.3907 -2.6429 8.48241e-15 6.67282 -3.32767e-15 6.06837)
(0.00125506 -6.93385e-05 -5.5212e-21 0.00100153 -1.07786e-20 0.00112537)
(0.00124491 -4.57024e-05 -2.18346e-21 0.000975553 8.68335e-21 0.00110774)
(0.00121951 -1.67076e-05 1.81607e-20 0.000944216 3.23509e-20 0.00108087)
(0.00118149 1.37242e-05 -8.77015e-21 0.0009142 6.05965e-22 0.00104752)
(0.00112532 4.31962e-05 6.58512e-21 0.000882711 4.16633e-20 0.00100425)
(0.00104689 6.8064e-05 2.19986e-20 0.000845837 -9.18004e-21 0.000946406)
(0.000953907 8.50439e-05 2.19014e-20 0.000805481 -7.03322e-22 0.000879623)
(0.000856165 9.29854e-05 -5.44509e-20 0.000763304 -3.22561e-20 0.000809913)
(0.000753995 9.2175e-05 -2.78326e-20 0.000714564 2.64572e-21 0.000734736)
(0.000648767 8.36172e-05 5.216e-20 0.000654872 1.92091e-20 0.000652409)
(0.000549334 7.03738e-05 2.24599e-20 0.000588049 -2.12193e-21 0.000569153)
(0.000462531 5.5932e-05 2.79011e-20 0.000520884 -1.67991e-20 0.000491817)
(0.000389706 4.24741e-05 -4.57822e-20 0.000457404 -2.47133e-20 0.000423189)
(0.000329532 3.10213e-05 -5.37517e-20 0.000399328 1.08955e-20 0.000363552)
(0.000280688 2.1987e-05 5.77053e-21 0.00034806 1.29696e-20 0.000312956)
(0.000241121 1.51802e-05 1.62186e-20 0.000303737 -4.79303e-21 0.000270528)
(0.000209404 1.02482e-05 -4.18092e-20 0.000266451 -1.91586e-21 0.000235602)
(0.000184028 6.73306e-06 -9.75495e-22 0.000235576 -6.08315e-21 0.000207134)
(0.00016393 4.19516e-06 -1.56086e-20 0.000210544 -2.50185e-21 0.000184294)
(0.000147693 2.23879e-06 3.37311e-20 0.000189989 -1.79407e-20 0.000165715)
(0.000134597 6.13151e-07 -3.7029e-20 0.000173167 -1.04779e-20 0.00015062)
(0.000123675 -8.94487e-07 -7.51794e-20 0.000158887 -6.60426e-21 0.000137923)
(0.000113992 -2.40762e-06 4.21521e-21 0.000145872 -1.00852e-20 0.00012649)
(0.000103864 -3.82454e-06 1.9777e-20 0.00013188 -9.76028e-21 0.000114381)
(9.34963e-05 -4.70338e-06 5.83971e-20 0.000117359 -4.17424e-21 0.00010179)
(8.50204e-05 -4.96288e-06 -5.5219e-20 0.000105413 -1.71594e-21 9.12352e-05)
(7.86273e-05 -4.87364e-06 -9.24618e-21 9.63082e-05 2.20096e-21 8.31106e-05)
(7.44523e-05 -4.7417e-06 5.78889e-21 9.03833e-05 2.07681e-22 7.76232e-05)
(6.68191e-05 -4.13316e-06 -2.5487e-21 7.98774e-05 -4.70996e-23 6.87179e-05)
(6.36987e-05 -4.31669e-06 -4.33085e-21 7.64429e-05 -2.73713e-22 6.49064e-05)
(3.43608e-05 -1.61188e-06 -3.24628e-21 3.86204e-05 -4.07369e-22 3.45501e-05)
(2.63759e-05 -1.4382e-06 1.2307e-20 2.96425e-05 4.30998e-22 2.62966e-05)
(0.000218802 -5.75529e-05 2.27573e-18 0.000331751 1.99467e-19 0.000198916)
(0.000408775 -1.5558e-05 2.13252e-17 0.0005053 1.76642e-18 0.000284567)
(0.00210879 0.000781579 8.69277e-17 0.00165173 9.78786e-18 0.00174385)
(0.00995985 0.00392177 -1.89173e-16 0.00794859 -2.74184e-17 0.00910005)
(0.0300573 0.0126288 7.9705e-16 0.0262641 1.16516e-16 0.028997)
(0.0768944 0.0305747 -5.19483e-16 0.0622978 -1.703e-16 0.0704419)
(0.245264 0.111749 -3.54121e-16 0.24754 -1.41133e-15 0.253911)
(0.000944628 -7.00741e-05 -5.14323e-21 0.000773946 -7.24363e-21 0.0008607)
(0.00092888 -8.3654e-05 9.53455e-22 0.000785474 1.34711e-21 0.000859289)
(0.000903741 -9.51793e-05 6.1641e-21 0.000796358 6.78852e-21 0.000852408)
(0.000870583 -0.000102426 -3.72998e-20 0.000804197 -5.08426e-20 0.000840425)
(0.000829979 -0.000104597 -2.73329e-20 0.000806744 -3.17781e-20 0.00082214)
(0.000782488 -0.000101441 6.32819e-20 0.000802978 7.42017e-20 0.000797197)
(0.000731371 -9.3164e-05 -6.68496e-20 0.000792016 -8.13319e-20 0.00076708)
(0.000678596 -8.05462e-05 -2.98877e-20 0.000772986 -2.02704e-20 0.000732175)
(0.000626157 -6.46766e-05 -7.17484e-20 0.00074622 -5.34312e-20 0.000693572)
(0.000576883 -4.7092e-05 -1.36376e-20 0.000713376 -2.41889e-20 0.000653657)
(0.000532175 -2.9082e-05 9.06703e-21 0.000675985 -3.11394e-21 0.000613749)
(0.000493135 -1.17957e-05 -4.98545e-20 0.000635932 -6.48953e-20 0.000575368)
(0.000460593 3.83394e-06 1.60787e-19 0.000595416 1.09471e-19 0.000540008)
(0.000435019 1.7183e-05 -5.27288e-20 0.000556695 -9.0949e-21 0.000508918)
(0.000416188 2.8082e-05 -1.30191e-19 0.000521242 -5.67918e-20 0.000482695)
(0.000403749 3.64075e-05 8.63946e-20 0.00049068 1.64866e-21 0.000461775)
(0.00039198 4.1719e-05 -6.30386e-20 0.000460928 -3.62311e-20 0.000440735)
(0.000376445 4.42081e-05 7.51504e-22 0.000427908 4.64938e-20 0.000415561)
(0.000356033 4.44736e-05 -1.5352e-20 0.000391298 -1.20275e-20 0.000385752)
(0.000334986 4.38335e-05 -1.12086e-19 0.000356366 -7.76717e-20 0.000356407)
(0.000263482 2.99764e-05 6.33666e-20 0.00027047 6.2165e-20 0.000273436)
(0.000109221 5.60372e-06 3.44654e-22 0.000109453 -9.79139e-21 0.00011034)
(1.48596e-06 1.04435e-09 6.72876e-25 1.48587e-06 2.07364e-25 1.48606e-06)
(4.41035e-06 8.56206e-09 1.4595e-23 4.40867e-06 -6.84833e-25 4.4104e-06)
(9.31974e-08 3.55922e-12 -1.92749e-27 9.31963e-08 -6.35567e-28 9.31972e-08)
(0 0 0 0 0 0)
(0 0 0 0 0 0)
(0.00710289 0.00282271 -5.40391e-19 0.00578138 -3.50234e-19 0.00652132)
(0.0102709 0.00407518 -3.3946e-20 0.00833072 1.22795e-18 0.00936485)
(0.0238685 0.00936968 -2.8236e-17 0.0190793 2.3259e-18 0.0215317)
(0.0213727 0.00816367 -8.54023e-18 0.0164993 1.49701e-18 0.0189305)
(0.0389569 0.0138072 1.14567e-17 0.0275203 -7.2204e-17 0.033155)
(0.0511976 0.00811533 2.2294e-16 0.0224338 -2.93903e-16 0.0364816)
(0.287782 -0.12119 -1.46434e-15 0.256154 7.16588e-17 0.27088)
(1.18614 -0.549777 2.90698e-15 1.26488 1.16964e-15 1.22357)
(2.59853 -1.23553 -6.39725e-16 2.94935 3.2975e-16 2.77163)
(3.91999 -1.88862 -1.17268e-15 4.61155 3.22366e-15 4.26854)
(4.69353 -2.24874 6.43867e-16 5.44853 2.27047e-16 5.0595)
(5.4399 -2.65069 -1.49338e-14 6.58107 3.92961e-15 6.05785)
(0.00095307 -5.3657e-05 3.34014e-21 0.000760781 9.55353e-22 0.000858432)
(0.000954279 -3.62104e-05 -1.20338e-20 0.000747968 -1.601e-20 0.00085192)
(0.000945784 -1.49199e-05 1.05355e-21 0.000732341 7.55388e-21 0.000839858)
(0.000924769 7.89448e-06 7.12979e-21 0.000714844 -2.30635e-20 0.000820221)
(0.000888535 3.04332e-05 -5.47469e-20 0.000694638 -7.36784e-20 0.000791836)
(0.000835215 5.01124e-05 -5.59258e-20 0.000670047 3.15801e-20 0.000752491)
(0.000770766 6.46664e-05 7.65429e-20 0.000643421 3.63129e-20 0.00070691)
(0.000700988 7.28617e-05 -2.57397e-20 0.000615435 -6.73712e-20 0.000658202)
(0.000626763 7.44868e-05 -3.17866e-20 0.000582879 9.10675e-21 0.000604915)
(0.000549838 7.00869e-05 -2.13525e-20 0.000543042 -3.73166e-20 0.000546593)
(0.000475365 6.14954e-05 6.91443e-21 0.000497154 1.18984e-20 0.000486418)
(0.000407102 5.09811e-05 -1.54366e-20 0.000447957 -1.79841e-20 0.000427698)
(0.000346415 4.02975e-05 -3.21591e-20 0.000397913 4.00367e-20 0.000372392)
(0.000293284 3.0508e-05 3.46341e-20 0.000348871 1.68235e-20 0.000321417)
(0.000247608 2.22179e-05 2.80144e-20 0.000302673 -1.25037e-20 0.000275624)
(0.000208893 1.55607e-05 -5.76434e-21 0.000260663 -1.06621e-20 0.000235441)
(0.000176579 1.04243e-05 1.66915e-20 0.000223682 3.09394e-21 0.00020099)
(0.000150016 6.53958e-06 -2.53817e-20 0.000192066 6.40749e-21 0.000172098)
(0.000128588 3.60723e-06 1.79765e-20 0.000165792 -7.79164e-22 0.000148427)
(0.000111449 1.32435e-06 -2.32562e-20 0.000144249 -9.53078e-21 0.00012925)
(9.79207e-05 -5.43095e-07 2.2968e-20 0.000126798 1.24361e-21 0.000113892)
(8.72147e-05 -2.18397e-06 2.99748e-20 0.000112489 5.4397e-21 0.000101494)
(7.85525e-05 -3.70389e-06 -2.61915e-21 0.000100247 2.58223e-21 9.1126e-05)
(7.06292e-05 -5.03645e-06 -5.68582e-20 8.82601e-05 7.44037e-22 8.1284e-05)
(6.27045e-05 -5.8721e-06 -2.0768e-20 7.58047e-05 -7.34683e-21 7.12262e-05)
(5.54156e-05 -6.10936e-06 -6.19644e-21 6.41946e-05 7.76402e-21 6.18833e-05)
(4.98936e-05 -5.98855e-06 2.31034e-20 5.48465e-05 5.02704e-23 5.46285e-05)
(4.64911e-05 -5.6215e-06 7.53338e-22 4.80609e-05 -9.92201e-23 4.97712e-05)
(4.60438e-05 -5.31097e-06 -1.29186e-21 4.46867e-05 4.23876e-23 4.82008e-05)
(4.29979e-05 -4.15929e-06 1.35648e-20 3.97278e-05 2.39182e-22 4.40071e-05)
(5.74082e-05 -6.32667e-06 1.71628e-20 4.93944e-05 6.09926e-22 5.79363e-05)
(6.99075e-06 -1.08541e-07 -1.63089e-21 6.81592e-06 -1.03204e-22 6.98249e-06)
(0.000107814 -1.79612e-05 -7.68654e-19 7.52624e-05 -5.75229e-20 0.000103539)
(0.00051363 -0.0001243 -1.17052e-18 0.000274298 -3.72549e-20 0.000462376)
(0.000173516 -3.72071e-05 2.73717e-19 9.69238e-05 3.45265e-20 0.000150639)
(0.00052097 -0.000106947 -2.00076e-18 0.000246816 5.12196e-19 0.000412719)
(0.00140314 -0.000149075 -2.01526e-17 0.000561513 -1.45453e-17 0.00102682)
(0.00356022 0.000259722 6.548e-17 0.00140343 5.01388e-18 0.00243736)
(0.0529692 0.0214157 -3.09114e-16 0.0435228 5.09808e-17 0.0504407)
(0.000771925 -5.73918e-05 4.5423e-21 0.000632881 5.02579e-21 0.000701893)
(0.000764518 -6.83437e-05 -1.12728e-20 0.000645828 -1.29013e-20 0.000704728)
(0.000750473 -7.80725e-05 -8.27865e-22 0.000659098 -1.95311e-21 0.000704037)
(0.000731984 -8.4949e-05 -4.40959e-21 0.000671945 -2.73759e-21 0.000701056)
(0.000708329 -8.82022e-05 3.6747e-20 0.000681687 4.13219e-20 0.000693916)
(0.000679764 -8.76634e-05 2.7993e-20 0.00068791 2.32317e-20 0.00068238)
(0.000648246 -8.33153e-05 6.774e-22 0.000689446 1.08699e-20 0.000667054)
(0.000614382 -7.55427e-05 7.00107e-20 0.000684745 6.68494e-20 0.000647368)
(0.000579207 -6.50189e-05 -8.441e-21 0.000673562 -9.61431e-22 0.000623662)
(0.000543964 -5.27658e-05 -2.4054e-20 0.000655845 -1.1387e-20 0.000596631)
(0.000509067 -3.97135e-05 4.72894e-20 0.00063173 1.77906e-20 0.000566496)
(0.000475019 -2.67467e-05 -6.34267e-20 0.000602043 -2.46189e-20 0.000533937)
(0.000442208 -1.46807e-05 -1.13069e-19 0.000567906 -8.75473e-20 0.000499738)
(0.000410718 -4.04717e-06 -4.737e-20 0.000530476 1.16229e-20 0.000464493)
(0.000380637 4.84913e-06 2.03851e-19 0.000491074 9.16624e-20 0.000428955)
(0.000351379 1.17867e-05 -1.47238e-19 0.000450149 -6.68103e-20 0.000393063)
(0.000320257 1.70709e-05 -3.55605e-20 0.000405216 3.07479e-20 0.000354648)
(0.000287635 2.07734e-05 6.64058e-20 0.000357344 4.3137e-20 0.00031453)
(0.000256621 2.31486e-05 -4.21215e-20 0.000311055 -1.66311e-22 0.000276432)
(0.000228594 2.42892e-05 -1.38797e-20 0.000268508 3.50327e-20 0.00024202)
(0.000207147 2.50702e-05 1.97316e-20 0.000234497 -1.31754e-20 0.000215233)
(0.0001843 2.35422e-05 -1.43652e-19 0.000199117 1.5008e-20 0.000187468)
(0.000146652 1.65909e-05 1.18879e-21 0.000150062 -1.7502e-20 0.000146076)
(5.69385e-05 2.67565e-06 -1.23031e-20 5.63962e-05 1.28584e-21 5.64065e-05)
(1.12684e-06 1.07649e-09 1.4407e-24 1.12622e-06 4.2586e-25 1.12645e-06)
(4.37608e-06 1.61936e-08 -7.32358e-24 4.3616e-06 -3.20295e-23 4.36776e-06)
(2.78319e-06 6.6454e-09 -6.98761e-25 2.77602e-06 -7.23383e-26 2.77917e-06)
(8.11765e-07 5.67279e-10 1.43746e-25 8.11139e-07 5.58806e-27 8.11421e-07)
(0 0 0 0 0 0)
(0 0 0 0 0 0)
(0.00322986 0.00113347 -5.02256e-19 0.00228475 1.03192e-18 0.00274108)