/*--------------------------------*- C++ -*----------------------------------*\
| =========                 |                                                 |
| \\      /  F ield         | OpenFOAM: The Open Source CFD Toolbox           |
|  \\    /   O peration     | Version:  2306                                  |
|   \\  /    A nd           | Website:  www.openfoam.com                      |
|    \\/     M anipulation  |                                                 |
\*---------------------------------------------------------------------------*/
FoamFile
{
    version     2.0;
    format      ascii;
    arch        "LSB;label=32;scalar=64";
    class       volSymmTensorField;
    location    "300";
    object      turbulenceProperties:devReff;
}
// * * * * * * * * * * * * * * * * * * * * * * * * * * * * * * * * * * * * * //

dimensions      [0 2 -2 0 0 0 0];

internalField   nonuniform List<symmTensor> 
10720
(
(0.00163752 0.00425976 -9.4778e-22 -0.00177419 -2.23957e-20 0.000136663)
(0.00238922 0.00488225 -1.43324e-22 -0.00248722 1.40415e-19 9.79923e-05)
(0.00361226 0.00546309 -2.76236e-20 -0.00380958 -4.35166e-19 0.000197319)
(0.00524776 0.00621763 1.19085e-19 -0.00549386 8.79201e-19 0.000246093)
(0.00742757 0.00687638 -2.26007e-19 -0.00769633 -8.34603e-19 0.000268762)
(0.0104076 0.00726494 -1.72353e-19 -0.0107992 -4.50787e-19 0.000391604)
(0.0143039 0.0073776 3.26039e-19 -0.0147904 1.25297e-18 0.000486448)
(0.019194 0.00686179 -8.31518e-19 -0.0197768 -2.26214e-18 0.000582802)
(0.025247 0.00535375 -2.06576e-19 -0.0259939 6.04717e-19 0.000746823)
(0.0325743 0.00260753 6.13892e-19 -0.0334751 1.25986e-18 0.000900756)
(0.0413544 -0.00189792 1.58022e-18 -0.0424462 5.77786e-19 0.00109182)
(0.0519744 -0.00873559 -3.55336e-18 -0.0532926 -3.30028e-18 0.00131817)
(0.0649758 -0.018826 6.73002e-19 -0.0665694 8.68653e-19 0.0015936)
(0.0812693 -0.033757 2.687e-18 -0.0832246 1.27338e-18 0.00195531)
(0.102396 -0.0561826 -4.07833e-18 -0.104863 -6.37135e-18 0.00246688)
(0.130567 -0.0904267 -4.36606e-18 -0.133742 -2.58584e-18 0.00317534)
(0.169933 -0.145099 1.92195e-17 -0.174241 1.77969e-17 0.00430775)
(0.224348 -0.232486 1.7859e-17 -0.23023 3.38047e-17 0.0058818)
(0.311052 -0.389018 -3.54012e-17 -0.319669 -5.48844e-17 0.00861743)
(0.426564 -0.641887 -1.37176e-18 -0.438739 1.45607e-17 0.0121755)
(0.667207 -1.21482 -2.72327e-17 -0.686606 5.20917e-17 0.0193992)
(0.945721 -2.11468 -1.25119e-17 -0.971829 4.19222e-17 0.0261079)
(1.76722 -5.13334 -1.43209e-16 -1.8194 -6.43079e-16 0.0521738)
(2.42868 -10.3126 3.31742e-16 -2.51203 5.59506e-16 0.0833578)
(1.52765 -11.6429 4.24452e-17 -1.56859 -7.12716e-16 0.0409425)
(0.525968 -11.2237 3.65674e-16 -0.514357 5.81555e-16 -0.0116111)
(-0.146141 -11.0406 -8.19082e-17 0.176119 -7.8461e-17 -0.0299786)
(-0.665117 -11.2249 2.7454e-16 0.690029 2.30628e-16 -0.0249117)
(-1.13631 -11.4397 7.28995e-16 1.15282 1.20878e-15 -0.0165074)
(-1.57168 -11.4533 4.00371e-16 1.58005 1.9981e-15 -0.00836945)
(-1.95784 -11.2398 -1.41156e-15 1.95612 -1.93196e-15 0.00172044)
(-2.27364 -10.834 -4.74854e-16 2.26316 -7.26331e-16 0.0104868)
(-2.49381 -10.221 -3.25701e-17 2.47888 -4.369e-15 0.0149397)
(-2.60547 -9.41477 -2.58357e-15 2.5901 -7.30179e-15 0.0153699)
(-2.58972 -8.40693 1.00658e-15 2.57552 9.23474e-16 0.0142024)
(-2.43592 -7.22858 1.22024e-15 2.42491 1.14432e-15 0.0110162)
(-2.07477 -5.67526 -1.22512e-16 2.06132 -5.25324e-16 0.0134447)
(-1.58734 -4.17345 -1.51931e-15 1.5856 -2.49445e-17 0.0017332)
(-0.472961 -0.927638 -1.88459e-16 0.473723 -1.90355e-15 -0.000761499)
(0.000968145 0.00371473 2.38695e-21 -0.00102006 5.56217e-20 5.19161e-05)
(0.000549598 0.00319863 -3.56722e-21 -0.000639676 4.29785e-23 9.00776e-05)
(0.000179046 0.00261231 -1.9522e-20 -0.000226144 -1.37224e-19 4.70985e-05)
(-6.74644e-05 0.00209068 4.92794e-21 3.33125e-05 9.36621e-20 3.41518e-05)
(-0.000179714 0.00159764 3.93211e-21 0.000161406 -1.83001e-20 1.83074e-05)
(-0.000173077 0.00116774 -3.38105e-20 0.000173443 1.10729e-19 -3.66845e-07)
(-8.4452e-05 0.000835677 -2.02303e-19 0.000108529 1.62827e-19 -2.40768e-05)
(5.44127e-05 0.000637141 1.39734e-19 -1.67035e-05 -5.51724e-20 -3.77091e-05)
(0.00023096 0.000621204 2.26676e-19 -0.000204528 -1.14649e-19 -2.6432e-05)
(0.000470817 0.000742046 -1.54555e-19 -0.000467508 3.90997e-20 -3.30912e-06)
(0.000811725 0.00102642 -3.8831e-20 -0.000822364 1.83218e-19 1.06385e-05)
(0.00130556 0.00156575 2.49315e-19 -0.00132354 1.0378e-19 1.79729e-05)
(0.00202308 0.00252453 4.59454e-19 -0.00205323 -7.15232e-20 3.01478e-05)
(0.00305403 0.00413534 -8.06155e-21 -0.00310529 -2.58857e-19 5.12671e-05)
(0.00447099 0.00664194 -8.05851e-20 -0.00454589 -1.73488e-19 7.49012e-05)
(0.00629661 0.010334 2.67485e-20 -0.00640527 -5.81723e-20 0.000108655)
(0.00863588 0.0156297 -1.97022e-19 -0.00878158 6.7018e-19 0.000145692)
(0.011736 0.023417 7.42303e-19 -0.0119341 2.76051e-19 0.000198095)
(0.0161426 0.0354387 3.27976e-19 -0.0164109 -1.21868e-18 0.000268269)
(0.0226807 0.0549812 -1.32051e-18 -0.0230711 -3.46625e-19 0.000390395)
(0.0329295 0.088588 -4.43979e-18 -0.0335202 -2.03e-18 0.000590704)
(0.0490562 0.14848 -3.35483e-18 -0.0500352 -8.97578e-19 0.000979046)
(0.0756774 0.263663 6.22599e-18 -0.0774546 -5.7831e-19 0.00177715)
(0.116242 0.487609 -7.46241e-18 -0.119877 1.20759e-18 0.00363533)
(0.183175 0.9791 4.06818e-18 -0.191018 -7.2288e-18 0.00784329)
(0.277848 2.01697 -1.26376e-16 -0.294217 2.60651e-18 0.0163692)
(0.409899 4.53109 -7.8302e-17 -0.448359 1.23103e-17 0.0384601)
(0.421055 9.3667 6.59089e-17 -0.501343 8.31944e-19 0.0802878)
(0.00811781 13.2899 8.69714e-18 -0.112248 -1.26755e-19 0.10413)
(-0.628681 14.9581 6.28633e-17 0.530355 4.63342e-19 0.0983252)
(-1.26773 15.3971 -4.37132e-16 1.18549 -4.91235e-18 0.0822399)
(-1.85306 15.4171 1.57303e-16 1.78573 2.09083e-17 0.0673349)
(-2.37719 15.255 -1.8888e-15 2.32139 -1.53078e-16 0.055792)
(-2.83292 14.9549 -3.45822e-15 2.78602 -2.37494e-16 0.0468994)
(-3.21829 14.5328 1.0583e-15 3.17796 1.08256e-16 0.0403247)
(-3.53735 14.0098 1.02447e-15 3.50209 1.64375e-16 0.0352611)
(-3.77499 13.2867 1.45039e-15 3.74291 2.66745e-16 0.0320865)
(-3.91917 12.4694 -2.90373e-16 3.88917 -3.67132e-17 0.029995)
(-3.63978 10.0654 -4.55417e-15 3.63317 -7.84077e-16 0.00660958)
(0.000579457 -0.00046062 1.22614e-22 -0.000520055 4.00475e-21 -5.94018e-05)
(0.000492615 -0.000547443 2.90391e-20 -0.00042548 7.03637e-20 -6.7135e-05)
(0.00037141 -0.000623031 -2.69286e-20 -0.000291071 -4.74731e-20 -8.03392e-05)
(0.000250503 -0.000652248 -1.81305e-20 -0.000158553 -5.16573e-20 -9.19503e-05)
(0.000133128 -0.000645166 1.22283e-19 -3.25136e-05 2.37344e-19 -0.000100614)
(2.31172e-05 -0.000610529 4.76205e-20 8.62251e-05 7.38777e-20 -0.000109342)
(-6.03112e-05 -0.000551434 2.25838e-19 0.00017724 2.07469e-19 -0.000116929)
(-0.000116651 -0.000479029 -1.16729e-19 0.000238507 -2.24598e-20 -0.000121856)
(-0.000149311 -0.000404793 1.6492e-19 0.000274609 1.14273e-19 -0.000125298)
(-0.000158011 -0.000336015 -5.86147e-21 0.000285278 2.49608e-22 -0.000127267)
(-0.000150102 -0.000278323 -2.23025e-19 0.000277014 -1.90543e-19 -0.000126912)
(-0.000132646 -0.000239991 2.87211e-19 0.000258891 3.57562e-19 -0.000126246)
(-0.000110867 -0.000226198 1.76652e-19 0.000240767 8.87674e-20 -0.0001299)
(-8.62149e-05 -0.000245936 -3.68599e-20 0.000231141 1.99965e-20 -0.000144926)
(-4.84359e-05 -0.000344964 -2.27068e-19 0.000241514 3.73805e-20 -0.000193078)
(6.28904e-05 -0.000659458 4.77837e-19 0.000258201 5.46842e-19 -0.000321092)
(0.000456616 -0.00155069 8.56361e-19 0.000141398 -9.36326e-19 -0.000598014)
(0.00150507 -0.00355315 -4.42172e-18 -0.000501568 -5.7321e-18 -0.00100351)
(0.00421506 -0.00869178 5.0614e-19 -0.00254532 7.47585e-18 -0.00166974)
(0.0105036 -0.0211854 7.37903e-18 -0.00791825 -2.07244e-18 -0.00258536)
(0.0296091 -0.0627791 1.55403e-17 -0.0251866 6.15726e-18 -0.0044225)
(0.0742133 -0.17498 -2.35879e-17 -0.0679952 -2.26011e-17 -0.00621806)
(0.195873 -0.547223 7.44347e-17 -0.188071 1.88029e-16 -0.00780189)
(0.506016 -1.7887 1.53907e-19 -0.503289 -1.55161e-16 -0.00272651)
(0.750679 -3.55414 -2.73816e-16 -0.77451 1.70101e-16 0.0238309)
(0.791018 -5.40262 -9.72191e-17 -0.845536 -6.61346e-16 0.054518)
(0.603875 -7.1546 1.19868e-18 -0.675903 7.57654e-17 0.0720276)
(0.204198 -8.39782 -2.94598e-16 -0.279885 -4.45086e-16 0.0756867)
(-0.295982 -8.63895 -4.93678e-16 0.229883 -2.83424e-15 0.066099)
(-0.707613 -7.89951 -1.66958e-16 0.666339 -3.5482e-15 0.0412743)
(-0.931714 -6.69362 5.23074e-16 0.923305 4.89865e-15 0.00840979)
(-0.99872 -5.47961 -9.55555e-16 1.01689 -3.74816e-17 -0.0181658)
(-0.984799 -4.49959 -7.19071e-15 1.01459 1.34245e-15 -0.0297949)
(-0.931173 -3.75447 8.77449e-15 0.960813 1.59579e-14 -0.0296402)
(-0.864113 -3.18711 -1.48901e-15 0.888124 -8.64121e-16 -0.0240111)
(-0.781825 -2.74399 3.42324e-15 0.802311 -4.99492e-15 -0.0204857)
(-0.731089 -2.43267 -1.50388e-15 0.744463 1.52365e-15 -0.0133742)
(-0.56061 -2.13752 3.25067e-15 0.595904 4.04223e-16 -0.0352945)
(-0.787325 -2.25538 5.36397e-15 0.698417 7.29018e-15 0.0889078)
(0.000645696 -0.000345101 9.37007e-21 -0.000595449 2.31898e-20 -5.02469e-05)
(0.000684478 -0.000224702 -1.27038e-20 -0.000637507 -9.60226e-20 -4.69704e-05)
(0.000691768 -7.64759e-05 -1.86397e-20 -0.000654718 -1.1128e-19 -3.70504e-05)
(0.000654339 8.66145e-05 -7.1215e-21 -0.000627734 1.65306e-19 -2.66045e-05)
(0.000565183 0.000235252 1.91191e-21 -0.000551042 4.34932e-20 -1.4141e-05)
(0.000429386 0.000348885 3.78001e-20 -0.000425714 -1.45182e-19 -3.672e-06)
(0.000271311 0.000405986 7.03088e-20 -0.000274717 -2.2465e-19 3.40657e-06)
(0.000131168 0.000406972 -3.17801e-19 -0.000140235 8.36382e-21 9.06774e-06)
(2.29287e-05 0.000374136 4.89261e-20 -3.34416e-05 2.16553e-19 1.05128e-05)
(-6.6261e-05 0.000316396 1.28493e-21 6.00256e-05 -1.29341e-19 6.23541e-06)
(-0.000121737 0.000243667 -8.33103e-20 0.000123145 -7.89819e-20 -1.40793e-06)
(-0.000141744 0.000176702 -6.00833e-20 0.000150057 -8.50221e-20 -8.31282e-06)
(-0.000139966 0.000124419 -1.12099e-20 0.000152765 1.866e-20 -1.27988e-05)
(-0.000127569 8.66444e-05 3.75381e-20 0.000142832 1.0103e-19 -1.52621e-05)
(-0.000111047 6.09001e-05 6.47406e-20 0.000127499 2.5025e-20 -1.64519e-05)
(-9.41954e-05 4.40081e-05 -9.21213e-20 0.00011095 -4.71295e-21 -1.6755e-05)
(-7.86875e-05 3.33897e-05 8.26916e-20 9.51007e-05 8.55557e-21 -1.64133e-05)
(-6.53953e-05 2.68721e-05 -9.84199e-21 8.10457e-05 -2.88916e-20 -1.56504e-05)
(-5.43383e-05 2.27311e-05 -3.38024e-20 6.89944e-05 5.3805e-20 -1.46561e-05)
(-4.52891e-05 1.99609e-05 -2.57712e-20 5.89195e-05 2.80677e-20 -1.36304e-05)
(-3.80002e-05 1.79288e-05 -6.19864e-20 5.07311e-05 6.97739e-20 -1.27309e-05)
(-3.26746e-05 1.64649e-05 -8.73092e-20 4.49201e-05 4.53138e-20 -1.22455e-05)
(-2.91912e-05 1.5514e-05 -1.25793e-19 4.1689e-05 1.08331e-20 -1.24978e-05)
(-2.6871e-05 1.54909e-05 5.61008e-20 4.0515e-05 5.33714e-21 -1.36441e-05)
(-2.46039e-05 1.72574e-05 -3.99333e-21 3.96862e-05 5.4831e-21 -1.50824e-05)
(-0.000235134 0.000213281 5.26273e-19 0.000404289 1.37893e-19 -0.000169154)
(-0.0011966 0.00135552 2.69452e-18 0.00216605 -1.92548e-19 -0.000969458)
(-0.00866479 0.0119856 1.08324e-18 0.0162423 -4.5263e-19 -0.00757749)
(-0.0262203 0.0459097 -7.54139e-19 0.0499452 1.03685e-19 -0.0237249)
(-0.044938 0.102682 4.96307e-17 0.0849853 2.00805e-18 -0.0400472)
(-0.0579667 0.170632 4.0258e-16 0.105286 9.75231e-18 -0.0473198)
(-0.0659713 0.23519 2.39491e-16 0.111221 1.31062e-17 -0.0452499)
(-0.0730099 0.289327 1.76222e-15 0.11201 1.20981e-16 -0.0390001)
(-0.0819783 0.334885 2.54444e-15 0.114729 1.69712e-16 -0.0327511)
(-0.0941425 0.375324 -5.70477e-16 0.122112 -9.73538e-17 -0.0279697)
(-0.108438 0.415517 -4.90911e-16 0.133592 -8.62251e-17 -0.025154)
(-0.128772 0.456149 -1.225e-15 0.151559 -5.15469e-16 -0.0227869)
(-0.147312 0.552297 -2.52505e-15 0.174156 -3.22996e-18 -0.0268443)
(-0.207643 0.775781 -2.03916e-15 0.197439 1.35905e-15 0.0102041)
(0.000333661 -0.000312883 1.7248e-21 -0.000360061 2.38462e-21 2.63994e-05)
(0.000258325 -0.000372355 -2.72933e-20 -0.000290213 -6.63341e-20 3.18877e-05)
(0.0001608 -0.000413625 -6.02269e-21 -0.00019794 -3.0281e-21 3.71398e-05)
(5.20066e-05 -0.000426416 2.27838e-20 -9.68949e-05 4.92303e-20 4.48883e-05)
(-5.44999e-05 -0.000413118 -7.2102e-20 3.60426e-06 -1.46673e-19 5.08956e-05)
(-0.000154864 -0.000372482 -8.20829e-20 9.79728e-05 -1.34535e-19 5.68914e-05)
(-0.000239029 -0.000308498 -1.6643e-19 0.000175501 -2.46013e-19 6.35276e-05)
(-0.000300082 -0.000230737 -1.34097e-20 0.000231198 -1.99094e-21 6.88837e-05)
(-0.000337843 -0.000145401 -7.30624e-20 0.000264366 -1.74038e-19 7.34773e-05)
(-0.000353036 -6.1078e-05 3.05817e-19 0.00027551 3.4802e-19 7.7526e-05)
(-0.000348722 1.66296e-05 -5.00894e-20 0.000268584 6.81217e-20 8.01374e-05)
(-0.000331443 8.39574e-05 3.41274e-20 0.000250398 2.10035e-20 8.10451e-05)
(-0.0003074 0.00013934 -2.33557e-19 0.000227579 -2.97274e-19 7.98215e-05)
(-0.000281431 0.000184908 1.50394e-19 0.000204205 -1.39647e-20 7.72261e-05)
(-0.000254043 0.000218743 4.36333e-20 0.00018159 1.35412e-19 7.24533e-05)
(-0.000224064 0.000237835 5.34478e-20 0.000159099 2.56537e-20 6.49654e-05)
(-0.000179267 0.000226914 -2.4048e-19 0.000127565 -1.40065e-19 5.17021e-05)
(-0.000152693 0.00022367 2.08603e-19 0.000110238 1.55498e-19 4.24547e-05)
(-0.000102374 0.000168998 5.07116e-20 7.5998e-05 6.64804e-22 2.63765e-05)
(-0.000915967 0.00165035 -2.1177e-18 0.000708668 -3.18642e-19 0.000207299)
(-0.00180775 0.00346181 5.25536e-18 0.00147239 -2.06381e-18 0.000335359)
(-6.68557e-05 0.000132033 7.36255e-21 5.81441e-05 1.26234e-19 8.71159e-06)
(-0.00133598 0.0015087 5.9557e-18 0.00142836 -8.79581e-18 -9.23811e-05)
(0.00126728 -0.00472052 -2.29392e-18 -0.00102197 -2.45132e-18 -0.000245316)
(0.0119501 -0.0528674 4.36387e-18 -0.0101605 1.5422e-17 -0.00178959)
(0.0317357 -0.190728 -2.81339e-17 -0.0276368 7.69486e-18 -0.00409893)
(0.0532135 -0.491126 1.47369e-17 -0.0471989 1.14511e-18 -0.00601465)
(0.0637903 -1.1132 -1.42958e-17 -0.0565721 7.6293e-17 -0.00721816)
(0.0252447 -2.20142 -4.40343e-16 -0.0184532 2.46271e-16 -0.00679148)
(-0.120071 -3.6337 2.17106e-16 0.123259 3.53333e-16 -0.00318833)
(-0.387618 -4.91726 1.56426e-15 0.382423 -5.87047e-16 0.00519463)
(-0.692323 -5.52672 -2.76581e-15 0.677903 2.16325e-15 0.0144202)
(-0.906104 -5.36939 5.1401e-16 0.890368 9.33123e-15 0.0157367)
(-0.983628 -4.78896 -4.87101e-17 0.975235 -6.37013e-15 0.0083928)
(-0.965339 -4.12965 3.05827e-15 0.963872 -2.3016e-15 0.00146771)
(-0.878933 -3.52479 -1.43696e-14 0.881915 5.2031e-16 -0.00298211)
(-0.79897 -3.05426 4.95952e-15 0.798052 -1.62633e-15 0.000917743)
(-0.531829 -2.55709 5.13736e-15 0.54792 -1.52373e-15 -0.0160912)
(-0.844138 -2.81502 -1.00259e-14 0.826148 2.90354e-15 0.01799)
(0.00039529 -0.000236879 -3.54054e-21 -0.000419388 -6.74001e-21 2.40977e-05)
(0.000435605 -0.000154423 -1.34274e-20 -0.000454987 -1.90193e-20 1.93819e-05)
(0.000460074 -5.33443e-05 5.56655e-20 -0.000475009 1.20078e-19 1.49348e-05)
(0.000454803 5.4325e-05 1.14489e-20 -0.000464254 -1.35201e-20 9.45027e-06)
(0.000415742 0.000160428 7.89871e-21 -0.000421211 -8.89641e-20 5.46939e-06)
(0.000342192 0.00024803 -2.46386e-20 -0.000344177 6.36814e-20 1.98445e-06)
(0.000244266 0.000303012 2.37028e-20 -0.000243959 1.44061e-19 -3.06198e-07)
(0.000141116 0.000319923 1.56308e-19 -0.000141862 1.67892e-19 7.45377e-07)
(4.81852e-05 0.000309294 5.31224e-20 -4.96474e-05 -1.33559e-19 1.46223e-06)
(-2.83067e-05 0.000273968 1.18509e-19 2.72514e-05 7.0207e-20 1.05532e-06)
(-7.85509e-05 0.00022144 -8.35382e-20 7.72235e-05 2.1465e-20 1.32749e-06)
(-0.000102652 0.000167003 -1.20675e-20 0.000100149 7.06521e-20 2.50311e-06)
(-0.000108697 0.000119397 5.23102e-21 0.000104637 -6.34603e-20 4.06063e-06)
(-0.000104077 8.10333e-05 1.13333e-19 9.83234e-05 -7.98025e-20 5.75323e-06)
(-9.40517e-05 5.20769e-05 8.5763e-21 8.68813e-05 -1.25451e-20 7.17047e-06)
(-8.20478e-05 3.10614e-05 -1.26662e-20 7.36881e-05 5.23733e-20 8.3597e-06)
(-7.02374e-05 1.64264e-05 8.11137e-20 6.10213e-05 -9.586e-20 9.21613e-06)
(-5.97489e-05 6.3269e-06 1.3196e-20 4.99105e-05 1.15921e-20 9.83842e-06)
(-5.10707e-05 -7.52534e-07 9.35493e-20 4.08829e-05 -6.53538e-21 1.01878e-05)
(-4.39447e-05 -6.07969e-06 1.00014e-19 3.35034e-05 2.24283e-20 1.04413e-05)
(-3.80844e-05 -1.04014e-05 2.55827e-19 2.75024e-05 -3.3788e-20 1.0582e-05)
(-3.29354e-05 -1.44476e-05 3.31025e-19 2.21645e-05 -5.00749e-20 1.07709e-05)
(-2.77654e-05 -1.86675e-05 1.96863e-19 1.66978e-05 1.70779e-20 1.10676e-05)
(-2.10943e-05 -2.26119e-05 4.53324e-20 9.24344e-06 -9.2752e-21 1.18509e-05)
(-1.29631e-05 -2.48006e-05 -4.86214e-20 -2.27284e-07 2.34991e-20 1.31904e-05)
(-4.81373e-06 -2.40826e-05 1.81512e-19 -9.43074e-06 -2.95176e-20 1.42445e-05)
(2.16521e-06 -2.25512e-05 -4.88504e-20 -1.80164e-05 -4.76481e-21 1.58512e-05)
(5.47293e-06 -1.38326e-05 -3.13949e-20 -1.76505e-05 6.47884e-22 1.21775e-05)
(5.61593e-05 -7.33008e-05 2.75824e-20 -0.000143494 -8.70594e-22 8.73347e-05)
(0.000480717 -0.000275594 -1.43939e-18 -0.00111194 -5.46452e-20 0.000631223)
(0.00144974 0.000424981 -8.64659e-18 -0.00321958 -8.16241e-20 0.00176984)
(0.002313 0.00468638 -5.48187e-17 -0.00521379 -3.18018e-18 0.00290079)
(0.00185828 0.0154409 -1.34296e-16 -0.00506953 -4.45829e-18 0.00321126)
(-0.000685578 0.0342796 -3.34004e-16 -0.00190591 -2.29099e-17 0.00259149)
(-0.00552267 0.0608415 -8.54934e-16 0.00397645 -7.64211e-17 0.00154621)
(-0.0113218 0.0929537 2.15587e-16 0.0108178 -1.75106e-17 0.000504016)
(-0.0190617 0.127577 -1.17286e-15 0.0190117 2.1127e-16 5.00083e-05)
(-0.00963315 0.154075 2.94694e-15 0.0104633 5.32909e-16 -0.00083014)
(-0.0374433 0.26116 4.63665e-15 0.0294587 9.50662e-16 0.00798461)
(0.00030629 -0.000258285 9.51673e-21 -0.000296881 1.62828e-20 -9.40926e-06)
(0.000259299 -0.000306143 -1.3257e-20 -0.000248908 -2.38989e-20 -1.03918e-05)
(0.000195902 -0.000347468 -6.0287e-21 -0.000182624 -3.31646e-21 -1.32786e-05)
(0.000125007 -0.000374265 7.16173e-20 -0.000109122 1.04815e-19 -1.58847e-05)
(5.17498e-05 -0.000382682 4.55088e-20 -3.28622e-05 8.24996e-20 -1.88877e-05)
(-2.13232e-05 -0.000372982 5.77182e-20 4.37072e-05 1.10865e-19 -2.23839e-05)
(-8.67072e-05 -0.000347116 8.81611e-20 0.000112631 1.02002e-19 -2.59235e-05)
(-0.000139572 -0.000308107 -5.05892e-20 0.000169036 -7.85675e-20 -2.94637e-05)
(-0.000178447 -0.000260577 -1.80932e-19 0.00021172 -1.79268e-19 -3.32738e-05)
(-0.000202032 -0.000209921 2.34954e-19 0.00023873 1.32316e-19 -3.66989e-05)
(-0.000211597 -0.000160041 1.97584e-19 0.000251517 1.67341e-19 -3.99201e-05)
(-0.000209309 -0.000114101 2.55725e-19 0.000251846 1.22502e-19 -4.25376e-05)
(-0.00019774 -7.42104e-05 -4.20901e-19 0.000241992 -1.34791e-19 -4.4252e-05)
(-0.00017987 -4.12284e-05 -3.58091e-19 0.000224693 -2.40556e-19 -4.48235e-05)
(-0.000157741 -1.50457e-05 4.73854e-19 0.000202215 1.49042e-19 -4.44746e-05)
(-0.000133121 7.48459e-06 9.57745e-20 0.000175291 5.89828e-20 -4.21694e-05)
(-0.000107486 2.66157e-05 -7.09186e-20 0.000145586 7.31946e-21 -3.81e-05)
(-8.50603e-05 4.31897e-05 -2.30915e-19 0.000118216 -1.51289e-19 -3.31559e-05)
(-6.18618e-05 5.45735e-05 5.16838e-20 8.68256e-05 -1.98295e-20 -2.49638e-05)
(-4.30445e-05 5.86253e-05 2.00299e-19 5.90382e-05 6.17988e-20 -1.59938e-05)
(-3.81238e-05 7.09705e-05 -2.68915e-19 4.9098e-05 -7.73507e-20 -1.09742e-05)
(-4.04132e-05 9.39645e-05 1.43982e-19 4.86217e-05 2.05688e-20 -8.20846e-06)
(-3.74556e-05 0.000112399 -4.38647e-20 4.35233e-05 -9.51121e-21 -6.0677e-06)
(-0.000242679 0.00110383 -8.57022e-19 0.000289556 4.20311e-19 -4.68771e-05)
(-0.000593777 0.00639323 3.55021e-18 0.000865542 -1.13324e-18 -0.000271765)
(0.00050737 0.0128411 -7.46392e-18 8.30397e-05 9.90884e-18 -0.00059041)
(0.00339742 0.0176508 1.52714e-19 -0.00243475 -3.48738e-19 -0.000962673)
(0.000267549 0.000367491 4.94622e-19 -0.000224026 -1.75695e-19 -4.3523e-05)
(0.00395691 -0.00960628 5.86709e-18 -0.00348625 1.48512e-17 -0.00047066)
(0.00988425 -0.107369 2.65475e-17 -0.00864769 -1.20194e-16 -0.00123656)
(-0.000350276 -0.478027 -6.63837e-17 0.00255443 -3.95797e-16 -0.00220416)
(-0.0769144 -1.29973 2.07737e-15 0.0796266 5.51677e-16 -0.00271222)
(-0.263821 -2.42546 2.97154e-15 0.264696 6.72848e-16 -0.000874953)
(-0.514528 -3.34563 -1.64389e-15 0.511114 -2.2352e-15 0.00341472)
(-0.715895 -3.72382 -7.33511e-15 0.70994 1.42255e-15 0.00595501)
(-0.793223 -3.65139 4.79475e-15 0.790694 4.89684e-15 0.00252868)
(-0.801592 -3.42134 -1.017e-14 0.796915 -1.30631e-16 0.00467632)
(-0.574242 -3.02 -1.30298e-14 0.584598 1.88179e-15 -0.0103566)
(-0.814991 -3.21281 9.21518e-15 0.786665 -3.43409e-15 0.0283254)
(0.000342243 -0.000198558 -1.46076e-20 -0.000335914 -2.97479e-20 -6.32955e-06)
(0.000364742 -0.000135387 -5.02056e-21 -0.000359252 2.02931e-20 -5.48992e-06)
(0.000373348 -5.72976e-05 4.83511e-20 -0.000370655 9.22155e-20 -2.69364e-06)
(0.000363974 2.51118e-05 -2.06845e-20 -0.000362651 -1.17315e-21 -1.3227e-06)
(0.000332461 0.00010551 1.80265e-20 -0.000332562 1.14238e-19 1.0107e-07)
(0.000278604 0.000174386 5.52577e-20 -0.000278884 -1.57679e-20 2.80684e-07)
(0.000208927 0.000222869 5.9772e-20 -0.00020867 -1.5479e-21 -2.56717e-07)
(0.000134138 0.000246338 -1.47498e-19 -0.000134166 -8.91452e-20 2.84719e-08)
(6.21247e-05 0.000246797 -8.06137e-20 -6.29292e-05 6.96624e-21 8.0451e-07)
(-4.48191e-07 0.000226481 1.33606e-19 -6.95144e-07 6.03423e-20 1.14333e-06)
(-4.59919e-05 0.000192111 6.23824e-20 4.49996e-05 -5.11569e-21 9.92346e-07)
(-7.36329e-05 0.000153553 7.38477e-20 7.31173e-05 -4.55993e-20 5.15578e-07)
(-8.6916e-05 0.000117355 -1.14011e-19 8.71663e-05 -7.47873e-20 -2.50356e-07)
(-9.02461e-05 8.64129e-05 -1.41382e-19 9.1364e-05 2.66801e-20 -1.11793e-06)
(-8.73187e-05 6.17751e-05 1.2895e-20 8.93362e-05 3.73861e-20 -2.01748e-06)
(-8.10789e-05 4.30193e-05 4.37272e-20 8.39007e-05 -1.30136e-20 -2.82176e-06)
(-7.35856e-05 2.93105e-05 -1.07367e-19 7.71376e-05 -8.51652e-21 -3.55201e-06)
(-6.61135e-05 1.94628e-05 -4.13112e-21 7.02677e-05 -1.71043e-20 -4.15422e-06)
(-5.93586e-05 1.23096e-05 -4.12369e-20 6.40058e-05 -8.07816e-21 -4.64727e-06)
(-5.34524e-05 6.79873e-06 8.66405e-20 5.8436e-05 -4.99302e-20 -4.98353e-06)
(-4.83453e-05 2.25264e-06 -9.43669e-20 5.35916e-05 -3.2816e-20 -5.24632e-06)
(-4.37612e-05 -1.90592e-06 -1.96261e-19 4.92019e-05 -2.31949e-20 -5.44064e-06)
(-3.92332e-05 -6.01949e-06 8.87856e-21 4.48489e-05 -2.97645e-20 -5.61571e-06)
(-3.40481e-05 -9.84374e-06 5.0305e-20 3.97781e-05 -2.86418e-20 -5.73005e-06)
(-2.84143e-05 -1.22474e-05 1.52473e-19 3.44225e-05 -1.06367e-20 -6.00824e-06)
(-2.3456e-05 -1.29975e-05 -1.42848e-19 3.00694e-05 -8.29236e-21 -6.61343e-06)
(-1.95447e-05 -1.28635e-05 -2.45775e-20 2.68429e-05 7.65334e-21 -7.29825e-06)
(-1.65193e-05 -1.23523e-05 1.47849e-20 2.44658e-05 1.29723e-21 -7.94654e-06)
(-1.36848e-05 -1.14358e-05 -6.83125e-21 2.18797e-05 -2.75458e-22 -8.195e-06)
(-1.08669e-05 -1.01992e-05 -9.94315e-21 1.87051e-05 4.89404e-22 -7.83821e-06)
(-7.47116e-06 -8.19516e-06 -1.60281e-20 1.38458e-05 -8.40118e-22 -6.37467e-06)
(-4.21936e-06 -5.7696e-06 4.61923e-20 8.63427e-06 1.33118e-21 -4.41491e-06)
(-3.03748e-05 -5.74192e-05 2.01417e-18 7.74709e-05 1.30768e-19 -4.70962e-05)
(-6.11711e-07 -4.60828e-05 1.8824e-17 0.000110431 1.75196e-18 -0.000109819)
(0.000235526 0.000599309 7.84703e-17 -0.000134489 1.0347e-17 -0.000101038)
(0.000881734 0.00333352 -1.73738e-16 -0.000938753 -2.65315e-17 5.70189e-05)
(0.00157093 0.0112085 7.42266e-16 -0.00204691 1.09804e-16 0.000475979)
(0.00672297 0.0279193 -4.8635e-16 -0.00721208 -1.68393e-16 0.000489108)
(-0.00282387 0.104493 -3.29546e-16 -0.00195542 -1.41081e-15 0.00477929)
(0.000222631 -0.000196175 -1.35346e-20 -0.000225648 -2.01652e-20 3.01759e-06)
(0.000184137 -0.00023167 2.6592e-21 -0.0001885 4.23895e-21 4.36227e-06)
(0.000134425 -0.00026129 1.61101e-20 -0.000139262 1.74955e-20 4.83676e-06)
(7.7972e-05 -0.000279224 -9.89686e-20 -8.41396e-05 -1.40694e-19 6.1676e-06)
(1.8899e-05 -0.00028335 -7.24501e-20 -2.64512e-05 -8.47364e-20 7.55222e-06)
(-4.048e-05 -0.000273093 1.69316e-19 3.16464e-05 2.02698e-19 8.83358e-06)
(-9.48754e-05 -0.000249178 -1.7977e-19 8.43051e-05 -2.23248e-19 1.05703e-05)
(-0.000140388 -0.000213794 -8.12734e-20 0.000127966 -5.40621e-20 1.24226e-05)
(-0.00017478 -0.000169934 -1.93204e-19 0.000160512 -1.44582e-19 1.42676e-05)
(-0.000196717 -0.000121808 -3.59976e-20 0.000180351 -6.55132e-20 1.63658e-05)
(-0.000206312 -7.28538e-05 2.41771e-20 0.000187851 -8.72647e-21 1.84603e-05)
(-0.000204732 -2.62439e-05 -1.32281e-19 0.000184184 -1.7546e-19 2.05482e-05)
(-0.000193995 1.54667e-05 4.30678e-19 0.000171463 2.94977e-19 2.25313e-05)
(-0.000176485 5.07605e-05 -1.41768e-19 0.000152283 -2.47936e-20 2.42016e-05)
(-0.00015452 7.94564e-05 -3.47415e-19 0.000128946 -1.51921e-19 2.55741e-05)
(-0.000130533 0.00010047 2.30353e-19 0.000104593 4.60807e-21 2.59395e-05)
(-0.000106154 0.000113163 -1.67389e-19 8.13367e-05 -9.65485e-20 2.4817e-05)
(-8.17625e-05 0.000118022 2.28537e-21 5.90935e-05 1.22197e-19 2.26691e-05)
(-5.96443e-05 0.000118031 -4.02867e-20 3.95778e-05 -3.16509e-20 2.00664e-05)
(-3.92826e-05 0.000111019 -2.85282e-19 2.27003e-05 -1.97112e-19 1.65824e-05)
(-2.22508e-05 9.4976e-05 1.98737e-19 1.03718e-05 1.92934e-19 1.18789e-05)
(-1.15836e-05 7.53473e-05 3.94001e-21 4.42136e-06 -1.21493e-19 7.16222e-06)
(-6.78602e-06 6.99194e-05 3.84316e-20 2.15087e-06 1.17595e-20 4.63515e-06)
(-2.5379e-06 7.98968e-05 1.11663e-19 -1.20163e-06 -5.00138e-21 3.73953e-06)
(3.76563e-06 8.70508e-05 -3.76433e-20 -6.73988e-06 -1.19929e-20 2.97425e-06)
(9.47706e-06 8.92637e-05 1.26753e-19 -1.15693e-05 2.02584e-20 2.09226e-06)
(1.27773e-05 8.92101e-05 -6.93042e-21 -1.39977e-05 1.58543e-22 1.2204e-06)
(2.93576e-05 0.000179581 -2.85241e-20 -3.05402e-05 -1.76667e-20 1.18266e-06)
(0.00123983 0.00664006 2.18592e-20 -0.00125131 1.71152e-18 1.14736e-05)
(0.000667277 0.00293125 -8.54141e-18 -0.000661422 7.05214e-19 -5.85464e-06)
(0.00262884 0.00827656 -1.05003e-17 -0.00258493 1.75588e-18 -4.39141e-05)
(0.0105853 0.0119946 2.77649e-17 -0.0103578 -1.62049e-16 -0.000227472)
(0.0187365 -0.098722 5.76749e-16 -0.0179067 -7.07732e-16 -0.000829824)
(-0.0257163 -0.584836 -2.98478e-15 0.0277076 1.59086e-16 -0.00199129)
(-0.182341 -1.49068 4.83655e-15 0.184155 1.81737e-15 -0.00181392)
(-0.4009 -2.39972 -9.9629e-16 0.40161 4.27722e-16 -0.000710417)
(-0.586194 -2.9642 -1.75019e-15 0.582233 3.98744e-15 0.00396145)
(-0.52574 -3.08608 6.73597e-16 0.536377 2.45188e-16 -0.0106367)
(-0.773614 -3.40223 -1.72641e-14 0.73614 4.31329e-15 0.0374748)
(0.000253114 -0.000152949 8.63674e-21 -0.000256273 3.53496e-21 3.15936e-06)
(0.000274197 -0.000106617 -3.12465e-20 -0.000275971 -4.4944e-20 1.7742e-06)
(0.000285746 -4.97065e-05 3.99504e-21 -0.000287366 2.03336e-20 1.62005e-06)
(0.000283494 1.17354e-05 1.70346e-20 -0.000284318 -5.6842e-20 8.24124e-07)
(0.000264513 7.30657e-05 -1.38552e-19 -0.00026509 -1.99288e-19 5.77014e-07)
(0.000228098 0.000127506 -1.41925e-19 -0.000228107 7.28142e-20 9.54998e-09)
(0.000178371 0.000168585 1.98745e-19 -0.000178046 1.03222e-19 -3.25429e-07)
(0.000122739 0.00019233 -6.42966e-20 -0.000122619 -1.86841e-19 -1.19678e-07)
(6.68073e-05 0.000198841 -8.78346e-20 -6.69871e-05 2.49326e-20 1.79801e-07)
(1.60224e-05 0.000188971 -5.98998e-20 -1.63622e-05 -1.04016e-19 3.39792e-07)
(-2.36196e-05 0.000167083 2.0986e-20 2.33161e-05 3.16675e-20 3.03469e-07)
(-5.04612e-05 0.000139428 -3.93008e-20 5.0182e-05 -5.14222e-20 2.79162e-07)
(-6.58489e-05 0.000111008 -8.11659e-20 6.55186e-05 1.09227e-19 3.30257e-07)
(-7.23402e-05 8.48098e-05 8.60851e-20 7.18739e-05 5.05431e-20 4.66293e-07)
(-7.25478e-05 6.24521e-05 7.3167e-20 7.18747e-05 -3.3654e-20 6.73063e-07)
(-6.89001e-05 4.4347e-05 -1.50334e-20 6.7946e-05 -3.01228e-20 9.54179e-07)
(-6.32459e-05 3.0279e-05 4.36821e-20 6.19827e-05 9.73649e-21 1.26319e-06)
(-5.69308e-05 1.95804e-05 -6.47056e-20 5.53505e-05 1.65339e-20 1.5803e-06)
(-5.07735e-05 1.14679e-05 4.58112e-20 4.88977e-05 -1.20137e-21 1.8758e-06)
(-4.51163e-05 5.14265e-06 -6.03043e-20 4.29652e-05 -2.81774e-20 2.15113e-06)
(-4.00263e-05 -1.75564e-08 5.81722e-20 3.76493e-05 4.87e-21 2.37693e-06)
(-3.5322e-05 -4.51884e-06 7.79891e-20 3.27542e-05 1.70733e-20 2.5678e-06)
(-3.0631e-05 -8.65014e-06 -5.43661e-21 2.79123e-05 7.15855e-21 2.7187e-06)
(-2.53557e-05 -1.22557e-05 -1.46125e-19 2.24365e-05 6.109e-23 2.91914e-06)
(-1.95068e-05 -1.45464e-05 -5.43779e-20 1.63552e-05 -2.32394e-20 3.1516e-06)
(-1.39194e-05 -1.52689e-05 -1.60209e-20 1.05797e-05 2.47119e-20 3.33973e-06)
(-9.03416e-06 -1.50166e-05 5.92749e-20 5.389e-06 7.39107e-22 3.64516e-06)
(-4.81851e-06 -1.4192e-05 2.1383e-21 7.49302e-07 -4.88063e-22 4.06921e-06)
(-1.23945e-06 -1.31308e-05 -3.35594e-21 -3.31952e-06 2.87584e-22 4.55897e-06)
(1.63413e-06 -1.12929e-05 3.75521e-20 -6.35027e-06 1.71294e-22 4.71614e-06)
(4.36633e-06 -1.17997e-05 3.32603e-20 -1.00207e-05 1.07474e-21 5.65439e-06)
(3.22984e-06 -5.8384e-06 -8.99671e-20 -6.13136e-06 -4.97464e-21 2.90152e-06)
(1.18635e-05 -1.72238e-05 -7.63067e-19 -1.98437e-05 -5.9198e-20 7.98018e-06)
(8.68475e-05 -0.000109068 -1.06733e-18 -0.000129147 -1.30946e-19 4.22992e-05)
(2.44778e-05 -2.66834e-05 2.06618e-19 -3.23993e-05 2.06875e-21 7.92148e-06)
(0.000109712 -8.92611e-05 -1.75156e-18 -0.000127404 6.97601e-19 1.76914e-05)
(0.000366532 -0.000131164 -1.79376e-17 -0.000396085 -1.49404e-17 2.95532e-05)
(0.000937498 0.000212803 5.6039e-17 -0.000915769 3.99893e-18 -2.17295e-05)
(0.00383973 0.0197211 -2.90703e-16 -0.00521365 5.23387e-17 0.00137393)
(0.000184132 -0.000161053 1.18691e-20 -0.00018302 1.37905e-20 -1.11243e-06)
(0.000155876 -0.00018976 -2.98494e-20 -0.000154868 -3.58855e-20 -1.00783e-06)
(0.000118618 -0.000214979 -2.41133e-21 -0.000117012 -4.98668e-21 -1.60574e-06)
(7.60739e-05 -0.000232424 -1.24439e-20 -7.41811e-05 -6.48415e-21 -1.89279e-06)
(3.10158e-05 -0.000240004 9.8644e-20 -2.87454e-05 1.13538e-19 -2.27041e-06)
(-1.54747e-05 -0.000237342 7.56437e-20 1.8453e-05 6.24106e-20 -2.97827e-06)
(-5.93668e-05 -0.00022453 9.5784e-22 6.29861e-05 3.05072e-20 -3.6193e-06)
(-9.77204e-05 -0.000202651 1.87645e-19 0.000102112 1.81829e-19 -4.3911e-06)
(-0.000128817 -0.000173567 -2.34376e-20 0.000134205 -3.13202e-21 -5.38792e-06)