/*--------------------------------*- C++ -*----------------------------------*\
| =========                 |                                                 |
| \\      /  F ield         | OpenFOAM: The Open Source CFD Toolbox           |
|  \\    /   O peration     | Version:  2306                                  |
|   \\  /    A nd           | Website:  www.openfoam.com                      |
|    \\/     M anipulation  |                                                 |
\*---------------------------------------------------------------------------*/
FoamFile
{
    version     2.0;
    format      ascii;
    arch        "LSB;label=32;scalar=64";
    class       volScalarField;
    location    "300";
    object      turbulenceProperties:I;
}
// * * * * * * * * * * * * * * * * * * * * * * * * * * * * * * * * * * * * * //

dimensions      [0 0 0 0 0 0 0];

internalField   nonuniform List<scalar> 
10720
(
0.00417405
0.00414916
0.00416935
0.00429782
0.00446118
0.00469054
0.00500355
0.00538926
0.00586682
0.00645506
0.00717359
0.00806467
0.00918887
0.0106294
0.0125299
0.015088
0.0186962
0.0238261
0.0320183
0.0443936
0.0694106
0.111503
0.228265
0.421191
0.508016
0.46711
0.408471
0.366487
0.339429
0.322279
0.311192
0.303472
0.298997
0.296883
0.29694
0.299225
0.307501
0.318086
0.401245
0.00422539
0.00438233
0.00456309
0.00498478
0.0056861
0.00704235
0.0101789
0.0169986
0.0134933
0.00874656
0.00732306
0.00706357
0.00731402
0.00787068
0.00865652
0.00966558
0.0109374
0.0125659
0.0146956
0.0175296
0.0214014
0.0267165
0.0344026
0.0453539
0.0627031
0.0884315
0.130964
0.186814
0.221531
0.234696
0.238638
0.240293
0.241517
0.242566
0.243552
0.244662
0.246102
0.249518
0.255937
0.00181773
0.00166465
0.00152708
0.00139724
0.00127662
0.00116841
0.00106926
0.000977851
0.00089677
0.000824135
0.00075925
0.000711256
0.000692124
0.000711457
0.000795919
0.000980141
0.00132987
0.00190135
0.00294785
0.00465031
0.00817992
0.0141598
0.026554
0.0521923
0.0806923
0.10897
0.137057
0.161378
0.175711
0.177716
0.171263
0.161899
0.153561
0.147654
0.144824
0.145251
0.154554
0.167073
0.320244
0.00198341
0.00219074
0.00246952
0.00286736
0.00346239
0.00439617
0.00583152
0.0071561
0.00638677
0.00446998
0.00313764
0.002343
0.00183805
0.00149028
0.0012356
0.00104052
0.00088469
0.000756404
0.000645212
0.000542958
0.000438706
0.000325471
0.000185338
7.26088e-05
0.00011277
0.00129816
0.00295626
0.00829862
0.0151177
0.0210797
0.0257795
0.0293916
0.0322542
0.0347417
0.0371125
0.0396021
0.042467
0.0476514
0.0611886
0.0015786
0.00145468
0.00133324
0.00121901
0.00112075
0.00103361
0.000958183
0.000895751
0.000844867
0.000805006
0.000774132
0.000752521
0.000739256
0.000734135
0.000729806
0.000716407
0.000654875
0.000620303
0.000355165
0.00148801
0.00205566
0.000457461
0.00147582
0.00227487
0.00780241
0.0152686
0.025472
0.0402743
0.0602404
0.0834575
0.105745
0.122378
0.131164
0.134252
0.135542
0.137368
0.144901
0.15287
0.257432
0.00172219
0.00189285
0.00212858
0.00244299
0.00286657
0.00342209
0.00405527
0.00446474
0.00424795
0.00349978
0.00272301
0.0021233
0.00168642
0.00136418
0.00112274
0.000938132
0.000796335
0.000687241
0.000604426
0.000541396
0.000494126
0.000459284
0.000434803
0.000416892
0.00040632
0.000396894
0.00040279
0.000306706
0.000796892
0.00202924
0.00340283
0.00491124
0.00734687
0.0106599
0.0142944
0.0179008
0.0214156
0.0239668
0.0337458
0.00149018
0.00138667
0.00128696
0.00119628
0.00111318
0.00103589
0.000965473
0.000900538
0.000840936
0.000785963
0.000735012
0.000687254
0.000641844
0.000598275
0.000555782
0.000512351
0.00046798
0.000431122
0.000379132
0.000282583
0.000102487
0.000174203
0
0.00119559
0.0027631
0.00397208
0.00478075
0.000761272
0.00377965
0.0125866
0.0276538
0.048454
0.071689
0.0923934
0.10774
0.118675
0.130885
0.14266
0.216693
0.00159992
0.00172793
0.00189072
0.00210504
0.00237204
0.00268392
0.00299073
0.00316919
0.00308277
0.00273251
0.0022916
0.00189407
0.00157522
0.00132704
0.00113432
0.000982914
0.00086313
0.00076743
0.000690518
0.000627453
0.00057529
0.000531033
0.000491975
0.000454142
0.000417927
0.000387962
0.00036484
0.000347677
0.000328763
0.000305516
0.000263716
0.000209047
0.000578086
0.000761311
0.00145412
0.00339691
0.00625971
0.0101594
0.0207129
0.00131448
0.00122929
0.00114547
0.00106624
0.000993123
0.000924148
0.000860418
0.000801971
0.00074835
0.000700046
0.000656885
0.000618857
0.00058618
0.000558866
0.000536882
0.000519361
0.000503096
0.000484361
0.000467551
0.000442925
0.000396807
0.000308852
0.000101438
5.50013e-05
0
0
0
0.000614419
0.00320797
0.0021617
0.00375855
0.00520651
0.0134954
0.0343093
0.0593302
0.0834101
0.105604
0.125429
0.183909
0.00140559
0.00150901
0.00163729
0.00179512
0.00197604
0.00216709
0.00233679
0.00242988
0.00238913
0.00220601
0.00194579
0.00167771
0.00143659
0.00123128
0.00106018
0.000918343
0.00080094
0.000703872
0.00062382
0.000557592
0.00050277
0.000456901
0.000417592
0.000381189
0.000345858
0.000313562
0.00028716
0.00026794
0.000258177
0.000246276
0.000270867
0.000131435
0.000335061
0.00072916
0.000386714
0.000703706
0.0011787
0.0018391
0.00901034
0.00119673
0.00112916
0.00106144
0.000997518
0.000938165
0.00088175
0.000829291
0.000780526
0.000735041
0.000692804
0.00065341
0.000616618
0.000582284
0.000550169
0.000520084
0.000490974
0.00046103
0.000430907
0.000403111
0.000377717
0.000358704
0.000338564
0.000316087
0.000199109
7.29791e-05
5.36257e-05
3.66644e-05
9.12997e-06
0
0.00081555
0.00192923
0.00455867
0.00203819
0.00739785
0.0112959
0.0366826
0.0678478
0.0992528
0.152725
0.0012667
0.00134413
0.00143788
0.00155013
0.00167229
0.00179417
0.00189742
0.00195267
0.00193066
0.00182505
0.0016635
0.00148192
0.00130527
0.00114549
0.00100635
0.000887554
0.000787173
0.000702896
0.000632363
0.000573177
0.000523176
0.000480153
0.000441916
0.000405684
0.000370144
0.000337022
0.000307858
0.000282872
0.000261396
0.000243099
0.000227079
0.000212182
0.000189248
0.000159771
0.000119811
0.000254746
0.000488425
0.000880509
0.00302568
0.00107719
0.0010223
0.000966407
0.000912736
0.000862504
0.000813997
0.00076821
0.000725195
0.000684538
0.000646372
0.000610554
0.000576969
0.000545699
0.000516786
0.000490219
0.00046624
0.000445439
0.000427039
0.000409327
0.000391615
0.000374618
0.000359142
0.000351573
0.000332593
0.00028384
0.000226186
0.000142727
3.23631e-05
4.35353e-05
1.30683e-05
0
0
0.000769398
0.00432683
0.00384572
0.00956179
0.0260432
0.0645906
0.119253
0.0011333
0.001194
0.00126587
0.0013488
0.00143476
0.00151694
0.00158488
0.00162045
0.00160728
0.00154218
0.00143774
0.00131279
0.0011831
0.00105865
0.00094457
0.000842735
0.000753212
0.000675371
0.000608164
0.00055022
0.000500183
0.000456541
0.000417608
0.000381209
0.000346027
0.000313045
0.00028357
0.000257961
0.000235854
0.000217203
0.000202699
0.00019302
0.000187572
0.000180337
0.000153861
8.50073e-05
3.62065e-05
8.56626e-06
0.000526679
0.000977322
0.000933326
0.000887851
0.000843784
0.000802356
0.000762006
0.000723757
0.000687651
0.000653332
0.000620928
0.000590227
0.000561115
0.000533569
0.000507499
0.000482839
0.000459595
0.000437245
0.000414996
0.000393306
0.000373195
0.000355481
0.000341144
0.000331247
0.000326377
0.000317723
0.000299097
0.000268528
0.000227148
0.000180446
5.19604e-05
4.15174e-05
8.18001e-06
0
0
0.00150408
0.00640572
0.00893404
0.0293641
0.0830991
0.00102148
0.00106848
0.00112328
0.00118504
0.00124697
0.00130456
0.00135168
0.00137594
0.0013676
0.00132531
0.0012551
0.00116734
0.00107176
0.000975652
0.000883809
0.000798879
0.000721958
0.000653442
0.000593091
0.000540206
0.000493843
0.000452861
0.000415891
0.000381252
0.000347937
0.000316654
0.000288374
0.000263275
0.00024085
0.00022066
0.000202615
0.000186483
0.000172013
0.000158934
0.000149172
0.000137324
0.00011908
4.13503e-05
0.000140676
0.000887735
0.000852048
0.000814658
0.000777991
0.000743343
0.000709248
0.000676632
0.000645595
0.000615818
0.000587415
0.000560256
0.000534234
0.000509366
0.000485619
0.000463023
0.000441558
0.000421304
0.000402596
0.000385274
0.000369116
0.000354152
0.000340859
0.000329388
0.000320034
0.000311539
0.000301109
0.000288865
0.000273445
0.000257026
0.000223027
0.000184462
3.6642e-05
3.1928e-05
0
0
0
0.00513186
0.0108129
0.0490942
0.000923098
0.000960143
0.00100278
0.00104972
0.00109557
0.00113747
0.00117141
0.00118865
0.00118319
0.00115454
0.00110583
0.00104298
0.000971984
0.000897803
0.000824234
0.000753775
0.00068792
0.000627502
0.000572807
0.000523699
0.000479727
0.00044016
0.000404013
0.000370098
0.000337663
0.000307124
0.000279309
0.000254483
0.000232326
0.000212538
0.000195136
0.000180438
0.00016881
0.000160588
0.00015615
0.000158006
0.000165677
0.000173912
3.51525e-05
0.00080956
0.000780587
0.000749879
0.000719494
0.000690642
0.000662056
0.000634553
0.000608253
0.000582893
0.00055858
0.000535187
0.000512623
0.000490899
0.000469976
0.000449856
0.000430539
0.000412087
0.000394277
0.000376978
0.00036057
0.000345638
0.000332694
0.000321781
0.000311973
0.000301877
0.000290457
0.00027852
0.000267695
0.000259398
0.000252743
0.000245369
0.000214329
0.000142911
4.398e-05
0
0
6.07936e-05
0.00147368
0.024364
0.000837905
0.000867265
0.000900727
0.000936862
0.000971502
0.00100291
0.00102804
0.00104065
0.00103702
0.00101696
0.000982234
0.000936395
0.000883132
0.000825724
0.000767018
0.000709085
0.000653357
0.0006009
0.00055226
0.000507651
0.000466966
0.00042979
0.000395458
0.000363165
0.000332344
0.000303303
0.000276702
0.000252772
0.000231236
0.000211772
0.000194286
0.000178804
0.000165295
0.000154251
0.000146065
0.000145174
0.000145814
0.000192164
0.000128735
0.000740433
0.000716755
0.000691394
0.000666092
0.000641952
0.000617874
0.000594542
0.000572139
0.000550389
0.000529413
0.000509087
0.000489327
0.000470137
0.000451483
0.000433386
0.000415878
0.000398983
0.000382798
0.000367428
0.000352951
0.000339609
0.000327617
0.000317062
0.000307309
0.000297027
0.000285262
0.000272465
0.000260541
0.000251038
0.000244937
0.000241432
0.000241706
0.000232469
0.000182811
4.87949e-05
0
0
0.00165076
0.0123022
0.000763332
0.000786831
0.000813434
0.000841652
0.000868282
0.000892387
0.00091142
0.000920846
0.000918402
0.000903993
0.000878638
0.000844602
0.000804232
0.000759669
0.000712877
0.000665452
0.00061861
0.000573353
0.000530378
0.000490071
0.000452537
0.000417636
0.000384982
0.000354062
0.000324535
0.00029665
0.000270923
0.000247597
0.000226506
0.000207425
0.000190322
0.000175337
0.000162689
0.000152898
0.00014625
0.000146267
0.000147643
0.00017866
0.000206456
0.000679323
0.000659912
0.00063891
0.000617802
0.000597609
0.000577334
0.0005576
0.00053857
0.000520011
0.000502032
0.000484523
0.0004674
0.000450663
0.000434283
0.000418268
0.000402649
0.000387468
0.000372812
0.000358628
0.000345017
0.000332339
0.000320875
0.000310677
0.000301257
0.000291508
0.000280509
0.000268443
0.000256705
0.000246648
0.000238837
0.000232881
0.000230825
0.000233107
0.000235513
0.000197123
4.54258e-05
0
0.000875757
0.00724108
0.000697927
0.000716839
0.000738193
0.000760492
0.000781277
0.000800085
0.000814757
0.000821945
0.000820271
0.000809655
0.00079078
0.000765126
0.000734212
0.000699397
0.000662077
0.000623381
0.000584231
0.000545509
0.000507864
0.000471797
0.000437574
0.000405224
0.000374545
0.000345262
0.000317255
0.000290731
0.000266114
0.000243635
0.000223194
0.000204614
0.000187842
0.000172979
0.000160129
0.000149747
0.000142325
0.000141066
0.000143447
0.000165131
0.000215255
0.000625007
0.000609026
0.000591577
0.00057392
0.000556984
0.000539874
0.000523164
0.00050699
0.000491143
0.000475725
0.000460637
0.000445797
0.000431198
0.000416801
0.00040262
0.000388686
0.000375031
0.000361764
0.000348931
0.000336611
0.000325021
0.000314366
0.000304655
0.000295535
0.000286196
0.000275897
0.000264728
0.000253747
0.0002441
0.000236115
0.000229464
0.000224423
0.00022249
0.0002258
0.000239306
0.000177831
7.41828e-06
0.000497106
0.00416366
0.00064021
0.000655532
0.000672801
0.000690618
0.000707051
0.000721917
0.000733389
0.000738949
0.000737772
0.000729806
0.000715505
0.000695875
0.000671941
0.000644606
0.000614758
0.000583198
0.000550604
0.000517667
0.000484949
0.000452927
0.000421937
0.000392122
0.00036345
0.000335842
0.000309316
0.000284097
0.00026053
0.000238843
0.000219003
0.000200887
0.000184476
0.000169898
0.000157323
0.00014721
0.000140049
0.000138542
0.000141034
0.000158496
0.000205858
0.000576558
0.00056335
0.000548816
0.00053402
0.000519799
0.000505366
0.000491214
0.000477478
0.000463971
0.000450779
0.000437823
0.00042501
0.000412343
0.000399784
0.000387328
0.000375002
0.000362834
0.000350934
0.000339339
0.000328089
0.000317364
0.000307399
0.000298197
0.000289476
0.000280611
0.000271004
0.00026069
0.000250507
0.000241447
0.000233837
0.000227463
0.000222154
0.000218344
0.000217003
0.000222189
0.000251281
1.02031e-05
0.000161629
0.00208667
0.00058902
0.00060151
0.000615556
0.00062992
0.000643062
0.000654919
0.000663966
0.000668346
0.000667486
0.00066139
0.000650372
0.000635165
0.00061646
0.000594832
0.000570902
0.000545169
0.00051809
0.000490192
0.000461928
0.000433707
0.000405855
0.000378594
0.000352005
0.000326162
0.00030119
0.000277323
0.000254876
0.000234062
0.000214895
0.000197305
0.000181286
0.000166967
0.000154491
0.000144288
0.000136855
0.000134816
0.000136813
0.000152542
0.000194793
0.000533154
0.000522198
0.000510071
0.000497642
0.000485686
0.000473509
0.000461517
0.000449853
0.000438352
0.000427081
0.000415976
0.00040495
0.00039399
0.000383059
0.000372143
0.000361272
0.000350475
0.000339828
0.00032941
0.000319257
0.000309462
0.000300252
0.000291628
0.000283365
0.000274992
0.000266039
0.000256506
0.000247048
0.000238519
0.000231283
0.00022523
0.000220296
0.000216421
0.00021491
0.000210385
0.000243491
0.000181037
1.96804e-05
0.000563208
0.000543391
0.000553621
0.000565113
0.000576768
0.000587371
0.000596891
0.000604093
0.000607567
0.000606919
0.00060217
0.000593564
0.000581624
0.000566853
0.000549633
0.000530353
0.000509349
0.000486895
0.000463342
0.000439029
0.000414291
0.00038944
0.000364708
0.00034023
0.00031615
0.000292711
0.000270193
0.000248869
0.000228941
0.00021046
0.000193403
0.000177784
0.000163744
0.000151438
0.000141293
0.000133785
0.000131373
0.000132893
0.000146748
0.000184585
0.000494104
0.000485002
0.000474863
0.000464407
0.000454359
0.000444079
0.000433928
0.000424037
0.000414258
0.000404653
0.000395157
0.000385688
0.000376238
0.000366761
0.000357254
0.000347725
0.000338202
0.000328735
0.000319427
0.000310288
0.00030137
0.000292882
0.000284847
0.00027709
0.000269239
0.000260928
0.000252142
0.000243388
0.000235381
0.000228496
0.000222698
0.000218034
0.000214379
0.000213139
0.000209714
0.000218229
0.000247108
1.17827e-05
0.000151658
0.000502543
0.000510934
0.000520384
0.000529893
0.00053851
0.000546193
0.000551952
0.00055472
0.000554202
0.000550438
0.000543616
0.000534145
0.000522377
0.000508557
0.000492962
0.000475761
0.000457135
0.000437294
0.000416466
0.000394901
0.000372851
0.000350544
0.000328141
0.000305858
0.000283984
0.000262826
0.00024264
0.000223625
0.000205862
0.000189365
0.000174168
0.000160414
0.000148257
0.000138105
0.00013042
0.000127542
0.000128591
0.000140736
0.000174879
0.000458833
0.000451267
0.000442773
0.000433979
0.000425531
0.000416856
0.00040827
0.000399896
0.00039159
0.000383415
0.000375313
0.000367206
0.000359091
0.000350917
0.000342668
0.000334352
0.000325988
0.000317614
0.000309333
0.000301154
0.000293102
0.000285341
0.000277915
0.000270695
0.000263391
0.000255707
0.000247629
0.000239551
0.000232065
0.000225535
0.000219987
0.00021549
0.000212073
0.000210355
0.000210588
0.000204442
0.000259869
1.89035e-05
6.08775e-07
0.000465812
0.000472713
0.000480496
0.000488289
0.00049533
0.000501549
0.000506169
0.000508378
0.00050794
0.000504903
0.000499427
0.000491817
0.000482343
0.000471181
0.000458491
0.000444377
0.000428907
0.000412215
0.000394422
0.000375704
0.000356249
0.000336242
0.000315854
0.000295332
0.000275011
0.000255198
0.000236153
0.000218066
0.000201039
0.000185118
0.000170355
0.000156895
0.000144896
0.000134754
0.000126914
0.000123584
0.000124171
0.000134722
0.000165444
0.000426866
0.00042057
0.000413448
0.000406058
0.000398951
0.000391642
0.000384388
0.000377309
0.000370271
0.000363336
0.000356446
0.000349536
0.000342588
0.000335559
0.000328432
0.000321209
0.000313906
0.000306543
0.000299213
0.000291932
0.000284709
0.000277651
0.000270837
0.000264174
0.000257425
0.000250358
0.000242957
0.000235529
0.000228564
0.000222404
0.000217124
0.000212778
0.000209562
0.000207422
0.000208929
0.000201925
0.000239393
0.000153856
2.32246e-05
0.000432639
0.000438323
0.000444745
0.000451148
0.000456926
0.000461963
0.000465675
0.000467429
0.000467032
0.000464536
0.000460079
0.000453903
0.00044621
0.000437117
0.000426735
0.000415103
0.000402235
0.00038819
0.00037302
0.000356819
0.000339727
0.000321891
0.000303455
0.000284648
0.000265826
0.000247346
0.000229443
0.000212296
0.000196022
0.000180693
0.000166377
0.000153217
0.000141375
0.000131228
0.000123204
0.000119398
0.000119521
0.000128692
0.00015625
0.000397792
0.000392546
0.000386587
0.000380369
0.000374409
0.000368255
0.000362146
0.00035617
0.000350225
0.000344358
0.000338517
0.000332639
0.000326714
0.000320695
0.000314571
0.000308331
0.000301985
0.000295554
0.000289098
0.000282654
0.000276213
0.000269839
0.000263636
0.000257538
0.000251349
0.000244882
0.000238124
0.00023132
0.000224871
0.000219089
0.000214089
0.000209924
0.000206832
0.000204667
0.000205474
0.000202858
0.000216659
0.000218187
8.03397e-05
0.000402565
0.000407245
0.000412549
0.000417824
0.000422562
0.000426649
0.000429625
0.000431008
0.000430624
0.000428539
0.000424865
0.000419791
0.000413485
0.000406021
0.000397471
0.000387846
0.000377115
0.000365284
0.000352361
0.000338385
0.000323421
0.000307571
0.000290958
0.000273814
0.000256486
0.000239314
0.000222537
0.000206328
0.000190814
0.000176085
0.000162223
0.000149368
0.000137685
0.000127526
0.000119307
0.00011502
0.00011468
0.000122643
0.000147303
0.000371261
0.000366896
0.000361912
0.000356692
0.000351699
0.000346536
0.000341397
0.000336374
0.000331367
0.00032642
0.000321488
0.000316513
0.000311486
0.000306365
0.000301126
0.000295764
0.000290281
0.000284692
0.000279033
0.00027336
0.000267658
0.000261947
0.00025634
0.000250801
0.000245166
0.000239282
0.00023314
0.000226932
0.000220987
0.000215589
0.000210872
0.000206912
0.000203898
0.000201901
0.000201661
0.000202412
0.000203673
0.000225777
0.000161906
0.000375202
0.000379049
0.000383432
0.000387785
0.000391657
0.00039497
0.000397351
0.000398418
0.000398034
0.000396258
0.000393187
0.000388976
0.000383754
0.000377581
0.000370497
0.000362489
0.000353512
0.000343537
0.000332525
0.000320475
0.000307416
0.000293397
0.000278495
0.000262926
0.000247027
0.000231124
0.000215452
0.000200176
0.000185428
0.000171309
0.000157909
0.000145362
0.000133837
0.000123657
0.000115224
0.00011044
0.000109637
0.000116589
0.000138654
0.000346979
0.000343356
0.000339194
0.000334822
0.000330651
0.000326333
0.000322025
0.000317818
0.00031362
0.000309468
0.000305324
0.000301136
0.00029689
0.00029255
0.000288094
0.000283513
0.000278802
0.000273973
0.000269049
0.000264095
0.000259081
0.000254004
0.000248975
0.000243984
0.000238891
0.000233569
0.000228011
0.000222371
0.000216918
0.000211905
0.000207474
0.000203726
0.000200791
0.000198929
0.000198059
0.000199812
0.000198291
0.000213938
0.00020047
0.000350226
0.000353379
0.000356999
0.000360589
0.000363743
0.000366416
0.00036831
0.000369117
0.00036872
0.00036718
0.000364574
0.000361034
0.000356671
0.000351522
0.000345614
0.000338917
0.000331375
0.000322943
0.000313559
0.000303182
0.000291797
0.000279427
0.000266119
0.000252037
0.000237491
0.000222809
0.000208218
0.000193867
0.000179884
0.000166377
0.000153443
0.000141206
0.000129835
0.000119623
0.000110958
0.000105665
0.000104395
0.000110513
0.000130288
0.000324692
0.000321694
0.000318234
0.000314577
0.000311113
0.000307514
0.00030392
0.000300416
0.000296914
0.000293449
0.000289985
0.000286476
0.000282913
0.000279257
0.000275493
0.000271603
0.000267585
0.000263445
0.000259192
0.000254888
0.000250505
0.000246029
0.000241556
0.000237092
0.000232527
0.000227747
0.000222744
0.000217645
0.00021267
0.000208038
0.000203897
0.000200361
0.000197527
0.000195712
0.000194616
0.000195975
0.000195419
0.000201399
0.000207556
0.000327363
0.000329931
0.000332913
0.000335868
0.000338427
0.000340571
0.000342063
0.000342647
0.00034223
0.000340865
0.000338629
0.000335625
0.00033194
0.000327605
0.000322637
0.000317007
0.000310645
0.000303493
0.00029548
0.000286542
0.000276637
0.000265745
0.000253881
0.00024118
0.000227927
0.000214423
0.000200875
0.000187427
0.0001742
0.000161303
0.000148835
0.00013691
0.00012569
0.000115432
0.000106516
0.000100695
9.89628e-05
0.000104421
0.000122223
0.000304186
0.000301717
0.000298849
0.000295807
0.000292945
0.00028996
0.000286982
0.000284078
0.000281178
0.000278305
0.000275432
0.000272516
0.000269549
0.000266493
0.000263332
0.000260054
0.000256649
0.000253123
0.000249476
0.000245761
0.000241961
0.000238052
0.000234106
0.000230148
0.000226089
0.000221825
0.000217347
0.000212761
0.000208246
0.000203992
0.000200141
0.000196814
0.000194098
0.000192277
0.000191131
0.000191746
0.000192261
0.000192701
0.000201582
0.000306373
0.000308452
0.000310899
0.00031332
0.000315381
0.000317088
0.00031824
0.000318638
0.000318197
0.000316969
0.000315017
0.000312435
0.000309291
0.000305614
0.000301411
0.000296642
0.000291246
0.000285162
0.000278304
0.000270597
0.000261979
0.000252404
0.000241854
0.000230434
0.00021839
0.000206002
0.000193453
0.000180881
0.000168398
0.000156108
0.000144106
0.000132494
0.000121419
0.000111103
0.000101912
9.55361e-05
9.33352e-05
9.83139e-05
0.000114477
0.000285275
0.000283253
0.000280887
0.000278374
0.000276021
0.000273566
0.000271115
0.000268731
0.000266344
0.000263984
0.00026162
0.000259218
0.000256765
0.000254234
0.000251606
0.000248866
0.000246008
0.000243028
0.000239929
0.00023675
0.000233481
0.000230101
0.000226651
0.000223173
0.000219591
0.000215814
0.000211832
0.000207731
0.000203655
0.00019977
0.000196209
0.00019309
0.000190498
0.000188664
0.000187479
0.000187478
0.000188228
0.000186668
0.000192687
0.000287048
0.000288724
0.000290718
0.000292692
0.000294337
0.000295677
0.000296546
0.000296781
0.000296313
0.000295187
0.000293466
0.000291223
0.000288517
0.000285364
0.000281773
0.000277709
0.00027311
0.000267912
0.000262027
0.000255372
0.000247874
0.000239463
0.000230097
0.000219845
0.000208922
0.000197577
0.000185988
0.000174263
0.000162506
0.000150816
0.000139277
0.000127976
0.000117043
0.000106658
9.7163e-05
9.01969e-05
8.75189e-05
9.21831e-05
0.000107038
0.000267795
0.000266151
0.000264214
0.000262154
0.000260238
0.000258237
0.000256239
0.0002543
0.00025236
0.00025044
0.000248518
0.00024656
0.000244555
0.000242481
0.000240315
0.00023805
0.000235672
0.000233179
0.000230572
0.000227873
0.000225091
0.000222194
0.000219203
0.000216172
0.000213044
0.000209727
0.000206211
0.000202566
0.000198909
0.000195381
0.000192105
0.000189193
0.000186726
0.00018489
0.000183634
0.000183213
0.000183612
0.000181556
0.000184287
0.000269219
0.000270556
0.000272167
0.000273764
0.000275061
0.00027609
0.000276724
0.000276822
0.000276326
0.000275281
0.000273741
0.000271765
0.000269406
0.000266684
0.000263596
0.000260106
0.000256162
0.000251699
0.000246633
0.000240873
0.000234339
0.000226948
0.000218642
0.000209456
0.000199572
0.000189205
0.000178521
0.000167607
0.000156557
0.000145453
0.000134371
0.000123381
0.000112587
0.000102124
9.22921e-05
8.4683e-05
8.15057e-05
8.60451e-05
9.99299e-05
0.000251603
0.000250284
0.000248713
0.000247038
0.000245497
0.000243885
0.000242276
0.000240718
0.000239164
0.000237624
0.000236084
0.000234509
0.000232895
0.000231215
0.000229454
0.000227604
0.00022565
0.000223589
0.000221418
0.000219152
0.000216807
0.000214354
0.000211789
0.000209177
0.000206469
0.00020358
0.000200496
0.000197276
0.000194017
0.000190833
0.000187834
0.000185126
0.000182785
0.000180953
0.000179611
0.00017888
0.00017874
0.00017649
0.000176819
0.000252736
0.000253785
0.00025507
0.000256351
0.000257355
0.000258123
0.000258559
0.000258539
0.000258017
0.000257034
0.000255639
0.000253882
0.000251807
0.00024943
0.00024675
0.000243735
0.000240331
0.000236478
0.000232098
0.000227103
0.000221401
0.000214901
0.00020753
0.000199302
0.000190367
0.000180917
0.000171081
0.000160942
0.000150573
0.000140043
0.000129415
0.000118736
0.000108079
9.75289e-05
8.73298e-05
7.90064e-05
7.52882e-05
7.99029e-05
9.31524e-05
0.000236577
0.000235534
0.000234277
0.000232931
0.000231712
0.000230433
0.000229157
0.00022793
0.000226706
0.000225495
0.000224282
0.00022304
0.000221762
0.000220426
0.000219019
0.00021753
0.000215946
0.000214265
0.000212482
0.000210604
0.000208651
0.000206597
0.000204427
0.0002022
0.00019988
0.000197386
0.000194704
0.00019188
0.000188993
0.000186137
0.000183407
0.000180897
0.000178681
0.000176865
0.000175429
0.000174441
0.000173787
0.000171277
0.000169971
0.000237466
0.000238272
0.000239281
0.000240294
0.000241051
0.000241598
0.000241868
0.00024175
0.000241205
0.000240269
0.00023899
0.00023741
0.000235567
0.000233475
0.000231127
0.0002285
0.000225544
0.000222204
0.0002184
0.000214049
0.000209063
0.000203343
0.000196801
0.000189438
0.000181368
0.000172758
0.000163718
0.000154311
0.000144595
0.000134624
0.000124443
0.000114075
0.000103558
9.29189e-05
8.23185e-05
7.31829e-05
6.88504e-05
7.37759e-05
8.67262e-05
0.000222612
0.0002218
0.000220814
0.000219748
0.000218804
0.000217813
0.000216822
0.00021588
0.000214938
0.000214011
0.00021308
0.000212124
0.000211135
0.000210097
0.000208995
0.000207819
0.000206561
0.000205213
0.000203773
0.000202241
0.000200641
0.000198944
0.000197133
0.000195255
0.00019329
0.000191162
0.000188849
0.000186392
0.000183852
0.000181304
0.000178833
0.000176518
0.000174418
0.000172629
0.000171108
0.000169891
0.000168792
0.00016597
0.000163497
0.00022329
0.000223894
0.00022467
0.000225455
0.000226005
0.00022637
0.000226497
0.000226295
0.000225728
0.000224831
0.000223646
0.00022221
0.000220557
0.000218698
0.000216629
0.000214323
0.000211739
0.000208823
0.000205504
0.000201702
0.000197327
0.000192283
0.000186473
0.000179881
0.000172596
0.000164759
0.000156458
0.000147742
0.000138651
0.000129225
0.000119485
0.000109433
9.90683e-05
8.83457e-05
7.73159e-05
6.72371e-05
6.21575e-05
6.76886e-05
8.06677e-05
0.000209608
0.000208996
0.000208238
0.000207414
0.000206704
0.000205957
0.000205213
0.000204514
0.000203815
0.00020313
0.000202443
0.000201732
0.000200994
0.000200213
0.000199376
0.000198474
0.000197498
0.000196442
0.000195303
0.000194077
0.000192788
0.00019141
0.00018992
0.000188364
0.00018672
0.000184921
0.000182946
0.000180825
0.000178607
0.00017635
0.000174123
0.000171996
0.000170016
0.00016825
0.000166663
0.00016523
0.000163755
0.000160629
0.000157277
0.000210107
0.000210543
0.000211125
0.000211712
0.00021209
0.000212303
0.00021231
0.000212038
0.000211452
0.000210588
0.000209481
0.000208164
0.000206667
0.000205
0.000203161
0.000201123
0.000198848
0.000196288
0.000193379
0.000190042
0.000186195
0.000181736
0.000176568
0.000170662
0.000164083
0.000156953
0.000149338
0.000141273
0.00013278
0.000123881
0.000114581
0.000104853
9.46556e-05
8.38686e-05
7.23971e-05
6.12109e-05
5.51541e-05
6.16953e-05
7.50093e-05
0.000197482
0.000197041
0.000196476
0.00019586
0.00019535
0.000194811
0.00019428
0.000193787
0.000193298
0.000192821
0.000192343
0.000191843
0.000191321
0.00019076
0.000190151
0.000189483
0.000188752
0.000187951
0.000187076
0.000186119
0.000185104
0.000184008
0.000182807
0.000181537
0.000180183
0.000178682
0.000177014
0.000175199
0.000173275
0.000171288
0.000169292
0.000167342
0.000165479
0.000163747
0.0001621
0.000160483
0.000158688
0.000155307
0.00015129
0.000197832
0.000198125
0.000198544
0.000198963
0.000199198
0.000199284
0.000199192
0.00019886
0.00019826
0.000197422
0.000196379
0.000195164
0.000193799
0.000192291
0.000190642
0.000188827
0.000186811
0.000184553
0.000181989
0.000179049
0.000175652
0.000171701
0.000167096
0.000161799
0.00015586
0.000149372
0.000142393
0.000134936
0.000127013
0.000118626
0.000109764
0.000100374
9.03714e-05
7.9562e-05
6.7669e-05
5.51894e-05
4.77392e-05
5.58887e-05
6.97973e-05
0.00018616
0.000185863
0.000185464
0.000185023
0.000184684
0.000184325
0.000183973
0.000183659
0.000183349
0.000183049
0.000182749
0.00018243
0.000182092
0.000181719
0.000181305
0.000180843
0.000180324
0.000179742
0.000179093
0.000178373
0.000177598
0.000176751
0.000175807
0.000174792
0.000173695
0.000172461
0.000171069
0.000169531
0.000167875
0.000166136
0.000164355
0.000162575
0.000160823
0.000159128
0.000157436
0.00015567
0.000153601
0.000150009
0.000145517
0.000186383
0.000186557
0.000186839
0.000187119
0.000187231
0.000187212
0.000187039
0.000186659
0.000186048
0.000185233
0.000184248
0.000183115
0.000181859
0.000180489
0.000179001
0.000177372
0.000175575
0.000173569
0.000171298
0.000168696
0.000165687
0.000162178
0.000158067
0.000153309
0.000147944
0.000142043
0.000135649
0.000128763
0.000121382
0.000113495
0.000105072
9.60402e-05
8.62745e-05
7.55095e-05
6.32697e-05
4.93443e-05
3.97022e-05
5.04431e-05
6.50873e-05
0.000175575
0.0001754
0.000175141
0.00017485
0.000174656
0.000174449
0.000174251
0.000174087
0.00017393
0.000173781
0.000173633
0.000173468
0.000173287
0.000173077
0.00017283
0.000172541
0.000172203
0.00017181
0.000171359
0.000170845
0.000170279
0.00016965
0.00016893
0.00016814
0.00016727
0.000166274
0.000165127
0.000163837
0.000162423
0.000160911
0.000159328
0.000157708
0.000156065
0.000154411
0.000152688
0.000150796
0.000148511
0.000144767
0.000139945
0.000175692
0.000175767
0.000175932
0.000176095
0.000176107
0.000176002
0.000175763
0.000175345
0.000174726
0.000173932
0.000172995
0.000171936
0.000170774
0.000169518
0.000168165
0.000166696
0.000165085
0.000163294
0.000161273
0.000158962
0.000156288
0.000153161
0.000149484
0.000145206
0.000140353
0.000134987
0.000129132
0.00012278
0.000115917
0.00010852
0.000100543
9.18932e-05
8.2418e-05
7.17953e-05
5.93686e-05
4.40385e-05
3.05985e-05
4.56593e-05
6.09498e-05
0.000165668
0.000165595
0.000165454
0.000165291
0.00016522
0.000165141
0.000165074
0.000165039
0.00016501
0.000164991