/*--------------------------------*- C++ -*----------------------------------*\
| =========                 |                                                 |
| \\      /  F ield         | OpenFOAM: The Open Source CFD Toolbox           |
|  \\    /   O peration     | Version:  2306                                  |
|   \\  /    A nd           | Website:  www.openfoam.com                      |
|    \\/     M anipulation  |                                                 |
\*---------------------------------------------------------------------------*/
FoamFile
{
    version     2.0;
    format      ascii;
    arch        "LSB;label=32;scalar=64";
    class       volScalarField;
    location    "525";
    object      div(phi);
}
// * * * * * * * * * * * * * * * * * * * * * * * * * * * * * * * * * * * * * //

dimensions      [0 0 -1 0 0 0 0];

internalField   nonuniform List<scalar> 
1340
(
-9.38e-07
1.10721e-06
2.96128e-09
1.88136e-06
-1.95961e-06
-1.06454e-06
1.64191e-07
6.44494e-07
1.098e-07
3.17944e-07
-9.7297e-07
-2.8993e-07
2.52747e-07
2.12015e-07
1.85894e-07
-1.4235e-07
2.0533e-07
-3.98391e-07
-4.67487e-07
4.0489e-09
1.29381e-07
-5.19608e-08
6.25913e-08
-1.48681e-07
8.42958e-08
-7.72507e-07
-3.18839e-07
-5.65572e-08
-2.52316e-08
2.05949e-08
-1.4928e-07
4.67615e-08
-1.48247e-07
-4.88056e-08
-3.94024e-07
-2.78779e-07
-1.30695e-07
-6.00234e-08
-8.8507e-08
3.36447e-08
-1.12183e-07
4.17e-09
-1.20185e-07
7.29664e-08
2.78331e-07
-2.83773e-07
-1.32358e-07
-9.18395e-08
-3.19508e-08
-1.172e-07
4.31107e-08
-8.71993e-08
-1.94057e-08
-2.49685e-09
7.66354e-08
-2.27023e-07
-1.49968e-07
-1.01227e-07
-8.91822e-08
2.32995e-08
-7.54197e-08
2.91498e-08
-5.41203e-08
-1.92675e-08
4.43442e-08
1.31094e-07
-2.38105e-07
-1.35559e-07
-1.01924e-07
-4.39011e-08
-9.10956e-08
4.26351e-08
-4.42062e-08
8.28897e-09
-4.6462e-08
-2.01203e-08
4.05746e-08
-1.91234e-07
-1.37184e-07
-1.0068e-07
-7.74122e-08
2.01441e-08
-5.48712e-08
4.92096e-08
-5.11369e-08
-1.54278e-08
-4.67397e-08
6.20948e-08
-2.29634e-07
-1.98979e-07
-1.20776e-07
-8.61156e-08
-4.05406e-08
-6.99078e-08
4.89548e-08
-2.79487e-08
3.64338e-08
-7.63672e-08
-8.25885e-09
-9.55034e-08
1.29177e-07
-1.57901e-07
-1.13572e-07
-8.67825e-08
-6.13033e-08
2.33411e-08
-3.36811e-08
6.33583e-08
-3.63635e-08
2.08597e-09
-4.2602e-08
6.80217e-09
-2.20372e-07
-1.62861e-07
-1.03742e-07
-7.40636e-08
-3.21376e-08
-5.11077e-08
5.36792e-08
-1.50225e-08
5.682e-08
-5.43845e-08
-1.8017e-08
-6.77667e-08
1.11276e-07
-1.58091e-07
-1.41339e-07
-9.58703e-08
-7.17963e-08
-4.78483e-08
2.5373e-08
-2.38699e-08
7.32085e-08
-2.28675e-08
2.62418e-08
-4.78383e-08
-1.64153e-08
-3.40011e-08
2.57751e-08
-1.4515e-07
-8.45075e-08
-5.71656e-08
-2.48277e-08
-3.80283e-08
5.56193e-08
-3.64135e-09
7.37271e-08
-4.25957e-08
-1.93379e-08
-4.23201e-08
2.45916e-08
3.98969e-08
-2.35025e-08
-1.15628e-07
-8.12363e-08
-5.68781e-08
-3.57505e-08
2.5842e-08
-1.20465e-08
7.718e-08
-7.72321e-09
3.86053e-08
-4.25525e-08
-2.05187e-08
-3.50578e-08
5.96391e-09
1.39047e-08
-1.3575e-07
-6.16213e-08
-4.8885e-08
-1.93382e-08
-2.80186e-08
5.41671e-08
2.13171e-09
8.19951e-08
-3.48439e-08
-2.01996e-08
-3.17189e-08
3.6571e-08
5.03017e-09
-3.23845e-08
-9.22802e-08
-7.80726e-08
-3.6387e-08
-2.8301e-08
2.3529e-08
-9.08363e-09
7.7373e-08
-4.08117e-09
4.76393e-08
-3.31166e-08
-7.41643e-09
-3.71492e-08
-1.60165e-08
6.4609e-08
-3.02696e-07
-2.09774e-07
2.31059e-08
-1.67191e-08
-9.14837e-09
-2.12199e-08
5.09035e-08
5.89336e-09
8.45571e-08
-2.39836e-08
-5.02114e-09
-2.28175e-08
3.95461e-08
5.5e-08
-2.08687e-07
1.53399e-07
4.20016e-08
-3.94475e-08
2.28196e-08
-7.96179e-09
2.35627e-08
-4.04667e-09
7.38284e-08
1.98784e-09
5.62147e-08
-1.9703e-08
8.61091e-09
-2.6067e-08
-4.1832e-08
1.22582e-07
-4.61795e-07
-2.29453e-07
8.04818e-08
3.6018e-08
6.4299e-09
-1.41441e-08
4.6991e-08
5.67383e-09
8.3339e-08
-1.86328e-08
9.15547e-09
-1.97775e-08
5.09274e-08
6.34226e-08
-1.01752e-07
-8.45009e-08
-4.92833e-07
5.31578e-08
2.77627e-09
1.27267e-08
-5.02878e-09
2.19119e-08
-4.25413e-09
6.91656e-08
6.17372e-10
6.04701e-08
-1.24113e-08
1.62705e-08
-1.62151e-08
1.3033e-08
-5.13644e-08
-6.02316e-08
-4.69232e-07
3.5405e-08
8.01226e-09
2.0275e-09
-1.18606e-08
4.26251e-08
5.73519e-09
7.92185e-08
-1.13974e-08
1.42488e-08
-9.56178e-09
5.67774e-08
6.16462e-08
-1.03163e-07
-1.56232e-07
-1.29494e-08
-4.03953e-07
1.47331e-08
-2.2445e-09
-9.25482e-09
1.81948e-08
-2.60516e-09
6.30638e-08
2.82606e-09
5.91728e-08
-4.87064e-09
1.86044e-08
-9.49655e-09
7.75275e-10
-2.27514e-09
-1.61369e-07
-8.11533e-08
8.39454e-08
-6.64198e-09
-4.01293e-09
-2.5149e-09
-1.12954e-08
3.80265e-08
3.6139e-09
7.34469e-08
-1.12446e-08
1.4821e-08
-1.06877e-08
6.4944e-08
4.19869e-08
-8.24028e-08
-1.83817e-07
1.27271e-07
-2.59166e-07
1.33702e-08
-7.31673e-09
-1.12227e-08
1.52037e-08
-4.20849e-09
5.71275e-08
-5.46847e-10
5.59105e-08
-6.9107e-09
2.17413e-08
-1.03951e-08
1.18268e-08
-1.35468e-07
-7.73294e-10
-1.57294e-07
2.17467e-07
-2.95342e-07
-1.01702e-08
-8.56116e-09
-4.46438e-09
-1.06768e-08
3.36557e-08
2.63156e-09
6.69166e-08
-1.01885e-08
1.44468e-08
-5.90111e-09
7.01758e-08
-3.32601e-08
-6.5836e-08
-1.97431e-07
4.34839e-08
-3.26169e-08
1.43922e-07
8.10844e-09
-1.11178e-08
-1.17772e-08
1.26737e-08
-3.57362e-09
5.07636e-08
-4.23833e-10
5.12524e-08
-4.82656e-09
2.39104e-08
-1.08536e-08
-2.67306e-08
-1.0703e-07
-6.90108e-08
-4.1091e-08
1.79732e-07
-2.45101e-07
-1.71426e-08
-1.05233e-08
-5.20971e-09
-1.01463e-08
2.95229e-08
2.59874e-10
6.01528e-08
-1.21282e-08
1.36545e-08
-2.52445e-09
5.89928e-08
-1.06948e-08
-1.14521e-07
-6.54897e-08
4.00561e-08
-2.26904e-09
2.17783e-07
-2.98929e-07
4.19532e-09
-1.0796e-08
-1.11725e-08
1.08672e-08
-5.09187e-09
4.49168e-08
-3.79343e-09
4.65336e-08
-5.47214e-09
2.51359e-08
-7.52742e-09
-2.65566e-08
-6.39668e-08
-6.00988e-08
1.39233e-08
1.07648e-07
-3.50288e-09
7.61827e-08
-1.52611e-08
-1.02776e-08
-4.95477e-09
-9.354e-09
2.5713e-08
-7.89331e-10
5.33163e-08
-1.09872e-08
1.32226e-08
5.49396e-10
5.6698e-08
-3.52276e-10
-8.36357e-08
-4.31379e-08
6.90764e-08
1.08315e-08
2.47483e-07
-2.26377e-07
2.24363e-09
-1.09039e-08
-1.01989e-08
9.26252e-09
-4.66572e-09
3.90626e-08
-3.80834e-09
4.17129e-08
-3.62629e-09
2.39644e-08
-3.25979e-09
-1.29753e-08
-3.74436e-08
-3.06007e-08
2.8002e-08
1.89214e-07
6.74421e-09
1.9007e-07
-2.21193e-07
-1.66724e-08
-9.44363e-09
-4.45348e-09
-8.68983e-09
2.22398e-08
-2.74135e-09
4.68495e-08
-1.21222e-08
1.20316e-08
3.91311e-10
5.45454e-08
8.25648e-09
-5.73199e-08
-2.00444e-08
6.99575e-08
6.14179e-08
1.80632e-07
-3.10686e-08
1.0762e-07
1.54868e-09
-8.96426e-09
-8.93848e-09
8.04458e-09
-5.76191e-09
3.39291e-08
-6.33097e-09
3.70212e-08
-4.38582e-09
2.18675e-08
-2.10499e-09
-6.67158e-09
-2.72986e-08
-2.64275e-08
1.60613e-08
1.78787e-07
-1.08005e-08
2.41541e-07
-2.75576e-07
-1.28986e-08
-8.02837e-09
-3.70051e-09
-7.84161e-09
1.91085e-08
-3.40437e-09
4.07318e-08
-1.09974e-08
1.08902e-08
9.1787e-10
4.90905e-08
7.15451e-09
-5.52663e-08
-2.67783e-08
4.37228e-08
2.7185e-08
2.30768e-07
-5.26251e-08
1.69589e-07
-2.14776e-07
1.70722e-09
-8.1678e-09
-7.75038e-09
6.87137e-09
-5.27412e-09
2.90673e-08
-6.07517e-09
3.24449e-08
-3.42649e-09
1.91956e-08
-3.37062e-09
-9.11116e-09
-3.03219e-08
-3.60382e-08
-3.52261e-09
1.35246e-07
5.82364e-09
1.45836e-07
-4.59527e-08
7.14605e-08
-1.26662e-08
-6.75435e-09
-3.04709e-09
-7.18008e-09
1.63489e-08
-4.66498e-09
3.52377e-08
-1.17818e-08
9.18227e-09
-6.26716e-10
4.14908e-08
3.30421e-09
-5.57178e-08
-3.31644e-08
2.51948e-08
-2.15166e-09
2.07192e-07
-5.26943e-08
1.73873e-07
-3.11571e-08
1.87971e-09
-6.23842e-09
-6.5807e-09
5.97678e-09
-5.90486e-09
2.49573e-08
-7.73142e-09
2.81458e-08
-4.5914e-09
1.58517e-08
-5.68235e-09
-1.20838e-08
-3.13124e-08
-3.83308e-08
-1.56804e-08
1.07126e-07
-1.79763e-08
1.81846e-07
1.74384e-08
1.1446e-07
-6.66281e-08
-9.18082e-09
-5.41951e-09
-2.35868e-09
-6.38987e-09
1.39426e-08
-4.8342e-09
3.02156e-08
-1.08298e-08
7.49194e-09
-1.47657e-09
3.4297e-08
1.38711e-10
-5.26145e-08
-3.37153e-08
1.72306e-08
-1.33743e-08
1.70422e-07
-2.54839e-08
1.20074e-07
-5.66434e-08
6.56571e-08
2.26583e-09
-5.49543e-09
-5.55067e-09
5.13904e-09
-5.24242e-09
2.11718e-08
-7.14262e-09
2.40811e-08
-4.35515e-09
1.26355e-08
-7.91876e-09
-1.35386e-08
-2.9149e-08
-3.54221e-08
-2.08211e-08
8.96451e-08
-2.01016e-08
1.57272e-07
-3.87832e-08
1.81281e-08
-1.93797e-08
-8.79353e-09
-4.34323e-09
-1.80731e-09
-5.70286e-09
1.18582e-08
-5.37583e-09
2.5785e-08
-1.12938e-08
5.60105e-09
-3.49863e-09
2.76424e-08
-1.65196e-09
-4.73666e-08
-3.17875e-08
1.43339e-08
-1.35357e-08
1.30634e-07
-2.86696e-08
-3.65506e-08
-6.09956e-09
-1.12029e-07
2.42571e-09
-3.95634e-09
-4.57973e-09
4.48777e-09
-5.41238e-09
1.79817e-08
-8.041e-09
2.0392e-08
-5.48398e-09
9.59358e-09
-9.58388e-09
-1.44461e-08
-2.61376e-08
-2.87594e-08
-2.05835e-08
7.11035e-08
-1.60509e-08
-2.01953e-08
-3.4744e-08
-6.66419e-08
2.61277e-08
-6.448e-08
-6.0279e-09
-3.2948e-09
-1.27815e-09
-4.94615e-09
1.00186e-08
-5.14882e-09
2.17635e-08
-1.03292e-08
4.1331e-09
-4.16123e-09
2.17852e-08
-2.26208e-09
-3.89775e-08
-2.67532e-08
1.58359e-08
-3.87057e-09
-4.77115e-09
-2.77471e-08
2.00355e-08
-2.48632e-08
8.28882e-08
-3.98079e-08
2.70659e-09
-3.40465e-09
-3.76127e-09
3.8203e-09
-4.63111e-09
1.50247e-08
-7.19991e-09
1.70779e-08
-5.10999e-09
7.09019e-09
-1.03075e-08
-1.26075e-08
-1.92531e-08
-2.11454e-08
-7.57378e-09
-1.49787e-08
1.22482e-09
3.70102e-08
-6.29214e-09
1.17327e-07
-1.76393e-08
7.2979e-08
-5.69407e-09
-2.50626e-09
-8.77943e-10
-4.26204e-09
8.36632e-09
-5.19645e-09
1.82305e-08
-1.02677e-08
2.80403e-09
-5.25122e-09
1.75586e-08
-9.00996e-10
-3.06022e-08
-1.33493e-08
-1.13678e-08
5.12627e-09
3.6909e-08
-5.74508e-09
1.58669e-07
-2.1435e-08
1.32702e-07
-1.12434e-07
2.74069e-09
-2.24189e-09
-3.02138e-09
3.24504e-09
-4.54146e-09
1.24847e-08
-7.53371e-09
1.41791e-08
-5.58957e-09
5.16712e-09
-1.04376e-08
-9.48117e-09
-1.17306e-08
-1.1075e-08
-7.051e-09
1.27479e-08
8.13594e-10
9.71261e-08
-1.41246e-08
1.4532e-07
-3.51705e-08
9.08561e-08
-1.15664e-07
-3.57939e-09
-1.76421e-09
-5.40978e-10
-3.6333e-09
6.86126e-09
-4.82693e-09
1.50465e-08
-9.15983e-09
1.96057e-09
-5.09835e-09
1.46011e-08
2.26363e-10
-2.19395e-08
-6.09426e-09
-5.32983e-09
1.17789e-08
4.54802e-08
7.42094e-10
1.34675e-07
-2.59902e-08
6.76865e-08
-2.85908e-08
1.33267e-08
2.86486e-09
-1.88965e-09
-2.44745e-09
2.62264e-09
-3.8432e-09
1.01264e-08
-6.59906e-09
1.16709e-08
-4.83511e-09
4.00015e-09
-9.63974e-09
-7.57814e-09
-8.06845e-09
-8.78066e-09
-6.99793e-09
8.47853e-09
-2.99204e-09
7.91882e-08
-2.6246e-08
1.17371e-07
-3.82443e-08
3.72436e-08
-6.59591e-08
-3.35819e-09
-1.25656e-09
-3.36844e-10
-3.06279e-09
5.49395e-09
-4.6232e-09
1.22835e-08
-8.70268e-09
1.35326e-09
-5.0119e-09
1.22277e-08
2.26199e-10
-1.87449e-08
-6.33033e-09
-8.17877e-09
4.67569e-09
3.4813e-08
-9.04643e-09
1.09492e-07
-3.4931e-08
5.58271e-08
-3.602e-08
3.51221e-08
2.78868e-09
-1.09091e-09
-1.93966e-09
2.08012e-09
-3.61568e-09
8.104e-09
-6.55841e-09
9.54553e-09
-4.73285e-09
3.25678e-09
-8.6881e-09
-5.94782e-09
-5.90925e-09
-5.97984e-09
-4.71737e-09
9.37745e-09
-2.47042e-09
6.78417e-08
-2.68854e-08
9.97526e-08
-4.06712e-08
7.14758e-08
-7.98902e-08
-1.80508e-09
-7.74219e-10
-1.4026e-10
-2.5197e-09
4.26288e-09
-4.1626e-09
9.80434e-09
-7.56999e-09
1.08667e-09
-4.18139e-09
1.08431e-08
1.28329e-09
-1.32291e-08
-1.96388e-09
-2.18599e-09
9.44128e-09
3.37973e-08
-3.00041e-09
9.19711e-08
-3.38586e-08
8.06109e-08
-3.64931e-08
5.13991e-08
-8.28701e-08
2.77072e-09
-8.54568e-10
-1.51509e-09
1.53665e-09
-2.96228e-09
6.23515e-09
-5.58118e-09
7.6952e-09
-3.76628e-09
2.95469e-09
-7.0477e-09
-4.0736e-09
-3.16141e-09
-3.82668e-09
-3.25033e-09
7.61954e-09
-3.09413e-09
5.42503e-08
-2.36196e-08
8.36699e-08
-3.56878e-08
3.40483e-08
-2.78992e-08
4.71593e-09
-1.59291e-09
-4.10251e-10
-3.56052e-12
-1.95888e-09
3.15907e-09
-3.70715e-09
7.61018e-09
-6.89851e-09
8.81951e-10
-3.18738e-09
9.60811e-09
1.49069e-09
-1.13223e-08
-2.57932e-09
-4.53089e-09
3.97202e-09
2.49036e-08
-8.37139e-09
7.52279e-08
-3.41435e-08
6.65647e-08
-3.67412e-08
1.43276e-08
-5.18414e-08
2.66448e-09
-2.60125e-10
-1.08012e-09
1.0773e-09
-2.4921e-09
4.64693e-09
-5.28703e-09
6.11492e-09
-3.30398e-09
2.87396e-09
-5.89424e-09
-3.39242e-09
-2.42338e-09
-3.21565e-09
-2.90655e-09
6.65239e-09
-3.81977e-09
4.62619e-08
-2.23662e-08
7.02156e-08
-3.47449e-08
2.28271e-08
-3.32496e-08
-4.98421e-10
-3.87871e-10
-2.05115e-11
1.8184e-10
-1.35481e-09
2.21214e-09
-3.13244e-09
5.69589e-09
-5.96568e-09
1.27546e-09
-2.28136e-09
8.19501e-09
1.97294e-09
-8.6558e-09
-8.37356e-10
-1.70377e-09
6.08469e-09
2.31877e-08
-4.79535e-09
6.39569e-08
-2.9015e-08
4.90739e-08
-3.56681e-08
-1.90695e-10
-4.31475e-08
2.56758e-09
-8.99405e-11
-6.23269e-10
8.38925e-10
-1.83318e-09
3.54878e-09
-4.24864e-09
5.13635e-09
-2.00157e-09
2.91435e-09
-4.64616e-09
-3.10815e-09
-2.13735e-09
-9.3368e-10
-3.12779e-09
5.06007e-09
-5.31664e-09
3.66809e-08
-2.07949e-08
4.95662e-08
-3.31822e-08
-1.11994e-08
-2.83406e-08
-2.62072e-08
1.35809e-10
5.53617e-10
4.79071e-10
-8.15496e-10
2.08883e-09
-2.5153e-09
4.89767e-09
-4.78478e-09
7.78801e-10
-2.30918e-09
5.96663e-09
-6.34531e-10
-2.54382e-09
-6.07423e-09
-3.27607e-12
-1.89611e-09
1.84071e-08
-1.07356e-08
4.22991e-08
-2.85418e-08
-8.61032e-09
-3.37124e-08
-1.98801e-08
-1.49371e-08
-1.60254e-08
2.24358e-09
1.76718e-10
-7.14566e-11
1.21292e-09
-1.39901e-09
3.60086e-09
-3.90433e-09
3.74898e-09
-1.56434e-09
1.93697e-09
-5.64871e-09
1.26705e-09
-7.6606e-09
5.37214e-09
-1.13786e-08
9.49249e-09
-1.39341e-08
1.96068e-08
-2.61478e-08
-9.60133e-09
-3.25161e-08
-8.80047e-10
-2.15335e-08
1.8676e-08
-2.06192e-08
1.0428e-09
1.09465e-09
8.48561e-10
-5.37947e-10
2.79993e-09
-2.25853e-09
4.1494e-09
-3.32161e-09
1.18889e-10
-2.77605e-09
4.96296e-09
-2.1028e-09
5.03075e-10
-7.25219e-09
-1.58548e-09
-3.70031e-09
2.48392e-09
-8.00752e-09
-7.34318e-09
-1.80392e-08
4.77028e-09
-1.85634e-08
3.49976e-08
-1.28712e-08
1.4875e-08
2.47823e-09
5.87072e-10
3.60321e-10
1.7843e-09
-1.17443e-09
3.35836e-09
-3.18917e-09
1.96855e-09
-1.72043e-09
1.05936e-09
-5.14838e-09
1.03209e-09
-3.62277e-09
-4.08912e-09
-2.53837e-09
-2.88918e-09
1.82929e-09
-1.10009e-09
-1.63266e-09
6.89036e-09
-1.09061e-08
3.82086e-08
-1.11653e-08
1.78191e-08
-1.70776e-08
9.26645e-10
1.13539e-09
9.78684e-10
-3.99725e-10
2.36502e-09
-1.88434e-09
2.72889e-09
-2.71735e-09
-1.90875e-10
-2.94997e-09
3.357e-09
-1.16435e-09
-5.23901e-09
-3.72341e-09
-6.10361e-09
-1.69221e-11
-1.53379e-09
1.18673e-09
9.03112e-10
-3.75955e-09
2.84737e-08
-9.1041e-09
3.01267e-08
-9.25549e-09
1.26155e-08
2.7146e-09
9.56919e-10
4.54078e-10
1.46003e-09
-1.03835e-09
2.19733e-09
-2.69573e-09
1.06936e-09
-2.11125e-09
5.67078e-10
-3.59166e-09
-3.19371e-09
-1.24586e-09
-9.85491e-09
1.87135e-09
-9.30775e-09
6.02805e-09
-7.8098e-09
5.57672e-09
1.87457e-08
-3.83736e-09
3.97981e-08
-8.68205e-09
1.38521e-08
-1.63904e-08
1.30321e-09
1.21406e-09
9.40777e-10
-4.19594e-10
1.46546e-09
-1.76021e-09
1.55004e-09
-2.42782e-09
-4.06119e-10
-2.45552e-09
1.49914e-09
-1.05902e-09
-6.02614e-09
-3.22213e-09
-4.29468e-09
-8.05325e-10
-4.04373e-09
-2.51585e-10
8.72941e-09
-5.37317e-09
3.34843e-08
-1.06747e-08
1.98267e-08
-9.11274e-09
8.13861e-09
2.71573e-09
1.11072e-09
3.0809e-10
8.94718e-10
-1.15069e-09
1.10663e-09
-2.29717e-09
5.35767e-10
-2.02647e-09
3.40767e-10
-2.76042e-09
-2.52838e-09
-3.24083e-09
-2.84155e-09
-3.57163e-09
-1.28432e-09
-4.11855e-09
-1.67039e-10
-7.69206e-09
1.76212e-08
-1.27598e-08
2.57741e-08
-1.02731e-08
5.62108e-09
-1.38501e-08
1.47385e-09
1.081e-09
7.27894e-10
-6.5653e-10
6.49546e-10
-1.68834e-09
7.4699e-10
-1.968e-09
-4.18037e-10
-1.78545e-09
1.25665e-09
-3.13029e-09
-3.12609e-09
-3.69677e-09
-2.59404e-09
-2.07168e-09
-3.22312e-09
-1.9371e-09
8.75456e-09
-8.23916e-09
2.21242e-08
-1.27529e-08
5.3398e-10
-8.96398e-09
-5.87181e-09
2.77237e-09
1.18081e-09
-1.45637e-10
5.79409e-10
-1.17176e-09
3.69131e-10
-1.79134e-09
2.29772e-10
-1.56566e-09
5.42377e-10
-3.64539e-09
-1.0657e-09
-5.2946e-09
-9.41418e-12
-5.57704e-09
2.03642e-09
-6.26958e-09
3.93302e-09
-9.88457e-09
1.02761e-08
-1.48359e-08
-1.80416e-09
-1.24708e-08
-4.95621e-09
-4.17122e-09
-3.62016e-09
1.57851e-09
5.84058e-10
6.66446e-10
-7.52703e-10
1.81306e-10
-1.17451e-09
1.34683e-10
-1.28036e-09
-3.82253e-10
-1.67687e-09
7.07572e-10
-3.33355e-09
-2.04631e-09
-2.53983e-09
-5.02216e-10
-2.35226e-09
9.59265e-10
-4.23455e-09
2.02805e-09
-9.86795e-09
-4.74358e-09
-1.20826e-08
2.44115e-09
-6.81491e-09
8.02266e-09
-8.73397e-09
9.82115e-10
1.80032e-09
-1.35307e-09
1.22381e-09
-5.27948e-10
-2.58932e-10
-9.63264e-10
-1.96474e-10
-1.18547e-09
1.46086e-10
-2.71955e-09
-1.78054e-09
-1.77792e-09
-1.88805e-09
-4.7396e-10
-2.38296e-09
3.08391e-10
-3.65155e-09
-4.1193e-10
-3.68804e-09
-3.53592e-09
4.27386e-09
-8.01391e-09
6.34621e-09
-8.12629e-09
3.12686e-09
3.47363e-09
-1.10187e-09
1.41504e-09
-1.32807e-11
4.01154e-10
-5.34669e-10
-5.29888e-10
-9.05868e-10
-1.07736e-09
-1.81416e-09
-1.0664e-09
-2.2646e-09
-1.83381e-09
-1.77389e-09
-9.55881e-10
-2.09809e-09
-7.5256e-10
-3.50064e-09
-1.36036e-09
-4.75363e-09
-1.85487e-09
-9.33939e-09
5.80431e-09
-9.0127e-09
2.94634e-09
-1.27348e-08
-4.882e-10
8.98181e-10
4.08637e-10
6.77239e-10
1.30489e-10
-4.51132e-10
-7.73775e-10
-7.21902e-10
-9.11009e-10
-8.05194e-10
-1.57259e-09
-2.14112e-09
-1.00014e-09
-2.27585e-09
-3.61544e-10
-3.26745e-09
-7.99907e-10
-5.11373e-09
-2.71365e-09
-5.46688e-09
-4.09159e-09
4.29747e-09
-7.45076e-09
-9.9734e-10
-1.02809e-08
-4.27989e-09
9.9149e-10
2.02315e-10
1.90771e-10
9.99717e-11
-1.04802e-10
-1.88034e-10
-1.6933e-10
-1.68121e-10
-1.48735e-10
-3.58786e-10
-5.91546e-10
-4.8565e-10
-8.09583e-10
-3.85561e-10
-1.36511e-09
-7.42717e-10
-2.56182e-09
-1.55649e-09
-3.95119e-09
-3.38705e-09
-1.33043e-09
-5.44858e-09
-3.5769e-09
-7.54082e-09
-6.285e-09
-9.37387e-09
)
;

boundaryField
{
    inlet
    {
        type            extrapolatedCalculated;
        value           nonuniform List<scalar> 
26
(
9.9149e-10
2.02315e-10
1.90771e-10
9.99717e-11
-1.04802e-10
-1.88034e-10
-1.6933e-10
-1.68121e-10
-1.48735e-10
-3.58786e-10
-5.91546e-10
-4.8565e-10
-8.09583e-10
-3.85561e-10
-1.36511e-09
-7.42717e-10
-2.56182e-09
-1.55649e-09
-3.95119e-09
-3.38705e-09
-1.33043e-09
-5.44858e-09
-3.5769e-09
-7.54082e-09
-6.285e-09
-9.37387e-09
)
;
    }
    outlet
    {
        type            extrapolatedCalculated;
        value           nonuniform List<scalar> 0();
    }
    walls
    {
        type            extrapolatedCalculated;
        value           nonuniform List<scalar> 0();
    }
    frontAndBack
    {
        type            empty;
    }
    procBoundary0to1
    {
        type            processor;
        value           nonuniform List<scalar> 
94
(
2.69265e-06
1.1402e-06
1.1402e-06
5.90965e-07
5.90965e-07
2.24714e-07
2.24714e-07
1.98774e-07
1.98774e-07
3.65757e-07
3.65757e-07
2.9264e-07
1.54888e-07
1.54888e-07
6.75944e-08
9.30448e-08
9.30448e-08
2.556e-07
-2.91944e-07
3.34394e-07
3.34394e-07
1.79782e-07
7.64552e-08
7.64552e-08
2.61753e-08
-2.76868e-08
7.18379e-09
7.18379e-09
4.2535e-09
-7.82073e-07
1.1691e-07
1.1691e-07
-4.06913e-07
1.8825e-07
1.8825e-07
1.36915e-07
-1.77594e-07
4.1593e-07
4.1593e-07
2.52658e-07
-1.78328e-07
3.84071e-07
3.84071e-07
1.58563e-07
-1.58035e-07
2.97849e-07
2.97849e-07
1.62965e-07
-2.04605e-07
2.5929e-07
2.5929e-07
1.08917e-07
8.56079e-08
1.63629e-07
1.63629e-07
8.68273e-08
-1.19277e-08
-2.13036e-08
4.52051e-08
4.52051e-08
4.57918e-09
5.61536e-08
-4.64907e-08
1.37772e-07
1.37772e-07
5.09252e-08
-3.82347e-08
1.75771e-08
-5.02007e-08
7.22271e-08
7.22271e-08
2.65762e-08
-3.97635e-08
-8.16309e-09
-4.25887e-08
-2.12868e-08
-2.45861e-08
-2.45861e-08
-1.90391e-08
1.00253e-08
-1.65597e-08
8.66962e-09
-1.22725e-08
6.08932e-09
-9.96653e-09
-6.85922e-10
-5.47902e-09
-5.47902e-09
-5.03953e-09
4.15386e-09
-8.70773e-09
-2.86399e-09
-1.3994e-08
-1.32438e-08
)
;
    }
    procBoundary0to4
    {
        type            processor;
        value           nonuniform List<scalar> 
72
(
-1.64789e-06
-5.37175e-07
-9.34601e-07
-3.33764e-07
-3.18865e-07
-2.74896e-07
-1.83927e-07
-2.22122e-07
-1.37936e-07
-1.88814e-07
-1.05532e-07
-1.66141e-07
-8.94306e-08
-1.43105e-07
-7.61356e-08
-1.43052e-07
-7.68305e-08
-1.32601e-07
-4.28722e-08
-2.46406e-07
-2.84129e-08
-1.40546e-07
-1.34334e-07
-1.34334e-07
-1.42142e-08
9.3911e-09
-1.43021e-08
1.01396e-08
-1.68495e-08
1.02841e-08
-1.70183e-08
5.5862e-09
-1.74513e-08
6.28819e-09
-1.51279e-08
4.19982e-09
-1.39687e-08
5.61585e-09
-1.12967e-08
4.33927e-09
-1.00317e-08
5.47864e-09
-7.79409e-09
4.43379e-09
-6.71093e-09
5.20128e-09
-4.95314e-09
4.27718e-09
-4.07871e-09
4.73306e-09
-2.77757e-09
3.90605e-09
-2.0475e-09
4.13517e-09
-9.83581e-10
3.56134e-09
-4.44283e-10
3.95285e-09
-7.6189e-11
4.53729e-09
-9.5175e-11
4.0027e-09
5.24464e-10
3.33779e-09
1.20427e-09
3.16824e-09
1.50079e-09
2.65218e-09
2.03461e-09
3.39715e-10
2.89002e-09
5.7e-10
)
;
    }
    procBoundary0to5
    {
        type            processor;
        value           nonuniform List<scalar> 4(-2.13314e-07 -1.91497e-07 1.7057e-06 -1.43088e-06);
    }
}


// ************************************************************************* //
