/*--------------------------------*- C++ -*----------------------------------*\
| =========                 |                                                 |
| \\      /  F ield         | OpenFOAM: The Open Source CFD Toolbox           |
|  \\    /   O peration     | Version:  2306                                  |
|   \\  /    A nd           | Website:  www.openfoam.com                      |
|    \\/     M anipulation  |                                                 |
\*---------------------------------------------------------------------------*/
FoamFile
{
    version     2.0;
    format      ascii;
    arch        "LSB;label=32;scalar=64";
    class       volScalarField;
    location    "500";
    object      magR;
}
// * * * * * * * * * * * * * * * * * * * * * * * * * * * * * * * * * * * * * //

dimensions      [0 2 -2 0 0 0 0];

internalField   nonuniform List<scalar> 
10720
(
0.023538
0.0274623
0.0324771
0.0392891
0.0473599
0.0576333
0.0707697
0.0870427
0.107706
0.134069
0.16813
0.213099
0.273425
0.356422
0.474563
0.647437
0.913675
1.32394
2.04423
3.16547
5.69254
9.51444
22.2743
43.4767
48.1781
46.0955
45.3012
46.1329
47.1591
47.4156
46.784
45.3861
43.1296
40.0429
36.0567
31.2643
24.76
18.2993
4.26581
0.0200321
0.0171884
0.0140008
0.0112669
0.0086856
0.00635915
0.00448042
0.00335175
0.00350619
0.00474345
0.00705508
0.0106247
0.0158801
0.0234976
0.0343389
0.0497157
0.0718251
0.104784
0.156208
0.239903
0.383332
0.637033
1.121
2.05261
4.08368
8.35114
18.6656
38.4622
54.5031
61.3868
63.3395
63.659
63.2924
62.397
61.0188
59.2334
56.6214
53.5797
43.8856
0.00360469
0.0035844
0.00354304
0.00344051
0.00328197
0.00309976
0.00288482
0.00264314
0.00240399
0.0021695
0.00194594
0.00179066
0.0017693
0.00194391
0.0025245
0.00397256
0.00759026
0.0159145
0.0384353
0.0942134
0.27936
0.771381
2.37062
7.59356
14.8478
22.3418
29.4098
34.4226
35.4236
32.5037
27.7016
22.8396
18.8958
15.873
13.551
11.7092
10.4219
9.07991
9.74968
0.0035722
0.00352403
0.00342528
0.00327883
0.00307843
0.00281403
0.00250372
0.0022027
0.00192412
0.00164763
0.00138453
0.00115676
0.000964327
0.000801119
0.000662816
0.000546301
0.000447472
0.00036386
0.000290609
0.000223737
0.000157664
9.31612e-05
3.22831e-05
5.26515e-06
1.34238e-05
0.00191624
0.010375
0.0836546
0.281746
0.55142
0.824378
1.06464
1.26669
1.44422
1.61011
1.7808
1.96131
2.36382
3.2879
0.00241978
0.00240068
0.00234654
0.00226375
0.00217717
0.00208202
0.00198581
0.00189929
0.00182488
0.00176715
0.00172253
0.00169697
0.00169013
0.00170492
0.00171043
0.00165727
0.00140703
0.00119032
2.15985e-05
0.00168923
0.000378846
0.00146498
5.20656e-05
0.0207117
0.226394
0.802291
2.03676
4.57177
9.02699
14.9075
20.2183
22.8283
22.3163
20.0372
17.384
14.8931
12.9414
10.7138
12.0386
0.00243863
0.00243561
0.00242913
0.00238587
0.00230911
0.00218026
0.00200263
0.00179981
0.00161135
0.00141748
0.00120888
0.00100688
0.000826098
0.00067042
0.000541888
0.000438106
0.000357222
0.00029587
0.000251245
0.000219186
0.000197101
0.000182769
0.000174901
0.000170575
0.000170352
0.000169185
0.00017994
0.000106713
0.000756714
0.00502253
0.0142338
0.0299799
0.0675796
0.141401
0.250398
0.383847
0.528971
0.633161
1.0807
0.00204215
0.00204636
0.00203608
0.00201912
0.00198413
0.00193205
0.00186712
0.00178607
0.00169343
0.00159096
0.00148086
0.00136465
0.00124345
0.00111951
0.00099389
0.00086191
0.000729318
0.000616015
0.000471256
0.000338807
7.92499e-05
0.000144637
1.84015e-05
0.00519109
0.0267868
0.000357923
0.00487918
0.00710353
0.0508542
0.452691
1.96377
5.33653
9.99732
13.8712
15.5405
15.316
14.4034
12.6065
13.5763
0.00202024
0.00198706
0.00193497
0.00187223
0.00179357
0.00169056
0.00157029
0.00144231
0.00130906
0.00116444
0.00101496
0.000874827
0.000751019
0.000644318
0.000554162
0.000478581
0.000416398
0.000365753
0.000325104
0.000292011
0.000265121
0.000242534
0.000222291
0.000201004
0.00017913
0.000160942
0.000147193
0.000137313
0.000125328
0.000109904
8.24943e-05
5.19381e-05
0.000414625
0.000705079
0.00263462
0.0141386
0.0467136
0.117996
0.429381
0.0015321
0.00152939
0.00151745
0.00149615
0.0014632
0.00141852
0.00136452
0.00130202
0.00123305
0.00116185
0.00109069
0.00102244
0.000960141
0.00090569
0.000860413
0.000822351
0.000782336
0.000731587
0.000674115
0.000588904
0.000491956
0.00022609
2.756e-05
5.54416e-06
0
1.79649e-05
0.00106054
0.00657471
0.0330565
0.0171316
0.0373321
0.0656231
0.410402
2.39697
6.15389
9.97287
12.386
12.8386
14.2907
0.00152813
0.00151732
0.0014958
0.00146134
0.00141275
0.0013439
0.00126153
0.00117308
0.00107878
0.000975268
0.000867585
0.000762215
0.000663259
0.000572435
0.000490963
0.000419361
0.000357802
0.000306016
0.0002634
0.000228655
0.000200605
0.000177734
0.000158417
0.000139991
0.000121266
0.000103972
9.02366e-05
8.07406e-05
7.65755e-05
7.07208e-05
8.65945e-05
2.03329e-05
0.000134551
0.000653086
0.00163584
0.00138243
0.00195876
0.00364723
0.0833422
0.0012558
0.00126116
0.00126065
0.00125615
0.00124381
0.00122381
0.00119703
0.0011624
0.00112064
0.00107288
0.00101954
0.000961856
0.00090121
0.000838671
0.000775351
0.000709716
0.000638204
0.00056482
0.000495633
0.000435699
0.00039637
0.000336934
0.000273884
7.13544e-05
1.25109e-05
5.76743e-06
1.20753e-06
0
0
0.00240689
0.00890996
0.0456357
0.00860559
0.11125
0.243321
2.28065
6.36689
10.2638
13.636
0.00124442
0.0012287
0.00120582
0.00117563
0.00113689
0.00108596
0.00102734
0.00096445
0.000896062
0.000820461
0.000741285
0.00066248
0.000587068
0.000516805
0.000452913
0.000396189
0.000346882
0.000304851
0.000269606
0.000240243
0.000215733
0.000194776
0.00017593
0.000157178
0.000137706
0.000119166
0.000102994
8.94591e-05
7.81058e-05
6.86644e-05
6.05695e-05
5.32719e-05
4.27182e-05
2.99772e-05
6.09266e-07
0.000202265
0.00033515
0.000837183
0.00945718
0.00101587
0.00102033
0.00102104
0.00101846
0.00101034
0.000996296
0.000976651
0.000950828
0.000919056
0.000882212
0.000840925
0.000796229
0.000749502
0.000702073
0.00065505
0.000610002
0.000569162
0.00053113
0.000492268
0.000451249
0.000412728
0.000381283
0.000358416
0.000297881
0.00019721
0.000102131
1.81649e-05
6.27479e-06
3.57894e-06
3.2092e-07
0
0
0.00110391
0.0351036
0.026536
0.156997
1.04547
5.23333
10.9396
0.00100752
0.000996227
0.000979796
0.000957167
0.000927814
0.000890148
0.000847821
0.000801683
0.000750874
0.000695161
0.000636604
0.000577412
0.000519381
0.000463748
0.000411553
0.000363628
0.000320435
0.000282254
0.000249085
0.000220536
0.000196058
0.000174833
0.000155813
0.000137535
0.000119233
0.000101891
8.66467e-05
7.38159e-05
6.31342e-05
5.44619e-05
4.79752e-05
4.37548e-05
4.12117e-05
3.72438e-05
2.78679e-05
3.55337e-06
1.59448e-06
7.11913e-08
0.000263148
0.000841976
0.000847724
0.000851137
0.000852513
0.000850179
0.000843802
0.000833637
0.000818938
0.0007997
0.000776334
0.000748805
0.000717648
0.000683475
0.000646845
0.000608412
0.00056896
0.000527994
0.000484456
0.000440385
0.000398572
0.000361403
0.000332344
0.000312218
0.000298237
0.000269767
0.000224378
0.000167385
0.000110533
6.54003e-05
5.06322e-06
3.55012e-06
1.50693e-07
0
0
0.00382971
0.0663307
0.121769
1.18877
6.55392
0.00083334
0.000822932
0.000808981
0.000790464
0.000767263
0.00073851
0.000707099
0.000672473
0.000634133
0.000592539
0.000548627
0.000503774
0.000459086
0.0004154
0.000373568
0.000334403
0.000298397
0.000265982
0.00023732
0.000212245
0.000190353
0.00017103
0.000153436
0.000136467
0.000119547
0.000103401
8.89176e-05
7.63436e-05
6.54157e-05
5.58907e-05
4.77007e-05
4.0688e-05
3.46843e-05
2.95469e-05
2.6049e-05
2.36408e-05
1.78414e-05
1.83989e-06
1.76362e-05
0.000702354
0.000707889
0.000711922
0.00071444
0.000714348
0.000711283
0.000705316
0.000695788
0.000682615
0.000665919
0.000645646
0.000622083
0.000595645
0.000566758
0.000536049
0.000504011
0.000471377
0.000439413
0.000408234
0.000377814
0.000348592
0.000321881
0.000298817
0.000279184
0.000258315
0.000232427
0.000204199
0.00017382
0.000147316
0.000107085
7.05978e-05
3.02749e-06
1.90506e-06
0
0
0
0.038186
0.160961
2.61013
0.000694767
0.000685984
0.000674636
0.000659565
0.000641189
0.000619003
0.000595089
0.0005686
0.00053931
0.000507823
0.000474579
0.000440363
0.00040584
0.000371521
0.000338
0.000305892
0.000275678
0.000247756
0.000222379
0.000199584
0.000179196
0.000160828
0.000143893
0.000127649
0.000111692
9.64875e-05
8.27671e-05
7.0808e-05
6.04561e-05
5.15339e-05
4.40019e-05
3.791e-05
3.32642e-05
3.00196e-05
2.81303e-05
2.83649e-05
3.0598e-05
3.23179e-05
1.21223e-06
0.000592105
0.00059753
0.000602055
0.000605556
0.000607185
0.000606763
0.000604233
0.000599033
0.000591079
0.000580363
0.000566713
0.00055026
0.000531199
0.000509743
0.000486232
0.000461004
0.000434584
0.000406926
0.000378221
0.000349708
0.000322875
0.000298811
0.000277761
0.000258117
0.000237092
0.000213089
0.00018832
0.000166517
0.000149734
0.000136151
0.0001231
8.96732e-05
3.80013e-05
3.32722e-06
0
0
0.000192323
0.0199637
0.686046
0.000585158
0.000577505
0.000567969
0.000555439
0.000540626
0.000523311
0.000504678
0.000484053
0.00046146
0.000437335
0.0004119
0.000385624
0.000358848
0.000331847
0.000305059
0.000278931
0.000253834
0.000230172
0.0002082
0.000188047
0.000169671
0.000152839
0.000137148
0.000122106
0.000107406
9.33871e-05
8.06237e-05
6.93634e-05
5.94944e-05
5.08551e-05
4.33839e-05
3.70492e-05
3.1762e-05
2.7607e-05
2.45705e-05
2.39699e-05
2.36307e-05
3.9742e-05
1.63447e-05
0.000502712
0.000507792
0.000512347
0.000516192
0.000518656
0.000519673
0.00051907
0.000516458
0.000511668
0.000504668
0.000495243
0.000483426
0.000469289
0.000452921
0.000434563
0.000414489
0.000393001
0.000370586
0.000347752
0.000324952
0.000302918
0.00028222
0.000263081
0.000244516
0.000224459
0.000201793
0.000178032
0.000156494
0.000139232
0.000126797
0.000117737
0.000112477
9.8703e-05
5.74396e-05
3.79706e-06
0
0
0.00631423
0.175642
0.000496491
0.000489866
0.000481863
0.000471376
0.000459293
0.000445617
0.000430844
0.000414548
0.000396941
0.000378277
0.000358624
0.00033828
0.000317429
0.000296192
0.00027481
0.000253603
0.00023284
0.000212838
0.000193866
0.00017608
0.000159506
0.00014404
0.000129442
0.000115398
0.000101729
8.86925e-05
7.67321e-05
6.60864e-05
5.67082e-05
4.84909e-05
4.14017e-05
3.5451e-05
3.06358e-05
2.70238e-05
2.45538e-05
2.42476e-05
2.41343e-05
3.42746e-05
4.26333e-05
0.000429702
0.000434434
0.000438879
0.000442836
0.000445808
0.00044774
0.000448488
0.000447694
0.000445229
0.000441028
0.000434876
0.000426753
0.000416651
0.000404594
0.000390696
0.00037512
0.0003581
0.000339985
0.000320904
0.000301279
0.000281977
0.000263654
0.000246463
0.000229656
0.000211659
0.000191516
0.000170216
0.000150218
0.000133292
0.00011972
0.000108724
0.000101667
9.83773e-05
9.48519e-05
6.20039e-05
3.05338e-06
0
0.000997218
0.060458
0.000424134
0.000418329
0.000411552
0.000402717
0.000392757
0.00038179
0.000369918
0.000356896
0.000343033
0.000328429
0.000313118
0.000297271
0.000280961
0.000264195
0.000247138
0.000229976
0.000212876
0.000196091
0.000179831
0.000164282
0.000149525
0.00013553
0.00012215
0.000109203
9.66291e-05
8.46181e-05
7.35211e-05
6.35527e-05
5.47039e-05
4.68995e-05
4.01069e-05
3.43329e-05
2.95493e-05
2.58228e-05
2.3178e-05
2.24908e-05
2.27388e-05
2.92305e-05
4.66827e-05
0.000369349
0.000373706
0.000377932
0.000381825
0.000384996
0.000387418
0.000388978
0.000389351
0.000388422
0.000386121
0.000382244
0.000376747
0.000369577
0.000360693
0.000350163
0.000338081
0.000324584
0.00030997
0.000294465
0.000278362
0.000262191
0.000246435
0.0002312
0.000216004
0.00019978
0.000181832
0.000162885
0.000144832
0.000129159
0.000116001
0.000104768
9.54453e-05
8.89934e-05
8.6571e-05
9.12277e-05
4.67852e-05
3.57904e-08
0.000318413
0.0201603
0.000364394
0.000359296
0.000353504
0.000346033
0.000337756
0.000328837
0.000319185
0.000308676
0.000297649
0.000286128
0.0002741
0.00026166
0.00024883
0.000235579
0.000221952
0.000208068
0.000194029
0.000180012
0.000166175
0.000152675
0.000139615
0.000127011
0.000114805
0.000102924
9.13659e-05
8.03023e-05
7.00065e-05
6.06749e-05
5.23316e-05
4.49337e-05
3.84671e-05
3.29544e-05
2.83957e-05
2.48584e-05
2.23687e-05
2.16339e-05
2.19412e-05
2.69077e-05
4.29082e-05
0.000319052
0.00032303
0.000326991
0.000330731
0.000333941
0.000336633
0.000338678
0.000339808
0.000339938
0.000338979
0.000336765
0.00033322
0.000328294
0.000321925
0.000314117
0.000304911
0.000294379
0.000282752
0.000270179
0.000256832
0.000243107
0.000229488
0.000216071
0.000202516
0.000188059
0.000172169
0.000155379
0.000139182
0.000124873
0.000112654
0.000102096
9.2882e-05
8.51675e-05
7.94728e-05
7.83297e-05
9.58186e-05
2.96925e-06
3.23339e-05
0.00509842
0.000314624
0.000310149
0.000305147
0.000298802
0.000291881
0.000284526
0.000276586
0.000268051
0.000259195
0.000250018
0.000240489
0.000230668
0.000220532
0.000210009
0.000199122
0.000187905
0.0001764
0.000164734
0.000153022
0.000141384
0.000129909
0.000118653
0.000107612
9.67916e-05
8.62359e-05
7.60918e-05
6.65895e-05
5.79012e-05
5.00721e-05
4.30868e-05
3.69423e-05
3.16665e-05
2.72594e-05
2.37873e-05
2.12885e-05
2.04295e-05
2.06115e-05
2.49125e-05
3.85947e-05
0.000276794
0.0002804
0.000284082
0.000287602
0.000290745
0.000293541
0.000295838
0.000297434
0.000298261
0.000298223
0.000297185
0.000295075
0.000291816
0.00028734
0.000281615
0.00027466
0.000266518
0.000257313
0.000247213
0.000236331
0.000224877
0.000213271
0.000201596
0.000189616
0.00017681
0.000162788
0.000147933
0.000133415
0.000120352
0.000109044
9.9212e-05
9.06561e-05
8.31581e-05
7.75563e-05
6.9831e-05
8.75384e-05
4.13556e-05
4.73259e-07
0.000367819
0.000272827
0.00026889
0.000264551
0.000259126
0.000253302
0.000247166
0.00024058
0.000233592
0.000226421
0.000219051
0.000211449
0.000203635
0.000195578
0.000187199
0.000178473
0.000169411
0.000160008
0.000150328
0.000140449
0.000130463
0.000120454
0.000110484
0.000100575
9.07623e-05
8.11442e-05
7.18709e-05
6.31267e-05
5.50614e-05
4.77355e-05
4.1156e-05
3.53326e-05
3.03014e-05
2.60736e-05
2.27191e-05
2.02753e-05
1.93463e-05
1.94146e-05
2.30486e-05
3.48102e-05
0.000241037
0.000244306
0.000247696
0.000250974
0.000253997
0.000256781
0.000259193
0.000261065
0.000262342
0.000262938
0.00026273
0.00026165
0.00025963
0.000256592
0.000252512
0.000247361
0.000241156
0.000233956
0.000225921
0.00021709
0.000207578
0.00019773
0.000187642
0.000177159
0.000165904
0.000153597
0.000140519
0.000127573
0.000115701
0.000105256
9.60862e-05
8.81046e-05
8.10725e-05
7.58837e-05
6.90812e-05
7.0024e-05
8.38834e-05
1.74523e-07
2.5902e-05
0.000237494
0.000234006
0.00023023
0.000225566
0.000220638
0.000215469
0.000209957
0.000204191
0.000198336
0.000192369
0.000186255
0.000180006
0.000173572
0.000166865
0.00015986
0.000152521
0.000144835
0.000136822
0.000128524
0.000120002
0.00011132
0.000102538
9.36963e-05
8.48654e-05
7.61552e-05
6.77128e-05
5.96945e-05
5.22359e-05
4.5406e-05
3.92289e-05
3.37244e-05
2.89345e-05
2.48757e-05
2.16182e-05
1.92026e-05
1.81846e-05
1.81483e-05
2.11943e-05
3.1381e-05
0.000210594
0.000213557
0.000216656
0.000219694
0.000222555
0.000225257
0.000227687
0.000229701
0.000231244
0.00023225
0.000232615
0.000232274
0.000231176
0.000229237
0.000226415
0.000222676
0.000218013
0.000212449
0.000206108
0.000199012
0.000191205
0.000182931
0.000174299
0.000165212
0.000155399
0.000144654
0.00013319
0.000121703
0.000110972
0.00010137
9.28443e-05
8.53517e-05
7.88031e-05
7.35134e-05
6.94124e-05
6.12105e-05
9.21142e-05
4.49706e-07
4.23404e-10
0.000207438
0.000204344
0.000201031
0.000197006
0.000192812
0.000188419
0.000183773
0.000178982
0.000174165
0.000169296
0.000164345
0.000159306
0.000154132
0.000148746
0.0001431
0.000137154
0.000130869
0.000124248
0.000117297
0.000110057
0.000102568
9.48775e-05
8.70335e-05
7.91228e-05
7.12702e-05
6.36086e-05
5.62819e-05
4.94088e-05
4.30621e-05
3.72797e-05
3.20902e-05
2.75396e-05
2.36521e-05
2.04989e-05
1.81222e-05
1.70275e-05
1.68957e-05
1.94203e-05
2.82037e-05
0.00018454
0.000187219
0.000190039
0.000192845
0.000195517
0.000198104
0.000200483
0.000202542
0.000204234
0.000205505
0.00020626
0.000206453
0.00020602
0.000204895
0.000203034
0.000200396
0.000196965
0.000192731
0.000187783
0.000182134
0.000175789
0.00016889
0.000161569
0.000153767
0.000145279
0.000135956
0.000125956
0.000115817
0.000106179
9.74046e-05
8.95227e-05
8.25044e-05
7.64064e-05
7.10758e-05
6.80528e-05
5.95238e-05
7.80296e-05
2.94953e-05
6.13116e-07
0.000181723
0.000178975
0.000176058
0.000172567
0.00016898
0.000165217
0.000161275
0.000157265
0.000153271
0.000149266
0.000145226
0.000141141
0.000136959
0.000132606
0.000128039
0.000123207
0.000118064
0.000112593
0.000106786
0.000100651
9.42196e-05
8.75299e-05
8.06198e-05
7.35676e-05
6.65056e-05
5.95802e-05
5.29111e-05
4.66011e-05
4.07242e-05
3.53277e-05
3.04479e-05
2.61329e-05
2.24141e-05
1.93617e-05
1.70197e-05
1.5851e-05
1.56307e-05
1.77214e-05
2.52573e-05
0.000162134
0.000164547
0.000167118
0.000169686
0.000172174
0.000174615
0.000176909
0.000178946
0.000180704
0.000182127
0.000183135
0.000183685
0.000183732
0.000183208
0.000182081
0.000180299
0.000177838
0.000174682
0.00017087
0.000166423
0.000161318
0.00015562
0.00014947
0.000142836
0.000135555
0.000127514
0.000118836
0.000109934
0.000101331
9.33644e-05
8.61191e-05
7.95906e-05
7.38839e-05
6.87999e-05
6.55454e-05
5.99543e-05
6.37538e-05
5.99062e-05
7.39527e-06
0.000159616
0.00015717
0.000154593
0.000151556
0.000148463
0.000145226
0.000141859
0.000138481
0.000135144
0.000131828
0.000128508
0.000125169
0.000121767
0.000118231
0.000114519
0.000110582
0.000106367
0.000101845
9.69969e-05
9.18194e-05
8.63171e-05
8.05143e-05
7.44462e-05
6.81958e-05
6.18868e-05
5.56512e-05
4.95991e-05
4.3824e-05
3.83987e-05
3.33763e-05
2.87986e-05
2.47149e-05
2.11632e-05
1.82114e-05
1.5906e-05
1.46712e-05
1.43698e-05
1.6097e-05
2.25338e-05
0.000142778
0.000144951
0.000147287
0.000149636
0.000151936
0.000154224
0.0001564
0.000158381
0.000160142
0.000161636
0.000162798
0.000163594
0.000163981
0.000163906
0.000163327
0.000162204
0.000160503
0.000158203
0.000155306
0.000151849
0.000147791
0.000143139
0.000138021
0.000132428
0.000126233
0.000119345
0.000111857
0.000104085
9.64518e-05
8.92643e-05
8.26395e-05
7.66085e-05
7.12568e-05
6.6554e-05
6.28587e-05
5.95679e-05
5.62491e-05
6.44221e-05
3.0202e-05
0.000140527
0.000138345
0.000136063
0.000133416
0.000130726
0.000127928
0.000125039
0.000122171
0.000119364
0.000116598
0.00011385
0.000111103
0.000108316
0.000105429
0.000102399
9.91772e-05
9.57146e-05
9.19762e-05
8.79302e-05
8.35633e-05
7.88731e-05
7.38661e-05
6.85641e-05
6.30447e-05
5.74267e-05
5.18298e-05
4.63559e-05
4.10883e-05
3.60966e-05
3.14362e-05
2.71527e-05
2.32954e-05
1.99081e-05
1.70551e-05
1.47863e-05
1.34914e-05
1.31158e-05
1.45508e-05
2.00384e-05
0.000125993
0.000127953
0.000130069
0.000132213
0.00013433
0.000136458
0.000138503
0.0001404
0.000142125
0.000143637
0.000144884
0.000145835
0.000146453
0.000146694
0.000146522
0.000145899
0.000144787
0.000143163
0.000141013
0.000138376
0.000135193
0.000131438
0.000127222
0.000122553
0.000117327
0.000111467
0.000105042
9.82963e-05
9.15652e-05
8.51221e-05
7.9099e-05
7.35591e-05
6.85571e-05
6.42103e-05
6.03618e-05
5.7914e-05
5.32959e-05
5.79443e-05
4.69879e-05
0.00012398
0.000122029
0.000120007
0.000117691
0.00011534
0.000112907
0.000110417
0.000107969
0.000105591
0.000103267
0.000100973
9.86952e-05
9.6398e-05
9.4026e-05
9.15401e-05
8.88936e-05
8.60392e-05
8.29432e-05
7.95693e-05
7.58926e-05
7.18984e-05
6.75899e-05
6.29794e-05
5.81267e-05
5.31372e-05
4.81298e-05
4.31963e-05
3.84078e-05
3.38294e-05
2.95166e-05
2.55174e-05
2.18804e-05
1.86538e-05
1.58978e-05
1.36666e-05
1.23191e-05
1.18765e-05
1.30778e-05
1.77551e-05
0.000111386
0.000113151
0.000115072
0.00011702
0.000118966
0.000120934
0.000122844
0.00012464
0.000126301
0.000127794
0.00012907
0.00013011
0.000130881
0.000131343
0.000131471
0.000131221
0.000130565
0.000129477
0.000127929
0.000125951
0.000123487
0.000120498
0.000117064
0.000113203
0.000108835
0.000103888
9.84116e-05
9.25911e-05
8.66939e-05
8.09549e-05
7.55124e-05
7.04486e-05
6.5807e-05
6.1753e-05
5.80157e-05
5.55696e-05
5.17724e-05
5.14296e-05
5.08429e-05
0.000109587
0.000107839
0.000106042
0.000104009
0.000101947
9.98234e-05
9.76665e-05
9.55633e-05
9.35362e-05
9.15676e-05
8.96422e-05
8.77418e-05
8.58333e-05
8.38699e-05
8.18168e-05
7.96341e-05
7.72746e-05
7.47032e-05
7.18848e-05
6.87903e-05
6.53991e-05
6.16997e-05
5.76979e-05
5.34437e-05
4.9033e-05
4.457e-05
4.0136e-05
3.57956e-05
3.16073e-05
2.76261e-05
2.39003e-05
2.04778e-05
1.74077e-05
1.47469e-05
1.25537e-05
1.11604e-05
1.066e-05
1.16805e-05
1.56767e-05
9.86357e-05
0.000100227
0.000101964
0.000103735
0.000105518
0.000107331
0.000109105
0.000110789
0.000112372
0.000113818
0.000115092
0.000116173
0.000117038
0.000117651
0.000117989
0.000118018
0.000117707
0.000117032
0.000115962
0.000114513
0.000112643
0.000110302
0.000107539
0.00010438
0.000100763
9.66204e-05
9.19824e-05
8.69925e-05
8.18593e-05
7.67819e-05
7.18943e-05
6.72878e-05
6.30092e-05
5.92115e-05
5.56954e-05
5.30558e-05
5.01243e-05
4.71817e-05
4.83172e-05
9.70282e-05
9.54603e-05
9.38606e-05
9.20699e-05
9.02534e-05
8.8394e-05
8.65152e-05
8.46997e-05
8.29607e-05
8.1283e-05
7.96518e-05
7.80536e-05
7.64565e-05
7.48228e-05
7.31196e-05
7.13076e-05
6.93481e-05
6.72082e-05
6.48501e-05
6.22437e-05
5.93651e-05
5.61961e-05
5.2733e-05
4.90159e-05
4.51269e-05
4.11607e-05
3.71853e-05
3.32612e-05
2.94405e-05
2.57751e-05
2.23118e-05
1.90964e-05
1.61782e-05
1.36107e-05
1.14558e-05
1.00228e-05
9.47153e-06
1.03592e-05
1.37957e-05
8.74757e-05
8.89084e-05
9.0479e-05
9.20893e-05
9.37162e-05
9.53814e-05
9.70214e-05
9.85928e-05
0.000100083
0.000101467
0.000102709
0.000103799
0.000104711
0.00010542
0.000105906
0.000106136
0.000106086
0.000105728
0.000105036
0.000104014
0.000102627
0.00010083
9.86359e-05
9.60814e-05
9.31144e-05
8.96725e-05
8.57727e-05
8.15232e-05
7.70838e-05
7.26222e-05
6.82605e-05
6.40935e-05
6.01707e-05
5.66198e-05
5.33297e-05
5.05822e-05
4.80486e-05
4.43881e-05
4.44392e-05
8.60351e-05
8.46326e-05
8.32041e-05
8.1623e-05
8.00184e-05
7.83838e-05
7.67413e-05
7.51636e-05
7.36622e-05
7.22223e-05
7.08331e-05
6.94802e-05
6.81357e-05
6.67642e-05
6.53389e-05
6.38277e-05
6.21942e-05
6.04068e-05
5.843e-05
5.62338e-05
5.37917e-05
5.10805e-05
4.80895e-05
4.48479e-05
4.14262e-05
3.79069e-05
3.43548e-05
3.08164e-05
2.73399e-05
2.39733e-05
2.07605e-05
1.77446e-05
1.49744e-05
1.24986e-05
1.03817e-05
8.91403e-06
8.3194e-06
9.11227e-06
1.20967e-05
7.76818e-05
7.89715e-05
8.03902e-05
8.18538e-05
8.33359e-05
8.48619e-05
8.63719e-05
8.78293e-05
8.92254e-05
9.05345e-05
9.17305e-05
9.28026e-05
9.37307e-05
9.44952e-05
9.50752e-05
9.54489e-05
9.55901e-05
9.54746e-05
9.50781e-05
9.4392e-05
9.33984e-05
9.20458e-05
9.03292e-05
8.8288e-05
8.58828e-05
8.30509e-05
7.97978e-05
7.62035e-05
7.23908e-05
6.84949e-05
6.46278e-05
6.08789e-05
5.73003e-05
5.39979e-05
5.09114e-05
4.81725e-05
4.57189e-05
4.21061e-05
4.09048e-05
7.63903e-05
7.51347e-05
7.38571e-05
7.24583e-05
7.10375e-05
6.95945e-05
6.81541e-05
6.67778e-05
6.54736e-05
6.42305e-05
6.30381e-05
6.18826e-05
6.07402e-05
5.95832e-05
5.83853e-05
5.71166e-05
5.57471e-05
5.42482e-05
5.25876e-05
5.07331e-05
4.86591e-05
4.634e-05
4.37609e-05
4.09404e-05
3.79384e-05
3.48233e-05
3.16552e-05
2.84717e-05
2.53159e-05
2.22298e-05
1.92551e-05
1.64313e-05
1.38047e-05
1.14193e-05
9.33985e-06
7.84108e-06
7.20881e-06
7.94374e-06
1.0573e-05
6.90659e-05
7.02285e-05
7.15097e-05
7.28367e-05
7.41863e-05
7.55805e-05
7.69672e-05
7.83121e-05
7.96127e-05
8.08417e-05
8.19803e-05
8.30175e-05
8.39397e-05
8.47267e-05
8.53651e-05
8.58355e-05
8.61142e-05
8.618e-05
8.60098e-05
8.55888e-05
8.49088e-05
8.39225e-05
8.26052e-05
8.09998e-05
7.90716e-05
7.67622e-05
7.40686e-05
7.10495e-05
6.77981e-05
6.442e-05
6.10124e-05
5.76585e-05
5.44111e-05
5.13525e-05
4.84571e-05
4.57896e-05
4.33182e-05
3.98975e-05
3.78859e-05
6.791e-05
6.67841e-05
6.56393e-05
6.44001e-05
6.31393e-05
6.18617e-05
6.05946e-05
5.93874e-05
5.82493e-05
5.71693e-05
5.61396e-05
5.51466e-05
5.41699e-05
5.31849e-05
5.21705e-05
5.11005e-05
4.99468e-05
4.86836e-05
4.72834e-05
4.5716e-05
4.39534e-05
4.19689e-05
3.97442e-05
3.72919e-05
3.46607e-05
3.19115e-05
2.90908e-05
2.62335e-05
2.3375e-05
2.05523e-05
1.78039e-05
1.51648e-05
1.2677e-05
1.03811e-05
8.33967e-06
6.81181e-06
6.1459e-06
6.85427e-06
9.21162e-06
6.14716e-05
6.25192e-05
6.36769e-05
6.48783e-05
6.61052e-05
6.73773e-05
6.8646e-05
6.98848e-05
7.10892e-05
7.22371e-05
7.33105e-05
7.43024e-05
7.52009e-05
7.59897e-05
7.66588e-05
7.71895e-05
7.75626e-05
7.7761e-05
7.77615e-05
7.75484e-05
7.71165e-05
7.64241e-05
7.54394e-05
7.4197e-05
7.26713e-05
7.08076e-05
6.85967e-05
6.60797e-05
6.33253e-05
6.04163e-05
5.74327e-05
5.44483e-05
5.15152e-05
4.86997e-05
4.5985e-05
4.3417e-05
4.09402e-05
3.7674e-05
3.52128e-05
6.04373e-05
5.94278e-05
5.84008e-05
5.73005e-05
5.61796e-05
5.50452e-05
5.39268e-05
5.28653e-05
5.18673e-05
5.09235e-05
5.00277e-05
4.91688e-05
4.83283e-05
4.74849e-05
4.6619e-05
4.571e-05
4.4733e-05
4.36658e-05
4.24805e-05
4.11508e-05
3.96509e-05
3.79531e-05
3.60352e-05
3.39059e-05
3.16029e-05
2.91787e-05
2.66721e-05
2.41116e-05
2.15269e-05
1.89506e-05
1.64157e-05
1.39535e-05
1.16013e-05
9.39436e-06
7.3911e-06
5.8342e-06
5.13614e-06
5.84707e-06
8.00425e-06
5.4766e-05
5.57088e-05
5.67552e-05
5.78415e-05
5.89559e-05
6.0115e-05
6.12731e-05
6.24114e-05
6.35215e-05
6.45882e-05
6.55932e-05
6.65327e-05
6.73947e-05
6.81698e-05
6.88465e-05
6.94103e-05
6.9847e-05
7.0138e-05
7.02663e-05
7.02131e-05
6.99767e-05
6.95177e-05
6.88047e-05
6.78617e-05
6.66724e-05
6.51869e-05
6.33889e-05
6.1307e-05
5.89901e-05
5.65008e-05
5.39053e-05
5.12659e-05
4.86264e-05
4.60488e-05
4.35132e-05
4.10559e-05
3.86067e-05
3.54633e-05
3.27619e-05
5.3839e-05
5.29344e-05
5.20131e-05
5.10342e-05
5.00362e-05
4.90281e-05
4.80372e-05
4.71002e-05
4.62211e-05
4.53921e-05
4.46086e-05
4.38604e-05
4.31315e-05
4.24047e-05
4.16624e-05
4.08857e-05
4.00537e-05
3.91462e-05
3.81395e-05
3.70089e-05
3.57291e-05
3.42744e-05
3.26211e-05
3.07724e-05
2.87589e-05
2.66237e-05
2.43992e-05
2.21088e-05
1.97765e-05
1.74301e-05
1.50972e-05
1.2805e-05
1.05859e-05
8.46865e-06
6.50466e-06
4.91679e-06
4.18368e-06
4.92516e-06
6.94105e-06
4.88338e-05
4.96833e-05
5.06272e-05
5.16099e-05
5.26205e-05
5.36741e-05
5.47308e-05
5.57726e-05
5.67933e-05
5.77791e-05
5.87152e-05
5.95974e-05
6.0418e-05
6.11674e-05
6.18369e-05
6.24152e-05
6.28889e-05
6.3243e-05
6.34629e-05
6.35302e-05
6.34429e-05
6.31684e-05
6.26738e-05
6.19789e-05
6.10675e-05
5.98967e-05
5.84486e-05
5.67407e-05
5.48064e-05
5.26907e-05
5.04459e-05
4.81244e-05
4.57633e-05
4.34099e-05
4.10551e-05
3.87112e-05
3.63187e-05
3.32941e-05
3.04745e-05
4.80025e-05
4.71929e-05
4.63666e-05
4.54931e-05
4.4604e-05
4.37071e-05
4.28271e-05
4.19973e-05
4.12199e-05
4.0489e-05
3.98003e-05
3.91447e-05
3.8509e-05
3.78777e-05
3.72371e-05
3.65697e-05
3.58574e-05
3.50824e-05
3.42239e-05
3.32596e-05
3.21661e-05
3.09176e-05
2.94913e-05
2.7886e-05
2.61254e-05
2.42471e-05
2.22758e-05
2.02305e-05
1.813e-05
1.59971e-05
1.38553e-05
1.17266e-05
9.63837e-06
7.61266e-06
5.69109e-06
4.06921e-06
3.29257e-06
4.0942e-06
6.01446e-06
4.35779e-05
4.43437e-05
4.51944e-05
4.60829e-05
4.69989e-05
4.79549e-05
4.89177e-05
4.98691e-05
5.08055e-05
5.17133e-05
5.25814e-05
5.34052e-05
5.4179e-05
5.48941e-05
5.55455e-05
5.61215e-05
5.66136e-05
5.70081e-05
5.72916e-05
5.74469e-05
5.74727e-05
5.73412e-05
5.70215e-05
5.65261e-05
5.58431e-05
5.49342e-05
5.37807e-05
5.23908e-05
5.0787e-05
4.90008e-05
4.70712e-05
4.50392e-05
4.29367e-05
4.08e-05
3.86204e-05
3.63992e-05
3.40835e-05
3.11899e-05
2.83355e-05
4.28329e-05
4.21078e-05
4.13671e-05
4.05864e-05
3.97939e-05
3.89949e-05
3.82122e-05
3.74751e-05
3.67857e-05
3.61382e-05
3.55296e-05
3.49531e-05
3.43959e-05
3.38444e-05
3.32877e-05
3.27105e-05
3.20975e-05
3.14333e-05
3.06986e-05
2.98732e-05
2.89361e-05
2.78628e-05
2.66308e-05
2.52369e-05
2.36991e-05
2.20471e-05
2.03025e-05
1.84784e-05
1.65903e-05
1.46558e-05
1.26944e-05
1.07236e-05
8.76529e-06
6.83533e-06
4.96243e-06
3.30406e-06
2.46613e-06
3.36184e-06
5.21824e-06
3.89153e-05
3.96047e-05
4.03719e-05
4.1174e-05
4.20034e-05
4.2871e-05
4.37459e-05
4.46134e-05
4.54705e-05
4.63042e-05
4.71052e-05
4.78704e-05
4.85947e-05
4.92713e-05
4.98961e-05
5.04609e-05
5.09568e-05
5.13724e-05
5.16964e-05
5.19146e-05
5.20239e-05
5.20016e-05
5.182e-05
5.14846e-05
5.09859e-05
5.02921e-05
4.93842e-05
4.8263e-05
4.69428e-05
4.54443e-05
4.37949e-05
4.20263e-05
4.01618e-05
3.82301e-05
3.62219e-05
3.41319e-05
3.19072e-05
2.91532e-05
2.63324e-05
3.82474e-05
3.75977e-05
3.6934e-05
3.62363e-05
3.55289e-05
3.48164e-05
3.41195e-05
3.34634e-05
3.28502e-05
3.22748e-05
3.17357e-05
3.1225e-05
3.07335e-05
3.02504e-05
2.97646e-05
2.9263e-05
2.87326e-05
2.81601e-05
2.75287e-05
2.682e-05
2.6015e-05
2.50914e-05
2.40263e-05
2.28144e-05
2.14712e-05
2.00197e-05
1.84773e-05
1.68534e-05
1.51594e-05
1.34095e-05
1.16185e-05
9.80092e-06
7.97272e-06
6.14446e-06
4.33076e-06
2.63871e-06
1.70564e-06
2.74014e-06
4.54636e-06
3.47734e-05
3.53942e-05
3.6085e-05
3.68091e-05
3.75592e-05
3.83453e-05
3.91396e-05
3.99293e-05
4.0712e-05
4.14752e-05
4.22121e-05
4.29198e-05
4.35939e-05
4.42296e-05
4.4823e-05
4.53678e-05
4.58563e-05
4.62793e-05
4.66277e-05
4.68888e-05
4.70578e-05
4.71171e-05
4.70411e-05
4.68316e-05
4.64807e-05
4.5962e-05
4.52562e-05
4.43608e-05
4.3282e-05
4.20324e-05
4.06301e-05
3.90976e-05
3.74525e-05
3.57131e-05
3.38717e-05
3.19148e-05
2.97978e-05
2.71957e-05
2.44552e-05
3.41745e-05
3.35929e-05
3.29979e-05
3.23742e-05
3.17427e-05
3.1107e-05
3.04857e-05
2.9901e-05
2.93545e-05
2.88417e-05
2.83618e-05
2.79088e-05
2.74738e-05
2.70476e-05
2.66212e-05
2.61835e-05
2.5723e-05
2.52278e-05
2.4683e-05
2.40732e-05
2.33803e-05
2.25834e-05
2.16615e-05
2.06079e-05
1.94341e-05
1.81598e-05
1.67975e-05
1.5354e-05
1.38377e-05
1.22594e-05
1.06302e-05
8.9609e-06
7.26395e-06
5.54537e-06
3.8075e-06
2.10011e-06
1.01356e-06
2.24613e-06
3.99385e-06
3.10896e-05
3.16483e-05
3.227e-05
3.29234e-05
3.36014e-05
3.43129e-05
3.50333e-05
3.57512e-05
3.64642e-05
3.7162e-05
3.78379e-05
3.84898e-05
3.91142e-05
3.97073e-05
4.0266e-05
4.07855e-05
4.12594e-05
4.16805e-05
4.20401e-05
4.23269e-05
4.25359e-05
4.26543e-05
4.26587e-05
4.25463e-05
4.23123e-05
4.19337e-05
4.13933e-05
4.06851e-05
3.981e-05