/*--------------------------------*- C++ -*----------------------------------*\
| =========                 |                                                 |
| \\      /  F ield         | OpenFOAM: The Open Source CFD Toolbox           |
|  \\    /   O peration     | Version:  2306                                  |
|   \\  /    A nd           | Website:  www.openfoam.com                      |
|    \\/     M anipulation  |                                                 |
\*---------------------------------------------------------------------------*/
FoamFile
{
    version     2.0;
    format      ascii;
    arch        "LSB;label=32;scalar=64";
    class       volScalarField;
    location    "950";
    object      turbulenceProperties:k;
}
// * * * * * * * * * * * * * * * * * * * * * * * * * * * * * * * * * * * * * //

dimensions      [0 2 -2 0 0 0 0];

internalField   nonuniform List<scalar> 
1340
(
9.39407e-07
7.13837e-07
9.5311e-07
6.92252e-07
6.91608e-07
9.52811e-07
2.88855e-07
6.83366e-07
6.76888e-07
9.56726e-07
2.58105e-07
4.73852e-07
2.86152e-07
6.76264e-07
6.64345e-07
9.63184e-07
3.6736e-07
4.31548e-07
2.50344e-07
4.65127e-07
2.83356e-07
6.69847e-07
6.54195e-07
9.6974e-07
5.18166e-07
4.54841e-07
4.54826e-07
3.52639e-07
4.19515e-07
2.422e-07
4.56605e-07
2.80638e-07
6.64336e-07
6.46902e-07
9.75877e-07
5.98671e-07
5.61756e-07
5.17132e-07
4.95569e-07
4.34458e-07
4.37905e-07
3.37694e-07
4.07359e-07
2.33793e-07
4.48479e-07
2.77984e-07
6.5986e-07
6.42298e-07
9.81478e-07
7.59787e-07
7.08024e-07
6.58407e-07
6.11309e-07
5.65293e-07
5.32377e-07
4.90613e-07
4.7266e-07
4.13885e-07
4.20727e-07
3.22619e-07
3.95137e-07
2.25182e-07
4.40675e-07
2.75408e-07
6.56174e-07
6.39758e-07
9.87373e-07
9.6133e-07
9.05898e-07
8.52317e-07
8.00724e-07
7.51191e-07
7.03748e-07
6.58468e-07
6.14732e-07
5.73186e-07
5.3178e-07
5.02783e-07
4.63881e-07
4.49438e-07
3.93123e-07
4.03288e-07
3.07412e-07
3.82807e-07
2.16391e-07
4.3304e-07
2.72959e-07
6.53008e-07
6.38847e-07
9.92599e-07
1.2183e-06
1.16755e-06
1.11663e-06
1.06576e-06
1.01526e-06
9.65366e-07
9.16318e-07
8.68316e-07
8.21533e-07
7.76083e-07
7.32069e-07
6.89594e-07
6.48677e-07
6.09508e-07
5.7137e-07
5.35164e-07
4.98262e-07
4.7309e-07
4.37042e-07
4.25993e-07
3.72245e-07
3.8564e-07
2.92137e-07
3.70376e-07
2.07474e-07
4.25504e-07
2.70623e-07
6.50249e-07
6.4004e-07
9.97761e-07
1.46359e-06
1.43982e-06
1.41438e-06
1.3872e-06
1.35818e-06
1.32731e-06
1.29463e-06
1.26022e-06
1.22422e-06
1.1868e-06
1.14812e-06
1.10839e-06
1.06785e-06
1.02671e-06
9.85228e-07
9.43605e-07
9.02094e-07
8.60904e-07
8.20241e-07
7.80283e-07
7.41173e-07
7.0301e-07
6.65872e-07
6.29862e-07
5.9498e-07
5.61512e-07
5.28647e-07
4.97524e-07
4.64989e-07
4.43514e-07
4.10292e-07
4.02481e-07
3.51395e-07
3.67881e-07
2.76885e-07
3.57883e-07
1.98519e-07
4.18087e-07
2.68347e-07
6.47837e-07
6.42351e-07
1.00285e-06
8.12766e-09
4.95887e-10
0
0
3.98947e-05
8.2487e-05
0.00693637
0.0878104
0.339521
0.751271
1.1908
1.49859
1.55142
1.29145
0.745584
0.0792167
0.717464
1.25788
1.42621
1.16671
0.651812
0.212149
0.0287637
0.000241674
2.86964e-05
0
0
0
2.69842e-08
3.65301e-07
1.40107e-06
1.57114e-06
1.37766e-06
1.29199e-06
1.28586e-06
1.27977e-06
1.26252e-06
1.24356e-06
1.22512e-06
1.20575e-06
1.18487e-06
1.16251e-06
1.13863e-06
1.11316e-06
1.08615e-06
1.05769e-06
1.02795e-06
9.97063e-07
9.65183e-07
9.32495e-07
8.99205e-07
8.65521e-07
8.31602e-07
7.97664e-07
7.63887e-07
7.30439e-07
6.97475e-07
6.65118e-07
6.33434e-07
6.02473e-07
5.72338e-07
5.42985e-07
5.14793e-07
4.86853e-07
4.60524e-07
4.32183e-07
4.14251e-07
3.83811e-07
3.79056e-07
3.30693e-07
3.501e-07
2.61771e-07
3.45333e-07
1.89596e-07
4.10639e-07
2.66205e-07
6.45622e-07
6.4595e-07
1.00789e-06
8.01065e-07
1.59357e-08
1.06322e-09
0
0
7.29474e-08
0.000504804
0.000895388
0.0352233
0.192606
0.517704
0.927299
1.2698
1.40821
1.26261
0.832483
0.209829
0.487076
1.03595
1.27197
1.10789
0.66491
0.240642
0.0383652
0.000736707
6.0939e-05
0
0
0
9.69138e-09
1.18398e-07
1.06237e-06
1.37083e-06
1.19757e-06
1.08661e-06
1.07114e-06
1.06892e-06
1.0564e-06
1.04105e-06
1.02641e-06
1.01097e-06
9.93813e-07
9.75151e-07
9.55198e-07
9.33963e-07
9.11442e-07
8.87759e-07
8.63052e-07
8.37445e-07
8.11097e-07
7.84192e-07
7.569e-07
7.29362e-07
7.01762e-07
6.74248e-07
6.46967e-07
6.20042e-07
5.93574e-07
5.6761e-07
5.42159e-07
5.17317e-07
4.92991e-07
4.69641e-07
4.46253e-07
4.24412e-07
4.00065e-07
3.85498e-07
3.57773e-07
3.55874e-07
3.1029e-07
3.32415e-07
2.46875e-07
3.32769e-07
1.80722e-07
4.03243e-07
2.63994e-07
6.43486e-07
6.49627e-07
1.01324e-06
8.29205e-07
7.04195e-07
6.17456e-08
3.64143e-09
0
0
0
0.000154044
0.000252303
0.0102103
0.0950929
0.329569
0.688555
1.04437
1.25143
1.2084
0.888492
0.352279
0.285958
0.831916
1.12173
1.04292
0.670689
0.265535
0.0489312
0.00169687
8.8743e-05
0
0
0
6.13377e-10
3.2488e-09
6.4316e-07
1.10816e-06
1.02751e-06
9.17419e-07
8.96116e-07
8.97598e-07
8.88229e-07
8.73317e-07
8.59694e-07
8.46852e-07
8.32883e-07
8.17331e-07
8.00493e-07
7.82574e-07
7.63667e-07
7.43869e-07
7.23274e-07
7.02039e-07
6.80317e-07
6.58264e-07
6.36011e-07
6.13709e-07
5.91481e-07
5.69459e-07
5.47736e-07
5.26404e-07
5.05463e-07
4.84921e-07
4.64838e-07
4.45061e-07
4.26147e-07
4.06964e-07
3.8927e-07
3.68742e-07
3.57341e-07
3.32283e-07
3.33001e-07
2.9027e-07
3.14828e-07
2.3228e-07
3.20236e-07
1.71968e-07
3.9554e-07
2.61651e-07
6.41932e-07
6.53464e-07
1.01889e-06
6.47075e-07
7.13046e-07
6.45496e-07
1.55566e-07
8.4984e-09
0
0
0
5.59032e-06
1.39098e-05
0.00165745
0.0391975
0.190439
0.483223
0.830901
1.08861
1.13469
0.915987
0.466165
0.120163
0.650471
0.980381
0.97473
0.668373
0.286157
0.0595555
0.00297581
0.000122209
0
0
0
4.20748e-12
3.17112e-08
4.37409e-07
8.87942e-07
8.80896e-07
7.67119e-07
7.32814e-07
7.41695e-07
7.44957e-07
7.35591e-07
7.22532e-07
7.10205e-07
6.98018e-07
6.84879e-07
6.70544e-07
6.55251e-07
6.39215e-07
6.22525e-07
6.05313e-07
5.87705e-07
5.69861e-07
5.51887e-07
5.33915e-07
5.16077e-07
4.98458e-07
4.81151e-07
4.64204e-07
4.47632e-07
4.31394e-07
4.15518e-07
3.99819e-07
3.84887e-07
3.69539e-07
3.55636e-07
3.38649e-07
3.30224e-07
3.07695e-07
3.10827e-07
2.70826e-07
2.97704e-07
2.17974e-07
3.07965e-07
1.6275e-07
3.88351e-07
2.58403e-07
6.40334e-07
6.57924e-07
1.02668e-06
5.66662e-07
5.61904e-07
6.2933e-07
5.75287e-07
2.73133e-07
1.46302e-08
3.10012e-12
0
0
1.93187e-09
0.000215917
0.000244164
0.0116986
0.0926967
0.303779
0.616866
0.909519
1.04281
0.931159
0.575516
0.078612
0.468951
0.837059
0.906526
0.67022
0.314395
0.0754282
0.00493991
0.000112064
1.10346e-05
0
0
0
1.88527e-08
2.27159e-07
6.71248e-07
8.08099e-07
7.14312e-07
6.28694e-07
6.06008e-07
6.08819e-07
6.08277e-07
6.00189e-07
5.89271e-07
5.78237e-07
5.6699e-07
5.5505e-07
5.4233e-07
5.29025e-07
5.15343e-07
5.01333e-07
4.87174e-07
4.72971e-07
4.58823e-07
4.44868e-07
4.31162e-07
4.17806e-07
4.04782e-07
3.92156e-07
3.79831e-07
3.67798e-07
3.5588e-07
3.44625e-07
3.32837e-07
3.22524e-07
3.08914e-07
3.033e-07
2.83383e-07
2.88614e-07
2.51695e-07
2.80222e-07
2.04322e-07
2.94945e-07
1.54791e-07
3.79934e-07
2.56036e-07
6.37698e-07
6.61975e-07
1.03158e-06
4.99163e-07
4.83756e-07
4.93472e-07
5.09202e-07
4.89338e-07
3.79707e-07
6.18941e-08
3.56275e-09
1.78707e-13
0
0
2.56683e-05
7.77866e-05
0.00111365
0.0228077
0.113955
0.310524
0.574147
0.79464
0.853631
0.688976
0.326375
0.142823
0.5436
0.74419
0.667608
0.402444
0.147601
0.0275625
0.000950566
0.000100273
2.16714e-06
0
0
2.30299e-10
1.13934e-08
1.09519e-07
4.23343e-07
5.8144e-07
5.57106e-07
5.01234e-07
4.78387e-07
4.76468e-07
4.75157e-07
4.68856e-07
4.60071e-07
4.50975e-07
4.41694e-07
4.32004e-07
4.21936e-07
4.11562e-07
4.01119e-07
3.90711e-07
3.80438e-07
3.70368e-07
3.60593e-07
3.51207e-07
3.42178e-07
3.33562e-07
3.25228e-07
3.1718e-07
3.0918e-07
3.01769e-07
2.93743e-07
2.87115e-07
2.77303e-07
2.74402e-07
2.57795e-07
2.64536e-07
2.32183e-07
2.60532e-07
1.91785e-07
2.78119e-07
1.48761e-07
3.62189e-07
2.44002e-07
6.09052e-07
6.28893e-07
9.58253e-07
4.22129e-07
4.14338e-07
4.16398e-07
4.1185e-07
4.08822e-07
4.29387e-07
3.84375e-07
2.46996e-07
4.30691e-09
3.03987e-10
0
0
2.50496e-08
1.03399e-05
0.000309752
0.00078557
0.0171667
0.0883328
0.247483
0.468131
0.655789
0.701006
0.546371
0.219759
0.179163
0.497106
0.611622
0.494882
0.266638
0.0868274
0.0137361
0.000228596
4.89177e-05
2.22999e-07
0
0
8.08392e-11
8.55138e-09
9.56791e-08
3.33839e-07
4.36998e-07
4.10867e-07
3.71824e-07
3.59065e-07
3.58586e-07
3.56323e-07
3.50464e-07
3.43475e-07
3.36542e-07
3.2954e-07
3.22361e-07
3.15183e-07
3.08096e-07
3.01279e-07
2.94779e-07
2.88685e-07
2.83078e-07
2.77918e-07
2.73272e-07
2.68941e-07
2.64946e-07
2.60973e-07
2.57524e-07
2.53425e-07
2.50582e-07
2.4468e-07
2.44675e-07
2.31472e-07
2.39989e-07
2.11908e-07
2.41116e-07
1.78083e-07
2.63592e-07
1.4228e-07
3.52666e-07
2.44668e-07
6.065e-07
6.43432e-07
9.66268e-07
3.50816e-07
3.46127e-07
3.50862e-07
3.47365e-07
3.38926e-07
3.36547e-07
3.46287e-07
3.57274e-07
2.88737e-07
1.01673e-07
5.43787e-09
1.09937e-12
0
0
0
9.99771e-06
0.000290203
0.000532221
0.014286
0.0760984
0.215848
0.408657
0.565715
0.585579
0.421476
0.113804
0.230027
0.463287
0.495451
0.35209
0.16381
0.0437306
0.00449822
1.44501e-05
1.93236e-05
0
0
0
7.94042e-11
1.05686e-08
1.29891e-07
2.87309e-07
3.17833e-07
2.86726e-07
2.66244e-07
2.62568e-07
2.61963e-07
2.58545e-07
2.53476e-07
2.48307e-07
2.43403e-07
2.3867e-07
2.34134e-07
2.30032e-07
2.26416e-07
2.23378e-07
2.20981e-07
2.19201e-07
2.18042e-07
2.17304e-07
2.16978e-07
2.16673e-07
2.16826e-07
2.16282e-07
2.16854e-07
2.14414e-07
2.17064e-07
2.06975e-07
2.17175e-07
1.92845e-07
2.23153e-07
1.64788e-07
2.50671e-07
1.34708e-07
3.4524e-07
2.43064e-07
6.07537e-07
6.54101e-07
9.73265e-07
2.84442e-07
2.89842e-07
2.88552e-07
2.83419e-07
2.77981e-07
2.75074e-07
2.77905e-07
2.9387e-07
2.81452e-07
2.01471e-07
2.26188e-08
1.46017e-09
0
0
0
0
8.9059e-06
0.000276826
0.000541204
0.0138793
0.0722979
0.201056
0.371545
0.495992
0.482306
0.301004
0.0205909
0.271071
0.418219
0.383894
0.233926
0.0888972
0.01787
0.000842186
6.19894e-05
1.75569e-09
0
0
0
3.05596e-09
3.13778e-08
1.56911e-07
2.2311e-07
2.14449e-07
1.93399e-07
1.86071e-07
1.8518e-07
1.8342e-07
1.80116e-07
1.76721e-07
1.73769e-07
1.71273e-07
1.69399e-07
1.68185e-07
1.67733e-07
1.68088e-07
1.69213e-07
1.71057e-07
1.73389e-07
1.76182e-07
1.78978e-07
1.82147e-07
1.84537e-07
1.87875e-07
1.88233e-07
1.92981e-07
1.8561e-07
1.97074e-07
1.76119e-07
2.07125e-07
1.53089e-07
2.39175e-07
1.27937e-07
3.39199e-07
2.40808e-07
6.10126e-07
6.59819e-07
9.79657e-07
2.30048e-07
2.35549e-07
2.35003e-07
2.32033e-07
2.29344e-07
2.26166e-07
2.23328e-07
2.2368e-07
2.30372e-07
2.42522e-07
2.14144e-07
9.51029e-08
5.3514e-09
1.12103e-12
0
0
0
0
9.45922e-06
0.000274634
0.000782538
0.0154331
0.0748154
0.197754
0.347562
0.435608
0.383053
0.184946
0.0826362
0.293954
0.36025
0.277969
0.138817
0.039996
0.00486679
1.19101e-06
6.89478e-06
0
0
0
3.09891e-11
5.4676e-09
5.97392e-08
1.31347e-07
1.43138e-07
1.30197e-07
1.22188e-07
1.20854e-07
1.20358e-07
1.1904e-07
1.17747e-07
1.17123e-07
1.17377e-07
1.18502e-07
1.20558e-07
1.23578e-07
1.27447e-07
1.32076e-07
1.37171e-07
1.42668e-07
1.48103e-07
1.53768e-07
1.58536e-07
1.64019e-07
1.6655e-07
1.72809e-07
1.67786e-07
1.80061e-07
1.62182e-07
1.93349e-07
1.43593e-07
2.29242e-07
1.2292e-07
3.34249e-07
2.38508e-07
6.14001e-07
6.60641e-07
9.87065e-07
1.83254e-07
1.88098e-07
1.88012e-07
1.86083e-07
1.84464e-07
1.8256e-07
1.81244e-07
1.78893e-07
1.77349e-07
1.79277e-07
1.907e-07
1.89819e-07
1.44558e-07
1.9043e-08
1.36874e-09
1.89711e-14
0
0
0
0
1.96425e-05
1.75098e-05
0.00135063
0.0190974
0.0830104
0.202672
0.329664
0.375923
0.283137
0.0753268
0.15488
0.293607
0.288172
0.180651
0.0690879
0.0132324
0.000510733
5.3742e-05
0
0
0
0
2.12611e-09
2.01074e-08
6.4896e-08
8.30579e-08
7.76069e-08
7.02688e-08
6.80377e-08
6.82276e-08
6.89672e-08
7.03771e-08
7.29797e-08
7.68461e-08
8.18111e-08
8.77076e-08
9.43514e-08
1.01569e-07
1.09083e-07
1.16778e-07
1.24264e-07
1.31786e-07
1.38276e-07
1.452e-07
1.49213e-07
1.563e-07
1.53112e-07
1.65741e-07
1.50548e-07
1.81395e-07
1.3561e-07
2.20386e-07
1.18706e-07
3.29996e-07
2.35576e-07
6.18176e-07
6.5485e-07
9.96446e-07
1.54348e-07
1.57932e-07
1.58512e-07
1.57063e-07
1.55631e-07
1.54554e-07
1.53957e-07
1.52639e-07
1.5117e-07
1.4925e-07
1.49772e-07
1.53672e-07
1.64569e-07
1.43606e-07
8.66502e-08
2.52285e-10
4.04857e-11
0
0
0
0
6.54379e-09
2.56289e-05
1.69813e-05
0.0025395
0.0259531
0.0972266
0.212791
0.311012
0.310074
0.180244
0.0279394
0.202949
0.26548
0.205707
0.0994591
0.026342
0.00259065
4.46381e-06
2.75123e-06
0
0
0
3.24526e-10
1.18408e-09
1.09507e-08
1.68476e-08
2.06383e-08
2.12086e-08
2.2362e-08
2.64943e-08
3.26422e-08
3.97177e-08
4.74982e-08
5.5912e-08
6.47671e-08
7.38473e-08
8.30412e-08
9.21572e-08
1.01187e-07
1.09838e-07
1.18387e-07
1.25845e-07
1.33451e-07
1.38298e-07
1.45586e-07
1.43796e-07
1.56255e-07
1.43585e-07
1.73365e-07
1.31774e-07
2.14455e-07
1.17956e-07
3.27686e-07
2.32052e-07
6.23375e-07
6.36797e-07
1.01606e-06
1.26075e-07
1.2983e-07
1.30184e-07
1.2884e-07
1.27629e-07
1.27355e-07
1.27542e-07
1.25975e-07
1.25621e-07
1.25102e-07
1.23664e-07
1.22861e-07
1.25478e-07
1.31002e-07
1.3493e-07
1.03925e-07
3.78053e-08
3.13882e-09
2.34226e-12
0
0
0
0
1.73221e-08
7.9034e-05
3.36688e-05
0.00504679
0.036963
0.116904
0.223032
0.282838
0.230802
0.0735017
0.109905
0.219361
0.209421
0.121925
0.0405052
0.00593941
8.23949e-05
3.66786e-05
0
0
0
7.07031e-12
1.54651e-09
8.14262e-09
3.74497e-08
3.06385e-08
2.19791e-08
2.38553e-08
3.07137e-08
3.88686e-08
4.6978e-08
5.49999e-08
6.31897e-08
7.15076e-08
7.98821e-08
8.81171e-08
9.62479e-08
1.04063e-07
1.11819e-07
1.18667e-07
1.25532e-07
1.29871e-07
1.36137e-07
1.34527e-07
1.46035e-07
1.34693e-07
1.63189e-07
1.23768e-07
2.05416e-07
1.10655e-07
3.2161e-07
2.23055e-07
6.22494e-07
6.03593e-07
1.04834e-06
1.36085e-07
1.38016e-07
1.37877e-07
1.36407e-07
1.35011e-07
1.34065e-07
1.33508e-07
1.32034e-07
1.31058e-07
1.29923e-07
1.28156e-07
1.26599e-07
1.25425e-07
1.25105e-07
1.26856e-07
1.32521e-07
1.22222e-07
8.73832e-08
2.35483e-08
2.39356e-09
2.82617e-12
0
0
0
0
9.09389e-07
0.000155312
0.000358757
0.0104143
0.0548744
0.145007
0.239071
0.258102
0.15945
0.0262646
0.169244
0.21299
0.151156
0.0618036
0.0106191
0.000149544
6.56676e-05
3.02242e-05
6.13141e-06
1.86323e-07
0
2.24248e-11
2.19869e-09
4.33897e-08
8.75316e-08
8.124e-08
7.07807e-08
6.91102e-08
7.27084e-08
7.78554e-08
8.3427e-08
8.93691e-08
9.56787e-08
1.02179e-07
1.08778e-07
1.15322e-07
1.21953e-07
1.27995e-07
1.33985e-07
1.37813e-07
1.43135e-07
1.42046e-07
1.52154e-07
1.42789e-07
1.68484e-07
1.33065e-07
2.10104e-07
1.17889e-07
3.27738e-07
2.116e-07
6.34125e-07
5.47772e-07
1.16064e-06
1.16483e-07
1.17265e-07
1.17599e-07
1.18066e-07
1.18375e-07
1.18688e-07
1.19295e-07
1.20026e-07
1.20641e-07
1.20992e-07
1.21331e-07
1.21941e-07
1.22478e-07
1.23048e-07
1.23542e-07
1.26268e-07
1.31063e-07
1.3452e-07
1.22915e-07
9.29007e-08
2.39765e-08
2.13323e-09
0
0
0
0
0
5.82495e-06
0.000131384
0.00046506
0.00888295
0.041726
0.102855
0.161206
0.165439
0.0920642
0.0266772
0.118262
0.135904
0.0914674
0.0386669
0.00999178
0.00132402
2.64738e-05
2.28442e-05
3.85952e-06
0
0
1.75236e-09
2.69301e-08
8.02206e-08
1.03002e-07
1.03592e-07
1.01535e-07
1.01746e-07
1.03338e-07
1.05378e-07
1.07614e-07
1.09987e-07
1.12445e-07
1.14925e-07
1.17572e-07
1.19972e-07
1.22516e-07
1.23201e-07
1.24769e-07
1.21218e-07
1.28183e-07
1.17595e-07
1.40735e-07
1.03187e-07
1.79561e-07
7.89323e-08
2.92406e-07
1.75162e-07
5.76935e-07
5.46603e-07
1.14586e-06
)
;

boundaryField
{
    inlet
    {
        type            calculated;
        value           nonuniform List<scalar> 
27
(
6.10466e-06
6.11272e-06
6.12754e-06
6.14721e-06
6.16813e-06
6.18979e-06
6.21282e-06
6.23703e-06
6.26231e-06
6.28774e-06
6.31319e-06
6.3382e-06
6.36225e-06
6.38478e-06
6.40517e-06
6.4228e-06
6.43787e-06
6.40719e-06
6.41123e-06
6.40955e-06
6.399e-06
6.37851e-06
6.34537e-06
6.29814e-06
6.23026e-06
6.16267e-06
6.02587e-06
)
;
    }
    outlet
    {
        type            calculated;
        value           nonuniform List<scalar> 
78
(
9.45133e-08
9.56117e-08
9.6179e-08
9.69105e-08
9.74597e-08
9.80164e-08
9.89365e-08
1.00006e-07
1.00937e-07
1.01557e-07
1.02166e-07
1.03089e-07
1.03982e-07
1.04915e-07
1.05745e-07
1.08419e-07
1.12702e-07
1.15504e-07
1.05431e-07
8.04988e-08
2.15287e-08
2.0031e-09
0
0
0
0
0
5.85205e-06
0.000131079
0.000438671
0.0088034
0.0415776
0.102731
0.161322
0.166003
0.0930465
0.0249435
0.11705
0.135197
0.0912207
0.03865
0.0100217
0.00134091
1.74525e-05
2.17899e-05
3.67021e-06
0
0
1.53207e-09
2.39736e-08
7.20694e-08
9.27045e-08
9.30963e-08
9.09461e-08
9.06753e-08
9.14757e-08
9.25249e-08
9.36284e-08
9.47511e-08
9.58895e-08
9.69971e-08
9.83107e-08
9.93478e-08
1.00775e-07
1.00111e-07
1.01186e-07
9.58769e-08
1.04478e-07
8.97456e-08
1.19665e-07
6.91646e-08
1.64593e-07
2.11175e-08
2.81453e-07
1.56864e-07
5.57551e-07
5.47926e-07
1.08464e-06
)
;
    }
    walls
    {
        type            calculated;
        value           nonuniform List<scalar> 0();
    }
    frontAndBack
    {
        type            empty;
    }
    procBoundary7to3
    {
        type            processor;
        value           nonuniform List<scalar> 
16
(
1.11039e-06
1.20139e-06
9.09423e-07
7.75941e-07
6.86644e-07
5.87299e-07
4.81917e-07
3.93557e-07
2.87258e-07
2.87258e-07
2.31865e-07
1.84926e-07
1.55944e-07
1.26417e-07
1.38719e-07
1.14694e-07
)
;
    }
    procBoundary7to6
    {
        type            processor;
        value           nonuniform List<scalar> 
91
(
9.37136e-07
7.37462e-07
7.37462e-07
7.05982e-07
7.05982e-07
2.91174e-07
2.91174e-07
2.65367e-07
4.8259e-07
4.8259e-07
3.81562e-07
4.43245e-07
4.43245e-07
5.40303e-07
4.74904e-07
4.71397e-07
4.71397e-07
6.31907e-07
5.90919e-07
5.43438e-07
5.43438e-07
8.16553e-07
7.57965e-07
7.0221e-07
6.49376e-07
6.49376e-07
1.05887e-06
9.9379e-07
9.31247e-07
8.71378e-07
8.14217e-07
8.14217e-07
1.38499e-06
1.32252e-06
1.26022e-06
1.19835e-06
1.13725e-06
1.07721e-06
1.0185e-06
1.0185e-06
1.72347e-06
1.69198e-06
1.65852e-06
1.62293e-06
1.58516e-06
1.54526e-06
1.50329e-06
1.45938e-06
1.41372e-06
1.36656e-06
1.31809e-06
1.26856e-06
1.26856e-06
6.40692e-13
0
8.35122e-09
0.000340829
0.000303148
0.0261612
0.180931
0.53906
1.02495
1.47407
1.72878
1.68097
1.29515
0.627607
0.217602
0.979823
1.5001
1.58575
1.21991
0.63242
0.183678
0.0210278
1.39848e-05
3.42211e-06
0
0
0
5.03747e-08
7.17308e-07
1.79073e-06
1.84734e-06
1.63441e-06
1.55767e-06
1.54823e-06
1.53322e-06
1.50964e-06
1.48629e-06
1.48629e-06
)
;
    }
}


// ************************************************************************* //
