/*--------------------------------*- C++ -*----------------------------------*\
| =========                 |                                                 |
| \\      /  F ield         | OpenFOAM: The Open Source CFD Toolbox           |
|  \\    /   O peration     | Version:  2306                                  |
|   \\  /    A nd           | Website:  www.openfoam.com                      |
|    \\/     M anipulation  |                                                 |
\*---------------------------------------------------------------------------*/
FoamFile
{
    version     2.0;
    format      ascii;
    arch        "LSB;label=32;scalar=64";
    class       volScalarField;
    location    "475";
    object      p;
}
// * * * * * * * * * * * * * * * * * * * * * * * * * * * * * * * * * * * * * //

dimensions      [0 2 -2 0 0 0 0];

internalField   nonuniform List<scalar> 
1340
(
6.96625
15.2118
29.1346
52.8227
7.8685
15.9813
29.8255
52.5826
8.57655
16.6011
30.3109
52.1863
9.25278
17.1786
30.7153
51.7419
9.98937
17.8231
31.1505
51.2888
10.8337
18.5123
31.5706
50.7962
11.5557
19.1088
31.8935
50.229
12.4161
19.799
32.2425
49.66
13.2168
20.4254
32.5096
49.0313
14.0716
21.0801
32.7576
48.3723
14.9191
21.7131
32.9575
47.6778
15.7858
22.3441
33.1218
46.9528
16.6555
22.961
33.2463
46.1998
17.532
23.5662
33.3348
45.4227
18.4095
24.1555
33.3875
44.6252
19.2861
24.7278
33.407
43.8115
20.1581
25.281
33.3952
42.9854
21.0223
25.8133
33.3548
42.1519
21.8749
26.3233
33.2882
41.3154
22.7124
26.8094
33.1982
40.4803
23.5309
27.2703
33.0875
39.6513
24.3266
27.7048
32.9588
38.8329
25.0954
28.1118
32.8146
38.0291
25.8334
28.4902
32.6573
37.2439
26.5365
28.839
32.4892
36.4809
27.2008
29.1571
32.3119
35.7429
27.8223
29.4437
32.1269
35.0324
28.3972
29.6976
31.9355
34.3512
28.9218
29.9177
31.7381
33.7003
29.3926
30.1027
31.535
33.08
29.8063
30.2515
31.326
32.4901
30.1601
30.3627
31.1104
31.9294
30.4512
30.4347
30.8872
31.3961
30.6776
30.4664
30.6549
30.888
30.8374
30.4562
30.4119
30.402
30.9296
30.403
30.156
29.9349
30.9535
30.3055
29.8853
29.483
30.9089
30.1628
29.5975
29.0424
31.8168
30.7966
29.9744
29.2903
28.6093
31.6456
30.6177
29.7397
28.9618
28.1796
31.3967
30.374
29.459
28.6101
27.7495
31.0739
30.0678
29.1326
28.2336
27.3154
30.6821
29.7021
28.7615
27.831
26.874
30.2263
29.2802
28.347
27.4014
26.4226
29.7119
28.806
27.891
26.9446
25.9585
29.1447
28.2836
27.3956
26.4606
25.48
28.5305
27.7175
26.8634
25.9498
24.9856
27.8751
27.1121
26.2974
25.4132
24.4744
27.1844
26.4723
25.7006
24.8523
23.946
26.464
25.8027
25.0766
24.2688
23.4006
25.7193
25.108
24.4287
23.6647
22.8388
24.9554
24.3927
23.7605
23.0423
22.2617
24.635
24.1774
23.6613
23.0757
22.4041
21.6704
23.8041
23.3897
22.9179
22.3777
21.7528
21.0668
22.971
22.5964
22.1665
21.67
21.0911
20.4527
22.1393
21.8015
21.4107
20.956
20.4217
19.8302
21.3126
21.0084
20.654
20.2388
19.7474
19.2012
20.4937
20.2203
19.8995
19.5213
19.0707
18.5682
19.6855
19.4399
19.1501
18.8063
18.3942
17.9332
18.89
18.6698
18.4083
18.0964
17.7204
17.2985
18.1093
17.9119
17.6764
17.3939
17.0514
16.6663
17.4919
17.3451
17.1684
16.9564
16.701
16.3895
16.0386
16.7294
16.5988
16.4407
16.2501
16.0194
15.7367
15.4175
15.9877
15.8717
15.7303
15.5591
15.3511
15.0946
14.8049
15.2678
15.1648
15.0387
14.8851
14.6976
14.4653
14.2027
14.5701
14.4789
14.3665
14.2289
14.0602
13.85
13.6121
13.8962
13.8156
13.7155
13.5924
13.4408
13.2509
13.0359
13.349
13.2755
13.1838
13.0703
12.9301
12.7537
12.5541
12.8929
12.8242
12.7379
12.6308
12.4981
12.3306
12.1412
12.4248
12.3609
12.2801
12.1795
12.0544
11.8958
11.7167
11.9465
11.8877
11.8127
11.7188
11.6015
11.4521
11.2832
11.4999
11.4604
11.4067
11.3376
11.2506
11.1413
11.0012
10.843
11.0065
10.9724
10.9245
10.8616
10.7813
10.6797
10.5482
10.3983
10.503
10.4758
10.4357
10.3816
10.3113
10.221
10.1037
9.97373
10.0159
9.99042
9.95201
9.90022
9.83317
9.74657
9.62872
9.48349
9.54576
9.54466
9.53033
9.50158
9.4571
9.39734
9.32531
9.27383
8.87976
8.8542
8.82125
8.78089
8.729
8.65184
8.5147
8.27539
9.22407
9.26817
9.2901
9.29179
9.28098
9.28226
9.35019
9.59344
6.20892
6.19875
6.19656
6.19759
6.18384
6.10212
5.84445
5.23499
12.5359
12.6141
12.6605
12.6912
12.7389
12.8857
13.2567
14.0558
106.548
103.425
99.8864
96.1689
92.363
88.5538
84.8044
81.1629
77.6125
74.1808
70.8681
67.6847
64.6372
61.731
58.9704
56.3575
53.8935
51.5781
49.4094
47.3842
45.4981
43.7459
42.1214
40.6181
39.2288
37.9464
36.7634
35.6726
34.6668
33.7392
32.8831
32.0919
31.3593
30.6793
30.0458
29.4529
28.8951
28.3666
27.8621
27.3764
26.9044
26.4415
25.9832
25.5257
25.0653
24.5991
24.1244
23.6394
23.1424
22.6327
22.1096
21.5734
21.0244
20.4634
19.8918
19.3109
18.7224
18.1283
17.5304
16.9308
16.3314
15.7343
15.1414
14.5545
13.9758
13.4066
12.8502
12.3821
11.9785
11.5637
11.1396
10.7096
10.2712
9.86585
9.35455
9.23389
8.06574
9.76598
4.82028
14.3924
47.3146
47.5194
47.9039
48.2477
48.5205
48.6955
48.7624
48.7147
48.5497
48.2764
47.8951
47.4131
46.837
46.1745
45.4348
44.6279
43.7642
42.8544
41.91
40.9423
39.9622
38.9796
38.004
37.044
36.1068
35.1982
34.3231
33.4849
32.6856
31.9264
31.2073
30.5276
29.8855
29.2792
28.7058
28.1625
27.646
27.1528
26.6793
26.2219
25.7769
25.3407
24.9099
24.4811
24.0513
23.6178
23.178
22.73
22.2721
21.803
21.3221
20.8289
20.3235
19.8063
19.2781
18.74
18.1933
17.6395
17.0803
16.5175
15.953
15.3886
14.8265
14.2683
13.7163
13.1717
12.638
12.1881
11.7995
11.3996
10.9899
10.5741
10.1487
9.75823
9.25709
9.15075
8.00428
9.65428
4.90763
14.053
29.4179
29.507
29.5929
29.6691
29.7645
29.8803
30.0189
30.1754
30.3473
30.5293
30.7142
30.8966
31.0693
31.2259
31.3603
31.4664
31.5389
31.5732
31.5659
31.5145
31.4177
31.2754
31.0887
30.8599
30.5923
30.2899
29.9572
29.5993
29.2214
28.8284
28.4251
28.0158
27.6041
27.1931
26.785
26.3815
25.9834
25.591
25.2041
24.8218
24.4431
24.0664
23.69
23.3122
22.931
22.5446
22.1513
21.7496
21.3379
20.9153
20.481
20.0345
19.5757
19.1047
18.6222
18.1288
17.6257
17.114
16.5954
16.0713
15.5435
15.0139
14.4844
13.9568
13.4332
12.915
12.4059
11.9757
11.6036
11.2201
10.8261
10.4261
10.0156
9.6396
9.15523
9.04848
7.96021
9.49146
5.04625
13.6629
27.9781
28.0698
28.1356
28.1791
28.2057
28.2154
28.2101
28.19
28.1576
28.1138
28.0606
28
27.9333
27.8623
27.7881
27.7114
27.633
27.5526
27.4697
27.3834
27.2925
27.1952
27.0897
26.9742
26.8469
26.7062
26.5507
26.3798
26.1929
25.9903
25.7726
25.5407
25.2959
25.0397
24.7736
24.4993
24.2179
23.9307
23.6383
23.3414
23.0399
22.7338
22.4225
22.1054
21.7814
21.4497
21.1091
20.7586
20.3971
20.024
19.6385
19.2401
18.8288
18.4046
17.9678
17.519
17.0592
16.5894
16.1109
15.6252
15.1339
14.6388
14.1416
13.6443
13.1489
12.6568
12.1719
11.7609
11.4047
11.0368
10.6581
10.2734
9.87719
9.51518
9.04574
8.94329
7.89459
9.36237
5.08712
13.4132
23.7475
23.8607
23.9747
24.0845
24.1913
24.2944
24.3925
24.484
24.5677
24.6417
24.7051
24.7565
24.795
24.8198
24.8305
24.827
24.8092
24.7777
24.733
24.676
24.6076
24.5288
24.4408
24.3443
24.2402
24.129
24.0112
23.8868
23.7558
23.6181
23.4733
23.321
23.161
22.993
22.8167
22.6322
22.4392
22.2379
22.0283
21.8103
21.5839
21.349
21.1052
20.8521
20.5893
20.3161
20.0319
19.7359
19.4275
19.1061
18.7713
18.4226
18.0598
17.6832
17.2928
16.8893
16.4733
16.0459
15.6081
15.1613
14.707
14.247
13.7829
13.3165
12.85
12.3848
11.9248
11.5334
11.1934
10.8415
10.4786
10.1093
9.72797
9.38007
8.92556
8.83008
7.81178
9.24217
5.0763
13.2085
19.0748
19.1677
19.2655
19.3631
19.4642
19.5683
19.6755
19.7855
19.8978
20.012
20.1276
20.2437
20.3594
20.4736
20.5853
20.6932
20.796
20.8922
20.9807
21.0602
21.1296
21.188
21.2346
21.2688
21.2904
21.2993
21.2956
21.2795
21.2514
21.2116
21.1606
21.0989
21.0266
20.944
20.8514
20.7487
20.6359
20.5129
20.3796
20.2358
20.0813
19.9158
19.7389
19.5504
19.3497
19.1364
18.9102
18.6704
18.4166
18.1484
17.8654
17.5674
17.2543
16.9261
16.583
16.2255
15.8542
15.4699
15.0738
14.6669
14.2508
13.827
13.3972
12.9632
12.527
12.0901
11.6564
11.2858
10.9631
10.6284
10.2823
9.92952
9.56425
9.23111
8.79347
8.70363
7.72038
9.10415
15.9263
16.0126
16.1037
16.1954
16.2904
16.3876
16.4874
16.5895
16.6939
16.8004
16.9091
17.0198
17.1323
17.2464
17.3618
17.4784
17.5955
17.7127
17.8295
17.9451
18.0587
18.1693
18.276
18.3776
18.4732
18.5614
18.6414
18.7122
18.7728
18.8227
18.8611
18.8876
18.902
18.904
18.8936
18.8706
18.835
18.7869
18.726
18.6524
18.5659
18.4663
18.3534
18.2269
18.0865
17.9318
17.7625
17.5782
17.3785
17.1631
16.9318
16.6843
16.4206
16.1408
15.8449
15.5335
15.207
14.8663
14.5121
14.1457
13.7684
13.3816
12.987
12.5862
12.1813
11.7737
11.3675
11.0188
10.7143
10.3978
10.0695
9.73415
9.38601
9.06814
8.64928
8.56314
13.71
13.7907
13.8767
13.9643
14.0554
14.1491
14.2457
14.3449
14.4466
14.5508
14.6573
14.7658
14.8761
14.9881
15.1016
15.2161
15.3316
15.4476
15.5639
15.6802
15.7962
15.9113
16.0253
16.1376
16.2476
16.3548
16.4584
16.5576
16.6518
16.7399
16.8212
16.8946
16.9594
17.0148
17.0599
17.0941
17.1168
17.1274
17.1254
17.1105
17.0823
17.0403
16.9842
16.9136
16.8283
16.7277
16.6116
16.4796
16.3314
16.1666
15.985
15.7865
15.5708
15.3381
15.0885
14.8224
14.5401
14.2423
13.9298
13.6038
13.2652
12.9156
12.5564
12.1893
11.8163
11.4387
11.0606
10.7345
10.4488
10.1509
9.84109
9.52383
9.19358
8.89128
11.883
11.9548
12.0318
12.1108
12.1932
12.2787
12.3674
12.4592
12.5542
12.6522
12.7533
12.8574
12.9643
13.0739
13.186
13.3004
13.4168
13.535
13.6547
13.7754
13.8967
14.0184
14.14
14.2609
14.3807
14.4991
14.6153
14.7289
14.8393
14.946
15.0482
15.1453
15.2365
15.3212
15.3985
15.4676
15.5277
15.578
15.6178
15.6463
15.6627
15.6665
15.6569
15.6333
15.5953
15.5422
15.4735
15.3888
15.2877
15.1697
15.0347
14.8822
14.7121
14.5245
14.3193
14.0968
13.8574
13.6015
13.3299
13.0435
12.7433
12.4306
12.1068
11.7735
11.4326
11.0854
10.7358
10.4328
10.1663
9.88759
9.59677
10.3566
10.42
10.4879
10.5579
10.6311
10.7073
10.7866
10.869
10.9546
11.0433
11.1354
11.2306
11.329
11.4306
11.5353
11.643
11.7537
11.8671
11.9831
12.1014
12.2219
12.3441
12.4678
12.5925
12.7179
12.8433
12.9684
13.0925
13.2151
13.3356
13.4532
13.5674
13.6775
13.7827
13.8823
13.9757
14.062
14.1404
14.2101
14.2703
14.3203
14.3591
14.386
14.4003
14.4012
14.3879
14.3599
14.3164
14.257
14.181
14.0881
13.9779
13.8501
13.7046
13.5413
13.3603
13.1618
12.9462
12.7142
12.4664
12.2038
11.9274
11.6387
11.339
11.0302
10.7135
9.10522
9.16143
9.22142
9.28351
9.34856
9.41634
9.48706
9.56072
9.6374
9.71714
9.80001
9.88603
9.97521
10.0676
10.1631
10.2618
10.3636
10.4685
10.5763
10.687
10.8004
10.9164
11.0347
11.155
11.2772
11.4008
11.5255
11.6509
11.7764
11.9015
12.0257
12.1482
12.2686
12.3859
12.4996
12.6089
12.7128
12.8108
12.9018
12.9852
13.0599
13.1253
13.1803
13.2243
13.2562
13.2754
13.281
13.2723
13.2486
13.2092
13.1536
13.0812
12.9916
12.8846
12.7599
12.6175
12.4575
12.2801
12.0857
11.875
11.6487
8.0658
8.11547
8.16838
8.22329
8.28089
8.34102
8.40386
8.46945
8.53786
8.60917
8.68344
8.76072
8.84106
8.9245
9.01106
9.10076
9.19359
9.28954
9.38856
9.49062
9.59561
9.70344
9.81398
9.92707
10.0425
10.1601
10.2795
10.4004
10.5226
10.6456
10.7689
10.892
11.0145
11.1356
11.2548
11.3714
11.4846
11.5936
11.6976
11.7958
11.8873
11.9712
12.0466
12.1127
12.1684
12.213
12.2455
12.2651
12.271
12.2625
12.2388
12.1993
12.1434
12.0707
7.18427
7.22801
7.27452
7.32292
7.37371
7.42684
7.48242
7.54052
7.60124
7.66463
7.73079
7.79976
7.87162
7.94643
8.02424
8.10508
8.18898
8.27595
8.36602
8.45916
8.55534
8.6545
8.75657
8.86146
8.96903
9.07911
9.19151
9.30602
9.42238
9.54027
9.65933
9.77918
9.89939
10.0195
10.1389
10.257
10.3732
10.4869
10.5972
10.7034
10.8047
10.9002
)
;

boundaryField
{
    inlet
    {
        type            freestreamPressure;
        freestreamValue uniform 0;
        value           nonuniform List<scalar> 
13
(
7.07493
7.11765
7.14252
7.15856
7.18412
7.26566
7.47352
7.92326
8.11285
7.9218
7.70211
7.56148
7.44623
)
;
    }
    outlet
    {
        type            freestreamPressure;
        freestreamValue nonuniform List<scalar> 0();
        value           nonuniform List<scalar> 0();
    }
    walls
    {
        type            zeroGradient;
    }
    frontAndBack
    {
        type            empty;
    }
    procBoundary2to1
    {
        type            processor;
        value           nonuniform List<scalar> 
84
(
1.15472
2.23388
3.05544
3.86753
4.69098
5.70364
6.55153
7.57336
8.53477
9.56651
10.5987
11.6626
12.7393
13.8336
14.9384
16.0516
17.1682
18.2838
19.3935
20.492
21.5737
22.6327
23.663
24.6585
25.6129
26.5198
27.3734
28.1677
28.8971
29.5565
30.1413
30.6476
31.0719
31.4119
31.6657
31.8325
31.9125
31.9066
31.9066
33.0354
32.8238
32.5275
32.152
31.7034
31.1882
30.6129
29.9844
29.3094
28.5944
27.8459
27.0702
26.2729
25.4595
25.4595
25.0411
24.1684
23.2973
22.4312
21.5734
20.7265
19.8931
19.0751
18.2742
18.2742
17.6121
16.8355
16.0812
15.3501
14.6423
13.9593
13.406
12.9458
12.4734
11.9906
11.9906
11.5258
11.027
10.5178
10.0282
9.53458
8.89641
9.15889
6.22606
12.4193
)
;
    }
    procBoundary2to3
    {
        type            processor;
        value           nonuniform List<scalar> 
88
(
5.06218
12.9758
7.6209
5.06218
8.94694
8.49256
7.6209
8.40885
9.29806
8.98636
8.49256
8.69986
10.3929
10.1132
9.86627
9.6071
9.29806
9.33573
11.4077
11.1533
10.8868
10.6098
10.3929
10.3235
11.9809
11.8738
11.7492
11.6073
11.4483
11.2727
11.4077
11.0809
10.9891
11.0703
11.1431
11.2064
11.2595
11.3012
11.3308
11.3474
11.3502
11.3385
11.3116
11.9809
11.2688
6.42786
6.46632
6.50718
6.54976
6.59448
6.6413
6.69035
6.74167
6.79538
6.85153
6.91021
6.97149
7.03543
7.10213
7.17162
7.24397
7.31922
7.39743
7.47862
7.5628
7.64999
7.74017
7.83331
7.92936
8.02825
8.12989
8.23414
8.34084
8.44983
8.56085
8.67365
8.78791
8.90329
9.0194
9.13579
9.25196
9.36737
9.48143
9.59349
9.70289
9.80887
10.9891
9.91063
)
;
    }
    procBoundary2to6
    {
        type            processor;
        value           nonuniform List<scalar> 
13
(
106.908
46.9937
29.2627
27.8486
23.5998
18.9522
15.8207
13.6168
11.8022
10.2867
9.04434
8.01269
7.13795
)
;
    }
}


// ************************************************************************* //
