/*--------------------------------*- C++ -*----------------------------------*\
| =========                 |                                                 |
| \\      /  F ield         | OpenFOAM: The Open Source CFD Toolbox           |
|  \\    /   O peration     | Version:  2306                                  |
|   \\  /    A nd           | Website:  www.openfoam.com                      |
|    \\/     M anipulation  |                                                 |
\*---------------------------------------------------------------------------*/
FoamFile
{
    version     2.0;
    format      ascii;
    arch        "LSB;label=32;scalar=64";
    class       volSymmTensorField;
    location    "475";
    object      turbulenceProperties:R;
}
// * * * * * * * * * * * * * * * * * * * * * * * * * * * * * * * * * * * * * //

dimensions      [0 2 -2 0 0 0 0];

internalField   nonuniform List<symmTensor> 
1340
(
(28.5629 14.0096 1.0245e-15 35.6023 1.64261e-16 32.1355)
(26.9098 13.2866 1.45041e-15 34.4276 2.66644e-16 30.7168)
(25.1172 12.4694 -2.90364e-16 32.9255 -3.67432e-17 29.0663)
(20.1433 10.0656 -4.5543e-15 27.4165 -7.84148e-16 23.7897)
(0.856921 0.415506 -4.90906e-16 1.09894 -8.61325e-17 0.940203)
(0.934336 0.456125 -1.22503e-15 1.21466 -5.14986e-16 1.04032)
(1.13397 0.552251 -2.52489e-15 1.45541 -3.50856e-18 1.25443)
(1.57424 0.775688 -2.03887e-15 1.97924 1.35814e-15 1.79206)
(0.196711 0.0929597 2.15565e-16 0.218895 -1.7436e-17 0.20854)
(0.267596 0.127588 -1.17274e-15 0.305711 2.10857e-16 0.286713)
(0.333483 0.154073 2.94675e-15 0.353599 5.32836e-16 0.342292)
(0.548262 0.261166 4.6364e-15 0.615194 9.50542e-16 0.593698)
(0.00859518 0.00334403 -1.7422e-16 0.006761 -2.65976e-17 0.00776835)
(0.0268668 0.0112128 7.42372e-16 0.0232377 1.09799e-16 0.0257722)
(0.0706293 0.0278951 -4.8592e-16 0.0567039 -1.68196e-16 0.0644025)
(0.229864 0.104464 -3.29557e-16 0.230736 -1.40966e-15 0.237467)
(0.00229376 -0.000460333 -9.02619e-18 0.00107083 3.58749e-18 0.00181944)
(0.000888174 -9.1894e-05 -1.25522e-17 0.000354249 -1.04459e-17 0.000652369)
(0.00286014 0.000199278 5.25247e-17 0.00112311 3.7517e-18 0.00196112)
(0.0489442 0.0196842 -2.90204e-16 0.039909 5.22112e-17 0.0464821)
(3.11051e-07 -7.05647e-10 7.81879e-23 3.1035e-07 6.97076e-24 3.10225e-07)
(0.000148781 -2.26464e-05 -7.91484e-18 7.56295e-05 -1.56728e-19 9.58873e-05)
(0.00066859 -2.24771e-05 -1.52182e-17 0.000270257 -4.95219e-18 0.000428691)
(0.00614889 0.00205333 6.93804e-18 0.00402192 4.75293e-17 0.00533489)
(9.63626e-06 -2.36267e-07 -2.3751e-20 8.73495e-06 -2.99413e-21 9.32964e-06)
(8.95988e-07 -1.228e-09 3.75547e-22 8.86617e-07 9.81407e-23 8.925e-07)
(0 -0 0 0 0 0)
(0.00138371 0.000389035 2.18673e-17 0.000781882 1.94248e-18 0.00117662)
(1.41689e-05 -1.20405e-06 1.19812e-19 1.22573e-05 2.12536e-20 1.27477e-05)
(1.00592e-05 -3.58426e-07 -3.18369e-20 8.57886e-06 -1.35847e-20 9.13568e-06)
(1.0809e-06 1.61356e-10 5.29402e-23 1.06546e-06 1.25968e-23 1.07191e-06)
(0 0 0 0 -0 0)
(1.80008e-05 -1.17506e-06 -5.04216e-21 1.45136e-05 -5.65278e-21 1.64816e-05)
(1.9666e-05 -6.16844e-07 3.50088e-20 1.51823e-05 3.81614e-20 1.76985e-05)
(2.10592e-05 1.58405e-07 2.08923e-20 1.67756e-05 -2.14056e-20 1.89407e-05)
(7.97293e-07 2.00507e-09 -1.1475e-23 7.94507e-07 1.22687e-23 7.96258e-07)
(1.51457e-05 -1.17767e-06 3.98757e-20 1.2489e-05 5.27448e-21 1.3683e-05)
(1.5212e-05 -5.3635e-07 2.16231e-19 1.19747e-05 8.20446e-22 1.35436e-05)
(2.64918e-05 3.24518e-07 -2.53159e-19 1.95014e-05 2.26194e-20 2.27737e-05)
(1.11283e-05 4.14156e-07 1.04068e-20 1.05812e-05 4.88389e-21 1.09172e-05)
(1.53365e-05 -1.09501e-06 4.16002e-21 1.24906e-05 -8.30598e-21 1.39419e-05)
(1.55173e-05 -4.64787e-07 -2.46932e-19 1.2157e-05 -3.88461e-20 1.39125e-05)
(2.24275e-05 3.31911e-07 3.16804e-19 1.70085e-05 4.87149e-20 1.96421e-05)
(2.61618e-05 2.27227e-06 8.66739e-20 2.31944e-05 -3.2872e-20 2.50142e-05)
(1.42135e-05 -1.04818e-06 -9.46049e-20 1.16409e-05 -4.43676e-21 1.28896e-05)
(1.46619e-05 -4.41425e-07 1.60088e-19 1.14399e-05 2.35587e-20 1.30744e-05)
(1.89703e-05 3.24458e-07 -1.44641e-19 1.46738e-05 -6.44409e-20 1.67396e-05)
(2.86495e-05 2.91668e-06 -1.82055e-19 2.49223e-05 -1.0195e-19 2.71897e-05)
(1.3674e-05 -9.90648e-07 1.09028e-19 1.11754e-05 1.33933e-20 1.24178e-05)
(1.41533e-05 -3.96918e-07 -2.24826e-19 1.10155e-05 -2.98834e-20 1.26284e-05)
(1.74181e-05 3.49163e-07 -1.49911e-20 1.353e-05 2.39223e-20 1.54144e-05)
(2.62332e-05 2.69937e-06 -2.91898e-19 2.28486e-05 3.20774e-20 2.48956e-05)
(1.29098e-05 -9.42983e-07 -8.00658e-20 1.05628e-05 -1.48898e-20 1.17198e-05)
(1.33016e-05 -3.5735e-07 1.46898e-19 1.03471e-05 4.53593e-20 1.18574e-05)
(1.61183e-05 3.7414e-07 2.3012e-20 1.25308e-05 1.97637e-20 1.42696e-05)
(2.35527e-05 2.4218e-06 1.69197e-19 2.05853e-05 5.78672e-20 2.23667e-05)
(1.22238e-05 -8.9274e-07 1.66963e-20 1.00004e-05 7.40518e-21 1.11021e-05)
(1.25314e-05 -3.18958e-07 6.37011e-20 9.74197e-06 -1.40058e-20 1.11709e-05)
(1.49021e-05 3.92221e-07 1.2087e-19 1.15979e-05 -7.80435e-21 1.32051e-05)
(2.12179e-05 2.19218e-06 -8.27451e-20 1.85954e-05 -5.30502e-20 2.01588e-05)
(1.14864e-05 -8.43553e-07 1.12318e-20 9.40365e-06 7.85723e-24 1.04351e-05)
(1.17173e-05 -2.85022e-07 -9.3037e-20 9.10434e-06 -1.27879e-20 1.04413e-05)
(1.36919e-05 4.02434e-07 -1.59429e-19 1.06735e-05 -4.13018e-20 1.21448e-05)
(1.91084e-05 1.9903e-06 -9.43221e-20 1.67906e-05 3.5277e-20 1.81623e-05)
(1.07514e-05 -7.94146e-07 -4.40091e-21 8.80821e-06 1.46786e-21 9.77232e-06)
(1.0911e-05 -2.5412e-07 5.01704e-20 8.47364e-06 1.88903e-21 9.72048e-06)
(1.2534e-05 4.06236e-07 -6.54311e-20 9.78938e-06 2.16909e-20 1.11309e-05)
(1.71552e-05 1.80299e-06 2.25681e-19 1.51168e-05 1.67732e-20 1.63145e-05)
(1.00034e-05 -7.45226e-07 4.12633e-20 8.20424e-06 -2.53064e-21 9.09763e-06)
(1.00961e-05 -2.26188e-07 -1.46912e-19 7.83763e-06 -1.85348e-20 8.99222e-06)
(1.14257e-05 4.04651e-07 9.73292e-20 8.94241e-06 2.64226e-20 1.01595e-05)
(1.53442e-05 1.62839e-06 -1.73249e-19 1.35641e-05 -1.66126e-20 1.46022e-05)
(9.25268e-06 -6.96663e-07 -1.1449e-19 7.59903e-06 -1.15544e-20 8.4212e-06)
(9.28323e-06 -2.00892e-07 3.53748e-20 7.20416e-06 2.46042e-20 8.26645e-06)
(1.03671e-05 3.98025e-07 7.26397e-20 8.13212e-06 -9.38168e-21 9.23018e-06)
(1.36702e-05 1.46598e-06 2.80912e-19 1.2128e-05 3.50035e-20 1.30203e-05)
(8.50142e-06 -6.48759e-07 5.80073e-20 6.99459e-06 1.22859e-20 7.74458e-06)
(8.47436e-06 -1.78135e-07 1.14158e-19 6.57472e-06 3.75323e-21 7.54469e-06)
(9.36017e-06 3.8711e-07 -7.04669e-20 7.36017e-06 -1.9243e-20 8.34539e-06)
(1.21366e-05 1.3161e-06 -1.68621e-19 1.08109e-05 -4.90811e-20 1.15723e-05)
(7.75442e-06 -6.01541e-07 -1.56371e-20 6.39452e-06 -4.87322e-21 7.07214e-06)
(7.6745e-06 -1.57591e-07 -8.70988e-20 5.95298e-06 -1.72168e-20 6.83139e-06)
(8.40194e-06 3.72659e-07 -4.14396e-20 6.62432e-06 6.88057e-21 7.50214e-06)
(1.07333e-05 1.17806e-06 3.20546e-20 9.60491e-06 2.28729e-20 1.02481e-05)
(7.01571e-06 -5.55075e-07 4.62112e-21 5.80192e-06 3.52017e-21 6.40745e-06)
(6.88898e-06 -1.39015e-07 1.33404e-20 5.3429e-06 8.11764e-21 6.13131e-06)
(7.49385e-06 3.55141e-07 4.90717e-20 5.92559e-06 1.45278e-20 6.70191e-06)
(9.45587e-06 1.05146e-06 1.9063e-21 8.50631e-06 -8.0945e-21 9.0437e-06)
(6.29008e-06 -5.09515e-07 3.27497e-20 5.22059e-06 1.68671e-21 5.75477e-06)
(6.12136e-06 -1.22129e-07 3.13803e-21 4.74714e-06 -2.38192e-21 5.44749e-06)
(6.63587e-06 3.35531e-07 6.63925e-20 5.26437e-06 -7.26083e-21 5.9449e-06)
(8.2996e-06 9.3594e-07 -4.75434e-20 7.5113e-06 -2.43755e-21 7.95452e-06)
(5.5825e-06 -4.64984e-07 -2.60823e-20 4.65445e-06 -3.53701e-21 5.11856e-06)
(5.37693e-06 -1.06781e-07 -2.35639e-20 4.1697e-06 7.98803e-22 4.78465e-06)
(5.82703e-06 3.14152e-07 -1.30719e-19 4.63997e-06 -1.58805e-20 5.23022e-06)
(7.25512e-06 8.30644e-07 2.67023e-20 6.61205e-06 9.42178e-21 6.97145e-06)
(4.89744e-06 -4.21528e-07 1.8672e-20 4.10698e-06 6.28928e-22 4.5028e-06)
(4.65919e-06 -9.2644e-08 5.22106e-20 3.61316e-06 7.35515e-21 4.1458e-06)
(5.06948e-06 2.91879e-07 4.89287e-20 4.05454e-06 2.19182e-20 4.56024e-06)
(6.31814e-06 7.3519e-07 2.80113e-20 5.80505e-06 3.77569e-21 6.09054e-06)
(4.23996e-06 -3.79227e-07 -4.84208e-20 3.58217e-06 -3.77759e-21 3.91205e-06)
(3.97214e-06 -7.95416e-08 -2.33807e-21 3.08054e-06 -1.6717e-21 3.53446e-06)
(4.36346e-06 2.69231e-07 8.79045e-20 3.50867e-06 9.94178e-22 3.93538e-06)
(5.48061e-06 6.48869e-07 4.51524e-20 5.08387e-06 -5.13963e-21 5.30403e-06)
(3.61508e-06 -3.38184e-07 4.15918e-20 3.08415e-06 7.05829e-21 3.35089e-06)
(3.31937e-06 -6.72312e-08 3.36975e-20 2.57454e-06 3.07718e-21 2.95379e-06)
(3.7107e-06 2.46779e-07 -6.65684e-20 3.00424e-06 -9.88604e-21 3.35753e-06)
(4.73732e-06 5.71156e-07 -1.06836e-19 4.44424e-06 -9.56769e-21 4.60706e-06)
(3.02815e-06 -2.98481e-07 2.25115e-21 2.61738e-06 -2.16546e-21 2.82423e-06)
(2.70361e-06 -5.55796e-08 -1.08734e-20 2.09721e-06 -5.02288e-21 2.40613e-06)
(3.11275e-06 2.24987e-07 4.8889e-20 2.54313e-06 5.14142e-21 2.82845e-06)
(4.08206e-06 5.01432e-07 6.97851e-20 3.88131e-06 9.15827e-21 3.9937e-06)
(2.48508e-06 -2.6019e-07 -2.93884e-21 2.187e-06 -9.23624e-22 2.33762e-06)
(2.12754e-06 -4.43616e-08 -3.22328e-20 1.65055e-06 -4.00415e-21 1.89382e-06)
(2.57274e-06 2.04284e-07 -7.19162e-20 2.12868e-06 -8.59026e-21 2.35146e-06)
(3.51005e-06 4.39146e-07 -8.63036e-20 3.39131e-06 -1.39349e-20 3.45951e-06)
(1.99345e-06 -2.23396e-07 -9.38506e-21 1.79987e-06 -1.31076e-21 1.89829e-06)
(1.59332e-06 -3.34791e-08 -2.25405e-20 1.23617e-06 -8.81067e-22 1.41877e-06)
(2.09492e-06 1.85011e-07 3.4919e-20 1.7654e-06 8.28414e-21 1.93099e-06)
(3.01728e-06 3.83805e-07 -8.13772e-21 2.97123e-06 9.44406e-21 3.00074e-06)
(1.56351e-06 -1.88183e-07 -9.25648e-21 1.46573e-06 -1.0226e-21 1.51622e-06)
(1.10183e-06 -2.28451e-08 -5.87058e-21 8.54733e-07 2.1014e-21 9.81642e-07)
(1.68604e-06 1.67429e-07 3.16303e-21 1.4603e-06 -1.10993e-21 1.574e-06)
(2.59991e-06 3.34875e-07 8.33626e-20 2.61813e-06 1.33158e-20 2.61381e-06)
(1.21093e-06 -1.54636e-07 -1.27766e-20 1.1998e-06 -1.08054e-21 1.20693e-06)
(6.54661e-07 -1.23679e-08 3.05811e-20 5.07458e-07 2.95944e-21 5.83886e-07)
(1.35572e-06 1.51711e-07 1.22602e-20 1.22337e-06 -5.70856e-22 1.29027e-06)
(2.25471e-06 2.91901e-07 8.3382e-20 2.3296e-06 6.77349e-23 2.29576e-06)
(9.5802e-07 -1.22862e-07 -3.79173e-21 1.02413e-06 1.18829e-21 9.92573e-07)
(2.53519e-07 -2.03722e-09 -9.85423e-21 1.95976e-07 -1.88116e-21 2.27137e-07)
(1.11618e-06 1.37946e-07 -2.93021e-20 1.06711e-06 -3.63993e-21 1.09225e-06)
(1.978e-06 2.54424e-07 -7.27076e-20 2.10259e-06 -1.41249e-20 2.04309e-06)
(8.25248e-07 -9.2941e-08 2.32881e-20 9.59112e-07 2.36707e-21 8.93586e-07)
(9.59828e-08 8.16308e-09 1.36671e-20 1.17886e-07 -1.48852e-22 1.0896e-07)
(9.75603e-07 1.2619e-07 2.05124e-22 1.00006e-06 3.27348e-21 9.88298e-07)
(1.76495e-06 2.22009e-07 -5.24363e-20 1.93286e-06 -5.56838e-22 1.85116e-06)
(8.07378e-07 -6.49589e-08 -4.94546e-21 9.99522e-07 -1.14959e-21 9.04733e-07)
(3.36916e-07 1.81919e-08 -4.66856e-20 4.28196e-07 -4.22925e-21 3.84282e-07)
(9.26123e-07 1.1639e-07 3.57048e-20 1.01474e-06 1.64462e-21 9.7077e-07)
(1.60869e-06 1.94218e-07 2.51105e-20 1.81403e-06 2.95551e-21 1.71328e-06)
(8.66679e-07 -3.89919e-08 7.95867e-21 1.10781e-06 7.15348e-22 9.88408e-07)
(5.51235e-07 2.80141e-08 2.98078e-20 7.0208e-07 4.53379e-21 6.28132e-07)
(9.42196e-07 1.08452e-07 -4.39348e-20 1.08605e-06 -5.14719e-21 1.01434e-06)
(1.50043e-06 1.70634e-07 -4.71416e-20 1.73772e-06 -5.31346e-21 1.62079e-06)
(9.61146e-07 -1.51158e-08 -7.48842e-21 1.24232e-06 -5.90833e-22 1.10276e-06)
(7.35147e-07 3.75441e-08 -1.41955e-20 9.36103e-07 -2.5786e-21 8.36893e-07)
(9.93978e-07 1.02245e-07 2.19844e-20 1.18457e-06 3.07516e-21 1.0894e-06)
(1.42987e-06 1.50851e-07 1.41021e-20 1.69398e-06 5.88398e-21 1.56352e-06)
(1.06308e-06 6.62863e-09 1.30229e-20 1.37577e-06 1.79448e-21 1.22032e-06)
(8.89879e-07 4.6704e-08 3.52755e-21 1.13197e-06 3.48324e-22 1.01202e-06)
(1.05888e-06 9.75826e-08 -2.79469e-20 1.28822e-06 -2.03278e-21 1.17359e-06)
(1.38651e-06 1.34454e-07 6.52569e-20 1.67261e-06 5.65862e-21 1.5311e-06)
(1.46243e-06 1.25126e-08 -8.87011e-21 1.8921e-06 -8.83357e-23 1.67802e-06)
(1.15792e-06 2.61909e-08 3.85869e-21 1.49416e-06 -1.39426e-21 1.32681e-06)
(1.01702e-06 5.53811e-08 -1.65589e-20 1.29182e-06 2.36175e-22 1.15535e-06)
(1.12327e-06 9.42702e-08 4.77377e-20 1.38388e-06 6.10449e-21 1.25356e-06)
(1.3609e-06 1.21056e-07 -9.22126e-21 1.66446e-06 -3.19684e-21 1.5142e-06)
(1.48726e-06 3.6751e-08 2.39964e-20 1.9179e-06 2.6415e-21 1.70322e-06)
(1.23872e-06 4.35705e-08 -3.89185e-20 1.59119e-06 -4.05143e-21 1.4156e-06)
(1.11844e-06 6.34948e-08 5.95003e-20 1.41812e-06 5.66915e-21 1.26909e-06)
(1.17984e-06 9.20888e-08 3.83883e-21 1.46477e-06 -3.14773e-21 1.32224e-06)
(1.3453e-06 1.10268e-07 3.00661e-21 1.66205e-06 6.49255e-22 1.50521e-06)
(1.50835e-06 5.75442e-08 -6.73722e-21 1.93479e-06 -1.75998e-21 1.7221e-06)
(1.30262e-06 5.87703e-08 7.63354e-21 1.6647e-06 2.80335e-21 1.4842e-06)
(1.19624e-06 7.09323e-08 -3.3049e-20 1.51366e-06 -5.68024e-21 1.35564e-06)
(1.2251e-06 9.0807e-08 -5.46767e-20 1.52798e-06 -5.18928e-21 1.37644e-06)
(1.33401e-06 1.01713e-07 -1.75605e-21 1.65995e-06 -1.37077e-21 1.49851e-06)
(1.52166e-06 7.50443e-08 -9.51209e-21 1.9395e-06 -3.76284e-22 1.73102e-06)
(1.34895e-06 7.18348e-08 2.30085e-20 1.71476e-06 2.79961e-21 1.53229e-06)
(1.25251e-06 7.76216e-08 -6.38597e-21 1.58122e-06 9.43445e-22 1.41745e-06)
(1.25766e-06 9.02211e-08 2.01383e-20 1.5727e-06 4.08822e-21 1.41506e-06)
(1.32296e-06 9.50543e-08 -3.46784e-20 1.65436e-06 -2.56635e-21 1.49022e-06)
(1.5251e-06 8.9439e-08 1.53984e-20 1.93064e-06 2.01092e-21 1.72822e-06)
(1.37824e-06 8.28248e-08 1.8965e-20 1.74267e-06 1.21194e-21 1.56081e-06)
(1.28946e-06 8.34927e-08 1.82062e-20 1.62377e-06 1.56163e-21 1.45711e-06)
(1.27751e-06 9.01124e-08 5.6898e-21 1.59951e-06 6.86113e-22 1.43837e-06)
(1.30964e-06 8.99491e-08 3.36994e-20 1.64308e-06 4.97467e-21 1.47792e-06)
(1.51794e-06 1.00946e-07 2.41727e-21 1.90822e-06 -2.04064e-22 1.71336e-06)
(1.39167e-06 9.18241e-08 -5.29717e-21 1.75037e-06 -1.68194e-21 1.57129e-06)
(1.30923e-06 8.84827e-08 -2.12447e-20 1.64417e-06 -2.43013e-21 1.47712e-06)
(1.28519e-06 9.02938e-08 2.46125e-20 1.60956e-06 1.92643e-21 1.44723e-06)
(1.29253e-06 8.61018e-08 1.68812e-20 1.62488e-06 7.1302e-22 1.46026e-06)
(1.50038e-06 1.09809e-07 -1.0428e-21 1.87311e-06 -3.85113e-23 1.68696e-06)
(1.39083e-06 9.89557e-08 -2.32096e-20 1.7402e-06 -2.28079e-21 1.56573e-06)
(1.31401e-06 9.25803e-08 1.47728e-20 1.64532e-06 1.95317e-21 1.48003e-06)
(1.28169e-06 9.06029e-08 -1.80011e-20 1.60441e-06 -3.12254e-21 1.4429e-06)
(1.27084e-06 8.32415e-08 -6.37639e-21 1.59927e-06 -1.97607e-21 1.43661e-06)
(1.47319e-06 1.16282e-07 4.93887e-21 1.82668e-06 5.08931e-22 1.6501e-06)
(1.37749e-06 1.04343e-07 4.70201e-21 1.71463e-06 1.61359e-21 1.54621e-06)
(1.30591e-06 9.57659e-08 -8.85394e-21 1.63006e-06 -1.35837e-21 1.46829e-06)
(1.26832e-06 9.0898e-08 -2.02206e-20 1.58599e-06 -1.1171e-21 1.42699e-06)
(1.24447e-06 8.11222e-08 -3.71687e-20 1.56652e-06 -3.30034e-21 1.40703e-06)
(1.43745e-06 1.20625e-07 -4.72084e-21 1.7706e-06 -5.0511e-22 1.60416e-06)
(1.35342e-06 1.08123e-07 2.23914e-20 1.67611e-06 2.00768e-21 1.51487e-06)
(1.28686e-06 9.80528e-08 -1.44972e-21 1.60097e-06 -1.52533e-24 1.44418e-06)
(1.2463e-06 9.1061e-08 2.28729e-20 1.55604e-06 3.13938e-21 1.401e-06)
(1.21357e-06 7.95339e-08 2.34124e-20 1.52708e-06 2.60584e-21 1.37184e-06)
(1.39449e-06 1.23101e-07 7.33327e-21 1.70668e-06 1.19607e-21 1.55068e-06)
(1.32045e-06 1.10462e-07 -1.74821e-20 1.62704e-06 -2.91898e-21 1.47381e-06)
(1.25875e-06 9.94782e-08 -2.67972e-21 1.56056e-06 -1.08707e-22 1.40988e-06)
(1.21697e-06 9.10112e-08 8.49234e-21 1.51644e-06 9.38353e-22 1.36654e-06)
(1.1785e-06 7.82961e-08 -3.61621e-20 1.48165e-06 -4.34969e-21 1.33157e-06)
(1.34556e-06 1.23944e-07 1.41858e-20 1.6366e-06 1.35598e-21 1.49115e-06)
(1.28019e-06 1.11496e-07 -2.29111e-20 1.56957e-06 -2.20907e-21 1.42492e-06)
(1.22328e-06 1.00074e-07 6.33889e-21 1.51109e-06 4.83366e-22 1.36737e-06)
(1.1816e-06 9.06643e-08 2.42845e-20 1.46897e-06 2.68979e-21 1.32511e-06)
(1.13988e-06 7.72474e-08 3.86787e-21 1.4312e-06 9.97319e-22 1.28699e-06)
(1.29191e-06 1.23394e-07 -8.08801e-21 1.56196e-06 -1.05446e-21 1.42699e-06)
(1.23412e-06 1.11375e-07 1.03e-21 1.50565e-06 7.67983e-22 1.36991e-06)
(1.18185e-06 9.9883e-08 -1.34743e-20 1.45445e-06 -1.67623e-21 1.31831e-06)
(1.14126e-06 8.99722e-08 8.8928e-21 1.41514e-06 7.08291e-24 1.27803e-06)
(1.09817e-06 7.62603e-08 -9.0366e-21 1.37647e-06 -1.30767e-21 1.23874e-06)
(1.2346e-06 1.21643e-07 8.12577e-21 1.48409e-06 1.02689e-21 1.35938e-06)
(1.18352e-06 1.1023e-07 1.23125e-20 1.43694e-06 1.03931e-21 1.31024e-06)
(1.13576e-06 9.89564e-08 -8.36907e-22 1.39239e-06 6.74891e-22 1.26422e-06)
(1.09697e-06 8.8888e-08 -2.64478e-20 1.35636e-06 -3.52186e-21 1.22649e-06)
(1.05392e-06 7.52096e-08 -1.45189e-20 1.31833e-06 -1.36967e-21 1.1875e-06)
(1.1745e-06 1.18863e-07 -3.15962e-21 1.40408e-06 -5.70896e-22 1.28932e-06)
(1.12939e-06 1.08171e-07 -2.2044e-20 1.36472e-06 -2.83161e-21 1.24705e-06)
(1.086e-06 9.73229e-08 2.97625e-20 1.32622e-06 3.63242e-21 1.20623e-06)
(1.04949e-06 8.73696e-08 -2.22805e-20 1.29375e-06 -1.56073e-21 1.17144e-06)
(1.00755e-06 7.39905e-08 5.63697e-21 1.25745e-06 7.72876e-22 1.13382e-06)
(1.15348e-06 1.2511e-07 1.9055e-21 1.35537e-06 6.21919e-23 1.25444e-06)
(1.11234e-06 1.15207e-07 -4.47372e-21 1.32281e-06 -8.06398e-22 1.2176e-06)
(1.07256e-06 1.05303e-07 -4.67741e-21 1.2901e-06 2.92445e-22 1.18131e-06)
(1.03336e-06 9.50289e-08 1.27498e-20 1.25707e-06 7.24178e-22 1.14533e-06)
(9.99459e-07 8.53912e-08 2.95378e-20 1.22822e-06 4.08346e-21 1.11367e-06)
(9.59411e-07 7.25135e-08 -4.12442e-21 1.1944e-06 -6.81545e-22 1.07817e-06)
(1.08442e-06 1.19731e-07 -4.95992e-21 1.26735e-06 -4.66321e-22 1.17589e-06)
(1.04871e-06 1.10807e-07 -2.44229e-20 1.24097e-06 -2.7623e-21 1.14485e-06)
(1.01372e-06 1.0172e-07 3.46841e-20 1.21395e-06 3.90965e-21 1.11381e-06)
(9.78514e-07 9.21146e-08 -1.73754e-20 1.18583e-06 -2.05539e-21 1.08227e-06)
(9.47421e-07 8.29338e-08 2.2651e-20 1.16061e-06 2.08784e-21 1.05385e-06)
(9.09811e-07 7.07122e-08 -8.67758e-21 1.12971e-06 -8.36475e-22 1.02096e-06)
(1.01523e-06 1.13805e-07 1.31291e-20 1.18055e-06 1.68736e-21 1.09789e-06)
(9.84265e-07 1.05808e-07 5.8178e-21 1.1593e-06 9.48443e-22 1.07179e-06)
(9.53573e-07 9.75351e-08 -1.74714e-20 1.13713e-06 -2.47215e-21 1.04533e-06)
(9.22153e-07 8.86552e-08 1.15396e-20 1.11341e-06 1.46051e-21 1.01787e-06)
(8.93954e-07 8.00283e-08 -2.70538e-21 1.09168e-06 -7.35402e-22 9.92661e-07)
(8.59099e-07 6.85602e-08 6.66377e-21 1.06391e-06 8.78522e-22 9.62638e-07)
(9.46613e-07 1.07499e-07 3.72399e-21 1.09564e-06 1.55767e-22 1.02113e-06)
(9.19799e-07 1.00368e-07 -4.01594e-21 1.07866e-06 -3.74626e-22 9.99238e-07)
(8.92972e-07 9.28912e-08 4.32587e-21 1.06062e-06 8.09063e-22 9.76773e-07)
(8.65084e-07 8.4753e-08 -1.05837e-20 1.0408e-06 -1.19486e-21 9.53019e-07)
(8.3977e-07 7.67344e-08 -7.24763e-21 1.02237e-06 -8.5362e-22 9.3092e-07)
(8.07827e-07 6.60772e-08 -4.59178e-22 9.9776e-07 -3.8905e-23 9.03848e-07)
(8.7948e-07 1.01005e-07 -1.43215e-20 1.01353e-06 -1.71273e-21 9.46509e-07)
(8.56298e-07 9.46719e-08 1.6275e-20 1.00009e-06 2.19061e-21 9.28198e-07)
(8.32919e-07 8.79544e-08 6.96483e-21 9.85551e-07 6.16259e-22 9.09209e-07)
(8.08294e-07 8.05526e-08 1.65814e-20 9.69136e-07 1.94294e-21 8.88785e-07)
(7.85774e-07 7.31717e-08 -4.06858e-21 9.53746e-07 -3.06052e-22 8.69622e-07)
(7.56741e-07 6.33466e-08 9.03064e-21 9.32167e-07 8.53568e-22 8.45433e-07)
(8.14827e-07 9.45095e-08 6.73992e-21 9.35207e-07 9.37969e-22 8.75018e-07)
(7.9481e-07 8.89072e-08 1.79187e-20 9.2467e-07 1.92447e-21 8.59745e-07)
(7.74482e-07 8.29033e-08 -1.53257e-20 9.13065e-07 -1.74613e-21 8.43749e-07)
(7.52817e-07 7.62142e-08 -1.36838e-20 8.99589e-07 -2.05265e-21 8.26267e-07)
(7.32915e-07 6.94725e-08 5.78691e-21 8.86916e-07 6.90137e-22 8.09791e-07)
(7.06688e-07 6.04717e-08 -1.89347e-20 8.68159e-07 -2.07138e-21 7.88326e-07)
(7.53409e-07 8.81627e-08 -2.60411e-21 8.61377e-07 -6.05088e-22 8.07393e-07)
(7.36122e-07 8.32209e-08 -8.031e-21 8.53202e-07 -9.34854e-22 7.94666e-07)
(7.18472e-07 7.7878e-08 1.69503e-20 8.44026e-07 2.15555e-21 7.81225e-07)
(6.99462e-07 7.18648e-08 -2.42875e-20 8.33056e-07 -2.71068e-21 7.66317e-07)
(6.81964e-07 6.57482e-08 -5.35679e-21 8.22766e-07 -7.06407e-22 7.5225e-07)
(6.58405e-07 5.7551e-08 2.47609e-20 8.06604e-07 2.90586e-21 7.33334e-07)
(6.95398e-07 8.20264e-08 -2.73668e-20 7.92143e-07 -3.26696e-21 7.43769e-07)
(6.80462e-07 7.76773e-08 2.26707e-20 7.85871e-07 2.64935e-21 7.3317e-07)
(6.65145e-07 7.29382e-08 -4.56058e-21 7.78689e-07 -5.88982e-22 7.21895e-07)
(6.48511e-07 6.75585e-08 4.84824e-21 7.69848e-07 8.46034e-22 7.09232e-07)
(6.33198e-07 6.20432e-08 2.21654e-21 7.61615e-07 4.80044e-23 6.97302e-07)
(6.12167e-07 5.46203e-08 -1.88069e-20 7.47841e-07 -2.33325e-21 6.80766e-07)
(6.40334e-07 7.60747e-08 8.58567e-21 7.26921e-07 1.216e-21 6.83627e-07)
(6.27418e-07 7.22526e-08 -2.38517e-20 7.22173e-07 -3.06926e-21 6.74799e-07)
(6.14144e-07 6.80608e-08 1.54323e-20 7.16632e-07 1.95181e-21 6.65368e-07)
(5.9964e-07 6.32675e-08 5.67373e-21 7.09603e-07 5.51153e-22 6.54669e-07)
(5.86309e-07 5.8317e-08 -2.76125e-20 7.03153e-07 -3.36021e-21 6.44635e-07)
(5.67701e-07 5.16352e-08 1.2472e-20 6.91599e-07 1.685e-21 6.30345e-07)
(5.98215e-07 7.32483e-08 2.99571e-22 6.67582e-07 -1.40619e-22 6.32899e-07)
(5.87358e-07 7.02221e-08 -5.64534e-21 6.64699e-07 -6.83729e-22 6.26028e-07)
(5.76184e-07 6.68647e-08 4.17562e-21 6.61172e-07 7.54574e-22 6.18681e-07)
(5.64704e-07 6.31637e-08 5.01201e-21 6.56985e-07 4.72968e-22 6.10827e-07)
(5.52131e-07 5.89079e-08 -1.18706e-20 6.51519e-07 -1.34551e-21 6.01869e-07)
(5.40624e-07 5.44824e-08 -5.48048e-21 6.46642e-07 -5.63101e-22 5.93548e-07)
(5.24341e-07 4.85051e-08 6.8431e-21 6.37148e-07 6.53347e-22 5.81373e-07)
(5.45263e-07 6.70605e-08 -2.67275e-20 6.06758e-07 -3.32826e-21 5.76011e-07)
(5.35848e-07 6.44121e-08 9.75085e-21 6.04728e-07 1.37804e-21 5.70286e-07)
(5.26194e-07 6.14631e-08 8.41285e-21 6.02195e-07 9.1004e-22 5.64195e-07)
(5.16313e-07 5.81998e-08 -2.85191e-21 5.99152e-07 -4.88943e-22 5.57714e-07)
(5.05497e-07 5.44309e-08 1.67922e-20 5.95049e-07 2.23369e-21 5.5031e-07)
(4.95685e-07 5.04858e-08 -1.72683e-20 5.91582e-07 -1.7642e-21 5.4356e-07)
(4.81605e-07 4.51663e-08 -9.0172e-21 5.83969e-07 -1.2156e-21 5.33342e-07)
(4.93901e-07 6.09801e-08 -7.12587e-22 5.48197e-07 1.14979e-22 5.21052e-07)
(4.85724e-07 5.86592e-08 1.88116e-20 5.46835e-07 2.26585e-21 5.16282e-07)
(4.774e-07 5.60696e-08 -1.47191e-20 5.4511e-07 -1.88681e-21 5.11261e-07)
(4.68935e-07 5.31943e-08 -1.70575e-20 5.43024e-07 -2.07613e-21 5.0597e-07)
(4.59704e-07 4.98632e-08 1.37238e-20 5.4009e-07 1.69798e-21 4.99933e-07)
(4.51455e-07 4.63519e-08 3.60298e-20 5.37887e-07 4.45626e-21 4.94619e-07)
(4.39411e-07 4.16386e-08 -1.24314e-20 5.31935e-07 -1.62963e-21 4.8616e-07)
(4.44758e-07 5.51001e-08 6.61641e-21 4.92518e-07 7.6898e-22 4.68633e-07)
(4.37656e-07 5.30641e-08 -8.46204e-22 4.91688e-07 -1.27904e-22 4.64665e-07)
(4.30495e-07 5.07885e-08 -1.55562e-21 4.90624e-07 -7.95211e-23 4.60555e-07)
(4.23272e-07 4.82534e-08 -8.55323e-22 4.89331e-07 -4.5885e-23 4.56286e-07)
(4.15444e-07 4.53108e-08 2.40705e-20 4.87378e-07 2.77795e-21 4.5143e-07)
(4.08616e-07 4.21868e-08 -3.94042e-21 4.86291e-07 -7.02072e-22 4.47412e-07)
(3.9839e-07 3.80171e-08 -3.35268e-20 4.81747e-07 -3.95153e-21 4.40468e-07)
(3.98609e-07 4.95473e-08 -1.37133e-20 4.404e-07 -1.71721e-21 4.19512e-07)
(3.92425e-07 4.77596e-08 1.6472e-20 4.39982e-07 2.0137e-21 4.16212e-07)
(3.86258e-07 4.5759e-08 4.19911e-21 4.39435e-07 6.38501e-22 4.12856e-07)
(3.80109e-07 4.35242e-08 -8.97806e-21 4.38782e-07 -1.2107e-21 4.09445e-07)
(3.73489e-07 4.09253e-08 -1.18125e-20 4.37621e-07 -1.44625e-21 4.05581e-07)
(3.67877e-07 3.81422e-08 4.26892e-21 4.37442e-07 4.61922e-22 4.02654e-07)
(3.59178e-07 3.44484e-08 3.2583e-21 4.34002e-07 7.3914e-22 3.96936e-07)
(3.56758e-07 4.44826e-08 5.95512e-21 3.93282e-07 7.19145e-22 3.7501e-07)
(3.51335e-07 4.29077e-08 -9.51496e-21 3.93152e-07 -1.26363e-21 3.72237e-07)
(3.45999e-07 4.11446e-08 2.4484e-20 3.92987e-07 2.93572e-21 3.69487e-07)
(3.40783e-07 3.91769e-08 -1.95132e-20 3.92849e-07 -2.35548e-21 3.66802e-07)
(3.35244e-07 3.68886e-08 2.73518e-20 3.9237e-07 3.36915e-21 3.63812e-07)
(3.30729e-07 3.44247e-08 -1.49187e-20 3.92959e-07 -1.88731e-21 3.61834e-07)
(3.23489e-07 3.11723e-08 3.03666e-20 3.90594e-07 3.70257e-21 3.57304e-07)
(3.2186e-07 4.02137e-08 -1.55473e-20 3.54286e-07 -2.09266e-21 3.38064e-07)
(3.16926e-07 3.87858e-08 -3.8944e-22 3.5425e-07 -1.04687e-23 3.35578e-07)
(3.12133e-07 3.71864e-08 -1.08196e-20 3.54256e-07 -1.39013e-21 3.33184e-07)
(3.07523e-07 3.53979e-08 -6.33064e-22 3.54386e-07 3.98481e-23 3.30941e-07)
(3.02704e-07 3.33187e-08 -4.72242e-21 3.54296e-07 -8.12854e-22 3.28496e-07)
(2.98939e-07 3.10635e-08 -7.80502e-21 3.55375e-07 -8.43597e-22 3.27151e-07)
(2.92939e-07 2.81488e-08 1.0866e-20 3.5392e-07 1.03686e-21 3.23619e-07)
(2.93794e-07 3.67815e-08 -2.25353e-20 3.22887e-07 -2.73113e-21 3.08349e-07)
(2.89147e-07 3.54602e-08 -3.45897e-21 3.22809e-07 -3.65665e-22 3.05984e-07)
(2.84677e-07 3.39812e-08 1.30668e-20 3.22822e-07 1.65861e-21 3.03754e-07)
(2.80406e-07 3.23231e-08 1.79206e-23 3.22991e-07 -5.01112e-23 3.01704e-07)
(2.75987e-07 3.03968e-08 -1.13392e-20 3.22998e-07 -1.48245e-21 2.99502e-07)
(2.72631e-07 2.82952e-08 1.12098e-21 3.24228e-07 4.83832e-22 2.98453e-07)
(2.67383e-07 2.56375e-08 -1.70419e-20 3.23194e-07 -2.3012e-21 2.95455e-07)
(2.68613e-07 3.37119e-08 3.2252e-21 2.94596e-07 5.65478e-22 2.81606e-07)
(2.64172e-07 3.24881e-08 9.87539e-21 2.94408e-07 1.23377e-21 2.79293e-07)
(2.59916e-07 3.11161e-08 -7.6826e-21 2.9433e-07 -1.02324e-21 2.77132e-07)
(2.55884e-07 2.95804e-08 -1.08355e-20 2.94435e-07 -1.42814e-21 2.7517e-07)
(2.51757e-07 2.77956e-08 -2.06077e-20 2.94441e-07 -2.35274e-21 2.73112e-07)
(2.48687e-07 2.58447e-08 4.37268e-20 2.95678e-07 5.24637e-21 2.72208e-07)
(2.44031e-07 2.34146e-08 -2.91792e-20 2.94945e-07 -3.30474e-21 2.69605e-07)
(2.44331e-07 3.07469e-08 9.22685e-21 2.6731e-07 1.16902e-21 2.55808e-07)
(2.40106e-07 2.96181e-08 -3.21586e-21 2.67041e-07 -4.76625e-22 2.53555e-07)
(2.36053e-07 2.83473e-08 2.95594e-21 2.66884e-07 3.84529e-22 2.51452e-07)
(2.32256e-07 2.69267e-08 -1.69837e-20 2.66945e-07 -2.11016e-21 2.49582e-07)
(2.28403e-07 2.52738e-08 2.57347e-20 2.66949e-07 3.25227e-21 2.47661e-07)
(2.25571e-07 2.34617e-08 -2.51478e-20 2.68152e-07 -3.21651e-21 2.46865e-07)
(2.21427e-07 2.12505e-08 3.4639e-20 2.67623e-07 4.33374e-21 2.44605e-07)
(2.24597e-07 2.87398e-08 1.25425e-20 2.40814e-07 1.59755e-21 2.32753e-07)
(2.20125e-07 2.77962e-08 6.43552e-21 2.40048e-07 8.05778e-22 2.30138e-07)
(2.15934e-07 2.67447e-08 -5.53567e-21 2.39494e-07 -7.29566e-22 2.27765e-07)
(2.11996e-07 2.557e-08 -4.99159e-21 2.39147e-07 -6.76865e-22 2.25616e-07)
(2.08386e-07 2.42587e-08 -1.10565e-20 2.39127e-07 -1.26885e-21 2.23792e-07)
(2.04868e-07 2.274e-08 -1.09933e-20 2.39225e-07 -1.41247e-21 2.22063e-07)
(2.02522e-07 2.10878e-08 2.84508e-20 2.40699e-07 3.63961e-21 2.21608e-07)
(1.99726e-07 1.91395e-08 -1.59854e-20 2.41453e-07 -2.08139e-21 2.20551e-07)
(2.00044e-07 2.56417e-08 -6.30959e-21 2.13841e-07 -7.75468e-22 2.06837e-07)
(1.95215e-07 2.47027e-08 1.06381e-20 2.1239e-07 1.24232e-21 2.03715e-07)
(1.90616e-07 2.36575e-08 -1.10372e-20 2.11088e-07 -1.27951e-21 2.00797e-07)
(1.86281e-07 2.25019e-08 -9.77706e-21 2.09976e-07 -1.27185e-21 1.98109e-07)
(1.8226e-07 2.12178e-08 9.08381e-21 2.09168e-07 1.09759e-21 1.95743e-07)
(1.78379e-07 1.9747e-08 1.81369e-20 2.08503e-07 2.43885e-21 1.93524e-07)
(1.75127e-07 1.8053e-08 -3.30376e-21 2.08679e-07 -6.3364e-22 1.92115e-07)
(1.71238e-07 1.61613e-08 8.34351e-21 2.07618e-07 1.14794e-21 1.89777e-07)
(1.69259e-07 2.17986e-08 2.03977e-20 1.79452e-07 2.6039e-21 1.74441e-07)
(1.64364e-07 2.09141e-08 -2.39799e-20 1.77771e-07 -3.12505e-21 1.71062e-07)
(1.59928e-07 1.99339e-08 2.78124e-20 1.76543e-07 3.57674e-21 1.68133e-07)
(1.55983e-07 1.88445e-08 -2.19483e-20 1.75802e-07 -2.73912e-21 1.65685e-07)
(1.52663e-07 1.76337e-08 -2.51945e-20 1.75721e-07 -3.22452e-21 1.63874e-07)
(1.50027e-07 1.62749e-08 3.62261e-20 1.76349e-07 4.58237e-21 1.62699e-07)
(1.49784e-07 1.49384e-08 -2.25094e-20 1.79607e-07 -2.8595e-21 1.63945e-07)
(1.51432e-07 1.35285e-08 1.77436e-20 1.8489e-07 2.17991e-21 1.66965e-07)
(1.26094e-07 1.63226e-08 3.05018e-21 1.31992e-07 2.92968e-22 1.29504e-07)
(1.18449e-07 1.52139e-08 -2.13242e-20 1.2663e-07 -2.64913e-21 1.23228e-07)
(1.114e-07 1.40599e-08 1.38907e-20 1.2179e-07 1.62938e-21 1.17508e-07)
(1.05064e-07 1.28547e-08 -3.74304e-21 1.17635e-07 -3.24983e-22 1.12479e-07)
(9.94124e-08 1.1536e-08 -1.54362e-20 1.14252e-07 -1.8389e-21 1.08213e-07)
(9.4386e-08 9.99903e-09 4.0873e-20 1.1161e-07 4.95503e-21 1.04723e-07)
(8.9687e-08 7.73158e-09 -2.1243e-20 1.09786e-07 -2.4806e-21 1.02242e-07)
(8.44748e-08 5.54735e-09 4.2938e-21 1.05663e-07 3.68595e-22 9.81583e-08)
(1.01196e-07 1.26198e-08 -1.06609e-20 1.0738e-07 -1.329e-21 1.01535e-07)
(9.77283e-08 1.16961e-08 -1.08155e-20 1.07381e-07 -1.29785e-21 9.93904e-08)
(9.56001e-08 1.06302e-08 -1.74975e-20 1.08696e-07 -2.27309e-21 9.86148e-08)
(9.49878e-08 9.42392e-09 3.0103e-20 1.11428e-07 3.76214e-21 9.93142e-08)
(9.65809e-08 8.17361e-09 5.04199e-21 1.16233e-07 6.83862e-22 1.02087e-07)
(1.00964e-07 7.03291e-09 -9.76623e-21 1.2339e-07 -1.32241e-21 1.07035e-07)
(1.13106e-07 6.94782e-09 2.53902e-20 1.38422e-07 3.1861e-21 1.19144e-07)
(1.30611e-07 6.81169e-09 -3.82801e-20 1.60519e-07 -4.74835e-21 1.37365e-07)
(1.22622e-07 4.55664e-09 1.41024e-20 1.01735e-07 1.77355e-21 1.21648e-07)
(1.2148e-07 3.92906e-09 4.75579e-21 1.01319e-07 6.4776e-22 1.2141e-07)
(1.20167e-07 3.39139e-09 -2.08747e-20 1.00842e-07 -2.57201e-21 1.20975e-07)
(1.18381e-07 2.84979e-09 -1.43031e-20 1.00215e-07 -1.89009e-21 1.20252e-07)
(1.16401e-07 2.00412e-09 5.48962e-21 1.00064e-07 7.70557e-22 1.19931e-07)
(1.17626e-07 3.76796e-10 6.55019e-21 1.04419e-07 7.28404e-22 1.24301e-07)
(1.34793e-07 -3.89116e-09 -1.52677e-20 1.26078e-07 -1.93495e-21 1.46897e-07)
(1.56598e-07 -7.73269e-09 6.67892e-22 1.47318e-07 1.00161e-22 1.70155e-07)