/*--------------------------------*- C++ -*----------------------------------*\
| =========                 |                                                 |
| \\      /  F ield         | OpenFOAM: The Open Source CFD Toolbox           |
|  \\    /   O peration     | Version:  2306                                  |
|   \\  /    A nd           | Website:  www.openfoam.com                      |
|    \\/     M anipulation  |                                                 |
\*---------------------------------------------------------------------------*/
FoamFile
{
    version     2.0;
    format      ascii;
    arch        "LSB;label=32;scalar=64";
    class       volSymmTensorField;
    location    "1000";
    object      turbulenceProperties:R;
}
// * * * * * * * * * * * * * * * * * * * * * * * * * * * * * * * * * * * * * //

dimensions      [0 2 -2 0 0 0 0];

internalField   nonuniform List<symmTensor> 
1340
(
(14.5074 -7.22662 1.21989e-15 19.3667 1.14386e-15 16.9536)
(11.3437 -5.67299 -1.22406e-16 15.478 -5.2506e-16 13.431)
(8.33005 -4.17122 -1.51845e-15 11.5012 -2.44807e-17 9.9182)
(1.83919 -0.926557 -1.88556e-16 2.785 -1.90273e-15 2.31091)
(5.56397 -2.74334 3.42246e-15 7.14751 -4.9931e-15 6.32502)
(4.91714 -2.43215 -1.50348e-15 6.39219 1.523e-15 5.63461)
(4.36049 -2.13696 3.24906e-15 5.51652 4.02577e-16 4.88557)
(4.49721 -2.25508 5.3625e-15 5.98277 7.29065e-15 5.37341)
(7.19244 -3.5237 -1.43658e-14 8.95244 5.20232e-16 8.06798)
(6.21484 -3.05347 4.95804e-15 7.81117 -1.62563e-15 7.01439)
(5.27484 -2.55643 5.13592e-15 6.35398 -1.52202e-15 5.79029)
(5.68035 -2.81457 -1.00216e-14 7.35022 2.90302e-15 6.54229)
(7.50752 -3.65033 4.79344e-15 9.09072 4.89501e-15 8.30291)
(7.0046 -3.42057 -1.01672e-14 8.60246 -1.30411e-16 7.81055)
(6.25813 -3.01935 -1.30258e-14 7.41633 1.88144e-15 6.82171)
(6.54295 -3.21242 9.21189e-15 8.14396 -3.43359e-15 7.38596)
(5.00474 -2.39918 -9.96044e-16 5.80698 4.27527e-16 5.40479)
(6.1268 -2.96377 -1.75e-15 7.29488 3.98563e-15 6.71679)
(6.43237 -3.08568 6.73195e-16 7.494 2.44372e-16 6.94724)
(6.97144 -3.402 -1.72593e-14 8.48051 4.31245e-15 7.78221)
(1.21924 -0.556155 2.80885e-15 1.25551 -1.65267e-15 1.23495)
(3.24789 -1.53962 1.02196e-14 3.65304 -1.62748e-15 3.45166)
(5.23051 -2.48025 5.21518e-16 5.90473 -9.15513e-17 5.55214)
(6.71538 -3.25957 3.62066e-15 8.02802 -3.41147e-15 7.42615)
(0.114473 0.02461 -1.26788e-15 0.0557834 3.23018e-16 0.0850662)
(0.598555 -0.25292 -1.31406e-15 0.533946 -8.03806e-16 0.567345)
(2.76586 -1.27408 1.17104e-15 2.91417 -2.6714e-16 2.82855)
(5.45397 -2.6276 3.10425e-15 6.37265 -8.99947e-16 5.95898)
(0.044387 0.0138261 3.32461e-16 0.0275592 8.22529e-18 0.0359544)
(0.0877957 0.0200205 -3.91804e-16 0.0439226 1.32645e-16 0.0662968)
(0.706878 -0.283767 -1.87147e-15 0.585963 3.44435e-16 0.641661)
(3.33532 -1.58487 9.83787e-15 3.74567 -5.71747e-16 3.57551)
(0 0 -0 0 -0 0)
(0.0264792 0.00736161 8.66786e-17 0.0149723 -7.40988e-18 0.0208414)
(0.129732 0.00330852 1.91384e-15 0.0497323 -2.32305e-16 0.088286)
(1.38515 -0.635369 -4.57774e-15 1.42622 1.49295e-15 1.42965)
(0 -0 0 0 0 0)
(0 0 -0 0 0 0)
(0.0425289 0.00822158 -1.75678e-16 0.0199235 7.56028e-18 0.0307739)
(0.396538 -0.159531 -3.45966e-15 0.324094 1.48376e-16 0.373524)
(0 -0 0 0 -0 0)
(0 -0 0 0 0 0)
(0.0023667 0.000253857 -4.85913e-18 0.000968154 9.59191e-19 0.00163353)
(0.118034 -0.0318429 5.63985e-16 0.064616 -2.53398e-16 0.0969662)
(1.76825e-06 -1.60019e-09 8.69126e-23 1.74925e-06 -8.89373e-23 1.75868e-06)
(0 -0 0 0 -0 0)
(0.000765198 -7.16308e-05 1.2578e-18 0.000311866 -2.21932e-19 0.000526487)
(0.0427781 -0.00933909 6.00708e-16 0.0207246 -1.7716e-17 0.0337384)
(2.91408e-05 -1.01214e-07 -8.65446e-20 2.46532e-05 2.40889e-20 2.68832e-05)
(3.84366e-08 -1.95597e-12 -5.36847e-27 3.84279e-08 -2.3531e-26 3.84323e-08)
(0.000225925 -3.45409e-05 -1.38471e-18 0.000121279 1.07584e-19 0.000170945)
(0.0138639 -0.00350591 -2.18072e-16 0.00727941 2.15072e-17 0.011152)
(6.32264e-05 -3.3667e-07 4.852e-19 4.54186e-05 -3.97045e-20 5.42707e-05)
(5.52641e-08 -2.93488e-12 -3.0393e-25 5.52444e-08 4.82534e-26 5.52544e-08)
(1.87651e-05 -5.6318e-07 -9.5555e-21 1.69925e-05 2.71889e-21 1.7839e-05)
(0.00339354 -0.000959377 6.24325e-17 0.00192376 -5.89053e-18 0.00278437)
(5.77902e-05 -4.49907e-07 -3.42433e-19 4.21941e-05 -3.56161e-20 4.99493e-05)
(2.7401e-05 -5.67868e-07 3.37061e-20 2.32092e-05 3.1998e-21 2.53427e-05)
(2.43084e-07 -9.91235e-11 8.77976e-24 2.42716e-07 -1.01421e-24 2.42893e-07)
(0.000214335 -4.95697e-05 -3.65688e-18 0.000142819 4.05647e-19 0.000184247)
(4.55581e-05 -3.49549e-07 2.80742e-20 3.49679e-05 3.85033e-20 4.02365e-05)
(5.55725e-05 -2.14e-06 -1.48332e-20 4.07502e-05 -1.32755e-20 4.82826e-05)
(1.02302e-07 -1.73431e-11 -1.77833e-24 1.02232e-07 9.92652e-26 1.02266e-07)
(1.27051e-05 -3.61921e-07 7.87593e-21 1.21703e-05 -1.61087e-21 1.24758e-05)
(3.93779e-05 -2.64478e-07 3.79206e-20 3.09804e-05 -2.89691e-21 3.51603e-05)
(6.15133e-05 -2.69911e-06 -5.31954e-20 4.36559e-05 1.80396e-21 5.27171e-05)
(2.6891e-07 -1.26152e-10 7.78575e-25 2.68411e-07 6.12203e-25 2.68653e-07)
(2.52944e-10 -1.62141e-16 -2.82343e-30 2.52944e-10 2.12832e-31 2.52944e-10)
(3.83164e-05 -2.31893e-07 1.22599e-20 3.01148e-05 -1.74539e-20 3.41993e-05)
(5.14467e-05 -2.04696e-06 -3.54842e-20 3.79141e-05 1.39342e-20 4.47707e-05)
(1.80095e-05 -5.31203e-07 4.35465e-20 1.59921e-05 -2.22239e-21 1.6975e-05)
(3.41899e-07 -3.17568e-10 7.87089e-24 3.41396e-07 -9.27258e-25 3.41676e-07)
(3.8733e-05 -2.14757e-07 -1.05714e-19 3.01564e-05 6.38152e-21 3.44298e-05)
(4.135e-05 -1.41399e-06 6.64937e-20 3.17825e-05 -3.6243e-21 3.66232e-05)
(3.84736e-05 -2.21929e-06 1.14001e-19 3.02898e-05 -1.30929e-20 3.42918e-05)
(4.11825e-06 -4.8455e-08 3.36616e-21 4.04033e-06 -1.49012e-22 4.08312e-06)
(3.85877e-05 -1.90893e-07 1.16526e-20 2.98334e-05 1.15723e-20 3.41975e-05)
(3.62054e-05 -1.1228e-06 -1.36888e-20 2.83782e-05 -6.88969e-21 3.23333e-05)
(4.1787e-05 -2.66698e-06 -4.41969e-20 3.20743e-05 -8.54432e-21 3.68414e-05)
(1.80644e-05 -9.19482e-07 -5.2363e-21 1.6567e-05 1.6877e-21 1.738e-05)
(3.75521e-05 -1.56303e-07 -3.71355e-21 2.89606e-05 -7.31274e-21 3.32454e-05)
(3.42746e-05 -1.02102e-06 -4.85665e-20 2.69276e-05 7.53034e-21 3.06353e-05)
(3.73878e-05 -2.27614e-06 -1.97158e-19 2.91025e-05 1.38037e-20 3.31824e-05)
(2.88542e-05 -2.32364e-06 -8.15365e-20 2.50067e-05 3.6049e-21 2.70733e-05)
(3.60295e-05 -1.15776e-07 -5.67926e-20 2.77895e-05 1.37401e-20 3.19009e-05)
(3.33475e-05 -9.72713e-07 5.18461e-20 2.60995e-05 -2.77785e-21 2.97526e-05)
(3.29852e-05 -1.88605e-06 4.64658e-20 2.60735e-05 1.61841e-21 2.94867e-05)
(3.15514e-05 -2.86691e-06 -5.89966e-20 2.67022e-05 1.61791e-21 2.92805e-05)
(3.43889e-05 -7.33153e-08 1.12202e-19 2.65438e-05 -7.98283e-22 3.04598e-05)
(3.23356e-05 -9.17896e-07 -5.34641e-20 2.52142e-05 1.09184e-21 2.87996e-05)
(3.01761e-05 -1.65809e-06 -3.68532e-20 2.40221e-05 1.69349e-21 2.70692e-05)
(3.00786e-05 -2.75009e-06 1.32899e-19 2.53002e-05 -4.80781e-21 2.78178e-05)
(3.27786e-05 -3.04319e-08 -1.59766e-20 2.53136e-05 -1.13272e-20 2.90411e-05)
(3.10245e-05 -8.46436e-07 2.83871e-20 2.41415e-05 -2.49581e-21 2.76033e-05)
(2.83775e-05 -1.52507e-06 5.03812e-20 2.26133e-05 -3.74573e-21 2.54741e-05)
(2.76938e-05 -2.47187e-06 -8.46433e-20 2.32633e-05 3.53474e-21 2.55785e-05)
(3.12142e-05 1.24128e-08 -1.78065e-20 2.41101e-05 -6.21062e-22 2.76586e-05)
(2.95343e-05 -7.65121e-07 -7.31023e-20 2.29584e-05 3.06626e-21 2.62626e-05)
(2.69341e-05 -1.42053e-06 -8.37911e-20 2.14321e-05 5.25603e-21 2.41681e-05)
(2.5521e-05 -2.21878e-06 9.41795e-20 2.13999e-05 -2.5276e-21 2.35375e-05)
(2.9669e-05 5.48932e-08 -3.38994e-20 2.29179e-05 4.84967e-21 2.62911e-05)
(2.79928e-05 -6.81512e-07 3.81834e-20 2.17456e-05 8.84221e-21 2.48819e-05)
(2.55416e-05 -1.31624e-06 1.27228e-19 2.02842e-05 -5.46492e-23 2.29028e-05)
(2.36762e-05 -2.0098e-06 -9.15864e-20 1.97924e-05 2.02595e-21 2.17934e-05)
(2.81306e-05 9.69532e-08 3.55444e-20 2.17309e-05 3.4815e-21 2.49292e-05)
(2.64649e-05 -5.98647e-07 1.07613e-19 2.05446e-05 -7.51987e-21 2.35146e-05)
(2.41378e-05 -1.20671e-06 7.88398e-21 1.91317e-05 -3.1176e-21 2.16285e-05)
(2.20492e-05 -1.82692e-06 4.94003e-20 1.83596e-05 -1.14544e-21 2.02493e-05)
(2.65989e-05 1.37383e-07 2.92732e-20 2.05504e-05 -6.04037e-21 2.35741e-05)
(2.49654e-05 -5.18183e-07 -6.22906e-20 1.93659e-05 -6.57209e-21 2.21732e-05)
(2.27402e-05 -1.09514e-06 1.52115e-20 1.79884e-05 -2.93554e-21 2.03611e-05)
(2.05585e-05 -1.65807e-06 -9.35717e-20 1.70429e-05 1.08413e-21 1.88346e-05)
(2.50772e-05 1.76304e-07 -5.22915e-20 1.93791e-05 2.377e-21 2.2228e-05)
(2.34946e-05 -4.39725e-07 -4.18018e-20 1.82105e-05 5.79643e-21 2.08581e-05)
(2.13681e-05 -9.84045e-07 -8.12826e-20 1.6868e-05 1.65852e-21 1.91169e-05)
(1.91658e-05 -1.49877e-06 6.05862e-20 1.58144e-05 -1.50245e-21 1.75155e-05)
(2.35759e-05 2.12975e-07 5.83764e-20 1.8225e-05 -1.03439e-21 2.09007e-05)
(2.20565e-05 -3.64489e-07 4.63285e-20 1.70827e-05 -1.43596e-21 1.95736e-05)
(2.00365e-05 -8.75637e-07 3.94771e-20 1.57821e-05 -7.38438e-22 1.79097e-05)
(1.78616e-05 -1.34818e-06 -1.35495e-19 1.46664e-05 2.25472e-21 1.6283e-05)
(2.2103e-05 2.46802e-07 -6.93812e-20 1.70938e-05 -1.77522e-21 1.95991e-05)
(2.06551e-05 -2.92351e-07 -6.98904e-20 1.59856e-05 -2.70138e-22 1.83231e-05)
(1.87467e-05 -7.70707e-07 -1.02324e-19 1.47324e-05 1.29683e-22 1.67408e-05)
(1.66381e-05 -1.20648e-06 2.15723e-19 1.3593e-05 1.88071e-21 1.51295e-05)
(2.06621e-05 2.77533e-07 3.44109e-20 1.59885e-05 5.10236e-21 1.83262e-05)
(1.92952e-05 -2.24317e-07 4.73929e-20 1.49234e-05 5.78557e-22 1.71114e-05)
(1.75056e-05 -6.70127e-07 5.99031e-20 1.37249e-05 4.50433e-21 1.56173e-05)
(1.54889e-05 -1.07321e-06 -8.65366e-20 1.25888e-05 -3.34329e-21 1.4049e-05)
(1.92612e-05 3.04896e-07 1.80913e-20 1.49151e-05 -2.79883e-21 1.70891e-05)
(1.79786e-05 -1.60538e-07 -6.42839e-20 1.38974e-05 -2.06391e-21 1.59393e-05)
(1.63123e-05 -5.74749e-07 2.36755e-20 1.27597e-05 -4.6595e-21 1.45383e-05)
(1.44103e-05 -9.48504e-07 3.62342e-20 1.16509e-05 1.61886e-21 1.30378e-05)
(1.88867e-05 7.52887e-07 -7.04575e-20 1.48279e-05 3.55511e-21 1.68581e-05)
(1.79051e-05 3.28517e-07 -2.87621e-20 1.38771e-05 -3.28496e-21 1.58921e-05)
(1.67119e-05 -1.01379e-07 2.06228e-20 1.29127e-05 5.96326e-21 1.48131e-05)
(1.51684e-05 -4.84855e-07 -9.79892e-20 1.18381e-05 -4.60664e-22 1.35056e-05)
(1.33948e-05 -8.32101e-07 -2.48735e-20 1.07734e-05 1.85915e-22 1.20891e-05)
(1.74922e-05 7.38158e-07 7.89719e-20 1.37606e-05 5.2901e-21 1.56272e-05)
(1.65983e-05 3.48311e-07 -3.1802e-20 1.28778e-05 1.96759e-21 1.4739e-05)
(1.54975e-05 -4.73065e-08 8.2694e-20 1.19711e-05 2.3726e-22 1.37348e-05)
(1.40777e-05 -4.01055e-07 6.56607e-20 1.09632e-05 4.38474e-21 1.25228e-05)
(1.24389e-05 -7.23785e-07 7.50452e-20 9.95297e-06 2.23401e-21 1.11992e-05)
(1.61537e-05 7.20355e-07 -1.96689e-20 1.27354e-05 -4.04651e-21 1.44453e-05)
(1.53458e-05 3.641e-07 3.70347e-20 1.1921e-05 2.30221e-21 1.36344e-05)
(1.43371e-05 1.58546e-09 -2.23124e-20 1.10738e-05 -5.19537e-21 1.27057e-05)
(1.304e-05 -3.23683e-07 -1.82872e-21 1.01348e-05 -2.83929e-21 1.15897e-05)
(1.15391e-05 -6.23532e-07 -3.01658e-20 9.18671e-06 -3.71293e-21 1.03648e-05)
(1.4876e-05 6.99728e-07 1.14655e-20 1.17557e-05 -1.63878e-22 1.33165e-05)
(1.41503e-05 3.75912e-07 -5.15086e-21 1.10083e-05 -1.21317e-21 1.25802e-05)
(1.32329e-05 4.51577e-08 -5.48755e-20 1.02221e-05 7.30865e-22 1.17276e-05)
(1.20557e-05 -2.52899e-07 -3.49906e-20 9.35296e-06 -2.44492e-21 1.07065e-05)
(1.06917e-05 -5.3122e-07 -7.97492e-20 8.47115e-06 -1.81742e-21 9.58223e-06)
(1.36626e-05 6.76609e-07 -3.67159e-20 1.08243e-05 -2.93694e-22 1.2244e-05)
(1.30147e-05 3.83898e-07 7.46571e-21 1.01419e-05 -3.12671e-22 1.15792e-05)
(1.21864e-05 8.33931e-08 5.44955e-20 9.41705e-06 2.3881e-21 1.08017e-05)
(1.11247e-05 -1.88785e-07 -4.58011e-20 8.61742e-06 -1.22067e-21 9.87308e-06)
(9.89398e-06 -4.46669e-07 2.7953e-20 7.80359e-06 2.24335e-21 8.84876e-06)
(1.25155e-05 6.51344e-07 5.45308e-20 9.94266e-06 5.22124e-21 1.12297e-05)
(1.19409e-05 3.88101e-07 -1.3732e-20 9.32293e-06 6.33184e-22 1.06328e-05)
(1.11985e-05 1.16304e-07 -5.36395e-20 8.65896e-06 -2.93412e-21 9.92862e-06)
(1.02474e-05 -1.31326e-07 -1.07014e-20 7.92786e-06 2.75e-21 9.08949e-06)
(9.14371e-06 -3.69771e-07 -7.126e-21 7.18154e-06 -3.14395e-22 8.1619e-06)
(1.14366e-05 6.24336e-07 2.69696e-20 9.11202e-06 -1.21958e-21 1.02748e-05)
(1.093e-05 3.88808e-07 3.69622e-20 8.55202e-06 2.49114e-21 9.74177e-06)
(1.02687e-05 1.44036e-07 4.27975e-20 7.94718e-06 2.98579e-21 9.1078e-06)
(9.42242e-06 -8.04349e-08 1.0055e-19 7.28289e-06 4.05891e-21 8.35441e-06)
(8.43872e-06 -3.00249e-07 3.42472e-20 6.6025e-06 2.43623e-21 7.51933e-06)
(1.04264e-05 5.95934e-07 -2.17536e-20 8.33294e-06 -2.97222e-21 9.38012e-06)
(9.98234e-06 3.86272e-07 2.12368e-21 7.82936e-06 -2.38966e-21 8.90658e-06)
(9.39732e-06 1.66839e-07 -2.17573e-20 7.28149e-06 -2.34731e-21 8.33921e-06)
(8.64876e-06 -3.59005e-08 -4.09826e-20 6.68113e-06 -5.2586e-21 7.66656e-06)
(7.77688e-06 -2.37977e-07 2.38922e-20 6.06407e-06 6.14082e-22 6.91874e-06)
(9.48477e-06 5.66532e-07 -2.91847e-20 7.60525e-06 -8.8566e-22 8.54541e-06)
(9.09765e-06 3.80802e-07 -5.4553e-20 7.15443e-06 -2.77678e-21 8.12672e-06)
(8.58333e-06 1.84918e-07 -8.14954e-21 6.66083e-06 8.07305e-22 7.62188e-06)
(7.92532e-06 2.54475e-09 -3.3572e-20 6.1212e-06 -1.09997e-21 7.02479e-06)
(7.15646e-06 -1.8249e-07 -1.01449e-21 5.564e-06 -1.57255e-21 6.35814e-06)
(8.61067e-06 5.36513e-07 3.36467e-21 6.92824e-06 2.15403e-21 7.76982e-06)
(8.27495e-06 3.7273e-07 2.691e-20 6.52637e-06 2.66295e-21 7.40128e-06)
(7.82545e-06 1.98665e-07 3.48369e-20 6.08385e-06 1.82259e-21 6.95444e-06)
(7.25036e-06 3.5227e-08 -4.22454e-21 5.60119e-06 1.2026e-21 6.42719e-06)
(6.57583e-06 -1.33639e-07 -5.84951e-20 5.10026e-06 -2.53529e-21 5.83569e-06)
(7.80256e-06 5.06221e-07 4.74467e-20 6.30081e-06 3.60771e-21 7.05201e-06)
(7.51295e-06 3.62447e-07 -2.03531e-20 5.94409e-06 -2.63402e-21 6.72907e-06)
(7.12211e-06 2.08402e-07 -2.83733e-20 5.54904e-06 -2.94702e-21 6.33536e-06)
(6.62247e-06 6.25101e-08 2.83578e-20 5.11948e-06 1.16199e-21 5.87231e-06)
(6.03308e-06 -9.09375e-08 5.89834e-20 4.67051e-06 4.74074e-21 5.34922e-06)
(7.05818e-06 4.75963e-07 -8.86537e-22 5.72129e-06 -1.00715e-21 6.39002e-06)
(6.80959e-06 3.50278e-07 -3.432e-20 5.40588e-06 -1.86653e-21 6.10825e-06)
(6.47156e-06 2.14535e-07 -7.84212e-21 5.05477e-06 -7.6471e-22 5.76295e-06)
(6.03967e-06 8.48295e-08 -2.48837e-20 4.67404e-06 -1.71435e-21 5.35812e-06)
(5.52695e-06 -5.40439e-08 -2.72463e-21 4.27302e-06 -2.08004e-21 4.89725e-06)
(6.52246e-06 5.44504e-07 -2.15342e-22 5.43911e-06 -2.33763e-22 5.98109e-06)
(6.37504e-06 4.46054e-07 7.00819e-21 5.18793e-06 4.07356e-22 5.78172e-06)
(6.16241e-06 3.36623e-07 1.02581e-20 4.90987e-06 1.45324e-21 5.5366e-06)
(5.87152e-06 2.17468e-07 -3.97623e-20 4.59904e-06 -1.93126e-21 5.23505e-06)
(5.49999e-06 1.02612e-07 3.43008e-20 4.26288e-06 2.80577e-21 4.88263e-06)
(5.05581e-06 -2.25425e-08 -5.73523e-20 3.9058e-06 -3.21526e-21 4.47798e-06)
(5.87478e-06 5.01698e-07 -6.78529e-21 4.91853e-06 -5.53506e-22 5.39692e-06)
(5.75015e-06 4.16737e-07 -9.71653e-21 4.69852e-06 -1.27852e-21 5.22454e-06)
(5.56904e-06 3.21819e-07 -1.07833e-20 4.4542e-06 -1.31353e-21 5.01203e-06)
(5.31972e-06 2.17635e-07 5.13637e-20 4.17993e-06 5.04338e-21 4.7496e-06)
(5.00156e-06 1.16308e-07 -3.91197e-21 3.88415e-06 -1.46337e-21 4.44398e-06)
(4.61811e-06 3.99603e-09 4.94402e-20 3.567e-06 4.23017e-21 4.08967e-06)
(5.28535e-06 4.61318e-07 6.77333e-21 4.443e-06 1.20059e-21 4.8644e-06)
(5.18018e-06 3.88219e-07 -1.75335e-20 4.25064e-06 -1.16099e-21 4.71558e-06)
(5.02647e-06 3.06172e-07 5.17467e-22 4.03657e-06 5.46604e-22 4.53191e-06)
(4.81364e-06 2.15414e-07 2.26735e-20 3.79534e-06 5.38733e-22 4.30427e-06)
(4.54235e-06 1.26373e-07 -3.59718e-20 3.53593e-06 -1.91261e-21 4.04021e-06)
(4.21239e-06 2.60242e-08 -2.12351e-20 3.25487e-06 -2.09618e-21 3.73073e-06)
(4.75038e-06 4.23399e-07 2.40446e-20 4.00976e-06 1.62407e-21 4.38026e-06)
(4.66186e-06 3.60697e-07 1.24899e-20 3.84193e-06 1.31248e-21 4.25203e-06)
(4.53175e-06 2.90019e-07 2.73437e-20 3.6548e-06 2.00264e-21 4.09362e-06)
(4.35067e-06 2.11211e-07 -3.02252e-20 3.44317e-06 -2.33532e-21 3.89669e-06)
(4.12015e-06 1.33252e-07 5.19745e-20 3.21624e-06 4.60975e-21 3.6692e-06)
(3.83711e-06 4.39699e-08 2.3023e-20 2.9677e-06 2.09192e-21 3.39952e-06)
(4.26607e-06 3.87949e-07 -2.7922e-20 3.61601e-06 -2.87892e-21 3.94121e-06)
(4.19162e-06 3.34301e-07 -4.68341e-21 3.46977e-06 -7.96981e-22 3.83081e-06)
(4.08178e-06 2.73587e-07 -3.22575e-20 3.30652e-06 -3.50043e-21 3.69446e-06)
(3.9282e-06 2.05396e-07 3.69955e-20 3.12135e-06 3.54527e-21 3.52455e-06)
(3.7329e-06 1.37387e-07 3.42547e-21 2.92325e-06 -5.12908e-22 3.32903e-06)
(3.49083e-06 5.82705e-08 -1.29471e-20 2.70393e-06 -1.82129e-21 3.09454e-06)
(3.82862e-06 3.54938e-07 1.1257e-20 3.25896e-06 1.51512e-21 3.54393e-06)
(3.76608e-06 3.09154e-07 -1.16631e-20 3.13171e-06 -9.14207e-22 3.44899e-06)
(3.67347e-06 2.57145e-07 -6.00437e-21 2.98951e-06 9.24367e-23 3.33176e-06)
(3.54349e-06 1.98305e-07 -3.97943e-21 2.82775e-06 -8.77535e-22 3.1854e-06)
(3.3785e-06 1.39165e-07 -1.37713e-20 2.65515e-06 -1.02398e-21 3.01772e-06)
(3.17198e-06 6.9346e-08 -4.09313e-20 2.46195e-06 -3.03309e-21 2.81419e-06)
(3.43422e-06 3.24303e-07 -2.63044e-21 2.93575e-06 3.24399e-22 3.1851e-06)
(3.38171e-06 2.85308e-07 3.12596e-21 2.82514e-06 4.44331e-22 3.1035e-06)
(3.30377e-06 2.40867e-07 1.09256e-20 2.70146e-06 1.11071e-21 3.00287e-06)
(3.19399e-06 1.90242e-07 -3.06626e-21 2.5604e-06 -4.47823e-22 2.87698e-06)
(3.05485e-06 1.38988e-07 9.14661e-21 2.41021e-06 4.97634e-22 2.73338e-06)
(2.87903e-06 7.76109e-08 3.30242e-20 2.24027e-06 3.36628e-21 2.55696e-06)
(3.07931e-06 2.95979e-07 5.34582e-20 2.64376e-06 5.25822e-21 2.86164e-06)
(3.0352e-06 2.6283e-07 3.12527e-21 2.54765e-06 4.76632e-22 2.79148e-06)
(2.96962e-06 2.24935e-07 2.09777e-21 2.44016e-06 4.79812e-24 2.70511e-06)
(2.87701e-06 1.81485e-07 -1.95646e-20 2.31729e-06 -1.28832e-21 2.59694e-06)
(2.75987e-06 1.37196e-07 -3.30705e-20 2.18676e-06 -2.93907e-21 2.47411e-06)
(2.61049e-06 8.34425e-08 -5.84888e-21 2.03749e-06 -7.12646e-22 2.3214e-06)
(2.76042e-06 2.6986e-07 -1.68303e-20 2.38032e-06 -2.21099e-21 2.57045e-06)
(2.72332e-06 2.4172e-07 7.18122e-21 2.29683e-06 5.92305e-22 2.51012e-06)
(2.66815e-06 2.09472e-07 -8.05762e-21 2.20348e-06 -1.06745e-21 2.43602e-06)
(2.5901e-06 1.72272e-07 3.85653e-20 2.09657e-06 3.61599e-21 2.34312e-06)
(2.49154e-06 1.34107e-07 2.71265e-20 1.98317e-06 2.88494e-21 2.2381e-06)
(2.36484e-06 8.7191e-08 2.90203e-20 1.85224e-06 2.37845e-21 2.10606e-06)
(2.4926e-06 2.65915e-07 1.32906e-20 2.20738e-06 1.2621e-21 2.35004e-06)
(2.47424e-06 2.45839e-07 2.0613e-20 2.14294e-06 2.52827e-21 2.30866e-06)
(2.443e-06 2.21987e-07 -6.51754e-21 2.07044e-06 -8.33609e-22 2.25675e-06)
(2.39655e-06 1.94595e-07 -1.49733e-20 1.98938e-06 -1.38294e-21 2.19314e-06)
(2.33078e-06 1.62803e-07 -2.56259e-20 1.8964e-06 -2.81717e-21 2.11338e-06)
(2.24788e-06 1.30002e-07 -8.02108e-21 1.79792e-06 -8.5066e-22 2.0236e-06)
(2.14057e-06 8.9194e-08 -4.94536e-20 1.6832e-06 -5.0889e-21 1.90953e-06)
(2.2333e-06 2.4079e-07 -1.9731e-20 1.98537e-06 -2.1828e-21 2.10937e-06)
(2.21771e-06 2.23801e-07 1.48596e-20 1.92929e-06 1.10834e-21 2.07356e-06)
(2.19133e-06 2.03603e-07 -1.765e-20 1.86628e-06 -1.77297e-21 2.02883e-06)
(2.15219e-06 1.80366e-07 -3.98678e-21 1.79592e-06 -7.82306e-24 1.97422e-06)
(2.09676e-06 1.53253e-07 8.61195e-21 1.71508e-06 7.35077e-22 1.90572e-06)
(2.02699e-06 1.25124e-07 1.78821e-20 1.62955e-06 2.00559e-21 1.82893e-06)
(1.93621e-06 8.97417e-08 -6.78928e-21 1.52914e-06 1.97093e-23 1.73045e-06)
(2.00132e-06 2.17997e-07 1.45732e-20 1.78604e-06 2.02914e-21 1.89371e-06)
(1.98802e-06 2.03628e-07 -2.80446e-20 1.7372e-06 -3.10152e-21 1.86266e-06)
(1.96566e-06 1.86544e-07 -2.40721e-21 1.68242e-06 -2.12326e-22 1.82405e-06)
(1.9326e-06 1.66851e-07 3.69509e-20 1.6213e-06 3.63139e-21 1.77709e-06)
(1.88582e-06 1.43766e-07 -3.66882e-20 1.55101e-06 -3.75038e-21 1.71822e-06)
(1.82705e-06 1.19695e-07 1.74936e-20 1.4767e-06 1.7365e-21 1.65248e-06)
(1.75033e-06 8.91035e-08 2.17112e-20 1.38888e-06 1.81298e-21 1.5675e-06)
(1.79397e-06 1.97354e-07 2.36423e-20 1.60725e-06 2.57177e-21 1.70063e-06)
(1.78252e-06 1.85206e-07 2.17149e-22 1.56466e-06 2.62101e-22 1.67363e-06)
(1.76348e-06 1.70761e-07 2.83575e-21 1.51698e-06 4.02165e-22 1.64024e-06)
(1.73548e-06 1.54089e-07 -4.34335e-20 1.46384e-06 -4.76099e-21 1.59978e-06)
(1.69592e-06 1.34455e-07 -1.30024e-21 1.40268e-06 -1.46287e-22 1.54912e-06)
(1.64634e-06 1.13891e-07 3.05676e-20 1.33806e-06 3.28431e-21 1.49277e-06)
(1.58153e-06 8.75131e-08 -6.05103e-20 1.26133e-06 -6.33252e-21 1.41946e-06)
(1.60874e-06 1.78683e-07 5.89091e-21 1.44699e-06 5.22279e-22 1.52789e-06)
(1.59881e-06 1.68414e-07 -7.97453e-21 1.4098e-06 -7.4104e-22 1.50434e-06)
(1.58252e-06 1.56204e-07 -4.47145e-21 1.36824e-06 -5.7222e-22 1.47538e-06)
(1.5587e-06 1.42099e-07 1.20495e-20 1.32199e-06 1.72723e-21 1.44046e-06)
(1.52519e-06 1.25419e-07 -2.16464e-20 1.26874e-06 -2.31662e-21 1.39678e-06)
(1.48322e-06 1.0788e-07 2.38667e-20 1.21248e-06 2.39114e-21 1.34838e-06)
(1.42849e-06 8.51881e-08 -1.05524e-20 1.14544e-06 -7.83243e-22 1.28513e-06)
(1.44323e-06 1.61794e-07 3.21218e-21 1.30331e-06 1.94778e-22 1.37328e-06)
(1.43457e-06 1.5312e-07 1.72232e-20 1.2708e-06 1.98512e-21 1.35272e-06)
(1.42057e-06 1.42805e-07 -1.56671e-21 1.23455e-06 -9.68151e-23 1.32756e-06)
(1.40024e-06 1.30883e-07 1.0178e-20 1.19425e-06 7.28705e-22 1.29735e-06)
(1.37177e-06 1.16725e-07 -2.93472e-21 1.14784e-06 -3.7741e-22 1.25963e-06)
(1.33615e-06 1.01785e-07 2.37896e-20 1.0988e-06 2.49852e-21 1.21797e-06)
(1.28994e-06 8.23081e-08 -2.59338e-20 1.04026e-06 -2.60679e-21 1.16339e-06)
(1.29506e-06 1.4648e-07 -1.12579e-20 1.17418e-06 -1.42504e-21 1.23463e-06)
(1.28752e-06 1.3916e-07 6.4045e-21 1.1458e-06 6.17506e-22 1.21668e-06)
(1.27548e-06 1.30459e-07 8.17589e-21 1.11419e-06 9.11387e-22 1.19483e-06)
(1.25812e-06 1.20393e-07 -4.07731e-20 1.07911e-06 -4.43574e-21 1.1687e-06)
(1.2339e-06 1.08398e-07 -2.86389e-20 1.03868e-06 -3.19796e-21 1.13613e-06)
(1.20362e-06 9.56948e-08 1.92552e-20 9.95917e-07 1.86686e-21 1.10022e-06)
(1.16463e-06 7.90203e-08 -2.43607e-21 9.44849e-07 -2.10486e-22 1.05315e-06)
(1.16522e-06 1.37624e-07 1.19893e-21 1.08007e-06 2.48051e-22 1.12265e-06)
(1.16196e-06 1.32532e-07 -1.35458e-20 1.05767e-06 -1.37884e-21 1.10982e-06)
(1.15543e-06 1.26366e-07 9.38894e-21 1.03295e-06 9.07286e-22 1.09421e-06)
(1.14513e-06 1.19039e-07 -1.44592e-20 1.00547e-06 -1.76383e-21 1.07529e-06)
(1.13034e-06 1.1056e-07 1.01379e-21 9.74993e-07 2.89643e-22 1.05274e-06)
(1.10979e-06 1.00418e-07 -5.56622e-21 9.39846e-07 -3.20247e-22 1.02466e-06)
(1.08403e-06 8.96421e-08 3.65131e-21 9.02598e-07 2.04525e-22 9.9373e-07)
(1.05125e-06 7.54132e-08 -1.22339e-20 8.58176e-07 -1.12341e-21 9.53244e-07)
(1.04512e-06 1.24101e-07 8.25806e-21 9.71895e-07 9.64213e-22 1.00852e-06)
(1.04221e-06 1.19802e-07 2.22622e-20 9.52321e-07 2.63692e-21 9.97276e-07)
(1.03656e-06 1.14607e-07 -1.91723e-20 9.30789e-07 -2.16718e-21 9.83695e-07)
(1.02775e-06 1.08441e-07 -2.0673e-20 9.06926e-07 -2.13134e-21 9.67333e-07)
(1.01517e-06 1.01305e-07 -7.31578e-21 8.805e-07 -9.62243e-22 9.4791e-07)
(9.97774e-07 9.27461e-08 2.17993e-20 8.50024e-07 2.45218e-21 9.2376e-07)
(9.75903e-07 8.36288e-08 -1.66267e-20 8.17664e-07 -1.90388e-21 8.97169e-07)
(9.48494e-07 7.15338e-08 2.95892e-20 7.79195e-07 3.24994e-21 8.62492e-07)
(9.37313e-07 1.11872e-07 7.33404e-21 8.74471e-07 9.04068e-22 9.05896e-07)
(9.34616e-07 1.08229e-07 -1.02164e-20 8.57264e-07 -1.31485e-21 8.95941e-07)
(9.29635e-07 1.03839e-07 -1.21662e-21 8.38427e-07 -9.33467e-23 8.84042e-07)
(9.22024e-07 9.86384e-08 2.52758e-20 8.17632e-07 3.06376e-21 8.69817e-07)
(9.1128e-07 9.26255e-08 -1.49821e-20 7.94674e-07 -1.85522e-21 8.53036e-07)
(8.96527e-07 8.54008e-08 -5.14221e-21 7.68241e-07 -4.87108e-22 8.3225e-07)
(8.77948e-07 7.76865e-08 -1.5897e-20 7.40138e-07 -1.58864e-21 8.09389e-07)
(8.55095e-07 6.74296e-08 3.29035e-21 7.06915e-07 2.15177e-22 7.79764e-07)
(8.41119e-07 1.00896e-07 1.37614e-20 7.87315e-07 1.50549e-21 8.14233e-07)
(8.38482e-07 9.77886e-08 -6.97036e-21 7.72038e-07 -7.4589e-22 8.05272e-07)
(8.33943e-07 9.40587e-08 3.75135e-21 7.55404e-07 3.67079e-22 7.94692e-07)
(8.2723e-07 8.96523e-08 1.79647e-20 7.37142e-07 2.08899e-21 7.82185e-07)
(8.17922e-07 8.45666e-08 -5.795e-20 7.17075e-07 -6.47919e-21 7.6756e-07)
(8.05301e-07 7.84509e-08 4.12078e-20 6.94042e-07 4.4773e-21 7.49555e-07)
(7.8944e-07 7.19109e-08 1.65103e-20 6.6957e-07 1.91462e-21 7.29828e-07)
(7.7041e-07 6.32215e-08 3.81873e-21 6.40908e-07 3.29462e-22 7.04542e-07)
(7.55122e-07 9.10528e-08 -1.55156e-20 7.09346e-07 -1.92917e-21 7.32221e-07)
(7.52395e-07 8.83882e-08 1.23448e-21 6.95614e-07 1.71716e-22 7.23997e-07)
(7.48078e-07 8.5199e-08 -6.80764e-21 6.80736e-07 -7.35936e-22 7.14406e-07)
(7.41975e-07 8.14426e-08 1.57083e-20 6.64506e-07 1.70023e-21 7.0322e-07)
(7.33703e-07 7.71172e-08 1.05146e-20 6.46761e-07 1.41354e-21 6.90273e-07)
(7.22685e-07 7.19111e-08 -6.86735e-21 6.26472e-07 -7.68786e-22 6.74456e-07)
(7.08929e-07 6.63337e-08 -7.56781e-21 6.04947e-07 -9.43777e-22 6.57211e-07)
(6.92878e-07 5.89437e-08 -1.23787e-20 5.8002e-07 -1.31623e-21 6.35419e-07)
(6.81281e-07 8.25898e-08 -9.70282e-21 6.42422e-07 -1.1094e-21 6.61861e-07)
(6.78594e-07 8.03151e-08 1.11828e-21 6.30139e-07 1.73613e-22 6.54376e-07)
(6.74529e-07 7.75952e-08 2.36046e-20 6.16844e-07 2.63659e-21 6.45699e-07)
(6.68949e-07 7.43923e-08 -1.2627e-22 6.0237e-07 1.20037e-23 6.35646e-07)
(6.61524e-07 7.07056e-08 -1.80724e-20 5.86583e-07 -2.11807e-21 6.24088e-07)
(6.51686e-07 6.62575e-08 3.70553e-20 5.685e-07 4.22408e-21 6.09982e-07)
(6.39513e-07 6.14736e-08 -7.03552e-21 5.49318e-07 -8.57675e-22 5.94647e-07)
(6.25559e-07 5.51413e-08 2.31954e-20 5.27213e-07 2.6728e-21 5.75451e-07)
(6.22699e-07 7.57553e-08 -1.87176e-20 5.88736e-07 -2.14346e-21 6.0577e-07)
(6.20066e-07 7.37639e-08 2.01419e-20 5.77605e-07 2.34899e-21 5.98903e-07)
(6.16263e-07 7.13933e-08 -3.31617e-20 5.65615e-07 -3.9658e-21 5.9102e-07)
(6.11154e-07 6.86132e-08 8.53638e-21 5.52615e-07 9.96248e-22 5.81956e-07)
(6.04408e-07 6.5413e-08 1.07688e-20 5.38427e-07 1.26594e-21 5.71545e-07)
(5.95469e-07 6.15377e-08 9.48366e-21 5.221e-07 8.25659e-22 5.58793e-07)
(5.84455e-07 5.73668e-08 -2.9873e-20 5.04769e-07 -3.16597e-21 5.44966e-07)
(5.72912e-07 5.19283e-08 1.56761e-20 4.85611e-07 1.53177e-21 5.28579e-07)
(5.7403e-07 7.13103e-08 3.82617e-21 5.52148e-07 4.73033e-22 5.62944e-07)
(5.72315e-07 6.98761e-08 1.05768e-20 5.42649e-07 1.33405e-21 5.57407e-07)
(5.69244e-07 6.80537e-08 -4.17973e-21 5.31985e-07 -4.76041e-22 5.50545e-07)
(5.6525e-07 6.59122e-08 -6.52767e-21 5.20665e-07 -6.97453e-22 5.42874e-07)
(5.60244e-07 6.34358e-08 1.75089e-20 5.08603e-07 1.97513e-21 5.34305e-07)
(5.53825e-07 6.06064e-08 -1.06873e-20 4.95546e-07 -1.22915e-21 5.24598e-07)
(5.45534e-07 5.71971e-08 -3.53739e-20 4.80637e-07 -4.04566e-21 5.12866e-07)
(5.35176e-07 5.35094e-08 4.11091e-20 4.64632e-07 4.76624e-21 4.99965e-07)
(5.25022e-07 4.87798e-08 -2.25393e-20 4.47524e-07 -2.6349e-21 4.85323e-07)
(5.29693e-07 6.59408e-08 1.07537e-21 5.10558e-07 1.1292e-22 5.20112e-07)
(5.27642e-07 6.46196e-08 -3.2023e-21 5.01495e-07 -5.21024e-22 5.14705e-07)
(5.24284e-07 6.29332e-08 2.33204e-20 4.91256e-07 2.72225e-21 5.07973e-07)
(5.20102e-07 6.09478e-08 -1.28707e-20 4.80375e-07 -1.43198e-21 5.0045e-07)
(5.15021e-07 5.86633e-08 -9.05042e-21 4.68849e-07 -1.14551e-21 4.92133e-07)
(5.08663e-07 5.60674e-08 -4.22479e-21 4.56451e-07 -4.47492e-22 4.82807e-07)
(5.007e-07 5.2979e-08 3.00342e-20 4.425e-07 3.52141e-21 4.71769e-07)
(4.91096e-07 4.9683e-08 -1.03036e-20 4.27806e-07 -1.01799e-21 4.59946e-07)
(4.82896e-07 4.56561e-08 -2.01036e-20 4.1325e-07 -2.43772e-21 4.47779e-07)
(4.82993e-07 6.03676e-08 -2.86483e-22 4.67633e-07 -2.96977e-23 4.74807e-07)
(4.80268e-07 5.91778e-08 -2.12127e-20 4.58936e-07 -2.56391e-21 4.69217e-07)
(4.76438e-07 5.76794e-08 -1.82082e-20 4.49194e-07 -2.13707e-21 4.62459e-07)
(4.71924e-07 5.59208e-08 6.46874e-21 4.38848e-07 8.07032e-22 4.54982e-07)
(4.66653e-07 5.39074e-08 -4.96508e-21 4.27933e-07 -6.26844e-22 4.46831e-07)
(4.60261e-07 5.16214e-08 1.21883e-20 4.16216e-07 1.54063e-21 4.37789e-07)
(4.52361e-07 4.88755e-08 -2.43804e-20 4.02952e-07 -3.16418e-21 4.27081e-07)
(4.42436e-07 4.58314e-08 7.58253e-20 3.8838e-07 8.9257e-21 4.14991e-07)
(4.32799e-07 4.20131e-08 -3.77803e-20 3.7303e-07 -4.35531e-21 4.0159e-07)
(4.45967e-07 5.57235e-08 -4.28878e-22 4.31442e-07 -9.75e-24 4.39161e-07)
(4.43483e-07 5.46208e-08 -1.97518e-20 4.23432e-07 -2.29725e-21 4.34178e-07)
(4.39927e-07 5.32221e-08 4.16312e-20 4.14389e-07 4.92274e-21 4.28017e-07)
(4.3563e-07 5.15635e-08 2.53659e-21 4.04666e-07 3.07659e-22 4.21032e-07)
(4.30498e-07 4.96612e-08 -2.38763e-20 3.94338e-07 -2.66598e-21 4.13303e-07)
(4.24319e-07 4.75232e-08 2.78173e-20 3.83331e-07 3.14141e-21 4.0478e-07)
(4.16964e-07 4.50489e-08 -5.31798e-20 3.71262e-07 -6.19871e-21 3.9509e-07)
(4.08882e-07 4.24908e-08 4.88443e-20 3.59153e-07 5.43624e-21 3.85418e-07)
(4.03987e-07 3.96823e-08 -5.76261e-20 3.49034e-07 -6.41363e-21 3.77524e-07)
(3.92435e-07 4.94942e-08 5.01736e-21 3.84684e-07 6.02826e-22 3.86869e-07)
(3.88735e-07 4.85464e-08 1.39956e-20 3.76794e-07 1.7659e-21 3.81177e-07)
(3.8435e-07 4.73909e-08 -1.99681e-20 3.68145e-07 -2.49402e-21 3.74663e-07)
(3.79574e-07 4.6048e-08 -1.21367e-20 3.59016e-07 -1.51675e-21 3.67612e-07)
(3.74274e-07 4.45249e-08 5.92948e-20 3.4945e-07 7.10945e-21 3.60079e-07)
(3.6802e-07 4.27845e-08 -3.90635e-20 3.39124e-07 -4.50932e-21 3.51743e-07)
(3.60253e-07 4.06084e-08 -3.36153e-20 3.27064e-07 -3.90265e-21 3.41583e-07)
(3.4972e-07 3.79641e-08 1.25074e-20 3.12634e-07 1.27154e-21 3.28892e-07)
(3.38262e-07 3.45882e-08 2.04859e-20 2.96601e-07 2.53716e-21 3.14126e-07)
(3.77668e-07 4.70385e-08 2.78347e-21 3.64102e-07 3.11634e-22 3.7344e-07)
(3.75052e-07 4.60017e-08 4.68383e-21 3.56898e-07 5.47374e-22 3.68929e-07)
(3.71471e-07 4.47125e-08 -1.29555e-20 3.48765e-07 -1.45045e-21 3.63308e-07)
(3.67162e-07 4.31903e-08 9.03354e-22 3.39931e-07 1.17848e-22 3.56805e-07)
(3.6211e-07 4.14811e-08 1.72345e-20 3.30647e-07 1.85738e-21 3.49688e-07)