/*--------------------------------*- C++ -*----------------------------------*\
| =========                 |                                                 |
| \\      /  F ield         | OpenFOAM: The Open Source CFD Toolbox           |
|  \\    /   O peration     | Version:  2306                                  |
|   \\  /    A nd           | Website:  www.openfoam.com                      |
|    \\/     M anipulation  |                                                 |
\*---------------------------------------------------------------------------*/
FoamFile
{
    version     2.0;
    format      ascii;
    arch        "LSB;label=32;scalar=64";
    class       volSymmTensorField;
    location    "1000";
    object      turbulenceProperties:devReff;
}
// * * * * * * * * * * * * * * * * * * * * * * * * * * * * * * * * * * * * * //

dimensions      [0 2 -2 0 0 0 0];

internalField   nonuniform List<symmTensor> 
1340
(
(-2.43547 -7.22746 1.22003e-15 2.42446 1.14399e-15 0.0110189)
(-2.07414 -5.67372 -1.22421e-16 2.0607 -5.25127e-16 0.0134438)
(-1.58667 -4.17183 -1.51867e-15 1.58495 -2.44843e-17 0.00171679)
(-0.472654 -0.926836 -1.88612e-16 0.473444 -1.9033e-15 -0.000790578)
(-0.781581 -2.74351 3.42268e-15 0.802067 -4.99343e-15 -0.0204856)
(-0.73089 -2.43231 -1.50358e-15 0.744264 1.5231e-15 -0.0133734)
(-0.56041 -2.13712 3.24929e-15 0.595702 4.02606e-16 -0.0352917)
(-0.787311 -2.25524 5.36289e-15 0.698354 7.29117e-15 0.0889563)
(-0.878552 -3.52388 -1.43665e-14 0.881528 5.20257e-16 -0.00297622)
(-0.798663 -3.05361 4.95828e-15 0.797742 -1.62571e-15 0.000920641)
(-0.531555 -2.55656 5.13618e-15 0.547638 -1.5221e-15 -0.0160821)
(-0.843975 -2.81471 -1.0022e-14 0.825971 2.90316e-15 0.0180035)
(-0.792898 -3.65049 4.79366e-15 0.790369 4.89524e-15 0.00252901)
(-0.801306 -3.42072 -1.01676e-14 0.796626 -1.30417e-16 0.00468027)
(-0.57395 -3.01948 -1.30263e-14 0.584297 1.88151e-15 -0.0103472)
(-0.814707 -3.21254 9.21225e-15 0.786368 -3.43372e-15 0.0283386)
(-0.400785 -2.39931 -9.96101e-16 0.401494 4.27551e-16 -0.000709734)
(-0.586047 -2.9639 -1.75008e-15 0.582082 3.98581e-15 0.00396524)
(-0.525521 -3.0858 6.73222e-16 0.536151 2.44382e-16 -0.0106301)
(-0.773305 -3.40212 -1.726e-14 0.735817 4.3126e-15 0.0374886)
(-0.0173302 -0.556215 2.80915e-15 0.0189461 -1.65285e-15 -0.00161588)
(-0.202985 -1.53971 1.02202e-14 0.202189 -1.62758e-15 0.000796094)
(-0.331962 -2.48037 5.21541e-16 0.342282 -9.15554e-17 -0.0103199)
(-0.674495 -3.25969 3.62079e-15 0.638191 -3.4116e-15 0.0363044)
(0.0293787 0.0246214 -1.26846e-15 -0.0293375 3.23166e-16 -4.11791e-05)
(0.0319441 -0.252952 -1.31423e-15 -0.0326736 -8.03909e-16 0.000729491)
(-0.0703347 -1.27416 1.17111e-15 0.077982 -2.67156e-16 -0.00764726)
(-0.47458 -2.62771 3.10437e-15 0.444136 -8.99982e-16 0.030444)
(0.00843563 0.0138516 3.33074e-16 -0.00842318 8.24045e-18 -1.2453e-05)
(0.0218042 0.0200329 -3.92046e-16 -0.0220961 1.32727e-16 0.000291924)
(0.0620511 -0.283799 -1.87167e-15 -0.0588779 3.44473e-16 -0.00317316)
(-0.216855 -1.58494 9.83836e-15 0.193511 -5.71776e-16 0.0233431)
(1.14783e-05 8.0223e-06 -2.22833e-19 -1.14321e-05 -9.52626e-20 -4.62112e-08)
(0.00572781 0.00737824 8.68744e-17 -0.00580508 -7.42663e-18 7.72713e-05)
(0.040495 0.00330958 1.91446e-15 -0.0395306 -2.3238e-16 -0.000964442)
(-0.0285272 -0.635417 -4.57809e-15 0.0125485 1.49306e-15 0.0159787)
(9.17213e-06 -3.20473e-06 1.04681e-19 -9.12004e-06 5.19416e-20 -5.20928e-08)
(9.17779e-06 3.01762e-06 -1.76651e-19 -9.34121e-06 2.6078e-20 1.6342e-07)
(0.0114666 0.00823102 -1.7588e-16 -0.0111647 7.56895e-18 -0.000301875)
(0.0318236 -0.159553 -3.46014e-15 -0.0406301 1.48397e-16 0.00880647)
(8.92119e-06 -3.75003e-06 7.0805e-20 -8.86784e-06 -1.03575e-20 -5.33585e-08)
(7.49534e-06 -5.22468e-06 2.38809e-19 -7.62841e-06 1.66211e-20 1.33069e-07)
(0.000721009 0.000257587 -4.93052e-18 -0.000698082 9.73285e-19 -2.29277e-05)
(0.0248363 -0.0318527 5.64158e-16 -0.0285982 -2.53475e-16 0.00376188)
(9.05593e-06 -1.52153e-06 8.26404e-20 -9.01221e-06 -8.45655e-20 -4.37126e-08)
(7.6361e-06 -5.63404e-06 1.49056e-19 -7.74673e-06 -4.64364e-20 1.10637e-07)
(0.000238977 -7.42067e-05 1.30304e-18 -0.000230658 -2.29913e-19 -8.31919e-06)
(0.0103724 -0.00934633 6.01173e-16 -0.0116982 -1.77298e-17 0.00132571)
(1.11892e-05 -5.03701e-07 -4.30697e-19 -1.11433e-05 1.19881e-19 -4.58274e-08)
(8.02872e-06 -3.65416e-06 -1.00294e-20 -8.13579e-06 -4.39609e-20 1.07068e-07)
(6.06805e-05 -3.93912e-05 -1.57916e-18 -5.86603e-05 1.22691e-19 -2.02013e-06)
(0.00310605 -0.00351411 -2.18582e-16 -0.00349387 2.15575e-17 0.000387822)
(1.76203e-05 -6.64963e-07 9.58327e-19 -1.75521e-05 -7.84211e-20 -6.81997e-08)
(8.06072e-06 -2.41567e-06 -2.50161e-19 -8.16416e-06 3.97169e-20 1.03436e-07)
(8.19658e-06 -5.1316e-06 -8.70681e-20 -7.95485e-06 2.4774e-20 -2.41734e-07)
(0.000699386 -0.000968243 6.30094e-17 -0.000783978 -5.94497e-18 8.45928e-05)
(1.62636e-05 -9.36607e-07 -7.12871e-19 -1.62041e-05 -7.41448e-20 -5.95354e-08)
(9.92795e-06 -2.70605e-06 1.60619e-19 -1.00472e-05 1.5248e-20 1.19227e-07)
(7.17553e-06 -3.81998e-06 3.3835e-19 -6.99201e-06 -3.90853e-20 -1.83512e-07)
(3.97114e-05 -5.81226e-05 -4.28785e-18 -4.41438e-05 4.75639e-19 4.43249e-06)
(1.35216e-05 -8.91129e-07 7.15715e-20 -1.34766e-05 9.81591e-20 -4.49808e-08)
(1.49501e-05 -4.34058e-06 -3.00863e-20 -1.5114e-05 -2.69267e-20 1.63912e-07)
(6.93643e-06 -3.41759e-06 -3.50432e-19 -6.78146e-06 1.95609e-20 -1.54973e-07)
(5.7339e-06 -8.14678e-06 1.77286e-19 -6.30589e-06 -3.62604e-20 5.71986e-07)
(1.21858e-05 -7.66434e-07 1.09891e-19 -1.21494e-05 -8.39498e-21 -3.64659e-08)
(1.62212e-05 -4.92798e-06 -9.71232e-20 -1.63824e-05 3.29365e-21 1.61283e-07)
(6.62911e-06 -3.31779e-06 2.04765e-20 -6.50028e-06 1.61009e-20 -1.28828e-07)
(5.17937e-06 -7.02548e-06 -1.22338e-19 -5.63571e-06 9.22189e-21 4.56343e-07)
(1.18388e-05 -6.68576e-07 3.53468e-20 -1.18075e-05 -5.03218e-20 -3.13491e-08)
(1.38448e-05 -4.20707e-06 -7.29301e-20 -1.39685e-05 2.86386e-20 1.23707e-07)
(7.33391e-06 -3.82942e-06 3.13925e-19 -7.20966e-06 -1.60211e-20 -1.24249e-07)
(4.88793e-06 -6.41479e-06 1.5899e-19 -5.26654e-06 -1.87304e-20 3.78613e-07)
(1.17679e-05 -5.88654e-07 -2.89764e-19 -1.17407e-05 1.74919e-20 -2.72085e-08)
(1.16423e-05 -3.45497e-06 1.62472e-19 -1.1735e-05 -8.85569e-21 9.27474e-08)
(1.01475e-05 -5.4636e-06 2.80656e-19 -9.99999e-06 -3.2233e-20 -1.47499e-07)
(4.63963e-06 -5.96642e-06 4.14486e-19 -4.9544e-06 -1.83484e-20 3.14767e-07)
(1.15916e-05 -5.05026e-07 3.08283e-20 -1.15687e-05 3.06158e-20 -2.29302e-08)
(1.0537e-05 -3.03376e-06 -3.69865e-20 -1.06117e-05 -1.86156e-20 7.47132e-08)
(1.06404e-05 -5.80786e-06 -9.62474e-20 -1.05109e-05 -1.86069e-20 -1.2948e-07)
(5.05948e-06 -6.39621e-06 -3.64254e-20 -5.35755e-06 1.17402e-20 2.98066e-07)
(1.12395e-05 -4.08611e-07 -9.70805e-21 -1.12205e-05 -1.91171e-20 -1.89682e-08)
(1.00507e-05 -2.8022e-06 -1.33292e-19 -1.01132e-05 2.06672e-20 6.24724e-08)
(9.65896e-06 -5.28035e-06 -4.57381e-19 -9.56189e-06 3.20228e-20 -9.70684e-08)
(5.96169e-06 -7.38385e-06 -2.59099e-19 -6.26425e-06 1.14553e-20 3.02557e-07)
(1.07881e-05 -3.02947e-07 -1.48607e-19 -1.07731e-05 3.59532e-20 -1.49775e-08)
(9.74886e-06 -2.62373e-06 1.39846e-19 -9.80126e-06 -7.49278e-21 5.23979e-08)
(8.71482e-06 -4.73668e-06 1.16695e-19 -8.64345e-06 4.06452e-21 -7.13727e-08)
(6.23441e-06 -7.53084e-06 -1.54973e-19 -6.50361e-06 4.24995e-21 2.69197e-07)
(1.03105e-05 -1.92602e-07 2.94757e-19 -1.0299e-05 -2.09712e-21 -1.14941e-08)
(9.43002e-06 -2.43655e-06 -1.4192e-19 -9.47375e-06 2.89827e-21 4.37323e-08)
(8.08906e-06 -4.34487e-06 -9.65705e-20 -8.03688e-06 4.43764e-21 -5.21804e-08)
(6.00414e-06 -7.03709e-06 3.40068e-19 -6.22322e-06 -1.23025e-20 2.19075e-07)
(9.83631e-06 -8.01614e-08 -4.20843e-20 -9.82751e-06 -2.98372e-20 -8.80397e-09)
(9.05271e-06 -2.2309e-06 7.48183e-20 -9.08842e-06 -6.57806e-21 3.5712e-08)
(7.65555e-06 -4.04098e-06 1.33495e-19 -7.61781e-06 -9.92506e-21 -3.77395e-08)
(5.65364e-06 -6.40481e-06 -2.19318e-19 -5.82626e-06 9.1588e-21 1.72622e-07)
(9.36908e-06 3.27299e-08 -4.6952e-20 -9.36295e-06 -1.63761e-21 -6.12727e-09)
(8.63964e-06 -2.01384e-06 -1.92409e-19 -8.66823e-06 8.07054e-21 2.85876e-08)
(7.29342e-06 -3.75927e-06 -2.21743e-19 -7.267e-06 1.39095e-20 -2.64148e-08)
(5.33557e-06 -5.81791e-06 2.4695e-19 -5.47036e-06 -6.62766e-21 1.34792e-07)
(8.90391e-06 1.44761e-07 -8.93972e-20 -8.8998e-06 1.27892e-20 -4.10929e-09)
(8.21514e-06 -1.79481e-06 1.00559e-19 -8.2374e-06 2.32866e-20 2.22521e-08)
(6.94661e-06 -3.47385e-06 3.35782e-19 -6.92881e-06 -1.44231e-22 -1.78015e-08)
(5.06429e-06 -5.29504e-06 -2.41295e-19 -5.16805e-06 5.33762e-21 1.03761e-07)
(8.43893e-06 2.55654e-07 9.37263e-20 -8.43635e-06 9.1803e-21 -2.58091e-09)
(7.79223e-06 -1.57761e-06 2.83592e-19 -7.80952e-06 -1.9817e-20 1.72908e-08)
(6.60308e-06 -3.18065e-06 2.07806e-20 -6.59204e-06 -8.21738e-21 -1.10411e-08)
(4.8243e-06 -4.81659e-06 1.30241e-19 -4.90318e-06 -3.01989e-21 7.88845e-08)
(7.97457e-06 3.62239e-07 7.71852e-20 -7.97363e-06 -1.59268e-20 -9.41987e-10)
(7.37371e-06 -1.36598e-06 -1.64205e-19 -7.38706e-06 -1.73247e-20 1.33531e-08)
(6.26381e-06 -2.88595e-06 4.00861e-20 -6.25818e-06 -7.73585e-21 -5.62451e-09)
(4.60282e-06 -4.36987e-06 -2.46609e-19 -4.6625e-06 2.85725e-21 5.96778e-08)
(7.51216e-06 4.64864e-07 -1.37878e-19 -7.512e-06 6.26747e-21 -1.65011e-10)
(6.96036e-06 -1.15926e-06 -1.10204e-19 -6.97014e-06 1.52813e-20 9.77421e-09)
(5.93132e-06 -2.59356e-06 -2.1423e-19 -5.92928e-06 4.37122e-21 -2.03433e-09)
(4.39306e-06 -3.94907e-06 1.59637e-19 -4.43758e-06 -3.95876e-21 4.4521e-08)
(7.05445e-06 5.61569e-07 1.53926e-19 -7.05487e-06 -2.72747e-21 4.22267e-10)
(6.55294e-06 -9.6093e-07 1.22139e-19 -6.56003e-06 -3.78574e-21 7.0964e-09)
(5.60689e-06 -2.30818e-06 1.04061e-19 -5.60765e-06 -1.94652e-21 7.60219e-10)
(4.19286e-06 -3.55224e-06 -3.57009e-19 -4.22616e-06 5.94085e-21 3.33071e-08)
(6.60361e-06 6.5078e-07 -1.82947e-19 -6.6048e-06 -4.68098e-21 1.18735e-09)
(6.15286e-06 -7.70758e-07 -1.8426e-19 -6.15785e-06 -7.12193e-22 4.98278e-09)
(5.29014e-06 -2.03174e-06 -2.69745e-19 -5.29234e-06 3.4187e-22 2.19323e-09)
(3.99967e-06 -3.17913e-06 5.68441e-19 -4.02419e-06 4.95578e-21 2.45211e-08)
(6.16112e-06 7.31823e-07 9.07376e-20 -6.16257e-06 1.34543e-20 1.45106e-09)
(5.76125e-06 -5.91404e-07 1.24949e-19 -5.76488e-06 1.52534e-21 3.63419e-09)
(4.98177e-06 -1.76665e-06 1.57922e-19 -4.98523e-06 1.18748e-20 3.45619e-09)
(3.81243e-06 -2.82819e-06 -2.28047e-19 -3.83015e-06 -8.81046e-21 1.77202e-08)
(5.7293e-06 8.03984e-07 4.7705e-20 -5.73095e-06 -7.38027e-21 1.64684e-09)
(5.37892e-06 -4.2326e-07 -1.69485e-19 -5.38117e-06 -5.4415e-21 2.24576e-09)
(4.68093e-06 -1.51524e-06 6.24172e-20 -4.685e-06 -1.22841e-20 4.06233e-09)
(3.62969e-06 -2.49971e-06 9.54925e-20 -3.64247e-06 4.26639e-21 1.27791e-08)
(5.35102e-06 1.98545e-06 -1.85805e-19 -5.3525e-06 9.37523e-21 1.47649e-09)
(5.30985e-06 8.66272e-07 -7.58433e-20 -5.31168e-06 -8.66216e-21 1.82115e-09)
(5.00766e-06 -2.67289e-07 5.4373e-20 -5.00902e-06 1.57224e-20 1.36146e-09)
(4.38798e-06 -1.27827e-06 -2.58339e-19 -4.39208e-06 -1.2145e-21 4.10063e-09)
(3.4501e-06 -2.19304e-06 -6.55551e-20 -3.45888e-06 4.89987e-22 8.77336e-09)
(4.91959e-06 1.9466e-06 2.08257e-19 -4.92102e-06 1.39505e-20 1.42752e-09)
(4.90441e-06 9.18465e-07 -8.38591e-20 -4.90613e-06 5.18835e-21 1.71876e-09)
(4.64834e-06 -1.24727e-07 2.18028e-19 -4.6492e-06 6.25552e-22 8.55215e-10)
(4.10354e-06 -1.05736e-06 1.73111e-19 -4.10767e-06 1.15601e-20 4.13328e-09)
(3.27316e-06 -1.90763e-06 1.97792e-19 -3.27887e-06 5.88803e-21 5.70456e-09)
(4.50656e-06 1.89963e-06 -5.18682e-20 -4.50784e-06 -1.0671e-20 1.28247e-09)
(4.51466e-06 9.60096e-07 9.76569e-20 -4.51638e-06 6.07068e-21 1.7273e-09)
(4.30183e-06 4.18018e-09 -5.88284e-20 -4.30227e-06 -1.3698e-20 4.32472e-10)
(3.82772e-06 -8.53379e-07 -4.82136e-21 -3.83176e-06 -7.48568e-21 4.03739e-09)
(3.09843e-06 -1.64345e-06 -7.95083e-20 -3.1018e-06 -9.78623e-21 3.36561e-09)
(4.11354e-06 1.84521e-06 3.0235e-20 -4.11467e-06 -4.32154e-22 1.13173e-09)
(4.14174e-06 9.91235e-07 -1.35822e-20 -4.14342e-06 -3.19898e-21 1.68617e-09)
(3.96906e-06 1.19062e-07 -1.44683e-19 -3.96916e-06 1.92698e-21 1.04083e-10)
(3.56089e-06 -6.66762e-07 -9.22519e-20 -3.5647e-06 -6.44599e-21 3.81091e-09)
(2.92565e-06 -1.40018e-06 -2.10201e-19 -2.9271e-06 -4.79032e-21 1.45235e-09)
(3.74169e-06 1.78422e-06 -9.682e-20 -3.74277e-06 -7.74472e-22 1.08143e-09)
(3.78683e-06 1.01228e-06 1.9686e-20 -3.7884e-06 -8.24466e-22 1.56892e-09)
(3.65086e-06 2.19871e-07 1.43681e-19 -3.65075e-06 6.29638e-21 -1.03154e-10)
(3.30348e-06 -4.97728e-07 -1.20754e-19 -3.307e-06 -3.21828e-21 3.5278e-09)
(2.75496e-06 -1.17734e-06 7.36792e-20 -2.75492e-06 5.91307e-21 -4.40326e-11)
(3.39179e-06 1.71757e-06 1.43795e-19 -3.39279e-06 1.37682e-20 1.00382e-09)
(3.45085e-06 1.02335e-06 -3.62087e-20 -3.45234e-06 1.66959e-21 1.48052e-09)
(3.34789e-06 3.06641e-07 -1.41423e-19 -3.34771e-06 -7.73593e-21 -1.82955e-10)
(3.05603e-06 -3.46235e-07 -2.82138e-20 -3.05932e-06 7.25028e-21 3.29662e-09)
(2.58664e-06 -9.74662e-07 -1.87831e-20 -2.58536e-06 -8.28699e-22 -1.27797e-09)
(3.06437e-06 1.64632e-06 7.11164e-20 -3.06526e-06 -3.21591e-21 8.87317e-10)
(3.13436e-06 1.0252e-06 9.74608e-20 -3.13572e-06 6.56855e-21 1.36642e-09)
(3.06056e-06 3.79753e-07 1.12836e-19 -3.06028e-06 7.87207e-21 -2.80237e-10)
(2.81884e-06 -2.12062e-07 2.65094e-19 -2.82192e-06 1.07011e-20 3.08062e-09)
(2.42115e-06 -7.91418e-07 9.02712e-20 -2.41891e-06 6.42159e-21 -2.24376e-09)
(2.75968e-06 1.57139e-06 -5.7361e-20 -2.76047e-06 -7.83731e-21 7.90698e-10)
(2.83777e-06 1.01849e-06 5.59956e-21 -2.83905e-06 -6.30086e-21 1.28503e-09)
(2.78935e-06 4.39868e-07 -5.73626e-20 -2.789e-06 -6.18863e-21 -3.45185e-10)
(2.59231e-06 -9.46484e-08 -1.08047e-19 -2.59516e-06 -1.38638e-20 2.85042e-09)
(2.2589e-06 -6.27279e-07 6.29769e-20 -2.25585e-06 1.61865e-21 -3.04707e-09)
(2.47761e-06 1.49383e-06 -7.69542e-20 -2.47832e-06 -2.33531e-21 7.12902e-10)
(2.56122e-06 1.00405e-06 -1.43838e-19 -2.56241e-06 -7.32147e-21 1.19079e-09)
(2.53447e-06 4.87527e-07 -2.14858e-20 -2.53412e-06 2.12841e-21 -3.50381e-10)
(2.37683e-06 6.70892e-09 -8.85082e-20 -2.37951e-06 -2.89992e-21 2.67764e-09)
(2.1006e-06 -4.8102e-07 -2.67407e-21 -2.09693e-06 -4.14503e-21 -3.66959e-09)
(2.21775e-06 1.41465e-06 8.8718e-21 -2.21839e-06 5.67964e-21 6.41155e-10)
(2.30463e-06 9.82749e-07 7.09514e-20 -2.30571e-06 7.02119e-21 1.07961e-09)
(2.29596e-06 5.23762e-07 9.18439e-20 -2.29559e-06 4.80509e-21 -3.73266e-10)
(2.17263e-06 9.28701e-08 -1.11373e-20 -2.17511e-06 3.17044e-21 2.48376e-09)
(1.94676e-06 -3.52254e-07 -1.54185e-19 -1.94263e-06 -6.68267e-21 -4.13252e-09)
(1.97955e-06 1.33475e-06 1.25103e-19 -1.98011e-06 9.51244e-21 5.63491e-10)
(2.06773e-06 9.55619e-07 -5.36624e-20 -2.0687e-06 -6.94478e-21 9.68886e-10)
(2.07377e-06 5.49422e-07 -7.48022e-20 -2.0734e-06 -7.76939e-21 -3.76619e-10)
(1.97997e-06 1.64794e-07 7.47592e-20 -1.98232e-06 3.06333e-21 2.34955e-09)
(1.79802e-06 -2.39697e-07 1.55471e-19 -1.79349e-06 1.24958e-20 -4.53082e-09)
(1.7622e-06 1.25495e-06 -2.33749e-21 -1.76269e-06 -2.65549e-21 4.89503e-10)
(1.85e-06 9.23516e-07 -9.04855e-20 -1.85091e-06 -4.92115e-21 9.12248e-10)
(1.86775e-06 5.65583e-07 -2.06743e-20 -1.86736e-06 -2.01602e-21 -3.83106e-10)
(1.79895e-06 2.23631e-07 -6.55993e-20 -1.80118e-06 -4.51944e-21 2.22938e-09)
(1.65496e-06 -1.4245e-07 -7.18162e-21 -1.65016e-06 -5.4826e-21 -4.79945e-09)
(1.42798e-06 1.43572e-06 -5.67799e-22 -1.42851e-06 -6.16372e-22 5.29091e-10)
(1.56477e-06 1.17607e-06 1.84779e-20 -1.56518e-06 1.07404e-21 4.18128e-10)
(1.65074e-06 8.87499e-07 2.70452e-20 -1.65156e-06 3.83143e-21 8.13713e-10)
(1.6775e-06 5.73306e-07 -1.04824e-19 -1.67711e-06 -5.09133e-21 -3.91672e-10)
(1.62958e-06 2.70505e-07 9.04235e-20 -1.63168e-06 7.39656e-21 2.09609e-09)
(1.51806e-06 -5.94173e-08 -1.51169e-19 -1.51309e-06 -8.47475e-21 -4.97062e-09)
(1.26044e-06 1.32283e-06 -1.78908e-20 -1.2609e-06 -1.45943e-21 4.6102e-10)
(1.38617e-06 1.09876e-06 -2.56183e-20 -1.38653e-06 -3.37093e-21 3.60452e-10)
(1.46924e-06 8.48457e-07 -2.84295e-20 -1.46997e-06 -3.46306e-21 7.22901e-10)
(1.50257e-06 5.73738e-07 1.35407e-19 -1.50218e-06 1.32956e-20 -3.86864e-10)
(1.47184e-06 3.06605e-07 -1.03125e-20 -1.47382e-06 -3.85767e-21 1.97636e-09)
(1.38777e-06 1.05326e-08 1.30312e-19 -1.38271e-06 1.11497e-20 -5.06597e-09)
(1.11031e-06 1.21635e-06 1.78592e-20 -1.1107e-06 3.16559e-21 3.90504e-10)
(1.22524e-06 1.02356e-06 -4.62279e-20 -1.22554e-06 -3.06101e-21 2.99206e-10)
(1.30456e-06 8.07196e-07 1.36426e-21 -1.30523e-06 1.44107e-21 6.73864e-10)
(1.34242e-06 5.67878e-07 5.97721e-20 -1.34203e-06 1.42021e-21 -3.86591e-10)
(1.32557e-06 3.33134e-07 -9.48257e-20 -1.32745e-06 -5.04186e-21 1.87795e-09)
(1.26444e-06 6.85929e-08 -5.59701e-20 -1.25934e-06 -5.52499e-21 -5.09591e-09)
(9.76225e-07 1.11637e-06 6.33979e-20 -9.76564e-07 4.28215e-21 3.38581e-10)
(1.08076e-06 9.50991e-07 3.29302e-20 -1.08101e-06 3.46041e-21 2.46492e-10)
(1.1557e-06 7.64605e-07 7.20888e-20 -1.1563e-06 5.27976e-21 5.98949e-10)
(1.19637e-06 5.56795e-07 -7.96795e-20 -1.19598e-06 -6.15637e-21 -3.95066e-10)
(1.1905e-06 3.51264e-07 1.37009e-19 -1.19228e-06 1.21517e-20 1.78087e-09)
(1.1483e-06 1.15892e-07 6.06821e-20 -1.14322e-06 5.51372e-21 -5.08038e-09)
(8.56855e-07 1.0229e-06 -7.36215e-20 -8.57143e-07 -7.5908e-21 2.88203e-10)
(9.51487e-07 8.81397e-07 -1.2348e-20 -9.51695e-07 -2.10127e-21 2.07732e-10)
(1.02167e-06 7.21282e-07 -8.50434e-20 -1.02221e-06 -9.22851e-21 5.45253e-10)
(1.0637e-06 5.41464e-07 9.75272e-20 -1.06331e-06 9.34601e-21 -3.88444e-10)
(1.06631e-06 3.62161e-07 9.02977e-21 -1.06799e-06 -1.35206e-21 1.67335e-09)
(1.03952e-06 1.53584e-07 -3.41247e-20 -1.03453e-06 -4.80039e-21 -4.99825e-09)
(7.5089e-07 9.35867e-07 2.96814e-20 -7.51133e-07 3.99491e-21 2.42162e-10)
(8.36191e-07 8.15102e-07 -3.07503e-20 -8.36349e-07 -2.41036e-21 1.57751e-10)
(9.01362e-07 6.77937e-07 -1.583e-20 -9.01844e-07 2.43701e-22 4.8199e-10)
(9.43617e-07 5.22771e-07 -1.04906e-20 -9.43226e-07 -2.31336e-21 -3.90658e-10)
(9.52606e-07 3.66848e-07 -3.63021e-20 -9.54188e-07 -2.69927e-21 1.58166e-09)
(9.38155e-07 1.82776e-07 -1.07883e-19 -9.33283e-07 -7.99436e-21 -4.87244e-09)
(6.57055e-07 8.55106e-07 -6.93581e-21 -6.57264e-07 8.55358e-22 2.08597e-10)
(7.33661e-07 7.52241e-07 8.2419e-21 -7.33796e-07 1.17152e-21 1.35496e-10)
(7.93756e-07 6.35029e-07 2.88046e-20 -7.94197e-07 2.92831e-21 4.41499e-10)
(8.3533e-07 5.01522e-07 -8.08335e-21 -8.34943e-07 -1.18056e-21 -3.86817e-10)
(8.48904e-07 3.66383e-07 2.41112e-20 -8.50395e-07 1.31181e-21 1.49122e-09)
(8.44157e-07 2.04562e-07 8.7043e-20 -8.39431e-07 8.87262e-21 -4.72563e-09)
(5.74152e-07 7.80442e-07 1.4096e-19 -5.74326e-07 1.3865e-20 1.73769e-10)
(6.42701e-07 6.92992e-07 8.24026e-21 -6.42799e-07 1.25671e-21 9.8687e-11)
(6.97769e-07 5.93038e-07 5.53075e-21 -6.98153e-07 1.26502e-23 3.84018e-10)
(7.37977e-07 4.78443e-07 -5.15777e-20 -7.37598e-07 -3.39637e-21 -3.79348e-10)
(7.54696e-07 3.61664e-07 -8.71777e-20 -7.56094e-07 -7.74774e-21 1.39794e-09)
(7.57417e-07 2.19936e-07 -1.54164e-20 -7.52869e-07 -1.87838e-21 -4.54808e-09)
(5.01071e-07 7.11596e-07 -4.438e-20 -5.01216e-07 -5.83016e-21 1.45118e-10)
(5.62228e-07 6.37353e-07 1.8935e-20 -5.62304e-07 1.56175e-21 7.67362e-11)
(6.12395e-07 5.52285e-07 -2.12444e-20 -6.12749e-07 -2.8144e-21 3.53746e-10)
(6.50743e-07 4.54167e-07 1.01671e-19 -6.50368e-07 9.53299e-21 -3.74949e-10)
(6.69416e-07 3.53529e-07 7.15102e-20 -6.7073e-07 7.60521e-21 1.31359e-09)
(6.77741e-07 2.29821e-07 7.64928e-20 -6.73392e-07 6.26921e-21 -4.34843e-09)
(3.76037e-07 7.01268e-07 3.50497e-20 -3.76121e-07 3.32841e-21 8.442e-11)
(4.36761e-07 6.48283e-07 5.4357e-20 -4.36886e-07 6.6671e-21 1.25444e-10)
(4.91176e-07 5.85346e-07 -1.71858e-20 -4.91226e-07 -2.1981e-21 4.97439e-11)
(5.36628e-07 5.13081e-07 -3.94795e-20 -5.36942e-07 -3.64634e-21 3.13556e-10)
(5.72796e-07 4.29221e-07 -6.75611e-20 -5.72428e-07 -7.4273e-21 -3.68011e-10)
(5.9249e-07 3.42719e-07 -2.11456e-20 -5.9372e-07 -2.24256e-21 1.23008e-09)
(6.04867e-07 2.35109e-07 -1.30356e-19 -6.0073e-07 -1.3414e-20 -4.13727e-09)
(3.26913e-07 6.35045e-07 -5.20375e-20 -3.26979e-07 -5.7568e-21 6.5993e-11)
(3.80262e-07 5.90203e-07 3.91875e-20 -3.80364e-07 2.9229e-21 1.02665e-10)
(4.2855e-07 5.36901e-07 -4.65429e-20 -4.28588e-07 -4.6753e-21 3.82466e-11)
(4.69569e-07 4.75589e-07 -1.05124e-20 -4.69851e-07 -2.06279e-23 2.81916e-10)
(5.03332e-07 4.04062e-07 2.2706e-20 -5.02979e-07 1.93808e-21 -3.52863e-10)
(5.2333e-07 3.29874e-07 4.71438e-20 -5.24479e-07 5.28747e-21 1.14913e-09)
(5.38491e-07 2.36563e-07 -1.78968e-20 -5.34577e-07 5.19545e-23 -3.91379e-09)
(2.83888e-07 5.74973e-07 3.84372e-20 -2.83943e-07 5.35193e-21 5.53823e-11)
(3.30708e-07 5.3704e-07 -7.39636e-20 -3.30795e-07 -8.1798e-21 8.68543e-11)
(3.73451e-07 4.91947e-07 -6.34822e-21 -3.73478e-07 -5.59939e-22 2.72411e-11)
(4.10324e-07 4.3998e-07 9.74385e-20 -4.10569e-07 9.57585e-21 2.45851e-10)
(4.41574e-07 3.79072e-07 -9.67371e-20 -4.41233e-07 -9.88875e-21 -3.41035e-10)
(4.61331e-07 3.1558e-07 4.61223e-20 -4.62397e-07 4.57831e-21 1.0662e-09)
(4.78264e-07 2.34894e-07 5.72349e-20 -4.74575e-07 4.77935e-21 -3.68913e-09)
(2.46241e-07 5.20571e-07 6.23624e-20 -2.46285e-07 6.78369e-21 4.36308e-11)
(2.87282e-07 4.88494e-07 5.72745e-22 -2.87353e-07 6.91309e-22 7.08076e-11)
(3.25049e-07 4.50362e-07 7.47894e-21 -3.25065e-07 1.06066e-21 1.62101e-11)
(3.5807e-07 4.06359e-07 -1.14542e-19 -3.58286e-07 -1.25555e-20 2.16618e-10)
(3.86794e-07 3.54548e-07 -3.42863e-21 -3.86467e-07 -3.85749e-22 -3.2669e-10)
(4.05914e-07 3.00296e-07 8.05977e-20 -4.06911e-07 8.65974e-21 9.96652e-10)
(4.23821e-07 2.30717e-07 -1.59527e-19 -4.20363e-07 -1.66949e-20 -3.45849e-09)
(2.13324e-07 4.71364e-07 1.55402e-20 -2.13359e-07 1.37777e-21 3.5056e-11)
(2.4926e-07 4.44245e-07 -2.10353e-20 -2.49323e-07 -1.95472e-21 6.27385e-11)
(2.82585e-07 4.12004e-07 -1.1794e-20 -2.82592e-07 -1.5093e-21 7.51092e-12)
(3.12054e-07 3.74771e-07 3.17794e-20 -3.12252e-07 4.55539e-21 1.98749e-10)
(3.38303e-07 3.30749e-07 -5.70848e-20 -3.37992e-07 -6.1093e-21 -3.11564e-10)
(3.565e-07 2.84471e-07 6.29346e-20 -3.57424e-07 6.30525e-21 9.23908e-10)
(3.74761e-07 2.24606e-07 -2.78222e-20 -3.71527e-07 -2.06509e-21 -3.23398e-09)
(1.84559e-07 4.2686e-07 8.47465e-21 -1.84585e-07 5.1388e-22 2.55858e-11)
(2.15995e-07 4.03944e-07 4.54365e-20 -2.16047e-07 5.23694e-21 5.19797e-11)
(2.45353e-07 3.76702e-07 -4.1328e-21 -2.4535e-07 -2.55387e-22 -2.95797e-12)
(2.71575e-07 3.45225e-07 2.68461e-20 -2.7175e-07 1.92208e-21 1.75038e-10)
(2.95438e-07 3.07853e-07 -7.74009e-21 -2.95138e-07 -9.95389e-22 -3.00137e-10)
(3.12535e-07 2.68424e-07 6.27371e-20 -3.13393e-07 6.58903e-21 8.58149e-10)
(3.30688e-07 2.17033e-07 -6.83833e-20 -3.27675e-07 -6.87367e-21 -3.01279e-09)
(1.5946e-07 3.86509e-07 -2.97056e-20 -1.59482e-07 -3.76018e-21 2.14707e-11)
(1.86938e-07 3.67166e-07 1.68979e-20 -1.86983e-07 1.62925e-21 4.47418e-11)
(2.12751e-07 3.44179e-07 2.15698e-20 -2.12748e-07 2.40444e-21 -3.64942e-12)
(2.36032e-07 3.17597e-07 -1.07559e-19 -2.36189e-07 -1.17014e-20 1.57734e-10)
(2.57611e-07 2.85924e-07 -7.55417e-20 -2.57332e-07 -8.43536e-21 -2.79541e-10)
(2.73503e-07 2.52392e-07 5.07849e-20 -2.74297e-07 4.92379e-21 7.94018e-10)
(2.91199e-07 2.08387e-07 -6.42422e-21 -2.88403e-07 -5.55077e-22 -2.79598e-09)
(1.12351e-07 3.63234e-07 3.16437e-21 -1.1237e-07 6.54687e-22 1.9241e-11)
(1.37601e-07 3.49768e-07 -3.57489e-20 -1.37616e-07 -3.6389e-21 1.45534e-11)
(1.61598e-07 3.33466e-07 2.47764e-20 -1.61632e-07 2.39423e-21 3.38858e-11)
(1.8426e-07 3.14103e-07 -3.81527e-20 -1.8425e-07 -4.65415e-21 -1.06099e-11)
(2.04867e-07 2.91702e-07 2.6748e-21 -2.05004e-07 7.64196e-22 1.37746e-10)
(2.24297e-07 2.64914e-07 -1.46844e-20 -2.2403e-07 -8.44851e-22 -2.67802e-10)
(2.38926e-07 2.36461e-07 9.63157e-21 -2.39658e-07 5.39502e-22 7.32119e-10)
(2.55914e-07 1.98901e-07 -3.22666e-20 -2.53327e-07 -2.96298e-21 -2.58664e-09)
(9.66464e-08 3.27617e-07 2.18006e-20 -9.66688e-08 2.54544e-21 2.23933e-11)
(1.18632e-07 3.16242e-07 5.87654e-20 -1.18649e-07 6.96067e-21 1.7614e-11)
(1.39571e-07 3.02501e-07 -5.06045e-20 -1.39607e-07 -5.7202e-21 3.57315e-11)
(1.59441e-07 2.86198e-07 -5.45605e-20 -1.59434e-07 -5.62505e-21 -7.20619e-12)
(1.77632e-07 2.67339e-07 -1.93059e-20 -1.77761e-07 -2.5393e-21 1.28744e-10)
(1.95052e-07 2.44724e-07 5.75204e-20 -1.94807e-07 6.47041e-21 -2.45568e-10)
(2.08404e-07 2.2064e-07 -4.38666e-20 -2.09081e-07 -5.02306e-21 6.77314e-10)
(2.2449e-07 1.88702e-07 7.80547e-20 -2.22111e-07 8.57316e-21 -2.37878e-09)
(8.29665e-08 2.95409e-07 1.93663e-20 -8.29739e-08 2.38728e-21 7.34994e-12)
(1.02118e-07 2.85764e-07 -2.69751e-20 -1.02121e-07 -3.4717e-21 2.74414e-12)
(1.20391e-07 2.74151e-07 -3.21206e-21 -1.2041e-07 -2.46448e-22 1.9129e-11)
(1.37802e-07 2.60394e-07 6.67251e-20 -1.37782e-07 8.08798e-21 -1.99204e-11)
(1.53845e-07 2.44495e-07 -3.95468e-20 -1.53949e-07 -4.89706e-21 1.04343e-10)
(1.6941e-07 2.25397e-07 -1.35718e-20 -1.69175e-07 -1.28562e-21 -2.35149e-10)
(1.81532e-07 2.05011e-07 -4.19515e-20 -1.82142e-07 -4.19235e-21 6.09504e-10)
(1.96582e-07 1.77916e-07 8.68174e-21 -1.94399e-07 5.67755e-22 -2.18353e-09)
(7.10426e-08 2.66496e-07 3.63481e-20 -7.10706e-08 3.97647e-21 2.80429e-11)
(8.77321e-08 2.58269e-07 -1.84094e-20 -8.77535e-08 -1.96997e-21 2.14087e-11)
(1.0369e-07 2.48397e-07 9.90682e-21 -1.03722e-07 9.69406e-22 3.19969e-11)
(1.18945e-07 2.36738e-07 4.7438e-20 -1.18944e-07 5.51623e-21 -1.39268e-12)
(1.33082e-07 2.23285e-07 -1.53008e-19 -1.3319e-07 -1.71073e-20 1.08566e-10)
(1.46966e-07 2.07113e-07 1.0879e-19 -1.46762e-07 1.18202e-20 -2.03858e-10)
(1.57927e-07 1.89823e-07 4.35821e-20 -1.58494e-07 5.05401e-21 5.67318e-10)
(1.71878e-07 1.66859e-07 1.00787e-20 -1.69913e-07 8.69539e-22 -1.96571e-09)
(6.04814e-08 2.40564e-07 -4.09926e-20 -6.046e-08 -5.09691e-21 -2.14311e-11)
(7.50106e-08 2.33506e-07 3.26129e-21 -7.49971e-08 4.53645e-22 -1.35152e-11)
(8.89479e-08 2.25063e-07 -1.79832e-20 -8.89461e-08 -1.94406e-21 -1.75679e-12)
(1.02331e-07 2.15121e-07 4.14916e-20 -1.02295e-07 4.49096e-21 -3.6026e-11)
(1.14777e-07 2.03676e-07 2.77702e-20 -1.14849e-07 3.73334e-21 7.2043e-11)
(1.27149e-07 1.89905e-07 -1.81355e-20 -1.26934e-07 -2.03023e-21 -2.15316e-10)
(1.37042e-07 1.75154e-07 -1.99828e-20 -1.37522e-07 -2.49204e-21 4.79955e-10)
(1.49884e-07 1.55617e-07 -3.2681e-20 -1.48071e-07 -3.47497e-21 -1.81275e-09)
(5.13392e-08 2.18263e-07 -2.5642e-20 -5.13561e-08 -2.93186e-21 1.69491e-11)
(6.4014e-08 2.12236e-07 2.9551e-21 -6.40308e-08 4.5878e-22 1.67617e-11)
(7.62003e-08 2.05032e-07 6.23712e-20 -7.62226e-08 6.96674e-21 2.22907e-11)
(8.7966e-08 1.96552e-07 -3.33619e-22 -8.79426e-08 3.17151e-23 -2.33859e-11)
(9.89605e-08 1.86794e-07 -4.77447e-20 -9.90222e-08 -5.59565e-21 6.1665e-11)
(1.09969e-07 1.75025e-07 9.78847e-20 -1.09773e-07 1.11583e-20 -1.96205e-10)
(1.1891e-07 1.62369e-07 -1.85827e-20 -1.19318e-07 -2.26535e-21 4.0801e-10)
(1.30683e-07 1.45623e-07 6.12567e-20 -1.29038e-07 7.05858e-21 -1.64561e-09)
(4.48419e-08 2.00252e-07 -4.94784e-20 -4.49345e-08 -5.66604e-21 9.26799e-11)
(5.60563e-08 1.94973e-07 5.32391e-20 -5.6175e-08 6.20886e-21 1.18676e-10)
(6.68589e-08 1.88692e-07 -8.76462e-20 -6.70013e-08 -1.04816e-20 1.42385e-10)
(7.72889e-08 1.81329e-07 2.25596e-20 -7.74158e-08 2.63285e-21 1.26899e-10)
(8.70649e-08 1.72855e-07 2.84567e-20 -8.72899e-08 3.34527e-21 2.25012e-10)
(9.69222e-08 1.62597e-07 2.50581e-20 -9.69378e-08 2.18159e-21 1.55472e-11)
(1.0495e-07 1.51559e-07 -7.89226e-20 -1.05574e-07 -8.36428e-21 6.23739e-10)
(1.15907e-07 1.37172e-07 4.14097e-20 -1.14706e-07 4.0463e-21 -1.20115e-09)
(2.90586e-08 1.88565e-07 1.01175e-20 -2.8803e-08 1.25083e-21 -2.55647e-10)
(3.92873e-08 1.8476e-07 2.79662e-20 -3.91543e-08 3.52736e-21 -1.33076e-10)
(4.93153e-08 1.79927e-07 -1.10508e-20 -4.91923e-08 -1.25861e-21 -1.23051e-10)
(5.90074e-08 1.74251e-07 -1.72571e-20 -5.88609e-08 -1.84385e-21 -1.46473e-10)
(6.83594e-08 1.6769e-07 4.62841e-20 -6.81514e-08 5.22117e-21 -2.07938e-10)
(7.70986e-08 1.60195e-07 -2.82487e-20 -7.69444e-08 -3.2489e-21 -1.5427e-10)
(8.59529e-08 1.51167e-07 -9.34905e-20 -8.55648e-08 -1.06924e-20 -3.88159e-10)
(9.31566e-08 1.41404e-07 1.08635e-19 -9.32636e-08 1.25953e-20 1.06984e-10)
(1.03222e-07 1.28888e-07 -5.95544e-20 -1.01548e-07 -6.96204e-21 -1.67354e-09)
(2.53182e-08 1.74414e-07 2.84437e-21 -2.52943e-08 2.98676e-22 -2.39084e-11)
(3.44568e-08 1.70909e-07 -8.46959e-21 -3.46976e-08 -1.37803e-21 2.40773e-10)
(4.34959e-08 1.66438e-07 6.16746e-20 -4.38532e-08 7.19946e-21 3.57317e-10)
(5.23416e-08 1.61175e-07 -3.40363e-20 -5.27145e-08 -3.78682e-21 3.72881e-10)
(6.0871e-08 1.55121e-07 -2.39316e-20 -6.12207e-08 -3.02903e-21 3.49697e-10)
(6.88041e-08 1.48243e-07 -1.11704e-20 -6.92445e-08 -1.18318e-21 4.40402e-10)
(7.6783e-08 1.40063e-07 7.94028e-20 -7.70809e-08 9.30971e-21 2.9787e-10)
(8.32145e-08 1.31334e-07 -2.72369e-20 -8.40884e-08 -2.691e-21 8.73945e-10)
(9.22991e-08 1.20672e-07 -5.31353e-20 -9.17804e-08 -6.44307e-21 -5.18632e-10)
(2.07667e-08 1.59718e-07 -7.57963e-22 -1.98735e-08 -7.85726e-23 -8.93149e-10)
(2.85585e-08 1.56561e-07 -5.61205e-20 -2.7878e-08 -6.78309e-21 -6.80519e-10)
(3.63516e-08 1.52588e-07 -4.81689e-20 -3.57224e-08 -5.65352e-21 -6.29193e-10)
(4.41039e-08 1.47926e-07 1.71117e-20 -4.33915e-08 2.13483e-21 -7.12393e-10)
(5.16171e-08 1.4259e-07 -1.31331e-20 -5.08017e-08 -1.65806e-21 -8.1532e-10)
(5.86424e-08 1.36533e-07 3.22367e-20 -5.78502e-08 4.0748e-21 -7.92219e-10)
(6.58414e-08 1.29258e-07 -6.44775e-20 -6.48273e-08 -8.36814e-21 -1.01415e-09)
(7.18387e-08 1.21195e-07 2.0051e-19 -7.11042e-08 2.36028e-20 -7.34554e-10)
(8.01821e-08 1.11084e-07 -9.98923e-20 -7.7848e-08 -1.15156e-20 -2.33413e-09)
(1.88178e-08 1.47472e-07 -1.13502e-21 -1.96227e-08 -2.58032e-23 8.0486e-10)
(2.58955e-08 1.44547e-07 -5.22704e-20 -2.7166e-08 -6.07937e-21 1.27046e-09)
(3.30324e-08 1.40838e-07 1.10166e-19 -3.45483e-08 1.30267e-20 1.51589e-09)
(4.01869e-08 1.36442e-07 6.71206e-21 -4.17461e-08 8.14095e-22 1.55922e-09)
(4.70575e-08 1.314e-07 -6.3175e-20 -4.86193e-08 -7.05401e-21 1.56173e-09)
(5.33795e-08 1.25735e-07 7.35976e-20 -5.50635e-08 8.31138e-21 1.684e-09)
(5.95926e-08 1.19179e-07 -1.40689e-19 -6.13156e-08 -1.63989e-20 1.72292e-09)
(6.45387e-08 1.12401e-07 1.29208e-19 -6.70085e-08 1.43805e-20 2.46989e-09)