/*--------------------------------*- C++ -*----------------------------------*\
| =========                 |                                                 |
| \\      /  F ield         | OpenFOAM: The Open Source CFD Toolbox           |
|  \\    /   O peration     | Version:  2306                                  |
|   \\  /    A nd           | Website:  www.openfoam.com                      |
|    \\/     M anipulation  |                                                 |
\*---------------------------------------------------------------------------*/
FoamFile
{
    version     2.0;
    format      ascii;
    arch        "LSB;label=32;scalar=64";
    class       volScalarField;
    location    "1000";
    object      turbulenceProperties:L;
}
// * * * * * * * * * * * * * * * * * * * * * * * * * * * * * * * * * * * * * //

dimensions      [0 1 0 0 0 0 0];

internalField   nonuniform List<scalar> 
1340
(
0.0629528
0.0638516
0.0646814
0.0652121
0.182079
0.186331
0.187501
0.181468
0.216534
0.233685
0.249291
0.24544
0.222867
0.247514
0.272775
0.280543
0.224496
0.249912
0.280349
0.298106
0.250159
0.257436
0.283134
0.305231
0.222259
0.309863
0.294208
0.30893
0.0852608
0.187523
0.33584
0.316469
0
0.0915733
0.309189
0.333324
0
0
0.147347
0.353763
0
0
0.0499161
0.318605
0.240696
0
0.0364302
0.213609
0.0345274
4.18641
0.0225561
0.122849
0.0245015
3.15473
0.0443229
0.0620987
0.0253577
0.0354972
1.02712
0.0200063
0.0278265
0.0259069
1.94064
0.0580289
0.0296838
0.0252491
0.931127
1.20632
0.0300998
0.0268525
0.0445697
0.798923
0.0300206
0.0292447
0.0301689
0.123106
0.0301487
0.0310059
0.0293664
0.0440015
0.030589
0.0318412
0.0307855
0.0338979
0.0312266
0.0323207
0.0325169
0.0326502
0.0319534
0.0328633
0.0338882
0.0335205
0.0327224
0.0335734
0.0349247
0.034933
0.0335298
0.0344198
0.0358597
0.0363942
0.034391
0.03536
0.0368421
0.0378099
0.0353184
0.0363717
0.0379153
0.0392177
0.0363198
0.0374544
0.0390794
0.0406586
0.0374036
0.038616
0.0403322
0.0421572
0.0385732
0.0398621
0.0416704
0.0437195
0.0398337
0.0411991
0.0431012
0.0453517
0.041194
0.0426325
0.0446254
0.0470601
0.0426592
0.0441715
0.0462522
0.0488482
0.0429502
0.0442366
0.0458195
0.0479881
0.0507263
0.0446097
0.0459344
0.0475838
0.049836
0.0527009
0.0463988
0.0477591
0.049473
0.0518034
0.0547791
0.0483254
0.0497199
0.0514946
0.0538979
0.0569702
0.0503973
0.0518246
0.053656
0.0561266
0.0592826
0.0526244
0.0540819
0.0559653
0.0584959
0.0617249
0.0550153
0.0565011
0.0584327
0.0610152
0.0643064
0.0575793
0.0590909
0.061066
0.0636936
0.0670376
0.0603259
0.0618613
0.063875
0.0665397
0.0699287
0.0632653
0.0648221
0.0668698
0.0695645
0.0729901
0.0664071
0.0679828
0.0700609
0.0727771
0.0762348
0.0697622
0.0713541
0.0734579
0.0761894
0.0796731
0.0721077
0.0733402
0.0749473
0.0770725
0.0798133
0.0833175
0.0759099
0.0771519
0.0787717
0.0809154
0.08366
0.0871812
0.079957
0.0812087
0.0828395
0.0849981
0.0877412
0.0912767
0.0842599
0.0855208
0.0871614
0.0893327
0.0920707
0.0956175
0.0888292
0.0900999
0.0917492
0.0939303
0.0966607
0.100216
0.0936758
0.0949562
0.0966141
0.0988041
0.101525
0.105087
0.0988115
0.100102
0.101768
0.103965
0.106675
0.110244
0.104247
0.105548
0.107222
0.109427
0.112125
0.1157
0.109993
0.111306
0.112989
0.115201
0.11789
0.121468
0.115034
0.116061
0.117388
0.119081
0.1213
0.123981
0.127563
0.121419
0.122464
0.123806
0.12551
0.127738
0.130413
0.133999
0.128146
0.129211
0.13057
0.132288
0.134527
0.137199
0.140789
0.135225
0.136312
0.137692
0.139426
0.141678
0.144352
0.147946
0.142664
0.143777
0.14518
0.146934
0.149203
0.151885
0.155484
0.15048
0.15162
0.153049
0.154826
0.157115
0.159809
0.163414
0.158704
0.159871
0.161325
0.163124
0.165434
0.168144
0.171751
0.166429
0.167389
0.16858
0.170055
0.171872
0.174199
0.176923
0.180524
0.175593
0.176581
0.177797
0.179293
0.181126
0.183465
0.186201
0.189781
0.185271
0.186297
0.187548
0.189074
0.190931
0.193286
0.196036
0.199592
0.19542
0.196505
0.19781
0.199384
0.201281
0.203668
0.206444
0.209975
0.20607
0.207238
0.208625
0.210277
0.212247
0.214704
0.217547
0.221097
0.216747
0.217984
0.219444
0.22117
0.223215
0.225764
0.228701
0.232329
0.226564
0.227861
0.229378
0.231157
0.233261
0.235892
0.238917
0.242437
0.234994
0.236169
0.237637
0.239308
0.241215
0.243442
0.246189
0.249392
0.252952
0.244496
0.245801
0.247436
0.249291
0.251388
0.253814
0.256754
0.260096
0.263454
0.255804
0.257344
0.259223
0.261334
0.263695
0.266405
0.269696
0.273628
0.277945
0.266167
0.267746
0.269698
0.271935
0.27447
0.277365
0.280757
0.284369
0.287236
0.283074
0.285199
0.287661
0.290374
0.293359
0.296791
0.301085
0.306751
0.313507
0.289198
0.291074
0.293393
0.29609
0.299121
0.302432
0.305861
0.308499
0.308674
0.321555
0.324532
0.327879
0.331601
0.335802
0.340923
0.348171
0.358868
0.373199
0.300159
0.301625
0.303548
0.305958
0.308626
0.311161
0.312347
0.310243
0.305084
0.340155
0.340419
0.341649
0.343891
0.347076
0.351547
0.35795
0.361799
0.36918
0.258797
0.261814
0.261754
0.261729
0.261883
0.262073
0.26187
0.259422
0.25373
0.250962
0.249875
0.250626
0.249886
0.248987
0.248228
0.247553
0.246607
0.243534
0.238612
0.238877
0.192089
0.20899
0.207517
0.206286
0.205571
0.204754
0.203672
0.201586
0.199813
0.216073
0.161927
0.297274
0.530069
0.36524
0.343843
0.338606
0.334536
0.331621
0.333724
0.343841
0.347489
0.27326
0.147051
0.067403
0.0207262
0.0983257
0
3.01765
0.305394
0.0540788
0.0375228
0.03532
0.0361216
0.0376907
0.0393438
0.0409212
0.0424671
0.0440346
0.0456567
0.0473399
0.0490866
0.0508996
0.0527803
0.054738
0.0567801
0.0589119
0.0611443
0.0634858
0.0659455
0.0685341
0.0712634
0.0741449
0.0771871
0.0804078
0.0838158
0.0874242
0.0912479
0.0952997
0.0995937
0.104144
0.108963
0.114068
0.119471
0.125187
0.13123
0.137614
0.144355
0.151464
0.158957
0.166845
0.175142
0.183874
0.193083
0.202844
0.213167
0.224257
0.235536
0.245505
0.256312
0.266126
0.282327
0.288544
0.3218
0.305678
0.396044
0.297705
0.390316
0.251091
0.247823
0.223099
0.235672
0.292941
0.472078
0.695198
0.480264
0.427421
0.406778
0.39567
0.39266
0.405685
0.453014
0.50749
0.274629
0.113127
0.0295201
0.0842304
0
6.7217
0.681054
0.076341
0.0479969
0.0437909
0.0440379
0.0454031
0.0469114
0.0483355
0.0497203
0.0511327
0.052607
0.0541483
0.0557564
0.0574324
0.0591766
0.060998
0.0629037
0.0648981
0.0669929
0.0691949
0.071514
0.0739607
0.076547
0.0792843
0.0821811
0.0852567
0.0885195
0.0919826
0.0956625
0.0995725
0.103727
0.10814
0.112827
0.117803
0.123083
0.128682
0.134615
0.140897
0.147543
0.154568
0.161986
0.169812
0.178058
0.186753
0.195933
0.205677
0.215991
0.227076
0.238429
0.248503
0.259621
0.269232
0.28613
0.291553
0.326841
0.308329
0.404554
0.300503
0.397402
0.254274
0.251495
0.297553
0.334688
0.421697
0.683735
0.837908
0.559442
0.485147
0.453984
0.438723
0.436991
0.457558
0.531176
0.4216
0.122307
5.94563
6.5937
0
5.75054
5.70657
0.125812
0.0647407
0.0560592
0.055304
0.0563316
0.0575572
0.0586307
0.0596074
0.0605906
0.0616426
0.0627815
0.0640141
0.0653432
0.0667691
0.0683011
0.0699455
0.0717061
0.0735925
0.0756083
0.0777634
0.0800651
0.0825238
0.0851479
0.0879447
0.0909324
0.0941165
0.0975092
0.101126
0.104979
0.109081
0.113446
0.118088
0.123022
0.128262
0.133822
0.139718
0.145963
0.152572
0.159559
0.16694
0.174728
0.182936
0.19159
0.200726
0.210422
0.220691
0.23172
0.243078
0.253116
0.264438
0.273694
0.291109
0.295772
0.33227
0.312307
0.40945
0.304297
0.398523
0.257026
0.341882
0.373521
0.427437
0.542106
0.912898
0.95512
0.630925
0.539428
0.499472
0.480522
0.47853
0.496507
0.52803
0.138162
0.0609867
0
0
0
1.82665
0.191446
0.0781763
0.0629055
0.0610385
0.0622058
0.0638691
0.065293
0.066478
0.0675784
0.0686881
0.0698405
0.071053
0.0723363
0.0736981
0.0751537
0.0767152
0.0783923
0.0801959
0.0821327
0.0842144
0.0864489
0.0888466
0.0914154
0.0941645
0.097109
0.100255
0.103614
0.107201
0.111026
0.115103
0.119445
0.124063
0.128975
0.13419
0.139725
0.145595
0.15181
0.158388
0.16534
0.172682
0.180428
0.188589
0.197192
0.206267
0.215895
0.226096
0.237045
0.248379
0.258271
0.269708
0.278543
0.296455
0.300304
0.337919
0.316441
0.414022
0.307884
0.400212
0.37394
0.403635
0.443676
0.510099
0.647579
1.104
1.08226
0.707951
0.598263
0.549551
0.527075
0.523806
0.536151
0.519984
0.229292
0.102262
0
0
0
0.953391
0.11566
0.0712153
0.0668867
0.0677625
0.0694723
0.0711095
0.072498
0.0737507
0.0749998
0.0762937
0.0776407
0.0790422
0.0805032
0.0820347
0.0836492
0.085359
0.0871755
0.0891081
0.091171
0.093375
0.0957312
0.098251
0.100946
0.10383
0.106912
0.110207
0.113727
0.117483
0.121491
0.125764
0.130313
0.135155
0.140302
0.145769
0.151568
0.157715
0.164223
0.171105
0.178376
0.186052
0.194142
0.202672
0.21167
0.221215
0.231336
0.24219
0.253498
0.263247
0.274805
0.283246
0.301681
0.30472
0.343578
0.320341
0.419209
0.310866
0.39897
0.426704
0.460007
0.50608
0.581375
0.734178
1.23464
1.24483
0.790982
0.659388
0.600902
0.573772
0.566515
0.566156
0.540868
0.316105
0.150697
0
0
0
0.85768
0.112044
0.0775371
0.0769906
0.0793603
0.0810175
0.0822257
0.0832994
0.0843318
0.0854084
0.086569
0.0878128
0.0891364
0.0905446
0.0920476
0.0936552
0.0953741
0.0972114
0.0991796
0.101288
0.103546
0.105967
0.108561
0.111341
0.11432
0.11751
0.120925
0.124576
0.128481
0.132651
0.137098
0.14184
0.146888
0.152258
0.157962
0.164015
0.17043
0.177221
0.184403
0.191989
0.199993
0.208437
0.217346
0.226795
0.236825
0.24757
0.258851
0.26847
0.280175
0.28822
0.307206
0.309374
0.349608
0.324368
0.420124
0.446111
0.474901
0.51061
0.560457
0.640903
0.800117
1.29442
1.47805
0.884933
0.724421
0.653981
0.620327
0.606031
0.594074
0.564627
0.170466
0.107694
0
0
0
0.843107
0.11506
0.0853811
0.087221
0.0913531
0.0931581
0.0941263
0.0951255
0.0961294
0.0971349
0.0981963
0.0993311
0.100542
0.101846
0.103259
0.104792
0.106453
0.108255
0.110206
0.112316
0.114597
0.117058
0.119711
0.122569
0.125642
0.128943
0.132484
0.136282
0.140347
0.144692
0.149334
0.154283
0.159556
0.165163
0.171121
0.177441
0.184137
0.191223
0.198714
0.206622
0.214969
0.223778
0.233116
0.243041
0.253656
0.2649
0.274361
0.286221
0.293808
0.313382
0.314541
0.438359
0.464081
0.489435
0.518586
0.55558
0.607291
0.68941
0.846876
1.29526
1.85717
0.997177
0.796131
0.710189
0.667811
0.645427
0.626632
0.574079
0.216154
0.181668
0
0
0
0.989158
0.136969
0.0938619
0.0961422
0.102092
0.104279
0.105022
0.106055
0.107235
0.10837
0.109502
0.110684
0.111933
0.113269
0.114708
0.116264
0.117953
0.119788
0.121782
0.123947
0.126295
0.128837
0.131587
0.134555
0.137755
0.141197
0.144898
0.148868
0.15312
0.157669
0.162525
0.167707
0.173222
0.179086
0.185311
0.19191
0.198897
0.206287
0.214091
0.22233
0.231025
0.240236
0.250036
0.260497
0.271687
0.280949
0.292963
0.506777
0.483755
0.504263
0.528883
0.558139
0.595585
0.647663
0.728868
0.878898
1.2665
2.57908
1.13707
0.876612
0.77013
0.716761
0.68651
0.660146
0.599597
0.338909
0.355537
0
0
0
1.47033
0.202328
0.105665
0.105414
0.113266
0.11644
0.116782
0.117519
0.118719
0.119939
0.121125
0.122351
0.123657
0.125058
0.126565
0.128195
0.129963
0.131883
0.13397
0.136235
0.138692
0.141354
0.144234
0.147345
0.150698
0.154309
0.15819
0.162352
0.166812
0.171578
0.176667
0.182089
0.187857
0.193983
0.200479
0.207358
0.214637
0.222326
0.230444
0.239012
0.248076
0.257734
0.268011
0.135066
0.428416
0.526332
0.54005
0.564531
0.593881
0.631304
0.682796
0.761344
0.900922
1.22953
3.27531
1.32157
0.968843
0.834698
0.767906
0.728872
0.694747
0.631814
0.443261
0.572509
0
0
0
3.36834
0.491993
0.123173
0.114462
0.123331
0.12906
0.129881
0.130343
0.131426
0.132647
0.133834
0.135057
0.136371
0.137793
0.139337
0.141018
0.142852
0.144852
0.147031
0.149401
0.151977
0.154771
0.157795
0.161061
0.164585
0.168378
0.172451
0.176822
0.181496
0.186492
0.191818
0.197485
0.203507
0.209893
0.216656
0.223813
0.231373
0.239356
0
0.266756
0.505347
0.578165
0.573772
0.5968
0.626111
0.66329
0.71363
0.78861
0.91678
1.19462
2.44543
1.58625
1.07797
0.905651
0.822076
0.772809
0.731336
0.667971
0.528378
0.782761
0.400258
0
0
1.21606
0.00706815
0.165685
0.128506
0.134409
0.141683
0.143518
0.143985
0.144996
0.146236
0.147452
0.148698
0.150036
0.15149
0.153076
0.154813
0.156716
0.158801
0.161078
0.163564
0.16627
0.169208
0.172389
0.175828
0.179538
0.183527
0.187811
0.192397
0.197302
0.202533
0.2081
0.214014
0
0
0
0.355682
0.710144
0.607988
0.626594
0.655375
0.692057
0.740986
0.812079
0.929216
1.16553
1.95691
2.01863
1.21147
0.985135
0.880101
0.818957
0.770129
0.706548
0.601276
0.362099
0.261011
0
0
2.15874e-07
1.46136
0.209508
0.144224
0.146865
0.154968
0.157764
0.158309
0.159272
0.160552
0.161828
0.163125
0.164522
0.166045
0.167712
0.169541
0.171548
0.173749
0.176158
0.178788
0.181652
0.18476
0.188127
0.191764
1.49381
0.000508207
0
0
0.239154
0.99082
0.650119
0.655113
0.682408
0.718353
0.765728
0.833006
0.94
1.14281
1.70067
2.93345
1.38159
1.07574
0.94298
0.867861
0.811147
0.74806
0.660212
0.584663
0.401773
0
0
0
1.9524
0.275041
0.161347
0.159883
0.169016
0.172965
0.173561
0.174443
0.175793
0.177162
)
;

boundaryField
{
    inlet
    {
        type            calculated;
        value           nonuniform List<scalar> 
11
(
0.091316
0.0937932
0.0926877
0.0916962
0.0908435
0.0901053
0.0894296
0.088765
0.0879969
0.0897589
0.0874484
)
;
    }
    outlet
    {
        type            calculated;
        value           nonuniform List<scalar> 0();
    }
    walls
    {
        type            calculated;
        value           uniform 0;
    }
    frontAndBack
    {
        type            empty;
    }
    procBoundary6to2
    {
        type            processor;
        value           nonuniform List<scalar> 
13
(
0.14307
0.218335
0.277313
0.319306
0.350688
0.376234
0.393883
0.445706
0.18159
0
0
1.64339
0.23072
)
;
    }
    procBoundary6to3
    {
        type            processor;
        value           uniform 0.199043;
    }
    procBoundary6to5
    {
        type            processor;
        value           nonuniform List<scalar> 
86
(
0.0625867
0.175308
0.197625
0.19851
0.202628
0.312468
0.0417211
0.0253962
0
0
0.205612
0.0295799
0.0246892
0.0263476
0.0278149
0.0279685
0.0279387
0.0282301
0.0287583
0.0293569
0.029953
0.0305517
0.0311823
0.0318672
0.0326156
0.0334314
0.0343181
0.0352793
0.0363201
0.0374474
0.0386673
0.0399863
0.0414115
0.0414115
0.0418746
0.0435192
0.045293
0.0472044
0.0492621
0.0514749
0.0538521
0.056403
0.0591373
0.0620649
0.0651956
0.0685398
0.0685398
0.0711708
0.0749672
0.0790076
0.0833028
0.0878635
0.0927008
0.0978254
0.103248
0.108981
0.108981
0.114248
0.120614
0.12732
0.134375
0.141786
0.149573
0.15777
0.15777
0.165668
0.174802
0.184438
0.194529
0.2051
0.215734
0.225531
0.225531
0.233984
0.243358
0.25442
0.264703
0.281106
0.287159
0.319262
0.297256
0.342814
0.342814
0.269308
0.250444
0.220388
)
;
    }
    procBoundary6to7
    {
        type            processor;
        value           nonuniform List<scalar> 
91
(
0.222829
0.222829
0.255623
0.255623
0.259563
0.259563
0.401815
0.425065
0.401815
0.313719
0.356302
0.425065
0.328734
0.300019
0.320219
0.356302
0.32022
0.279127
0.288149
0.300019
0.300322
0.24778
0.256676
0.26617
0.279127
0.27623
0.220285
0.226924
0.233947
0.241366
0.24778
0.249196
0.19568
0.199887
0.204395
0.209215
0.214356
0.219825
0.220285
0.225631
0.17853
0.179999
0.18161
0.183381
0.185329
0.187472
0.189824
0.192398
0.195206
0.19826
0.201572
0.19568
0.205153
2.4819
6.97807
0
0
0.0909898
0.185501
0.70634
0.680116
0.706024
0.74182
0.78806
0.851946
0.950053
1.12592
1.54693
4.834
1.61123
1.18103
1.01174
0.919864
0.854717
0.791154
0.71608
0.416299
0.342699
0
0
0
2.87312
0.405576
0.181837
0.173626
0.18412
0.189863
0.190406
0.190928
0.17853
0.192231
)
;
    }
}


// ************************************************************************* //
