# p  FACE_DATA 600
# x y z  p
0.29893883 -0.05 0.060006728 11657.902
0.29682219 -0.05 0.060005155 11666.032
0.29471691 -0.05 0.060001576 11676.133
0.29262294 -0.05 0.05999591 11686.064
0.29054021 -0.05 0.059988277 11695.426
0.28846868 -0.05 0.059978645 11706.089
0.28640827 -0.05 0.059967018 11715.592
0.28435895 -0.05 0.059953476 11725.904
0.28232063 -0.05 0.05993795 11736.375
0.28029328 -0.05 0.059920485 11746.659
0.27827682 -0.05 0.059901123 11756.999
0.27627121 -0.05 0.059879855 11767.668
0.27427639 -0.05 0.05985667 11778.482
0.2722923 -0.05 0.059831621 11788.985
0.27031889 -0.05 0.059804697 11800.155
0.26835611 -0.05 0.05977592 11810.644
0.26640388 -0.05 0.059745343 11821.528
0.26446217 -0.05 0.059712935 11832.612
0.26253092 -0.05 0.059678711 11843.794
0.26061007 -0.05 0.059642689 11855.157
0.25869957 -0.05 0.059604861 11866.672
0.25679937 -0.05 0.059565286 11877.743
0.25490941 -0.05 0.05952394 11889.757
0.25302965 -0.05 0.059480841 11900.861
0.25116001 -0.05 0.059436049 11912.485
0.24930047 -0.05 0.059389522 11924.247
0.24745095 -0.05 0.059341283 11936.119
0.24561142 -0.05 0.059291325 11948.425
0.24378182 -0.05 0.05923967 11960.367
0.24196209 -0.05 0.059186367 11972.333
0.24015219 -0.05 0.059131421 11984.367
0.23835206 -0.05 0.059074821 11996.642
0.23656166 -0.05 0.059016618 12008.468
0.23478094 -0.05 0.058956769 12021.714
0.23300984 -0.05 0.05889526 12033.944
0.23124831 -0.05 0.05883224 12045.798
0.22949632 -0.05 0.058767617 12059.356
0.22775381 -0.05 0.058701363 12072.011
0.22602071 -0.05 0.058633589 12084.62
0.22429701 -0.05 0.058564274 12097.386
0.22258262 -0.05 0.058493448 12109.952
0.22087753 -0.05 0.058421069 12123.815
0.21918166 -0.05 0.058347132 12136.782
0.21749499 -0.05 0.058271731 12149.733
0.21581745 -0.05 0.058194856 12162.789
0.21414901 -0.05 0.058116493 12176.18
0.21248962 -0.05 0.05803665 12189.614
0.21083923 -0.05 0.057955337 12203.265
0.20919779 -0.05 0.057872577 12216.714
0.20756526 -0.05 0.057788393 12230.386
0.20594158 -0.05 0.057702763 12244.411
0.20432673 -0.05 0.057615706 12258.064
0.20272065 -0.05 0.057527277 12271.51
0.20112329 -0.05 0.057437457 12285.56
0.19953461 -0.05 0.05734625 12299.579
0.19795458 -0.05 0.057253621 12314.507
0.19638314 -0.05 0.057159665 12327.533
0.19482023 -0.05 0.05706438 12342.521
0.19326584 -0.05 0.056967732 12356.258
0.19171991 -0.05 0.056869749 12371.175
0.19018239 -0.05 0.056770463 12384.822
0.18865324 -0.05 0.056669846 12400.504
0.18713243 -0.05 0.056567899 12414.55
0.18561991 -0.05 0.056464666 12429.999
0.18411563 -0.05 0.056360132 12444.403
0.18261956 -0.05 0.056254318 12459.743
0.18113166 -0.05 0.056147258 12473.607
0.17965186 -0.05 0.056038987 12488.812
0.17818015 -0.05 0.05592942 12504.382
0.17671648 -0.05 0.055818588 12519.645
0.1752608 -0.05 0.05570656 12534.386
0.17381309 -0.05 0.055593325 12549.904
0.17237329 -0.05 0.055478844 12565.399
0.17094135 -0.05 0.055363199 12580.338
0.16951726 -0.05 0.055246341 12596.975
0.16810097 -0.05 0.055128259 12612.384
0.16669242 -0.05 0.05500905 12627.909
0.16529159 -0.05 0.054888659 12644.246
0.16389844 -0.05 0.054767078 12660.175
0.16251292 -0.05 0.054644372 12675.797
0.161135 -0.05 0.054520532 12691.887
0.15976465 -0.05 0.054395554 12707.815
0.15840181 -0.05 0.054269449 12724.384
0.15704647 -0.05 0.054142171 12741.379
0.15569857 -0.05 0.05401378 12757.22
0.15435807 -0.05 0.053884336 12773.291
0.15302494 -0.05 0.053753791 12789.847
0.15169915 -0.05 0.053622161 12806.392
0.15038066 -0.05 0.053489407 12824.134
0.14906942 -0.05 0.053355551 12840.531
0.1477654 -0.05 0.053220679 12857.201
0.14646858 -0.05 0.053084715 12874.865
0.1451789 -0.05 0.052947683 12891.46
0.14389634 -0.05 0.052809659 12908.307
0.14262085 -0.05 0.05267058 12926.218
0.14135242 -0.05 0.052530426 12944.053
0.14009099 -0.05 0.052389231 12961.775
0.13883652 -0.05 0.052247036 12978.935
0.137589 -0.05 0.052103837 12996.739
0.13634838 -0.05 0.051959625 13013.868
0.13511461 -0.05 0.051814476 13031.244
0.1338877 -0.05 0.051668228 13051.436
0.13266759 -0.05 0.051520967 13067.421
0.13145422 -0.05 0.051372868 13084.973
0.13024759 -0.05 0.051223701 13104.925
0.12904768 -0.05 0.051073499 13123.024
0.12785442 -0.05 0.050922382 13141.272
0.12666779 -0.05 0.050770303 13159.97
0.12548777 -0.05 0.050617245 13178.956
0.12431431 -0.05 0.050463216 13197.377
0.12314738 -0.05 0.050308326 13214.696
0.12198694 -0.05 0.050152493 13235.218
0.12083299 -0.05 0.049995623 13255.047
0.11968547 -0.05 0.049837846 13273.919
0.11854435 -0.05 0.049679176 13293.211
0.11740961 -0.05 0.049519574 13312.85
0.11628122 -0.05 0.049359037 13332.658
0.11515913 -0.05 0.049197589 13352.202
0.11404333 -0.05 0.049035234 13371.898
0.11293377 -0.05 0.048871989 13391.204
0.11183042 -0.05 0.048707847 13411.084
0.11073327 -0.05 0.048542821 13430.816
0.10964229 -0.05 0.048376866 13452.302
0.10855744 -0.05 0.048209982 13472.66
0.10747868 -0.05 0.048042235 13493.37
0.106406 -0.05 0.04787359 13514.339
0.10533935 -0.05 0.047704062 13535.141
0.10427873 -0.05 0.047533647 13556.162
0.10322407 -0.05 0.047362394 13575.82
0.10217537 -0.05 0.04719032 13596.814
0.10113259 -0.05 0.047017348 13618.989
0.10009572 -0.05 0.046843455 13641.748
0.099064719 -0.05 0.046668685 13663.246
0.098039551 -0.05 0.046493118 13683.895
0.097020189 -0.05 0.046316733 13705.76
0.096006622 -0.05 0.046139442 13729.078
0.094998822 -0.05 0.045961241 13751.963
0.09399675 -0.05 0.045782217 13773.831
0.093000378 -0.05 0.045602371 13796.432
0.092009685 -0.05 0.045421665 13819.091
0.091024643 -0.05 0.045240119 13841.968
0.090045231 -0.05 0.045057701 13865.848
0.089071419 -0.05 0.044874428 13888.659
0.088103174 -0.05 0.044690349 13911.691
0.087140475 -0.05 0.044505439 13935.275
0.086183303 -0.05 0.044319663 13959.644
0.08523163 -0.05 0.044133032 13983.501
0.084285425 -0.05 0.043945577 14007.428
0.083344663 -0.05 0.043757308 14031.606
0.082409326 -0.05 0.043568191 14057.309
0.081479394 -0.05 0.04337819 14082.92
0.080554831 -0.05 0.043187382 14107.197
0.079635605 -0.05 0.042995792 14132.594
0.078721718 -0.05 0.042803304 14159.689
0.077813136 -0.05 0.042609969 14184.891
0.076909826 -0.05 0.042415818 14211.641
0.07601178 -0.05 0.042220793 14238.021
0.075118966 -0.05 0.042024933 14264.338
0.074231361 -0.05 0.041828237 14290.493
0.073348934 -0.05 0.04163074 14316.563
0.072471679 -0.05 0.041432371 14344.693
0.071599572 -0.05 0.041233139 14371.35
0.070732583 -0.05 0.041033074 14399.455
0.069870697 -0.05 0.040832148 14426.799
0.069013884 -0.05 0.040630397 14454.767
0.068162134 -0.05 0.040427777 14483.343
0.067315419 -0.05 0.040224307 14511.752
0.06647372 -0.05 0.040019973 14541.878
0.065637027 -0.05 0.039814748 14572.181
0.06480531 -0.05 0.039608654 14602.734
0.063978543 -0.05 0.039401719 14632.543
0.063156705 -0.05 0.039193946 14663.226
0.062339788 -0.05 0.038985286 14694.593
0.061527775 -0.05 0.038775725 14726.646
0.060720649 -0.05 0.038565255 14759.072
0.059918385 -0.05 0.038353894 14791.348
0.059120963 -0.05 0.03814165 14823.999
0.058328367 -0.05 0.037928504 14856.802
0.057540575 -0.05 0.037714473 14888.954
0.056757564 -0.05 0.037499567 14921.601
0.055979327 -0.05 0.037283751 14955.685
0.055205861 -0.05 0.03706696 14991.443
0.054437144 -0.05 0.036849222 15026.218
0.053673142 -0.05 0.036630582 15061.215
0.052913841 -0.05 0.036411033 15096.08
0.052159229 -0.05 0.036190552 15132.247
0.051409301 -0.05 0.035969101 15169.252
0.050664044 -0.05 0.035746666 15206.885
0.049923426 -0.05 0.035523297 15244.359
0.049187444 -0.05 0.035298949 15284.739
0.048456093 -0.05 0.035073588 15324.327
0.047729344 -0.05 0.034847258 15364.329
0.047007184 -0.05 0.034619944 15404.516
0.046289611 -0.05 0.034391604 15445.931
0.045576607 -0.05 0.034162252 15486.691
0.044868158 -0.05 0.033931882 15529.058
0.044164259 -0.05 0.033700465 15571.112
0.043464894 -0.05 0.033468005 15614.01
0.042770054 -0.05 0.033234487 15657.673
0.042079734 -0.05 0.032999885 15703.403
0.041393929 -0.05 0.032764174 15749.728
0.040712625 -0.05 0.032527361 15796.418
0.040035798 -0.05 0.032289471 15842.737
0.039363443 -0.05 0.032050489 15890.741
0.038695563 -0.05 0.031810365 15940.145
0.038032168 -0.05 0.031569045 15990.958
0.037373226 -0.05 0.031326581 16040.503
0.036718733 -0.05 0.03108296 16092.257
0.036068678 -0.05 0.030838173 16143.593
0.035423063 -0.05 0.030592193 16199.176
0.034781926 -0.05 0.030344893 16254.95
0.034145213 -0.05 0.030096392 16308.91
0.033512917 -0.05 0.029846677 16365.521
0.032885063 -0.05 0.029595666 16423.492
0.032261651 -0.05 0.029343341 16483.875
0.031642677 -0.05 0.029089693 16544.166
0.031028119 -0.05 0.028834753 16604.785
0.030417982 -0.05 0.028578493 16667.134
0.029812303 -0.05 0.028320809 16731.938
0.029211079 -0.05 0.0280617 16795.772
0.028614285 -0.05 0.027801211 16860.58
0.028021925 -0.05 0.027539318 16926.897
0.027434034 -0.05 0.027275938 16996.563
0.026850619 -0.05 0.027011044 17065.905
0.026271654 -0.05 0.026744689 17136.941
0.025697179 -0.05 0.02647678 17211.525
0.025127212 -0.05 0.026207275 17286.266
0.024561729 -0.05 0.025936225 17361.796
0.024000753 -0.05 0.025663583 17440.423
0.023444336 -0.05 0.025389243 17521.182
0.022892447 -0.05 0.025113275 17601.597
0.022345135 -0.05 0.024835581 17688.027
0.02180243 -0.05 0.024556113 17771.681
0.021264293 -0.05 0.024274957 17857.998
0.0207308 -0.05 0.023991978 17947.651
0.020201992 -0.05 0.023707108 18038.806
0.019677842 -0.05 0.023420417 18129.522
0.019158403 -0.05 0.023131824 18224.786
0.018643727 -0.05 0.022841258 18319.951
0.018133826 -0.05 0.022548716 18418.316
0.017628739 -0.05 0.022254151 18517.286
0.017128471 -0.05 0.021957583 18619.879
0.016633127 -0.05 0.021658866 18729.008
0.016142724 -0.05 0.021358 18839.289
0.015657283 -0.05 0.021054987 18958.165
0.015176888 -0.05 0.020749728 19083.218
0.014701579 -0.05 0.020442196 19215.817
0.014231398 -0.05 0.020132367 19354.435
0.013766434 -0.05 0.019820157 19500.805
0.013306742 -0.05 0.019505528 19649.66
0.012852374 -0.05 0.019188457 19804.144
0.012403439 -0.05 0.018868841 19961.165
0.01195997 -0.05 0.018546687 20120.746
0.011522076 -0.05 0.018221915 20285.053
0.011089809 -0.05 0.017894514 20452.014
0.0106633 -0.05 0.017564386 20627.703
0.010242659 -0.05 0.01723145 20804.657
0.009827894 -0.05 0.016895788 20987.789
0.0094192167 -0.05 0.016557218 21180.908
0.0090167438 -0.05 0.016215673 21376.51
0.0086204858 -0.05 0.015871238 21578.264
0.0082306648 -0.05 0.015523765 21791.741
0.0078474301 -0.05 0.015173187 22009.648
0.00747084 -0.05 0.014819531 22234.126
0.0071010571 -0.05 0.014462741 22467.027
0.0067383047 -0.05 0.014102727 22711.168
0.0063827544 -0.05 0.013739427 22961.182
0.0060345067 -0.05 0.013372862 23215.104
0.0056937565 -0.05 0.013003011 23474.028
0.0053606882 -0.05 0.012629837 23739.363
0.0050354824 -0.05 0.012253323 24016.705
0.0047183926 -0.05 0.01187344 24306.076
0.0044096379 -0.05 0.011490161 24605.037
0.0041094132 -0.05 0.011103483 24913.376
0.0038179536 -0.05 0.010713443 25230.655
0.0035354728 -0.05 0.01032007 25556.591
0.0032621919 -0.05 0.0099233916 25891.862
0.0029983702 -0.05 0.0095234712 26235.67
0.0027442429 -0.05 0.0091203468 26586.858
0.0025000604 -0.05 0.0087141009 26944.916
0.0022660754 -0.05 0.0083048554 27309.84
0.0020425146 -0.05 0.0078926699 27681.685
0.0018296563 -0.05 0.0074776735 28059.555
0.0016277487 -0.05 0.0070600557 28441.121
0.0014369745 -0.05 0.006639968 28825.248
0.0012575291 -0.05 0.0062175973 29211.38
0.0010896146 -0.05 0.0057931737 29600.016
0.00093341056 -0.05 0.0053669215 29987.678
0.00078906403 -0.05 0.0049390744 30372.492
0.00065670868 -0.05 0.0045099018 30753.332
0.00053653171 -0.05 0.0040796665 31130.042
0.00042862038 -0.05 0.003648665 31497.848
0.00033294635 -0.05 0.003217232 31855.615
0.00024951873 -0.05 0.002785685 32203.269
0.00017832254 -0.05 0.0023543467 32539.126
0.00011930806 -0.05 0.0019235435 32860.84
7.2389968e-05 -0.05 0.0014936046 33167.062
3.7448892e-05 -0.05 0.0010648563 33457.21
1.4332163e-05 -0.05 0.0006376208 33731.073
2.8544133e-06 -0.05 0.00021221054 33985.492
0.99884037 -0.05 0.00016828408 26504.233
0.99652103 -0.05 0.00050440213 26498.578
0.99420154 -0.05 0.0008395204 26466.983
0.99188191 -0.05 0.0011736208 26442.464
0.98956214 -0.05 0.0015067636 26414.967
0.98724223 -0.05 0.001838948 26388.589
0.9849222 -0.05 0.0021701636 26361.857
0.98260202 -0.05 0.0025004302 26335.32
0.98028169 -0.05 0.0028297328 26308.799
0.97796124 -0.05 0.0031580577 26282.321
0.97564065 -0.05 0.0034854377 26255.873
0.97331994 -0.05 0.0038118591 26229.452
0.97099908 -0.05 0.0041373159 26203.054
0.96867809 -0.05 0.0044618578 26176.641
0.96635696 -0.05 0.0047854478 26150.29
0.96403572 -0.05 0.0051081172 26123.868
0.96171435 -0.05 0.0054299032 26097.499
0.95939284 -0.05 0.0057507069 26071.153
0.95707121 -0.05 0.0060705875 26044.774
0.95474946 -0.05 0.0063895914 26018.414
0.95242757 -0.05 0.0067076389 25992.113
0.95010556 -0.05 0.0070248024 25965.723
0.94778344 -0.05 0.0073411105 25939.405
0.94546118 -0.05 0.0076564368 25913.142
0.94313881 -0.05 0.007970866 25886.829
0.94081631 -0.05 0.0082844406 25860.566
0.93849369 -0.05 0.0085971026 25834.339
0.93617096 -0.05 0.0089088655 25808.135
0.9338481 -0.05 0.0092197817 25781.914
0.93152513 -0.05 0.0095298292 25755.77
0.92920205 -0.05 0.00983897 25729.649
0.92687884 -0.05 0.010147248 25703.559
0.92455553 -0.05 0.01045465 25677.524
0.92223209 -0.05 0.010761189 25651.492
0.91990855 -0.05 0.011066875 25625.542
0.91758488 -0.05 0.011371653 25599.678
0.91526111 -0.05 0.011675608 25573.746
0.91293723 -0.05 0.011978761 25547.921
0.91061324 -0.05 0.012281 25522.205
0.90828913 -0.05 0.012582372 25496.478
0.90596492 -0.05 0.012882964 25470.761
0.90364059 -0.05 0.013182677 25445.253
0.90131615 -0.05 0.013481494 25419.726
0.89899162 -0.05 0.013779572 25394.14
0.89666698 -0.05 0.014076842 25368.748
0.89434222 -0.05 0.014373142 25343.515
0.89201737 -0.05 0.014668681 25318.07
0.88969241 -0.05 0.014963453 25292.909
0.88736734 -0.05 0.0152573 25267.793
0.88504217 -0.05 0.015550344 25242.68
0.8827169 -0.05 0.015842646 25217.575
0.88039152 -0.05 0.016134071 25192.743
0.87806604 -0.05 0.016424635 25167.826
0.87574046 -0.05 0.016714466 25142.992
0.87341478 -0.05 0.017003468 25118.283
0.871089 -0.05 0.017291665 25093.575
0.86876312 -0.05 0.017579058 25069.013
0.86643714 -0.05 0.017865646 25044.44
0.86411107 -0.05 0.018151445 25020.014
0.86178489 -0.05 0.018436407 24995.655
0.85945862 -0.05 0.018720606 24971.271
0.85713225 -0.05 0.019004019 24947.062
0.85480578 -0.05 0.019286574 24922.964
0.85247921 -0.05 0.019568355 24898.829
0.85015256 -0.05 0.019849418 24874.751
0.84782581 -0.05 0.020129657 24850.866
0.84549896 -0.05 0.020409081 24826.96
0.84317202 -0.05 0.020687756 24803.109
0.84084499 -0.05 0.020965643 24779.375
0.83851786 -0.05 0.021242672 24755.826
0.83619063 -0.05 0.021518954 24732.126
0.83386332 -0.05 0.021794529 24708.591
0.83153592 -0.05 0.022069294 24685.129
0.82920841 -0.05 0.022343258 24661.759
0.82688083 -0.05 0.02261648 24638.335
0.82455316 -0.05 0.022888925 24615.103
0.82222538 -0.05 0.023160547 24591.909
0.81989751 -0.05 0.023431389 24568.803
0.81756956 -0.05 0.023701494 24545.663
0.81524153 -0.05 0.023970846 24522.667
0.8129134 -0.05 0.024239417 24499.667
0.81058518 -0.05 0.02450723 24476.76
0.80825687 -0.05 0.024774258 24453.909
0.80592849 -0.05 0.02504053 24431.096
0.8036 -0.05 0.025306023 24408.379
0.80127144 -0.05 0.025570774 24385.589
0.79894279 -0.05 0.025834763 24363
0.79661404 -0.05 0.026097924 24340.423
0.79428522 -0.05 0.026360374 24317.783
0.79195631 -0.05 0.026622048 24295.366
0.78962731 -0.05 0.026882938 24272.838
0.78729823 -0.05 0.027143126 24250.393
0.78496906 -0.05 0.027402517 24228.047
0.78263981 -0.05 0.02766117 24205.572
0.78031048 -0.05 0.027919081 24183.287
0.77798106 -0.05 0.028176144 24161.06
0.77565155 -0.05 0.028432494 24138.681
0.77332196 -0.05 0.028688107 24116.497
0.77099228 -0.05 0.028942908 24094.279
0.76866253 -0.05 0.029196968 24072.062
0.7663327 -0.05 0.029450285 24049.857
0.76400278 -0.05 0.029702803 24027.749
0.76167277 -0.05 0.029954568 24005.532
0.75934268 -0.05 0.030205573 23983.461
0.75701251 -0.05 0.030455803 23961.279
0.75468227 -0.05 0.030705313 23939.128
0.75235193 -0.05 0.030954045 23916.983
0.75002152 -0.05 0.031202018 23894.803
0.74769103 -0.05 0.031449207 23872.688
0.74536045 -0.05 0.031695625 23850.484
0.7430298 -0.05 0.031941289 23828.309
0.74069906 -0.05 0.032186181 23806.068
0.73836824 -0.05 0.032430305 23783.85
0.73603734 -0.05 0.032673645 23761.6
0.73370637 -0.05 0.032916233 23739.257
0.73137531 -0.05 0.033158092 23716.838
0.72904417 -0.05 0.033399148 23694.496
0.72671295 -0.05 0.033639377 23672.066
0.72438166 -0.05 0.03387888 23649.474
0.72205028 -0.05 0.034117645 23626.873
0.71971882 -0.05 0.034355552 23604.315
0.71738729 -0.05 0.034592685 23581.498
0.71505567 -0.05 0.034829099 23558.683
0.71272397 -0.05 0.035064674 23535.815
0.71039219 -0.05 0.035299486 23512.729
0.70806035 -0.05 0.035533544 23489.627
0.70572841 -0.05 0.035766778 23466.389
0.70339641 -0.05 0.035999269 23442.952
0.70106433 -0.05 0.03623098 23419.447
0.69873216 -0.05 0.036461892 23395.739
0.69639992 -0.05 0.036691978 23371.965
0.69406759 -0.05 0.036921269 23347.913
0.69173519 -0.05 0.03714974 23323.856
0.68940271 -0.05 0.037377398 23299.46
0.68707015 -0.05 0.037604327 23274.888
0.68473752 -0.05 0.03783047 23250.074
0.68240481 -0.05 0.038055756 23225.145
0.68007201 -0.05 0.038280206 23199.894
0.67773914 -0.05 0.038503859 23174.454
0.67540619 -0.05 0.03872673 23148.652
0.67307317 -0.05 0.038948784 23122.681
0.67074007 -0.05 0.039170028 23096.292
0.66840689 -0.05 0.039390456 23069.716
0.66607364 -0.05 0.039610024 23042.74
0.6637403 -0.05 0.039828774 23015.489
0.66140688 -0.05 0.040046679 22987.85
0.6590734 -0.05 0.040263799 22959.794
0.65673983 -0.05 0.040480084 22931.417
0.65440618 -0.05 0.040695489 22902.616
0.65207246 -0.05 0.040910082 22873.36
0.64973866 -0.05 0.041123838 22843.695
0.64740478 -0.05 0.04133674 22813.534
0.64507083 -0.05 0.041548788 22782.932
0.6427368 -0.05 0.04175995 22751.829
0.64040268 -0.05 0.041970278 22720.175
0.6380685 -0.05 0.042179753 22688.019
0.63573424 -0.05 0.042388355 22655.276
0.63339989 -0.05 0.042596094 22621.983
0.63106547 -0.05 0.042802945 22588.082
0.62873097 -0.05 0.04300894 22553.547
0.6263964 -0.05 0.043214055 22518.399
0.62406174 -0.05 0.043418269 22482.584
0.62172702 -0.05 0.043621601 22446.096
0.61939221 -0.05 0.043824069 22408.882
0.61705733 -0.05 0.044025645 22370.983
0.61472237 -0.05 0.044226271 22332.356
0.61238733 -0.05 0.044426006 22292.938
0.61005222 -0.05 0.04462488 22252.74
0.60771702 -0.05 0.044822825 22211.765
0.60538174 -0.05 0.045019806 22170.002
0.6030464 -0.05 0.045215861 22127.402
0.60071097 -0.05 0.045411024 22083.96
0.59837546 -0.05 0.045605254 22039.675
0.59603988 -0.05 0.045798556 21994.498
0.59370423 -0.05 0.045990938 21948.451
0.59136849 -0.05 0.046182352 21901.506
0.58903267 -0.05 0.046372791 21853.654
0.58669678 -0.05 0.046562266 21804.868
0.5843608 -0.05 0.046750814 21755.145
0.58202475 -0.05 0.046938396 21704.522
0.57968862 -0.05 0.047124972 21652.978
0.57735242 -0.05 0.047310579 21600.485
0.57501614 -0.05 0.047495251 21546.988
0.57267978 -0.05 0.047678924 21492.568
0.57034334 -0.05 0.04786155 21437.205
0.56800683 -0.05 0.048043188 21380.862
0.56567024 -0.05 0.048223861 21323.575
0.56333356 -0.05 0.048403536 21265.369
0.56099681 -0.05 0.048582153 21206.153
0.55865998 -0.05 0.04875972 21146.008
0.55632308 -0.05 0.048936314 21085.009
0.55398609 -0.05 0.049111879 21023.12
0.55164903 -0.05 0.049286359 20960.303
0.54931189 -0.05 0.049459794 20896.609
0.54697467 -0.05 0.049632163 20832.029
0.54463737 -0.05 0.049803468 20766.589
0.5423 -0.05 0.049973719 20700.306
0.53996254 -0.05 0.050142913 20633.205
0.53762502 -0.05 0.050311035 20565.305
0.53528742 -0.05 0.050478054 20496.629
0.53294973 -0.05 0.050643972 20427.199
0.53061196 -0.05 0.050808824 20357.043
0.52827412 -0.05 0.050972558 20286.194
0.5259362 -0.05 0.051135143 20214.663
0.5235982 -0.05 0.051296612 20142.495
0.52126012 -0.05 0.051456922 20069.726
0.51892198 -0.05 0.051616121 19996.372
0.51658374 -0.05 0.051774162 19922.509
0.51424543 -0.05 0.051931036 19848.119
0.51190704 -0.05 0.05208678 19773.297
0.50956857 -0.05 0.052241321 19698.034
0.50723003 -0.05 0.052394685 19622.398
0.50489141 -0.05 0.052546885 19546.423
0.50255271 -0.05 0.05269791 19470.168
0.50021394 -0.05 0.052847701 19393.686
0.49787509 -0.05 0.052996281 19317.034
0.49553616 -0.05 0.053143654 19240.283
0.49319715 -0.05 0.053289801 19163.464
0.49085807 -0.05 0.053434697 19086.622
0.48851891 -0.05 0.05357832 19009.751
0.48617967 -0.05 0.053720679 18932.862
0.48384036 -0.05 0.053861795 18855.94
0.48150096 -0.05 0.054001669 18779.004
0.4791615 -0.05 0.054140241 18702.077
0.47682195 -0.05 0.054277501 18625.226
0.47448234 -0.05 0.054413462 18548.552
0.47214264 -0.05 0.054548109 18472.155
0.46980287 -0.05 0.054681459 18396.097
0.46746302 -0.05 0.054813494 18320.381
0.4651231 -0.05 0.054944177 18244.861
0.4627831 -0.05 0.055073496 18169.249
0.46044304 -0.05 0.055201437 18092.981
0.45810288 -0.05 0.055328007 18015.27
0.45576266 -0.05 0.055453195 17935.094
0.45342237 -0.05 0.055576996 17851.247
0.451082 -0.05 0.05569938 17762.401
0.44874156 -0.05 0.055820362 17667.151
0.44640104 -0.05 0.055939944 17563.927
0.44406046 -0.05 0.056058044 17450.928
0.4417198 -0.05 0.056174717 17322.9
0.43937906 -0.05 0.05628996 17173.417
0.43703826 -0.05 0.056403696 16997.529
0.43469738 -0.05 0.056515954 16782.516
0.43235643 -0.05 0.056626691 16520.417
0.43001541 -0.05 0.056735938 16201.866
0.42767432 -0.05 0.056843696 15791.515
0.42533317 -0.05 0.056949929 15234.815
0.42299193 -0.05 0.057054582 14525.02
0.42065064 -0.05 0.05715767 13734.52
0.41830927 -0.05 0.057259222 12988.667
0.41596783 -0.05 0.057359191 12390.067
0.41362633 -0.05 0.057457551 11970.283
0.41128476 -0.05 0.057554292 11702.117
0.40894313 -0.05 0.057649427 11542.421
0.40660142 -0.05 0.057742965 11451.838
0.40425966 -0.05 0.057834838 11404.086
0.40191783 -0.05 0.057925023 11380.547
0.39957593 -0.05 0.058013541 11369.96
0.39723398 -0.05 0.058100378 11365.751
0.39489196 -0.05 0.058185525 11364.806
0.39254988 -0.05 0.058268918 11365.636
0.39020774 -0.05 0.058350591 11367.951
0.38786553 -0.05 0.058430541 11371.484
0.38552326 -0.05 0.058508715 11375.928
0.38318094 -0.05 0.058585094 11380.69
0.38083857 -0.05 0.058659688 11385.621
0.37849613 -0.05 0.058732482 11390.742
0.37615364 -0.05 0.058803471 11395.941
0.37381109 -0.05 0.058872605 11401.808
0.37146848 -0.05 0.058939856 11407.538
0.36912583 -0.05 0.059005237 11413.478
0.36678312 -0.05 0.059068742 11419.299
0.36444037 -0.05 0.059130353 11425.45
0.36209757 -0.05 0.059190049 11431.513
0.35975471 -0.05 0.059247824 11437.925
0.35741181 -0.05 0.059303603 11444.846
0.35506885 -0.05 0.059357402 11451.3
0.35272586 -0.05 0.059409225 11458.236
0.35038283 -0.05 0.059459045 11464.896
0.34803975 -0.05 0.059506859 11472.058
0.34569662 -0.05 0.059552581 11479.647
0.34335347 -0.05 0.059596249 11486.595
0.34101027 -0.05 0.059637862 11494.308
0.33866703 -0.05 0.059677333 11502.101
0.33632377 -0.05 0.059714702 11509.763
0.33398046 -0.05 0.059749909 11518.205
0.33163713 -0.05 0.059782951 11525.914
0.32929376 -0.05 0.059813858 11534.176
0.32695037 -0.05 0.059842535 11542.86
0.32460696 -0.05 0.059868968 11551.545
0.32226351 -0.05 0.059893141 11560.51
0.31992004 -0.05 0.059915067 11569.043
0.31757656 -0.05 0.059934727 11578.211
0.31523306 -0.05 0.059952066 11587.398
0.31288954 -0.05 0.059967055 11597.056
0.31054601 -0.05 0.059979678 11606.4
0.30820247 -0.05 0.059989926 11616.04
0.30585891 -0.05 0.059997793 11625.446
0.30351535 -0.05 0.060003209 11636.111
0.30117178 -0.05 0.060006157 11646.871
