/*--------------------------------*- C++ -*----------------------------------*\
| =========                 |                                                 |
| \\      /  F ield         | OpenFOAM: The Open Source CFD Toolbox           |
|  \\    /   O peration     | Version:  2306                                  |
|   \\  /    A nd           | Website:  www.openfoam.com                      |
|    \\/     M anipulation  |                                                 |
\*---------------------------------------------------------------------------*/
FoamFile
{
    version     2.0;
    format      ascii;
    arch        "LSB;label=32;scalar=64";
    class       volScalarField;
    location    "550";
    object      div(phi);
}
// * * * * * * * * * * * * * * * * * * * * * * * * * * * * * * * * * * * * * //

dimensions      [0 0 -1 0 0 0 0];

internalField   nonuniform List<scalar> 
1340
(
7.45549e-06
-5.59556e-06
4.07675e-06
-3.26859e-06
2.58364e-06
7.92879e-07
3.53419e-06
2.11985e-06
9.86465e-07
-6.27594e-07
-8.69481e-07
-1.15413e-06
-6.75959e-07
-6.27456e-07
-2.69379e-07
-3.37161e-07
-5.41653e-08
-2.2382e-07
2.42689e-07
-1.08381e-08
9.92606e-07
1.14458e-06
4.2011e-06
5.8996e-06
7.82087e-06
5.02221e-06
1.67117e-06
4.50586e-06
4.39219e-06
2.5984e-06
-1.08064e-05
2.34254e-05
4.49763e-06
1.21789e-06
-6.72988e-06
-5.6586e-06
6.15714e-06
-1.35052e-08
1.28105e-06
9.3523e-07
-4.52926e-06
-2.14327e-06
3.52778e-06
-1.54325e-06
2.55973e-06
-2.41806e-06
2.76135e-06
1.44197e-06
2.85852e-06
1.93544e-06
2.79487e-07
-7.42025e-07
-9.47946e-07
-1.04744e-06
-6.27174e-07
-6.03073e-07
-2.37789e-07
-2.99261e-07
2.33466e-08
-4.02031e-08
3.58185e-07
2.56585e-07
7.75228e-07
6.62835e-07
1.59136e-06
1.80387e-06
2.54503e-06
2.53922e-06
1.71301e-06
1.31522e-06
1.823e-06
2.0668e-06
-4.39621e-06
1.51099e-05
5.69387e-06
6.11489e-06
2.78239e-06
-7.02336e-08
2.88212e-06
-1.10769e-06
6.24063e-07
-2.47272e-06
-8.06363e-07
-6.55438e-06
4.28145e-06
-4.25437e-06
3.15933e-06
-3.91358e-07
2.96302e-06
2.18262e-06
9.76287e-07
-2.35386e-07
-6.63058e-07
-1.22206e-06
-8.68299e-07
-8.9936e-07
-5.26917e-07
-5.2444e-07
-3.26017e-07
-3.15436e-07
-2.43299e-07
-1.24393e-07
-1.30488e-07
2.26979e-07
3.69561e-07
1.38143e-06
1.95951e-06
3.20363e-06
1.95134e-06
1.61315e-06
2.5818e-06
2.90259e-06
1.22217e-06
-5.00813e-06
1.12207e-05
1.45961e-06
-1.78576e-06
-6.77998e-06
4.56672e-06
-3.02928e-06
4.6337e-07
-2.61046e-06
-9.88461e-07
-1.72838e-06
3.12557e-06
-2.74045e-06
1.33276e-06
-7.41636e-07
2.31361e-06
1.94282e-06
1.38253e-06
4.41843e-07
-3.34231e-07
-9.07471e-07
-1.05476e-06
-8.50363e-07
-8.17247e-07
-4.71458e-07
-5.36668e-07
-1.93803e-07
-2.69738e-07
8.12513e-08
7.05928e-08
4.01573e-07
4.24346e-07
7.42767e-07
9.64553e-07
1.49821e-06
1.80922e-06
2.47816e-06
2.05573e-06
1.70606e-06
2.00096e-06
2.0885e-06
-1.32366e-06
1.0113e-05
5.08033e-06
5.17943e-06
3.0875e-06
-2.1726e-06
-6.12697e-07
-2.32974e-06
-2.02249e-06
-1.29703e-06
1.29324e-06
-1.94145e-07
-1.62697e-07
1.36353e-06
1.36451e-06
1.70195e-06
8.59551e-07
6.16861e-08
-3.8111e-07
-9.9633e-07
-8.25309e-07
-9.89806e-07
-6.50115e-07
-7.45791e-07
-4.76843e-07
-5.27626e-07
-3.40043e-07
-3.63026e-07
-2.33384e-07
-2.22686e-07
-4.71407e-08
1.91266e-07
6.98619e-07
1.4654e-06
2.43437e-06
2.37314e-06
1.59512e-06
3.86498e-06
2.6599e-06
1.38385e-06
-2.89775e-06
7.44304e-06
1.41146e-06
-3.69162e-06
-7.55568e-06
-1.75745e-06
-1.46256e-06
-2.79561e-06
-1.02238e-06
-1.13586e-06
-8.9679e-07
9.62196e-08
1.29985e-06
3.67019e-07
1.66536e-06
9.29495e-07
4.44593e-07
1.08733e-08
-6.08404e-07
-7.59215e-07
-8.15034e-07
-7.60087e-07
-6.03406e-07
-6.61926e-07
-4.01911e-07
-4.54238e-07
-1.29373e-07
-1.69019e-07
1.87407e-07
1.44804e-07
4.83035e-07
3.99986e-07
8.272e-07
8.90504e-07
1.62525e-06
2.1186e-06
2.70782e-06
2.37949e-06
2.95824e-06
2.5701e-06
4.36096e-07
8.36667e-06
5.41173e-06
5.13354e-06
3.05109e-06
-9.61791e-07
-2.28359e-06
-2.11511e-06
-1.07038e-06
-2.05006e-06
1.54912e-06
1.17085e-07
1.28707e-06
7.92831e-07
6.02256e-07
2.50085e-07
-8.54227e-08
-5.35617e-07
-5.75487e-07
-7.3282e-07
-5.48586e-07
-7.30419e-07
-5.52317e-07
-6.68428e-07
-4.49535e-07
-4.80373e-07
-3.22485e-07
-3.35302e-07
-2.58886e-07
-2.14005e-07
-6.76293e-08
1.72148e-07
6.62169e-07
1.50375e-06
1.65286e-06
1.95239e-06
3.42619e-06
3.44826e-06
9.44188e-07
-1.64003e-06
5.03674e-06
3.5654e-07
-4.59233e-06
-8.91414e-06
-7.38627e-07
-2.75441e-06
-6.25196e-07
-1.59125e-06
1.30635e-06
7.76973e-07
8.94676e-07
7.87766e-07
4.96513e-07
3.80972e-07
2.32348e-07
-2.35896e-07
-3.42051e-07
-5.87596e-07
-4.4052e-07
-4.47348e-07
-5.58718e-07
-4.93797e-07
-5.71232e-07
-3.17491e-07
-3.45907e-07
-2.28569e-08
-6.46878e-08
2.50919e-07
1.6271e-07
4.26816e-07
3.24273e-07
7.16695e-07
9.14022e-07
1.84405e-06
2.35563e-06
2.8982e-06
3.25119e-06
3.20593e-06
1.46204e-06
6.7259e-06
5.35977e-06
4.73629e-06
2.86978e-06
-1.80184e-06
-4.76875e-07
-1.83855e-06
2.02787e-06
2.22976e-07
5.44363e-07
1.07297e-06
5.50563e-07
4.98736e-07
2.60057e-07
6.44854e-08
-2.74057e-09
-3.53647e-07
-2.46484e-07
-3.1083e-07
-4.43162e-07
-4.06136e-07
-6.5874e-07
-5.08547e-07
-5.9407e-07
-3.6798e-07
-4.31898e-07
-2.66409e-07
-3.79407e-07
-2.32526e-07
-3.48068e-07
-1.04434e-07
-5.92937e-08
7.88147e-07
7.10633e-07
1.62326e-06
2.89355e-06
3.33152e-06
9.02805e-07
-6.72224e-07
2.33189e-06
6.59322e-08
-5.73605e-06
-8.71619e-06
1.82371e-07
-1.76152e-06
1.43035e-06
3.89e-07
2.38244e-07
1.33168e-07
-1.22002e-07
4.26031e-09
-8.00848e-07
7.6265e-08
-2.1393e-07
-3.6361e-07
-5.12715e-07
-4.40845e-07
-4.60361e-07
-2.47489e-07
-2.02304e-07
5.37734e-09
4.18949e-08
1.70524e-07
1.74357e-07
2.16387e-07
3.52573e-07
5.782e-07
1.25573e-06
1.84719e-06
2.80266e-06
3.14614e-06
3.72348e-06
1.80117e-06
5.82455e-06
5.33885e-06
4.29167e-06
2.61312e-06
2.48957e-07
3.37685e-07
-1.09943e-06
3.47371e-07
-1.74144e-07
9.35062e-08
-3.36893e-07
-3.91409e-07
-5.99458e-07
-4.40699e-07
-5.30567e-07
-2.86333e-07
-4.39788e-07
-2.18933e-07
-4.76443e-07
-2.02992e-07
-5.86306e-07
-3.15143e-08
-2.50579e-07
6.23813e-07
3.01232e-07
2.69022e-06
1.96597e-06
1.86982e-06
-1.80404e-06
1.23725e-06
-1.06492e-06
-5.72282e-06
-8.06057e-06
6.824e-07
-9.44581e-07
3.39539e-07
1.73288e-07
-1.55465e-07
-3.14641e-07
-4.25386e-07
-4.46191e-07
-3.19167e-07
-2.45426e-07
-5.40857e-08
-3.63795e-08
1.2173e-07
5.2025e-08
1.63824e-07
1.35174e-07
3.87023e-07
7.29522e-07
1.32077e-06
2.21162e-06
2.80602e-06
3.53063e-06
1.97156e-06
5.14867e-06
5.58629e-06
4.05764e-06
2.45336e-06
7.25862e-07
1.74157e-07
8.27696e-08
-6.07192e-08
-3.39568e-07
-4.06404e-07
-5.69092e-07
-4.24871e-07
-4.80571e-07
-2.69177e-07
-4.18414e-07
-2.2274e-07
-4.85356e-07
-2.74696e-07
-5.42378e-07
-7.64883e-08
-3.41477e-07
3.02937e-07
9.05774e-07
1.75241e-06
7.03269e-07
-1.64745e-06
-3.30341e-07
-1.59836e-06
-6.14742e-06
-7.28647e-06
1.52331e-07
9.20772e-08
2.55563e-08
-2.06465e-07
-4.2316e-07
-4.18218e-07
-4.65733e-07
-1.96179e-07
-2.23989e-07
5.11596e-08
-4.56742e-08
1.6908e-07
-9.45246e-09
2.32238e-07
9.21421e-08
5.64231e-07
6.60706e-07
1.71893e-06
1.96126e-06
3.07016e-06
1.76236e-06
4.76986e-06
5.38721e-06
4.18974e-06
2.05134e-06
3.66857e-07
7.55847e-08
9.94177e-09
-1.89262e-07
-4.28556e-07
-5.39679e-07
-5.24507e-07
-4.22589e-07
-3.67003e-07
-2.67399e-07
-3.09898e-07
-2.48445e-07
-4.03548e-07
-2.89504e-07
-4.46542e-07
-2.53129e-07
-4.93722e-07
4.31282e-07
2.45089e-07
3.75937e-07
-2.20212e-06
-1.2175e-06
-2.02176e-06
-6.9739e-06
-6.56297e-06
4.24858e-07
-8.22321e-08
-1.29571e-07
-3.9103e-07
-5.3379e-07
-3.68601e-07
-3.56732e-07
-7.79412e-08
-1.30396e-07
1.32625e-07
-1.02545e-08
2.03228e-07
1.10803e-08
2.40569e-07
1.37821e-07
5.30464e-07
9.1174e-07
1.46951e-06
2.06273e-06
1.73759e-06
3.99477e-06
5.10165e-06
3.98853e-06
1.75569e-06
2.90343e-07
-1.41361e-07
-4.35949e-07
-4.88733e-07
-5.18686e-07
-3.45036e-07
-3.3464e-07
-1.95505e-07
-2.32134e-07
-1.6602e-07
-2.85221e-07
-2.50891e-07
-4.04332e-07
-3.88696e-07
-6.59072e-07
-2.03056e-07
-5.01202e-07
-3.02021e-07
-2.4069e-06
-1.35594e-06
-2.77005e-06
-6.39262e-06
-6.93424e-06
5.61519e-08
-2.53266e-07
-3.3651e-07
-4.1686e-07
-3.73428e-07
-1.83003e-07
-1.69436e-07
1.87126e-08
1.2969e-08
1.4796e-07
8.24684e-08
1.49421e-07
7.9111e-08
1.31324e-07
2.36938e-07
5.37204e-07
9.24116e-07
1.31637e-06
1.58665e-06
3.27085e-06
4.41927e-06
3.68111e-06
1.41719e-06
-4.94761e-08
-2.73235e-07
-3.97119e-07
-2.79998e-07
-3.09802e-07
-1.49723e-07
-2.25911e-07
-5.07624e-08
-1.90456e-07
-7.04623e-08
-2.97871e-07
-1.96161e-07
-5.55997e-07
-4.6504e-07
-7.5484e-07
-5.04999e-07
-1.14441e-06
-1.59382e-06
-1.82162e-06
-2.32425e-06
-6.11205e-06
-6.64372e-06
-1.56069e-07
-3.08228e-07
-2.62574e-07
-1.32605e-07
-1.09805e-07
-6.8584e-08
-1.09457e-08
6.96675e-08
1.25173e-07
1.37721e-07
1.30891e-07
9.63314e-08
7.65755e-08
1.64461e-07
2.93325e-07
6.42302e-07
8.41716e-07
1.50728e-06
2.53813e-06
3.67447e-06
3.08571e-06
1.07502e-06
-1.63616e-07
-1.96797e-08
-1.57672e-07
-8.07895e-08
-1.68562e-07
-5.59312e-08
-1.09972e-07
7.40343e-09
-1.14508e-07
-5.69437e-08
-2.51973e-07
-2.79198e-07
-5.3958e-07
-5.42691e-07
-7.45883e-07
-9.04134e-07
-1.34174e-06
-1.3762e-06
-2.18572e-06
-4.88195e-06
-6.30872e-06
2.05752e-08
-5.26037e-07
6.50765e-08
2.17447e-09
-3.25873e-08
-1.40266e-08
9.32668e-08
1.27653e-07
1.76477e-07
1.48877e-07
1.2909e-07
1.09236e-07
1.59437e-07
2.48728e-07
5.03227e-07
6.92694e-07
1.34982e-06
1.9976e-06
2.93969e-06
2.45053e-06
8.25764e-07
4.28558e-07
2.86528e-07
9.01716e-08
-2.28699e-08
-7.46479e-08
3.19734e-09
4.45013e-09
4.71799e-08
-2.6362e-08
-4.23251e-08
-1.99617e-07
-2.62891e-07
-4.64402e-07
-4.5856e-07
-7.74815e-07
-7.79201e-07
-1.1411e-06
-1.66577e-06
-3.63309e-06
-5.4614e-06
-3.32887e-07
4.24679e-07
3.42542e-07
6.2866e-08
3.79268e-08
7.81474e-08
1.79985e-07
1.8131e-07
2.17465e-07
1.48312e-07
2.01341e-07
1.65999e-07
3.21605e-07
4.24506e-07
6.92154e-07
1.15122e-06
1.6138e-06
2.34535e-06
1.85156e-06
9.2137e-07
1.00744e-06
4.33423e-07
2.47411e-07
2.39947e-08
-9.97076e-09
2.63732e-08
8.69065e-08
9.68437e-08
9.85576e-08
4.91697e-08
-1.25153e-09
-1.19445e-07
-1.87402e-07
-2.94606e-07
-4.17707e-07
-4.80717e-07
-7.66122e-07
-1.14854e-06
-2.67245e-06
-3.93325e-06
8.81013e-07
1.71914e-07
7.02364e-08
2.1309e-08
1.318e-07
1.5658e-07
2.50149e-07
1.97497e-07
2.39643e-07
1.90545e-07
2.60272e-07
3.02335e-07
4.37931e-07
6.38928e-07
9.68459e-07
1.34598e-06
1.81608e-06
1.43489e-06
1.54521e-06
2.18734e-07
1.62154e-07
-4.29248e-09
2.08567e-08
4.64752e-08
1.31923e-07
1.31906e-07
1.66495e-07
1.27854e-07
1.14366e-07
2.57496e-08
-1.29109e-08
-1.11635e-07
-1.5966e-07
-2.46152e-07
-4.21e-07
-7.68517e-07
-1.73117e-06
-2.65663e-06
7.17863e-07
-3.39123e-07
1.98442e-09
4.34655e-08
9.33683e-08
1.9299e-07
2.11106e-07
2.38773e-07
2.1322e-07
2.30339e-07
2.41872e-07
3.06186e-07
3.8784e-07
5.70008e-07
7.86657e-07
1.09617e-06
1.43482e-06
9.58304e-07
2.22652e-06
4.85157e-07
1.75015e-07
7.47122e-08
1.27074e-07
1.20047e-07
1.86905e-07
1.57052e-07
1.98791e-07
1.41532e-07
1.36832e-07
6.37884e-08
4.38265e-08
-1.68583e-08
-5.87501e-08
-1.6669e-07
-5.26126e-07
-9.2615e-07
-2.27414e-07
-2.44987e-07
1.6961e-07
2.95266e-07
1.82302e-07
2.10052e-07
2.12961e-07
2.22937e-07
2.02338e-07
2.05875e-07
2.19969e-07
2.58697e-07
3.30504e-07
4.56769e-07
6.19533e-07
8.40787e-07
1.09235e-06
1.2667e-06
1.82518e-09
6.40316e-07
2.33108e-07
2.12594e-07
1.74429e-07
1.91697e-07
1.72201e-07
1.94627e-07
1.77494e-07
1.85135e-07
1.45153e-07
1.34623e-07
9.52052e-08
8.46109e-08
3.78925e-08
-1.21391e-08
-2.26397e-07
-1.26673e-06
1.12367e-06
5.57418e-07
1.97595e-07
2.0658e-07
2.09761e-07
2.19258e-07
1.9613e-07
1.86756e-07
1.67297e-07
1.85311e-07
2.00723e-07
2.58618e-07
3.35744e-07
4.55242e-07
6.01777e-07
6.21353e-07
1.35924e-06
-2.10342e-06
-7.40474e-08
1.65292e-07
2.05286e-07
2.04872e-07
1.89292e-07
1.73622e-07
1.74628e-07
1.66399e-07
1.55937e-07
1.42372e-07
1.29293e-07
1.13837e-07
8.6386e-08
3.80173e-08
-5.79536e-08
-1.4612e-06
2.62531e-06
4.54243e-07
5.21975e-08
1.85099e-07
2.20956e-07
1.90968e-07
1.82131e-07
1.4409e-07
1.42614e-07
1.47365e-07
1.5895e-07
1.87875e-07
2.28663e-07
3.0425e-07
3.80814e-07
3.02775e-07
1.36559e-06
3.53395e-07
2.06957e-07
1.87473e-07
1.63637e-07
1.37128e-07
1.46413e-07
1.52484e-07
1.5901e-07
1.51483e-07
1.39522e-07
1.21226e-07
9.64815e-08
4.9479e-08
4.0997e-08
-9.38882e-07
-1.44506e-08
1.4084e-07
1.5648e-07
1.52813e-07
1.24747e-07
1.24517e-07
1.39604e-07
1.40199e-07
1.46104e-07
1.39174e-07
1.50498e-07
1.83974e-07
2.18441e-07
1.12528e-07
1.06292e-06
4.06146e-07
2.3046e-07
1.77684e-07
1.1102e-07
1.15229e-07
1.39452e-07
1.70421e-07
1.82642e-07
1.65255e-07
1.42946e-07
1.16084e-07
8.89498e-08
4.8087e-08
1.16238e-07
-7.8986e-07
-6.34378e-08
1.2693e-07
2.41238e-07
1.54005e-07
1.36284e-07
1.6155e-07
1.72736e-07
1.7433e-07
1.43232e-07
1.10859e-07
9.60926e-08
1.05394e-07
1.11577e-07
-3.88094e-08
9.06922e-07
3.85872e-07
3.76958e-07
1.5396e-07
1.38677e-07
1.43515e-07
1.79449e-07
2.1431e-07
1.91691e-07
1.59965e-07
1.1779e-07
9.50997e-08
6.84574e-08
2.77073e-08
1.85286e-07
-6.95663e-07
2.37529e-07
2.20833e-07
1.65432e-07
1.84913e-07
2.00645e-07
2.02096e-07
1.68929e-07
1.13609e-07
7.15171e-08
4.90855e-08
4.80674e-08
6.22e-08
-1.70335e-07
8.47643e-07
3.32122e-07
1.499e-07
1.46195e-07
1.51939e-07
2.05839e-07
1.81348e-07
1.46164e-07
9.71167e-08
6.45881e-08
5.68517e-08
5.33192e-08
-2.79692e-08
2.97886e-07
-3.48873e-07
3.08474e-07
1.06574e-07
1.21954e-07
1.93308e-07
1.17133e-07
1.18508e-07
9.54206e-08
4.73245e-08
2.3648e-08
2.08717e-08
-6.91555e-09
8.06216e-08
1.1793e-07
4.3271e-07
-1.37898e-07
4.49154e-08
1.31749e-07
-1.53819e-08
3.45131e-08
8.33901e-08
4.2076e-08
2.94406e-08
2.35772e-08
1.66157e-08
4.88751e-08
1.46213e-07
-8.57511e-08
-1.06888e-07
1.74521e-07
-1.71203e-08
-5.31175e-08
-5.98516e-08
3.42377e-08
-2.97225e-08
4.41494e-08
2.19813e-08
1.53422e-09
1.07283e-08
3.11165e-08
-1.55303e-07
1.94354e-07
-1.11277e-07
8.91639e-08
-1.34695e-07
-3.98214e-08
-1.5968e-07
3.98715e-08
3.79095e-08
2.86021e-09
7.88274e-09
3.11578e-09
-2.45653e-08
1.73566e-07
-3.63553e-07
1.10834e-07
-2.27322e-07
-7.61126e-08
-2.14837e-07
-1.61223e-08
4.57449e-08
6.06266e-09
1.68217e-08
-1.74247e-08
3.47759e-09
3.56503e-08
-2.24246e-07
2.55565e-07
6.98875e-08
-1.69567e-07
-9.35768e-08
-7.2346e-09
-1.43425e-08
4.47468e-09
-4.84445e-08
-1.70373e-08
-3.25469e-08
-4.45293e-08
1.53347e-07
-1.90233e-07
-2.86628e-07
-1.04404e-07
-4.75051e-08
-3.12229e-08
-6.98432e-09
-4.76126e-08
-1.61407e-08
-6.87123e-08
-9.78081e-09
1.81609e-08
-1.61617e-07
1.74519e-07
1.14185e-07
-8.21434e-08
-6.522e-08
-3.85734e-08
-2.56907e-08
-2.56385e-08
-6.21858e-08
-2.55603e-08
-6.51518e-08
-3.20866e-08
1.33777e-07
-1.15382e-07
4.77399e-08
-9.36675e-08
2.88563e-09
-5.45968e-08
6.09411e-09
-1.93942e-08
-2.83838e-08
7.50556e-08
2.83886e-08
-8.52459e-08
1.18424e-07
-2.16857e-07
-2.06158e-08
-6.58843e-08
3.53919e-08
2.9546e-09
2.72952e-08
1.17397e-07
-1.43928e-08
2.5601e-08
7.20644e-08
-8.3052e-08
1.58253e-08
-2.68928e-08
1.09606e-08
2.15129e-08
3.39466e-08
9.22201e-08
1.15783e-08
8.08694e-08
1.8283e-10
-1.21962e-07
2.69148e-08
-1.25139e-07
-1.46315e-08
8.93454e-09
2.1012e-08
4.60946e-08
3.3456e-08
6.18867e-08
2.07856e-09
-6.06328e-08
7.62991e-08
-4.3404e-08
5.22347e-08
-1.43574e-09
1.89954e-08
2.09081e-08
3.41292e-08
3.72009e-08
3.86502e-08
9.05393e-09
9.1233e-08
-4.87685e-08
9.52382e-08
-1.17006e-07
2.95032e-08
-3.78256e-09
3.76057e-08
9.78009e-09
4.37789e-08
1.81997e-08
5.79949e-08
3.29236e-09
1.08513e-07
1.60139e-07
-6.08396e-08
2.34784e-08
-1.33183e-08
3.0309e-08
8.03189e-09
2.27526e-08
5.86466e-08
1.55864e-08
2.5609e-08
9.77294e-08
-3.03204e-09
1.16502e-08
8.80953e-09
1.10305e-08
4.91069e-08
-6.95598e-09
6.88164e-08
-3.07644e-08
-4.34503e-08
-2.21381e-09
5.03364e-09
1.12898e-08
2.24541e-08
-1.76321e-09
6.82548e-08
-1.61093e-08
5.9617e-08
3.85577e-08
3.58652e-09
1.43041e-08
1.78751e-08
1.36879e-08
4.34599e-08
-1.02406e-08
4.04604e-08
-1.81343e-08
-4.31382e-08
4.44964e-09
8.34635e-09
1.40667e-08
1.912e-08
-3.68709e-09
1.98079e-08
-1.08905e-08
2.26746e-08
2.86709e-08
1.57516e-09
1.32898e-08
1.19323e-08
8.79255e-09
1.0213e-08
5.55018e-09
1.10022e-08
8.86444e-09
-3.61878e-08
2.7463e-09
7.7291e-09
7.82695e-09
1.23699e-08
1.23429e-08
9.45109e-09
1.43887e-08
-2.79762e-10
7.1226e-10
9.22536e-10
1.12042e-08
5.14926e-09
5.8652e-09
1.8721e-08
6.41848e-09
-2.48666e-08
-6.02956e-09
9.18006e-09
-1.43922e-09
4.33351e-09
2.31383e-08
1.85428e-09
2.40432e-08
-1.3381e-08
1.47317e-09
-2.4949e-10
1.95802e-08
-9.32164e-09
2.4709e-08
-1.36415e-08
2.84317e-08
1.67926e-09
6.338e-09
-1.1173e-08
1.72483e-08
-1.62972e-08
1.62386e-08
-1.19756e-08
4.71396e-10
-6.23027e-10
1.41535e-08
-5.87355e-09
1.12422e-08
-1.48442e-08
1.61655e-08
7.7285e-11
4.93486e-09
4.30079e-11
1.27358e-09
-7.31585e-09
-2.68431e-09
-2.18952e-08
-2.53013e-09
-1.50781e-09
1.09451e-09
1.14296e-09
-2.50965e-09
8.30038e-09
-2.09556e-09
2.11461e-09
2.62011e-09
-6.98455e-10
4.68322e-09
-2.05969e-08
-2.58085e-09
-2.53093e-09
5.97824e-11
3.1802e-09
-4.08733e-10
5.41291e-09
-3.66914e-09
-2.38991e-10
-3.46852e-11
-1.0515e-09
2.76222e-09
-2.32595e-08
-2.13541e-10
-2.82128e-09
-2.24747e-09
1.87914e-09
-2.96806e-09
1.91796e-08
-1.06181e-08
-4.79187e-09
2.10525e-09
-3.84732e-09
3.77984e-09
6.97835e-09
3.29137e-10
-9.76139e-09
2.7862e-09
-1.23681e-08
-1.79918e-08
-1.3763e-08
-7.9073e-09
-1.59305e-08
-5.83545e-09
-4.31239e-09
-8.69505e-09
-1.04084e-08
-5.5777e-09
-1.07803e-08
-1.97784e-08
-6.79889e-09
-5.16081e-09
-7.24043e-09
-1.03601e-08
-7.13529e-09
-4.38325e-09
-5.64594e-09
-1.84286e-08
-5.4803e-09
-3.65965e-09
-4.97088e-09
)
;

boundaryField
{
    inlet
    {
        type            extrapolatedCalculated;
        value           nonuniform List<scalar> 4(-1.84286e-08 -5.4803e-09 -3.65965e-09 -4.97088e-09);
    }
    outlet
    {
        type            extrapolatedCalculated;
        value           nonuniform List<scalar> 0();
    }
    walls
    {
        type            extrapolatedCalculated;
        value           nonuniform List<scalar> 
42
(
7.45549e-06
-5.59556e-06
4.07675e-06
-3.26859e-06
2.58364e-06
7.92879e-07
3.53419e-06
2.11985e-06
9.86465e-07
-6.27594e-07
-8.69481e-07
-1.15413e-06
-6.75959e-07
-6.27456e-07
-2.69379e-07
-3.37161e-07
-5.41653e-08
-2.2382e-07
2.42689e-07
-1.08381e-08
9.92606e-07
1.14458e-06
4.2011e-06
5.8996e-06
7.82087e-06
5.02221e-06
1.67117e-06
4.50586e-06
4.39219e-06
2.5984e-06
-1.08064e-05
2.34254e-05
4.49763e-06
1.21789e-06
-6.72988e-06
-5.6586e-06
6.15714e-06
-1.35052e-08
1.28105e-06
9.3523e-07
-4.52926e-06
-2.14327e-06
)
;
    }
    frontAndBack
    {
        type            empty;
    }
    procBoundary5to0
    {
        type            processor;
        value           nonuniform List<scalar> 4(9.88613e-07 -1.14143e-06 -2.88558e-08 -1.94026e-06);
    }
    procBoundary5to1
    {
        type            processor;
        value           nonuniform List<scalar> 
13
(
-7.12825e-06
-5.32691e-06
-5.32691e-06
-1.32231e-06
-1.68252e-06
-1.68252e-06
-3.59819e-07
-1.76616e-06
-1.76616e-06
3.03794e-07
-1.19517e-06
-2.77772e-06
-2.77772e-06
)
;
    }
    procBoundary5to4
    {
        type            processor;
        value           nonuniform List<scalar> 
95
(
1.70458e-06
1.02919e-06
9.01727e-07
9.01727e-07
4.42364e-07
1.80275e-07
1.80275e-07
4.15001e-07
-5.63884e-07
-5.63884e-07
-1.45368e-06
-1.45368e-06
-6.79962e-07
-6.79962e-07
-8.94294e-08
-1.81257e-07
-1.81257e-07
-2.08046e-08
-2.08046e-08
1.35511e-07
-1.46849e-08
-1.46849e-08
-7.27964e-08
-2.58962e-07
-2.58962e-07
-7.88187e-08
-6.69013e-07
-6.69013e-07
4.39127e-07
-2.62979e-07
1.32377e-07
1.32377e-07
6.93315e-07
7.00081e-08
-3.09088e-07
-3.09088e-07
4.36041e-07
-2.5224e-07
-1.71045e-07
-1.71045e-07
4.41737e-07
-1.81539e-07
-6.07879e-08
-6.07879e-08
2.52081e-07
-1.96435e-07
3.89592e-07
-1.2746e-07
2.70765e-07
2.70765e-07
1.72792e-07
1.25159e-08
2.50235e-07
-2.1844e-07
-1.87983e-07
-1.87983e-07
7.93208e-08
-2.22214e-07
1.54295e-07
-1.79993e-07
-2.19624e-07
-2.19624e-07
4.78901e-08
-1.63125e-07
4.86971e-08
-1.18467e-07
1.11155e-07
-1.19429e-07
-1.41093e-07
-1.41093e-07
5.06386e-08
-6.78336e-08
4.25475e-08
-5.57092e-08
2.7231e-08
-4.48198e-08
-7.22009e-09
1.08096e-08
1.08096e-08
-1.78494e-08
2.26553e-08
-2.69577e-08
1.66217e-08
-2.44519e-08
1.22754e-08
-2.41542e-08
1.71578e-08
-2.32634e-08
-2.78712e-08
-2.78712e-08
4.85081e-09
-2.09213e-08
8.41268e-10
-1.5552e-08
-8.43135e-09
)
;
    }
    procBoundary5to6
    {
        type            processor;
        value           nonuniform List<scalar> 
86
(
3.00125e-05
1.28347e-05
1.93486e-05
8.65296e-06
1.97316e-05
9.73999e-06
2.20272e-05
1.13856e-05
2.11226e-05
1.11736e-05
1.77349e-05
1.02859e-05
1.42741e-05
9.2015e-06
1.10849e-05
7.75263e-06
8.38963e-06
6.02032e-06
6.1855e-06
4.30659e-06
4.60267e-06
3.02708e-06
3.7019e-06
2.0816e-06
2.54131e-06
1.6152e-06
1.78303e-06
1.24626e-06
1.22848e-06
1.594e-06
5.47795e-08
1.43083e-06
-1.77006e-07
-2.7477e-06
-2.7477e-06
1.66837e-06
-1.01497e-06
1.32517e-06
-9.08086e-07
1.12407e-06
-8.12701e-07
9.40187e-07
-4.15367e-07
3.71126e-07
-3.04859e-07
2.09572e-07
-2.75356e-07
-2.75356e-07
6.31421e-08
-2.78824e-08
6.67212e-08
2.7176e-08
-4.3696e-09
1.8787e-10
-9.88237e-09
2.94732e-08
-2.72654e-08
-2.72654e-08
-2.71435e-08
4.32165e-08
-4.48011e-09
4.12246e-08
3.73972e-09
2.06373e-08
2.48745e-08
2.48745e-08
2.43847e-08
1.1749e-08
2.44466e-08
-1.57063e-08
6.55755e-09
-1.1397e-08
-5.98559e-09
-5.98559e-09
1.79314e-09
5.08967e-09
1.59825e-09
9.82137e-10
-3.81787e-09
-4.70203e-10
-2.28419e-08
-1.25741e-08
-1.1397e-08
-1.1397e-08
-8.40751e-09
-8.33758e-09
)
;
    }
}


// ************************************************************************* //
