/*--------------------------------*- C++ -*----------------------------------*\
| =========                 |                                                 |
| \\      /  F ield         | OpenFOAM: The Open Source CFD Toolbox           |
|  \\    /   O peration     | Version:  2306                                  |
|   \\  /    A nd           | Website:  www.openfoam.com                      |
|    \\/     M anipulation  |                                                 |
\*---------------------------------------------------------------------------*/
FoamFile
{
    version     2.0;
    format      ascii;
    arch        "LSB;label=32;scalar=64";
    class       volScalarField;
    location    "0.015";
    object      alphat;
}
// * * * * * * * * * * * * * * * * * * * * * * * * * * * * * * * * * * * * * //

dimensions      [1 -1 -1 0 0 0 0];

internalField   nonuniform List<scalar> 
20000
(
0.00043799332
0.0010790043
0.0014117844
0.0014962655
0.0012740398
0.00060194472
1.0068042e-05
1.0395855e-08
8.8541457e-09
8.7513673e-09
8.7531393e-09
8.7112162e-09
8.7025329e-09
8.683994e-09
8.6766606e-09
8.6683314e-09
8.6643321e-09
8.6619343e-09
8.6621765e-09
8.6645015e-09
8.6689403e-09
8.675252e-09
8.6830004e-09
8.6915524e-09
8.7000525e-09
8.7074703e-09
8.7130124e-09
8.7160045e-09
8.7161419e-09
8.7135821e-09
8.7086134e-09
8.7016483e-09
8.6931042e-09
8.6835114e-09
8.6736365e-09
8.6639184e-09
8.6543348e-09
8.6453237e-09
8.6370628e-09
8.6295956e-09
8.6225732e-09
8.6159296e-09
8.6096439e-09
8.6043137e-09
8.5990732e-09
8.5938569e-09
8.5904608e-09
8.5884175e-09
8.586656e-09
8.5863413e-09
0.00043507643
0.0010644135
0.001383338
0.0014516699
0.0012141794
0.00052234436
3.9950648e-06
9.7369563e-09
8.8526935e-09
8.7505415e-09
8.7539071e-09
8.7125531e-09
8.70459e-09
8.6867148e-09
8.6799278e-09
8.6721458e-09
8.6686358e-09
8.6667183e-09
8.6673984e-09
8.6701268e-09
8.6749082e-09
8.6814817e-09
8.6893805e-09
8.6979402e-09
8.7062726e-09
8.7133304e-09
8.7183614e-09
8.720662e-09
8.7200263e-09
8.7167353e-09
8.711071e-09
8.7035255e-09
8.6944956e-09
8.6845479e-09
8.6743523e-09
8.6644093e-09
8.6546493e-09
8.6455089e-09
8.6371377e-09
8.6296036e-09
8.6225726e-09
8.6159258e-09
8.6096474e-09
8.6043742e-09
8.5991003e-09
8.5937627e-09
8.5904158e-09
8.5885606e-09
8.5867679e-09
8.5863517e-09
0.00043250101
0.0010508972
0.001356118
0.0014066945
0.0011517064
0.00044301012
1.4659971e-06
9.339231e-09
8.8516364e-09
8.7502196e-09
8.7541777e-09
8.7141192e-09
8.706803e-09
8.6896702e-09
8.6834285e-09
8.6762383e-09
8.6732434e-09
8.6718441e-09
8.6730095e-09
8.6761976e-09
8.6813837e-09
8.6882904e-09
8.6964113e-09
8.7050501e-09
8.7132731e-09
8.7200175e-09
8.7245488e-09
8.7261216e-09
8.7247111e-09
8.7206007e-09
8.7141833e-09
8.7059768e-09
8.6964068e-09
8.6860271e-09
8.6754892e-09
8.6652584e-09
8.6552852e-09
8.6459427e-09
8.6374271e-09
8.6298066e-09
8.6227422e-09
8.6160692e-09
8.6097747e-09
8.6045365e-09
8.5992142e-09
8.5937637e-09
8.5904757e-09
8.5887664e-09
8.5869342e-09
8.5863363e-09
0.00042994271
0.0010374765
0.0013297179
0.0013645863
0.0010879154
0.00036934911
5.4937246e-07
9.1033496e-09
8.8514544e-09
8.7503914e-09
8.7553328e-09
8.7161902e-09
8.7095036e-09
8.6931088e-09
8.6873988e-09
8.6807948e-09
8.6783038e-09
8.6774174e-09
8.6790545e-09
8.6826838e-09
8.6882506e-09
8.695453e-09
8.7037473e-09
8.7123986e-09
8.7204324e-09
8.7267861e-09
8.7307189e-09
8.7314913e-09
8.729251e-09
8.7242848e-09
8.7170885e-09
8.7082178e-09
8.6981113e-09
8.6873155e-09
8.6764417e-09
8.6659388e-09
8.6557687e-09
8.6462544e-09
8.6376098e-09
8.6299112e-09
8.622821e-09
8.6161303e-09
8.6098311e-09
8.6046295e-09
8.5992537e-09
8.5937483e-09
8.5904663e-09
8.5889054e-09
8.5870697e-09
8.5863315e-09
0.00042741191
0.0010238197
0.0013024636
0.0013195591
0.0010213077
0.00030030423
2.186786e-07
8.9638912e-09
8.8524171e-09
8.7511004e-09
8.7567576e-09
8.7187083e-09
8.7126281e-09
8.6969772e-09
8.6917945e-09
8.6857807e-09
8.6838011e-09
8.6834334e-09
8.6855529e-09
8.689632e-09
8.6955875e-09
8.7030862e-09
8.7115472e-09
8.7201892e-09
8.7279996e-09
8.7339254e-09
8.7371854e-09
8.7371216e-09
8.7339854e-09
8.728116e-09
8.7201001e-09
8.7105339e-09
8.6998722e-09
8.6886477e-09
8.6774351e-09
8.6666557e-09
8.6562799e-09
8.6465905e-09
8.6378174e-09
8.6300408e-09
8.6229199e-09
8.6162072e-09
8.6099008e-09
8.6047272e-09
8.5992865e-09
8.593756e-09
8.5905211e-09
8.5890364e-09
8.5871575e-09
8.5863165e-09
0.00042492964
0.0010102051
0.0012748711
0.0012752693
0.00095217514
0.00023619536
9.7021612e-08
8.8793534e-09
8.8535269e-09
8.752327e-09
8.7587154e-09
8.7216985e-09
8.7162013e-09
8.7013005e-09
8.6966382e-09
8.691218e-09
8.6897506e-09
8.6899092e-09
8.6925111e-09
8.6970415e-09
8.70338e-09
8.7111629e-09
8.7197655e-09
8.7283579e-09
8.7358941e-09
8.7413312e-09
8.7438331e-09
8.7428884e-09
8.738794e-09
8.7319788e-09
8.723111e-09
8.7128295e-09
8.7016031e-09
8.6899439e-09
8.6783887e-09
8.6673277e-09
8.6567424e-09
8.6468834e-09
8.6379931e-09
8.6301481e-09
8.622999e-09
8.6162668e-09
8.6099553e-09
8.6048045e-09
8.5992948e-09
8.5937662e-09
8.5905755e-09
8.5891485e-09
8.5872136e-09
8.5862933e-09
0.00042252299
0.00099670603
0.001247347
0.0012304655
0.00088011681
0.00017881236
4.9348119e-08
8.8284215e-09
8.8553026e-09
8.754079e-09
8.7610219e-09
8.7251499e-09
8.7202208e-09
8.7060772e-09
8.7019317e-09
8.6971101e-09
8.6961622e-09
8.6968508e-09
8.6999414e-09
8.7049254e-09
8.7116447e-09
8.7196999e-09
8.7284192e-09
8.7369209e-09
8.7441352e-09
8.7490084e-09
8.7506673e-09
8.7487923e-09
8.7436756e-09
8.7358699e-09
8.7261177e-09
8.7151002e-09
8.7033003e-09
8.6912084e-09
8.6793175e-09
8.6679797e-09
8.6571814e-09
8.6471506e-09
8.6381476e-09
8.6302412e-09
8.6230685e-09
8.6163191e-09
8.6100042e-09
8.6048717e-09
8.5992927e-09
8.5937851e-09
8.5906478e-09
8.5892479e-09
8.5872473e-09
8.58626e-09
0.00042018493
0.00098313748
0.001219745
0.0011858287
0.00080562209
0.0001247752
2.8789384e-08
8.7979924e-09
8.8535271e-09
8.756326e-09
8.7637552e-09
8.7290647e-09
8.7246925e-09
8.7113151e-09
8.7076848e-09
8.7034684e-09
8.7030449e-09
8.7042713e-09
8.707855e-09
8.7132941e-09
8.7203894e-09
8.7287025e-09
8.7375088e-09
8.7458751e-09
8.7527135e-09
8.756941e-09
8.7576889e-09
8.754822e-09
8.7486281e-09
8.7397909e-09
8.7291255e-09
8.7173552e-09
8.7049749e-09
8.6924467e-09
8.6802184e-09
8.668601e-09
8.657583e-09
8.6473809e-09
8.6382709e-09
8.6303095e-09
8.6231196e-09
8.6163567e-09
8.6100421e-09
8.6049253e-09
8.5992784e-09
8.5938077e-09
8.5907195e-09
8.5893363e-09
8.5872616e-09
8.5862171e-09
0.00041788809
0.00096926681
0.0011914664
0.0011397524
0.00072898989
7.7518758e-05
1.9288234e-08
8.7800918e-09
8.8554146e-09
8.7591136e-09
8.7669828e-09
8.7334543e-09
8.7296237e-09
8.7170206e-09
8.713905e-09
8.7103004e-09
8.7104097e-09
8.7121809e-09
8.7162632e-09
8.7221585e-09
8.7296237e-09
8.7381764e-09
8.7470335e-09
8.7552135e-09
8.7616135e-09
8.7650956e-09
8.7648795e-09
8.7609365e-09
8.7536132e-09
8.7437036e-09
8.7320977e-09
8.7195595e-09
8.7065946e-09
8.6936363e-09
8.681081e-09
8.6691916e-09
8.6579531e-09
8.6475798e-09
8.6383656e-09
8.6303537e-09
8.623151e-09
8.6163789e-09
8.6100683e-09
8.6049639e-09
8.5992425e-09
8.5938311e-09
8.5907962e-09
8.5894174e-09
8.587262e-09
8.5861658e-09
0.00041559908
0.0009550775
0.0011620806
0.0010919095
0.00065121901
4.0997128e-05
1.4575936e-08
8.7702137e-09
8.8569271e-09
8.7624328e-09
8.770868e-09
8.73833e-09
8.7350188e-09
8.7232002e-09
8.7206008e-09
8.7176168e-09
8.7182673e-09
8.7205922e-09
8.725178e-09
8.7315297e-09
8.7393569e-09
8.7481282e-09
8.7569969e-09
8.7649386e-09
8.7708302e-09
8.7734689e-09
8.7722322e-09
8.7671375e-09
8.758635e-09
8.7476172e-09
8.7350475e-09
8.7217298e-09
8.7081783e-09
8.6947913e-09
8.6819108e-09
8.6697488e-09
8.6582845e-09
8.6477409e-09
8.6384287e-09
8.6303717e-09
8.6231606e-09
8.6163852e-09
8.6100836e-09
8.6049884e-09
8.5991797e-09
8.5938494e-09
8.5908726e-09
8.5894934e-09
8.587255e-09
8.5861054e-09
0.00041336217
0.00094081498
0.001131505
0.0010447383
0.00057342577
1.8306639e-05
1.2118399e-08
8.7654203e-09
8.85903e-09
8.7662723e-09
8.7753759e-09
8.7437e-09
8.7408863e-09
8.7298644e-09
8.7277853e-09
8.7254303e-09
8.7266314e-09
8.729518e-09
8.7346123e-09
8.741419e-09
8.7495971e-09
8.7585606e-09
8.7673944e-09
8.7750432e-09
8.780331e-09
8.7820296e-09
8.7797025e-09
8.7733771e-09
8.7636433e-09
8.7514828e-09
8.7379285e-09
8.7238213e-09
8.7096839e-09
8.6958803e-09
8.6826914e-09
8.6702692e-09
8.6585805e-09
8.6478664e-09
8.6384603e-09
8.6303624e-09
8.6231479e-09
8.6163758e-09
8.6100886e-09
8.6049994e-09
8.5991048e-09
8.593863e-09
8.5909464e-09
8.5895664e-09
8.5872457e-09
8.5860324e-09
0.00041119714
0.00092687354
0.001102396
0.00099731919
0.00049643241
7.1263975e-06
1.0778616e-08
8.763889e-09
8.8616038e-09
8.7706442e-09
8.7802628e-09
8.7495781e-09
8.7472466e-09
8.7370306e-09
8.7354741e-09
8.7337558e-09
8.7355161e-09
8.7389723e-09
8.7445788e-09
8.7518377e-09
8.7603535e-09
8.7694786e-09
8.7782285e-09
8.785523e-09
8.7901043e-09
8.7907842e-09
8.7872833e-09
8.77966e-09
8.7686481e-09
8.7553157e-09
8.7407605e-09
8.7258586e-09
8.7111382e-09
8.6969238e-09
8.6834322e-09
8.6707515e-09
8.6588339e-09
8.6479509e-09
8.6384614e-09
8.6303279e-09
8.6231146e-09
8.6163534e-09
8.6100827e-09
8.6049977e-09
8.5990189e-09
8.5938719e-09
8.5910161e-09
8.5896376e-09
8.5872364e-09
8.5859418e-09
0.00040901848
0.00091267224
0.0010726739
0.00094872862
0.00042143978
2.5645781e-06
1.0031953e-08
8.7646111e-09
8.8650301e-09
8.775586e-09
8.7852308e-09
8.7559694e-09
8.7541181e-09
8.7447138e-09
8.7436826e-09
8.7426074e-09
8.7449358e-09
8.7489688e-09
8.7550908e-09
8.7627969e-09
8.7716322e-09
8.7808813e-09
8.789489e-09
8.7963582e-09
8.800111e-09
8.799702e-09
8.7949241e-09
8.7859365e-09
8.7735997e-09
8.7590687e-09
8.7434991e-09
8.7277982e-09
8.7124997e-09
8.6978901e-09
8.6841159e-09
8.6711916e-09
8.6590474e-09
8.6479988e-09
8.6384376e-09
8.630272e-09
8.62306e-09
8.6163186e-09
8.6100659e-09
8.6049858e-09
8.5989176e-09
8.5938744e-09
8.5910818e-09
8.589707e-09
8.587227e-09
8.5858391e-09
0.0004067871
0.00089809096
0.0010421308
0.00089825521
0.00035106121
9.1156069e-07
9.6126924e-09
8.7669086e-09
8.8686333e-09
8.7811041e-09
8.7903578e-09
8.7628761e-09
8.7615164e-09
8.7529292e-09
8.7524262e-09
8.7520012e-09
8.7549067e-09
8.7595217e-09
8.7661616e-09
8.7743075e-09
8.7834416e-09
8.7927717e-09
8.8011794e-09
8.8075394e-09
8.8103434e-09
8.8087709e-09
8.8026204e-09
8.7922061e-09
8.7785041e-09
8.7627536e-09
8.7461609e-09
8.7296621e-09
8.7137935e-09
8.6987993e-09
8.6847519e-09
8.6715883e-09
8.6592152e-09
8.6480101e-09
8.6383887e-09
8.6301934e-09
8.6229751e-09
8.6162613e-09
8.6100405e-09
8.6049642e-09
8.5988009e-09
8.5938704e-09
8.5911444e-09
8.5897769e-09
8.5872147e-09
8.5857283e-09
0.00040449506
0.00088322521
0.0010108233
0.00084545364
0.00028479548
3.3748476e-07
9.3763355e-09
8.7704285e-09
8.8728242e-09
8.7872112e-09
8.7964493e-09
8.7703248e-09
8.7694526e-09
8.7616896e-09
8.7617203e-09
8.7619529e-09
8.7654448e-09
8.7706429e-09
8.7778041e-09
8.7863788e-09
8.7957876e-09
8.805144e-09
8.813294e-09
8.8190255e-09
8.820771e-09
8.8179372e-09
8.8103164e-09
8.7984106e-09
8.7833051e-09
8.7663179e-09
8.7486971e-09
8.7314019e-09
8.7149728e-09
8.6996145e-09
8.6853196e-09
8.6719365e-09
8.6593412e-09
8.6479864e-09
8.6382986e-09
8.630076e-09
8.6228461e-09
8.6161681e-09
8.6100103e-09
8.6049285e-09
8.5986687e-09
8.5938602e-09
8.5912052e-09
8.589849e-09
8.5871969e-09
8.585606e-09
0.00040217311
0.00086826744
0.00097885872
0.00079159437
0.00022227222
1.3768956e-07
9.2396624e-09
8.7749527e-09
8.8774049e-09
8.7939267e-09
8.8040319e-09
8.7783681e-09
8.7779411e-09
8.7710105e-09
8.7715793e-09
8.7724813e-09
8.776558e-09
8.7823492e-09
8.7900298e-09
8.7990234e-09
8.8086721e-09
8.8180042e-09
8.8258213e-09
8.8308019e-09
8.8313908e-09
8.8271854e-09
8.818009e-09
8.8045536e-09
8.7880139e-09
8.7697787e-09
8.7511307e-09
8.7330477e-09
8.7160711e-09
8.7003626e-09
8.6858323e-09
8.6722354e-09
8.6594227e-09
8.6479086e-09
8.6381738e-09
8.6299353e-09
8.6226897e-09
8.616052e-09
8.6099726e-09
8.6048584e-09
8.5985222e-09
8.5938449e-09
8.591265e-09
8.589924e-09
8.5871735e-09
8.5854725e-09
0.00039987225
0.00085350933
0.00094639492
0.00073526325
0.00016405194
6.4455565e-08
9.1609337e-09
8.7803806e-09
8.8826204e-09
8.8012752e-09
8.8122257e-09
8.7870157e-09
8.7869962e-09
8.7809011e-09
8.7820197e-09
8.7835923e-09
8.7882666e-09
8.7946558e-09
8.8028532e-09
8.81225e-09
8.822097e-09
8.8313432e-09
8.8387402e-09
8.8428252e-09
8.8421649e-09
8.8364569e-09
8.8256401e-09
8.8105779e-09
8.7925764e-09
8.7730872e-09
8.7534163e-09
8.7345542e-09
8.7170441e-09
8.7010087e-09
8.6862703e-09
8.6724806e-09
8.6594648e-09
8.6477775e-09
8.6380288e-09
8.629778e-09
8.6225059e-09
8.6159096e-09
8.6099086e-09
8.6047637e-09
8.5983646e-09
8.5938259e-09
8.5913242e-09
8.5900014e-09
8.5871469e-09
8.585329e-09
0.00039770294
0.00083930558
0.0009148158
0.00067607893
0.00011280859
3.5247111e-08
9.1154975e-09
8.7866634e-09
8.8883163e-09
8.8092343e-09
8.8200585e-09
8.7962237e-09
8.7966187e-09
8.7913686e-09
8.7930483e-09
8.7953029e-09
8.800586e-09
8.8075766e-09
8.8162892e-09
8.8260664e-09
8.8360673e-09
8.84516e-09
8.8520374e-09
8.8550791e-09
8.8530715e-09
8.8457387e-09
8.8332013e-09
8.8164838e-09
8.797001e-09
8.7762576e-09
8.7555746e-09
8.7359494e-09
8.7179245e-09
8.70158e-09
8.6866448e-09
8.6726735e-09
8.659454e-09
8.6476165e-09
8.6378515e-09
8.6295994e-09
8.6222937e-09
8.6157356e-09
8.6098231e-09
8.6046552e-09
8.5982032e-09
8.5938047e-09
8.5913819e-09
8.590079e-09
8.587117e-09
8.5851742e-09
0.0003956492
0.00082544778
0.00088614995
0.00061407069
6.810603e-05
2.2300815e-08
9.0898203e-09
8.7936988e-09
8.8945707e-09
8.817759e-09
8.8274893e-09
8.8059615e-09
8.806818e-09
8.8024245e-09
8.8046811e-09
8.8076305e-09
8.8135342e-09
8.8211307e-09
8.830351e-09
8.8404806e-09
8.8505809e-09
8.8594448e-09
8.8656722e-09
8.8675216e-09
8.8640522e-09
8.8549661e-09
8.8406259e-09
8.8222077e-09
8.8012302e-09
8.7792394e-09
8.7575591e-09
8.7371859e-09
8.7186654e-09
8.7020358e-09
8.6869324e-09
8.6728125e-09
8.6593728e-09
8.6474117e-09
8.6376448e-09
8.6294021e-09
8.6220562e-09
8.6155299e-09
8.6097249e-09
8.6045157e-09
8.5980458e-09
8.5937819e-09
8.5914361e-09
8.5901535e-09
8.5870863e-09
8.5850056e-09
0.00039364251
0.00081125569
0.00085503096
0.00054911675
3.5144605e-05
1.6146311e-08
9.076194e-09
8.8014678e-09
8.9012971e-09
8.8268572e-09
8.8360086e-09
8.8162604e-09
8.8176089e-09
8.814087e-09
8.8169384e-09
8.8205971e-09
8.8271306e-09
8.8353349e-09
8.8450516e-09
8.8554988e-09
8.8656391e-09
8.874187e-09
8.879613e-09
8.8801499e-09
8.8750743e-09
8.8641257e-09
8.8479094e-09
8.8277552e-09
8.8052775e-09
8.7820519e-09
8.7593957e-09
8.7382997e-09
8.7193059e-09
8.7024047e-09
8.6871517e-09
8.6728941e-09
8.6592469e-09
8.6471649e-09
8.6374065e-09
8.6291854e-09
8.6217973e-09
8.6152938e-09
8.6096055e-09
8.6043414e-09
8.5978989e-09
8.5937565e-09
8.5914846e-09
8.5902214e-09
8.5870415e-09
8.5848225e-09
0.00039179805
0.000797285
0.00082456453
0.0004825246
1.5385153e-05
1.3020933e-08
9.0699173e-09
8.8099807e-09
8.9085779e-09
8.8365818e-09
8.8463092e-09
8.8271983e-09
8.8290189e-09
8.8263818e-09
8.8298459e-09
8.8342233e-09
8.841396e-09
8.8502069e-09
8.8604031e-09
8.8711235e-09
8.8812341e-09
8.8893594e-09
8.8938153e-09
8.8929101e-09
8.8860707e-09
8.87315e-09
8.8549868e-09
8.8330668e-09
8.8090905e-09
8.7846496e-09
8.7610427e-09
8.7392479e-09
8.7197966e-09
8.7026523e-09
8.6872899e-09
8.6728814e-09
8.6590762e-09
8.6468765e-09
8.6371357e-09
8.6289486e-09
8.6215215e-09
8.6150312e-09
8.6094636e-09
8.6041411e-09
8.5977562e-09
8.5937267e-09
8.5915256e-09
8.5902805e-09
8.5869853e-09
8.5846242e-09
0.00039000576
0.00078298458
0.00079323868
0.00041532211
5.9273153e-06
1.136266e-08
9.0682217e-09
8.8193017e-09
8.916451e-09
8.8469939e-09
8.8575058e-09
8.8388213e-09
8.8410791e-09
8.8393356e-09
8.8434268e-09
8.8485336e-09
8.8563509e-09
8.8657638e-09
8.8764157e-09
8.8873591e-09
8.8973615e-09
8.9049435e-09
8.9082487e-09
8.9057722e-09
8.8970148e-09
8.8820195e-09
8.8618502e-09
8.8381455e-09
8.8126798e-09
8.7870492e-09
8.7625246e-09
8.7400584e-09
8.7201721e-09
8.7028206e-09
8.6873314e-09
8.6728022e-09
8.6588507e-09
8.6465492e-09
8.6368318e-09
8.6286889e-09
8.6212322e-09
8.614747e-09
8.6092973e-09
8.6039247e-09
8.5976151e-09
8.593692e-09
8.5915587e-09
8.5903312e-09
8.5869183e-09
8.5844095e-09
0.00038816057
0.00076740837
0.00076096449
0.00035026845
2.1407546e-06
1.0454402e-08
9.0694005e-09
8.8295386e-09
8.9249829e-09
8.8581145e-09
8.8687762e-09
8.8511217e-09
8.8538135e-09
8.8529706e-09
8.857705e-09
8.8635482e-09
8.8720156e-09
8.8820233e-09
8.893098e-09
8.9042073e-09
8.9140067e-09
8.9208955e-09
8.9228609e-09
8.9186702e-09
8.9078304e-09
8.8906585e-09
8.8684303e-09
8.84293e-09
8.8159936e-09
8.7892073e-09
8.7637992e-09
8.7406837e-09
8.7203992e-09
8.7028432e-09
8.6872593e-09
8.6726568e-09
8.6585706e-09
8.6461836e-09
8.6364937e-09
8.628403e-09
8.6209317e-09
8.6144466e-09
8.6091069e-09
8.6036981e-09
8.5974774e-09
8.5936543e-09
8.5915856e-09
8.5903755e-09
8.5868397e-09
8.5841781e-09
0.000386156
0.00075058096
0.00072699686
0.00028880382
7.6969589e-07
9.9423297e-09
9.0725595e-09
8.8406987e-09
8.934158e-09
8.8699218e-09
8.8798835e-09
8.8640847e-09
8.8672444e-09
8.8673082e-09
8.8727015e-09
8.8792902e-09
8.8884118e-09
8.8989982e-09
8.9104602e-09
8.9216635e-09
8.9311587e-09
8.9371641e-09
8.9376466e-09
8.9315495e-09
8.9184908e-09
8.8990514e-09
8.8747251e-09
8.8474294e-09
8.8190481e-09
8.7911454e-09
8.764889e-09
8.741166e-09
8.7205165e-09
8.7027623e-09
8.6871281e-09
8.6724294e-09
8.658233e-09
8.6457836e-09
8.6361219e-09
8.6280853e-09
8.6206197e-09
8.6141359e-09
8.6088925e-09
8.6034621e-09
8.5973483e-09
8.5936193e-09
8.591609e-09
8.5904168e-09
8.5867486e-09
8.5839293e-09
0.00038388895
0.00073199502
0.00068933369
0.00022976311
2.9257458e-07
9.6543626e-09
9.0777251e-09
8.8529474e-09
8.9439753e-09
8.8824265e-09
8.8914703e-09
8.8777122e-09
8.8813878e-09
8.8823667e-09
8.8884381e-09
8.8957804e-09
8.9055594e-09
8.9167047e-09
8.928507e-09
8.939722e-09
8.9487863e-09
8.9537019e-09
8.9525348e-09
8.9443351e-09
8.9289165e-09
8.9071251e-09
8.8806706e-09
8.85159e-09
8.8217995e-09
8.7928231e-09
8.7657588e-09
8.7414823e-09
8.7204482e-09
8.7025875e-09
8.68688e-09
8.672118e-09
8.6578365e-09
8.6453497e-09
8.6357168e-09
8.6277314e-09
8.6202936e-09
8.6138189e-09
8.6086546e-09
8.6032119e-09
8.5972326e-09
8.5935953e-09
8.5916326e-09
8.5904577e-09
8.5866434e-09
8.5836633e-09
0.00038131285
0.00071161298
0.00064554727
0.00017381368
1.2394985e-07
9.4918501e-09
9.0840562e-09
8.8665722e-09
8.9543977e-09
8.8956468e-09
8.9045118e-09
8.8920572e-09
8.8962652e-09
8.8981689e-09
8.904937e-09
8.9130457e-09
8.9234769e-09
8.9351569e-09
8.9472402e-09
8.9583764e-09
8.9668592e-09
8.9704633e-09
8.9674788e-09
8.9569821e-09
8.9390745e-09
8.914862e-09
8.8862641e-09
8.8554213e-09
8.824263e-09
8.7942548e-09
8.7664457e-09
8.7416367e-09
8.7203156e-09
8.7022972e-09
8.6865373e-09
8.6717197e-09
8.6573799e-09
8.6448855e-09
8.6352802e-09
8.6273359e-09
8.6199482e-09
8.613498e-09
8.6083932e-09
8.6029369e-09
8.5971312e-09
8.5935925e-09
8.5916612e-09
8.5904994e-09
8.5865228e-09
8.5833799e-09
0.00037849983
0.0006901208
0.00059679333
0.0001226787
6.0573215e-08
9.4007004e-09
9.0906162e-09
8.8827043e-09
8.9653518e-09
8.9096146e-09
8.9190298e-09
8.90718e-09
8.9118974e-09
8.914738e-09
8.9222268e-09
8.9311073e-09
8.9421874e-09
8.9543674e-09
8.966663e-09
8.9776134e-09
8.9853195e-09
8.987395e-09
8.9823888e-09
8.9694066e-09
8.9488778e-09
8.9221856e-09
8.8914422e-09
8.8588726e-09
8.826396e-09
8.795413e-09
8.7669355e-09
8.7416084e-09
8.7200194e-09
8.7018775e-09
8.6860879e-09
8.6712298e-09
8.6568601e-09
8.6443899e-09
8.6348142e-09
8.6268962e-09
8.6195766e-09
8.6131729e-09
8.6081077e-09
8.6026251e-09
8.5970384e-09
8.5936182e-09
8.5917023e-09
8.5905405e-09
8.5863848e-09
8.5830798e-09
0.00037549044
0.00066785293
0.00054378232
8.0242301e-05
3.4505594e-08
9.3504564e-09
9.0976892e-09
8.9000941e-09
8.9769489e-09
8.9243488e-09
8.9341608e-09
8.9230889e-09
8.9283098e-09
8.9321021e-09
8.940333e-09
8.9499934e-09
8.9617098e-09
8.9743447e-09
8.9867722e-09
8.9974074e-09
9.0041023e-09
9.0044755e-09
8.9971951e-09
8.9815587e-09
8.9582984e-09
8.9290863e-09
8.8962112e-09
8.8619586e-09
8.828214e-09
8.7963355e-09
8.7672143e-09
8.7414782e-09
8.7196045e-09
8.7013602e-09
8.685539e-09
8.6706493e-09
8.656278e-09
8.6438653e-09
8.6343216e-09
8.6264107e-09
8.6191721e-09
8.6128416e-09
8.6077979e-09
8.6022668e-09
8.5969393e-09
8.5936699e-09
8.5917667e-09
8.5905771e-09
8.5862276e-09
8.5827648e-09
0.0003721546
0.00064447603
0.00049209458
4.5687141e-05
2.2521406e-08
9.3241752e-09
9.1052946e-09
8.9182894e-09
8.9892914e-09
8.9398412e-09
8.9493003e-09
8.9397661e-09
8.9455374e-09
8.9502944e-09
8.9592896e-09
8.9697307e-09
8.9820643e-09
8.9950965e-09
9.0075595e-09
9.0177204e-09
9.02315e-09
9.0216091e-09
9.0118034e-09
8.9933439e-09
8.9672519e-09
8.9354949e-09
8.9005159e-09
8.8646327e-09
8.8296905e-09
8.7970096e-09
8.7672594e-09
8.7411525e-09
8.719055e-09
8.7007242e-09
8.6848818e-09
8.6699747e-09
8.6556299e-09
8.6433083e-09
8.633805e-09
8.625882e-09
8.6187289e-09
8.6125e-09
8.607463e-09
8.601861e-09
8.5968172e-09
8.5937311e-09
8.5918675e-09
8.5905993e-09
8.5860495e-09
8.5824375e-09
0.00036844491
0.00061825286
0.00043854128
2.2328306e-05
1.6663586e-08
9.3124577e-09
9.1134653e-09
8.9371279e-09
9.0025914e-09
8.956101e-09
8.964746e-09
8.9572294e-09
8.9636208e-09
8.969354e-09
8.9791305e-09
8.9903477e-09
9.0032671e-09
9.0166255e-09
9.0290127e-09
9.0385074e-09
9.0424013e-09
9.0387278e-09
9.0261525e-09
9.0047122e-09
8.9757115e-09
8.9414053e-09
8.9043633e-09
8.8669077e-09
8.8308612e-09
8.7974019e-09
8.7671468e-09
8.7406879e-09
8.7183973e-09
8.6999857e-09
8.6841226e-09
8.6692098e-09
8.6549199e-09
8.6427193e-09
8.6332659e-09
8.6253145e-09
8.6182448e-09
8.612144e-09
8.607102e-09
8.601417e-09
8.5966697e-09
8.5937752e-09
8.5920087e-09
8.5906004e-09
8.5858494e-09
8.5821013e-09
0.0003651962
0.00059573739
0.00038412981
9.5102205e-06
1.3646412e-08
9.3096188e-09
9.1222815e-09
8.9560697e-09
9.0169022e-09
8.9731944e-09
8.9816317e-09
8.9755607e-09
8.9826056e-09
8.9893207e-09
8.9998934e-09
9.0118645e-09
9.0253322e-09
9.038931e-09
9.0511141e-09
9.059685e-09
9.0617963e-09
9.0557092e-09
9.0401432e-09
9.0155601e-09
8.9835921e-09
8.9467507e-09
8.9077005e-09
8.8687575e-09
8.8317145e-09
8.7974856e-09
8.7668062e-09
8.7400725e-09
8.7176194e-09
8.6991387e-09
8.6832578e-09
8.6683532e-09
8.6541456e-09
8.6420935e-09
8.6327049e-09
8.6247162e-09
8.6177214e-09
8.6117693e-09
8.6067108e-09
8.6009503e-09
8.5965134e-09
8.593813e-09
8.5921662e-09
8.5905849e-09
8.585626e-09
8.5817605e-09
0.0003619956
0.00057212352
0.00032880502
3.6717704e-06
1.1992321e-08
9.312337e-09
9.1318976e-09
8.9744549e-09
9.032088e-09
8.9911997e-09
9.0001438e-09
8.9948557e-09
9.0025307e-09
9.0102402e-09
9.0215973e-09
9.0343086e-09
9.0482666e-09
9.0620108e-09
9.0738186e-09
9.0811828e-09
9.0812784e-09
9.0724678e-09
9.0536987e-09
9.0258465e-09
8.9908779e-09
8.951534e-09
8.9105434e-09
8.8702253e-09
8.8322095e-09
8.797358e-09
8.766284e-09
8.7393236e-09
8.7167377e-09
8.6981916e-09
8.6822916e-09
8.6674128e-09
8.6533156e-09
8.6414304e-09
8.6321201e-09
8.6240952e-09
8.6171657e-09
8.6113721e-09
8.6062789e-09
8.600484e-09
8.5963649e-09
8.5938562e-09
8.5923285e-09
8.5905651e-09
8.5853779e-09
8.5814147e-09
0.00035911862
0.00054794979
0.00027352391
1.3553854e-06
1.1071526e-08
9.3187494e-09
9.1424105e-09
8.9931872e-09
9.0482474e-09
9.0101568e-09
9.0193527e-09
9.0151252e-09
9.0234407e-09
9.0321318e-09
9.0442809e-09
9.0577006e-09
9.0720779e-09
9.085851e-09
9.0970771e-09
9.1029185e-09
9.1007292e-09
9.0888848e-09
9.066707e-09
9.0354743e-09
8.9974934e-09
8.9556975e-09
8.9128645e-09
8.8712959e-09
8.8323161e-09
8.796949e-09
8.7655669e-09
8.7384365e-09
8.7157548e-09
8.6971488e-09
8.6812254e-09
8.6663888e-09
8.6524305e-09
8.6407265e-09
8.6315086e-09
8.6234601e-09
8.616588e-09
8.6109491e-09
8.6057916e-09
8.6000411e-09
8.5962314e-09
8.5939073e-09
8.5924939e-09
8.5905336e-09
8.5851037e-09
8.5810636e-09
0.00035676645
0.00052290262
0.00021891942
5.061334e-07
1.0555201e-08
9.3275145e-09
9.1537789e-09
9.0125693e-09
9.0653645e-09
9.0300693e-09
9.0389911e-09
9.0363622e-09
9.0453652e-09
9.0550394e-09
9.0679743e-09
9.0820555e-09
9.0967699e-09
9.1104263e-09
9.1208221e-09
9.124813e-09
9.120046e-09
9.1048709e-09
9.0790969e-09
9.0444067e-09
9.0034273e-09
8.9592511e-09
8.9147058e-09
8.8719163e-09
8.8321502e-09
8.7962998e-09
8.7646677e-09
8.7374223e-09
8.714674e-09
8.6960099e-09
8.6800617e-09
8.6652918e-09
8.6515027e-09
8.6399829e-09
8.630865e-09
8.6228171e-09
8.6160012e-09
8.6104981e-09
8.6052323e-09
8.5996362e-09
8.5961097e-09
8.5939654e-09
8.5926634e-09
8.5904908e-09
8.5848025e-09
8.580711e-09
0.00035509874
0.00049820787
0.00016681135
2.0534252e-07
1.0254495e-08
9.3380613e-09
9.1660787e-09
9.0327321e-09
9.083489e-09
9.0509594e-09
9.0596979e-09
9.0586151e-09
9.0683458e-09
9.0789943e-09
9.0927026e-09
9.1073902e-09
9.1223394e-09
9.1357067e-09
9.1449392e-09
9.1467898e-09
9.1390778e-09
9.1202917e-09
9.090754e-09
9.0525484e-09
9.0086092e-09
8.96216e-09
8.9160463e-09
8.8720557e-09
8.8316391e-09
8.7954009e-09
8.7635888e-09
8.7362926e-09
8.7135172e-09
8.6947954e-09
8.6788088e-09
8.6641227e-09
8.6505352e-09
8.6392006e-09
8.6301843e-09
8.6221688e-09
8.6154171e-09
8.6100192e-09
8.6046177e-09
8.5992472e-09
8.5959913e-09
8.5940287e-09
8.5928374e-09
8.5903988e-09
8.5844751e-09
8.5803617e-09
0.00035370622
0.00046922522
0.00011777864
9.3947898e-08
1.0076325e-08
9.3502219e-09
9.179406e-09
9.0537714e-09
9.1026695e-09
9.0728759e-09
9.0818285e-09
9.0819529e-09
9.0924151e-09
9.1040356e-09
9.1184904e-09
9.1337122e-09
9.1487721e-09
9.1616271e-09
9.1693419e-09
9.1687399e-09
9.1577068e-09
9.1350516e-09
9.1016151e-09
9.0598761e-09
9.0130459e-09
8.9644696e-09
8.9168296e-09
8.8718542e-09
8.8308279e-09
8.7942684e-09
8.7623392e-09
8.7350417e-09
8.7122692e-09
8.6934933e-09
8.6774673e-09
8.662893e-09
8.6495414e-09
8.6383842e-09
8.6294614e-09
8.6215141e-09
8.6148434e-09
8.6095124e-09
8.6039587e-09
8.5988593e-09
8.5958686e-09
8.5940923e-09
8.593011e-09
8.5902617e-09
8.5841235e-09
8.5800201e-09
0.00035256399
0.00043677905
7.494526e-05
4.9816671e-08
9.9680933e-09
9.3639013e-09
9.1938285e-09
9.0757602e-09
9.122951e-09
9.095866e-09
9.1050538e-09
9.1064117e-09
9.1176182e-09
9.1301929e-09
9.1453609e-09
9.1610269e-09
9.176045e-09
9.1881112e-09
9.193913e-09
9.1905082e-09
9.1757814e-09
9.1490073e-09
9.1115686e-09
9.0663085e-09
9.0166976e-09
8.9661563e-09
8.9170223e-09
8.8712315e-09
8.8297066e-09
8.7929046e-09
8.7609269e-09
8.7336916e-09
8.7109637e-09
8.6921347e-09
8.6760517e-09
8.6616034e-09
8.6485233e-09
8.6375394e-09
8.6286941e-09
8.6208481e-09
8.6142813e-09
8.6089753e-09
8.6032657e-09
8.5984686e-09
8.5957346e-09
8.5941452e-09
8.5931767e-09
8.5900717e-09
8.5837507e-09
8.5796904e-09
0.0003513727
0.0003998236
4.2760484e-05
3.0717986e-08
9.9007558e-09
9.3791002e-09
9.2093937e-09
9.0987638e-09
9.1443593e-09
9.1199413e-09
9.1292381e-09
9.1320181e-09
9.1439939e-09
9.1575082e-09
9.173334e-09
9.1893321e-09
9.204117e-09
9.2150465e-09
9.2185531e-09
9.2119447e-09
9.1931769e-09
9.1620689e-09
9.1205643e-09
9.0718395e-09
9.0196044e-09
8.9671583e-09
8.9167863e-09
8.870235e-09
8.8282964e-09
8.7913243e-09
8.7593548e-09
8.7322249e-09
8.7095716e-09
8.6906999e-09
8.6745621e-09
8.6602643e-09
8.6474904e-09
8.6366728e-09
8.6278824e-09
8.6201641e-09
8.6137241e-09
8.6083976e-09
8.6025527e-09
8.5980808e-09
8.5955881e-09
8.5941767e-09
8.5933031e-09
8.5898175e-09
8.5833608e-09
8.5793757e-09
0.00034987678
0.00035876947
2.1600052e-05
2.1584083e-08
9.8575976e-09
9.3958839e-09
9.2261117e-09
9.1228338e-09
9.1669074e-09
9.145098e-09
9.1545681e-09
9.1588478e-09
9.1715989e-09
9.1860133e-09
9.2024237e-09
9.2186176e-09
9.2329182e-09
9.2422907e-09
9.2431383e-09
9.2328578e-09
9.2097134e-09
9.1741041e-09
9.1284955e-09
9.0764133e-09
9.0217363e-09
8.9674315e-09
8.9160328e-09
8.8688564e-09
8.8266017e-09
8.7895367e-09
8.7576435e-09
8.7306794e-09
8.7081416e-09
8.6892311e-09
8.67302e-09
8.6588766e-09
8.6464395e-09
8.6357905e-09
8.6270309e-09
8.6194552e-09
8.6131579e-09
8.6077602e-09
8.6018403e-09
8.597715e-09
8.5954405e-09
8.5941747e-09
8.5933583e-09
8.5894888e-09
8.5829585e-09
8.5790781e-09
0.00034751826
0.00031272001
9.7750596e-06
1.6889063e-08
9.8292985e-09
9.4139811e-09
9.2440322e-09
9.1480909e-09
9.1906463e-09
9.1714808e-09
9.1811053e-09
9.1869663e-09
9.2004816e-09
9.2157407e-09
9.2326368e-09
9.2488474e-09
9.2623612e-09
9.2697108e-09
9.2674967e-09
9.2530894e-09
9.2252726e-09
9.1850262e-09
9.135344e-09
9.080066e-09
9.0230336e-09
8.9671687e-09
8.9148173e-09
8.8671246e-09
8.8246443e-09
8.7875546e-09
8.7557849e-09
8.7290196e-09
8.7066259e-09
8.6876984e-09
8.6714253e-09
8.6574503e-09
8.6453727e-09
8.6348952e-09
8.6261462e-09
8.6187176e-09
8.6125646e-09
8.6070359e-09
8.6011566e-09
8.597386e-09
8.5953235e-09
8.5941512e-09
8.5933764e-09
8.5890766e-09
8.5825489e-09
8.5787993e-09
0.00034411847
0.00025686197
4.1976751e-06
1.4354841e-08
9.8105264e-09
9.433222e-09
9.2633356e-09
9.1748062e-09
9.2157106e-09
9.199206e-09
9.2092971e-09
9.2164198e-09
9.2306892e-09
9.2467094e-09
9.2639665e-09
9.2799714e-09
9.2923111e-09
9.2971559e-09
9.2914132e-09
9.2724372e-09
9.2396735e-09
9.1947097e-09
9.141041e-09
9.0827651e-09
9.0234351e-09
8.9662717e-09
8.913132e-09
8.865044e-09
8.8224309e-09
8.785391e-09
8.753807e-09
8.7272906e-09
8.7050763e-09
8.6861447e-09
8.6698025e-09
8.6559882e-09
8.6442811e-09
8.6339869e-09
8.6252373e-09
8.6179505e-09
8.611927e-09
8.6062008e-09
8.6005332e-09
8.5970977e-09
8.5952353e-09
8.5941324e-09
8.5933571e-09
8.5885758e-09
8.5821367e-09
8.5785411e-09
0.0003411345
0.00021386461
1.8730916e-06
1.290879e-08
9.7977729e-09
9.4539491e-09
9.2841986e-09
9.2033972e-09
9.242219e-09
9.2283326e-09
9.2388659e-09
9.2472673e-09
9.2622503e-09
9.2789344e-09
9.2963876e-09
9.3119111e-09
9.3225719e-09
9.3245132e-09
9.3146647e-09
9.2907321e-09
9.2528031e-09
9.2031048e-09
9.145608e-09
9.0844494e-09
9.0231662e-09
8.9648039e-09
8.9110131e-09
8.8626411e-09
8.8199822e-09
8.7830562e-09
8.7516966e-09
8.7254495e-09
8.703437e-09
8.6845342e-09
8.6681508e-09
8.6545014e-09
8.6431612e-09
8.6330603e-09
8.6243129e-09
8.6171574e-09
8.6112349e-09
8.6052964e-09
8.5999582e-09
8.596838e-09
8.5951741e-09
8.5941682e-09
8.5933183e-09