/*--------------------------------*- C++ -*----------------------------------*\
| =========                 |                                                 |
| \\      /  F ield         | OpenFOAM: The Open Source CFD Toolbox           |
|  \\    /   O peration     | Version:  2306                                  |
|   \\  /    A nd           | Website:  www.openfoam.com                      |
|    \\/     M anipulation  |                                                 |
\*---------------------------------------------------------------------------*/
FoamFile
{
    version     2.0;
    format      ascii;
    arch        "LSB;label=32;scalar=64";
    class       volScalarField;
    location    "0.015";
    object      nut;
}
// * * * * * * * * * * * * * * * * * * * * * * * * * * * * * * * * * * * * * //

dimensions      [0 2 -1 0 0 0 0];

internalField   nonuniform List<scalar> 
20000
(
0.00037696248
0.00092893599
0.0012154998
0.001287954
0.0010959034
0.00051689749
8.6354758e-06
8.9159449e-09
7.5939279e-09
7.505513e-09
7.5069636e-09
7.4705663e-09
7.4626847e-09
7.4460552e-09
7.4389206e-09
7.4306371e-09
7.4258619e-09
7.4221479e-09
7.4204452e-09
7.4202227e-09
7.4215695e-09
7.4243051e-09
7.4281659e-09
7.4327245e-09
7.4374271e-09
7.4415567e-09
7.4445979e-09
7.4460842e-09
7.4458245e-09
7.4438877e-09
7.4404639e-09
7.4357741e-09
7.4300796e-09
7.4237171e-09
7.4172271e-09
7.410873e-09
7.4046166e-09
7.3986721e-09
7.3931796e-09
7.3882018e-09
7.3834924e-09
7.3789741e-09
7.3746622e-09
7.3709483e-09
7.3673299e-09
7.3638258e-09
7.3615308e-09
7.3600059e-09
7.3586451e-09
7.3584142e-09
0.00037440133
0.00091624735
0.0011908353
0.0012493637
0.0010442084
0.00044842219
3.4261575e-06
8.3498648e-09
7.5917614e-09
7.5038586e-09
7.5066504e-09
7.470711e-09
7.4634184e-09
7.4473212e-09
7.4406176e-09
7.4327581e-09
7.4283546e-09
7.4249996e-09
7.4236169e-09
7.4236841e-09
7.4252725e-09
7.4281902e-09
7.4321546e-09
7.436721e-09
7.4413162e-09
7.4452131e-09
7.4479253e-09
7.4489724e-09
7.4482127e-09
7.4458193e-09
7.4419552e-09
7.4369061e-09
7.4309049e-09
7.4243247e-09
7.4176221e-09
7.411129e-09
7.4047568e-09
7.3987388e-09
7.393176e-09
7.3881542e-09
7.3834439e-09
7.3789298e-09
7.3746314e-09
7.3709687e-09
7.3673322e-09
7.3637396e-09
7.361477e-09
7.360103e-09
7.3587363e-09
7.3584294e-09
0.00037212431
0.00090446417
0.0011672031
0.0012104236
0.00099024951
0.00038020172
1.2570518e-06
8.0077476e-09
7.5898484e-09
7.5025644e-09
7.5058435e-09
7.4709909e-09
7.4642232e-09
7.4487277e-09
7.4424519e-09
7.4350539e-09
7.4310417e-09
7.4280755e-09
7.4270506e-09
7.4274539e-09
7.4293342e-09
7.432493e-09
7.4366208e-09
7.4412561e-09
7.4457952e-09
7.4495e-09
7.4518995e-09
7.4524822e-09
7.4512252e-09
7.4483036e-09
7.4439561e-09
7.4384822e-09
7.4321328e-09
7.4252679e-09
7.4183379e-09
7.411652e-09
7.4051416e-09
7.3989924e-09
7.3933345e-09
7.3882547e-09
7.3835237e-09
7.3789968e-09
7.3746936e-09
7.3710646e-09
7.3674025e-09
7.3637278e-09
7.3614956e-09
7.3602356e-09
7.3588725e-09
7.358428e-09
0.00036985849
0.00089275833
0.001144274
0.0011739544
0.00093516931
0.00031689188
4.7100264e-07
7.8043992e-09
7.5886084e-09
7.5016114e-09
7.5057099e-09
7.4716155e-09
7.4653562e-09
7.4504562e-09
7.4445948e-09
7.4376516e-09
7.4340189e-09
7.4314356e-09
7.4307552e-09
7.4314774e-09
7.4336291e-09
7.4369992e-09
7.4412533e-09
7.4459086e-09
7.4503349e-09
7.4537937e-09
7.4558144e-09
7.4558865e-09
7.4540974e-09
7.4506296e-09
7.4457857e-09
7.439891e-09
7.4332004e-09
7.4260676e-09
7.4189156e-09
7.4120498e-09
7.4054123e-09
7.3991555e-09
7.3934142e-09
7.3882821e-09
7.383536e-09
7.379002e-09
7.374702e-09
7.3711074e-09
7.3674171e-09
7.3637031e-09
7.3614644e-09
7.3603187e-09
7.3589823e-09
7.3584337e-09
0.0003676123
0.00088084205
0.0011206046
0.001134972
0.00087767313
0.00025757861
1.8745432e-07
7.6836653e-09
7.5882611e-09
7.5010338e-09
7.5057228e-09
7.4725394e-09
7.466768e-09
7.4524682e-09
7.447016e-09
7.4405294e-09
7.4372808e-09
7.4350829e-09
7.4347546e-09
7.4358015e-09
7.4382313e-09
7.4418138e-09
7.4461919e-09
7.4508547e-09
7.4551474e-09
7.4583381e-09
7.4599332e-09
7.4594708e-09
7.4571076e-09
7.4530609e-09
7.4476931e-09
7.4413555e-09
7.4343109e-09
7.4269015e-09
7.4195267e-09
7.412478e-09
7.4057079e-09
7.3993406e-09
7.3935159e-09
7.3883306e-09
7.3835655e-09
7.3790209e-09
7.374721e-09
7.3711541e-09
7.367428e-09
7.3636955e-09
7.3614805e-09
7.3603953e-09
7.3590509e-09
7.3584305e-09
0.00036540271
0.00086895406
0.0010966389
0.001096626
0.00081802043
0.00020253217
8.3155283e-08
7.6099578e-09
7.5879564e-09
7.5008152e-09
7.5061065e-09
7.4737807e-09
7.4684759e-09
7.4547801e-09
7.4497294e-09
7.4437004e-09
7.4408342e-09
7.4390266e-09
7.439048e-09
7.4404196e-09
7.4431225e-09
7.4469091e-09
7.4513945e-09
7.4560386e-09
7.460165e-09
7.463049e-09
7.4641647e-09
7.4631402e-09
7.460164e-09
7.4555118e-09
7.4496e-09
7.4428076e-09
7.4354037e-09
7.4277136e-09
7.4201119e-09
7.4128755e-09
7.405969e-09
7.3994957e-09
7.3935965e-09
7.3883649e-09
7.3835822e-09
7.379028e-09
7.3747292e-09
7.3711853e-09
7.3674205e-09
7.3636893e-09
7.3614989e-09
7.3604576e-09
7.3590923e-09
7.35842e-09
0.00036325497
0.00085716016
0.0010727295
0.0010578422
0.00075587133
0.00015328326
4.228823e-08
7.5649818e-09
7.588135e-09
7.5009612e-09
7.506703e-09
7.4753305e-09
7.470478e-09
7.4573905e-09
7.4527361e-09
7.4471669e-09
7.4446871e-09
7.4432703e-09
7.4436447e-09
7.4453421e-09
7.4483162e-09
7.4522989e-09
7.4568752e-09
7.461474e-09
7.4654027e-09
7.4679319e-09
7.4685126e-09
7.4668936e-09
7.4632628e-09
7.4579759e-09
7.4514986e-09
7.444238e-09
7.4364697e-09
7.4285024e-09
7.420681e-09
7.4132612e-09
7.4062164e-09
7.3996352e-09
7.3936645e-09
7.3883916e-09
7.3835939e-09
7.3790314e-09
7.3747339e-09
7.3712091e-09
7.3674048e-09
7.3636887e-09
7.3615313e-09
7.3605107e-09
7.3591145e-09
7.3584008e-09
0.00036116166
0.00084529989
0.0010487507
0.0010192089
0.00069165462
0.00010693051
2.4666156e-08
7.5375103e-09
7.5851905e-09
7.5014491e-09
7.5075803e-09
7.4771902e-09
7.472778e-09
7.4603042e-09
7.4560422e-09
7.4509358e-09
7.4488441e-09
7.4478226e-09
7.4485516e-09
7.4505746e-09
7.4538164e-09
7.4579856e-09
7.4626338e-09
7.4671591e-09
7.4708555e-09
7.4729792e-09
7.472982e-09
7.4707301e-09
7.4664107e-09
7.4604633e-09
7.4534023e-09
7.4456628e-09
7.4375259e-09
7.4292782e-09
7.4212343e-09
7.4136274e-09
7.4064385e-09
7.3997497e-09
7.3937119e-09
7.3884025e-09
7.3835947e-09
7.3790263e-09
7.3747316e-09
7.3712229e-09
7.3673796e-09
7.3636899e-09
7.3615639e-09
7.3605559e-09
7.3591201e-09
7.3583734e-09
0.00035910185
0.0008331771
0.0010241909
0.00097934873
0.00062563407
6.6413829e-05
1.6522605e-08
7.5206971e-09
7.5852999e-09
7.5023143e-09
7.5087932e-09
7.4793673e-09
7.4753802e-09
7.463525e-09
7.4596525e-09
7.4550119e-09
7.4533124e-09
7.4526895e-09
7.4537757e-09
7.4561245e-09
7.4596292e-09
7.4639727e-09
7.4686689e-09
7.4730876e-09
7.4765106e-09
7.4781648e-09
7.4775546e-09
7.4746164e-09
7.4695746e-09
7.4629401e-09
7.4552775e-09
7.447049e-09
7.4385415e-09
7.4300193e-09
7.421762e-09
7.4139746e-09
7.4066414e-09
7.3998448e-09
7.3937412e-09
7.3883979e-09
7.3835833e-09
7.379012e-09
7.374722e-09
7.3712266e-09
7.3673395e-09
7.3636909e-09
7.3616004e-09
7.3605965e-09
7.3591134e-09
7.3583385e-09
0.00035704382
0.00082077314
0.00099867548
0.00093797825
0.00055867277
3.5114337e-05
1.2483431e-08
7.5106738e-09
7.5849997e-09
7.5035467e-09
7.5104808e-09
7.4818708e-09
7.4782876e-09
7.467057e-09
7.4635718e-09
7.4594016e-09
7.4580985e-09
7.4578791e-09
7.4593246e-09
7.4619981e-09
7.4657604e-09
7.4702645e-09
7.474984e-09
7.4792632e-09
7.4823683e-09
7.4834918e-09
7.4822336e-09
7.478562e-09
7.4727671e-09
7.4654229e-09
7.4571439e-09
7.4484191e-09
7.4395398e-09
7.4307431e-09
7.4222718e-09
7.4143012e-09
7.4068186e-09
7.3999145e-09
7.3937499e-09
7.3883766e-09
7.3835584e-09
7.3789888e-09
7.3747062e-09
7.371221e-09
7.3672815e-09
7.3636881e-09
7.3616369e-09
7.3606339e-09
7.3591003e-09
7.3582956e-09
0.00035502714
0.0008083015
0.00097213693
0.00089719615
0.0004917363
1.5675506e-05
1.0376471e-08
7.5049271e-09
7.5851226e-09
7.5051404e-09
7.5126138e-09
7.4847068e-09
7.4815053e-09
7.4709064e-09
7.4678088e-09
7.4641128e-09
7.4632109e-09
7.4633991e-09
7.465206e-09
7.4682028e-09
7.4722149e-09
7.4768621e-09
7.481574e-09
7.4856785e-09
7.488403e-09
7.4889346e-09
7.4869819e-09
7.482526e-09
7.4759442e-09
7.4678683e-09
7.4589588e-09
7.449731e-09
7.4404806e-09
7.4314195e-09
7.4227482e-09
7.4146047e-09
7.4069743e-09
7.3999621e-09
7.3937387e-09
7.3883376e-09
7.3835194e-09
7.3789565e-09
7.3746843e-09
7.3712066e-09
7.3672159e-09
7.3636821e-09
7.3616719e-09
7.3606698e-09
7.3590851e-09
7.3582424e-09
0.00035306955
0.00079610339
0.00094686053
0.00085621375
0.00042553486
6.1005276e-06
9.2271996e-09
7.5018956e-09
7.5855631e-09
7.5071008e-09
7.5149789e-09
7.4878825e-09
7.4850467e-09
7.4750843e-09
7.4723729e-09
7.4691547e-09
7.4686584e-09
7.4692585e-09
7.4714282e-09
7.4747455e-09
7.4789983e-09
7.483769e-09
7.4884423e-09
7.4923331e-09
7.4946127e-09
7.4945028e-09
7.4918036e-09
7.4865218e-09
7.4791243e-09
7.4702985e-09
7.4607483e-09
7.451014e-09
7.4413943e-09
7.4320718e-09
7.4232023e-09
7.4148848e-09
7.4071018e-09
7.3999826e-09
7.3937079e-09
7.3882823e-09
7.3834669e-09
7.378917e-09
7.3746564e-09
7.371184e-09
7.3671434e-09
7.3636735e-09
7.3617042e-09
7.3607049e-09
7.3590701e-09
7.3581761e-09
0.00035109527
0.00078367488
0.00092105428
0.00081423377
0.00036109853
2.1948142e-06
8.5859673e-09
7.5006971e-09
7.5866355e-09
7.5094511e-09
7.5173143e-09
7.4913969e-09
7.4889229e-09
7.4795997e-09
7.477274e-09
7.474536e-09
7.47445e-09
7.4754655e-09
7.4779992e-09
7.481633e-09
7.4861141e-09
7.4909835e-09
7.4955799e-09
7.4992113e-09
7.5009669e-09
7.50017e-09
7.4966585e-09
7.4905081e-09
7.4822649e-09
7.472672e-09
7.4624718e-09
7.4522274e-09
7.4422418e-09
7.4326696e-09
7.4236181e-09
7.4151386e-09
7.4072052e-09
7.3999803e-09
7.3936615e-09
7.388213e-09
7.3834002e-09
7.3788701e-09
7.3746223e-09
7.3711548e-09
7.3670612e-09
7.3636609e-09
7.3617342e-09
7.3607389e-09
7.3590554e-09
7.3581016e-09
0.00034907196
0.00077091708
0.00089454404
0.00077064878
0.00030066711
7.7992081e-07
8.2250761e-09
7.5007493e-09
7.5877591e-09
7.5121939e-09
7.5196842e-09
7.4952491e-09
7.4931443e-09
7.4844624e-09
7.4825215e-09
7.480267e-09
7.4805955e-09
7.4820289e-09
7.4849271e-09
7.488872e-09
7.4935676e-09
7.4985086e-09
7.502991e-09
7.5063105e-09
7.5074656e-09
7.5059358e-09
7.5015525e-09
7.4944949e-09
7.4853814e-09
7.4750083e-09
7.4641526e-09
7.453399e-09
7.4430523e-09
7.4332362e-09
7.4240067e-09
7.4153658e-09
7.4072787e-09
7.3999539e-09
7.3935995e-09
7.3881294e-09
7.3833132e-09
7.3788088e-09
7.3745834e-09
7.3711192e-09
7.3669693e-09
7.3636443e-09
7.3617622e-09
7.3607735e-09
7.359039e-09
7.3580224e-09
0.00034699399
0.00075791381
0.00086738163
0.0007250801
0.00024380842
2.8866925e-07
8.0207242e-09
7.5017497e-09
7.5892855e-09
7.5153392e-09
7.5227757e-09
7.4994589e-09
7.4977172e-09
7.4896795e-09
7.4881252e-09
7.4863569e-09
7.487106e-09
7.488955e-09
7.4922201e-09
7.4964673e-09
7.5013626e-09
7.5063374e-09
7.5106709e-09
7.5135982e-09
7.5140857e-09
7.5117571e-09
7.5064394e-09
7.498433e-09
7.4884247e-09
7.4772606e-09
7.4657456e-09
7.4544823e-09
7.4437804e-09
7.4337358e-09
7.4243488e-09
7.4155626e-09
7.4073269e-09
7.3999055e-09
7.3935115e-09
7.3880211e-09
7.3831965e-09
7.3787239e-09
7.3745422e-09
7.3710746e-09
7.3668676e-09
7.3636238e-09
7.3617893e-09
7.3608096e-09
7.3590192e-09
7.3579359e-09
0.00034488556
0.00074482816
0.00083965878
0.00067861856
0.00019020162
1.1774163e-07
7.901627e-09
7.50351e-09
7.5910424e-09
7.5188999e-09
7.527035e-09
7.5040679e-09
7.50265e-09
7.4952613e-09
7.4940939e-09
7.49282e-09
7.4939838e-09
7.4962551e-09
7.4998844e-09
7.5044278e-09
7.5094996e-09
7.5144768e-09
7.5186127e-09
7.5210716e-09
7.5208293e-09
7.5176329e-09
7.5113278e-09
7.5023368e-09
7.491415e-09
7.4794533e-09
7.4672795e-09
7.4555122e-09
7.4444631e-09
7.4341978e-09
7.4246589e-09
7.415729e-09
7.4073463e-09
7.3998222e-09
7.3934018e-09
7.3878986e-09
7.3830609e-09
7.3786231e-09
7.3744966e-09
7.3710076e-09
7.3667569e-09
7.3636002e-09
7.3618158e-09
7.3608478e-09
7.3589961e-09
7.3578422e-09
0.00034279203
0.00073191349
0.00081151653
0.00063005839
0.00014032201
5.5101346e-08
7.8320275e-09
7.5059367e-09
7.5932337e-09
7.5228924e-09
7.5317055e-09
7.5090809e-09
7.5079529e-09
7.5012129e-09
7.5004395e-09
7.4996566e-09
7.501243e-09
7.5039385e-09
7.5079293e-09
7.5127585e-09
7.5179788e-09
7.5229187e-09
7.5268008e-09
7.5286977e-09
7.527666e-09
7.5235177e-09
7.5161708e-09
7.5061588e-09
7.4943059e-09
7.4815427e-09
7.4687125e-09
7.4564454e-09
7.4450575e-09
7.434588e-09
7.4249186e-09
7.4158621e-09
7.4073424e-09
7.3997048e-09
7.3932796e-09
7.3877666e-09
7.382907e-09
7.3785035e-09
7.3744342e-09
7.3709247e-09
7.3666392e-09
7.3635743e-09
7.3618422e-09
7.3608877e-09
7.358971e-09
7.3577428e-09
0.00034080563
0.00071947064
0.00078413998
0.00057907622
9.644997e-05
3.012261e-08
7.7908101e-09
7.5089859e-09
7.5957272e-09
7.5272978e-09
7.5359572e-09
7.5144607e-09
7.5136252e-09
7.5075385e-09
7.5071645e-09
7.5068785e-09
7.5088933e-09
7.5120135e-09
7.5163643e-09
7.5214638e-09
7.5268043e-09
7.5316639e-09
7.5352293e-09
7.5364707e-09
7.5345886e-09
7.5294122e-09
7.5209736e-09
7.5099106e-09
7.4971152e-09
7.4835507e-09
7.470071e-09
7.4573146e-09
7.4455998e-09
7.4349362e-09
7.4251411e-09
7.415963e-09
7.4073053e-09
7.3995681e-09
7.3931371e-09
7.3876224e-09
7.3827343e-09
7.3783615e-09
7.3743578e-09
7.3708331e-09
7.3665192e-09
7.3635472e-09
7.3618676e-09
7.3609281e-09
7.358944e-09
7.3576366e-09
0.00033891562
0.00070732526
0.00075927325
0.00052570871
5.820549e-05
1.9052528e-08
7.7664055e-09
7.512581e-09
7.5985973e-09
7.5320824e-09
7.5397574e-09
7.5201805e-09
7.5196733e-09
7.5142449e-09
7.5142789e-09
7.5144959e-09
7.5169455e-09
7.5204922e-09
7.5251974e-09
7.5305484e-09
7.5359736e-09
7.5407041e-09
7.5438687e-09
7.5443586e-09
7.5415533e-09
7.5352645e-09
7.5256817e-09
7.5135387e-09
7.4997925e-09
7.4854314e-09
7.4713112e-09
7.4580738e-09
7.4460432e-09
7.4352027e-09
7.4253044e-09
7.4160301e-09
7.4072244e-09
7.3994038e-09
7.3929759e-09
7.3874681e-09
7.3825458e-09
7.3781969e-09
7.3742726e-09
7.3707219e-09
7.366402e-09
7.3635192e-09
7.3618911e-09
7.3609665e-09
7.3589167e-09
7.3575219e-09
0.00033706246
0.00069489395
0.00073231719
0.00046985931
3.0023367e-05
1.3789965e-08
7.752215e-09
7.5167057e-09
7.6017691e-09
7.537251e-09
7.5443775e-09
7.5262642e-09
7.5261056e-09
7.5213431e-09
7.5217949e-09
7.5225232e-09
7.5254118e-09
7.5293849e-09
7.5344364e-09
7.5400161e-09
7.5454882e-09
7.5500338e-09
7.5527028e-09
7.5523648e-09
7.548546e-09
7.5410768e-09
7.5303041e-09
7.5170596e-09
7.5023598e-09
7.4872107e-09
7.4724643e-09
7.4587622e-09
7.4464301e-09
7.435419e-09
7.4254267e-09
7.4160609e-09
7.4071151e-09
7.3992128e-09
7.3927944e-09
7.3873033e-09
7.382345e-09
7.3780111e-09
7.374173e-09
7.3705889e-09
7.3662918e-09
7.3634898e-09
7.3619111e-09
7.3610009e-09
7.3588807e-09
7.357398e-09
0.00033534439
0.00068265185
0.00070593351
0.00041265669
1.3137934e-05
1.1116925e-08
7.744212e-09
7.5213639e-09
7.6053082e-09
7.5428429e-09
7.5504014e-09
7.5327712e-09
7.5329389e-09
7.5288486e-09
7.5297292e-09
7.5309724e-09
7.5343051e-09
7.5387027e-09
7.5440887e-09
7.5498678e-09
7.5553418e-09
7.5596333e-09
7.5616994e-09
7.5604481e-09
7.5555166e-09
7.5467963e-09
7.5347885e-09
7.5204234e-09
7.5047714e-09
7.4888472e-09
7.4734903e-09
7.4593376e-09
7.4467124e-09
7.4355502e-09
7.4254928e-09
7.4160311e-09
7.4069797e-09
7.3989955e-09
7.3925914e-09
7.3871274e-09
7.3821357e-09
7.377807e-09
7.3740581e-09
7.37044e-09
7.3661846e-09
7.3634575e-09
7.3619263e-09
7.36103e-09
7.3588376e-09
7.3572645e-09
0.00033366762
0.00067012803
0.00067882747
0.00035498678
5.0595566e-06
9.6977186e-09
7.7400153e-09
7.5265969e-09
7.6092328e-09
7.5488974e-09
7.5570622e-09
7.5397323e-09
7.5401926e-09
7.5367781e-09
7.5380953e-09
7.5398592e-09
7.5436379e-09
7.5484555e-09
7.5541603e-09
7.5601062e-09
7.5655322e-09
7.5694928e-09
7.5708427e-09
7.5685962e-09
7.5624562e-09
7.552421e-09
7.5391414e-09
7.5236443e-09
7.5070464e-09
7.4903637e-09
7.474418e-09
7.4598324e-09
7.446928e-09
7.4356357e-09
7.4254963e-09
7.4159597e-09
7.4068101e-09
7.3987541e-09
7.3923667e-09
7.386938e-09
7.3819209e-09
7.377589e-09
7.3739265e-09
7.3702817e-09
7.3660787e-09
7.3634224e-09
7.3619368e-09
7.3610538e-09
7.3587878e-09
7.3571207e-09
0.00033194013
0.00065650902
0.00065091928
0.00029921036
1.8266317e-06
8.9192396e-09
7.7381385e-09
7.5324786e-09
7.6135881e-09
7.5554248e-09
7.5636518e-09
7.5471349e-09
7.5478814e-09
7.5451449e-09
7.5469087e-09
7.5491955e-09
7.5534224e-09
7.5586549e-09
7.5646554e-09
7.5707324e-09
7.5760472e-09
7.5795834e-09
7.5800926e-09
7.5767629e-09
7.5693064e-09
7.557891e-09
7.5433058e-09
7.5266697e-09
7.5091385e-09
7.4917197e-09
7.4752066e-09
7.4602005e-09
7.4470381e-09
7.4356142e-09
7.4254257e-09
7.4158455e-09
7.4066068e-09
7.3984889e-09
7.392119e-09
7.3867325e-09
7.3817025e-09
7.3773616e-09
7.3737788e-09
7.3701181e-09
7.3659749e-09
7.3633853e-09
7.3619434e-09
7.3610737e-09
7.3587308e-09
7.3569665e-09
0.00033007354
0.00064182242
0.00062157691
0.00024655982
6.5649016e-07
8.4790917e-09
7.7378304e-09
7.5390209e-09
7.6183609e-09
7.5624032e-09
7.569965e-09
7.5549617e-09
7.5560195e-09
7.5539621e-09
7.5561816e-09
7.5589957e-09
7.5636724e-09
7.5693074e-09
7.575581e-09
7.5817422e-09
7.5868819e-09
7.5898736e-09
7.5894524e-09
7.5849183e-09
7.5760601e-09
7.5632081e-09
7.5472931e-09
7.5295187e-09
7.5110706e-09
7.4929413e-09
7.4758839e-09
7.4604841e-09
7.4470819e-09
7.4355353e-09
7.4253203e-09
7.4156783e-09
7.4063676e-09
7.3982033e-09
7.3918488e-09
7.386506e-09
7.3814802e-09
7.3771298e-09
7.3736152e-09
7.3699494e-09
7.3658769e-09
7.3633503e-09
7.3619479e-09
7.3610919e-09
7.358666e-09
7.3568015e-09
0.00032797787
0.00062563342
0.00058908815
0.00019603759
2.4944701e-07
8.2301885e-09
7.7390994e-09
7.5463558e-09
7.6235455e-09
7.5698387e-09
7.5765467e-09
7.5632108e-09
7.5646161e-09
7.5632404e-09
7.5659274e-09
7.569272e-09
7.5744001e-09
7.5804231e-09
7.5869399e-09
7.5931313e-09
7.5980152e-09
7.6003307e-09
7.5988702e-09
7.5930087e-09
7.5826577e-09
7.5683152e-09
7.5510512e-09
7.5321451e-09
7.5128033e-09
7.493991e-09
7.4764152e-09
7.4606531e-09
7.4469974e-09
7.4353946e-09
7.425134e-09
7.415456e-09
7.4060911e-09
7.397897e-09
7.3915563e-09
7.3862549e-09
7.3812514e-09
7.3768967e-09
7.3734364e-09
7.3697724e-09
7.3657875e-09
7.3633224e-09
7.3619529e-09
7.36111e-09
7.3585924e-09
7.356626e-09
0.00032561451
0.00060791507
0.00055138567
0.00014821135
1.0563362e-07
8.0882594e-09
7.7412346e-09
7.5547326e-09
7.6291117e-09
7.5777453e-09
7.584225e-09
7.5719228e-09
7.5736844e-09
7.5729933e-09
7.5761589e-09
7.5800421e-09
7.5856157e-09
7.5920107e-09
7.5987316e-09
7.6048961e-09
7.6094286e-09
7.6109279e-09
7.608323e-09
7.6010123e-09
7.5890881e-09
7.5732123e-09
7.5545904e-09
7.534567e-09
7.5143575e-09
7.4948889e-09
7.4768355e-09
7.4607224e-09
7.4468911e-09
7.4351799e-09
7.4248881e-09
7.4151771e-09
7.4057765e-09
7.3975733e-09
7.3912431e-09
7.3859745e-09
7.3810117e-09
7.3766642e-09
7.3732423e-09
7.3695798e-09
7.3657073e-09
7.3633083e-09
7.3619612e-09
7.3611289e-09
7.3585091e-09
7.3564398e-09
0.00032304695
0.00058925859
0.00050946716
0.00010454558
5.160017e-08
8.0071097e-09
7.7434377e-09
7.5651105e-09
7.6349928e-09
7.5861453e-09
7.5930122e-09
7.581144e-09
7.5832364e-09
7.5832348e-09
7.5868948e-09
7.5913174e-09
7.5973341e-09
7.6040778e-09
7.6109585e-09
7.617027e-09
7.6210833e-09
7.6216283e-09
7.6177473e-09
7.6088685e-09
7.595285e-09
7.5778385e-09
7.5578571e-09
7.5367395e-09
7.5156945e-09
7.4956067e-09
7.4771232e-09
7.4606772e-09
7.4466676e-09
7.434876e-09
7.4245703e-09
7.4148374e-09
7.4054204e-09
7.3972303e-09
7.3909112e-09
7.3856626e-09
7.3807549e-09
7.3764318e-09
7.373033e-09
7.3693635e-09
7.3656329e-09
7.3633129e-09
7.3619778e-09
7.3611476e-09
7.358415e-09
7.3562433e-09
0.00032030743
0.00056994902
0.00046394548
6.8340856e-05
2.9380984e-08
7.9607163e-09
7.7459386e-09
7.5764151e-09
7.6412771e-09
7.5950493e-09
7.6021679e-09
7.5908759e-09
7.5932877e-09
7.5939823e-09
7.5981495e-09
7.603116e-09
7.6095662e-09
7.6166286e-09
7.6236176e-09
7.6295078e-09
7.6329404e-09
7.6324217e-09
7.6271055e-09
7.6165538e-09
7.6012419e-09
7.5822001e-09
7.5608684e-09
7.5386841e-09
7.5168353e-09
7.4961788e-09
7.4772816e-09
7.4605788e-09
7.4463728e-09
7.4345134e-09
7.4241891e-09
7.4144384e-09
7.4050237e-09
7.3968702e-09
7.3905628e-09
7.385318e-09
7.3804748e-09
7.3761973e-09
7.372808e-09
7.3691167e-09
7.3655548e-09
7.3633343e-09
7.3620095e-09
7.3611635e-09
7.3583087e-09
7.3560376e-09
0.00031728731
0.00054970509
0.00041959088
3.8887767e-05
1.9167817e-08
7.9346233e-09
7.748757e-09
7.5882609e-09
7.6480506e-09
7.6044472e-09
7.6111726e-09
7.6010966e-09
7.6038606e-09
7.6052558e-09
7.6099446e-09
7.6154531e-09
7.6223243e-09
7.6296677e-09
7.636703e-09
7.6423133e-09
7.6449603e-09
7.6432422e-09
7.6363309e-09
7.6239995e-09
7.6068951e-09
7.5862418e-09
7.5635773e-09
7.54036e-09
7.5177528e-09
7.4965869e-09
7.4772943e-09
7.4603434e-09
7.4459879e-09
7.4340705e-09
7.4237355e-09
7.4139767e-09
7.4045823e-09
7.3964894e-09
7.3902003e-09
7.3849429e-09
7.3801663e-09
7.3759569e-09
7.3725671e-09
7.3688385e-09
7.3654624e-09
7.3633621e-09
7.3620648e-09
7.3611704e-09
7.3581893e-09
7.3558245e-09
0.00031394523
0.00052704856
0.00037368816
1.8994261e-05
1.4175508e-08
7.9208071e-09
7.7519183e-09
7.600506e-09
7.6554878e-09
7.614339e-09
7.6202717e-09
7.6118117e-09
7.6149798e-09
7.6170796e-09
7.6222999e-09
7.6283471e-09
7.6356176e-09
7.643196e-09
7.6502065e-09
7.655416e-09
7.6571062e-09
7.6540527e-09
7.6453919e-09
7.6311835e-09
7.6122388e-09
7.5899718e-09
7.5660002e-09
7.5417857e-09
7.5184784e-09
7.496819e-09
7.4772105e-09
7.4600261e-09
7.4455386e-09
7.4335639e-09
7.4232166e-09
7.4134562e-09
7.4040998e-09
7.3960882e-09
7.3898251e-09
7.3845409e-09
7.379827e-09
7.3757069e-09
7.3723094e-09
7.3685348e-09
7.3653543e-09
7.3633791e-09
7.3621462e-09
7.3611641e-09
7.358056e-09
7.3556063e-09
0.00031099266
0.00050757013
0.0003271046
8.0855448e-06
1.1603116e-08
7.9144146e-09
7.7554828e-09
7.6126795e-09
7.6636203e-09
7.6247671e-09
7.6304159e-09
7.6230788e-09
7.6266739e-09
7.6294777e-09
7.635241e-09
7.6418075e-09
7.6494545e-09
7.6572114e-09
7.6641171e-09
7.6687589e-09
7.6693388e-09
7.6647669e-09
7.6542208e-09
7.6380289e-09
7.6172067e-09
7.5933347e-09
7.5680911e-09
7.5429343e-09
7.5189957e-09
7.496855e-09
7.476972e-09
7.4596105e-09
7.4450106e-09
7.4329861e-09
7.4226282e-09
7.4128747e-09
7.4035728e-09
7.3956619e-09
7.3894379e-09
7.384119e-09
7.3794583e-09
7.3754435e-09
7.3720328e-09
7.3682159e-09
7.3652411e-09
7.3633921e-09
7.3622384e-09
7.3611472e-09
7.3579081e-09
7.3553864e-09
0.00030807636
0.00048717027
0.00027979846
3.1199597e-06
1.0191467e-08
7.9125842e-09
7.7595553e-09
7.6241985e-09
7.6723132e-09
7.6357831e-09
7.6417504e-09
7.6349694e-09
7.638966e-09
7.6424824e-09
7.6487744e-09
7.6558521e-09
7.6638373e-09
7.6717129e-09
7.6784041e-09
7.6823024e-09
7.6816227e-09
7.67534e-09
7.6627751e-09
7.6445212e-09
7.6218013e-09
7.5963451e-09
7.569872e-09
7.5438433e-09
7.5192882e-09
7.4967573e-09
7.4766237e-09
7.459114e-09
7.4444196e-09
7.4323452e-09
7.4219747e-09
7.4122396e-09
7.4030088e-09
7.3952099e-09
7.3890371e-09
7.3836839e-09
7.3790656e-09
7.3751638e-09
7.3717304e-09
7.3678971e-09
7.3651337e-09
7.3634087e-09
7.3623338e-09
7.3611277e-09
7.3577446e-09
7.3551638e-09
0.00030542982
0.00046630793
0.00023258931
1.1510408e-06
9.4038876e-09
7.9136982e-09
7.7641989e-09
7.6358204e-09
7.6816421e-09
7.647413e-09
7.6534781e-09
7.6474838e-09
7.6518869e-09
7.6560992e-09
7.6629258e-09
7.6704932e-09
7.6787703e-09
7.6866915e-09
7.6930358e-09
7.6959906e-09
7.6938801e-09
7.6856891e-09
7.6709765e-09
7.6505887e-09
7.6259635e-09
7.5989553e-09
7.5713153e-09
7.5444945e-09
7.5193327e-09
7.4964724e-09
7.4761473e-09
7.4585282e-09
7.4437648e-09
7.4316435e-09
7.4212565e-09
7.4115494e-09
7.4024068e-09
7.3947289e-09
7.3886204e-09
7.383243e-09
7.3786575e-09
7.3748661e-09
7.3713935e-09
7.3675933e-09
7.3650362e-09
7.3634305e-09
7.3624314e-09
7.3611009e-09
7.3575646e-09
7.354938e-09
0.0003032227
0.00044471632
0.00018601878
4.2957293e-07
8.9603252e-09
7.9166357e-09
7.7693901e-09
7.6478064e-09
7.6915912e-09
7.6596541e-09
7.665364e-09
7.660607e-09
7.6654508e-09
7.6703573e-09
7.6777135e-09
7.6857384e-09
7.6942558e-09
7.7021293e-09
7.7079706e-09
7.7097753e-09
7.7060507e-09
7.6957658e-09
7.6787884e-09
7.6562197e-09
7.6296982e-09
7.6011829e-09
7.5724579e-09
7.5448622e-09
7.5192032e-09
7.4960376e-09
7.4755563e-09
7.4578627e-09
7.4430479e-09
7.4308796e-09
7.4204751e-09
7.4108134e-09
7.4017773e-09
7.3942196e-09
7.3881831e-09
7.3828011e-09
7.378245e-09
7.3745498e-09
7.3710116e-09
7.3673144e-09
7.3649462e-09
7.3634572e-09
7.3625318e-09
7.3610672e-09
7.3573676e-09
7.3547111e-09
0.00030159116
0.00042344056
0.00014163555
1.7417748e-07
8.7000053e-09
7.9209019e-09
7.775183e-09
7.6602567e-09
7.7021917e-09
7.6725145e-09
7.6779406e-09
7.6743703e-09
7.6796844e-09
7.6852741e-09
7.6931521e-09
7.7015984e-09
7.7102912e-09
7.7180074e-09
7.7231346e-09
7.7236054e-09
7.7180341e-09
7.705477e-09
7.6861301e-09
7.6613413e-09
7.6329481e-09
7.6029941e-09
7.573276e-09
7.5449221e-09
7.5188471e-09
7.4954388e-09
7.4748481e-09
7.4571252e-09
7.4422877e-09
7.4300714e-09
7.4196372e-09
7.4100304e-09
7.4011214e-09
7.3936826e-09
7.3877211e-09
7.3823604e-09
7.3778378e-09
7.3742165e-09
7.3705963e-09
7.3670462e-09
7.364858e-09
7.3634876e-09
7.3626352e-09
7.3610019e-09
7.357154e-09
7.3544865e-09
0.00030018558
0.00039853628
9.9926916e-05
7.9640037e-08
8.5436756e-09
7.9263361e-09
7.7816452e-09
7.6732411e-09
7.713474e-09
7.6860256e-09
7.6914987e-09
7.6888223e-09
7.6946048e-09
7.7008749e-09
7.7092558e-09
7.7180765e-09
7.7268661e-09
7.7342836e-09
7.7384755e-09
7.737414e-09
7.7297622e-09
7.7147712e-09
7.6929715e-09
7.6659519e-09
7.6357304e-09
7.6044296e-09
7.5737432e-09
7.5447652e-09
7.518303e-09
7.4946919e-09
7.4740306e-09
7.4563087e-09
7.4414671e-09
7.4292053e-09
7.4187419e-09
7.4092103e-09
7.4004505e-09
7.3931221e-09
7.3872299e-09
7.3819194e-09
7.3774427e-09
7.3738678e-09
7.3701552e-09
7.3667796e-09
7.364766e-09
7.3635187e-09
7.3627386e-09
7.360908e-09
7.3569252e-09
7.354267e-09
0.00029898602
0.00037071273
6.3537221e-05
4.2203035e-08
8.4465929e-09
7.9328519e-09
7.7888268e-09
7.6868128e-09
7.7254674e-09
7.7002182e-09
7.7057499e-09
7.7039839e-09
7.7102418e-09
7.7171754e-09
7.7260384e-09
7.7351757e-09
7.7439658e-09
7.7509089e-09
7.7539158e-09
7.7510996e-09
7.741133e-09
7.7235487e-09
7.6992317e-09
7.6699885e-09
7.6380086e-09
7.6054638e-09
7.5738331e-09
7.5443346e-09
7.5175567e-09
7.4937934e-09
7.4731069e-09
7.4554312e-09
7.4406166e-09
7.4283094e-09
7.4178005e-09
7.4083512e-09
7.3997652e-09
7.3925427e-09
7.3867079e-09
7.3814736e-09
7.377061e-09
7.3735033e-09
7.3696957e-09
7.3665125e-09
7.3646659e-09
7.363543e-09
7.3628369e-09
7.3607802e-09
7.3566831e-09
7.3540554e-09
0.00029773833
0.00033909059
3.6223714e-05
2.6006165e-08
8.384042e-09
7.9404379e-09
7.7967589e-09
7.7010198e-09
7.7381863e-09
7.7150944e-09
7.7205701e-09
7.7198668e-09
7.7266161e-09
7.7342024e-09
7.7435111e-09
7.7528933e-09
7.7615632e-09
7.767813e-09
7.7693954e-09
7.7645727e-09
7.7520759e-09
7.7317627e-09
7.7048909e-09
7.67346e-09
7.6398201e-09
7.6060671e-09
7.573651e-09
7.5436693e-09
7.5166275e-09
7.4927564e-09
7.472078e-09
7.4544736e-09
7.4397055e-09
7.4273619e-09
7.4168109e-09
7.4074617e-09
7.3990735e-09
7.3919504e-09
7.3861547e-09
7.3810168e-09
7.3766873e-09
7.3731165e-09
7.369227e-09
7.3662494e-09
7.3645569e-09
7.3635529e-09
7.3629102e-09
7.3606116e-09
7.3564303e-09
7.3538535e-09
0.00029622714
0.00030403064
1.8283876e-05
1.8260891e-08
8.3418184e-09
7.9491495e-09
7.805451e-09
7.7159044e-09
7.7516359e-09
7.730641e-09
7.7361046e-09
7.7365211e-09
7.7437639e-09
7.7519732e-09
7.7616811e-09
7.7712231e-09
7.7796119e-09
7.7849072e-09
7.7848291e-09
7.7777098e-09
7.762466e-09
7.7393232e-09
7.7098684e-09
7.676318e-09
7.6411336e-09
7.6062049e-09
7.5731344e-09
7.542756e-09
7.5155131e-09
7.4915838e-09
7.4709596e-09
7.4534701e-09
7.4387794e-09
7.4264013e-09
7.4157907e-09
7.4065399e-09
7.3983719e-09
7.3913505e-09
7.3855741e-09
7.3805427e-09
7.3763109e-09
7.3726942e-09
7.3687611e-09
7.3660025e-09
7.3644472e-09
7.3635406e-09
7.3629381e-09
7.3603952e-09
7.3561697e-09
7.3536626e-09
0.00029398197
0.00026478677
8.2678651e-06
1.4278712e-08
8.31202e-09
7.9587627e-09
7.8149411e-09
7.7315565e-09
7.7658418e-09
7.7469606e-09
7.7523864e-09
7.7539853e-09
7.7617126e-09
7.7705074e-09
7.7805525e-09
7.7901398e-09
7.7980586e-09
7.8021056e-09
7.8001165e-09
7.7904154e-09
7.7722417e-09
7.7461841e-09
7.7141665e-09
7.6785987e-09
7.6419226e-09
7.6060042e-09
7.5723277e-09
7.54162e-09
7.5142324e-09
7.490286e-09
7.4697414e-09
7.452384e-09
7.4377897e-09
7.4253964e-09
7.4147366e-09
7.4055939e-09
7.3976623e-09
7.3907457e-09
7.3849715e-09
7.3800475e-09
7.3759173e-09
7.3722167e-09
7.3683145e-09
7.3657808e-09
7.3643582e-09
7.3635143e-09
7.3629422e-09
7.3601254e-09
7.3559046e-09
7.3534836e-09
0.00029085514
0.00021730277
3.5477353e-06
1.2127387e-08
8.290099e-09
7.9691014e-09
7.8253454e-09
7.748171e-09
7.7808875e-09
7.7641263e-09
7.7697728e-09
7.7722825e-09
7.7804909e-09
7.7898147e-09
7.8001201e-09
7.8096115e-09
7.8168173e-09
7.8193109e-09
7.815117e-09
7.8025557e-09
7.7812779e-09
7.7522561e-09
7.7177296e-09
7.6802695e-09
7.6421417e-09
7.6053958e-09
7.5712178e-09
7.5402582e-09
7.5127851e-09
7.4888699e-09
7.4684469e-09
7.4512573e-09
7.4367862e-09
7.4243866e-09
7.4136687e-09
7.4046237e-09
7.3969367e-09
7.3901364e-09
7.384354e-09
7.3795299e-09
7.3754934e-09
7.3716664e-09
7.3679055e-09
7.3655855e-09
7.3642896e-09
7.3634919e-09
7.3629227e-09
7.3597991e-09
7.3556379e-09
7.3533177e-09
0.0002880749
0.00018076366
1.5818657e-06
1.0897428e-08
8.2729945e-09
7.9803959e-09
7.8367689e-09
7.766067e-09
7.796849e-09
7.7821688e-09
7.7880143e-09
7.79145e-09
7.8001139e-09
7.809905e-09
7.8203657e-09
7.8295886e-09
7.8357654e-09
7.8364559e-09
7.8296967e-09
7.814033e-09
7.789516e-09
7.7575198e-09
7.7205854e-09
7.6813036e-09
7.6419392e-09
7.6044296e-09
7.5698347e-09
7.5386926e-09
7.5111886e-09
7.4873426e-09
7.4670602e-09
7.4500463e-09
7.4357133e-09
7.4233357e-09
7.4125834e-09
7.403638e-09
7.3961928e-09
7.3895183e-09
7.3837286e-09
7.3789926e-09
7.3750313e-09
7.3710692e-09
7.3675252e-09
7.3654078e-09
7.3642402e-09
7.3635062e-09