# p  FACE_DATA 150
# x y z  p
0.29576437 -0.05 -0.059999701 21752.876
0.28738431 -0.05 -0.059968924 21748.994
0.27918472 -0.05 -0.059906283 21748.736
0.27116186 -0.05 -0.05981265 21751.391
0.26331203 -0.05 -0.059689027 21757.505
0.25563166 -0.05 -0.059536266 21767.506
0.24811723 -0.05 -0.059355154 21781.522
0.24076528 -0.05 -0.059146557 21799.385
0.23357246 -0.05 -0.058911358 21820.946
0.22653546 -0.05 -0.058650342 21846.524
0.21965107 -0.05 -0.058364201 21875.973
0.21291613 -0.05 -0.058053757 21908.817
0.20632755 -0.05 -0.057719714 21945.499
0.19988232 -0.05 -0.057362759 21985
0.19357748 -0.05 -0.056983702 22027.928
0.18741014 -0.05 -0.056583118 22074.903
0.18137746 -0.05 -0.056161624 22125.966
0.17547671 -0.05 -0.055719844 22181.443
0.16970518 -0.05 -0.055258362 22240.441
0.16406021 -0.05 -0.05477783 22302.855
0.15853921 -0.05 -0.054278745 22369.137
0.15313968 -0.05 -0.053761636 22439.025
0.14785914 -0.05 -0.053226963 22513.475
0.14269518 -0.05 -0.052675258 22591.615
0.13764543 -0.05 -0.052106992 22673.827
0.13270762 -0.05 -0.051522466 22758.23
0.12787949 -0.05 -0.050922169 22845.572
0.12315883 -0.05 -0.050306449 22937.942
0.11854353 -0.05 -0.049675629 23033.562
0.11403148 -0.05 -0.04903008 23132.547
0.10962066 -0.05 -0.04837006 23235.615
0.10530909 -0.05 -0.047695796 23342.71
0.10109483 -0.05 -0.047007509 23453.602
0.096976017 -0.05 -0.046305459 23568.204
0.092950808 -0.05 -0.04558984 23687.463
0.08901745 -0.05 -0.044860715 23812.749
0.085174232 -0.05 -0.044118143 23944.675
0.081419479 -0.05 -0.043362242 24083.875
0.077751578 -0.05 -0.042593081 24230.327
0.074168981 -0.05 -0.041810614 24382.767
0.070670198 -0.05 -0.041014781 24540.167
0.06725379 -0.05 -0.040205491 24703.412
0.06391837 -0.05 -0.039382651 24872.925
0.060662655 -0.05 -0.038545988 25050.247
0.057485397 -0.05 -0.037695273 25234.611
0.054385414 -0.05 -0.036830261 25427.533
0.051361622 -0.05 -0.035950545 25628.915
0.048412992 -0.05 -0.035055749 25839.874
0.045538629 -0.05 -0.034145316 26061.603
0.042737712 -0.05 -0.03321865 26293.934
0.040009498 -0.05 -0.032275149 26536.779
0.037353406 -0.05 -0.031314032 26791.252
0.034768993 -0.05 -0.030334375 27059.987
0.032255944 -0.05 -0.029335211 27346.681
0.029814132 -0.05 -0.028315426 27652.54
0.027443661 -0.05 -0.027273729 27976.788
0.025144824 -0.05 -0.026208776 28322.056
0.022918276 -0.05 -0.02511886 28691.072
0.020764984 -0.05 -0.02400217 29082.236
0.018686283 -0.05 -0.022856725 29500.343
0.016684024 -0.05 -0.021680228 29945.536
0.01476059 -0.05 -0.020470219 30420.21
0.012919251 -0.05 -0.019223865 30926.706
0.011164249 -0.05 -0.017938283 31465.843
0.0095007128 -0.05 -0.016610449 32041.893
0.0079348886 -0.05 -0.015236971 32659.094
0.006474941 -0.05 -0.013814774 33294.692
0.0051312596 -0.05 -0.012341958 33909
0.0039150106 -0.05 -0.010816511 34469.889
0.0028396284 -0.05 -0.009238845 34986.348
0.0019206554 -0.05 -0.007613688 35371.251
0.0011720639 -0.05 -0.0059475212 35552.669
0.0006061561 -0.05 -0.004252283 35508.571
0.00023063831 -0.05 -0.0025452878 35202.479
4.5460517e-05 -0.05 -0.0008455405 34599.868
0.99536103 -0.05 -0.00067021835 26383.38
0.98608197 -0.05 -0.0020028877 26184.112
0.97680071 -0.05 -0.0033200849 25986.419
0.96751731 -0.05 -0.0046220425 25819.384
0.95823181 -0.05 -0.0059090613 25665.21
0.94894428 -0.05 -0.0071813587 25525.657
0.93965479 -0.05 -0.0084391859 25396.703
0.93036339 -0.05 -0.0096828487 25277.101
0.92107013 -0.05 -0.010912491 25165.424
0.91177504 -0.05 -0.012128333 25060.496
0.9024782 -0.05 -0.013330648 24961.779
0.89317963 -0.05 -0.014519511 24868.684
0.88387936 -0.05 -0.015695054 24780.264
0.87457746 -0.05 -0.016857552 24695.796
0.86527394 -0.05 -0.01800713 24615.061
0.85596885 -0.05 -0.019143876 24537.457
0.84666223 -0.05 -0.020267984 24462.674
0.8373541 -0.05 -0.021379502 24390.691
0.82804448 -0.05 -0.022478516 24321.049
0.8187334 -0.05 -0.023565119 24253.671
0.8094209 -0.05 -0.024639397 24188.193
0.80010698 -0.05 -0.025701394 24124.669
0.79079168 -0.05 -0.026751168 24062.598
0.78147501 -0.05 -0.027788748 24002.168
0.77215699 -0.05 -0.028814138 23943.005
0.76283764 -0.05 -0.029827333 23885.312
0.75351698 -0.05 -0.030828337 23828.546
0.744195 -0.05 -0.03181713 23772.827
0.73487174 -0.05 -0.032793639 23717.703
0.72554719 -0.05 -0.033757832 23663.47
0.71622136 -0.05 -0.034709535 23610.116
0.70689427 -0.05 -0.03564879 23557.11
0.69756593 -0.05 -0.03657554 23504.992
0.68823632 -0.05 -0.037489546 23453.661
0.67890547 -0.05 -0.03839067 23402.892
0.66957337 -0.05 -0.039278803 23352.229
0.66024004 -0.05 -0.040153805 23301.714
0.65090546 -0.05 -0.04101549 23251.419
0.64156964 -0.05 -0.041863622 23201.592
0.63223258 -0.05 -0.042697993 23152.036
0.62289428 -0.05 -0.043518409 23102.831
0.61355475 -0.05 -0.044324591 23053.91
0.60421397 -0.05 -0.045116235 23005.279
0.59487195 -0.05 -0.045893096 22956.7
0.58552869 -0.05 -0.046654869 22908.439
0.57618419 -0.05 -0.047401205 22860.276
0.56683843 -0.05 -0.048131797 22812.331
0.55749143 -0.05 -0.04884624 22764.728
0.54814318 -0.05 -0.049544112 22717.433
0.53879368 -0.05 -0.050225066 22670.101
0.52944294 -0.05 -0.050888717 22623.051
0.52009095 -0.05 -0.051534504 22576.635
0.51073771 -0.05 -0.052161963 22530.289
0.50138323 -0.05 -0.052770676 22484.366
0.49202751 -0.05 -0.05336005 22439.259
0.48267056 -0.05 -0.053929509 22394.724
0.47331239 -0.05 -0.054478508 22350.732
0.46395301 -0.05 -0.055006444 22307.251
0.45459243 -0.05 -0.05551264 22264.177
0.44523066 -0.05 -0.055996468 22221.083
0.43586772 -0.05 -0.056457197 22178.821
0.42650365 -0.05 -0.056894081 22137.325
0.41713847 -0.05 -0.057306403 22097.123
0.4077722 -0.05 -0.057693321 22058.704
0.39840488 -0.05 -0.058053993 22020.635
0.38903655 -0.05 -0.058387504 21984.051
0.37966728 -0.05 -0.058692933 21948.671
0.3702971 -0.05 -0.058969274 21915.215
0.36092607 -0.05 -0.059215505 21883.629
0.35155428 -0.05 -0.059430617 21854.23
0.34218182 -0.05 -0.059613395 21827.357
0.33280876 -0.05 -0.059762649 21803.046
0.32343521 -0.05 -0.059877122 21782.604
0.31406128 -0.05 -0.059955444 21766.691
0.30468712 -0.05 -0.059996221 21757.36
