/*--------------------------------*- C++ -*----------------------------------*\
| =========                 |                                                 |
| \\      /  F ield         | OpenFOAM: The Open Source CFD Toolbox           |
|  \\    /   O peration     | Version:  2306                                  |
|   \\  /    A nd           | Website:  www.openfoam.com                      |
|    \\/     M anipulation  |                                                 |
\*---------------------------------------------------------------------------*/
FoamFile
{
    version     2.0;
    format      ascii;
    arch        "LSB;label=32;scalar=64";
    class       volScalarField;
    location    "1000";
    object      magR;
}
// * * * * * * * * * * * * * * * * * * * * * * * * * * * * * * * * * * * * * //

dimensions      [0 2 -2 0 0 0 0];

internalField   nonuniform List<scalar> 
1340
(
0.023538
0.0274623
0.0324771
0.0392891
0.0473599
0.0576334
0.0707697
0.0870427
0.107706
0.134069
0.16813
0.213099
0.273425
0.356423
0.474563
0.647438
0.913676
1.32394
2.04423
3.16556
5.69264
9.51402
22.2732
43.4776
48.1832
46.0981
45.2991
46.1274
47.1532
47.4125
46.7846
45.3885
43.1321
40.0443
36.0568
0.0200321
0.0171884
0.0140008
0.0112669
0.00868561
0.00635916
0.00448042
0.00360469
0.0035844
0.00354304
0.00344051
0.00328197
0.00309976
0.00288482
0.00264314
0.00240399
0.0021695
0.00194594
0.00179066
0.0017693
0.00194392
0.00252448
0.00397255
0.00759018
0.0159216
0.0384709
0.0942972
0.27846
0.7703
2.35995
7.57257
14.8471
22.3676
29.4346
34.4365
35.431
32.5064
27.701
22.8377
18.8942
15.8721
13.5506
0.0035722
0.00352403
0.00342528
0.00327883
0.00307843
0.00281404
0.00241978
0.00240068
0.00234654
0.00226375
0.00217717
0.00208202
0.00198581
0.00189929
0.00182488
0.00176716
0.00172253
0.00169695
0.00169017
0.00170496
0.00170975
0.00165714
0.00144904
0.00124712
0.000141825
0.00806879
0.0031881
0.00558848
0.000696479
0.0294435
0.245313
0.815421
2.03174
4.5792
9.03026
14.9013
20.2115
22.8224
22.3117
20.0347
17.3831
0.00243863
0.00243561
0.00242913
0.00238587
0.00230911
0.00218026
0.00204215
0.00204636
0.00203608
0.00201912
0.00198413
0.00193205
0.00186712
0.00178607
0.00169343
0.00159096
0.00148086
0.00136465
0.00124346
0.0011195
0.000993835
0.000862103
0.000730737
0.000612227
0.000463491
0.000264155
6.06349e-10
0.000607263
0.000434323
0.00777951
0.0289535
0.0561037
0.0317311
0.0148128
0.0454662
0.441387
1.95399
5.32981
9.99437
13.8704
15.5405
0.00202024
0.00198706
0.00193497
0.00187224
0.00179357
0.0015321
0.00152939
0.00151745
0.00149615
0.0014632
0.00141852
0.00136452
0.00130202
0.00123305
0.00116185
0.00109069
0.00102244
0.000960141
0.000905694
0.000860403
0.000822356
0.000782375
0.000733497
0.000681785
0.000606637
0.000407686
0.000130253
2.14566e-05
3.4224e-06
0
0
0.0114695
0.0139718
0.0295952
0.0130491
0.0346963
0.0648616
0.41042
2.39843
6.15611
0.00152813
0.00151732
0.0014958
0.00146134
0.00141275
0.0012558
0.00126116
0.00126065
0.00125615
0.00124381
0.00122381
0.00119703
0.0011624
0.00112064
0.00107288
0.00101954
0.000961856
0.00090121
0.000838672
0.000775347
0.000709715
0.000638247
0.00056483
0.000495861
0.000435975
0.000388248
0.000321396
0.0002282
4.41693e-05
1.16267e-05
5.84156e-06
2.51459e-06
7.77653e-12
0
0.00170193
0.00826857
0.0451019
0.00833315
0.111332
0.243803
0.00124442
0.0012287
0.00120582
0.00117563
0.00101587
0.00102033
0.00102104
0.00101846
0.00101034
0.000996297
0.000976651
0.000950828
0.000919056
0.000882212
0.000840925
0.000796229
0.000749502
0.000702073
0.00065505
0.000610001
0.00056917
0.000531128
0.000492269
0.000451737
0.000413663
0.000381727
0.000347829
0.000286637
0.000193285
0.000103411
3.77039e-05
9.63572e-11
4.03416e-06
4.28173e-07
0
0
0.0010567
0.0351665
0.0267303
0.00100752
0.000996227
0.000979796
0.000957167
0.000841976
0.000847724
0.000851137
0.000852513
0.000850179
0.000843802
0.000833638
0.000818938
0.0007997
0.000776334
0.000748805
0.000717648
0.000683475
0.000646845
0.000608412
0.000568959
0.000527994
0.000484466
0.000440352
0.000398596
0.000361892
0.000332443
0.000310642
0.000293837
0.000267086
0.000226485
0.000178307
0.000121204
7.34954e-05
6.75629e-06
3.65166e-06
1.44076e-07
0
0
0.00385907
0.00083334
0.000822932
0.000808981
0.000790465
0.000702354
0.000707889
0.000711922
0.00071444
0.000714349
0.000711283
0.000705316
0.000695788
0.000682615
0.000665919
0.000645646
0.000622083
0.000595645
0.000566758
0.00053605
0.000504012
0.000471376
0.000439415
0.000408233
0.000377794
0.000348634
0.000322185
0.00029888
0.000277765
0.000256007
0.00023052
0.000203376
0.000177585
0.000151402
0.000109577
7.17157e-05
2.89431e-06
1.86317e-06
0
0
0.000694768
0.000685985
0.000674636
0.000607185
0.000606764
0.000604233
0.000599033
0.000591079
0.000580364
0.000566713
0.00055026
0.000531199
0.000509743
0.000486232
0.000461004
0.000434584
0.000406926
0.000378223
0.000349703
0.00032286
0.000298891
0.000277944
0.000258028
0.000236425
0.000212132
0.000187711
0.000166968
0.000150815
0.000137395
0.000123835
8.93934e-05
3.72159e-05
3.29466e-06
0
0.00051907
0.000516459
0.000511668
0.000504668
0.000495243
0.000483427
0.000469289
0.000452921
0.000434563
0.000414489
0.000393001
0.000370586
0.000347752
0.000324952
0.000302911
0.00028222
0.00026314
0.000244593
0.000224392
0.000201525
0.000177715
0.000156402
0.00013949
0.000127347
0.000118354
0.000112827
9.84312e-05
5.69699e-05
3.7816e-06
0.000445229
0.000441028
0.000434876
0.000426753
0.000416651
0.000404594
0.000390696
0.00037512
0.0003581
0.000339985
0.000320904
0.000301279
0.000281976
0.000263649
0.000246468
0.000229689
0.000211686
0.000191476
0.000170097
0.000150099
0.000133267
0.000119838
0.000108982
0.000101959
9.84869e-05
9.46781e-05
6.17968e-05
0.000386121
0.000382244
0.000376747
0.000369577
0.000360693
0.000350163
0.000338081
0.000324584
0.00030997
0.000294465
0.000278362
0.000262191
0.000246433
0.000231197
0.00021601
0.000199798
0.000181844
0.000162866
0.000144781
0.000129104
0.000115982
0.00010482
9.55648e-05
8.91028e-05
8.65662e-05
9.11299e-05
0.000336765
0.00033322
0.000328294
0.000321925
0.000314118
0.000304911
0.000294379
0.000282752
0.000270179
0.000256832
0.000243107
0.000229487
0.000216069
0.000202516
0.000188065
0.00017218
0.000155387
0.000139174
0.000124849
0.000112627
0.000102088
9.29123e-05
8.52274e-05
7.95247e-05
7.83784e-05
0.000297185
0.000295075
0.000291816
0.00028734
0.000281615
0.00027466
0.000266518
0.000257313
0.000247213
0.000236331
0.000224877
0.000213271
0.000201595
0.000189615
0.000176811
0.000162793
0.000147941
0.000133419
0.000120347
0.00010903
9.91975e-05
9.06554e-05
8.31794e-05
7.75867e-05
6.98102e-05
0.00026165
0.00025963
0.000256592
0.000252512
0.000247361
0.000241156
0.000233956
0.000225921
0.00021709
0.000207578
0.00019773
0.000187642
0.000177159
0.000165904
0.0001536
0.000140524
0.000127578
0.000115701
0.000105251
9.60763e-05
8.80974e-05
8.10754e-05
7.58992e-05
6.91104e-05
0.000231176
0.000229237
0.000226415
0.000222676
0.000218013
0.000212449
0.000206108
0.000199012
0.000191205
0.000182931
0.000174299
0.000165212
0.0001554
0.000144656
0.000133193
0.000121706
0.000110973
0.000101368
9.28385e-05
8.53455e-05
7.88007e-05
7.35179e-05
6.94236e-05
0.00020602
0.000204895
0.000203034
0.000200396
0.000196965
0.000192731
0.000187783
0.000182134
0.000175789
0.00016889
0.000161569
0.000153767
0.00014528
0.000135957
0.000125958
0.000115819
0.000106179
9.74032e-05
8.95191e-05
8.24999e-05
7.64034e-05
7.10758e-05
6.80576e-05
0.000183208
0.000182081
0.000180299
0.000177838
0.000174682
0.00017087
0.000166423
0.000161318
0.00015562
0.000149471
0.000142836
0.000135556
0.000127515
0.000118837
0.000109936
0.000101331
9.33633e-05
8.61166e-05
7.95874e-05
7.38814e-05
6.87992e-05
6.55474e-05
0.000163906
0.000163327
0.000162204
0.000160503
0.000158203
0.000155306
0.000151849
0.000147791
0.000143139
0.000138021
0.000132428
0.000126234
0.000119346
0.000111858
0.000104086
9.6452e-05
8.92633e-05
8.26375e-05
7.66061e-05
7.12547e-05
6.65531e-05
6.28594e-05
0.000146522
0.000145899
0.000144787
0.000143163
0.000141013
0.000138376
0.000135193
0.000131439
0.000127223
0.000122553
0.000117328
0.000111468
0.000105043
9.8297e-05
9.15652e-05
8.51212e-05
7.90974e-05
7.35572e-05
6.85554e-05
6.42094e-05
6.03621e-05
0.000131471
0.000131221
0.000130565
0.000129477
0.000127929
0.000125951
0.000123487
0.000120499
0.000117065
0.000113203
0.000108835
0.000103889
9.84123e-05
9.25917e-05
8.66938e-05
8.09541e-05
7.55111e-05
7.04471e-05
6.58056e-05
6.17522e-05
5.80158e-05
0.000118018
0.000117707
0.000117032
0.000115962
0.000114513
0.000112643
0.000110302
0.000107539
0.00010438
0.000100764
9.6621e-05
9.1983e-05
8.69929e-05
8.18592e-05
7.67813e-05
7.18932e-05
6.72866e-05
6.30081e-05
5.92109e-05
5.56953e-05
0.000106136
0.000106086
0.000105728
0.000105036
0.000104014
0.000102627
0.00010083
9.86361e-05
9.60816e-05
9.31147e-05
8.96729e-05
8.57731e-05
8.15234e-05
7.70837e-05
7.26216e-05
6.82597e-05
6.40924e-05
6.01698e-05
5.66192e-05
5.33295e-05
9.54489e-05
9.55901e-05
9.54747e-05
9.50782e-05
9.43921e-05
9.33985e-05
9.20459e-05
9.03293e-05
8.82882e-05
8.58831e-05
8.30512e-05
7.97981e-05
7.62037e-05
7.23907e-05
6.84945e-05
6.46271e-05
6.0878e-05
5.72995e-05
5.39974e-05
5.09113e-05
8.61142e-05
8.61801e-05
8.60099e-05
8.55889e-05
8.49089e-05
8.39226e-05
8.26053e-05
8.09999e-05
7.90718e-05
7.67624e-05
7.40688e-05
7.10496e-05
6.7798e-05
6.44196e-05
6.10119e-05
5.76578e-05
5.44105e-05
5.13521e-05
4.8457e-05
7.75627e-05
7.77611e-05
7.77616e-05
7.75484e-05
7.71166e-05
7.64242e-05
7.54395e-05
7.41971e-05
7.26714e-05
7.08077e-05
6.85969e-05
6.60797e-05
6.33253e-05
6.0416e-05
5.74322e-05
5.44478e-05
5.15147e-05
4.86994e-05
4.59849e-05
6.98471e-05
7.0138e-05
7.02664e-05
7.02132e-05
6.99768e-05
6.95178e-05
6.88048e-05
6.78618e-05
6.66725e-05
6.51871e-05
6.3389e-05
6.1307e-05
5.89901e-05
5.65006e-05
5.3905e-05
5.12655e-05
4.8626e-05
4.60485e-05
4.35132e-05
6.3243e-05
6.3463e-05
6.35303e-05
6.3443e-05
6.31685e-05
6.26739e-05
6.19789e-05
6.10676e-05
5.98968e-05
5.84486e-05
5.67407e-05
5.48063e-05
5.26906e-05
5.04456e-05
4.81241e-05
4.5763e-05
4.34097e-05
4.1055e-05
5.70082e-05
5.72917e-05
5.7447e-05
5.74728e-05
5.73412e-05
5.70216e-05
5.65262e-05
5.58431e-05
5.49343e-05
5.37807e-05
5.23908e-05
5.07869e-05
4.90007e-05
4.7071e-05
4.50389e-05
4.29365e-05
4.07998e-05
3.86203e-05
5.13724e-05
5.16964e-05
5.19146e-05
5.20239e-05
5.20016e-05
5.18201e-05
5.14847e-05
5.09859e-05
5.02921e-05
4.93842e-05
4.8263e-05
4.69427e-05
4.54442e-05
4.37948e-05
4.20261e-05
4.01616e-05
3.823e-05
3.62218e-05
4.66277e-05
4.68888e-05
4.70578e-05
4.71172e-05
4.70412e-05
4.68316e-05
4.64807e-05
4.5962e-05
4.52562e-05
4.43608e-05
4.3282e-05
4.20323e-05
4.063e-05
3.90975e-05
3.74524e-05
3.5713e-05
3.38717e-05
4.20402e-05
4.23269e-05
4.25359e-05
4.26543e-05
4.26588e-05
4.25464e-05
4.23123e-05
4.19338e-05
4.13933e-05
4.0685e-05
3.981e-05
3.87741e-05
3.75881e-05
3.62664e-05
3.48202e-05
3.32614e-05
3.15803e-05
3.78876e-05
3.81876e-05
3.84223e-05
3.85819e-05
3.86453e-05
3.86067e-05
3.84638e-05
3.81975e-05
3.77906e-05
3.72358e-05
3.6531e-05
3.56771e-05
3.46784e-05
3.35432e-05
3.2277e-05
3.08855e-05
3.44364e-05
3.46847e-05
3.48709e-05
3.49759e-05
3.49924e-05
3.49192e-05
3.47401e-05
3.44398e-05
3.401e-05
3.34464e-05
3.2746e-05
3.19087e-05
3.0937e-05
2.98325e-05
2.85953e-05
3.1038e-05
3.12914e-05
3.14928e-05
3.1626e-05
3.16821e-05
3.16607e-05
3.15488e-05
3.13328e-05
3.10041e-05
3.05562e-05
2.99842e-05
2.92844e-05
2.84555e-05
2.74951e-05
2.63995e-05
2.79618e-05
2.82134e-05
2.84215e-05
2.85715e-05
2.86551e-05
2.86718e-05
2.86105e-05
2.846e-05
2.82117e-05
2.78582e-05
2.73926e-05
2.68095e-05
2.61043e-05
2.52716e-05
2.43048e-05
2.51792e-05
2.54246e-05
2.56324e-05
2.57907e-05
2.58918e-05
2.59347e-05
2.59111e-05
2.58109e-05
2.56259e-05
2.53483e-05
2.49707e-05
2.44858e-05
2.3887e-05
2.31669e-05
2.23169e-05
2.26637e-05
2.28987e-05
2.31014e-05
2.32618e-05
2.3373e-05
2.34336e-05
2.3437e-05
2.33746e-05
2.32388e-05
2.3022e-05
2.27162e-05
2.23135e-05
2.18057e-05
2.11844e-05
2.04394e-05
2.06132e-05
2.08078e-05
2.09658e-05
2.10811e-05
2.11522e-05
2.1174e-05
2.11393e-05
2.10415e-05
2.08728e-05
2.06254e-05
2.0291e-05
1.98609e-05
1.93258e-05
1.86747e-05
1.85473e-05
1.8731e-05
1.88831e-05
1.89979e-05
1.90743e-05
1.91083e-05
1.90938e-05
1.90246e-05
1.88937e-05
1.86934e-05
1.84155e-05
1.80513e-05
1.7591e-05
1.70238e-05
1.66807e-05
1.68523e-05
1.69964e-05
1.71077e-05
1.71856e-05
1.72268e-05
1.7226e-05
1.7178e-05
1.70765e-05
1.69142e-05
1.6683e-05
1.63744e-05
1.5979e-05
1.5486e-05
1.49961e-05
1.51548e-05
1.52892e-05
1.53949e-05
1.54712e-05
1.55157e-05
1.55242e-05
1.54918e-05
1.5413e-05
1.5281e-05
1.50881e-05
1.48266e-05
1.44871e-05
1.40595e-05
1.34765e-05
1.3622e-05
1.3746e-05
1.38448e-05
1.39176e-05
1.39629e-05
1.3977e-05
1.39558e-05
1.38942e-05
1.37863e-05
1.36251e-05
1.34031e-05
1.31118e-05
1.27416e-05
1.22394e-05
1.23527e-05
1.24438e-05
1.25119e-05
1.25559e-05
1.2573e-05
1.25596e-05
1.25112e-05
1.24225e-05
1.22871e-05
1.20984e-05
1.18485e-05
1.15286e-05
1.09934e-05
1.10961e-05
1.1179e-05
1.12416e-05
1.12832e-05
1.13014e-05
1.12933e-05
1.12548e-05
1.11813e-05
1.10671e-05
1.09064e-05
1.0692e-05
9.87154e-06
9.9639e-06
1.00386e-05
1.00954e-05
1.01337e-05
1.01518e-05
1.01471e-05
1.0116e-05
1.00545e-05
9.95785e-06
9.82057e-06
9.63651e-06
8.86211e-06
8.94469e-06
9.01144e-06
9.0623e-06
9.09701e-06
9.11413e-06
9.11143e-06
9.0859e-06
9.03403e-06
8.95172e-06
8.83422e-06
8.6761e-06
7.95464e-06
8.0281e-06
8.08733e-06
8.13238e-06
8.1633e-06
8.17887e-06
8.17723e-06
8.15585e-06
8.11168e-06
8.04122e-06
7.9404e-06
7.80447e-06
7.20444e-06
7.25666e-06
7.29627e-06
7.32338e-06
7.33711e-06
7.3359e-06
7.31762e-06
7.27966e-06
7.219e-06
7.13223e-06
7.01529e-06
6.46489e-06
6.51067e-06
6.54517e-06
6.56866e-06
6.58048e-06
6.57932e-06
6.56336e-06
6.53041e-06
6.47793e-06
6.403e-06
6.30224e-06
5.80136e-06
5.84126e-06
5.87111e-06
5.89123e-06
5.90116e-06
5.89977e-06
5.88555e-06
5.8567e-06
5.81107e-06
5.74621e-06
5.65924e-06
5.20645e-06
5.24106e-06
5.26667e-06
5.2837e-06
5.29181e-06
5.29005e-06
5.27719e-06
5.25172e-06
5.21185e-06
5.15554e-06
5.08036e-06
4.67332e-06
4.70316e-06
4.72502e-06
4.73929e-06
4.74571e-06
4.74356e-06
4.73178e-06
4.70911e-06
4.6741e-06
4.62504e-06
4.55993e-06
4.19582e-06
4.22148e-06
4.24002e-06
4.25181e-06
4.2567e-06
4.25413e-06
4.24321e-06
4.22291e-06
4.19203e-06
4.14916e-06
3.76838e-06
3.79037e-06
3.80595e-06
3.81559e-06
3.81914e-06
3.81616e-06
3.80595e-06
3.78765e-06
3.76027e-06
3.72269e-06
3.40476e-06
3.41777e-06
3.42551e-06
3.42791e-06
3.42455e-06
3.41492e-06
3.39831e-06
3.37393e-06
3.34085e-06
3.06005e-06
3.07084e-06
3.07691e-06
3.07829e-06
3.07463e-06
3.0655e-06
3.05034e-06
3.02852e-06
2.99927e-06
2.75178e-06
2.76065e-06
2.76534e-06
2.76587e-06
2.76199e-06
2.75332e-06
2.73944e-06
2.71983e-06
2.69388e-06
2.47556e-06
2.48283e-06
2.48636e-06
2.48621e-06
2.4822e-06
2.47402e-06
2.46133e-06
2.44371e-06
2.42067e-06
2.22715e-06
2.23304e-06
2.23564e-06
2.23501e-06
2.231e-06
2.22337e-06
2.21183e-06
2.19606e-06
2.17566e-06
2.00312e-06
2.00783e-06
2.00965e-06
2.00865e-06
2.0047e-06
1.99762e-06
1.98717e-06
1.97312e-06
1.80156e-06
1.80525e-06
1.80637e-06
1.80499e-06
1.80105e-06
1.7944e-06
1.78487e-06
1.77228e-06
1.62126e-06
1.62401e-06
1.62446e-06
1.62268e-06
1.61865e-06
1.61225e-06
1.60338e-06
1.59191e-06
1.46299e-06
1.4628e-06
1.46061e-06
1.4564e-06
1.45012e-06
1.44167e-06
1.431e-06
1.31967e-06
1.31889e-06
1.31628e-06
1.31188e-06
1.30559e-06
1.29737e-06
1.28728e-06
1.19349e-06
1.19259e-06
1.19004e-06
1.18605e-06
1.18018e-06
1.17248e-06
1.16347e-06
1.0939e-06
1.09272e-06
1.08991e-06
1.08615e-06
1.08036e-06
1.07268e-06
1.06457e-06
1.01324e-06
1.01159e-06
1.00816e-06
1.0039e-06
9.97513e-07
9.89019e-07
9.37152e-07
9.35797e-07
9.32643e-07
9.28618e-07
9.22563e-07
9.14278e-07
8.62427e-07
8.60466e-07
8.56641e-07
8.51916e-07
8.45473e-07
8.36489e-07
7.93097e-07
7.92059e-07
7.89262e-07
7.85369e-07
7.80046e-07
7.7274e-07
7.18065e-07
7.14481e-07
7.09092e-07
7.02993e-07
6.95939e-07
6.85181e-07
6.69848e-07
6.70128e-07
6.68621e-07
6.64903e-07
6.60581e-07
6.56593e-07
5.69239e-07
5.61596e-07
5.55217e-07
5.47631e-07
5.31174e-07
6.02866e-07
6.06186e-07
6.02572e-07
6.01516e-07
6.12665e-07
4.74222e-07
4.75185e-07
4.82263e-07
4.79282e-07
4.60341e-07
7.19251e-07
7.39298e-07
7.37369e-07
7.45987e-07
7.84612e-07
8.04583e-07
8.28228e-07
8.61947e-07
1.14904e-06
1.2161e-06
1.17247e-06
1.113e-06
)
;

boundaryField
{
    inlet
    {
        type            calculated;
        value           nonuniform List<scalar> 4(5.07409e-06 5.39921e-06 5.46838e-06 5.53222e-06);
    }
    outlet
    {
        type            calculated;
        value           nonuniform List<scalar> 0();
    }
    walls
    {
        type            calculated;
        value           nonuniform List<scalar> 
42
(
1.33437
1.54944
1.79052
2.0177
2.23552
2.44246
2.61893
2.76266
2.87478
2.95048
2.99498
3.00654
2.97847
2.91164
2.80296
2.65287
2.4567
2.21319
1.91707
1.57125
1.18498
0.79429
0.465034
0.278437
0.217447
0.244877
0.308782
0.382992
0.449645
0.496902
0.523399
0.53309
0.522793
0.494765
0.449234
1.1282
0.922569
0.715088
0.505364
0.32107
0.171864
0.0724895
)
;
    }
    frontAndBack
    {
        type            empty;
    }
    procBoundary5to0
    {
        type            processor;
        value           nonuniform List<scalar> 4(0.000592105 0.000585158 0.000577506 0.000567969);
    }
    procBoundary5to1
    {
        type            processor;
        value           nonuniform List<scalar> 
13
(
0.00335175
0.00250372
0.00250372
0.00200263
0.00169056
0.00169056
0.0013439
0.00113689
0.00113689
0.000927814
0.000767263
0.000659565
0.000659565
)
;
    }
    procBoundary5to4
    {
        type            processor;
        value           nonuniform List<scalar> 
95
(
0.00059753
0.000602055
0.000605556
0.000605556
0.000518656
0.000519673
0.000519673
0.000448488
0.000447694
0.000447694
0.000388422
0.000388422
0.000338979
0.000338979
0.000298223
0.00026273
0.00026273
0.000232274
0.000232274
0.000206453
0.000183732
0.000183732
0.000163981
0.000146694
0.000146694
0.000131343
0.000117989
0.000117989
0.000105906
9.50753e-05
8.58355e-05
8.58355e-05
7.71896e-05
6.94104e-05
6.28889e-05
6.28889e-05
5.66136e-05
5.09568e-05
4.62793e-05
4.62793e-05
4.16805e-05
3.75277e-05
3.41324e-05
3.41324e-05
3.07377e-05
2.76705e-05
2.49007e-05
2.24005e-05
2.03911e-05
2.03911e-05
1.83394e-05
1.64881e-05
1.48189e-05
1.33147e-05
1.21071e-05
1.21071e-05
1.08737e-05
9.76399e-06
8.76592e-06
7.86897e-06
7.13951e-06
7.13951e-06
6.40775e-06
5.75125e-06
5.16262e-06
4.63513e-06
4.16263e-06
3.73959e-06
3.38599e-06
3.38599e-06
3.04408e-06
2.73827e-06
2.46416e-06
2.21755e-06
1.99513e-06
1.79494e-06
1.61586e-06
1.4611e-06
1.4611e-06
1.31853e-06
1.19264e-06
1.09333e-06
1.01301e-06
9.36686e-07
8.62498e-07
7.92407e-07
7.20054e-07
6.67482e-07
5.75404e-07
5.75404e-07
5.98027e-07
4.71276e-07
7.01481e-07
7.5484e-07
1.14672e-06
)
;
    }
    procBoundary5to6
    {
        type            processor;
        value           nonuniform List<scalar> 
86
(
31.2635
11.7091
14.893
15.3164
9.97458
2.2818
0.157046
0.0663683
0
0
0
3.04624e-06
4.66872e-05
9.48997e-05
8.72662e-05
7.0125e-05
6.1211e-05
5.95378e-05
5.99596e-05
5.957e-05
5.79153e-05
5.55705e-05
5.30564e-05
5.05826e-05
4.81728e-05
4.57898e-05
4.34171e-05
4.1056e-05
3.87113e-05
3.63992e-05
3.41319e-05
3.19149e-05
2.97603e-05
2.93582e-05
2.93582e-05
2.72145e-05
2.51562e-05
2.31905e-05
2.13228e-05
1.95563e-05
1.78934e-05
1.63354e-05
1.48818e-05
1.35311e-05
1.2281e-05
1.11282e-05
1.0416e-05
1.0416e-05
9.39868e-06
8.47131e-06
7.6282e-06
6.8636e-06
6.17175e-06
5.54687e-06
4.98355e-06
4.47646e-06
4.09264e-06
4.09264e-06
3.67352e-06
3.29794e-06
2.96169e-06
2.66085e-06
2.39161e-06
2.15014e-06
1.95513e-06
1.95513e-06
1.75635e-06
1.57764e-06
1.41799e-06
1.27519e-06
1.15263e-06
1.05489e-06
9.80538e-07
9.80538e-07
9.05791e-07
8.27462e-07
7.64265e-07
6.75687e-07
6.47368e-07
5.2361e-07
6.0088e-07
4.67541e-07
8.07737e-07
8.07737e-07
8.65739e-07
1.4653e-06
)
;
    }
}


// ************************************************************************* //
