/*--------------------------------*- C++ -*----------------------------------*\
| =========                 |                                                 |
| \\      /  F ield         | OpenFOAM: The Open Source CFD Toolbox           |
|  \\    /   O peration     | Version:  2306                                  |
|   \\  /    A nd           | Website:  www.openfoam.com                      |
|    \\/     M anipulation  |                                                 |
\*---------------------------------------------------------------------------*/
FoamFile
{
    version     2.0;
    format      ascii;
    arch        "LSB;label=32;scalar=64";
    class       volScalarField;
    location    "625";
    object      p;
}
// * * * * * * * * * * * * * * * * * * * * * * * * * * * * * * * * * * * * * //

dimensions      [0 2 -2 0 0 0 0];

internalField   nonuniform List<scalar> 
1340
(
-8.35232
-1.17343
-8.061
-5.94135
-1.23464
-7.87211
-3.90478
-5.81933
-1.24938
-7.73221
-5.35802
-5.61016
-3.82414
-5.686
-1.26181
-7.57534
-6.23165
-6.00672
-5.19685
-5.45256
-3.73852
-5.53919
-1.273
-7.39845
-7.12129
-6.76924
-6.46651
-5.99717
-5.79724
-5.02779
-5.28639
-3.64533
-5.38553
-1.27322
-7.21728
-7.56139
-7.2978
-7.04222
-6.78169
-6.46216
-6.1905
-5.75443
-5.57914
-4.8507
-5.11247
-3.54323
-5.22687
-1.26038
-7.03641
-7.89361
-7.74532
-7.56398
-7.35293
-7.11366
-6.88725
-6.66343
-6.43466
-6.14723
-5.90605
-5.50342
-5.35235
-4.66538
-4.93041
-3.43223
-5.06201
-1.23672
-6.85326
-7.22544
-7.31351
-7.36113
-7.36895
-7.33801
-7.26978
-7.16612
-7.02897
-6.86132
-6.66407
-6.47301
-6.27969
-6.08153
-5.82551
-5.61399
-5.24468
-5.11723
-4.472
-4.74011
-3.31264
-4.89015
-1.20372
-6.66559
-4.67974
-5.02046
-5.33571
-5.6228
-5.87934
-6.10322
-6.2927
-6.44647
-6.5636
-6.64365
-6.68661
-6.69288
-6.66329
-6.59916
-6.5018
-6.37384
-6.21554
-6.05765
-5.89327
-5.72426
-5.4986
-5.31564
-4.9792
-4.87455
-4.27106
-4.54193
-3.18478
-4.71135
-1.16174
-6.47338
0.568413
0.201381
-0.173216
-0.554065
-0.93962
-1.32811
-1.71757
-2.10584
-2.49052
-2.86911
-3.23893
-3.5972
-3.94112
-4.26786
-4.57464
-4.85879
-5.1178
-5.3494
-5.55156
-5.7226
-5.86117
-5.96632
-6.03751
-6.07461
-6.07785
-6.04802
-5.98584
-5.89358
-5.77088
-5.64367
-5.50638
-5.36477
-5.16815
-5.01236
-4.70804
-4.62514
-4.0631
-4.33629
-3.04894
-4.52575
-1.11174
-6.27673
6.33864
6.28625
6.2327
6.17657
6.11688
6.05374
5.9875
5.91802
5.84462
5.7671
5.68633
5.60336
5.51872
5.43247
5.34405
5.25226
5.15559
5.05247
4.94066
4.81749
4.68113
4.53154
4.36988
4.19729
4.01508
3.8243
3.62471
3.41546
3.19601
2.96619
2.72595
2.4752
2.21387
1.94202
1.65976
1.36735
1.06513
0.753627
0.433478
0.105493
-0.229358
-0.569902
-0.914774
-1.26243
-1.61113
-1.95893
-2.30374
-2.64329
-2.97519
-3.29694
-3.60599
-3.89977
-4.17571
-4.43136
-4.66439
-4.87263
-5.0542
-5.20745
-5.33107
-5.42409
-5.48593
-5.51634
-5.51563
-5.48399
-5.42327
-5.33257
-5.23333
-5.12108
-5.0049
-4.83569
-4.70546
-4.43222
-4.36984
-3.84865
-4.12347
-2.9055
-4.33317
-1.05469
-6.0745
5.69504
5.64966
5.60322
5.55457
5.50286
5.44811
5.39042
5.32981
5.26627
5.1994
5.12866
5.0544
4.97768
4.89926
4.81939
4.7377
4.65327
4.56483
4.47101
4.36991
4.2591
4.13664
4.00213
3.8565
3.70084
3.5364
3.3643
3.18451
2.99622
2.7989
2.59238
2.3766
2.15147
1.91696
1.67308
1.41994
1.15774
0.886818
0.607586
0.320613
0.0265923
-0.273606
-0.578944
-0.888224
-1.20008
-1.51294
-1.82508
-2.13461
-2.4395
-2.73759
-3.02661
-3.30425
-3.56813
-3.81594
-4.04539
-4.25432
-4.44071
-4.60278
-4.73895
-4.84798
-4.92892
-4.98111
-5.00448
-4.99873
-4.96536
-4.90294
-4.82878
-4.73931
-4.64641
-4.50279
-4.39627
-4.15281
-4.10945
-3.62852
-3.90372
-2.75534
-4.13298
-0.992389
-5.86475
5.13246
5.09302
5.05263
5.01033
4.96539
4.91783
4.86768
4.8148
4.75913
4.70079
4.63961
4.57496
4.5067
4.43564
4.36274
4.2884
4.21249
4.13432
4.05283
3.96684
3.87476
3.77447
3.66407
3.5429
3.41159
3.27111
3.12265
2.96731
2.80515
2.63538
2.45746
2.27124
2.07672
1.87387
1.66265
1.44305
1.21518
0.979223
0.735475
0.484315
0.226233
-0.0381343
-0.308003
-0.582465
-0.860451
-1.14071
-1.42185
-1.70232
-1.98042
-2.2543
-2.52202
-2.7815
-3.03064
-3.26727
-3.48926
-3.6945
-3.881
-4.04688
-4.19045
-4.31026
-4.40512
-4.47405
-4.51671
-4.53233
-4.52207
-4.48414
-4.43208
-4.363
-4.29105
-4.171
-4.08616
-3.87099
-3.8448
-3.40363
-3.67701
-2.59975
-3.92404
-0.926821
-5.64397
4.63361
4.59928
4.56409
4.52725
4.48813
4.44672
4.40308
4.35705
4.30848
4.2573
4.20361
4.14745
4.08831
4.02565
3.95984
3.89194
3.82265
3.75199
3.67947
3.60418
3.5251
3.44084
3.34943
3.24905
3.13915
3.02043
2.89368
2.75976
2.6197
2.47366
2.32078
2.16035
1.99226
1.81664
1.63352
1.44286
1.24467
1.03903
0.826153
0.606295
0.379812
0.147167
-0.0910515
-0.334149
-0.581292
-0.831503
-1.08366
-1.3365
-1.58863
-1.8385
-2.08443
-2.32466
-2.55727
-2.78038
-2.99201
-3.19018
-3.37295
-3.53847
-3.68505
-3.81108
-3.91523
-3.99633
-4.05374
-4.08644
-4.09523
-4.078
-4.04499
-3.99388
-3.94042
-3.8418
-3.77623
-3.58816
-3.57621
-3.17563
-3.44247
-2.44162
-3.7025
-0.86267
-5.40623
4.19737
4.16759
4.13704
4.10508
4.07116
4.03528
3.99747
3.95761
3.91554
3.87122
3.82469
3.77606
3.72532
3.67156
3.61278
3.54738
3.47562
3.39922
3.32006
3.23963
3.15934
3.08084
3.00552
2.93285
2.85962
2.78087
2.69122
2.58615
2.46463
2.33119
2.19222
2.05027
1.90407
1.75157
1.59189
1.42513
1.25165
1.07167
0.885257
0.6925
0.493594
0.288867
0.0787638
-0.136216
-0.355418
-0.578098
-0.803381
-1.03022
-1.25752
-1.48398
-1.70817
-1.92859
-2.14363
-2.35157
-2.55066
-2.73909
-2.91506
-3.07676
-3.22255
-3.35081
-3.46013
-3.54919
-3.61714
-3.66277
-3.68666
-3.68641
-3.66932
-3.63375
-3.59606
-3.51695
-3.46749
-3.30609
-3.30357
-2.94699
-3.19792
-2.28499
-3.46445
-0.807022
-5.14531
3.67297
3.64806
3.62246
3.59569
3.56732
3.53731
3.50566
3.4723
3.43714
3.40003
3.36082
3.3194
3.27569
3.22992
3.18254
3.13354
3.08212
3.0276
2.97045
2.91178
2.85215
2.79105
2.7275
2.6606
2.58922
2.51162
2.42644
2.33428
2.23645
2.13256
2.02162
1.90411
1.78125
1.65335
1.52008
1.38108
1.23617
1.08534
0.92869
0.766309
0.598322
0.424904
0.246334
0.0629251
-0.124856
-0.31649
-0.511347
-0.708661
-0.907586
-1.10713
-1.30616
-1.50348
-1.69777
-1.88757
-2.07135
-2.24753
-2.41448
-2.57055
-2.7141
-2.84355
-2.95741
-3.05428
-3.13308
-3.19246
-3.23249
-3.25103
-3.25117
-3.2336
-3.21245
-3.15738
-3.12276
-2.99721
-2.99691
-2.70316
-2.91866
-2.12895
-3.18976
-0.769688
-4.85344
3.1311
3.11143
3.09118
3.07002
3.0476
3.02387
2.99886
2.97252
2.94474
2.91543
2.88443
2.85172
2.81736
2.78164
2.74522
2.70882
2.67297
2.63713
2.59972
2.559
2.51408
2.46463
2.41028
2.35034
2.28471
2.21428
2.14023
2.06342
1.98436
1.90285
1.81732
1.72571
1.62769
1.52453
1.41721
1.30559
1.18917
1.06764
0.941
0.809262
0.672537
0.530877
0.384417
0.233338
0.0778839
-0.0815912
-0.244694
-0.41091
-0.579631
-0.750155
-0.921694
-1.09329
-1.26392
-1.43246
-1.59764
-1.75814
-1.91255
-2.0594
-2.19719
-2.32439
-2.43958
-2.54127
-2.6283
-2.69913
-2.75356
-2.78931
-2.80639
-2.80569
-2.80238
-2.76897
-2.75449
-2.65721
-2.67508
-2.42152
-2.64287
-1.91917
-2.95231
-0.656851
-4.6682
2.67222
2.65648
2.64027
2.62332
2.60536
2.58635
2.5663
2.54519
2.52293
2.49944
2.47466
2.44853
2.42098
2.39189
2.36125
2.32899
2.29513
2.25986
2.22325
2.18492
2.14397
2.09988
2.05317
2.00493
1.95595
1.90616
1.85495
1.80135
1.74378
1.6809
1.61258
1.53942
1.46155
1.37878
1.29148
1.20041
1.10571
1.00707
0.904148
0.796836
0.685174
0.569199
0.449002
0.324666
0.196319
0.0641736
-0.0715245
-0.210422
-0.352117
-0.496105
-0.641826
-0.788574
-0.935574
-1.08196
-1.22674
-1.36884
-1.50712
-1.64032
-1.76715
-1.88626
-1.99634
-2.09599
-2.18404
-2.25898
-2.32046
-2.36616
-2.39411
-2.405
-2.41444
-2.39731
-2.39859
-2.32389
-2.35793
-2.13694
-2.36835
-1.69699
-2.72105
-0.521885
-4.49422
2.24089
2.22787
2.21424
2.1998
2.18452
2.1684
2.15143
2.13353
2.11464
2.09472
2.07372
2.05157
2.0282
2.00357
1.97759
1.95022
1.92144
1.89127
1.85988
1.82734
1.79329
1.75691
1.71772
1.67627
1.63364
1.59045
1.54657
1.50125
1.45332
1.40141
1.3448
1.28377
1.21869
1.14934
1.07575
0.998616
0.918445
0.835112
0.748255
0.657676
0.56334
0.465324
0.363705
0.258562
0.150014
0.0382079
-0.0766236
-0.194215
-0.314194
-0.436181
-0.559653
-0.684029
-0.808669
-0.93279
-1.05556
-1.17606
-1.29329
-1.40617
-1.51353
-1.61426
-1.7071
-1.79101
-1.86456
-1.92737
-1.97717
-2.01089
-2.02893
-2.04657
-2.04117
-2.05366
-1.99735
-2.04314
-1.85198
-2.08842
-1.47031
-2.47709
-0.383316
-4.28442
1.85251
1.84225
1.8315
1.82012
1.80809
1.79539
1.78202
1.76793
1.75306
1.73737
1.72083
1.70338
1.68498
1.66559
1.64514
1.62358
1.60086
1.57693
1.55179
1.52549
1.49816
1.46983
1.44002
1.40798
1.37336
1.3368
1.29939
1.26167
1.22338
1.18369
1.14141
1.09549
1.04564
0.992143
0.935019
0.874165
0.810018
0.743252
0.674009
0.601991
0.526897
0.448641
0.367258
0.282831
0.195441
0.10517
0.0121546
-0.0834219
-0.181318
-0.281248
-0.382856
-0.485706
-0.589319
-0.693114
-0.796442
-0.89859
-0.998754
-1.09607
-1.18958
-1.27836
-1.36134
-1.4376
-1.50589
-1.56584
-1.61534
-1.65087
-1.6725
-1.69464
-1.69705
-1.71693
-1.67499
-1.72883
-1.56365
-1.80158
-1.23401
-2.21816
-0.23321
-4.04006
1.49519
1.48726
1.47896
1.47018
1.46089
1.45108
1.44075
1.42986
1.41837
1.40624
1.39345
1.37996
1.36574
1.35075
1.33493
1.31824
1.30065
1.2821
1.26255
1.24199
1.22042
1.19792
1.17458
1.15036
1.12473
1.09694
1.06686
1.03528
1.00323
0.971057
0.938311
0.904121
0.867404
0.827474
0.784329
0.738077
0.68864
0.63625
0.581564
0.524964
0.466283
0.405228
0.341654
0.275582
0.207088
0.136229
0.0630712
-0.0122849
-0.0897066
-0.168981
-0.249881
-0.332093
-0.415277
-0.499016
-0.582821
-0.666153
-0.748403
-0.828901
-0.906899
-0.981632
-1.05225
-1.118
-1.17781
-1.23142
-1.27689
-1.31085
-1.33292
-1.35629
-1.36293
-1.38668
-1.35517
-1.41362
-1.27007
-1.50656
-0.983888
-1.94197
-0.0626328
-3.75733
1.12115
1.11529
1.10917
1.1027
1.09585
1.08863
1.08103
1.073
1.06455
1.05563
1.04623
1.03632
1.02588
1.01488
1.00328
0.991046
0.978158
0.96458
0.950261
0.93518
0.919317
0.902672
0.88528
0.86722
0.848581
0.829211
0.808486
0.785769
0.76122
0.735805
0.71039
0.685123
0.659494
0.632656
0.603816
0.572614
0.538994
0.502801
0.464041
0.423197
0.38072
0.336505
0.290189
0.241586
0.19075
0.137844
0.0830165
0.0263689
-0.0319994
-0.0919473
-0.153294
-0.215816
-0.279255
-0.343312
-0.407633
-0.471826
-0.535449
-0.598022
-0.65899
-0.717785
-0.773761
-0.826383
-0.874757
-0.918767
-0.956746
-0.985931
-1.00549
-1.02698
-1.03446
-1.05867
-1.03374
-1.09327
-0.966855
-1.19827
-0.715385
-1.63895
0.131002
-3.39485
0.820835
0.816854
0.812686
0.808267
0.803589
0.798661
0.79346
0.787955
0.782152
0.77603
0.769561
0.762738
0.755544
0.74794
0.739911
0.731447
0.722515
0.713084
0.703133
0.692635
0.681552
0.669866
0.657581
0.644707
0.631294
0.617441
0.603173
0.588158
0.571672
0.553301
0.533552
0.513442
0.49348
0.473314
0.452117
0.429051
0.403782
0.376505
0.347401
0.316491
0.284289
0.251537
0.218434
0.184625
0.149669
0.113366
0.0757276
0.0368418
-0.00321076
-0.0443627
-0.0865289
-0.129592
-0.173394
-0.217755
-0.26244
-0.307187
-0.351697
-0.395649
-0.438655
-0.480332
-0.520227
-0.557996
-0.592959
-0.62514
-0.653166
-0.675335
-0.69015
-0.70736
-0.71292
-0.734797
-0.713002
-0.770782
-0.656797
-0.879794
-0.43137
-1.30536
0.340473
-2.90392
0.336807
0.334135
0.331338
0.328377
0.325245
0.32194
0.31845
0.314758
0.310862
0.306747
0.302391
0.297782
0.292917
0.287763
0.282299
0.276512
0.270376
0.263862
0.256946
0.249596
0.241772
0.233432
0.224542
0.215067
0.204968
0.194176
0.182531
0.169847
0.155972
0.140793
0.124872
0.110618
0.10251
0.105278
0.121222
0.14871
0.182233
0.213753
0.235259
0.241477
0.231511
0.208928
0.18001
0.150282
0.122143
0.0954548
0.0693276
0.0432203
0.0170633
-0.00902641
-0.0349715
-0.0607519
-0.0863589
-0.11177
-0.136932
-0.161775
-0.186205
-0.210116
-0.233356
-0.255778
-0.277174
-0.297427
-0.316117
-0.333441
-0.348325
-0.360504
-0.368002
-0.378293
-0.379139
-0.395747
-0.374402
-0.425792
-0.324945
-0.523334
-0.13573
-0.874255
0.485234
-2.03261
0.302925
0.30292
0.302904
0.302882
0.302857
0.302825
0.302786
0.302747
0.302711
0.302675
0.302639
0.302606
0.302588
0.302589
0.302613
0.302671
0.302771
0.302934
0.303179
0.30353
0.304023
0.30468
0.30549
0.306391
0.307288
0.308236
0.309743
0.313146
0.320707
0.334827
0.356111
0.380941
0.400502
0.402944
0.37786
0.320777
0.235828
0.136063
0.0405349
-0.0319613
-0.0706447
-0.0774541
-0.0646145
-0.046321
-0.0313958
-0.021943
-0.0164797
-0.013247
-0.0114906
-0.011161
-0.0123068
-0.014829
-0.0185237
-0.0231798
-0.0286078
-0.0346281
-0.0410676
-0.0477679
-0.0545776
-0.0613734
-0.0680134
-0.0744669
-0.0804945
-0.0863894
-0.0914873
-0.0966493
-0.0988731
-0.103574
-0.101684
-0.112241
-0.0958483
-0.132087
-0.0639136
-0.193481
0.0461833
-0.376172
0.390564
-0.878377
)
;

boundaryField
{
    inlet
    {
        type            freestreamPressure;
        freestreamValue uniform 0;
        value           nonuniform List<scalar> 
27
(
-3.68367
-3.55532
-3.47223
-3.4108
-3.34188
-3.26414
-3.1845
-3.105
-3.02448
-2.94195
-2.8574
-2.77087
-2.68184
-2.58946
-2.49217
-2.38734
-2.27224
-2.1434
-2.06161
-1.98476
-1.89201
-1.78395
-1.65888
-1.49854
-1.28145
-0.896631
-0.387255
)
;
    }
    outlet
    {
        type            freestreamPressure;
        freestreamValue uniform 0;
        value           nonuniform List<scalar> 
78
(
0.00090444
0.000904341
0.000904205
0.000904046
0.000903872
0.000903673
0.000903444
0.000903208
0.000902973
0.000902734
0.000902484
0.000902234
0.000902021
0.000901852
0.000901741
0.000901719
0.000901812
0.000902077
0.000902568
0.000903353
0.000904547
0.000906225
0.000908386
0.000910863
0.000913348
0.000915882
0.000919718
0.000928522
0.000948808
0.000987829
0.00104801
0.00111989
0.00117889
0.00119056
0.00112256
0.000958297
0.000707251
0.000408434
0.000121412
-9.53132e-05
-0.000209599
-0.000228787
-0.000190304
-0.000136243
-9.23225e-05
-6.45417e-05
-4.8487e-05
-3.89842e-05
-3.38211e-05
-3.28571e-05
-3.6239e-05
-4.368e-05
-5.45858e-05
-6.83423e-05
-8.44015e-05
-0.000102247
-0.000121382
-0.000141355
-0.000161737
-0.000182182
-0.00020229
-0.000221984
-0.00024058
-0.000258947
-0.000275162
-0.000291574
-0.000299272
-0.000314405
-0.000310266
-0.000343198
-0.000295951
-0.000406493
-0.000201383
-0.000594647
0.00015171
-0.00111967
0.00141855
-0.00227726
)
;
    }
    walls
    {
        type            zeroGradient;
    }
    frontAndBack
    {
        type            empty;
    }
    procBoundary7to3
    {
        type            processor;
        value           nonuniform List<scalar> 
16
(
6.38745
5.73734
5.16922
4.66562
4.22515
3.69612
3.1494
2.68687
2.25352
2.25352
1.86245
1.50286
1.1268
0.824689
0.339382
0.302934
)
;
    }
    procBoundary7to6
    {
        type            processor;
        value           nonuniform List<scalar> 
91
(
-8.53891
-1.0256
-1.0256
-6.084
-6.084
-3.97829
-3.97829
-5.51048
-5.75632
-5.75632
-6.45725
-6.20691
-6.20691
-7.45296
-7.06818
-6.73391
-6.73391
-8.00503
-7.70274
-7.41444
-7.41444
-8.53049
-8.33271
-8.10313
-7.84533
-7.84533
-8.05769
-8.10828
-8.11561
-8.08105
-8.00634
-8.00634
-5.52291
-5.87213
-6.18957
-6.47268
-6.71934
-6.92779
-7.09676
-7.09676
0.319144
-0.101553
-0.529083
-0.961675
-1.3973
-1.83367
-2.26832
-2.69856
-3.12152
-3.53422
-3.93356
-4.31642
-4.31642
7.0815
7.02085
6.95894
6.89402
6.82505
6.75235
6.67593
6.59519
6.51035
6.42253
6.33264
6.24107
6.14765
6.05159
5.95136
5.84529
5.73146
5.60724
5.46972
5.31722
5.15012
4.96981
4.77752
4.5746
4.362
4.13928
3.90552
3.66025
3.40331
3.13459
2.85402
2.56155
2.25722
1.94122
1.61384
1.27549
0.926762
0.926762
)
;
    }
}


// ************************************************************************* //
