/*--------------------------------*- C++ -*----------------------------------*\
| =========                 |                                                 |
| \\      /  F ield         | OpenFOAM: The Open Source CFD Toolbox           |
|  \\    /   O peration     | Version:  2306                                  |
|   \\  /    A nd           | Website:  www.openfoam.com                      |
|    \\/     M anipulation  |                                                 |
\*---------------------------------------------------------------------------*/
FoamFile
{
    version     2.0;
    format      ascii;
    arch        "LSB;label=32;scalar=64";
    class       volScalarField;
    location    "625";
    object      turbulenceProperties:L;
}
// * * * * * * * * * * * * * * * * * * * * * * * * * * * * * * * * * * * * * //

dimensions      [0 1 0 0 0 0 0];

internalField   nonuniform List<scalar> 
1340
(
0.222829
0.255623
0.221222
0.259563
0.259699
0.221257
0.401815
0.261245
0.262508
0.220804
0.425065
0.313719
0.403708
0.262613
0.264975
0.220063
0.356302
0.328734
0.431602
0.316648
0.405695
0.263868
0.267023
0.219318
0.300018
0.320219
0.32022
0.363663
0.333416
0.438798
0.319589
0.407654
0.26496
0.268525
0.218628
0.279126
0.288149
0.300322
0.306783
0.327645
0.326349
0.371623
0.338354
0.446617
0.322471
0.409595
0.265857
0.269486
0.218004
0.24778
0.256676
0.266169
0.27623
0.287249
0.295993
0.308332
0.31413
0.335689
0.332945
0.380206
0.343547
0.455075
0.325313
0.411506
0.266602
0.270021
0.217353
0.220285
0.226924
0.233947
0.241366
0.249195
0.257457
0.26616
0.275463
0.285268
0.296163
0.304581
0.317092
0.322143
0.34444
0.340067
0.389497
0.349036
0.464226
0.328169
0.413348
0.267248
0.270214
0.216781
0.19568
0.199887
0.204395
0.209215
0.214356
0.219825
0.225631
0.231784
0.238291
0.245169
0.25243
0.260087
0.268163
0.276644
0.285725
0.295229
0.305963
0.313994
0.326684
0.33089
0.353968
0.347762
0.39955
0.354845
0.474096
0.331062
0.415128
0.267814
0.269963
0.21622
0.178532
0.18
0.181611
0.183382
0.18533
0.187473
0.189825
0.192398
0.195207
0.198261
0.201572
0.205153
0.209012
0.213158
0.217599
0.222346
0.227404
0.232781
0.23848
0.24451
0.250878
0.257596
0.264681
0.272141
0.280004
0.288225
0.297047
0.306194
0.316721
0.324295
0.337165
0.340418
0.364318
0.356057
0.410407
0.360985
0.484669
0.333985
0.416885
0.268312
0.269478
0.215671
2.94193
5.8065
0
0
0.0910135
0.18558
0.706337
0.680117
0.706026
0.741822
0.788063
0.851951
0.950059
1.12594
1.54696
4.8342
1.6112
1.18103
1.01174
0.919863
0.85475
0.790851
0.710121
0.429565
0.353002
0
0
0
2.95524
0.416597
0.182123
0.17374
0.184186
0.189891
0.190418
0.190934
0.192235
0.193686
0.195138
0.196698
0.198423
0.200321
0.202412
0.204714
0.207243
0.210013
0.21303
0.216304
0.219847
0.223667
0.22777
0.23216
0.236847
0.241833
0.247122
0.252716
0.258619
0.264834
0.271376
0.27826
0.28549
0.293104
0.301021
0.309535
0.318257
0.328522
0.335554
0.348603
0.350779
0.375549
0.364987
0.422088
0.367487
0.495942
0.337
0.418557
0.268771
0.268727
0.215133
0.239751
1.79595
8.37826
0
0
1.91501
0.339791
1.00259
0.713729
0.728535
0.763158
0.80836
0.86934
0.959828
1.1141
1.44706
2.95517
1.95153
1.30717
1.08814
0.975694
0.900996
0.83509
0.745739
0.498067
0.480415
0
0
0
5.86828
0.904123
0.208929
0.186818
0.197968
0.207101
0.208606
0.208904
0.210148
0.211682
0.213189
0.214814
0.21666
0.218722
0.220994
0.223492
0.226237
0.229235
0.232493
0.23602
0.239823
0.243902
0.248261
0.252904
0.257829
0.263037
0.268525
0.274293
0.280341
0.28668
0.293331
0.30029
0.307608
0.31516
0.32331
0.331521
0.341455
0.347843
0.361066
0.362025
0.387699
0.374571
0.434635
0.37436
0.507971
0.340076
0.420306
0.269217
0.267966
0.214565
0.238623
0.254852
1.13108
7.56447
0
0
0
0.183746
0.526741
0.764985
0.749909
0.782245
0.826686
0.88537
0.969555
1.10676
1.38001
2.26575
2.53934
1.46338
1.17483
1.03682
0.950574
0.878781
0.786489
0.597543
0.703635
0
0
0
2.47203
9.08375
0.272235
0.20722
0.214089
0.225463
0.228076
0.228004
0.229216
0.231129
0.23294
0.234704
0.236668
0.238909
0.241408
0.244156
0.24716
0.250427
0.253967
0.25778
0.261863
0.266213
0.27083
0.275707
0.280839
0.286217
0.291837
0.297691
0.303794
0.31016
0.316788
0.323749
0.330853
0.338558
0.346163
0.355663
0.361288
0.37466
0.374252
0.400847
0.384891
0.448082
0.381616
0.520738
0.343372
0.422184
0.269542
0.267179
0.21397
0.268657
0.257042
0.267113
0.625135
4.88607
0
0
0
0.164953
0.416216
0.941035
0.776424
0.799695
0.843023
0.89992
0.979085
1.10289
1.33401
1.95177
3.89702
1.65596
1.27016
1.10123
1.00174
0.923071
0.830734
0.684186
0.891713
0
0
0
0.00148778
2.26821
0.336255
0.231064
0.231708
0.246518
0.252022
0.25069
0.250288
0.251876
0.254107
0.25629
0.25852
0.260991
0.263767
0.266826
0.270152
0.273749
0.277614
0.281742
0.286119
0.29074
0.295593
0.300658
0.305925
0.311377
0.317009
0.322823
0.328841
0.335063
0.341575
0.348136
0.355289
0.362163
0.37113
0.375831
0.389342
0.387372
0.414987
0.395806
0.462552
0.389144
0.535279
0.346535
0.424829
0.269878
0.266272
0.213158
0.286824
0.288029
0.273433
0.28466
0.42683
3.28531
0.000892939
0
0
0
0.238778
0.842853
0.825402
0.819101
0.858998
0.914055
0.988542
1.09998
1.29472
1.74258
4.81182
1.9574
1.3925
1.17533
1.05507
0.964749
0.865408
0.703666
1.3634
0.1457
0
0
0
3.28792
0.505549
0.264383
0.245078
0.257182
0.272319
0.277197
0.276711
0.276958
0.278828
0.281376
0.284038
0.286843
0.289914
0.293294
0.296959
0.300874
0.305049
0.30945
0.314062
0.318866
0.323829
0.328935
0.33415
0.339482
0.344903
0.350452
0.356137
0.362049
0.367911
0.374366
0.3803
0.388582
0.392158
0.4057
0.402003
0.43047
0.407967
0.477755
0.397641
0.548866
0.350352
0.426787
0.270435
0.265457
0.212652
0.305608
0.310369
0.307379
0.303205
0.309221
0.349972
1.12224
7.13841
1.91564e-05
0
0
0.142608
0.494509
1.06166
0.85192
0.871622
0.920774
0.987966
1.08243
1.23127
1.51261
2.30959
3.52528
1.75407
1.36552
1.18528
1.07237
0.97619
0.892181
0.699074
0.718753
0.156981
0
0
0.570314
4.41685
0.805982
0.331377
0.286122
0.291164
0.305156
0.312027
0.312771
0.313337
0.315463
0.318442
0.321629
0.324992
0.328618
0.332516
0.336679
0.341033
0.345546
0.350179
0.354908
0.359685
0.364458
0.369234
0.373971
0.378731
0.383504
0.388431
0.393169
0.398501
0.40307
0.410133
0.412291
0.425359
0.4199
0.448193
0.423103
0.493123
0.409493
0.559877
0.358831
0.437184
0.276721
0.27235
0.22064
0.332259
0.335427
0.334601
0.336484
0.338028
0.331066
0.34829
0.436667
5.60597
1.2577
0
0
0
0.0936148
0.480525
1.11689
0.880494
0.906997
0.964401
1.04221
1.15205
1.32791
1.6718
2.77568
3.09104
1.77374
1.4143
1.23556
1.11907
1.02009
0.926117
0.629444
0.496442
0
0
0
0.118628
4.76229
0.780839
0.371794
0.330138
0.338556
0.354187
0.360209
0.360611
0.361868
0.364878
0.368546
0.372317
0.376253
0.380421
0.384728
0.389127
0.393503
0.397817
0.401993
0.405953
0.409704
0.41317
0.416482
0.419608
0.422788
0.425606
0.429031
0.431453
0.43662
0.43662
0.448893
0.440852
0.469144
0.439808
0.51174
0.420627
0.572484
0.363644
0.436588
0.277302
0.269256
0.219724
0.364532
0.367085
0.364659
0.366459
0.370976
0.372512
0.36793
0.362965
0.400211
0.709171
5.24641
0.000193514
0
0
0
0.0889581
0.43416
1.17446
0.900282
0.936292
1.00458
1.09645
1.22803
1.44462
1.89439
3.81989
2.67038
1.75338
1.43843
1.2687
1.15033
1.04002
0.899858
1.90185
0.183429
0
0
0
0.131959
3.92715
0.626674
0.404929
0.387669
0.40439
0.418474
0.421352
0.422009
0.424832
0.429026
0.433449
0.437793
0.442114
0.446375
0.450336
0.453918
0.456993
0.459463
0.461323
0.462546
0.463329
0.463675
0.463998
0.463832
0.464412
0.463794
0.46642
0.463558
0.474716
0.46343
0.491785
0.457167
0.531981
0.431331
0.58835
0.367534
0.438026
0.277065
0.267051
0.218934
0.405075
0.401303
0.402198
0.40579
0.40969
0.411934
0.410136
0.399989
0.407742
0.480915
1.9859
5.78936
0
0
0
0
0.088143
0.441726
1.1614
0.917169
0.967412
1.05018
1.16152
1.32433
1.60217
2.24068
8.85255
2.3738
1.71988
1.44865
1.28781
1.15969
1.03497
0.820617
0.899553
0.865097
0
0
0
7.36189
1.78373
0.554494
0.463828
0.470001
0.491451
0.500512
0.501855
0.504375
0.508962
0.513795
0.518132
0.521893
0.52477
0.526658
0.527367
0.526808
0.525054
0.522215
0.51869
0.514561
0.510524
0.506061
0.50277
0.49828
0.497799
0.491631
0.501291
0.48649
0.514607
0.474527
0.551933
0.441577
0.603715
0.370792
0.440072
0.276477
0.265892
0.21822
0.450512
0.445211
0.445694
0.448511
0.451098
0.454219
0.457044
0.456872
0.450747
0.440675
0.465929
0.711024
5.0061
0.000195395
0
0
0
0
0.0887382
0.496778
1.09362
0.940643
1.00768
1.10846
1.2449
1.45039
1.82257
2.85223
4.32305
2.16363
1.68097
1.44511
1.28846
1.14883
0.999797
0.574758
0.259435
0
0
0
0.0410255
0.0133682
0.895251
0.601997
0.576344
0.599621
0.617536
0.621045
0.622542
0.626005
0.629403
0.631073
0.630398
0.627399
0.622024
0.614376
0.604981
0.594288
0.583148
0.571804
0.561215
0.550778
0.54243
0.533283
0.52921
0.519533
0.527245
0.508954
0.536261
0.491141
0.569889
0.451043
0.615911
0.373527
0.442188
0.275603
0.265727
0.217401
0.504738
0.498171
0.498227
0.500776
0.50295
0.505546
0.507339
0.510605
0.512861
0.510455
0.496309
0.496875
0.566506
2.11876
5.39084
4.09021e-07
0
0
0
0
0.0921501
0.596537
0.985528
0.967757
1.05953
1.18328
1.35294
1.61985
2.15538
4.43537
3.04796
2.00487
1.63611
1.42702
1.26746
1.12113
0.891133
0.806015
0.436402
0
0
3.22143e-07
6.41027
1.83663
0.846781
0.758567
0.77805
0.814449
0.827532
0.826757
0.822361
0.813989
0.799321
0.778986
0.755011
0.72921
0.703082
0.677652
0.653906
0.632003
0.612674
0.594935
0.580806
0.566786
0.559108
0.546282
0.551931
0.530484
0.556595
0.507066
0.586422
0.460017
0.626744
0.375927
0.444931
0.27467
0.266899
0.216376
0.549821
0.543533
0.542508
0.544993
0.547491
0.549391
0.550449
0.552797
0.555439
0.558942
0.558152
0.551558
0.535099
0.569276
0.746872
0.620213
0.0408615
0
0
0
0
0
0.178777
0.493269
0.972427
1.01052
1.12875
1.28087
1.49649
1.86034
2.73752
7.14768
2.51348
1.88013
1.58782
1.39767
1.2301
1.04696
3.25111
0.281192
0
0
0
0.889872
4.00437
2.05568
1.67244
1.50746
1.47791
1.43919
1.32414
1.19428
1.08305
0.990508
0.913064
0.848454
0.794645
0.749404
0.711398
0.67893
0.651656
0.627692
0.608811
0.591208
0.58075
0.566025
0.569529
0.546349
0.569932
0.518678
0.594896
0.466336
0.628737
0.377249
0.448296
0.273522
0.270656
0.214279
0.6083
0.599423
0.598577
0.601674
0.604521
0.605174
0.604737
0.608486
0.60934
0.610569
0.614052
0.616039
0.610097
0.598483
0.590747
0.669003
1.25083
6.36452
0.00058859
0
0
0
0
0.617163
0.247707
1.22465
0.959757
1.07235
1.21924
1.40965
1.69512
2.24049
4.28209
3.45558
2.18981
1.76552
1.52657
1.34382
1.20007
1.24473
0.443233
0
0
0
0.00291329
5.1825
2.408
1.14012
1.25614
1.4585
1.39392
1.22973
1.09442
0.996046
0.920672
0.858989
0.807534
0.764074
0.727521
0.69613
0.66949
0.645862
0.626954
0.609571
0.599297
0.585339
0.588821
0.565143
0.588443
0.534605
0.613834
0.476488
0.649143
0.380797
0.457246
0.273715
0.278
0.210956
0.585438
0.581339
0.58164
0.584766
0.587784
0.589853
0.591082
0.594371
0.59658
0.59918
0.603281
0.606937
0.609716
0.610732
0.607337
0.596479
0.618665
0.733358
1.78594
6.88659
0.000805522
0
0
0
0
0.255833
0.44858
1.08848
1.01878
1.15825
1.33376
1.57168
1.95906
2.85854
7.26856
2.67677
1.97368
1.63415
1.38678
1.08979
1.13712
0.553681
0.300117
0.224411
0.515962
0
0.0343802
0.0361785
1.01827
0.741223
0.765467
0.813376
0.82122
0.800642
0.773919
0.747703
0.722429
0.698209
0.675643
0.654837
0.635991
0.618462
0.603688
0.590039
0.581782
0.570859
0.573033
0.55367
0.571526
0.526143
0.592012
0.471144
0.628919
0.377221
0.469458
0.271193
0.291822
0.200491
0.632739
0.630648
0.629762
0.62852
0.627704
0.626875
0.625281
0.623378
0.621791
0.620894
0.620032
0.618486
0.617105
0.615641
0.614382
0.608165
0.598177
0.592026
0.616391
0.711819
1.80532
6.98638
0
0
0
0
0
0.109637
0.551659
1.006
1.07091
1.2336
1.43425
1.71217
2.18067
3.35642
6.43965
2.84229
2.17384
1.85346
1.65856
1.58478
1.75994
3.97901
0.811328
0.447674
0
3.73585e-06
5.86487
1.51626
0.762653
0.6733
0.671858
0.677999
0.677078
0.671843
0.665329
0.658385
0.651244
0.644086
0.637099
0.629884
0.623551
0.617041
0.615314
0.61143
0.620309
0.603218
0.629767
0.575677
0.672255
0.509641
0.768526
0.399362
0.515976
0.284316
0.292131
0.201782
)
;

boundaryField
{
    inlet
    {
        type            calculated;
        value           nonuniform List<scalar> 
27
(
0.0874116
0.087354
0.0872484
0.0871089
0.0869612
0.0868091
0.0866483
0.0864801
0.0863056
0.0861313
0.0859578
0.0857884
0.0856264
0.0854756
0.0853398
0.0852231
0.0851237
0.0853277
0.0853014
0.0853131
0.0853839
0.0855214
0.085745
0.0860664
0.0865345
0.0870081
0.0879911
)
;
    }
    outlet
    {
        type            calculated;
        value           nonuniform List<scalar> 
78
(
0.702371
0.69836
0.696315
0.693691
0.691738
0.689772
0.686561
0.682887
0.679737
0.677669
0.675658
0.672635
0.669719
0.666701
0.664053
0.656298
0.645049
0.638887
0.665517
0.764648
1.90387
6.82672
0
0
0
0
0
0.109383
0.552301
1.03581
1.07574
1.2358
1.43511
1.71155
2.17696
3.33866
6.6597
2.85697
2.17951
1.85596
1.65892
1.58241
1.74882
4.9004
0.830722
0.459074
0
3.06279e-06
5.47386
1.60617
0.804586
0.709688
0.708696
0.716358
0.717197
0.714051
0.710012
0.705821
0.701626
0.697448
0.693453
0.688803
0.685195
0.680323
0.682564
0.678922
0.697447
0.668125
0.72084
0.624288
0.820991
0.532306
1.48177
0.407058
0.545233
0.289216
0.291778
0.207399
)
;
    }
    walls
    {
        type            calculated;
        value           nonuniform List<scalar> 0();
    }
    frontAndBack
    {
        type            empty;
    }
    procBoundary7to3
    {
        type            processor;
        value           nonuniform List<scalar> 
16
(
0.200377
0.199651
0.226608
0.245192
0.260641
0.281774
0.310989
0.344162
0.403054
0.403054
0.448771
0.502513
0.547044
0.607497
0.579852
0.637634
)
;
    }
    procBoundary7to6
    {
        type            processor;
        value           nonuniform List<scalar> 
91
(
0.223099
0.251495
0.251495
0.257026
0.257026
0.400212
0.400212
0.419209
0.310866
0.310866
0.349608
0.324368
0.324368
0.293808
0.313382
0.314541
0.314541
0.271686
0.280948
0.292962
0.292962
0.239012
0.248075
0.257733
0.26801
0.26801
0.209893
0.216656
0.223813
0.231373
0.239356
0.239356
0.183527
0.187811
0.192398
0.197302
0.202533
0.2081
0.214014
0.214014
0.164523
0.166046
0.167713
0.169542
0.171549
0.17375
0.176158
0.178789
0.181653
0.184761
0.188127
0.191764
0.191764
0.0042399
0
0
0.239168
0.990884
0.650121
0.655115
0.68241
0.718356
0.765731
0.83301
0.940007
1.14282
1.7007
2.9333
1.38157
1.07573
0.942975
0.867857
0.811158
0.748169
0.652117
0.248824
0.202124
0
0
0
1.99343
0.281632
0.162084
0.160034
0.169094
0.172997
0.173573
0.174448
0.175796
0.177164
0.177164
)
;
    }
}


// ************************************************************************* //
