# p  FACE_DATA 150
# x y z  p
0.29576437 -0.05 0.059999702 12120.541
0.28738431 -0.05 0.059968924 12153.748
0.27918472 -0.05 0.059906283 12193.172
0.27116186 -0.05 0.05981265 12233.22
0.26331203 -0.05 0.059689027 12275.118
0.25563166 -0.05 0.059536266 12318.847
0.24811723 -0.05 0.059355154 12364.15
0.24076528 -0.05 0.059146558 12410.557
0.23357246 -0.05 0.058911358 12458.16
0.22653546 -0.05 0.058650342 12507.066
0.21965107 -0.05 0.058364202 12557.353
0.21291613 -0.05 0.058053757 12608.756
0.20632755 -0.05 0.057719714 12662.036
0.19988233 -0.05 0.057362758 12715.931
0.19357748 -0.05 0.056983702 12771.045
0.18741014 -0.05 0.056583118 12826.766
0.18137746 -0.05 0.056161624 12882.481
0.17547671 -0.05 0.055719844 12939.367
0.16970518 -0.05 0.055258363 12997.776
0.1640602 -0.05 0.05477783 13057.621
0.15853921 -0.05 0.054278745 13119.976
0.15313967 -0.05 0.053761636 13184.478
0.14785914 -0.05 0.053226963 13251.023
0.14269518 -0.05 0.052675259 13318.809
0.13764543 -0.05 0.052106992 13388.994
0.13270762 -0.05 0.051522466 13460.802
0.12787949 -0.05 0.050922169 13534.118
0.12315884 -0.05 0.050306449 13609.715
0.11854353 -0.05 0.049675628 13686.238
0.11403148 -0.05 0.04903008 13762.73
0.10962066 -0.05 0.04837006 13837.613
0.10530908 -0.05 0.047695796 13912.872
0.10109483 -0.05 0.047007509 13992.564
0.096976017 -0.05 0.046305459 14077.057
0.092950808 -0.05 0.04558984 14164.277
0.08901745 -0.05 0.044860715 14252.8
0.085174232 -0.05 0.044118143 14342.272
0.081419479 -0.05 0.043362242 14433.154
0.077751578 -0.05 0.042593081 14527.545
0.074168981 -0.05 0.041810614 14626.983
0.070670198 -0.05 0.041014781 14730.94
0.06725379 -0.05 0.040205492 14841.217
0.06391837 -0.05 0.039382651 14962.472
0.060662655 -0.05 0.038545988 15097.568
0.057485397 -0.05 0.037695273 15241.134
0.054385413 -0.05 0.036830261 15392.482
0.051361621 -0.05 0.035950545 15554.169
0.048412992 -0.05 0.035055749 15728.859
0.045538629 -0.05 0.034145316 15913.47
0.042737712 -0.05 0.03321865 16099.977
0.040009498 -0.05 0.032275148 16294.925
0.037353406 -0.05 0.031314032 16501.213
0.034768993 -0.05 0.030334375 16721.952
0.032255944 -0.05 0.02933521 16955.693
0.029814132 -0.05 0.028315426 17203.262
0.027443661 -0.05 0.027273729 17468.122
0.025144824 -0.05 0.026208776 17754.014
0.022918276 -0.05 0.02511886 18068.527
0.020764984 -0.05 0.02400217 18419.589
0.018686283 -0.05 0.022856725 18820.634
0.016684024 -0.05 0.021680228 19273.318
0.01476059 -0.05 0.020470219 19780.455
0.012919252 -0.05 0.019223865 20353.672
0.011164249 -0.05 0.017938283 20997.219
0.0095007128 -0.05 0.016610449 21724.035
0.0079348886 -0.05 0.015236971 22559.85
0.006474941 -0.05 0.013814774 23521.797
0.0051312596 -0.05 0.012341958 24609.373
0.0039150106 -0.05 0.010816511 25820.964
0.0028396284 -0.05 0.009238845 27148.705
0.0019206554 -0.05 0.007613688 28561.782
0.0011720639 -0.05 0.0059475212 30044.093
0.0006061561 -0.05 0.004252283 31510.565
0.00023063831 -0.05 0.0025452878 32813.201
4.5460517e-05 -0.05 0.0008455405 33878.051
0.99536103 -0.05 0.00067021835 26635.119
0.98608198 -0.05 0.0020028877 26530.527
0.97680071 -0.05 0.0033200849 26398.945
0.96751731 -0.05 0.0046220425 26274.474
0.95823181 -0.05 0.0059090613 26148.205
0.94894428 -0.05 0.0071813587 26023.531
0.93965479 -0.05 0.0084391859 25899.703
0.93036339 -0.05 0.0096828487 25777.361
0.92107012 -0.05 0.010912491 25656.659
0.91177504 -0.05 0.012128333 25537.652
0.90247819 -0.05 0.013330648 25420.484
0.89317963 -0.05 0.014519511 25305.297
0.88387936 -0.05 0.015695054 25192.008
0.87457746 -0.05 0.016857552 25080.562
0.86527395 -0.05 0.01800713 24971.143
0.85596885 -0.05 0.019143875 24863.704
0.84666223 -0.05 0.020267984 24758.23
0.8373541 -0.05 0.021379502 24654.759
0.82804448 -0.05 0.022478516 24553.153
0.8187334 -0.05 0.023565119 24453.39
0.8094209 -0.05 0.024639397 24355.153
0.80010698 -0.05 0.025701394 24258.378
0.79079168 -0.05 0.026751168 24162.874
0.78147501 -0.05 0.027788748 24068.802
0.77215699 -0.05 0.028814138 23975.918
0.76283764 -0.05 0.029827333 23884.23
0.75351698 -0.05 0.030828337 23793.5
0.74419501 -0.05 0.03181713 23703.909
0.73487174 -0.05 0.032793639 23615.274
0.72554719 -0.05 0.033757832 23527.639
0.71622136 -0.05 0.034709535 23441.06
0.70689427 -0.05 0.03564879 23355.204
0.69756592 -0.05 0.036575541 23269.823
0.68823633 -0.05 0.037489546 23184.481
0.67890547 -0.05 0.03839067 23099.117
0.66957337 -0.05 0.039278803 23013.804
0.66024004 -0.05 0.040153805 22928.426
0.65090546 -0.05 0.04101549 22842.47
0.64156964 -0.05 0.041863622 22755.283
0.63223258 -0.05 0.042697993 22666.242
0.62289428 -0.05 0.043518409 22575.291
0.61355475 -0.05 0.04432459 22482.295
0.60421397 -0.05 0.045116235 22386.635
0.59487195 -0.05 0.045893096 22286.633
0.58552869 -0.05 0.046654869 22180.135
0.57618419 -0.05 0.047401205 22064.612
0.56683843 -0.05 0.048131797 21937.605
0.55749143 -0.05 0.04884624 21796.993
0.54814318 -0.05 0.049544113 21641.447
0.53879368 -0.05 0.050225066 21471.265
0.52944294 -0.05 0.050888717 21288.027
0.52009095 -0.05 0.051534504 21090.812
0.51073771 -0.05 0.052161963 20871.998
0.50138323 -0.05 0.052770675 20622.969
0.49202751 -0.05 0.05336005 20340.076
0.48267056 -0.05 0.053929509 20021.89
0.47331239 -0.05 0.054478508 19670.618
0.46395301 -0.05 0.055006444 19296.16
0.45459243 -0.05 0.05551264 18927.898
0.44523065 -0.05 0.055996468 18346.939
0.43586773 -0.05 0.056457197 16905.316
0.42650365 -0.05 0.05689408 14884.492
0.41713847 -0.05 0.057306403 13354.343
0.4077722 -0.05 0.057693321 12544.346
0.39840488 -0.05 0.058053993 12191.048
0.38903656 -0.05 0.058387504 12035.837
0.37966728 -0.05 0.058692934 11969.122
0.3702971 -0.05 0.058969274 11945.989
0.36092607 -0.05 0.059215505 11939.843
0.35155429 -0.05 0.059430617 11944.899
0.34218182 -0.05 0.059613395 11961.781
0.33280875 -0.05 0.059762648 11985.19
0.3234352 -0.05 0.059877122 12013.697
0.31406128 -0.05 0.059955444 12045.375
0.30468712 -0.05 0.059996221 12081.103
