/*--------------------------------*- C++ -*----------------------------------*\
| =========                 |                                                 |
| \\      /  F ield         | OpenFOAM: The Open Source CFD Toolbox           |
|  \\    /   O peration     | Version:  2306                                  |
|   \\  /    A nd           | Website:  www.openfoam.com                      |
|    \\/     M anipulation  |                                                 |
\*---------------------------------------------------------------------------*/
FoamFile
{
    version     2.0;
    format      ascii;
    arch        "LSB;label=32;scalar=64";
    class       volScalarField;
    location    "0.006";
    object      nut;
}
// * * * * * * * * * * * * * * * * * * * * * * * * * * * * * * * * * * * * * //

dimensions      [0 2 -1 0 0 0 0];

internalField   nonuniform List<scalar> 
20000
(
0.00038894398
0.00096951682
0.0012832188
0.0013797325
0.0012060946
0.00064299171
3.0290326e-05
1.0673727e-08
7.7436938e-09
7.6127986e-09
7.6097863e-09
7.5490207e-09
7.5323182e-09
7.5026374e-09
7.4869598e-09
7.4698124e-09
7.4578605e-09
7.4474635e-09
7.4400262e-09
7.4347757e-09
7.4317925e-09
7.4307245e-09
7.4311687e-09
7.4326927e-09
7.4348076e-09
7.4370602e-09
7.4388225e-09
7.4394231e-09
7.438413e-09
7.435865e-09
7.4326051e-09
7.429348e-09
7.4257142e-09
7.4208037e-09
7.4144879e-09
7.4069266e-09
7.3991014e-09
7.3904757e-09
7.3802696e-09
7.3742403e-09
7.3727556e-09
7.3749171e-09
7.3751497e-09
7.3756374e-09
7.3668869e-09
7.3575333e-09
7.3523357e-09
7.3500825e-09
7.3493251e-09
7.3491229e-09
0.0003864528
0.00095674431
0.0012582941
0.0013415051
0.0011539377
0.00056715346
1.3847601e-05
9.4193221e-09
7.7360561e-09
7.6072323e-09
7.606195e-09
7.5463129e-09
7.5304715e-09
7.5016318e-09
7.4866255e-09
7.4701238e-09
7.4587346e-09
7.4488846e-09
7.441938e-09
7.4371491e-09
7.4345689e-09
7.4338378e-09
7.4345327e-09
7.4361901e-09
7.4383012e-09
7.4404037e-09
7.441906e-09
7.4421976e-09
7.4408164e-09
7.4378029e-09
7.4340051e-09
7.4301977e-09
7.4262236e-09
7.4211895e-09
7.4147664e-09
7.4071506e-09
7.3993687e-09
7.3907212e-09
7.3803379e-09
7.3742068e-09
7.3725429e-09
7.3754157e-09
7.3754079e-09
7.3754757e-09
7.3670206e-09
7.3576978e-09
7.3524466e-09
7.3501387e-09
7.349342e-09
7.3491268e-09
0.00038422768
0.00094478013
0.0012339436
0.0013026213
0.0011001443
0.00049146589
5.424695e-06
8.6797656e-09
7.7291161e-09
7.6020582e-09
7.6017379e-09
7.5436105e-09
7.5285636e-09
7.5006535e-09
7.4863072e-09
7.470488e-09
7.4596782e-09
7.45041e-09
7.443994e-09
7.4397131e-09
7.4375858e-09
7.4372479e-09
7.4382539e-09
7.4401081e-09
7.4422763e-09
7.444278e-09
7.4455537e-09
7.4455464e-09
7.443783e-09
7.4403046e-09
7.4359438e-09
7.4315353e-09
7.4271324e-09
7.4218947e-09
7.415316e-09
7.4075895e-09
7.3997893e-09
7.3911231e-09
7.380692e-09
7.3742906e-09
7.3722426e-09
7.3756179e-09
7.3758266e-09
7.3753834e-09
7.3670176e-09
7.3578396e-09
7.3525402e-09
7.350194e-09
7.3493627e-09
7.3491319e-09
0.00038203933
0.00093307235
0.0012100043
0.0012634443
0.0010458809
0.00042043479
2.0093119e-06
8.2474857e-09
7.7226935e-09
7.5972288e-09
7.5980812e-09
7.5413026e-09
7.5270316e-09
7.500042e-09
7.4863381e-09
7.4711995e-09
7.4609565e-09
7.452255e-09
7.4463555e-09
7.4425627e-09
7.4408715e-09
7.4409017e-09
7.4421822e-09
7.4441881e-09
7.446355e-09
7.448194e-09
7.4491824e-09
7.448816e-09
7.4466212e-09
7.4426789e-09
7.4377531e-09
7.4327378e-09
7.427883e-09
7.4224351e-09
7.4157142e-09
7.407883e-09
7.4000672e-09
7.3913988e-09
7.3809831e-09
7.3743447e-09
7.371945e-09
7.3756913e-09
7.3762461e-09
7.375468e-09
7.3670373e-09
7.357976e-09
7.3526363e-09
7.3502411e-09
7.3493811e-09
7.3491366e-09
0.00037994516
0.00092171296
0.0011867767
0.0012255254
0.00099022318
0.00035336905
7.3689307e-07
7.9896131e-09
7.7173357e-09
7.5928053e-09
7.5945235e-09
7.539305e-09
7.5257863e-09
7.4997203e-09
7.4866461e-09
7.4721905e-09
7.4625077e-09
7.4543772e-09
7.448999e-09
7.4456997e-09
7.4444511e-09
7.4448514e-09
7.4464049e-09
7.4485554e-09
7.4507067e-09
7.4523573e-09
7.4530271e-09
7.4522563e-09
7.449595e-09
7.4451829e-09
7.4396867e-09
7.4340493e-09
7.4287003e-09
7.4230134e-09
7.4161434e-09
7.4081896e-09
7.400336e-09
7.3916719e-09
7.3813497e-09
7.3744982e-09
7.3717755e-09
7.3756702e-09
7.376706e-09
7.3758804e-09
7.3670562e-09
7.3580798e-09
7.3527188e-09
7.3502856e-09
7.3493979e-09
7.3491412e-09
0.00037788337
0.00091041443
0.0011641641
0.0011874198
0.00093233946
0.00029059837
2.817731e-07
7.8348018e-09
7.7128859e-09
7.5888008e-09
7.5914127e-09
7.5376627e-09
7.524864e-09
7.4997215e-09
7.4872621e-09
7.4734865e-09
7.4643606e-09
7.4567961e-09
7.4519382e-09
7.4491358e-09
7.4483254e-09
7.4490871e-09
7.4508984e-09
7.4531706e-09
7.4552736e-09
7.4566943e-09
7.4570024e-09
7.4557685e-09
7.4526097e-09
7.4477046e-09
7.4416394e-09
7.4353724e-09
7.429499e-09
7.4235524e-09
7.4165405e-09
7.4084616e-09
7.4005527e-09
7.3918988e-09
7.381728e-09
7.3747091e-09
7.3716876e-09
7.3755783e-09
7.3770907e-09
7.3765019e-09
7.3671384e-09
7.3581522e-09
7.3527961e-09
7.3503266e-09
7.3494126e-09
7.3491455e-09
0.00037582024
0.00089878335
0.0011401058
0.0011481302
0.00087195508
0.00023231666
1.1790662e-07
7.7416207e-09
7.7087031e-09
7.5852083e-09
7.5885902e-09
7.5363638e-09
7.5242592e-09
7.500041e-09
7.4881836e-09
7.475086e-09
7.466518e-09
7.4595213e-09
7.4551848e-09
7.4528779e-09
7.4525029e-09
7.453619e-09
7.4556743e-09
7.4580465e-09
7.4600701e-09
7.4612249e-09
7.4611239e-09
7.4593686e-09
7.4556866e-09
7.4502633e-09
7.4436301e-09
7.4367261e-09
7.4302953e-09
7.4240617e-09
7.4169164e-09
7.4087163e-09
7.4007356e-09
7.3920898e-09
7.382108e-09
7.3750069e-09
7.3716581e-09
7.3754438e-09
7.3772843e-09
7.3769834e-09
7.3672924e-09
7.3582131e-09
7.3528642e-09
7.35036e-09
7.3494262e-09
7.3491496e-09
0.00037385252
0.00088737715
0.0011163624
0.0011090925
0.00080903384
0.00017962529
5.6147109e-08
7.6835012e-09
7.7054204e-09
7.5820143e-09
7.5861264e-09
7.5354112e-09
7.5239759e-09
7.5006839e-09
7.4894185e-09
7.4769986e-09
7.4689879e-09
7.4625613e-09
7.4587468e-09
7.4569347e-09
7.4569913e-09
7.4584521e-09
7.4607343e-09
7.4631801e-09
7.4650888e-09
7.4659401e-09
7.4653761e-09
7.4630393e-09
7.4588068e-09
7.45284e-09
7.4456396e-09
7.4381008e-09
7.4310838e-09
7.4245269e-09
7.4172566e-09
7.4089425e-09
7.4008792e-09
7.3922336e-09
7.3824615e-09
7.3753907e-09
7.3716989e-09
7.3753099e-09
7.377305e-09
7.3772945e-09
7.3675842e-09
7.358291e-09
7.3529207e-09
7.35039e-09
7.3494386e-09
7.3491537e-09
0.00037196428
0.00087594642
0.0010925324
0.0010698642
0.00074358819
0.00013061101
3.0760212e-08
7.6470584e-09
7.6972633e-09
7.5792068e-09
7.5839905e-09
7.5348091e-09
7.5240187e-09
7.501655e-09
7.4909719e-09
7.4792302e-09
7.4717774e-09
7.4659231e-09
7.4626321e-09
7.461314e-09
7.4617973e-09
7.4635918e-09
7.4660815e-09
7.4685708e-09
7.4703261e-09
7.4708341e-09
7.4697465e-09
7.4667802e-09
7.4619595e-09
7.4554258e-09
7.4476596e-09
7.4394917e-09
7.4318671e-09
7.4249521e-09
7.4175594e-09
7.4091415e-09
7.4009864e-09
7.392322e-09
7.3827609e-09
7.3757772e-09
7.371801e-09
7.3752276e-09
7.3772597e-09
7.3774794e-09
7.3679088e-09
7.3584022e-09
7.3529754e-09
7.3504182e-09
7.3494504e-09
7.3491578e-09
0.00037010512
0.00086433996
0.0010684068
0.0010305778
0.00067595546
8.6016521e-05
1.9446054e-08
7.623472e-09
7.6928123e-09
7.5768384e-09
7.5822124e-09
7.5345642e-09
7.5243936e-09
7.5029592e-09
7.4928503e-09
7.4817871e-09
7.4748945e-09
7.4696153e-09
7.4668498e-09
7.4660242e-09
7.4669282e-09
7.4690434e-09
7.471718e-09
7.4742166e-09
7.475777e-09
7.4758973e-09
7.4742192e-09
7.4705887e-09
7.4651303e-09
7.4580091e-09
7.4496782e-09
7.4408923e-09
7.4326455e-09
7.4253351e-09
7.4178183e-09
7.4093153e-09
7.4010607e-09
7.3923637e-09
7.3829944e-09
7.3760767e-09
7.3719454e-09
7.3752376e-09
7.3772435e-09
7.3775839e-09
7.368112e-09
7.3585692e-09
7.3530374e-09
7.350446e-09
7.349459e-09
7.3491609e-09
0.00036825435
0.00085239359
0.0010432965
0.00098851971
0.00060676468
4.8927999e-05
1.4019647e-08
7.6080267e-09
7.6884417e-09
7.5748905e-09
7.5807849e-09
7.5346801e-09
7.5251051e-09
7.5046008e-09
7.4950594e-09
7.4846765e-09
7.4783469e-09
7.4736466e-09
7.4714085e-09
7.4710735e-09
7.472391e-09
7.4748117e-09
7.477645e-09
7.4801149e-09
7.4814396e-09
7.4811162e-09
7.4787822e-09
7.4744511e-09
7.4683091e-09
7.460578e-09
7.4516837e-09
7.4422947e-09
7.4334195e-09
7.4256782e-09
7.4180288e-09
7.4094596e-09
7.4011005e-09
7.3923598e-09
7.3831634e-09
7.3763009e-09
7.3721071e-09
7.3753343e-09
7.377297e-09
7.377662e-09
7.3682363e-09
7.3587257e-09
7.3531061e-09
7.350466e-09
7.349464e-09
7.349163e-09
0.00036641014
0.00084020991
0.0010173653
0.00094671528
0.000537286
2.338443e-05
1.1255103e-08
7.5977067e-09
7.6844295e-09
7.5733657e-09
7.5797152e-09
7.5351569e-09
7.5261557e-09
7.5065831e-09
7.4976058e-09
7.4879062e-09
7.4821441e-09
7.4780265e-09
7.4763178e-09
7.4764707e-09
7.4781927e-09
7.4809009e-09
7.4838626e-09
7.4862615e-09
7.4873061e-09
7.4864767e-09
7.4834257e-09
7.4783542e-09
7.4714845e-09
7.4631214e-09
7.4536641e-09
7.4436899e-09
7.4341884e-09
7.4259835e-09
7.4181868e-09
7.4095718e-09
7.4011052e-09
7.3923103e-09
7.3832676e-09
7.3764764e-09
7.3722792e-09
7.3754746e-09
7.3774194e-09
7.3777495e-09
7.3683073e-09
7.3587973e-09
7.3531561e-09
7.3504851e-09
7.3494674e-09
7.3491646e-09
0.00036461149
0.00082796706
0.00099067149
0.00090492524
0.00046813769
9.503543e-06
9.7721951e-09
7.5906581e-09
7.6807168e-09
7.5722559e-09
7.5789889e-09
7.5359932e-09
7.5275486e-09
7.5089123e-09
7.5004977e-09
7.4914855e-09
7.4862956e-09
7.4827646e-09
7.481587e-09
7.4822242e-09
7.4843399e-09
7.4873148e-09
7.4903698e-09
7.4926508e-09
7.4933662e-09
7.4919547e-09
7.4881501e-09
7.4822791e-09
7.4746448e-09
7.4656274e-09
7.4556074e-09
7.4450679e-09
7.4349509e-09
7.4262548e-09
7.418289e-09
7.409647e-09
7.4010756e-09
7.3922198e-09
7.3833165e-09
7.3766341e-09
7.372475e-09
7.3756356e-09
7.3775951e-09
7.3778643e-09
7.3683474e-09
7.3588069e-09
7.3531686e-09
7.3504967e-09
7.3494713e-09
7.3491657e-09
0.00036286722
0.00081595053
0.00096511746
0.00086242001
0.00040048769
3.4662922e-06
8.9548468e-09
7.5857028e-09
7.6773354e-09
7.5715642e-09
7.5786265e-09
7.5372038e-09
7.5293006e-09
7.511602e-09
7.5037487e-09
7.4954267e-09
7.4908132e-09
7.4878719e-09
7.4872263e-09
7.4883427e-09
7.4908394e-09
7.4940562e-09
7.4971647e-09
7.4992781e-09
7.4996066e-09
7.4975364e-09
7.4929373e-09
7.4862135e-09
7.4777785e-09
7.4680854e-09
7.4575017e-09
7.446418e-09
7.4357041e-09
7.4264963e-09
7.4183338e-09
7.4096799e-09
7.4010124e-09
7.3920747e-09
7.3833267e-09
7.3768006e-09
7.3727215e-09
7.3758261e-09
7.3778186e-09
7.3780001e-09
7.3683495e-09
7.3587951e-09
7.3531654e-09
7.3504976e-09
7.3494732e-09
7.3491666e-09
0.00036105208
0.00080348026
0.00093853838
0.00081829144
0.00033595833
1.2122898e-06
8.49554e-09
7.5822499e-09
7.6743292e-09
7.571333e-09
7.5786478e-09
7.5388077e-09
7.5314253e-09
7.5146631e-09
7.5073694e-09
7.4997402e-09
7.4957077e-09
7.4933584e-09
7.4932453e-09
7.4948346e-09
7.4976969e-09
7.5011269e-09
7.5042447e-09
7.5061407e-09
7.5060072e-09
7.5032052e-09
7.4977703e-09
7.4901428e-09
7.4808734e-09
7.4704844e-09
7.4593354e-09
7.4477287e-09
7.4364438e-09
7.4267129e-09
7.4183213e-09
7.4096649e-09
7.4009166e-09
7.3918931e-09
7.3832975e-09
7.3769865e-09
7.3730398e-09
7.3760671e-09
7.3780875e-09
7.378151e-09
7.3683219e-09
7.3587708e-09
7.3531503e-09
7.3504908e-09
7.3494723e-09
7.349167e-09
0.00035919038
0.00079075099
0.00091127853
0.00077199382
0.00027548457
4.3220873e-07
8.2349236e-09
7.5799339e-09
7.6717199e-09
7.5715711e-09
7.579069e-09
7.5408112e-09
7.5339314e-09
7.5181047e-09
7.5113703e-09
7.5044372e-09
7.5009891e-09
7.4992351e-09
7.499654e-09
7.5017081e-09
7.5049175e-09
7.5085269e-09
7.5116048e-09
7.5132261e-09
7.5125469e-09
7.5089529e-09
7.5026265e-09
7.4940523e-09
7.4839179e-09
7.4728143e-09
7.4610976e-09
7.4489884e-09
7.4371642e-09
7.4269092e-09
7.4182529e-09
7.4095967e-09
7.4007854e-09
7.3916711e-09
7.3832291e-09
7.3771858e-09
7.3734234e-09
7.3763921e-09
7.3783991e-09
7.3783134e-09
7.3682794e-09
7.358722e-09
7.3531221e-09
7.3504786e-09
7.3494688e-09
7.349167e-09
0.00035728328
0.00077785241
0.00088337538
0.00072397968
0.0002187339
1.6646497e-07
8.0848446e-09
7.5784929e-09
7.6695054e-09
7.5722705e-09
7.5798985e-09
7.54322e-09
7.5368282e-09
7.5219356e-09
7.5157626e-09
7.5095281e-09
7.5066696e-09
7.5055129e-09
7.5064622e-09
7.5089713e-09
7.5125061e-09
7.5162553e-09
7.5192395e-09
7.5205217e-09
7.5192012e-09
7.5147666e-09
7.5074839e-09
7.497926e-09
7.4868999e-09
7.4750656e-09
7.462778e-09
7.4501851e-09
7.4378581e-09
7.4270891e-09
7.4181326e-09
7.4094709e-09
7.400605e-09
7.3914051e-09
7.3831288e-09
7.3773729e-09
7.3738325e-09
7.3768084e-09
7.3787323e-09
7.378484e-09
7.3682104e-09
7.3586495e-09
7.3530795e-09
7.3504603e-09
7.3494633e-09
7.3491664e-09
0.00035539271
0.000765045
0.00085494942
0.00067461333
0.00016557016
7.2759553e-08
7.995153e-09
7.5778153e-09
7.6676931e-09
7.5734379e-09
7.5811501e-09
7.5460396e-09
7.5401225e-09
7.5261634e-09
7.5205551e-09
7.5150225e-09
7.5127595e-09
7.5122025e-09
7.5136799e-09
7.5166318e-09
7.5204658e-09
7.5243106e-09
7.527144e-09
7.5280095e-09
7.5259505e-09
7.5206221e-09
7.5123238e-09
7.5017482e-09
7.4898085e-09
7.4772297e-09
7.4643673e-09
7.4513074e-09
7.4385164e-09
7.4272549e-09
7.4179668e-09
7.409283e-09
7.4003823e-09
7.3910975e-09
7.3829753e-09
7.3775126e-09
7.3742084e-09
7.3772746e-09
7.3790834e-09
7.3786616e-09
7.3681076e-09
7.3585526e-09
7.3530235e-09
7.3504361e-09
7.3494557e-09
7.3491651e-09
0.00035358085
0.00075261918
0.00082661555
0.00062247874
0.00011797915
3.7183683e-08
7.9404187e-09
7.5778168e-09
7.6662983e-09
7.5750748e-09
7.582839e-09
7.5492775e-09
7.5438222e-09
7.5307962e-09
7.5257572e-09
7.5209318e-09
7.5192706e-09
7.5193153e-09
7.5213171e-09
7.5246969e-09
7.5287987e-09
7.5326892e-09
7.5353115e-09
7.5356642e-09
7.5327768e-09
7.5264944e-09
7.5171248e-09
7.5055019e-09
7.4926321e-09
7.4792984e-09
7.4658573e-09
7.452344e-09
7.4391288e-09
7.4274071e-09
7.4177638e-09
7.4090262e-09
7.4001215e-09
7.3907527e-09
7.3827641e-09
7.3775747e-09
7.3745092e-09
7.3777415e-09
7.3794702e-09
7.3788419e-09
7.3679686e-09
7.3584306e-09
7.3529539e-09
7.3504063e-09
7.3494462e-09
7.3491632e-09
0.00035187206
0.00074060506
0.00080134328
0.00056775743
7.5342741e-05
2.2161751e-08
7.9057718e-09
7.5784662e-09
7.665324e-09
7.5771808e-09
7.5849501e-09
7.5529327e-09
7.5479311e-09
7.5358397e-09
7.5313788e-09
7.5272663e-09
7.5262148e-09
7.5268629e-09
7.5293838e-09
7.533173e-09
7.5375053e-09
7.541386e-09
7.543726e-09
7.5434561e-09
7.5396733e-09
7.5323517e-09
7.5218653e-09
7.5091706e-09
7.4953601e-09
7.4812648e-09
7.4672412e-09
7.4532849e-09
7.4396836e-09
7.4275431e-09
7.4175347e-09
7.4086853e-09
7.399811e-09
7.3903765e-09
7.3825021e-09
7.3775462e-09
7.3747449e-09
7.3782118e-09
7.3799092e-09
7.3790163e-09
7.3677906e-09
7.3582834e-09
7.3528713e-09
7.3503711e-09
7.3494349e-09
7.3491608e-09
0.00035019869
0.00072825722
0.00077410432
0.00051018939
4.1309874e-05
1.526988e-08
7.8831029e-09
7.579713e-09
7.6647577e-09
7.5797395e-09
7.5874591e-09
7.5570039e-09
7.5524551e-09
7.5413037e-09
7.5374316e-09
7.5340403e-09
7.5336057e-09
7.5348575e-09
7.53789e-09
7.5420655e-09
7.5465848e-09
7.5503944e-09
7.552371e-09
7.5513608e-09
7.5466108e-09
7.538169e-09
7.5265224e-09
7.512737e-09
7.4979815e-09
7.4831226e-09
7.4685137e-09
7.4541215e-09
7.4401684e-09
7.4276573e-09
7.4172864e-09
7.4082794e-09
7.3994458e-09
7.3899738e-09
7.382203e-09
7.3774568e-09
7.3749626e-09
7.3787168e-09
7.3804053e-09
7.3791717e-09
7.3675708e-09
7.358111e-09
7.3527761e-09
7.3503309e-09
7.349422e-09
7.3491578e-09
0.00034865335
0.0007160163
0.00074728064
0.00045089614
1.9162033e-05
1.1880218e-08
7.8676107e-09
7.5815089e-09
7.6646024e-09
7.5827473e-09
7.5903507e-09
7.5614993e-09
7.5574108e-09
7.5472041e-09
7.5439334e-09
7.5412689e-09
7.5414581e-09
7.5433124e-09
7.5468455e-09
7.5513789e-09
7.5560355e-09
7.5597078e-09
7.5612217e-09
7.5593526e-09
7.5535605e-09
7.5439201e-09
7.5310736e-09
7.5161847e-09
7.5004861e-09
7.4848663e-09
7.4696708e-09
7.4548471e-09
7.4405708e-09
7.4277415e-09
7.4170111e-09
7.407817e-09
7.3990195e-09
7.3895459e-09
7.3818786e-09
7.3773228e-09
7.3751995e-09
7.3792585e-09
7.3809547e-09
7.3792906e-09
7.3673072e-09
7.3579142e-09
7.3526693e-09
7.3502865e-09
7.3494077e-09
7.3491545e-09
0.00034722019
0.00070368662
0.00071977786
0.00039069414
7.6590956e-06
1.0115532e-08
7.8562759e-09
7.5838679e-09
7.6648768e-09
7.5862268e-09
7.5936519e-09
7.5664409e-09
7.56282e-09
7.5535607e-09
7.5509012e-09
7.5489691e-09
7.5497868e-09
7.55224e-09
7.5562594e-09
7.5611159e-09
7.5658535e-09
7.5693152e-09
7.5702434e-09
7.5674143e-09
7.5604875e-09
7.5495776e-09
7.5354954e-09
7.5194966e-09
7.5028634e-09
7.4864909e-09
7.4707106e-09
7.4554581e-09
7.4408796e-09
7.4277862e-09
7.4167082e-09
7.4073019e-09
7.3985268e-09
7.3890896e-09
7.3815283e-09
7.3771469e-09
7.3754596e-09
7.3798186e-09
7.3815597e-09
7.3793461e-09
7.3669996e-09
7.3576939e-09
7.3525519e-09
7.3502382e-09
7.3493922e-09
7.3491507e-09
0.00034573309
0.00069040757
0.00069153931
0.00033193136
2.799884e-06
9.1629415e-09
7.8474659e-09
7.5868205e-09
7.665641e-09
7.5902191e-09
7.5974373e-09
7.5718557e-09
7.5687062e-09
7.5603927e-09
7.5583538e-09
7.557157e-09
7.558607e-09
7.5616534e-09
7.5661397e-09
7.5712773e-09
7.5760325e-09
7.5791958e-09
7.5794023e-09
7.5755267e-09
7.567354e-09
7.5551131e-09
7.5397655e-09
7.5226567e-09
7.5051035e-09
7.4879917e-09
7.4716318e-09
7.4559535e-09
7.4410866e-09
7.4277747e-09
7.4163997e-09
7.4067442e-09
7.3979646e-09
7.3885996e-09
7.3811497e-09
7.3769403e-09
7.3757574e-09
7.3804074e-09
7.3822126e-09
7.3793379e-09
7.3666494e-09
7.3574512e-09
7.3524249e-09
7.3501867e-09
7.3493759e-09
7.3491467e-09
0.00034415138
0.00067595154
0.00066189359
0.00027651944
9.9634879e-07
8.6315133e-09
7.8404907e-09
7.5904443e-09
7.6669138e-09
7.5947434e-09
7.6017872e-09
7.5777606e-09
7.5750817e-09
7.5677139e-09
7.5663054e-09
7.5658477e-09
7.5679329e-09
7.5715643e-09
7.5764932e-09
7.5818627e-09
7.5865646e-09
7.589327e-09
7.5886669e-09
7.5836516e-09
7.5741296e-09
7.5604984e-09
7.543862e-09
7.5256492e-09
7.5071968e-09
7.4893644e-09
7.4724349e-09
7.4563343e-09
7.4411914e-09
7.4276707e-09
7.4160602e-09
7.4061529e-09
7.3973333e-09
7.3880714e-09
7.3807492e-09
7.376708e-09
7.3760855e-09
7.3810409e-09
7.3828957e-09
7.3792822e-09
7.3662588e-09
7.3571876e-09
7.3522895e-09
7.3501326e-09
7.3493589e-09
7.3491425e-09
0.00034236551
0.00066005189
0.00063005311
0.00022384221
3.654964e-07
8.327675e-09
7.8364845e-09
7.5946743e-09
7.668691e-09
7.5997882e-09
7.6067657e-09
7.5841741e-09
7.5819618e-09
7.5755402e-09
7.5747737e-09
7.5750577e-09
7.57778e-09
7.5819847e-09
7.587325e-09
7.59287e-09
7.59744e-09
7.5996732e-09
7.5980064e-09
7.5917497e-09
7.5807792e-09
7.5657051e-09
7.5477641e-09
7.5284599e-09
7.5091339e-09
7.4906045e-09
7.4731193e-09
7.4566031e-09
7.4412002e-09
7.427474e-09
7.4156743e-09
7.4055323e-09
7.3966364e-09
7.3875022e-09
7.3803378e-09
7.3764515e-09
7.3764503e-09
7.3817261e-09
7.3835956e-09
7.3791627e-09
7.3658311e-09
7.3569044e-09
7.3521471e-09
7.3500766e-09
7.3493414e-09
7.3491381e-09
0.00034027102
0.00064235858
0.00059277791
0.00017365704
1.4685983e-07
8.1557123e-09
7.8323353e-09
7.5995148e-09
7.6709818e-09
7.6053576e-09
7.612302e-09
7.5911093e-09
7.5893606e-09
7.5838876e-09
7.5837753e-09
7.584804e-09
7.5881635e-09
7.5929256e-09
7.5986388e-09
7.6042944e-09
7.6086407e-09
7.6101892e-09
7.6074023e-09
7.5997734e-09
7.5872687e-09
7.5707055e-09
7.551452e-09
7.5310751e-09
7.5109065e-09
7.4917085e-09
7.4736833e-09
7.4567681e-09
7.4411054e-09
7.4271915e-09
7.4152218e-09
7.4048783e-09
7.3958768e-09
7.3868902e-09
7.3799299e-09
7.3761627e-09
7.3768508e-09
7.3824632e-09
7.3843127e-09
7.3789187e-09
7.3653702e-09
7.3566035e-09
7.3519989e-09
7.3500193e-09
7.3493238e-09
7.3491336e-09
0.00033795396
0.00062344707
0.00055078355
0.00012701981
6.7395679e-08
8.0565082e-09
7.8286018e-09
7.6049637e-09
7.6737885e-09
7.6114511e-09
7.6181995e-09
7.5985655e-09
7.5972954e-09
7.5927736e-09
7.5933285e-09
7.5951042e-09
7.5990986e-09
7.6043964e-09
7.6104354e-09
7.6161272e-09
7.6201404e-09
7.6208369e-09
7.616815e-09
7.6076795e-09
7.5935622e-09
7.5754735e-09
7.5549083e-09
7.5334838e-09
7.5125075e-09
7.4926709e-09
7.4741264e-09
7.4568427e-09
7.4408951e-09
7.4268099e-09
7.4146852e-09
7.4041779e-09
7.3950514e-09
7.3862338e-09
7.3795358e-09
7.3758679e-09
7.3772873e-09
7.3832499e-09
7.3850393e-09
7.378543e-09
7.3648787e-09
7.3562866e-09
7.3518465e-09
7.3499614e-09
7.3493063e-09
7.3491292e-09
0.0003354451
0.00060375238
0.00050451164
8.6533065e-05
3.6087156e-08
7.9988587e-09
7.8253309e-09
7.6110146e-09
7.6771351e-09
7.6180825e-09
7.6243391e-09
7.6065404e-09
7.6057867e-09
7.6022184e-09
7.6034537e-09
7.6059773e-09
7.6106011e-09
7.6164064e-09
7.6227147e-09
7.628358e-09
7.6319065e-09
7.6315732e-09
7.6261965e-09
7.6154255e-09
7.5996238e-09
7.5799832e-09
7.5581162e-09
7.535676e-09
7.5139308e-09
7.4934862e-09
7.4744535e-09
7.4568249e-09
7.4406176e-09
7.426339e-09
7.4140545e-09
7.4034121e-09
7.3941487e-09
7.3855314e-09
7.379161e-09
7.3756004e-09
7.3778026e-09
7.3840767e-09
7.3857637e-09
7.3780326e-09
7.3643558e-09
7.3559561e-09
7.3516916e-09
7.3499035e-09
7.349289e-09
7.3491249e-09
0.00033273444
0.00058339286
0.00045720964
5.2467376e-05
2.2347271e-08
7.9650653e-09
7.8225962e-09
7.617695e-09
7.6810393e-09
7.6252685e-09
7.6310127e-09
7.6150507e-09
7.6148536e-09
7.6122427e-09
7.6141721e-09
7.6174434e-09
7.6226862e-09
7.6289622e-09
7.6354744e-09
7.6409729e-09
7.643889e-09
7.6423629e-09
7.6354927e-09
7.6229677e-09
7.6054191e-09
7.5842119e-09
7.5610629e-09
7.5376448e-09
7.51517e-09
7.4941521e-09
7.4746736e-09
7.4566825e-09
7.4402678e-09
7.4257926e-09
7.4133323e-09
7.4025638e-09
7.3931538e-09
7.3847766e-09
7.3788133e-09
7.3753683e-09
7.3784175e-09
7.3849237e-09
7.3864859e-09
7.3773989e-09
7.3637937e-09
7.3556152e-09
7.3515355e-09
7.3498463e-09
7.3492722e-09
7.3491207e-09
0.00032971237
0.00056125449
0.00041020421
2.7347987e-05
1.5820336e-08
7.9454705e-09
7.8204384e-09
7.6250019e-09
7.6855113e-09
7.6330174e-09
7.6387722e-09
7.624156e-09
7.6245201e-09
7.6228715e-09
7.6255081e-09
7.6295232e-09
7.6353682e-09
7.642068e-09
7.648707e-09
7.6539427e-09
7.6560298e-09
7.6531791e-09
7.64464e-09
7.6302605e-09
7.6109139e-09
7.5881375e-09
7.5637364e-09
7.5393838e-09
7.5162202e-09
7.4946725e-09
7.4747802e-09
7.4564578e-09
7.4398499e-09
7.4251864e-09
7.4125342e-09
7.4016275e-09
7.3920605e-09
7.3839592e-09
7.3784989e-09
7.3752476e-09
7.3791247e-09
7.3857541e-09
7.3872114e-09
7.3766499e-09
7.3631925e-09
7.3552674e-09
7.35138e-09
7.3497904e-09
7.349256e-09
7.3491167e-09
0.00032674917
0.00053924409
0.00036171782
1.2234119e-05
1.2525502e-08
7.9343607e-09
7.8188783e-09
7.6329272e-09
7.6905681e-09
7.6413477e-09
7.6474866e-09
7.6339075e-09
7.6348172e-09
7.6341337e-09
7.6374869e-09
7.6422379e-09
7.6486594e-09
7.6557251e-09
7.6624005e-09
7.667232e-09
7.6682832e-09
7.6639563e-09
7.6535874e-09
7.6372583e-09
7.6160764e-09
7.5917418e-09
7.5661282e-09
7.5408877e-09
7.5170812e-09
7.4950548e-09
7.4747318e-09
7.4561475e-09
7.4393661e-09
7.4245322e-09
7.4116842e-09
7.4006159e-09
7.3908786e-09
7.3830778e-09
7.378205e-09
7.3753047e-09
7.3799612e-09
7.3865147e-09
7.3878921e-09
7.3757917e-09
7.3625594e-09
7.3549164e-09
7.3512265e-09
7.3497362e-09
7.3492406e-09
7.3491129e-09
0.00032405846
0.00051858443
0.00031285517
4.8628908e-06
1.0747247e-08
7.9283516e-09
7.8179553e-09
7.6415059e-09
7.696258e-09
7.6503021e-09
7.6564202e-09
7.6443182e-09
7.6457789e-09
7.6460577e-09
7.6501345e-09
7.6556075e-09
7.6625703e-09
7.669932e-09
7.6765391e-09
7.6807911e-09
7.6805954e-09
7.6746317e-09
7.6622773e-09
7.6439159e-09
7.6208768e-09
7.5950083e-09
7.5682304e-09
7.5421527e-09
7.5177591e-09
7.4952919e-09
7.4745679e-09
7.4557432e-09
7.4388145e-09
7.423834e-09
7.4108045e-09
7.3995553e-09
7.3896411e-09
7.3821503e-09
7.3778883e-09
7.3755545e-09
7.3809723e-09
7.3871592e-09
7.3884624e-09
7.3748365e-09
7.3619038e-09
7.3545656e-09
7.3510764e-09
7.3496842e-09
7.349226e-09
7.3491093e-09
0.00032152058
0.00049700909
0.0002638774
1.8047451e-06
9.7587807e-09
7.9255771e-09
7.8177434e-09
7.6508214e-09
7.7026439e-09
7.6599186e-09
7.6653475e-09
7.655405e-09
7.6574338e-09
7.6586712e-09
7.6634751e-09
7.6696496e-09
7.6771077e-09
7.6846839e-09
7.6910976e-09
7.6945489e-09
7.6929267e-09
7.685128e-09
7.6706527e-09
7.6501902e-09
7.625289e-09
7.5979245e-09
7.5700372e-09
7.5431821e-09
7.5182634e-09
7.4953459e-09
7.4742961e-09
7.4552501e-09
7.4381918e-09
7.4230868e-09
7.409905e-09
7.3984702e-09
7.3883979e-09
7.3812212e-09
7.377491e-09
7.3760565e-09
7.3821924e-09
7.387688e-09
7.38885e-09
7.3738041e-09
7.3612356e-09
7.3542183e-09
7.3509309e-09
7.3496347e-09
7.3492125e-09
7.349106e-09
0.00031936129
0.00047464384
0.00021545983
6.614557e-07
9.1999996e-09
7.9249344e-09
7.8182645e-09
7.660916e-09
7.7097499e-09
7.670213e-09
7.6753195e-09
7.6671864e-09
7.6698082e-09
7.6719999e-09
7.6775316e-09
7.6843793e-09
7.6922745e-09
7.6999682e-09
7.7060332e-09
7.7084412e-09
7.7052148e-09
7.6953719e-09
7.6786549e-09
7.6560403e-09
7.6292894e-09
7.6004786e-09
7.5715442e-09
7.5439886e-09
7.5185896e-09
7.4952458e-09
7.4739055e-09
7.4546686e-09
7.437496e-09
7.42228e-09
7.4089767e-09
7.3973645e-09
7.3871922e-09
7.3803325e-09
7.3770069e-09
7.3768262e-09
7.3836171e-09
7.3881909e-09
7.3889411e-09
7.3727211e-09
7.3605638e-09
7.3538772e-09
7.350791e-09
7.349588e-09
7.3491998e-09
7.349103e-09
0.00031778716
0.00045185277
0.0001682653
2.5457331e-07
8.8788063e-09
7.9256994e-09
7.8194975e-09
7.6717676e-09
7.7175874e-09
7.6812056e-09
7.6866887e-09
7.6796763e-09
7.6829304e-09
7.6860712e-09
7.692326e-09
7.6998094e-09
7.7080701e-09
7.7157661e-09
7.7212925e-09
7.7223999e-09
7.7173768e-09
7.7052935e-09
7.6862266e-09
7.6614291e-09
7.6328581e-09
7.6026617e-09
7.5727568e-09
7.5445824e-09
7.518698e-09
7.4950193e-09
7.4734039e-09
7.4540026e-09
7.4367276e-09
7.4214026e-09
7.4079943e-09
7.3962116e-09
7.3860443e-09
7.3795007e-09
7.3764825e-09
7.3778627e-09
7.3851745e-09
7.3888366e-09
7.3889058e-09
7.3716183e-09
7.3598949e-09
7.3535447e-09
7.3506577e-09
7.3495443e-09
7.3491882e-09
7.3491002e-09
0.00031671837
0.00042815818
0.00012383278
1.0956763e-07
8.6847749e-09
7.927573e-09
7.8214874e-09
7.6833824e-09
7.7261891e-09
7.6929231e-09
7.6988137e-09
7.6929157e-09
7.6968308e-09
7.7009128e-09
7.7078801e-09
7.7159501e-09
7.7244906e-09
7.7320513e-09
7.7367959e-09
7.7363634e-09
7.7293219e-09
7.7148188e-09
7.6933124e-09
7.6663229e-09
7.6359771e-09
7.6044682e-09
7.5736923e-09
7.5449473e-09
7.5186279e-09
7.4946507e-09
7.4727932e-09
7.4532557e-09
7.4358898e-09
7.4204485e-09
7.4069278e-09
7.3949775e-09
7.3849392e-09
7.3787378e-09
7.3759344e-09
7.3790465e-09
7.3867753e-09
7.3897686e-09
7.3883857e-09
7.3705254e-09
7.359232e-09
7.3532232e-09
7.3505314e-09
7.3495037e-09
7.3491776e-09
7.3490977e-09
0.00031575946
0.00039955271
8.3088325e-05
5.4275555e-08
8.5635959e-09
7.9304242e-09
7.8242536e-09
7.6957815e-09
7.7355898e-09
7.7053893e-09
7.7110872e-09
7.7069468e-09
7.71154e-09
7.7165537e-09
7.7242137e-09
7.7328078e-09
7.7415242e-09
7.7487751e-09
7.7524527e-09
7.7502738e-09
7.7409485e-09
7.7238745e-09
7.6998611e-09
7.6706924e-09
7.6386333e-09
7.6059052e-09
7.5743613e-09
7.5450464e-09
7.5184066e-09
7.4941509e-09
7.4720797e-09
7.452432e-09
7.4349867e-09
7.4194187e-09
7.4057563e-09
7.393639e-09
7.3838428e-09
7.3780452e-09
7.3754164e-09
7.3802715e-09
7.3882929e-09
7.3909415e-09
7.3873448e-09
7.3694483e-09
7.3585771e-09
7.3529149e-09
7.3504128e-09
7.3494662e-09
7.3491679e-09
7.3490954e-09
0.0003149524
0.00036837865
4.9893924e-05
3.1408856e-08
8.4840308e-09
7.9341844e-09
7.8278102e-09
7.7089876e-09
7.7458188e-09
7.7186161e-09
7.7241538e-09
7.721796e-09
7.7270921e-09
7.7330227e-09
7.7413443e-09
7.7503836e-09
7.7591492e-09
7.7658762e-09
7.7681819e-09
7.7640218e-09
7.7521696e-09
7.7323868e-09
7.7058249e-09
7.674511e-09
7.6408197e-09
7.6069903e-09
7.5747181e-09
7.5449506e-09
7.5180201e-09
7.4935246e-09
7.4712695e-09
7.451535e-09
7.4340223e-09
7.4183194e-09
7.4044749e-09
7.3921897e-09
7.38273e-09
7.3773879e-09
7.3750081e-09
7.3815929e-09
7.38977e-09
7.3921708e-09
7.3859501e-09
7.3683519e-09
7.3579352e-09
7.3526219e-09
7.350302e-09
7.3494317e-09
7.3491591e-09
7.3490934e-09
0.00031392843
0.00033288419
2.6758548e-05
2.0966892e-08
8.4289694e-09
7.9388372e-09
7.8321788e-09
7.7230046e-09
7.7569073e-09
7.732637e-09
7.7384982e-09
7.7374943e-09
7.7435253e-09
7.7503499e-09
7.7592863e-09
7.7686729e-09
7.7773312e-09
7.783266e-09
7.7838963e-09
7.7774967e-09
7.7628909e-09
7.7402864e-09
7.7111609e-09
7.677759e-09
7.642542e-09
7.6077308e-09
7.574761e-09
7.5446571e-09
7.5174799e-09
7.4927802e-09
7.4703694e-09
7.4505677e-09
7.4329985e-09
7.4171574e-09
7.4030898e-09
7.3906524e-09
7.3816004e-09
7.3767224e-09
7.3747943e-09
7.3830038e-09
7.3912188e-09
7.3934475e-09
7.3843243e-09
7.3672288e-09
7.3573136e-09
7.3523453e-09
7.3501993e-09
7.3494001e-09
7.3491512e-09
7.3490915e-09
0.00031237838
0.00029375079
1.2578619e-05
1.5734588e-08
8.3886826e-09
7.9443954e-09
7.8373784e-09
7.7378339e-09
7.7689012e-09
7.7475005e-09
7.7537973e-09
7.7540947e-09
7.760881e-09
7.768562e-09
7.7780479e-09
7.7876621e-09
7.7960171e-09
7.8008208e-09
7.7995287e-09
7.7905669e-09
7.7730182e-09
7.7475065e-09
7.7158319e-09
7.6804266e-09
7.6438169e-09
7.6080574e-09
7.5745757e-09
7.5441663e-09
7.5167913e-09
7.4919254e-09
7.4693864e-09
7.4495332e-09
7.4319151e-09
7.4159353e-09
7.401608e-09
7.3890734e-09
7.3804854e-09
7.3760263e-09
7.3747642e-09
7.3844481e-09
7.3926019e-09
7.3946668e-09
7.3825602e-09
7.3661004e-09
7.3567189e-09
7.352086e-09
7.3501044e-09
7.3493714e-09
7.3491441e-09
7.3490899e-09
0.00030993104
0.00024676228
5.4410895e-06
1.2965229e-08
8.3575002e-09
7.9509073e-09
7.8434618e-09
7.7535219e-09
7.7818764e-09
7.7632511e-09
7.7698311e-09
7.7716526e-09
7.779195e-09
7.7876802e-09
7.7976288e-09
7.807323e-09
7.8151269e-09
7.8184437e-09
7.8149419e-09
7.80312e-09
7.7824586e-09
7.7539877e-09
7.7198094e-09
7.6825168e-09
7.644647e-09
7.6080241e-09
7.5741266e-09
7.5434876e-09
7.5159623e-09
7.4909675e-09
7.4683269e-09
7.4484337e-09
7.4307701e-09
7.4146483e-09
7.4000254e-09
7.3875029e-09
7.3794045e-09
7.3753063e-09
7.3749472e-09
7.3858474e-09
7.3938252e-09
7.3956012e-09
7.3807172e-09
7.3649933e-09
7.3561546e-09
7.3518441e-09