/*--------------------------------*- C++ -*----------------------------------*\
| =========                 |                                                 |
| \\      /  F ield         | OpenFOAM: The Open Source CFD Toolbox           |
|  \\    /   O peration     | Version:  2306                                  |
|   \\  /    A nd           | Website:  www.openfoam.com                      |
|    \\/     M anipulation  |                                                 |
\*---------------------------------------------------------------------------*/
FoamFile
{
    version     2.0;
    format      ascii;
    arch        "LSB;label=32;scalar=64";
    class       volScalarField;
    location    "0.006";
    object      nuTilda;
}
// * * * * * * * * * * * * * * * * * * * * * * * * * * * * * * * * * * * * * //

dimensions      [0 2 -1 0 0 0 0];

internalField   nonuniform List<scalar> 
20000
(
0.00039753505
0.00097098747
0.0012840605
0.0013804602
0.001207044
0.00064627172
8.9062393e-05
1.0999609e-05
1.0151441e-05
1.0107959e-05
1.0106902e-05
1.0086172e-05
1.008012e-05
1.0069353e-05
1.0063154e-05
1.0056099e-05
1.0050572e-05
1.0045194e-05
1.0040526e-05
1.0036223e-05
1.003239e-05
1.0028913e-05
1.0025774e-05
1.0022931e-05
1.0020395e-05
1.0018183e-05
1.0016267e-05
1.0014542e-05
1.0012919e-05
1.0011427e-05
1.0010289e-05
1.0009698e-05
1.0009462e-05
1.0009084e-05
1.0008356e-05
1.0007402e-05
1.0006264e-05
1.0004946e-05
1.0003834e-05
1.000339e-05
1.0003257e-05
1.0002212e-05
1.0000675e-05
1.0000456e-05
1.0000324e-05
1.0000087e-05
1.0000032e-05
1.0000005e-05
1.0000001e-05
1e-05
0.00039514238
0.00095825376
0.001259169
0.0013422745
0.001154974
0.00057133752
6.975426e-05
1.0660211e-05
1.0148253e-05
1.010539e-05
1.0104963e-05
1.0084485e-05
1.0078689e-05
1.0068161e-05
1.0062147e-05
1.005526e-05
1.0049869e-05
1.0044617e-05
1.0040051e-05
1.0035839e-05
1.0032079e-05
1.0028662e-05
1.0025567e-05
1.0022753e-05
1.0020231e-05
1.0018023e-05
1.0016114e-05
1.0014408e-05
1.0012805e-05
1.0011315e-05
1.0010137e-05
1.0009492e-05
1.0009255e-05
1.0008932e-05
1.0008246e-05
1.0007326e-05
1.0006236e-05
1.0004942e-05
1.0003767e-05
1.0003255e-05
1.0003099e-05
1.0002318e-05
1.000077e-05
1.0000393e-05
1.0000325e-05
1.000011e-05
1.0000039e-05
1.0000009e-05
1.0000001e-05
1e-05
0.00039300562
0.00094632718
0.001234853
0.0013034368
0.0011012833
0.00049697007
5.3620735e-05
1.0443587e-05
1.014521e-05
1.0102885e-05
1.0102678e-05
1.0082749e-05
1.0077187e-05
1.0066929e-05
1.0061092e-05
1.0054384e-05
1.0049133e-05
1.0044015e-05
1.0039563e-05
1.0035455e-05
1.0031783e-05
1.0028441e-05
1.0025409e-05
1.0022645e-05
1.002016e-05
1.0017975e-05
1.0016085e-05
1.0014403e-05
1.0012825e-05
1.0011338e-05
1.0010118e-05
1.0009407e-05
1.0009146e-05
1.0008854e-05
1.0008199e-05
1.0007297e-05
1.0006243e-05
1.0004989e-05
1.0003779e-05
1.0003139e-05
1.0002882e-05
1.0002306e-05
1.000091e-05
1.0000335e-05
1.0000264e-05
1.0000105e-05
1.0000032e-05
1.0000009e-05
1.0000001e-05
1e-05
0.00039090516
0.00093465753
0.0012109495
0.0012643105
0.0010471397
0.00042780978
4.1238559e-05
1.0310157e-05
1.0142275e-05
1.0100425e-05
1.0100582e-05
1.0081061e-05
1.0075723e-05
1.0065729e-05
1.0060062e-05
1.0053529e-05
1.004841e-05
1.0043419e-05
1.0039074e-05
1.0035063e-05
1.0031472e-05
1.0028199e-05
1.0025222e-05
1.0022499e-05
1.002004e-05
1.0017871e-05
1.0015994e-05
1.0014332e-05
1.0012778e-05
1.0011299e-05
1.0010047e-05
1.0009274e-05
1.0008984e-05
1.0008725e-05
1.0008108e-05
1.0007228e-05
1.0006212e-05
1.0005001e-05
1.0003777e-05
1.0003029e-05
1.0002682e-05
1.0002262e-05
1.0001048e-05
1.0000336e-05
1.0000222e-05
1.0000109e-05
1.0000028e-05
1.0000009e-05
1.0000001e-05
1e-05
0.00038889585
0.00092333643
0.0011877586
0.0012264454
0.00099162562
0.00036346776
3.187627e-05
1.0227655e-05
1.0139609e-05
1.0098019e-05
1.0098438e-05
1.0079397e-05
1.0074274e-05
1.0064545e-05
1.0059041e-05
1.0052683e-05
1.0047692e-05
1.0042828e-05
1.0038589e-05
1.0034675e-05
1.0031166e-05
1.0027963e-05
1.0025042e-05
1.0022364e-05
1.0019935e-05
1.0017783e-05
1.0015919e-05
1.0014276e-05
1.0012746e-05
1.001128e-05
1.001e-05
1.0009165e-05
1.0008836e-05
1.0008603e-05
1.0008023e-05
1.0007161e-05
1.0006177e-05
1.0005017e-05
1.0003798e-05
1.0002951e-05
1.0002519e-05
1.0002187e-05
1.000119e-05
1.0000441e-05
1.000018e-05
1.0000101e-05
1.0000026e-05
1.0000008e-05
1.0000002e-05
1e-05
0.00038691833
0.00091207731
0.0011651838
0.001188399
0.00093391892
0.00030468486
2.4988449e-05
1.017674e-05
1.013715e-05
1.0095663e-05
1.0096354e-05
1.0077764e-05
1.0072845e-05
1.006338e-05
1.0058033e-05
1.0051847e-05
1.0046982e-05
1.0042241e-05
1.0038105e-05
1.0034287e-05
1.0030859e-05
1.0027723e-05
1.0024857e-05
1.0022222e-05
1.0019823e-05
1.0017688e-05
1.0015834e-05
1.0014208e-05
1.0012701e-05
1.0011251e-05
1.0009952e-05
1.0009056e-05
1.0008682e-05
1.0008468e-05
1.0007928e-05
1.0007083e-05
1.0006129e-05
1.000502e-05
1.0003827e-05
1.0002905e-05
1.0002387e-05
1.0002091e-05
1.0001298e-05
1.0000611e-05
1.0000164e-05
1.0000085e-05
1.0000025e-05
1.0000007e-05
1.0000002e-05
1e-05
0.00038494033
0.00090048829
0.0011411683
0.0011491767
0.00087375733
0.00025216471
2.0068382e-05
1.0145256e-05
1.0134692e-05
1.0093358e-05
1.009428e-05
1.0076159e-05
1.0071435e-05
1.0062233e-05
1.0057037e-05
1.005102e-05
1.0046279e-05
1.0041659e-05
1.0037625e-05
1.00339e-05
1.0030551e-05
1.0027482e-05
1.0024672e-05
1.002208e-05
1.0019711e-05
1.0017592e-05
1.0015749e-05
1.0014137e-05
1.0012652e-05
1.001122e-05
1.0009908e-05
1.0008954e-05
1.0008527e-05
1.0008328e-05
1.000783e-05
1.0007001e-05
1.0006072e-05
1.0005013e-05
1.000386e-05
1.0002892e-05
1.0002276e-05
1.0001984e-05
1.0001333e-05
1.0000729e-05
1.0000173e-05
1.0000068e-05
1.0000024e-05
1.0000006e-05
1.0000001e-05
1e-05
0.00038305435
0.00088912485
0.0011174697
0.0011102129
0.00081112218
0.00020724588
1.6658669e-05
1.0125004e-05
1.013245e-05
1.0091103e-05
1.0092241e-05
1.0074584e-05
1.0070044e-05
1.0061104e-05
1.0056054e-05
1.0050204e-05
1.0045583e-05
1.0041083e-05
1.0037148e-05
1.0033515e-05
1.0030244e-05
1.0027241e-05
1.0024484e-05
1.0021936e-05
1.0019597e-05
1.0017495e-05
1.0015661e-05
1.001406e-05
1.0012596e-05
1.0011184e-05
1.0009866e-05
1.000886e-05
1.0008373e-05
1.0008177e-05
1.0007725e-05
1.0006917e-05
1.0006008e-05
1.0004994e-05
1.0003889e-05
1.0002909e-05
1.0002188e-05
1.0001877e-05
1.0001303e-05
1.0000785e-05
1.0000231e-05
1.000006e-05
1.0000021e-05
1.0000005e-05
1.0000001e-05
1e-05
0.00038124512
0.00087773856
0.0010936876
0.0010710669
0.00074605245
0.00016816906
1.4325915e-05
1.0111745e-05
1.012852e-05
1.0088893e-05
1.0090225e-05
1.0073039e-05
1.0068673e-05
1.0059994e-05
1.0055084e-05
1.0049398e-05
1.0044895e-05
1.0040512e-05
1.0036675e-05
1.0033133e-05
1.0029938e-05
1.0026999e-05
1.0024296e-05
1.0021791e-05
1.0019482e-05
1.0017397e-05
1.0015571e-05
1.001398e-05
1.0012534e-05
1.0011144e-05
1.0009825e-05
1.0008772e-05
1.0008221e-05
1.000802e-05
1.0007615e-05
1.0006832e-05
1.000594e-05
1.0004964e-05
1.0003907e-05
1.0002935e-05
1.0002124e-05
1.0001785e-05
1.0001244e-05
1.0000793e-05
1.0000302e-05
1.0000067e-05
1.0000019e-05
1.0000005e-05
1.0000001e-05
1e-05
0.00037946425
0.00086617894
0.0010696138
0.0010318725
0.00067892472
0.00013441574
1.2770556e-05
1.0102624e-05
1.0125723e-05
1.0086742e-05
1.0088241e-05
1.0071524e-05
1.0067322e-05
1.0058902e-05
1.0054126e-05
1.0048603e-05
1.0044215e-05
1.0039948e-05
1.0036207e-05
1.0032753e-05
1.0029632e-05
1.0026757e-05
1.0024106e-05
1.0021643e-05
1.0019365e-05
1.0017299e-05
1.001548e-05
1.0013895e-05
1.0012466e-05
1.0011098e-05
1.0009784e-05
1.0008693e-05
1.0008075e-05
1.0007856e-05
1.0007498e-05
1.0006746e-05
1.000587e-05
1.0004928e-05
1.0003913e-05
1.0002945e-05
1.0002076e-05
1.000172e-05
1.000119e-05
1.0000769e-05
1.0000331e-05
1.0000092e-05
1.000002e-05
1.0000004e-05
1.0000001e-05
1e-05
0.00037769198
0.00085428269
0.001044561
0.00098992515
0.00061042751
0.0001056228
1.1765001e-05
1.0096106e-05
1.0122866e-05
1.0084645e-05
1.0086284e-05
1.007004e-05
1.0065991e-05
1.0057829e-05
1.0053182e-05
1.0047818e-05
1.0043543e-05
1.003939e-05
1.0035743e-05
1.0032376e-05
1.0029328e-05
1.0026515e-05
1.0023915e-05
1.0021494e-05
1.0019248e-05
1.00172e-05
1.0015388e-05
1.0013808e-05
1.0012392e-05
1.0011046e-05
1.0009743e-05
1.000862e-05
1.0007936e-05
1.0007689e-05
1.0007374e-05
1.000666e-05
1.0005798e-05
1.0004885e-05
1.0003906e-05
1.0002936e-05
1.0002036e-05
1.0001677e-05
1.0001153e-05
1.0000733e-05
1.0000331e-05
1.0000113e-05
1.0000026e-05
1.0000005e-05
1.0000001e-05
1e-05
0.00037592662
0.00084215225
0.0010186937
0.00094824545
0.00054191609
8.1759639e-05
1.1134314e-05
1.0091201e-05
1.0120041e-05
1.0082601e-05
1.0084358e-05
1.0068585e-05
1.0064681e-05
1.0056773e-05
1.0052251e-05
1.0047044e-05
1.004288e-05
1.003884e-05
1.0035284e-05
1.0032002e-05
1.0029025e-05
1.0026272e-05
1.0023723e-05
1.0021344e-05
1.0019129e-05
1.0017101e-05
1.0015295e-05
1.0013718e-05
1.0012314e-05
1.0010989e-05
1.00097e-05
1.0008554e-05
1.0007806e-05
1.0007519e-05
1.0007242e-05
1.0006571e-05
1.0005724e-05
1.0004836e-05
1.0003887e-05
1.0002918e-05
1.0002003e-05
1.000164e-05
1.0001131e-05
1.0000695e-05
1.0000316e-05
1.0000115e-05
1.0000034e-05
1.0000008e-05
1.0000001e-05
1e-05
0.00037420522
0.00082996512
0.00099207095
0.0009065974
0.00047415299
6.252011e-05
1.0746015e-05
1.0087297e-05
1.011723e-05
1.008061e-05
1.0082459e-05
1.006716e-05
1.006339e-05
1.0055735e-05
1.0051333e-05
1.0046281e-05
1.0042226e-05
1.0038296e-05
1.0034831e-05
1.0031631e-05
1.0028724e-05
1.002603e-05
1.0023531e-05
1.0021193e-05
1.001901e-05
1.0017002e-05
1.0015201e-05
1.0013626e-05
1.0012231e-05
1.0010925e-05
1.0009654e-05
1.0008494e-05
1.0007685e-05
1.0007349e-05
1.0007102e-05
1.0006481e-05
1.0005649e-05
1.0004781e-05
1.000386e-05
1.0002899e-05
1.000198e-05
1.0001601e-05
1.0001115e-05
1.0000661e-05
1.0000297e-05
1.0000108e-05
1.0000034e-05
1.000001e-05
1.0000001e-05
1e-05
0.00037253631
0.00081800559
0.00096659029
0.00086425784
0.00040852349
4.7506995e-05
1.0512089e-05
1.0084014e-05
1.0114448e-05
1.0078673e-05
1.0080589e-05
1.0065765e-05
1.0062119e-05
1.0054715e-05
1.0050428e-05
1.0045529e-05
1.0041581e-05
1.0037759e-05
1.0034382e-05
1.0031263e-05
1.0028424e-05
1.0025789e-05
1.0023338e-05
1.0021041e-05
1.0018891e-05
1.0016902e-05
1.0015108e-05
1.0013533e-05
1.0012143e-05
1.0010856e-05
1.0009604e-05
1.0008438e-05
1.0007576e-05
1.0007183e-05
1.0006954e-05
1.0006388e-05
1.0005572e-05
1.0004723e-05
1.0003828e-05
1.000289e-05
1.0001977e-05
1.0001562e-05
1.0001105e-05
1.000063e-05
1.0000279e-05
1.00001e-05
1.0000031e-05
1.0000009e-05
1.0000002e-05
1e-05
0.00037080051
0.0008055971
0.00094009384
0.00082032866
0.00034694894
3.6148467e-05
1.0372796e-05
1.0081132e-05
1.0111689e-05
1.0076788e-05
1.0078746e-05
1.0064398e-05
1.0060869e-05
1.0053711e-05
1.0049538e-05
1.0044788e-05
1.0040945e-05
1.0037229e-05
1.0033939e-05
1.00309e-05
1.0028127e-05
1.0025549e-05
1.0023145e-05
1.0020888e-05
1.001877e-05
1.0016803e-05
1.0015015e-05
1.0013439e-05
1.0012053e-05
1.0010781e-05
1.000955e-05
1.0008385e-05
1.0007478e-05
1.0007023e-05
1.00068e-05
1.000629e-05
1.0005495e-05
1.0004662e-05
1.0003797e-05
1.0002894e-05
1.0002001e-05
1.0001529e-05
1.0001101e-05
1.00006e-05
1.0000262e-05
1.0000093e-05
1.0000028e-05
1.0000008e-05
1.0000002e-05
1e-05
0.00036902087
0.00079293377
0.00091292615
0.0007742771
0.00029077433
2.7798742e-05
1.0290424e-05
1.0078522e-05
1.0108956e-05
1.0074956e-05
1.0076931e-05
1.0063059e-05
1.0059638e-05
1.0052725e-05
1.004866e-05
1.0044059e-05
1.0040318e-05
1.0036707e-05
1.0033502e-05
1.003054e-05
1.0027832e-05
1.0025309e-05
1.0022953e-05
1.0020735e-05
1.001865e-05
1.0016703e-05
1.0014922e-05
1.0013345e-05
1.001196e-05
1.00107e-05
1.0009491e-05
1.0008334e-05
1.000739e-05
1.0006872e-05
1.000664e-05
1.0006187e-05
1.0005417e-05
1.0004598e-05
1.0003766e-05
1.000291e-05
1.0002048e-05
1.0001514e-05
1.0001099e-05
1.000057e-05
1.0000246e-05
1.0000086e-05
1.0000026e-05
1.0000007e-05
1.0000001e-05
1e-05
0.00036719878
0.00078010519
0.0008851261
0.00072656813
0.00024023353
2.1851399e-05
1.0241261e-05
1.0076106e-05
1.0106253e-05
1.0073176e-05
1.0075148e-05
1.0061748e-05
1.0058428e-05
1.0051756e-05
1.0047797e-05
1.0043341e-05
1.0039701e-05
1.0036192e-05
1.0033071e-05
1.0030184e-05
1.0027539e-05
1.0025071e-05
1.002276e-05
1.0020581e-05
1.0018529e-05
1.0016602e-05
1.0014831e-05
1.0013252e-05
1.0011865e-05
1.0010615e-05
1.0009426e-05
1.0008283e-05
1.0007314e-05
1.0006732e-05
1.0006478e-05
1.0006077e-05
1.0005339e-05
1.0004531e-05
1.0003733e-05
1.0002929e-05
1.0002103e-05
1.0001517e-05
1.0001091e-05
1.0000541e-05
1.000023e-05
1.000008e-05
1.0000024e-05
1.0000007e-05
1.0000001e-05
1e-05
0.00036539303
0.00076737059
0.00085681545
0.00067758344
0.00019565638
1.7748111e-05
1.0210697e-05
1.0073842e-05
1.010358e-05
1.0071446e-05
1.0073398e-05
1.0060465e-05
1.0057237e-05
1.0050803e-05
1.0046948e-05
1.0042635e-05
1.0039093e-05
1.0035685e-05
1.0032646e-05
1.0029832e-05
1.0027249e-05
1.0024835e-05
1.0022569e-05
1.0020428e-05
1.0018407e-05
1.0016502e-05
1.001474e-05
1.001316e-05
1.001177e-05
1.0010525e-05
1.0009354e-05
1.0008229e-05
1.0007246e-05
1.0006605e-05
1.0006315e-05
1.0005958e-05
1.0005259e-05
1.000446e-05
1.0003694e-05
1.0002938e-05
1.0002145e-05
1.0001526e-05
1.0001075e-05
1.0000513e-05
1.0000214e-05
1.0000073e-05
1.0000022e-05
1.0000006e-05
1.0000001e-05
1e-05
0.0003636627
0.00075501873
0.00082860821
0.00062595036
0.00015836108
1.4996872e-05
1.0191044e-05
1.0071701e-05
1.0100939e-05
1.0069766e-05
1.0071683e-05
1.0059209e-05
1.0056066e-05
1.0049867e-05
1.0046113e-05
1.004194e-05
1.0038496e-05
1.0035186e-05
1.0032226e-05
1.0029485e-05
1.0026962e-05
1.00246e-05
1.0022378e-05
1.0020275e-05
1.0018285e-05
1.0016402e-05
1.0014651e-05
1.0013069e-05
1.0011675e-05
1.0010432e-05
1.0009277e-05
1.0008172e-05
1.0007184e-05
1.0006492e-05
1.0006156e-05
1.000583e-05
1.0005177e-05
1.0004388e-05
1.0003646e-05
1.0002928e-05
1.0002158e-05
1.0001521e-05
1.0001054e-05
1.0000486e-05
1.0000199e-05
1.0000067e-05
1.000002e-05
1.0000005e-05
1.0000001e-05
1e-05
0.00036203072
0.00074307937
0.00080345979
0.00057190316
0.00012621616
1.3171399e-05
1.0177676e-05
1.0069671e-05
1.0098331e-05
1.0068134e-05
1.007e-05
1.005798e-05
1.0054915e-05
1.0048947e-05
1.0045292e-05
1.0041257e-05
1.0037908e-05
1.0034694e-05
1.0031813e-05
1.0029142e-05
1.0026678e-05
1.0024368e-05
1.0022189e-05
1.0020123e-05
1.0018163e-05
1.0016302e-05
1.0014562e-05
1.0012981e-05
1.001158e-05
1.0010337e-05
1.0009194e-05
1.000811e-05
1.0007127e-05
1.0006393e-05
1.0006003e-05
1.0005695e-05
1.0005093e-05
1.0004316e-05
1.0003591e-05
1.0002901e-05
1.0002143e-05
1.0001505e-05
1.0001032e-05
1.0000458e-05
1.0000185e-05
1.0000062e-05
1.0000018e-05
1.0000005e-05
1.0000001e-05
1e-05
0.00036043274
0.00073081208
0.0007763679
0.00051527512
9.9015393e-05
1.199628e-05
1.0168045e-05
1.0067739e-05
1.0095756e-05
1.0066548e-05
1.006834e-05
1.0056776e-05
1.0053784e-05
1.0048044e-05
1.0044486e-05
1.0040586e-05
1.003733e-05
1.0034211e-05
1.0031406e-05
1.0028803e-05
1.0026398e-05
1.0024138e-05
1.0022001e-05
1.0019972e-05
1.001804e-05
1.0016201e-05
1.0014475e-05
1.0012895e-05
1.0011488e-05
1.0010241e-05
1.0009106e-05
1.0008042e-05
1.0007071e-05
1.0006308e-05
1.0005861e-05
1.0005553e-05
1.0005004e-05
1.0004245e-05
1.0003532e-05
1.0002863e-05
1.0002114e-05
1.0001488e-05
1.0001011e-05
1.0000431e-05
1.0000171e-05
1.0000056e-05
1.0000016e-05
1.0000004e-05
1.0000001e-05
1e-05
0.00035895666
0.0007186549
0.00074970449
0.00045731519
7.6694564e-05
1.1263357e-05
1.0160631e-05
1.0065896e-05
1.0093218e-05
1.0065007e-05
1.0066697e-05
1.0055597e-05
1.0052674e-05
1.0047156e-05
1.0043694e-05
1.0039926e-05
1.0036762e-05
1.0033735e-05
1.0031005e-05
1.002847e-05
1.0026121e-05
1.002391e-05
1.0021816e-05
1.0019822e-05
1.0017918e-05
1.0016102e-05
1.0014389e-05
1.0012812e-05
1.0011398e-05
1.0010145e-05
1.0009014e-05
1.0007967e-05
1.0007013e-05
1.0006234e-05
1.0005731e-05
1.0005406e-05
1.0004909e-05
1.0004177e-05
1.000347e-05
1.0002819e-05
1.0002082e-05
1.0001471e-05
1.0000986e-05
1.0000404e-05
1.0000157e-05
1.0000051e-05
1.0000015e-05
1.0000004e-05
1.0000001e-05
1e-05
0.00035758708
0.00070641373
0.00072238438
0.00039905135
5.8752495e-05
1.0816571e-05
1.0154458e-05
1.0064138e-05
1.0090714e-05
1.0063509e-05
1.006507e-05
1.0054441e-05
1.0051583e-05
1.0046285e-05
1.0042916e-05
1.0039278e-05
1.0036204e-05
1.0033267e-05
1.0030611e-05
1.0028141e-05
1.0025848e-05
1.0023686e-05
1.0021633e-05
1.0019672e-05
1.0017795e-05
1.0016002e-05
1.0014304e-05
1.0012731e-05
1.0011311e-05
1.001005e-05
1.000892e-05
1.0007886e-05
1.0006949e-05
1.0006166e-05
1.0005616e-05
1.0005259e-05
1.0004806e-05
1.000411e-05
1.0003406e-05
1.0002771e-05
1.0002046e-05
1.0001445e-05
1.000096e-05
1.0000377e-05
1.0000144e-05
1.0000047e-05
1.0000013e-05
1.0000004e-05
1.0000001e-05
1e-05
0.00035616673
0.00069323531
0.00069435571
0.00034308466
4.482116e-05
1.0549531e-05
1.0148988e-05
1.0062459e-05
1.0088247e-05
1.0062054e-05
1.0063473e-05
1.0053308e-05
1.0050514e-05
1.0045429e-05
1.0042152e-05
1.0038642e-05
1.0035656e-05
1.0032807e-05
1.0030223e-05
1.0027817e-05
1.0025579e-05
1.0023465e-05
1.0021452e-05
1.0019523e-05
1.0017674e-05
1.0015903e-05
1.001422e-05
1.0012652e-05
1.0011228e-05
1.0009958e-05
1.0008824e-05
1.0007798e-05
1.0006879e-05
1.00061e-05
1.0005514e-05
1.0005116e-05
1.0004695e-05
1.0004042e-05
1.0003341e-05
1.0002718e-05
1.0002011e-05
1.0001413e-05
1.0000932e-05
1.0000352e-05
1.0000132e-05
1.0000042e-05
1.0000012e-05
1.0000003e-05
1.0000001e-05
1e-05
0.00035465683
0.00067889545
0.00066495875
0.00029162188
3.4306248e-05
1.0390218e-05
1.0143965e-05
1.0060863e-05
1.0085812e-05
1.006064e-05
1.0061926e-05
1.0052199e-05
1.0049464e-05
1.0044589e-05
1.0041403e-05
1.0038017e-05
1.0035118e-05
1.0032355e-05
1.0029841e-05
1.0027498e-05
1.0025315e-05
1.0023248e-05
1.0021274e-05
1.0019377e-05
1.0017554e-05
1.0015804e-05
1.0014137e-05
1.0012575e-05
1.0011148e-05
1.0009869e-05
1.0008729e-05
1.0007707e-05
1.0006801e-05
1.0006032e-05
1.0005422e-05
1.000498e-05
1.0004577e-05
1.0003974e-05
1.0003276e-05
1.0002661e-05
1.0001972e-05
1.0001378e-05
1.0000901e-05
1.0000327e-05
1.000012e-05
1.0000038e-05
1.0000011e-05
1.0000003e-05
1e-05
1e-05
0.00035295412
0.00066313233
0.00063342391
0.00024453857
2.6587016e-05
1.0294587e-05
1.0139781e-05
1.0059341e-05
1.0083414e-05
1.0059265e-05
1.006045e-05
1.0051117e-05
1.0048434e-05
1.0043765e-05
1.0040669e-05
1.0037403e-05
1.003459e-05
1.0031911e-05
1.0029466e-05
1.0027185e-05
1.0025055e-05
1.0023035e-05
1.0021098e-05
1.0019232e-05
1.0017435e-05
1.0015707e-05
1.0014055e-05
1.0012501e-05
1.0011071e-05
1.0009783e-05
1.0008636e-05
1.0007614e-05
1.0006716e-05
1.0005956e-05
1.0005336e-05
1.0004853e-05
1.0004452e-05
1.0003902e-05
1.0003213e-05
1.0002598e-05
1.0001929e-05
1.0001341e-05
1.0000864e-05
1.0000302e-05
1.0000109e-05
1.0000034e-05
1.000001e-05
1.0000003e-05
1e-05
1e-05
0.00035096031
0.00064560283
0.0005965685
0.00020206435
2.1125513e-05
1.0237977e-05
1.0135423e-05
1.0057891e-05
1.0081052e-05
1.0057927e-05
1.0059018e-05
1.0050062e-05
1.0047425e-05
1.0042957e-05
1.0039948e-05
1.00368e-05
1.0034072e-05
1.0031475e-05
1.0029098e-05
1.0026878e-05
1.0024801e-05
1.0022826e-05
1.0020925e-05
1.0019089e-05
1.0017318e-05
1.001561e-05
1.0013974e-05
1.0012428e-05
1.0010997e-05
1.0009701e-05
1.0008545e-05
1.000752e-05
1.0006626e-05
1.0005872e-05
1.0005248e-05
1.0004735e-05
1.0004324e-05
1.0003824e-05
1.0003153e-05
1.0002525e-05
1.0001882e-05
1.0001303e-05
1.0000822e-05
1.0000278e-05
1.0000098e-05
1.0000031e-05
1.0000009e-05
1.0000002e-05
1e-05
1e-05
0.00034875723
0.00062688146
0.00055514734
0.0001650663
1.7368773e-05
1.0203546e-05
1.0131071e-05
1.0056512e-05
1.0078725e-05
1.0056623e-05
1.005756e-05
1.0049028e-05
1.0046436e-05
1.0042164e-05
1.0039242e-05
1.0036209e-05
1.0033563e-05
1.0031047e-05
1.0028737e-05
1.0026577e-05
1.0024552e-05
1.0022622e-05
1.0020755e-05
1.0018949e-05
1.0017202e-05
1.0015514e-05
1.0013894e-05
1.0012356e-05
1.0010926e-05
1.0009624e-05
1.0008459e-05
1.0007429e-05
1.0006532e-05
1.0005779e-05
1.0005155e-05
1.0004621e-05
1.0004193e-05
1.0003739e-05
1.0003095e-05
1.0002446e-05
1.0001833e-05
1.0001263e-05
1.0000773e-05
1.0000255e-05
1.0000089e-05
1.0000027e-05
1.0000008e-05
1.0000002e-05
1e-05
1e-05
0.00034637455
0.00060740316
0.00050966846
0.00013443139
1.484758e-05
1.018198e-05
1.0126742e-05
1.0055198e-05
1.0076437e-05
1.0055352e-05
1.0056031e-05
1.004801e-05
1.0045468e-05
1.0041386e-05
1.003855e-05
1.0035628e-05
1.0033063e-05
1.0030626e-05
1.0028383e-05
1.0026283e-05
1.0024309e-05
1.0022421e-05
1.0020589e-05
1.0018812e-05
1.0017088e-05
1.001542e-05
1.0013814e-05
1.0012286e-05
1.0010857e-05
1.000955e-05
1.0008377e-05
1.0007341e-05
1.000644e-05
1.0005679e-05
1.0005052e-05
1.0004507e-05
1.000406e-05
1.0003643e-05
1.0003037e-05
1.0002366e-05
1.0001781e-05
1.0001222e-05
1.0000718e-05
1.0000233e-05
1.000008e-05
1.0000024e-05
1.0000007e-05
1.0000002e-05
1e-05
1e-05
0.00034380337
0.00058728955
0.00046341539
0.0001081477
1.3164423e-05
1.0167816e-05
1.0122448e-05
1.0053948e-05
1.0074185e-05
1.0054113e-05
1.0054522e-05
1.0047005e-05
1.0044521e-05
1.0040624e-05
1.0037872e-05
1.0035058e-05
1.0032574e-05
1.0030214e-05
1.0028036e-05
1.0025995e-05
1.0024072e-05
1.0022225e-05
1.0020426e-05
1.0018677e-05
1.0016977e-05
1.0015328e-05
1.0013737e-05
1.0012217e-05
1.001079e-05
1.0009479e-05
1.0008299e-05
1.0007258e-05
1.0006351e-05
1.0005578e-05
1.0004941e-05
1.0004389e-05
1.0003921e-05
1.0003532e-05
1.0002978e-05
1.0002288e-05
1.0001728e-05
1.0001179e-05
1.0000656e-05
1.0000212e-05
1.0000071e-05
1.0000022e-05
1.0000006e-05
1.0000002e-05
1e-05
1e-05
0.00034094108
0.00056544808
0.00041778803
8.5657146e-05
1.207008e-05
1.0158028e-05
1.01182e-05
1.0052759e-05
1.0071971e-05
1.0052904e-05
1.0053209e-05
1.0046027e-05
1.0043594e-05
1.0039876e-05
1.0037207e-05
1.0034499e-05
1.0032094e-05
1.0029811e-05
1.0027697e-05
1.0025714e-05
1.0023841e-05
1.0022033e-05
1.0020267e-05
1.0018546e-05
1.0016869e-05
1.0015238e-05
1.001366e-05
1.0012149e-05
1.0010726e-05
1.0009412e-05
1.0008225e-05
1.0007178e-05
1.0006266e-05
1.0005482e-05
1.0004827e-05
1.0004265e-05
1.0003779e-05
1.0003405e-05
1.0002912e-05
1.0002217e-05
1.0001676e-05
1.0001135e-05
1.0000594e-05
1.0000191e-05
1.0000064e-05
1.0000019e-05
1.0000006e-05
1.0000001e-05
1e-05
1e-05
0.00033813685
0.00054376729
0.00037123083
6.6897571e-05
1.1380957e-05
1.0150813e-05
1.0114005e-05
1.0051627e-05
1.0069796e-05
1.0051725e-05
1.005204e-05
1.0045083e-05
1.0042687e-05
1.0039143e-05
1.0036557e-05
1.003395e-05
1.0031623e-05
1.0029416e-05
1.0027367e-05
1.0025441e-05
1.0023616e-05
1.0021845e-05
1.0020113e-05
1.0018419e-05
1.0016763e-05
1.001515e-05
1.0013586e-05
1.0012083e-05
1.0010663e-05
1.0009347e-05
1.0008156e-05
1.0007103e-05
1.0006188e-05
1.0005393e-05
1.0004719e-05
1.0004141e-05
1.0003635e-05
1.0003263e-05
1.0002837e-05
1.000216e-05
1.0001621e-05
1.000109e-05
1.0000533e-05
1.0000172e-05
1.0000057e-05
1.0000017e-05
1.0000005e-05
1.0000001e-05
1e-05
1e-05
0.00033559092
0.00052345257
0.0003250825
5.1742245e-05
1.0949198e-05
1.0145092e-05
1.0109871e-05
1.0050552e-05
1.0067661e-05
1.0050574e-05
1.0050757e-05
1.0044164e-05
1.00418e-05
1.0038424e-05
1.0035919e-05
1.0033413e-05
1.0031163e-05
1.002903e-05
1.0027045e-05
1.0025176e-05
1.0023397e-05
1.0021663e-05
1.0019962e-05
1.0018294e-05
1.001666e-05
1.0015065e-05
1.0013514e-05
1.0012019e-05
1.0010602e-05
1.0009285e-05
1.0008089e-05
1.0007031e-05
1.0006113e-05
1.0005315e-05
1.0004625e-05
1.0004029e-05
1.00035e-05
1.0003114e-05
1.0002746e-05
1.0002111e-05
1.0001564e-05
1.0001043e-05
1.0000474e-05
1.0000154e-05
1.000005e-05
1.0000015e-05
1.0000004e-05
1.0000001e-05
1e-05
1e-05
0.00033319024
0.00050228083
0.00027998482
3.9843866e-05
1.0683991e-05
1.0140238e-05
1.0105792e-05
1.0049535e-05
1.0065567e-05
1.0049449e-05
1.0049276e-05
1.0043264e-05
1.0040934e-05
1.003772e-05
1.0035296e-05
1.0032887e-05
1.0030713e-05
1.0028653e-05
1.0026732e-05
1.0024919e-05
1.0023183e-05
1.0021485e-05
1.0019816e-05
1.0018173e-05
1.001656e-05
1.0014982e-05
1.0013444e-05
1.0011957e-05
1.0010543e-05
1.0009225e-05
1.0008026e-05
1.0006963e-05
1.0006042e-05
1.0005244e-05
1.0004548e-05
1.0003937e-05
1.0003384e-05
1.0002969e-05
1.0002636e-05
1.000206e-05
1.0001505e-05
1.0000996e-05
1.0000418e-05
1.0000137e-05
1.0000045e-05
1.0000013e-05
1.0000004e-05
1.0000001e-05
1e-05
1e-05
0.0003311455
0.00048038817
0.00023707514
3.0798011e-05
1.0523312e-05
1.0135866e-05
1.0101753e-05
1.0048577e-05
1.0063511e-05
1.0048346e-05
1.0047932e-05
1.0042381e-05
1.0040086e-05
1.003703e-05
1.0034686e-05
1.0032372e-05
1.0030274e-05
1.0028287e-05
1.0026429e-05
1.002467e-05
1.0022975e-05
1.0021313e-05
1.0019673e-05
1.0018055e-05
1.0016463e-05
1.0014902e-05
1.0013377e-05
1.0011897e-05
1.0010486e-05
1.0009167e-05
1.0007965e-05
1.0006897e-05
1.0005973e-05
1.0005177e-05
1.0004486e-05
1.000387e-05
1.0003297e-05
1.0002841e-05
1.000251e-05
1.0002e-05
1.0001446e-05
1.0000948e-05
1.0000366e-05
1.0000122e-05
1.0000039e-05
1.0000012e-05
1.0000004e-05
1.0000001e-05
1e-05
1e-05
0.0003296491
0.00045814509
0.00019742773
2.4179919e-05
1.042579e-05
1.0131761e-05
1.0097758e-05
1.0047673e-05
1.0061496e-05
1.0047266e-05
1.0046833e-05
1.0041511e-05
1.0039259e-05
1.0036353e-05
1.003409e-05
1.0031868e-05
1.0029846e-05
1.002793e-05
1.0026135e-05
1.0024428e-05
1.0022774e-05
1.0021145e-05
1.0019535e-05
1.0017941e-05
1.0016369e-05
1.0014826e-05
1.0013313e-05
1.0011841e-05
1.0010431e-05
1.0009111e-05
1.0007907e-05
1.0006835e-05
1.0005905e-05
1.0005111e-05
1.0004432e-05
1.0003823e-05
1.0003237e-05
1.0002743e-05
1.0002383e-05
1.0001924e-05
1.0001389e-05
1.0000898e-05
1.0000321e-05
1.0000108e-05
1.0000035e-05
1.000001e-05
1.0000003e-05
1.0000001e-05
1e-05
1e-05
0.00032862539
0.00043510478
0.00016234322
1.9551818e-05
1.0363777e-05
1.0127829e-05
1.0093819e-05
1.0046818e-05
1.0059524e-05
1.0046208e-05
1.0045759e-05
1.0040657e-05
1.003845e-05
1.003569e-05
1.0033508e-05
1.0031377e-05
1.0029429e-05
1.0027585e-05
1.0025851e-05
1.0024194e-05
1.0022578e-05
1.0020983e-05
1.00194e-05
1.001783e-05
1.0016279e-05
1.0014752e-05
1.0013252e-05
1.0011787e-05
1.001038e-05
1.0009058e-05
1.0007851e-05
1.0006776e-05
1.0005839e-05
1.0005043e-05
1.0004377e-05
1.0003785e-05
1.0003197e-05
1.0002679e-05
1.0002257e-05
1.0001829e-05
1.0001333e-05
1.0000843e-05
1.0000284e-05
1.0000096e-05
1.000003e-05
1.0000009e-05
1.0000003e-05
1.0000001e-05
1e-05
1e-05
0.00032770393
0.00040743111
0.00013154478
1.6385763e-05
1.0322692e-05
1.0124015e-05
1.008993e-05
1.0046008e-05
1.0057595e-05
1.004517e-05
1.00445e-05
1.0039821e-05
1.003766e-05
1.0035041e-05
1.0032939e-05
1.0030897e-05
1.0029025e-05
1.0027251e-05
1.0025577e-05
1.0023966e-05
1.0022389e-05
1.0020825e-05
1.0019269e-05
1.0017722e-05
1.0016191e-05
1.0014682e-05
1.0013195e-05
1.0011737e-05
1.0010331e-05
1.0009008e-05
1.0007799e-05
1.0006721e-05
1.0005778e-05
1.0004974e-05
1.0004314e-05
1.0003742e-05
1.0003164e-05
1.000264e-05
1.0002145e-05
1.0001725e-05
1.0001273e-05
1.0000767e-05
1.0000254e-05
1.0000085e-05
1.0000027e-05
1.0000008e-05
1.0000003e-05
1.0000001e-05
1e-05
1e-05
0.00032692377
0.00037749083
0.00010575772
1.4280699e-05
1.0293701e-05
1.0120284e-05
1.0086083e-05
1.0045239e-05
1.0055708e-05
1.0044144e-05
1.0043257e-05
1.0039001e-05
1.0036889e-05
1.0034406e-05
1.0032385e-05
1.0030431e-05
1.0028633e-05
1.0026929e-05
1.0025313e-05
1.0023746e-05
1.0022205e-05
1.0020671e-05
1.0019141e-05
1.0017617e-05
1.0016107e-05
1.0014614e-05
1.0013141e-05
1.001169e-05
1.0010286e-05
1.0008961e-05
1.000775e-05
1.000667e-05
1.000572e-05
1.0004906e-05
1.0004243e-05
1.0003689e-05
1.000313e-05
1.0002609e-05
1.0002055e-05
1.0001627e-05
1.0001197e-05
1.0000678e-05
1.0000226e-05
1.0000075e-05
1.0000023e-05
1.0000007e-05
1.0000002e-05
1e-05
1e-05
1e-05
0.00032594012
0.00034376166
8.4779678e-05
1.2900045e-05
1.0271824e-05
1.0116622e-05
1.0082278e-05
1.0044503e-05
1.0053865e-05
1.0043131e-05
1.0042174e-05
1.0038193e-05
1.0036136e-05
1.0033785e-05
1.0031845e-05
1.0029978e-05
1.0028255e-05
1.0026619e-05
1.0025058e-05
1.0023534e-05
1.0022028e-05
1.0020522e-05
1.0019017e-05
1.0017515e-05
1.0016025e-05
1.0014551e-05
1.001309e-05
1.0011647e-05
1.0010244e-05
1.0008918e-05
1.0007704e-05
1.0006622e-05
1.0005668e-05
1.0004842e-05
1.0004169e-05
1.0003625e-05
1.0003089e-05
1.0002574e-05
1.0001991e-05
1.0001542e-05
1.0001102e-05
1.0000598e-05
1.00002e-05
1.0000066e-05
1.000002e-05
1.0000006e-05
1.0000002e-05
1e-05
1e-05
1e-05
0.00032446438
0.00030717071
6.7204884e-05
1.199949e-05
1.0254191e-05
1.0113033e-05
1.0078519e-05
1.0043794e-05
1.0052066e-05
1.0042131e-05
1.0041129e-05
1.0037399e-05
1.0035401e-05
1.0033177e-05
1.003132e-05
1.002954e-05
1.0027891e-05
1.0026322e-05
1.0024812e-05
1.0023329e-05
1.0021855e-05
1.0020376e-05
1.0018895e-05
1.0017415e-05
1.0015944e-05
1.001449e-05
1.0013042e-05
1.0011606e-05
1.0010206e-05
1.0008879e-05
1.0007662e-05
1.0006578e-05
1.000562e-05
1.0004784e-05
1.0004097e-05
1.0003557e-05
1.0003045e-05
1.0002537e-05
1.000196e-05
1.0001471e-05
1.0001001e-05
1.0000525e-05
1.0000176e-05
1.0000058e-05
1.0000018e-05
1.0000005e-05
1.0000002e-05
1e-05
1e-05
1e-05
0.00032215105
0.00026439348
5.3135884e-05
1.1425932e-05
1.0239106e-05
1.0109524e-05
1.0074804e-05
1.0043103e-05
1.0050314e-05
1.0041135e-05
1.0040031e-05
1.003662e-05
1.0034685e-05
1.0032585e-05
1.003081e-05
1.0029116e-05
1.0027542e-05
1.0026038e-05
1.0024576e-05
1.0023131e-05
1.0021688e-05
1.0020234e-05
1.0018776e-05
1.0017318e-05
1.001587e-05
1.0014432e-05
1.0012997e-05
1.0011569e-05
1.0010172e-05
1.0008843e-05
1.0007624e-05
1.0006538e-05
1.0005577e-05
1.0004733e-05
1.0004033e-05
1.0003492e-05
1.0002999e-05
1.00025e-05
1.0001928e-05
1.0001409e-05
1.0000915e-05
1.0000448e-05
1.0000154e-05
1.000005e-05
1.0000015e-05
1.0000005e-05
1.0000002e-05
1e-05
1e-05
1e-05
0.00031990992
0.00022865369
4.2641262e-05
1.1062817e-05
1.0225513e-05
1.0106111e-05
1.0071138e-05
1.0042422e-05
1.0048604e-05
1.0040155e-05
1.0039003e-05
1.0035854e-05
1.0033987e-05
1.0032007e-05
1.0030317e-05
1.002871e-05
1.0027209e-05
1.0025765e-05
1.0024348e-05
1.002294e-05
1.0021524e-05
1.0020095e-05
1.001866e-05
1.0017222e-05
1.0015797e-05
1.0014376e-05
1.0012954e-05
1.0011535e-05
1.0010141e-05
1.0008812e-05
1.000759e-05
1.0006501e-05
1.0005537e-05