/*--------------------------------*- C++ -*----------------------------------*\
| =========                 |                                                 |
| \\      /  F ield         | OpenFOAM: The Open Source CFD Toolbox           |
|  \\    /   O peration     | Version:  2306                                  |
|   \\  /    A nd           | Website:  www.openfoam.com                      |
|    \\/     M anipulation  |                                                 |
\*---------------------------------------------------------------------------*/
FoamFile
{
    version     2.0;
    format      ascii;
    arch        "LSB;label=32;scalar=64";
    class       volScalarField;
    location    "0.006";
    object      p;
}
// * * * * * * * * * * * * * * * * * * * * * * * * * * * * * * * * * * * * * //

dimensions      [1 -1 -2 0 0 0 0];

internalField   nonuniform List<scalar> 
20000
(
99473.06
99474.997
99477.005
99480.002
99484.077
99489.532
99496.443
99504.621
99514.468
99526.23
99540.039
99556.668
99575.9
99598.972
99625.447
99656.768
99692.483
99733.852
99780.382
99832.745
99890.081
99951.947
100016.53
100081.83
100144.78
100202.25
100250.97
100288.65
100314.19
100327.48
100329.4
100321.03
100303.56
100280.5
100255.08
100225.99
100197.96
100169.01
100126.56
100096.49
100088.1
100119.66
100150.88
100160.22
100108.61
100053.08
100020.56
100006.41
100001.6
100000.32
99483.066
99485.232
99487.293
99490.416
99494.702
99500.449
99507.757
99516.329
99526.576
99538.786
99553.053
99570.231
99590.033
99613.805
99641.043
99673.273
99709.979
99752.467
99800.197
99853.813
99912.383
99975.359
100040.81
100106.55
100169.38
100226.02
100273.17
100308.75
100331.74
100342.15
100341.49
100330.67
100311.05
100286.2
100259.27
100229.16
100200.42
100170.73
100128.29
100099.1
100090.24
100121.18
100150.74
100160.45
100109.71
100053.98
100021.27
100006.78
100001.74
100000.35
99495.331
99497.503
99499.675
99502.912
99507.371
99513.317
99520.851
99529.675
99540.213
99552.79
99567.465
99585.176
99605.559
99630.058
99658.095
99691.272
99729.016
99772.662
99821.624
99876.514
99936.328
100000.41
100066.68
100132.79
100195.37
100251.02
100296.44
100329.73
100349.92
100357.37
100353.97
100340.58
100318.73
100292.01
100263.52
100232.35
100202.85
100172.35
100130.12
100101.55
100092.3
100122.67
100150.72
100160.82
100110.72
100054.86
100021.96
100007.11
100001.86
100000.38
99508.682
99510.876
99513.154
99516.512
99521.156
99527.306
99535.08
99544.196
99555.073
99568.074
99583.212
99601.517
99622.535
99647.816
99676.701
99710.873
99749.699
99794.552
99844.785
99900.981
99962.056
100027.23
100094.28
100160.67
100222.86
100277.32
100320.82
100351.58
100368.71
100373.11
100366.8
100350.75
100326.56
100297.9
100267.82
100235.55
100205.24
100173.88
100132.01
100103.96
100094.38
100124.08
100150.84
100161.29
100111.65
100055.7
100022.61
100007.43
100001.98
100000.42
99523.205
99525.462
99527.86
99531.355
99536.207
99542.575
99550.612
99560.061
99571.328
99584.803
99600.441
99619.372
99641.055
99667.148
99696.914
99732.115
99772.063
99818.159
99869.705
99927.24
99989.592
100055.85
100123.62
100190.18
100251.83
100304.89
100346.24
100374.22
100388.04
100389.27
100379.9
100361.11
100334.52
100303.85
100272.14
100238.75
100207.58
100175.31
100133.89
100106.28
100096.38
100125.42
100151.1
100161.86
100112.51
100056.5
100023.18
100007.73
100002.08
100000.44
99539.313
99541.642
99544.17
99547.814
99552.891
99559.497
99567.826
99577.588
99589.218
99603.155
99619.28
99638.837
99661.19
99688.112
99718.783
99755.047
99796.158
99843.537
99896.437
99955.343
100018.98
100086.3
100154.74
100221.35
100282.26
100333.71
100372.68
100397.56
100407.88
100405.77
100393.21
100371.58
100342.53
100309.82
100276.46
100241.94
100209.88
100176.69
100135.7
100108.51
100098.27
100126.71
100151.55
100162.54
100113.32
100057.26
100023.7
100008.01
100002.18
100000.47
99557.074
99559.477
99562.132
99565.927
99571.236
99578.085
99586.701
99596.76
99608.727
99623.115
99639.722
99659.914
99682.952
99710.73
99742.34
99779.706
99822.023
99870.731
99925.026
99985.33
100050.27
100118.62
100187.65
100254.18
100314.15
100363.74
100400.09
100421.54
100428.21
100422.55
100406.67
100382.11
100350.52
100315.74
100280.73
100245.09
100212.12
100178.03
100137.45
100110.69
100100.19
100127.96
100152.17
100163.33
100114.07
100057.95
100024.16
100008.24
100002.27
100000.5
99576.273
99578.753
99581.526
99585.477
99591.028
99598.121
99607.014
99617.404
99629.738
99644.61
99661.73
99682.593
99706.351
99735.023
99767.614
99806.127
99849.7
99899.782
99955.515
100017.25
100083.49
100152.84
100222.37
100288.66
100347.48
100394.97
100428.38
100446.09
100448.95
100439.54
100420.24
100392.65
100358.46
100321.56
100284.9
100248.13
100214.26
100179.3
100139.09
100112.77
100102.1
100129.2
100152.93
100164.23
100114.79
100058.58
100024.58
100008.45
100002.35
100000.52
99596.748
99599.355
99602.25
99606.381
99612.209
99619.576
99628.779
99639.535
99652.265
99667.658
99685.324
99706.897
99731.413
99761.022
99794.64
99834.348
99879.229
99930.735
99987.949
100051.13
100118.67
100188.98
100258.91
100324.79
100382.2
100427.35
100457.47
100471.15
100470.04
100456.7
100433.85
100403.16
100366.33
100327.26
100288.93
100251.02
100216.25
100180.45
100140.58
100114.63
100103.93
100130.46
100153.8
100165.23
100115.48
100059.14
100024.95
100008.64
100002.43
100000.55
99618.696
99621.44
99624.47
99628.797
99634.919
99642.567
99652.089
99663.23
99676.371
99692.309
99710.545
99732.86
99758.171
99788.76
99823.453
99864.407
99910.651
99963.633
100022.37
100087.04
100155.87
100227.08
100297.28
100362.54
100418.3
100460.82
100487.26
100496.72
100491.37
100473.96
100447.46
100413.61
100374.07
100332.82
100292.82
100253.77
100218.08
100181.42
100141.91
100116.28
100105.7
100131.8
100154.78
100166.34
100116.19
100059.7
100025.32
100008.82
100002.49
100000.57
99642.303
99645.175
99648.324
99652.83
99659.228
99667.144
99676.974
99688.509
99702.074
99718.583
99737.414
99760.508
99786.65
99818.264
99854.085
99896.342
99944.01
99998.523
100058.84
100125
100195.12
100267.16
100337.49
100401.92
100455.75
100495.3
100517.66
100522.71
100512.87
100491.25
100461.02
100423.93
100381.66
100338.21
100296.54
100256.35
100219.73
100182.23
100143.06
100117.8
100107.42
100133.28
100155.88
100167.55
100116.91
100060.26
100025.63
100008.94
100002.53
100000.58
99667.13
99670.169
99673.479
99678.221
99684.958
99693.199
99703.381
99715.353
99729.371
99746.482
99765.936
99789.846
99816.865
99849.56
99886.572
99930.196
99979.354
100035.46
100097.39
100165.07
100236.44
100309.23
100379.53
100442.87
100494.5
100530.7
100548.6
100549.02
100534.47
100508.5
100474.46
100434.1
100389.07
100343.4
100300.08
100258.75
100221.2
100182.86
100144.04
100119.23
100109.08
100134.9
100157.15
100168.87
100117.62
100060.66
100025.8
100009.01
100002.55
100000.59
99693.721
99696.906
99700.351
99705.302
99712.341
99720.866
99731.37
99743.765
99758.237
99775.978
99796.095
99820.881
99848.842
99882.687
99920.963
99966.024
100016.74
100074.49
100138.08
100207.3
100279.89
100353.32
100423.39
100485.37
100534.5
100566.88
100580.05
100575.55
100556.08
100525.64
100487.73
100444.06
100396.25
100348.38
100303.42
100260.97
100222.47
100183.33
100144.84
100120.54
100110.69
100136.68
100158.61
100170.28
100118.25
100060.85
100025.88
100009.04
100002.56
100000.6
99721.47
99724.823
99728.412
99733.598
99740.955
99749.798
99760.7
99773.611
99788.625
99807.086
99827.946
99853.686
99882.659
99917.721
99957.328
100003.89
100056.23
100115.69
100180.98
100251.73
100325.49
100399.45
100469.07
100529.39
100575.65
100603.74
100611.93
100602.17
100577.61
100542.61
100500.77
100453.77
100403.18
100353.11
100306.54
100262.97
100223.55
100183.54
100145.45
100121.74
100112.26
100138.64
100160.26
100171.79
100118.61
100060.91
100025.9
100009.05
100002.56
100000.6
99750.63
99754.188
99757.961
99763.43
99771.143
99780.364
99791.716
99805.198
99820.793
99840.017
99861.651
99888.384
99918.412
99954.74
99995.738
100043.86
100097.89
100159.1
100226.12
100298.4
100373.28
100447.6
100516.52
100574.89
100617.85
100641.16
100644.11
100628.81
100598.98
100559.33
100513.53
100463.19
100409.81
100357.58
100309.42
100264.75
100224.44
100183.57
100145.82
100122.81
100113.79
100140.8
100162.1
100173.37
100118.76
100060.86
100025.84
100009.02
100002.56
100000.61
99781.867
99785.616
99789.56
99795.306
99803.368
99812.974
99824.728
99838.742
99854.891
99874.876
99897.29
99925.042
99956.164
99993.806
100036.25
100086
100141.78
100204.79
100273.58
100347.37
100423.27
100497.79
100565.73
100621.8
100660.96
100679.1
100676.46
100655.34
100620.11
100575.74
100525.95
100472.26
100416.12
100361.76
100312.05
100266.31
100225.12
100183.39
100145.96
100123.74
100115.29
100143.17
100164.14
100175.01
100118.8
100060.66
100025.69
100008.96
100002.54
100000.61
99814.685
99818.663
99822.81
99828.885
99837.355
99847.379
99859.564
99874.144
99890.872
99911.656
99934.884
99963.699
99995.964
100034.97
100078.94
100130.37
100187.96
100252.83
100323.4
100398.68
100475.51
100549.99
100616.65
100670.05
100704.83
100717.47
100708.84
100681.66
100640.89
100591.75
100537.96
100480.94
100422.08
100365.62
100314.41
100267.63
100225.52
100183
100145.9
100124.54
100116.8
100145.76
100166.44
100176.7
100118.67
100060.31
100025.45
100008.85
100002.51
100000.6
99849.449
99853.649
99857.985
99864.376
99873.23
99883.644
99896.274
99911.445
99928.772
99950.393
99974.474
100004.4
100037.86
100078.3
100123.84
100177.03
100236.5
100303.27
100375.63
100452.36
100529.99
100604.2
100669.23
100719.52
100749.33
100756.13
100741.12
100707.66
100661.25
100607.31
100549.53
100489.2
100427.65
100369.16
100316.48
100268.72
100225.67
100182.4
100145.64
100125.21
100118.32
100148.58
100169.01
100178.43
100118.33
100059.8
100025.13
100008.7
100002.46
100000.59
99885.94
99890.383
99894.914
99901.648
99910.919
99921.75
99934.854
99950.662
99968.619
99991.126
100016.1
100047.18
100081.9
100123.82
100171.02
100226.03
100287.45
100356.17
100430.35
100508.47
100586.72
100660.39
100723.44
100770.06
100794.35
100794.94
100773.16
100733.23
100681.09
100622.34
100560.59
100496.99
100432.81
100372.35
100318.26
100269.53
100225.6
100181.6
100145.17
100125.74
100119.91
100151.64
100171.89
100180.17
100117.75
100059.12
100024.71
100008.52
100002.4
100000.58
99924.182
99928.898
99933.661
99940.79
99950.521
99961.787
99975.38
99991.849
100010.45
100033.87
100059.78
100092.07
100128.11
100171.59
100220.53
100277.45
100340.89
100411.61
100487.6
100567.03
100645.72
100718.52
100779.18
100821.48
100839.81
100833.7
100804.84
100758.25
100700.32
100636.78
100571.1
100504.28
100437.54
100375.17
100319.74
100269.98
100225.28
100180.6
100144.51
100126.03
100121.6
100154.93
100175.11
100181.88
100116.91
100058.28
100024.21
100008.3
100002.33
100000.57
99964.342
99969.324
99974.324
99981.848
99992.002
100003.68
100017.76
100034.93
100054.2
100078.59
100105.49
100139.06
100176.52
100221.66
100272.44
100331.36
100396.91
100469.66
100547.44
100628.07
100706.96
100778.53
100836.34
100873.63
100885.58
100872.24
100836
100782.61
100718.87
100650.56
100581.01
100511.03
100441.81
100377.6
100320.91
100270.13
100224.69
100179.41
100143.7
100126.13
100123.41
100158.46
100178.7
100183.48
100115.8
100057.27
100023.63
100008.05
100002.25
100000.55
100005.91
100011.2
100016.48
100024.45
100035.07
100047.24
100061.87
100079.81
100099.81
100125.27
100153.26
100188.23
100227.21
100274.12
100326.85
100387.86
100455.57
100530.39
100609.92
100691.61
100770.42
100840.39
100894.77
100926.34
100931.45
100910.41
100866.51
100806.2
100736.66
100663.64
100590.27
100517.21
100445.6
100379.65
100321.69
100269.99
100223.84
100178.01
100142.77
100126.05
100125.4
100162.23
100182.66
100184.86
100114.41
100056.1
100022.97
100007.77
100002.16
100000.53
100049.37
100054.93
100060.48
100068.81
100079.86
100092.56
100107.76
100126.57
100147.41
100174.04
100203.23
100239.7
100280.31
100329.08
100383.85
100447.03
100516.97
100593.87
100675.11
100757.67
100836.09
100904.02
100954.27
100979.49
100977.23
100948.02
100896.22
100828.92
100753.6
100675.96
100598.85
100522.79
100448.89
100381.32
100322.04
100269.54
100222.71
100176.41
100141.72
100125.78
100127.61
100166.26
100187.04
100185.84
100112.72
100054.78
100022.24
100007.47
100002.06
100000.5
100094.16
100100.08
100105.99
100114.76
100126.39
100139.79
100155.69
100175.5
100197.26
100225.15
100255.61
100293.64
100335.96
100386.67
100443.56
100508.98
100581.2
100660.19
100743.03
100826.25
100903.9
100969.3
101014.63
101032.95
101022.68
100984.9
100924.99
100850.66
100769.63
100687.46
100606.71
100527.76
100451.67
100382.59
100322.08
100268.75
100221.3
100174.59
100140.52
100125.38
100130.04
100170.61
100191.78
100186.41
100110.74
100053.31
100021.45
100007.14
100001.95
100000.48
100141.55
100147.83
100154.12
100163.34
100175.6
100189.68
100206.2
100226.97
100249.61
100278.76
100310.52
100350.15
100394.25
100446.97
100506.08
100573.8
100648.35
100729.4
100813.73
100897.34
100973.81
101036.08
101075.63
101086.52
101067.59
101020.88
100952.69
100871.33
100784.69
100698.1
100613.82
100532.08
100453.95
100383.37
100321.73
100267.61
100219.59
100172.56
100139.18
100124.89
100132.76
100175.3
100196.75
100186.68
100108.5
100051.7
100020.6
100006.8
100001.84
100000.45
100191.32
100197.96
100204.68
100214.37
100227.21
100241.96
100259.09
100280.87
100304.43
100334.88
100367.99
100409.3
100455.26
100510.07
100571.48
100641.59
100718.5
100801.58
100887.24
100970.91
101045.76
101104.17
101137.1
101139.93
101111.74
101055.76
100979.19
100890.84
100798.71
100707.85
100620.15
100535.75
100455.75
100383.67
100321
100266.12
100217.58
100170.32
100137.73
100124.34
100135.77
100180.35
100201.93
100186.54
100106
100049.95
100019.7
100006.44
100001.73
100000.42
100243.08
100250.14
100257.36
100267.6
100281.03
100296.56
100314.35
100337.19
100361.72
100393.54
100428.1
100471.16
100519.08
100576.08
100639.89
100712.45
100791.74
100876.78
100963.57
101046.94
101119.62
101173.28
101198.87
101192.92
101154.92
101089.39
101004.35
100909.11
100811.65
100716.67
100625.68
100538.75
100457.02
100383.57
100319.85
100264.26
100215.24
100167.9
100136.24
100123.78
100139.05
100185.75
100207.34
100185.62
100103.27
100048.09
100018.76
100006.08
100001.62
100000.39
100297.33
100304.79
100312.53
100323.27
100337.24
100353.57
100372.02
100395.97
100421.54
100454.81
100490.89
100535.81
100585.8
100645.1
100711.4
100786.48
100868.16
100955.07
101042.72
101125.36
101195.24
101243.18
101260.74
101245.19
101196.89
101121.57
101028.07
100926.07
100823.47
100724.53
100630.37
100541.13
100457.64
100383.04
100318.3
100262.02
100212.54
100165.33
100134.79
100123.32
100142.61
100191.5
100212.93
100183.85
100100.32
100046.12
100017.8
100005.71
100001.51
100000.37
100353.66
100361.57
100369.86
100381.13
100395.66
100412.9
100432.09
100457.26
100483.94
100518.76
100556.48
100603.36
100655.54
100717.24
100786.13
100863.79
100947.85
101036.49
101124.68
101206.09
101272.43
101313.61
101322.43
101296.49
101237.44
101152.16
101050.24
100941.66
100834.13
100731.4
100634.25
100542.88
100457.78
100382.06
100316.32
100259.37
100209.41
100162.67
100133.45
100123.02
100146.72
100197.52
100218.66
100181.23
100097.16
100044.05
100016.82
100005.34
100001.4
100000.34
100412.24
100420.64
100429.54
100441.41
100456.53
100474.76
100494.73
100521.19
100549.08
100585.53
100624.98
100673.92
100728.41
100792.63
100864.21
100944.49
101030.9
101121.07
101209.43
101289.06
101350.9
101384.32
101383.59
101346.53
101276.35
101180.99
101070.76
100955.82
100843.59
100737.26
100637.36
100543.82
100457.41
100380.62
100313.92
100256.29
100205.78
100159.94
100132.33
100122.87
100151.44
100203.7
100224.53
100177.81
100093.73
100041.91
100015.82
100004.98
100001.29
100000.31
100473.31
100482.23
100491.77
100504.29
100519.98
100539.25
100560.05
100587.86
100617
100655.17
100696.49
100747.61
100804.56
100871.41
100945.78
101028.72
101117.38
101208.84
101296.92
101374.09
101430.31
101455.13
101443.85
101395.03
101313.39
101207.92
101089.56
100968.52
100851.84
100742.14
100639.68
100544.1
100456.52
100378.73
100311.08
100252.75
100201.61
100157.11
100131.51
100123.28
100156.78
100209.79
100230.44
100173.62
100090.03
100039.72
100014.83
100004.62
100001.19
100000.29
100536.87
100546.34
100556.53
100569.72
100585.99
100606.35
100628.01
100657.27
100687.8
100727.82
100771.15
100824.6
100884.16
100953.76
101030.99
101116.58
101207.37
101299.79
101387.06
101460.96
101510.35
101525.7
101502.88
101441.71
101348.36
101232.84
101106.57
100979.72
100858.85
100746.08
100641.02
100543.77
100455.12
100376.38
100307.81
100248.73
100196.88
100154.13
100131
100124.49
100162.99
100215.47
100236.08
100168.7
100086.11
100037.51
100013.85
100004.27
100001.09
100000.26
100602.8
100612.84
100623.67
100637.59
100654.48
100676.07
100698.73
100729.61
100761.68
100803.71
100849.21
100905.12
100967.4
101039.84
101119.98
101208.19
101300.92
101393.9
101479.76
101549.39
101590.7
101595.65
101560.33
101486.3
101381.07
101255.63
101121.74
100989.39
100864.67
100749.07
100641.51
100542.79
100453.2
100373.57
100304.09
100244.21
100191.63
100150.99
100130.63
100126.75
100170.38
100220.44
100241.07
100163.11
100082.04
100035.29
100012.89
100003.94
100000.99
100000.24
100671.14
100681.84
100693.33
100708.18
100725.87
100748.88
100772.66
100805.3
100839.01
100883.14
100930.92
100989.37
101054.47
101129.82
101212.9
101303.64
101398.05
101491.14
101574.85
101638.97
101671.1
101664.51
101615.85
101528.51
101411.35
101276.19
101135.02
100997.54
100869.33
100750.92
100641.26
100541.19
100450.79
100370.32
100299.93
100239.15
100185.95
100147.76
100130.11
100130.59
100179.16
100224.73
100244.94
100156.97
100077.86
100033.08
100011.96
100003.62
100000.91
100000.22
100742.72
100754.17
100766.41
100782.46
100800.94
100825.38
100850.24
100884.62
100920.02
100966.28
101016.42
101077.51
101145.53
101223.86
101309.87
101403.03
101498.79
101591.41
101672.1
101729.3
101751.19
101731.83
101669.08
101568.1
101439.05
101294.46
101146.37
101004.21
100872.84
100751.72
100640.22
100538.98
100447.88
100366.6
100295.31
100233.51
100179.97
100144.47
100129.26
100136.28
100189.29
100228.87
100246.91
100150.44
100073.65
100030.91
100011.06
100003.32
100000.82
100000.2
100817.99
100830.22
100843.27
100860.44
100879.55
100905.46
100931.4
100967.59
101004.75
101053.24
101105.86
101169.7
101240.74
101322.1
101411.03
101506.41
101603.11
101694.61
101771.18
101819.98
101830.51
101797.19
101719.67
101604.82
101464.04
101310.37
101155.82
101009.46
100875
100751.65
100638.43
100536.17
100444.48
100362.44
100290.21
100227.21
100173.81
100140.99
100128.16
100144.02
100200.26
100233.99
100248.01
100143.72
100069.44
100028.79
100010.21
100003.04
100000.75
100000.18
100896.55
100909.62
100923.43
100941.76
100961.56
100989.03
101016.17
101054.27
101093.32
101144.17
101199.41
101266.11
101340.27
101424.72
101516.49
101613.83
101710.98
101800.55
101871.66
101910.6
101908.52
101860.14
101767.29
101638.48
101486.2
101323.87
101163.44
101013.24
100875.9
100750.66
100635.9
100532.79
100440.6
100357.82
100284.61
100220.24
100167.53
100137.32
100126.91
100152.93
100211.51
100241.01
100245.95
100136.99
100065.26
100026.74
100009.4
100002.78
100000.68
100000.16
100978.36
100992.38
101006.94
101026.57
101047.11
101076.27
101104.72
101144.86
101185.94
101239.26
101297.27
101366.94
101444.32
101531.86
101626.36
101725.33
101822.3
101908.97
101972.99
102000.83
101984.62
101920.22
101811.6
101668.87
101505.44
101335
101169.3
101015.35
100875.77
100748.77
100632.67
100528.86
100436.25
100352.75
100278.5
100212.68
100161.15
100133.61
100125.52
100162.27
100222.38
100249.94
100240.41
100130.31
100061.12
100024.77
100008.64
100002.54
100000.62
100000.15
101063.63
101078.74
101094.07
101115.1
101136.47
101167.43
101197.28
101239.56
101282.8
101338.71
101399.62
101472.38
101553.07
101643.7
101740.73
101840.88
101936.95
102019.5
102074.67
102090.07
102058.26
101977.01
101852.32
101695.83
101521.71
101343.84
101173.2
101016.05
100874.55
100746.02
100628.76
100524.39
100431.42
100347.23
100271.87
100204.61
100154.67
100129.97
100124.34
100172.16
100233.27
100259.58
100232.45
100123.47
100057.04
100022.89
100007.92
100002.32
100000.56
100000.14
101152.72
101169.04
101185.12
101207.63
101229.87
101262.69
101294
101338.53
101384.05
101442.68
101506.68
101582.66
101666.74
101760.39
101859.68
101960.45
102054.7
102131.64
102176.18
102177.66
102128.88
102030.07
101889.19
101719.24
101535.04
101350.43
101175.09
101015.45
100872.27
100742.45
100624.22
100519.41
100426.13
100341.24
100264.67
100196.14
100148.18
100126.33
100123.78
100182.42
100244.31
100269.36
100223
100116.43
100053.09
100021.12
100007.26
100002.12
100000.51
100000.12
101245.57
101263.29
101280.08
101304.13
101327.28
101362.07
101394.96
101441.89
101489.92
101551.47
101618.74
101698.06
101785.55
101882.08
101983.23
102083.94
102175.25
102244.69
102277.08
102262.85
102195.92
102078.99
101921.95
101739.02
101545.5
101354.49
101175.33
101013.55
100868.99
100738.1
100619.07
100513.93
100420.38
100334.76
100256.83
100187.45
100141.85
100122.48
100123.71
100192.71
100255.03
100278.75
100212.62
100109.33
100049.29
100019.45
100006.65
100001.93
100000.46
100000.11
101342.26
101361.5
101378.89
101404.54
101428.72
101465.76
101500.44
101550.02
101600.82
101665.45
101736.15
101818.87
101909.72
102008.89
102111.38
102211.17
102298.14
102358.02
102376.65
102344.94
102258.83
102123.42
101950.44
101755.17
101553.1
101356.17
101173.93
101010.38
100864.74
100733.02
100613.37
100507.98
100414.16
100327.76
100248.24
100178.71
100135.75
100118.41
100124.94
100202.65
100264.46
100286.5
100201.59
100102.34
100045.69
100017.9
100006.09
100001.76
100000.42
100000.1
101442.77
101463.66
101481.71
101509.38
101534.8
101574.41
101611.12
101663.5
101717.23
101785.03
101859.24
101945.36
102039.43
102140.87
102244.03
102341.84
102422.75
102470.96
102474.07
102423.21
102317.06
102163.01
101974.52
101767.76
101557.5
101355.8
101170.93
101006.02
100859.58
100727.26
100607.15
100501.57
100407.48
100320.18
100238.82
100170.01
100129.91
100114.58
100128.39
100212.17
100271.54
100292.17
100190.34
100095.6
100042.28
100016.45
100005.58
100001.61
100000.39
100000.1
101548.6
101571.16
101590.14
101620.15
101646.66
101688.83
101727.57
101782.76
101839.5
101910.5
101988.25
102077.72
102174.79
102278.03
102381.05
102475.56
102548.21
102582.91
102568.39
102496.96
102370.1
102197.49
101994.17
101776.72
101559.06
101353.35
101166.4
101000.53
100853.58
100720.88
100600.46
100494.72
100400.32
100311.96
100228.59
100161.31
100124.41
100111.61
100135.34
100221.36
100275.86
100294.72
100179.37
100089.16
100039.06
100015.12
100005.12
100001.47
100000.35
100000.09
101659.79
101684.36
101704.33
101736.63
101764.27
101809.08
101849.94
101907.99
101967.85
102042.11
102123.43
102216.14
102315.91
102420.32
102522.18
102611.73
102673.7
102692.97
102658.7
102565.47
102417.49
102226.69
102009.43
101781.74
101557.99
101348.91
101160.42
100993.96
100846.79
100713.92
100593.32
100487.45
100392.67
100303.02
100217.6
100152.62
100119.45
100109.92
100147.1
100231.37
100278.19
100295.51
100168.94
100082.99
100036.04
100013.89
100004.69
100001.35
100000.32
100000.08
101776.83
101803.52
101824.29
101859.01
101887.76
101935.31
101978.42
102039.39
102102.54
102180.12
102265.01
102360.78
102462.8
102567.6
102667.01
102749.54
102798.36
102800.07
102744.11
102628.05
102458.84
102250.52
102020.17
101783.28
101554.33
101342.59
101153.07
100986.41
100839.28
100706.46
100585.8
100479.77
100384.49
100293.25
100205.95
100143.99
100114.96
100109.21
100162.78
100244.13
100281.66
100289.46
100159
100077.06
100033.24
100012.77
100004.31
100001.24
100000.3
100000.07
101899.63
101928.56
101949.95
101987.36
102017.26
102067.71
102113.28
102177.28
102243.89
102324.85
102413.25
102511.79
102615.44
102719.63
102814.98
102887.87
102921.39
102903.01
102823.68
102684.09
102493.89
102268.96
102026.06
101781.51
101548.19
101334.48
101144.46
100977.93
100831.11
100698.55
100577.92
100471.68
100375.74
100282.51
100193.9
100135.48
100110.54
100109.97
100180.64
100258.05
100289.85
100277.81
100149.05
100071.41
100030.64
100011.74
100003.96
100001.14
100000.27
100000.07
102028.17
102059.5
102081.52
102121.95
102153.14
102206.72
102255.06
102322.14
102392.29
102476.61
102568.33
102669.2
102773.7
102876.01
102965.23
103025.69
103041.56
103000.64
102896.53
102733.03
102522.47
102281.82
102027.68
101776.49
101539.69
101324.7
101134.65
100968.6
100822.35
100690.24
100569.74
100463.21
100366.33
100270.59
100181.77
100127.17
100105.33
100113.12
100199.3
100272.62
100300.75
100263.03
100139.12
100066.1
100028.25
100010.81
100003.64
100001.05
100000.25
100000.06
102162.76
102196.82
102219.5
102263.28
102295.83
102352.74
102404.25
102474.49
102548.11
102635.61
102730.37
102832.97
102937.31
103036.11
103116.66
103161.87
103157.46
103091.79
102961.82
102774.5
102544.49
102288.75
102025.15
101768.38
101528.98
101313.37
101123.74
100958.5
100813.07
100681.61
100561.29
100454.34
100356.17
100257.47
100169.63
100118.83
100099.59
100118.59
100217.51
100286.89
100311.88
100247.33
100129.53
100061.19
100026.06
100009.96
100003.36
100000.97
100000.23
100000.06
102304.09
102341.29
102364.3
102411.84
102445.88
102506.04
102560.92
102634.48
102711.58
102802.04
102899.42
103002.99
103105.87
103199.09
103267.83
103295.23
103267.58
103175.29
103018.81
102808.2
102559.63
102290.44
102018.59
101757.35
101516.22
101300.6
101111.82
100947.69
100803.34
100672.7
100552.62
100445.07
100345.18
100243.26
100157.38
100110.37
100093.85
100126.18
100233.15
100299.04
100321.08
100231.73
100120.53
100056.65
100024.06
100009.19
100003.11
100000.9
100000.22
100000.06
102453.23
102494.11
102517.23
102568.81
102604.46
102667.57
102725.29
102802.04
102882.87
102976.08
103075.49
103178.99
103278.69
103363.73
103417.37
103424.08
103370.42
103250.05
103066.93
102833.91
102567.59
102286.97
102008.19
101743.57
101501.54
101286.49
101098.97
100936.25
100793.23
100663.59
100543.75
100435.38
100333.24
100228.05
100144.95
100101.9
100088.38
100135.99
100244.42
100306.65
100326.75
100216.87
100112.19
100052.44
100022.22
100008.5
100002.88
100000.83
100000.2
100000.05
102610.92
102656.03
102678.91
102734.54
102771.72
102837.76
102898.46
102977.96
103062.34
103157.92
103258.47
103360.49
103454.81
103528.33
103563.8
103546.52
103464.51
103315.09
103105.74
102851.17
102569.11
102278.5
101994.15
101727.25
101485.1
101271.16
101085.26
100924.25
100782.8
100654.31
100534.71
100425.22
100320.24
100211.96
100132.4
100093.74
100083.22
100147.98
100252.19
100309.75
100330.17
100203.16
100104.42
100048.54
100020.55
100007.87
100002.67
100000.78
100000.19
100000.05
102776.97
102826.61
102848.88
102908.7
102947.64
103016.37
103080.55
103162.95
103250.36
103347.54
103448
103546.65
103632.79
103691.1
103705.2
103660.64
103548.39
103369.59
103134.82
102859.82
102564.25
102265.28
101976.73
101708.57
101467.03
101254.69
101070.78
100911.76
100772.12
100644.93
100525.52
100414.54
100306.02
100195.24
100119.82
100086
100080.05
100162.78
100259.38
100309.54
100329.81
100190.61
100097.07
100044.95
100019.03
100007.3
100002.48
100000.72
100000.18
100000.05
102952.32
103005.94
103027.18
103091.14
103132.35
103203.96
103272.04
103357.11
103446.97
103544.65
103643.36
103736.24
103810.65
103850.11
103839.24
103764.55
103620.8
103412.86
103153.55
102860.57
102553.22
102247.57
101956.16
101687.73
101447.47
101237.19
101055.58
100898.83
100761.26
100635.49
100516.18
100403.21
100290.39
100178.34
100107.48
100078.13
100078.78
100180.02
100269.41
100307.89
100320.3
100178.66
100090.14
100041.67
100017.66
100006.78
100002.31
100000.68
100000.16
100000.04
103137.48
103194.79
103215.6
103283.1
103327.58
103401.88
103473.51
103560.42
103651.83
103748.62
103843.42
103927.46
103986.05
104003.09
103963.47
103856.42
103680.63
103444.33
103162.02
102853.43
102536.33
102225.69
101932.7
101664.91
101426.55
101218.75
101039.74
100885.53
100750.27
100626.01
100506.67
100391.09
100273.19
100161.75
100095.55
100069.55
100080.55
100198.23
100281.23
100313.17
100304.46
100166.81
100083.71
100038.69
100016.41
100006.32
100002.16
100000.63
100000.15
100000.04
103332.36
103394.02
103415.49
103484.98
103533.45
103610.86
103685.19
103772.88
103864.32
103958.32
104046.48
104117.84
104156.49
104147.13
104075.5
103934.58
103726.91
103463.15
103160.75
102838.72
102513.93
102199.94
101906.58
101640.28
101404.39
101199.42
101023.31
100871.91
100739.19
100616.54
100496.92
100378.01
100254.65
100145.41
100083.88
100060.99
100086.66
100216.06
100294.61
100323.22
100286.01
100155.42
100077.84
100035.97
100015.28
100005.9
100002.02
100000.59
100000.14
100000.04
103538.03
103603.88
103627
103700.12
103751.13
103828.91
103905.8
103993.47
104083.28
104172.1
104250.19
104304.37
104319.08
104279.15
104173.01
103997.52
103758.62
103469.73
103149.81
102816.82
102486.4
102170.65
101878.06
101614.01
101381.08
101179.28
101006.33
100858.02
100728.08
100607.05
100486.87
100363.8
100234.99
100129.3
100072.67
100053.09
100096.49
100232.73
100308.64
100333.95
100267.64
100144.91
100072.5
100033.5
100014.25
100005.52
100001.9
100000.56
100000.14
100000.04
103755.64
103825.26
103849.94
103924.63
103979.24
104057.29
104135.13
104221.22
104307.1
104387.61
104451.31
104483.83
104470.16
104396.15
104253.82
104043.87
103775.1
103464.31
103129.62
102788.17
102454.15
102138.13
101847.36
101586.25
101356.72
101158.39
100988.84
100843.88
100716.96
100597.54
100476.36
100348.24
100214.42
100113.49
100062.22
100045.97
100108.83
100246.37
100319.92
100342.15
100250.54
100135.37
100067.61
100031.24
100013.32
100005.17
100001.78
100000.53
100000.13
100000.03
103984.55
104057.21
104083.76
104159.55
104216.81
104294.44
104371.78
104454.28
104533.32
104601.57
104645.94
104652.34
104605.88
104495.15
104315.91
104072.22
103776.87
103447.12
103100.65
102753.28
102417.59
102102.69
101814.68
101557.14
101331.4
101136.78
100970.89
100829.53
100705.85
100587.96
100465.19
100331.01
100193.21
100098.07
100052.8
100040.24
100122.1
100254.35
100325.63
100347.34
100234.93
100126.65