/*--------------------------------*- C++ -*----------------------------------*\
| =========                 |                                                 |
| \\      /  F ield         | OpenFOAM: The Open Source CFD Toolbox           |
|  \\    /   O peration     | Version:  2306                                  |
|   \\  /    A nd           | Website:  www.openfoam.com                      |
|    \\/     M anipulation  |                                                 |
\*---------------------------------------------------------------------------*/
FoamFile
{
    version     2.0;
    format      ascii;
    arch        "LSB;label=32;scalar=64";
    class       volScalarField;
    location    "0.006";
    object      rho;
}
// * * * * * * * * * * * * * * * * * * * * * * * * * * * * * * * * * * * * * //

dimensions      [1 -3 0 0 0 0 0];

internalField   nonuniform List<scalar> 
20000
(
1.1585129
1.1582386
1.1582388
1.158559
1.159446
1.1615153
1.1632678
1.1634275
1.1633739
1.1634176
1.1634262
1.1635002
1.1635719
1.1636978
1.1638415
1.1640398
1.1642714
1.1645606
1.1648945
1.1652861
1.1657239
1.1662069
1.1667171
1.1672383
1.1677431
1.168205
1.1685953
1.1688953
1.1690951
1.1691938
1.1692
1.1691211
1.1689671
1.1687679
1.1685494
1.1683002
1.1680656
1.1678162
1.167451
1.1672018
1.1671442
1.167421
1.1676725
1.1677324
1.1672905
1.1668328
1.1665665
1.1664513
1.1664119
1.1664013
1.1586227
1.158355
1.1583641
1.1587056
1.159632
1.1618175
1.1634007
1.1635271
1.1634782
1.1635281
1.1635407
1.1636206
1.163697
1.1638294
1.1639795
1.1641855
1.1644255
1.1647241
1.1650679
1.1654696
1.1659172
1.1664088
1.1669254
1.1674492
1.1679516
1.168405
1.1687808
1.1690616
1.1692388
1.1693128
1.1692972
1.1691978
1.169026
1.168812
1.1685812
1.1683239
1.168084
1.1678298
1.167465
1.1672212
1.1671575
1.1674308
1.1676713
1.1677336
1.1672975
1.166838
1.1665713
1.1664538
1.1664128
1.1664015
1.1587677
1.158504
1.1585245
1.1588905
1.159863
1.1621615
1.1635498
1.1636432
1.1635952
1.1636487
1.1636642
1.1637488
1.16383
1.1639687
1.1641256
1.1643397
1.1645885
1.1648967
1.1652508
1.1656631
1.1661209
1.1666215
1.1671447
1.167671
1.1681709
1.1686154
1.1689763
1.1692378
1.1693912
1.1694405
1.1694018
1.1692812
1.1690908
1.1688612
1.1686174
1.1683514
1.168105
1.1678437
1.167482
1.1672437
1.1671754
1.1674434
1.1676717
1.1677378
1.1673068
1.1668463
1.1665773
1.1664567
1.1664138
1.1664018
1.1589228
1.1586612
1.158691
1.1590821
1.160105
1.1624963
1.1636938
1.1637662
1.1637216
1.1637799
1.1637994
1.1638898
1.1639765
1.1641221
1.1642863
1.1645088
1.1647668
1.1650851
1.1654497
1.1658728
1.1663409
1.1668503
1.1673794
1.1679073
1.168403
1.1688367
1.1691805
1.1694201
1.1695472
1.169571
1.1695078
1.1693651
1.1691553
1.1689096
1.1686525
1.1683776
1.1681246
1.1678563
1.1674975
1.1672636
1.1671908
1.1674541
1.1676724
1.1677422
1.1673145
1.166853
1.1665829
1.1664592
1.1664148
1.166402
1.1590921
1.1588325
1.1588719
1.1592912
1.1603735
1.1628346
1.1638413
1.1639027
1.1638602
1.1639235
1.1639471
1.1640431
1.1641355
1.1642881
1.1644598
1.164691
1.1649585
1.1652872
1.1656628
1.1660968
1.1665755
1.1670935
1.1676282
1.1681569
1.1686471
1.1690682
1.1693935
1.169609
1.1697079
1.1697052
1.1696164
1.1694509
1.1692213
1.168959
1.1686884
1.1684043
1.168144
1.1678682
1.1675136
1.1672838
1.1672073
1.1674647
1.1676745
1.1677476
1.1673219
1.1668597
1.1665877
1.1664616
1.1664156
1.1664023
1.1592781
1.1590189
1.1590684
1.1595173
1.1606707
1.1631675
1.1639978
1.1640519
1.1640127
1.1640809
1.1641084
1.1642101
1.1643082
1.164468
1.1646474
1.1648876
1.1651649
1.1655042
1.1658912
1.1663365
1.1668257
1.1673522
1.1678919
1.1684202
1.1689034
1.16931
1.1696147
1.1698034
1.1698728
1.1698418
1.1697264
1.1695373
1.1692874
1.1690083
1.168724
1.1684308
1.168163
1.1678797
1.1675291
1.1673022
1.1672232
1.1674746
1.167678
1.1677538
1.1673289
1.166866
1.1665918
1.166464
1.1664164
1.1664025
1.1594801
1.1592213
1.1592797
1.1597612
1.1609985
1.1634995
1.1641591
1.1642158
1.1641785
1.1642516
1.1642829
1.1643905
1.1644943
1.1646615
1.164849
1.1650985
1.165386
1.1657364
1.166135
1.1665919
1.1670917
1.1676264
1.1681704
1.1686973
1.1691717
1.1695618
1.1698436
1.1700029
1.1700416
1.1699807
1.1698376
1.1696241
1.1693533
1.169057
1.1687591
1.1684568
1.1681815
1.1678908
1.167544
1.1673199
1.1672389
1.1674843
1.1676828
1.1677609
1.1673355
1.1668718
1.1665957
1.1664659
1.1664172
1.1664027
1.1596974
1.1594376
1.1595041
1.1600184
1.1613551
1.1638276
1.1643241
1.1643916
1.1643567
1.1644349
1.1644704
1.1645841
1.1646942
1.1648691
1.165065
1.1653241
1.1656222
1.1659841
1.1663947
1.1668633
1.1673738
1.1679164
1.1684639
1.168988
1.1694518
1.1698234
1.1700797
1.1702068
1.1702136
1.1701212
1.1699495
1.169711
1.1694187
1.1691048
1.1687932
1.1684818
1.168199
1.1679014
1.1675582
1.1673375
1.1672547
1.1674939
1.1676886
1.1677687
1.1673419
1.1668771
1.1665991
1.1664676
1.1664179
1.1664029
1.1599255
1.1596659
1.15974
1.1602884
1.1617406
1.1641507
1.1645037
1.1645798
1.1645476
1.1646312
1.1646712
1.1647913
1.1649079
1.1650908
1.1652955
1.1655648
1.1658739
1.1662476
1.1666706
1.1671512
1.1676723
1.1682224
1.1687726
1.1692922
1.1697433
1.1700944
1.1703221
1.1704151
1.1703883
1.170263
1.1700618
1.1697976
1.1694834
1.1691517
1.1688262
1.1685055
1.1682152
1.1679107
1.1675712
1.1673538
1.1672702
1.1675038
1.1676953
1.1677772
1.1673481
1.166882
1.1666023
1.1664692
1.1664185
1.1664032
1.1601711
1.1599111
1.1599922
1.1605731
1.162156
1.1644676
1.1647009
1.1647812
1.1647518
1.1648409
1.1648857
1.1650123
1.1651357
1.1653271
1.165541
1.1658207
1.1661414
1.1665274
1.1669632
1.1674559
1.1679875
1.1685446
1.1690964
1.1696099
1.1700461
1.1703742
1.17057
1.1706273
1.1705647
1.1704054
1.1701739
1.1698835
1.169547
1.1691973
1.168858
1.168528
1.16823
1.1679186
1.1675826
1.1673682
1.1672853
1.1675145
1.1677029
1.1677864
1.1673543
1.166887
1.1666054
1.1664707
1.166419
1.1664033
1.1604336
1.160174
1.1602615
1.1608735
1.1625991
1.1647788
1.1649092
1.1649957
1.1649694
1.1650641
1.1651138
1.1652474
1.1653779
1.165578
1.1658017
1.1660924
1.1664251
1.1668238
1.1672727
1.1677777
1.1683197
1.1688832
1.1694354
1.1699409
1.17036
1.1706621
1.1708227
1.1708429
1.1707425
1.1705479
1.1702854
1.1699683
1.1696093
1.1692414
1.1688885
1.1685491
1.1682433
1.167925
1.1675925
1.1673813
1.1673
1.1675263
1.1677115
1.1677962
1.1673608
1.166892
1.1666081
1.1664717
1.1664193
1.1664034
1.1607098
1.1604509
1.160546
1.1611873
1.1630628
1.1650831
1.1651308
1.1652233
1.1652002
1.1653009
1.1653558
1.1654964
1.1656346
1.1658439
1.1660778
1.16638
1.1667253
1.1671372
1.1675997
1.1681172
1.1686693
1.1692385
1.1697895
1.1702849
1.1706845
1.1709573
1.1710797
1.1710608
1.1709207
1.1706899
1.1703959
1.1700518
1.16967
1.1692839
1.1689173
1.1685688
1.1682551
1.1679301
1.167601
1.1673935
1.1673142
1.1675395
1.1677215
1.1678067
1.1673669
1.1668953
1.1666095
1.1664722
1.1664194
1.1664035
1.1610053
1.1607477
1.1608516
1.1615213
1.1635456
1.1653811
1.1653658
1.1654638
1.165444
1.1655507
1.1656113
1.1657596
1.165906
1.1661251
1.1663699
1.1666841
1.1670426
1.1674682
1.1679445
1.1684746
1.1690366
1.1696104
1.1701586
1.1706415
1.171019
1.1712586
1.1713408
1.1712802
1.1710989
1.170831
1.1705048
1.1701334
1.1697288
1.1693246
1.1689445
1.1685868
1.1682653
1.1679338
1.1676078
1.1674047
1.1673281
1.1675541
1.1677331
1.167818
1.167372
1.1668969
1.1666102
1.1664725
1.1664195
1.1664036
1.1613106
1.1610556
1.161171
1.161871
1.1640354
1.1656705
1.1656114
1.1657158
1.1657004
1.165814
1.165881
1.1660376
1.1661928
1.1664222
1.1666785
1.1670053
1.1673775
1.1678173
1.1683078
1.1688503
1.1694217
1.1699992
1.1705426
1.1710106
1.1713629
1.1715651
1.1716051
1.1715001
1.1712763
1.1709704
1.1706117
1.1702129
1.1697854
1.1693631
1.1689699
1.168603
1.1682738
1.1679352
1.1676132
1.1674149
1.1673415
1.1675702
1.1677465
1.1678301
1.1673749
1.1668977
1.1666105
1.1664727
1.1664196
1.1664036
1.1616299
1.1613793
1.1615101
1.162247
1.1645334
1.1659597
1.1658721
1.1659832
1.1659722
1.1660929
1.1661665
1.1663316
1.1664959
1.166736
1.1670042
1.1673441
1.1677305
1.1681849
1.1686898
1.1692448
1.169825
1.1704047
1.1709413
1.1713917
1.1717151
1.171876
1.1718717
1.1717198
1.1714521
1.1711076
1.1707162
1.1702898
1.1698395
1.1693995
1.1689933
1.1686174
1.1682808
1.1679351
1.1676166
1.1674241
1.1673547
1.1675879
1.1677614
1.1678428
1.1673761
1.1668974
1.1666101
1.1664725
1.1664196
1.1664036
1.1619712
1.1617236
1.1618732
1.1626561
1.1650357
1.1662612
1.1661501
1.166267
1.1662603
1.1663879
1.1664681
1.1666419
1.1668157
1.1670669
1.1673475
1.167701
1.1681022
1.1685715
1.169091
1.1696583
1.1702466
1.170827
1.1713543
1.1717844
1.1720743
1.172191
1.1721393
1.1719384
1.1716256
1.171242
1.1708177
1.1703638
1.1698909
1.1694334
1.1690146
1.1686299
1.168286
1.1679334
1.1676178
1.1674321
1.1673677
1.1676075
1.1677781
1.1678559
1.1673764
1.1668959
1.166609
1.1664719
1.1664194
1.1664036
1.1623257
1.16208
1.1622526
1.1630964
1.1655329
1.1665555
1.1664427
1.166566
1.1665639
1.1666988
1.1667861
1.1669689
1.1671527
1.1674153
1.1677089
1.1680765
1.1684929
1.1689777
1.169512
1.1700913
1.1706867
1.171266
1.1717813
1.1721878
1.1724394
1.1725093
1.1724067
1.172155
1.1717961
1.171373
1.1709158
1.1704346
1.1699393
1.1694647
1.1690336
1.1686405
1.1682888
1.1679299
1.1676176
1.1674391
1.1673807
1.167629
1.1677969
1.1678694
1.1673752
1.1668931
1.1666071
1.1664711
1.1664191
1.1664036
1.1627
1.1624533
1.1626517
1.1635751
1.1660231
1.1668587
1.1667511
1.1668809
1.1668836
1.1670261
1.1671207
1.167313
1.1675071
1.1677818
1.1680889
1.1684711
1.1689034
1.1694039
1.1699531
1.1705441
1.1711455
1.1717214
1.172222
1.1726009
1.1728093
1.1728297
1.1726729
1.1723686
1.1719628
1.1715001
1.1710101
1.1705017
1.1699844
1.1694932
1.1690501
1.1686492
1.1682895
1.1679246
1.1676156
1.1674451
1.167394
1.1676523
1.167818
1.1678832
1.1673722
1.1668889
1.1666044
1.1664699
1.1664188
1.1664035
1.1630915
1.1628415
1.1630657
1.1640916
1.1665069
1.1671831
1.1670751
1.1672116
1.1672195
1.1673699
1.1674724
1.1676744
1.1678795
1.1681666
1.1684879
1.1688853
1.1693341
1.1698508
1.1704149
1.1710171
1.1716229
1.1721931
1.1726758
1.1730224
1.1731831
1.1731508
1.1729368
1.1725784
1.1721251
1.1716227
1.1711001
1.1705649
1.1700261
1.1695187
1.1690643
1.1686555
1.1682885
1.1679177
1.1676119
1.1674498
1.1674079
1.1676776
1.1678417
1.167897
1.1673672
1.1668834
1.166601
1.1664684
1.1664183
1.1664034
1.1635022
1.1632475
1.1634947
1.1646478
1.166984
1.1675235
1.1674156
1.167559
1.1675721
1.1677306
1.1678412
1.1680534
1.1682699
1.1685702
1.1689063
1.1693197
1.1697856
1.1703188
1.1708978
1.1715103
1.172119
1.1726807
1.1731421
1.1734505
1.1735604
1.1734709
1.1731973
1.1727833
1.1722821
1.1717403
1.1711855
1.1706239
1.1700642
1.1695412
1.169076
1.1686586
1.1682853
1.1679091
1.1676067
1.1674525
1.1674227
1.167705
1.1678682
1.1679105
1.1673601
1.1668765
1.1665969
1.1664666
1.1664177
1.1664033
1.1639325
1.1636699
1.1639381
1.1652432
1.1674524
1.1678772
1.1677712
1.1679217
1.1679404
1.1681074
1.1682268
1.1684498
1.1686788
1.1689929
1.1693448
1.1697749
1.1702585
1.1708085
1.1714023
1.1720242
1.1726335
1.1731837
1.1736196
1.1738842
1.1739397
1.1737888
1.1734532
1.1729826
1.1724333
1.1718524
1.1712658
1.1706783
1.1700983
1.1695605
1.1690852
1.1686594
1.1682799
1.1678989
1.1676002
1.1674538
1.1674386
1.1677343
1.1678977
1.167923
1.1673506
1.1668682
1.1665922
1.1664646
1.166417
1.1664032
1.1643763
1.1641054
1.1643911
1.1658682
1.1679059
1.1682439
1.168141
1.1682993
1.1683243
1.1685006
1.1686296
1.1688644
1.1691067
1.1694357
1.1698042
1.1702517
1.1707535
1.1713207
1.1719288
1.1725589
1.1731664
1.1737017
1.1741072
1.174322
1.1743194
1.174103
1.1737033
1.1731751
1.172578
1.1719584
1.1713407
1.1707281
1.1701285
1.1695765
1.1690909
1.1686579
1.1682722
1.167887
1.1675926
1.1674535
1.1674561
1.1677656
1.1679305
1.1679334
1.1673388
1.1668586
1.1665868
1.1664623
1.1664163
1.166403
1.1648414
1.1645614
1.1648613
1.1665217
1.1683536
1.1686253
1.1685259
1.1686927
1.1687249
1.1689114
1.1690511
1.1692985
1.169555
1.1698995
1.1702854
1.170751
1.1712715
1.1718558
1.1724778
1.1731143
1.1737173
1.1742341
1.174603
1.1747631
1.1746976
1.1744123
1.1739464
1.1733602
1.1727155
1.1720581
1.1714098
1.1707728
1.1701546
1.1695894
1.169093
1.1686537
1.1682623
1.1678734
1.167584
1.1674517
1.1674754
1.1677991
1.1679666
1.1679405
1.1673246
1.1668477
1.1665808
1.1664598
1.1664155
1.1664028
1.1653188
1.1650319
1.1653458
1.1671949
1.1687911
1.1690227
1.1689282
1.1691046
1.1691448
1.169342
1.169493
1.1697533
1.1700246
1.1703853
1.1707893
1.1712735
1.1718131
1.1724145
1.1730495
1.1736905
1.1742858
1.1747797
1.1751051
1.1752062
1.1750724
1.174715
1.1741814
1.173537
1.1728453
1.1721509
1.1714729
1.1708124
1.1701764
1.1695991
1.1690927
1.1686466
1.1682499
1.167858
1.1675742
1.167449
1.1674966
1.1678352
1.1680054
1.167944
1.167308
1.1668355
1.1665743
1.1664571
1.1664146
1.1664026
1.1658242
1.165531
1.165862
1.1678912
1.169237
1.1694442
1.1693533
1.1695383
1.169586
1.1697937
1.169956
1.1702297
1.1705164
1.1708938
1.1713165
1.1718199
1.172379
1.1729974
1.1736442
1.1742874
1.1748714
1.1753373
1.1756119
1.1756495
1.1754421
1.1750096
1.1744072
1.1737047
1.172967
1.1722365
1.1715298
1.1708465
1.1701941
1.1696043
1.1690891
1.1686367
1.1682351
1.1678409
1.1675632
1.1674456
1.16752
1.1678741
1.1680463
1.167945
1.1672892
1.1668222
1.1665673
1.1664543
1.1664137
1.1664024
1.1663491
1.1660513
1.1664062
1.1685976
1.169684
1.1698843
1.1697974
1.1699916
1.1700475
1.1702661
1.1704405
1.170728
1.1710309
1.1714258
1.171868
1.1723912
1.17297
1.1736049
1.1742622
1.1749047
1.1754736
1.1759048
1.1761219
1.1760908
1.1758048
1.1752948
1.1746226
1.1738626
1.1730799
1.1723146
1.1715802
1.1708752
1.1702078
1.1696057
1.1690823
1.1686238
1.1682178
1.1678221
1.1675513
1.1674419
1.167546
1.167916
1.168089
1.1679425
1.1672683
1.1668078
1.1665599
1.1664514
1.1664128
1.1664021
1.1668914
1.1665907
1.1669822
1.1693041
1.1701215
1.170344
1.1702615
1.1704652
1.1705298
1.1707598
1.170947
1.171249
1.1715689
1.171982
1.1724445
1.1729881
1.1735868
1.1742377
1.1749036
1.1755422
1.1760912
1.1764801
1.1766339
1.1765277
1.1761589
1.175569
1.1748268
1.17401
1.1731839
1.172385
1.1716237
1.1708984
1.1702169
1.169604
1.1690721
1.1686078
1.1681977
1.1678018
1.1675391
1.167438
1.1675744
1.1679608
1.1681334
1.1679333
1.1672455
1.1667925
1.1665522
1.1664484
1.1664119
1.1664019
1.1674563
1.167153
1.1675992
1.170012
1.1706068
1.1708238
1.1707457
1.1709593
1.1710331
1.1712752
1.171476
1.1717933
1.1721312
1.1725634
1.1730471
1.1736115
1.1742301
1.174896
1.1755682
1.1761992
1.1767228
1.177061
1.177146
1.1769578
1.1765023
1.1758309
1.1750187
1.1741465
1.1732784
1.1724474
1.1716604
1.1709166
1.1702204
1.1695985
1.1690584
1.1685886
1.1681746
1.1677804
1.1675274
1.1674348
1.1676051
1.1680086
1.1681793
1.167917
1.1672211
1.1667762
1.1665443
1.1664454
1.166411
1.1664017
1.1680411
1.1677328
1.1682565
1.1707108
1.1710946
1.1713226
1.1712498
1.1714741
1.1715581
1.171813
1.1720284
1.1723619
1.1727187
1.1731709
1.1736765
1.1742623
1.1749007
1.1755804
1.176256
1.176875
1.1773667
1.1776453
1.1776556
1.1773789
1.1768333
1.1760791
1.1751975
1.1742714
1.1733633
1.1725015
1.1716903
1.1709293
1.1702203
1.1695893
1.1690413
1.168566
1.1681478
1.1677583
1.1675165
1.1674331
1.1676405
1.1680586
1.1682262
1.1678936
1.1671948
1.1667592
1.1665362
1.1664424
1.1664101
1.1664014
1.1686479
1.168331
1.1689597
1.1714083
1.1716055
1.1718429
1.1717758
1.1720113
1.172106
1.1723743
1.1726051
1.1729557
1.1733324
1.1738056
1.174334
1.1749415
1.1755993
1.176291
1.1769667
1.177569
1.1780202
1.1782312
1.1781598
1.1777888
1.17715
1.1763123
1.1753625
1.1743846
1.1734383
1.1725473
1.171714
1.1709349
1.1702159
1.1695763
1.1690206
1.1685399
1.1681169
1.1677358
1.1675075
1.167433
1.1676811
1.16811
1.1682739
1.1678634
1.1671664
1.1667416
1.1665281
1.1664394
1.1664092
1.1664012
1.1692808
1.1689473
1.1697084
1.1720937
1.1721359
1.1723852
1.1723241
1.1725711
1.1726773
1.1729596
1.173207
1.1735756
1.1739736
1.1744687
1.1750206
1.1756501
1.1763264
1.1770278
1.1776997
1.1782794
1.1786802
1.1788174
1.1786554
1.1781851
1.1774507
1.1765295
1.175513
1.1744855
1.1735031
1.172585
1.171731
1.1709355
1.1702071
1.1695595
1.1689963
1.1685099
1.1680815
1.1677125
1.1675011
1.1674376
1.1677266
1.1681606
1.1683219
1.1678271
1.1671358
1.1667236
1.1665199
1.1664364
1.1664083
1.166401
1.1699403
1.16958
1.1704951
1.1727658
1.172688
1.1729491
1.1728945
1.1731537
1.1732725
1.1735701
1.1738355
1.1742234
1.1746437
1.1751616
1.1757377
1.176389
1.1770827
1.177791
1.1784545
1.1790043
1.1793445
1.1794003
1.1791396
1.1785655
1.1777337
1.1767297
1.1756486
1.174574
1.1735577
1.172615
1.1717394
1.170931
1.170194
1.1695389
1.1689684
1.1684758
1.1680416
1.1676881
1.1674973
1.1674495
1.1677793
1.1682078
1.1683673
1.1677847
1.1671034
1.1667053
1.1665119
1.1664336
1.1664075
1.1664008
1.1706311
1.1702302
1.1713143
1.1734253
1.1732608
1.1735346
1.173488
1.1737608
1.1738939
1.1742079
1.1744925
1.1749007
1.1753444
1.1758859
1.1764865
1.1771592
1.1778685
1.1785801
1.1792299
1.179741
1.1800102
1.1799768
1.1796097
1.1789277
1.1779974
1.176912
1.1757689
1.1746498
1.1736026
1.1726371
1.1717412
1.170921
1.1701766
1.1695145
1.1689368
1.1684375
1.1679974
1.1676623
1.1674947
1.1674704
1.1678415
1.1682491
1.1684066
1.1677371
1.1670698
1.1666871
1.166504
1.1664309
1.1664068
1.1664006
1.1713528
1.1709
1.1721609
1.1740774
1.1738588
1.1741467
1.1741091
1.1743964
1.1745446
1.1748755
1.1751802
1.1756093
1.1760771
1.1766427
1.177268
1.1779615
1.1786839
1.1793949
1.1800246
1.1804859
1.1806754
1.1805427
1.1800627
1.1792694
1.1782405
1.1770756
1.1758735
1.174713
1.1736381
1.1726492
1.1717369
1.1709059
1.1701551
1.1694863
1.1689015
1.1683947
1.1679498
1.1676359
1.1674908
1.1675048
1.1679151
1.1682843
1.1684358
1.1676852
1.1670353
1.166669
1.1664964
1.1664283
1.166406
1.1664004
1.1721183
1.1716029
1.1730379
1.1747428
1.1744892
1.1747904
1.1747613
1.1750626
1.1752261
1.1755741
1.1758997
1.1763504
1.1768432
1.1774334
1.1780833
1.1787963
1.1795291
1.1802344
1.1808362
1.1812356
1.1813369
1.1810946
1.1804956
1.1795886
1.1784619
1.1772201
1.175962
1.1747641
1.173664
1.172653
1.171726
1.1708857
1.1701294
1.1694542
1.1688623
1.1683468
1.1678998
1.1676089
1.1674849
1.1675547
1.1679995
1.1683183
1.1684486
1.1676303
1.1670006
1.1666512
1.1664891
1.1664258
1.1664054
1.1664003
1.172928
1.1723455
1.173938
1.1754201
1.1751482
1.175463
1.1754429
1.1757586
1.1759385
1.1763044
1.176652
1.1771253
1.177644
1.1782593
1.1789335
1.1796643
1.1804037
1.1810976
1.1816618
1.1819867
1.1819903
1.1816286
1.1809055
1.1798835
1.1786605
1.1773449
1.1760349
1.1748038
1.1736781
1.17265
1.1717088
1.1708605
1.1700996
1.1694184
1.168819
1.1682933
1.1678486
1.1675803
1.167477
1.1676214
1.1680906
1.1683602
1.1684538
1.1675742
1.166966
1.1666338
1.1664821
1.1664235
1.1664048
1.1664001
1.1737761
1.1731309
1.1748469
1.1761278
1.1758354
1.1761644
1.1761546
1.1764855
1.1766831
1.1770679
1.1774388
1.1779355
1.1784809
1.1791216
1.1798195
1.1805658
1.1813074
1.1819828
1.1824975
1.1827361
1.1826311
1.1821413
1.1812897
1.1801523
1.1788354
1.1774497
1.176093
1.1748312
1.1736825
1.172639
1.1716855
1.1708305
1.1700658
1.1693789
1.1687715
1.1682343
1.1677966
1.16755
1.1674677
1.1676986
1.1681836
1.168418
1.1684321
1.1675184
1.1669316
1.166617
1.1664754
1.1664214
1.1664042
1.1664
1.1746576
1.1739624
1.1757606
1.1768539
1.1765525
1.1768965
1.176898
1.177245
1.1774615
1.1778662
1.1782615
1.1787826
1.1793555
1.1800217
1.1807422
1.1815009
1.1822394
1.1828876
1.1833383
1.1834809
1.183254
1.1826289
1.1816457
1.1803936
1.1789858
1.177535
1.1761366
1.1748441
1.1736787
1.1726208
1.1716564
1.170796
1.1700281
1.1693355
1.1687196
1.1681704
1.1677439
1.1675195
1.1674577
1.1677794
1.1682731
1.1684916
1.1683819
1.1674633
1.1668975
1.1666008
1.1664692
1.1664194
1.1664037
1.1663999
1.1755745
1.1748453
1.1766755
1.1776058
1.1773017
1.1776613
1.1776752
1.1780389
1.1782755
1.1787008
1.1791218
1.1796683
1.1802693
1.180961
1.1817022
1.1824694
1.1831981
1.1838086
1.1841803
1.1842155
1.1838548
1.1830877
1.181971
1.1806061
1.1791117
1.1776017
1.1761635
1.1748465
1.1736656
1.1725955
1.1716217
1.1707569
1.1699864
1.1692883
1.1686631
1.1681023
1.1676905
1.1674897
1.1674503
1.1678645
1.1683629
1.1685704
1.1683126
1.1674069
1.1668641
1.1665855
1.1664634
1.1664176
1.1664032
1.1663998
1.1765242
1.1757833
1.1775972
1.1783879
1.1780851
1.1784604
1.1784872
1.1788682
1.1791262
1.1795733
1.1800215
1.1805944
1.1812242
1.1819406
1.1827
1.1834708
1.1841819
1.184741
1.185019
1.1849341
1.1844287
1.1835142
1.1822636
1.1807888
1.1792132
1.1776498
1.1761736
1.1748381
1.1736439
1.1725634
1.1715817
1.1707137
1.1699408
1.1692372
1.1686018
1.1680312
1.1676372
1.1674599
1.1674488
1.1679522
1.1684541
1.1686501
1.1682309
1.1673489
1.1668316
1.1665709
1.166458
1.1664159
1.1664028
1.1663997
1.1775034
1.1767738
1.1785266
1.1792008
1.1789017
1.1792934
1.1793345
1.1797339
1.1800155
1.1804859
1.1809631
1.1815635
1.1822221
1.1829619
1.1837358
1.1845041
1.1851876
1.1856786
1.1858512
1.1856304
1.1849712
1.1839054
1.1825216
1.1809413
1.1792914
1.1776762
1.1761715
1.1748189
1.173614
1.1725248
1.1715368
1.1706663
1.1698913
1.1691819
1.1685349
1.1679585
1.1675853
1.167429
1.1674521
1.1680394
1.1685427
1.1687258
1.1681416
1.1672905
1.1668006
1.1665573
1.166453
1.1664144
1.1664024
1.1663996
1.1785139
1.1778172
1.1794516
1.1800453
1.1797519
1.1801619
1.1802199
1.1806396
1.1809472
1.1814423
1.1819496
1.1825778
1.1832647
1.1840255
1.1848094
1.1855675
1.186211
1.1866163
1.1866698
1.1862986
1.1854775
1.1842581
1.1827437
1.1810638
1.1793459
1.1776836
1.1761554
1.1747895
1.1735762
1.1724803
1.1714873
1.1706149
1.169838
1.1691221
1.1684615
1.1678858
1.1675354
1.1673966
1.1674667
1.1681229
1.1686206
1.1687871
1.1680476
1.1672331
1.1667711
1.1665446
1.1664484
1.1664131
1.1664021
1.1663995
1.1795603
1.1789081
1.180366
1.1809269
1.180642
1.1810726
1.1811497
1.1815904
1.1819254
1.1824456
1.1829835
1.1836393
1.1843532
1.1851319
1.1859198
1.1866585
1.1872465
1.1875485
1.1874678
1.1869328
1.1859434
1.1845697
1.1829289
1.1811573
1.1793729
1.1776749
1.1761263
1.1747503
1.1735309
1.1724302
1.1714335
1.1705598
1.1697807
1.1690574
1.1683812
1.1678138
1.1674876
1.1673661
1.1675003
1.168202
1.1686784
1.1688295
1.1679529
1.1671778
1.1667432
1.1665328
1.1664442
1.1664118
1.1664018
1.1663994
1.1806566
1.1800524
1.1812982
1.1818609
1.1815829
1.1820321
1.1821285
1.1825895
1.1829525
1.1834979
1.1840668
1.1847498
1.1854886
1.1862809
1.1870656
1.1877733
1.188286
1.1884704
1.1882368
1.1875272
1.1863647
1.1848383
1.1830776
1.1812204
1.1793776
1.1776487
1.1760848
1.1747019
1.1734787
1.172375
1.1713757
1.170501
1.1697194
1.168987
1.1682941
1.167742
1.1674426
1.1673431
1.167563
1.1682772
1.1687133
1.1688444
1.1678613
1.167125
1.1667169
1.166522
1.1664404
1.1664107
1.1664015
1.1663994
1.1817971
1.1812465
1.1823256
1.1828401
1.1825707
1.1830391
1.1831563
1.1836379
1.1840303
1.1846014
1.1852014
1.1859107
1.1866715
1.1874719
1.1882444
1.1889062
1.189323
1.1893734
1.1889697
1.1880758
1.1867378
1.1850626
1.1831902
1.1812499
1.1793614
1.1776065
1.1760315
1.1746448
1.1734201
1.1723151
1.1713143
1.1704386
1.1696541
1.1689102
1.1682009
1.1676704
1.167402
1.167331
1.1676661
1.1683586
1.1687312
1.1688442
1.167775
1.1670745
1.1666923
1.166512
1.166437
1.1664097
1.1664013
1.1663993
1.1829874
1.1824859
1.1833551
1.183869
1.1836083
1.1840955
1.1842351
1.1847374
1.1851607
1.1857581
1.1863893
1.1871231
1.187902
1.1887035
1.1894524
1.1900499
1.1903502
1.1902484
1.1896588
1.1885731
1.1870597
1.1852424
1.1832649
1.1812523
1.1793234
1.177549
1.1759672
1.1745796
1.1733556
1.1722509
1.1712496
1.1703729
1.1695842
1.1688263
1.1681027
1.1675996
1.1673655
1.1673282
1.1678015
1.1684627
1.1687588
1.1687866
1.1676933
1.167026
1.1666694
1.1665028
1.1664338
1.1664088
1.1664011
1.1663993
1.1842231
1.1837649
1.1844186
1.1849465
1.1846961
1.1852026
1.1853672
1.1858908
1.1863467
1.1869709
1.1876323
1.1883881
1.1891796
1.1899734
1.1906844
1.1911942
1.1913611
1.1910848
1.1902966
1.1890142
1.1873286
1.1853778
1.1832984
1.1812279
1.1792654
1.177477
1.1758925
1.174507
1.1732857
1.1721829
1.1711819
1.1703037
1.1695095
1.1687339
1.1680015
1.1675299
1.1673303
1.1673396
1.1679536
1.168576
1.1688259
1.1686833
1.1676118
1.1669798
1.1666483
1.1664944
1.166431
1.166408
1.1664009
1.1663992
1.1855026
1.1850703
1.1855266
1.1860758
1.185838
1.1863646
1.1865577
1.1871025
1.1875914
1.188242
1.1889321
1.1897058
1.1905029
1.1912777
1.1919325
1.1923306
1.1923441
1.1918734
1.1908758
1.189395
1.1875436
1.1854662
1.1832987
1.1811765
1.1791883
1.1773915
1.1758083
1.1744275
1.1732109
1.1721117
1.1711116
1.1702312
1.169429
1.1686315
1.1679004
1.1674621
1.1672887
1.1673722
1.1681108
1.1686951
1.1689144
1.1685564
1.1675306
1.1669366
1.1666288
1.1664868
1.1664284
1.1664072
1.1664007
1.1663992
1.1868294
1.1864059
1.1866842
1.1872608
1.1870377
1.1875844
1.1878101
1.1883764
1.1888978
1.1895731
1.1902892
1.1910757
1.1918693
1.1926109
1.1931864
1.1934498
1.1932872
1.1926044
1.1913895
1.1897126
1.1877042
1.1855045
1.1832652
1.1811003
1.1790934
1.1772935
1.1757151
1.1743416
1.1731319
1.1720378
1.171039
1.1701553
1.169342
1.168519
1.1677996
1.167394
1.1672431
1.1674252
1.1682629
1.1688124
1.1690039
1.1684217
1.1674522
1.1668965
1.166611
1.1664799
1.1664261
1.1664066
1.1664006
1.1663991
1.188213
1.1877999
1.1878974
1.1885051
1.1883
1.1888631
1.1891236
1.1897132
1.1902674
1.1909655
1.1917037
1.1924963
1.1932749
1.193965
1.1944334
1.1945417
1.1941771
1.1932682
1.1918323
1.1899651
1.1878069
1.1855021
1.1831984
1.1810003
1.1789818
1.1771838
1.1756138
1.1742501
1.1730493
1.1719615
1.1709644
1.1700759
1.1692474
1.1683977
1.1676982
1.1673244
1.1671981
1.167497
1.1683917
1.1689123
1.1690762
1.168289
1.1673787
1.1668595
1.1665946
1.1664737
1.166424
1.166406
1.1664004
1.1663991
1.1896589
1.1892376
1.189181
1.189818
1.1896364
1.190209
1.1904994
1.1911115
1.1917012
1.1924207
1.1931757
1.1939651
1.1947136
1.1953286
1.1956625
1.1955905
1.195002
1.1938561
1.1921999
1.190151
1.1878494
1.1854573
1.1831007
1.1808782
1.1788548
1.1770633
1.1755049
1.1741534
1.1729634
1.1718835
1.1708881
1.1699928
1.1691443
1.1682685
1.1675956
1.1672545
1.1671555
1.1675876
1.168483
1.1689741
1.1691171
1.1681641
1.1673106
1.1668253
1.1665797
1.166468
1.1664222
1.1664055
1.1664003
1.1663991
1.1911737
1.1907299
1.1905392
1.1912015
1.1910461
1.1916293
1.191951
1.1925804
1.1932026
1.1939401
1.1947037
1.1954775
1.1961762
1.1966864
1.1968611
1.1965801
1.1957493
1.1943603
1.192489
1.1902657
1.1878414
1.1853715
1.1829736
1.1807356
1.1787136
1.1769329
1.175389
1.1740522
1.172875
1.1718041
1.1708102
1.1699056
1.1690317
1.1681325
1.1674924
1.1671869
1.1671165
1.1676953
1.1685445
1.1689984
1.1691374
1.16805
1.1672473
1.1667935
1.1665661
1.1664629
1.1664205
1.166405
1.1664002
1.1663991
1.192752
1.1922602
1.191967
1.1926531
1.1925293
1.1931184
1.1934782
1.1941247
1.1947745
1.1955228
1.1962841
1.1970256
1.1976496
1.1980234
1.1980117
1.1974947
1.1964077
1.1947748
1.1926967
1.1903089
1.1877808
1.1852474
1.1828192
1.180574
1.1785593
1.1767933
1.1752669
1.173947
1.1727846
1.1717238
1.1707309
1.1698136
1.1689084
1.167992
1.1673893
1.167123
1.1670963
1.1678242
1.1686007
1.1689957
1.1691261
1.1679468
1.1671875
1.1667644
1.1665538
1.1664582
1.166419
1.1664046
1.1664001
1.166399
1.1944164
1.1938227
1.1934672
1.1941706
1.1940865
1.1946852
1.1950823
1.1957438
1.1964159
1.1971657
1.1979099
1.198598
1.1991158
1.1993233
1.1990939
1.1983185
1.196967
1.1950944
1.1928171
1.1902896
1.1876699
1.1850872
1.1826396
1.1803951
1.178393
1.1766455
1.1751389
1.1738382
1.1726926
1.1716429
1.1706502
1.1697158
1.1687727
1.1678509
1.1672885
1.1670587
1.1670944
1.1679706
1.1686803
1.1689804
1.1690385
1.1678494
1.1671311
1.1667377
1.1665426
1.1664541
1.1664176
1.1664042
1.1664
1.166399
1.1961755
1.1954295
1.1950575
1.1957682
1.1957348
1.1963381
1.1967672
1.1974374
1.1981234
1.1988627
1.1995708
1.2001783
1.2005541
1.2005661
1.2000872
1.199037
1.1974189
1.1953149
1.1928531
1.1902051
1.1875119
1.1848934
1.1824368
1.1802003
1.1782157
1.1764898
1.1750057
1.1737263
1.1725995
1.1715617
1.1705678
1.1696106
1.1686237
1.1677132
1.1671914
1.1669892
1.1671194
1.1681221
1.1687744
1.1690231
1.1688988
1.167753
1.1670788
1.1667135
1.1665325
1.1664503
1.1664163
1.1664038
1.1663999
1.166399
1.1980153
1.1971011
1.1967467
1.1974477
1.1974763
1.1980807
1.1985384
1.1992058
1.1998909
1.2006032
1.2012511
1.2017442
1.2019441
1.2017259
1.2009721
1.1996368
1.1977557
1.1954283
1.1928112
1.1900592
1.1873095
1.1846687
1.1822128
1.179991
1.1780284
1.176327
1.1748676
1.1736118
1.1725056
1.1714803
1.1704832
1.1694965
1.1684639
1.1675782
1.1670963
1.1669209
1.1671812
1.168268
1.1688821
1.1691042
1.1687401
1.1676604
1.1670312
1.1666915
1.1665233
1.1664468
1.1664152
1.1664035
1.1663998
1.166399
1.1999335
1.1988247
1.1985411
1.199245
1.1992976
1.199894
1.2003782
1.2010376
1.2017075
1.2023721
1.2029297
1.2032692
1.2032605
1.2027769
1.2017297
1.2001062
1.1979696
1.1954426
1.1926894
1.1898555
1.1870661
1.1844157
1.1819695
1.1797685
1.1778318
1.1761576
1.174725
1.173495
1.1724115
1.1713987
1.1703956
1.1693718
1.1682956
1.1674455
1.1670045
1.1668591
1.1672739
1.1684028
1.1689961
1.1691901
1.1685828
1.167575
1.1669879
1.1666714
1.1665149
1.1664437
1.1664142
1.1664032
1.1663998
1.1663989
1.2019308
1.2006586
1.2004172
1.2011008
1.2012175
1.2017982
1.2022901
1.2029257
1.2035587
1.2041478
1.2045773
1.2047264
1.2044706
1.2036946
1.2023427
1.2004348
1.1980558
1.1953592
1.1924929
1.1895977
1.1867851
1.184137
1.1817088
1.1795341
1.1776267
1.175982
1.1745783
1.1733762
1.1723172
1.1713167
1.1703036
1.1692344
1.1681208
1.167316
1.1669184
1.1668045
1.1673865
1.1685127
1.1690884
1.1692533
1.1684377
1.1674976
1.1669482
1.166653
1.1665074
1.1664409
1.1664133
1.166403
1.1663997
1.1663989
1.2039877
1.2025552
1.2023911
1.2030433
1.2032073
1.2037695
1.2042584
1.2048524
1.2054222
1.2059012
1.2061597
1.2060819
1.2055425
1.2044548
1.2027952
1.200611
1.1980234
1.1951794
1.1922262
1.1892902
1.1864698
1.183835
1.1814323
1.1792887
1.1774137
1.1758004
1.1744275
1.1732556
1.1722229
1.1712339
1.1702054
1.1690817
1.1679422
1.1671904
1.1668405
1.1667621
1.1675053
1.1685747
1.169134
1.1692895
1.1683069
1.1674268
1.1669115
1.1666364
1.1665006