/*--------------------------------*- C++ -*----------------------------------*\
| =========                 |                                                 |
| \\      /  F ield         | OpenFOAM: The Open Source CFD Toolbox           |
|  \\    /   O peration     | Version:  2306                                  |
|   \\  /    A nd           | Website:  www.openfoam.com                      |
|    \\/     M anipulation  |                                                 |
\*---------------------------------------------------------------------------*/
FoamFile
{
    version     2.0;
    format      ascii;
    arch        "LSB;label=32;scalar=64";
    class       volScalarField;
    location    "175";
    object      nut;
}
// * * * * * * * * * * * * * * * * * * * * * * * * * * * * * * * * * * * * * //

dimensions      [0 2 -1 0 0 0 0];

internalField   nonuniform List<scalar> 
1340
(
2.49814e-05
2.86059e-05
3.34602e-05
3.9757e-05
4.78859e-05
5.83762e-05
7.19458e-05
8.89608e-05
0.000110427
0.000137375
0.000171598
0.000216333
0.000275752
0.000357636
0.00047485
0.000649766
0.00092155
0.0013645
0.00213119
0.00352455
0.0064092
0.0125039
0.0295915
0.072324
0.0958728
0.0988591
0.0992174
0.101756
0.104811
0.106444
0.106253
0.104707
0.102095
0.0985063
0.0938056
2.18537e-05
1.9155e-05
1.65069e-05
1.40846e-05
1.18102e-05
9.71467e-06
7.87636e-06
5.10643e-06
5.00231e-06
4.90814e-06
4.82955e-06
4.7393e-06
4.6559e-06
4.59313e-06
4.53707e-06
4.51113e-06
4.52276e-06
4.55604e-06
4.75315e-06
5.6349e-06
8.04742e-06
1.4741e-05
3.28893e-05
7.56523e-05
0.000151896
0.000286774
0.000554553
0.00115059
0.00262726
0.00601984
0.0174696
0.0347116
0.0562393
0.0827267
0.111944
0.137388
0.153196
0.159658
0.160784
0.159426
0.156415
0.152283
5.18944e-06
5.30219e-06
5.39902e-06
5.52997e-06
5.66467e-06
5.80261e-06
6.24019e-06
6.2574e-06
6.27542e-06
6.29479e-06
6.31836e-06
6.34455e-06
6.37428e-06
6.40888e-06
6.4495e-06
6.49686e-06
6.55309e-06
6.62128e-06
6.69989e-06
6.82155e-06
6.88193e-06
6.57437e-06
4.90272e-06
3.37968e-06
7.92995e-09
3.96617e-06
5.59985e-06
3.03164e-05
2.01135e-06
0.000241068
0.00189378
0.00536043
0.0117375
0.0241288
0.0459773
0.0777751
0.114237
0.146329
0.168315
0.181201
0.188457
6.2275e-06
6.20906e-06
6.19507e-06
6.17449e-06
6.15688e-06
6.1375e-06
6.07298e-06
6.07154e-06
6.07162e-06
6.07238e-06
6.07348e-06
6.0762e-06
6.08107e-06
6.08774e-06
6.09769e-06
6.11115e-06
6.12895e-06
6.15224e-06
6.18252e-06
6.22092e-06
6.27138e-06
6.33548e-06
6.22026e-06
6.00206e-06
4.39419e-06
2.70361e-06
3.05458e-10
3.67521e-07
6.36135e-09
1.35032e-05
0.000393444
0.0011671
0.000698146
0.000987039
0.00236785
0.0091238
0.0257867
0.0560029
0.0968259
0.137991
0.17079
6.07279e-06
6.07504e-06
6.07722e-06
6.07958e-06
6.08387e-06
6.09807e-06
6.09865e-06
6.09863e-06
6.09916e-06
6.10033e-06
6.10188e-06
6.10409e-06
6.10717e-06
6.1113e-06
6.11684e-06
6.12417e-06
6.13385e-06
6.14662e-06
6.16314e-06
6.18515e-06
6.21272e-06
6.25447e-06
6.27053e-06
6.29966e-06
6.08247e-06
4.10772e-06
2.24985e-06
1.57934e-09
3.77599e-09
2.94132e-15
0
0.000135173
0.000207056
0.000520376
0.00205294
0.000550902
0.00451894
0.0192701
0.0511006
0.0979043
6.09709e-06
6.09551e-06
6.09554e-06
6.09391e-06
6.0948e-06
6.09298e-06
6.09256e-06
6.09281e-06
6.09302e-06
6.09299e-06
6.09327e-06
6.09377e-06
6.09451e-06
6.09576e-06
6.09756e-06
6.10005e-06
6.1035e-06
6.10815e-06
6.11441e-06
6.12287e-06
6.13435e-06
6.15032e-06
6.16194e-06
6.20477e-06
6.27556e-06
6.4613e-06
6.47568e-06
5.10969e-06
2.0869e-06
1.94616e-12
4.22519e-09
1.06897e-09
2.83809e-12
0
0
0.000104248
0.00102521
0.00454503
0.00498327
0.0241411
6.09212e-06
6.09154e-06
6.09169e-06
6.09051e-06
6.09293e-06
6.09236e-06
6.09233e-06
6.09215e-06
6.09187e-06
6.09173e-06
6.09174e-06
6.09202e-06
6.09248e-06
6.09317e-06
6.09416e-06
6.09551e-06
6.09734e-06
6.09985e-06
6.10326e-06
6.10801e-06
6.1145e-06
6.12157e-06
6.12994e-06
6.13354e-06
6.197e-06
6.31118e-06
6.87201e-06
6.95981e-06
4.96372e-06
2.42843e-06
6.24264e-07
1.60628e-09
5.39505e-09
4.44209e-10
0
0
0
0.00115837
0.000438604
6.09262e-06
6.09229e-06
6.09242e-06
6.09103e-06
6.09222e-06
6.09165e-06
6.09168e-06
6.09168e-06
6.09172e-06
6.09201e-06
6.09242e-06
6.09285e-06
6.09342e-06
6.09404e-06
6.09471e-06
6.09552e-06
6.09646e-06
6.0976e-06
6.09908e-06
6.10108e-06
6.10389e-06
6.10726e-06
6.11051e-06
6.11414e-06
6.11324e-06
6.10175e-06
6.2207e-06
6.53904e-06
7.04467e-06
6.94594e-06
6.21719e-06
4.37738e-06
2.43524e-06
2.29155e-07
1.10334e-08
5.8581e-10
0
0
7.70804e-05
6.09224e-06
6.09228e-06
6.09249e-06
6.09121e-06
6.09211e-06
6.0915e-06
6.09154e-06
6.09165e-06
6.09171e-06
6.09204e-06
6.09243e-06
6.09277e-06
6.09315e-06
6.09351e-06
6.09382e-06
6.0941e-06
6.0943e-06
6.09451e-06
6.09483e-06
6.09534e-06
6.09614e-06
6.09721e-06
6.09842e-06
6.09983e-06
6.10161e-06
6.0953e-06
6.08363e-06
6.11179e-06
6.2814e-06
6.55249e-06
6.86352e-06
7.18399e-06
7.13189e-06
5.7527e-06
3.67502e-06
2.80959e-07
7.84854e-09
0
0
6.09223e-06
6.09238e-06
6.09266e-06
6.09231e-06
6.09279e-06
6.09318e-06
6.09354e-06
6.09396e-06
6.09438e-06
6.0948e-06
6.09525e-06
6.09574e-06
6.09626e-06
6.09684e-06
6.09747e-06
6.09821e-06
6.09912e-06
6.09997e-06
6.10059e-06
6.10144e-06
6.10176e-06
6.09614e-06
6.0839e-06
6.08335e-06
6.12397e-06
6.22367e-06
6.43057e-06
6.74664e-06
7.1123e-06
7.44778e-06
6.07631e-06
2.49547e-06
1.88168e-08
2.32612e-12
6.0938e-06
6.0941e-06
6.09439e-06
6.09466e-06
6.09494e-06
6.09524e-06
6.09555e-06
6.09587e-06
6.09619e-06
6.0965e-06
6.09678e-06
6.09698e-06
6.09723e-06
6.09761e-06
6.09818e-06
6.09923e-06
6.09992e-06
6.09789e-06
6.09067e-06
6.08216e-06
6.07912e-06
6.0945e-06
6.15515e-06
6.32395e-06
6.66198e-06
7.21875e-06
7.30206e-06
4.90519e-06
1.0447e-09
6.09474e-06
6.09492e-06
6.09514e-06
6.0954e-06
6.0957e-06
6.09603e-06
6.0964e-06
6.0968e-06
6.09725e-06
6.09773e-06
6.09823e-06
6.09869e-06
6.0991e-06
6.09957e-06
6.10027e-06
6.10102e-06
6.10077e-06
6.0984e-06
6.09315e-06
6.08381e-06
6.07089e-06
6.07464e-06
6.1148e-06
6.32695e-06
6.73575e-06
7.77796e-06
5.7128e-06
6.09495e-06
6.0951e-06
6.09529e-06
6.09552e-06
6.09579e-06
6.09611e-06
6.09646e-06
6.09684e-06
6.09724e-06
6.09766e-06
6.09812e-06
6.09866e-06
6.09924e-06
6.09993e-06
6.10076e-06
6.1017e-06
6.10253e-06
6.10292e-06
6.10209e-06
6.09658e-06
6.08568e-06
6.0666e-06
6.06303e-06
6.12092e-06
6.37613e-06
8.80629e-06
6.09497e-06
6.09512e-06
6.09534e-06
6.09561e-06
6.09593e-06
6.09628e-06
6.09667e-06
6.09709e-06
6.09755e-06
6.09803e-06
6.09855e-06
6.09911e-06
6.09974e-06
6.10047e-06
6.1013e-06
6.10224e-06
6.10336e-06
6.10492e-06
6.10636e-06
6.10586e-06
6.10147e-06
6.08383e-06
6.06877e-06
5.96642e-06
6.43879e-06
6.09486e-06
6.095e-06
6.0952e-06
6.09543e-06
6.0957e-06
6.096e-06
6.09634e-06
6.09672e-06
6.09713e-06
6.09757e-06
6.09807e-06
6.09863e-06
6.09927e-06
6.09999e-06
6.10078e-06
6.10163e-06
6.10258e-06
6.1038e-06
6.10565e-06
6.10791e-06
6.11093e-06
6.11178e-06
6.1019e-06
6.09398e-06
5.7072e-06
6.09491e-06
6.09505e-06
6.09523e-06
6.09546e-06
6.09572e-06
6.09603e-06
6.09638e-06
6.09677e-06
6.0972e-06
6.09767e-06
6.0982e-06
6.0988e-06
6.09948e-06
6.10021e-06
6.10102e-06
6.1019e-06
6.10291e-06
6.10422e-06
6.10605e-06
6.10854e-06
6.11438e-06
6.11241e-06
6.14517e-06
5.98011e-06
6.09492e-06
6.09505e-06
6.09526e-06
6.0955e-06
6.09578e-06
6.0961e-06
6.09647e-06
6.09687e-06
6.09733e-06
6.09783e-06
6.0984e-06
6.09904e-06
6.09974e-06
6.10048e-06
6.10131e-06
6.10225e-06
6.10338e-06
6.10481e-06
6.10651e-06
6.10976e-06
6.11543e-06
6.11006e-06
6.2425e-06
6.09479e-06
6.09491e-06
6.09508e-06
6.09527e-06
6.09552e-06
6.0958e-06
6.09613e-06
6.0965e-06
6.09691e-06
6.09739e-06
6.09793e-06
6.09854e-06
6.0992e-06
6.09992e-06
6.1007e-06
6.1016e-06
6.10267e-06
6.10393e-06
6.10566e-06
6.10655e-06
6.11608e-06
6.08824e-06
6.25989e-06
6.09477e-06
6.09489e-06
6.09506e-06
6.09528e-06
6.09554e-06
6.09583e-06
6.09617e-06
6.09655e-06
6.09698e-06
6.09747e-06
6.09803e-06
6.09865e-06
6.09932e-06
6.10006e-06
6.1009e-06
6.10192e-06
6.10308e-06
6.10484e-06
6.10534e-06
6.11328e-06
6.09425e-06
6.17794e-06
6.09468e-06
6.0948e-06
6.09494e-06
6.09513e-06
6.09534e-06
6.0956e-06
6.09589e-06
6.09623e-06
6.09661e-06
6.09705e-06
6.09756e-06
6.09812e-06
6.09873e-06
6.09942e-06
6.1002e-06
6.10113e-06
6.10221e-06
6.10377e-06
6.10483e-06
6.10913e-06
6.10606e-06
6.11639e-06
6.09477e-06
6.09488e-06
6.09504e-06
6.09523e-06
6.09546e-06
6.09571e-06
6.09601e-06
6.09633e-06
6.09671e-06
6.09715e-06
6.09765e-06
6.09819e-06
6.09881e-06
6.09952e-06
6.10036e-06
6.10137e-06
6.10267e-06
6.10419e-06
6.10596e-06
6.11124e-06
6.09617e-06
6.09484e-06
6.09495e-06
6.09509e-06
6.09525e-06
6.09544e-06
6.09565e-06
6.0959e-06
6.09618e-06
6.0965e-06
6.09687e-06
6.09728e-06
6.09775e-06
6.09828e-06
6.09891e-06
6.09965e-06
6.10057e-06
6.10166e-06
6.10326e-06
6.1042e-06
6.11037e-06
6.09767e-06
6.09508e-06
6.09518e-06
6.09531e-06
6.09547e-06
6.09565e-06
6.09587e-06
6.0961e-06
6.09637e-06
6.09668e-06
6.09703e-06
6.09742e-06
6.09787e-06
6.0984e-06
6.09904e-06
6.09984e-06
6.10079e-06
6.1022e-06
6.1032e-06
6.10745e-06
6.10309e-06
6.09526e-06
6.09535e-06
6.09547e-06
6.09562e-06
6.09579e-06
6.09598e-06
6.09619e-06
6.09642e-06
6.09668e-06
6.09697e-06
6.09729e-06
6.09766e-06
6.0981e-06
6.09863e-06
6.09929e-06
6.1001e-06
6.10125e-06
6.10241e-06
6.10488e-06
6.10576e-06
6.09554e-06
6.09562e-06
6.09571e-06
6.09582e-06
6.09595e-06
6.0961e-06
6.09626e-06
6.09645e-06
6.09667e-06
6.09691e-06
6.09719e-06
6.09751e-06
6.09789e-06
6.09833e-06
6.09889e-06
6.09958e-06
6.1005e-06
6.10166e-06
6.10321e-06
6.10567e-06
6.09591e-06
6.09595e-06
6.09602e-06
6.09612e-06
6.09623e-06
6.09636e-06
6.0965e-06
6.09666e-06
6.09686e-06
6.09708e-06
6.09735e-06
6.09767e-06
6.09805e-06
6.09852e-06
6.09912e-06
6.09989e-06
6.10092e-06
6.10214e-06
6.10442e-06
6.0962e-06
6.09623e-06
6.09629e-06
6.09637e-06
6.09646e-06
6.09656e-06
6.09667e-06
6.0968e-06
6.09695e-06
6.09712e-06
6.09733e-06
6.09757e-06
6.09787e-06
6.09825e-06
6.09874e-06
6.09937e-06
6.10024e-06
6.10131e-06
6.10305e-06
6.09655e-06
6.09657e-06
6.09662e-06
6.09666e-06
6.09672e-06
6.09679e-06
6.09687e-06
6.09696e-06
6.09707e-06
6.0972e-06
6.09737e-06
6.09756e-06
6.0978e-06
6.0981e-06
6.09849e-06
6.09899e-06
6.09968e-06
6.10061e-06
6.1019e-06
6.0969e-06
6.0969e-06
6.09691e-06
6.09694e-06
6.09698e-06
6.09702e-06
6.09708e-06
6.09715e-06
6.09724e-06
6.09737e-06
6.09752e-06
6.09772e-06
6.09797e-06
6.09828e-06
6.0987e-06
6.09925e-06
6.10002e-06
6.10102e-06
6.09722e-06
6.0972e-06
6.09721e-06
6.09722e-06
6.09724e-06
6.09726e-06
6.09729e-06
6.09732e-06
6.09738e-06
6.09746e-06
6.09756e-06
6.0977e-06
6.09788e-06
6.09812e-06
6.09845e-06
6.0989e-06
6.09953e-06
6.10033e-06
6.09759e-06
6.09757e-06
6.09756e-06
6.09754e-06
6.09754e-06
6.09753e-06
6.09753e-06
6.09753e-06
6.09756e-06
6.0976e-06
6.09767e-06
6.09776e-06
6.09788e-06
6.09805e-06
6.09829e-06
6.09863e-06
6.09913e-06
6.09977e-06
6.09794e-06
6.09788e-06
6.09784e-06
6.09781e-06
6.09777e-06
6.09774e-06
6.09771e-06
6.0977e-06
6.09771e-06
6.09774e-06
6.09779e-06
6.09788e-06
6.098e-06
6.09817e-06
6.09843e-06
6.09881e-06
6.09932e-06
6.09831e-06
6.09824e-06
6.09819e-06
6.09813e-06
6.09807e-06
6.09801e-06
6.09795e-06
6.09791e-06
6.09788e-06
6.09786e-06
6.09787e-06
6.0979e-06
6.09796e-06
6.09808e-06
6.09826e-06
6.09854e-06
6.09893e-06
6.09875e-06
6.09868e-06
6.09861e-06
6.09853e-06
6.09845e-06
6.09835e-06
6.09827e-06
6.09819e-06
6.09813e-06
6.09807e-06
6.09803e-06
6.098e-06
6.09801e-06
6.09805e-06
6.09815e-06
6.09834e-06
6.09915e-06
6.09906e-06
6.09895e-06
6.09883e-06
6.09871e-06
6.09859e-06
6.09848e-06
6.09838e-06
6.09828e-06
6.0982e-06
6.09814e-06
6.09809e-06
6.09808e-06
6.0981e-06
6.0982e-06
6.09963e-06
6.09957e-06
6.09949e-06
6.09938e-06
6.09922e-06
6.09904e-06
6.09887e-06
6.09871e-06
6.09856e-06
6.09842e-06
6.0983e-06
6.0982e-06
6.09813e-06
6.09809e-06
6.09811e-06
6.10007e-06
6.10004e-06
6.1e-06
6.09992e-06
6.09981e-06
6.09965e-06
6.09944e-06
6.09922e-06
6.099e-06
6.09878e-06
6.09858e-06
6.0984e-06
6.09825e-06
6.09813e-06
6.09807e-06
6.10049e-06
6.10049e-06
6.10047e-06
6.10043e-06
6.10035e-06
6.10024e-06
6.10007e-06
6.09986e-06
6.0996e-06
6.09932e-06
6.09904e-06
6.09876e-06
6.09851e-06
6.0983e-06
6.09813e-06
6.10089e-06
6.10091e-06
6.10092e-06
6.10091e-06
6.10086e-06
6.10078e-06
6.10067e-06
6.1005e-06
6.10029e-06
6.10002e-06
6.09971e-06
6.09937e-06
6.09902e-06
6.0987e-06
6.09841e-06
6.10132e-06
6.10135e-06
6.10137e-06
6.10136e-06
6.10132e-06
6.10124e-06
6.10112e-06
6.10096e-06
6.10075e-06
6.10048e-06
6.10015e-06
6.09977e-06
6.09936e-06
6.09896e-06
6.10169e-06
6.10176e-06
6.10181e-06
6.10183e-06
6.10182e-06
6.10178e-06
6.1017e-06
6.10159e-06
6.10144e-06
6.10124e-06
6.10098e-06
6.10064e-06
6.10023e-06
6.09977e-06
6.10202e-06
6.10211e-06
6.10219e-06
6.10225e-06
6.10227e-06
6.10226e-06
6.10223e-06
6.10216e-06
6.10206e-06
6.10193e-06
6.10174e-06
6.10149e-06
6.10115e-06
6.10072e-06
6.10231e-06
6.10243e-06
6.10254e-06
6.10262e-06
6.10267e-06
6.1027e-06
6.1027e-06
6.10267e-06
6.10262e-06
6.10253e-06
6.10241e-06
6.10224e-06
6.102e-06
6.10167e-06
6.10256e-06
6.10271e-06
6.10284e-06
6.10295e-06
6.10303e-06
6.10309e-06
6.10312e-06
6.10313e-06
6.10311e-06
6.10307e-06
6.103e-06
6.10289e-06
6.10273e-06
6.10251e-06
6.10294e-06
6.1031e-06
6.10324e-06
6.10335e-06
6.10344e-06
6.10351e-06
6.10355e-06
6.10358e-06
6.10358e-06
6.10355e-06
6.10349e-06
6.10339e-06
6.10325e-06
6.10312e-06
6.10331e-06
6.10348e-06
6.10363e-06
6.10375e-06
6.10385e-06
6.10393e-06
6.104e-06
6.10404e-06
6.10406e-06
6.10405e-06
6.10401e-06
6.10324e-06
6.10346e-06
6.10366e-06
6.10383e-06
6.10398e-06
6.10412e-06
6.10424e-06
6.10435e-06
6.10444e-06
6.10451e-06
6.10456e-06
6.10457e-06
6.1033e-06
6.10354e-06
6.10377e-06
6.10397e-06
6.10415e-06
6.10432e-06
6.10448e-06
6.10463e-06
6.10476e-06
6.10488e-06
6.10498e-06
6.10505e-06
6.10329e-06
6.10356e-06
6.10381e-06
6.10403e-06
6.10424e-06
6.10444e-06
6.10464e-06
6.10482e-06
6.105e-06
6.10516e-06
6.10531e-06
6.10544e-06
6.1035e-06
6.10378e-06
6.10403e-06
6.10427e-06
6.1045e-06
6.10473e-06
6.10495e-06
6.10516e-06
6.10537e-06
6.10556e-06
6.10574e-06
6.10337e-06
6.10367e-06
6.10395e-06
6.10422e-06
6.10448e-06
6.10474e-06
6.105e-06
6.10525e-06
6.1055e-06
6.10573e-06
6.10596e-06
6.10315e-06
6.10347e-06
6.10378e-06
6.10407e-06
6.10436e-06
6.10465e-06
6.10495e-06
6.10524e-06
6.10553e-06
6.10582e-06
6.1061e-06
6.10284e-06
6.10318e-06
6.10351e-06
6.10383e-06
6.10414e-06
6.10447e-06
6.10479e-06
6.10512e-06
6.10546e-06
6.10579e-06
6.10612e-06
6.10243e-06
6.10279e-06
6.10314e-06
6.10348e-06
6.10382e-06
6.10417e-06
6.10453e-06
6.1049e-06
6.10527e-06
6.10564e-06
6.10602e-06
6.10191e-06
6.10229e-06
6.10266e-06
6.10302e-06
6.10339e-06
6.10377e-06
6.10416e-06
6.10456e-06
6.10496e-06
6.10538e-06
6.10128e-06
6.10168e-06
6.10207e-06
6.10245e-06
6.10285e-06
6.10325e-06
6.10367e-06
6.10409e-06
6.10453e-06
6.10499e-06
6.10096e-06
6.10137e-06
6.10177e-06
6.10219e-06
6.10261e-06
6.10306e-06
6.10351e-06
6.10398e-06
6.10446e-06
6.10013e-06
6.10056e-06
6.10098e-06
6.10142e-06
6.10187e-06
6.10233e-06
6.10282e-06
6.10331e-06
6.10383e-06
6.09916e-06
6.0996e-06
6.10005e-06
6.10051e-06
6.10098e-06
6.10148e-06
6.10199e-06
6.10252e-06
6.10307e-06
6.09798e-06
6.09844e-06
6.09891e-06
6.09939e-06
6.0999e-06
6.10042e-06
6.10097e-06
6.10154e-06
6.10213e-06
6.0965e-06
6.09698e-06
6.09746e-06
6.09796e-06
6.0985e-06
6.09906e-06
6.09965e-06
6.10027e-06
6.10091e-06
6.09467e-06
6.09514e-06
6.09563e-06
6.09615e-06
6.09671e-06
6.09731e-06
6.09793e-06
6.09859e-06
6.09253e-06
6.093e-06
6.09348e-06
6.09401e-06
6.09457e-06
6.09518e-06
6.09582e-06
6.09651e-06
6.09026e-06
6.09071e-06
6.09117e-06
6.09168e-06
6.09223e-06
6.09282e-06
6.09346e-06
6.09414e-06
6.08839e-06
6.08883e-06
6.08932e-06
6.08985e-06
6.09042e-06
6.09103e-06
6.09168e-06
6.08601e-06
6.08644e-06
6.08691e-06
6.08742e-06
6.08797e-06
6.08856e-06
6.08919e-06
6.08348e-06
6.08391e-06
6.08438e-06
6.0849e-06
6.08546e-06
6.08606e-06
6.08669e-06
6.08102e-06
6.08144e-06
6.08191e-06
6.08243e-06
6.083e-06
6.08362e-06
6.08428e-06
6.07875e-06
6.07913e-06
6.07957e-06
6.08005e-06
6.0806e-06
6.08118e-06
6.07648e-06
6.07682e-06
6.0772e-06
6.07763e-06
6.07812e-06
6.07863e-06
6.07418e-06
6.07447e-06
6.0748e-06
6.07517e-06
6.07561e-06
6.07604e-06
6.07199e-06
6.07221e-06
6.07246e-06
6.07275e-06
6.07311e-06
6.07346e-06
6.0705e-06
6.07055e-06
6.07063e-06
6.07074e-06
6.07091e-06
6.07109e-06
6.07169e-06
6.0716e-06
6.07151e-06
6.07139e-06
6.07125e-06
6.07116e-06
6.0742e-06
6.07413e-06
6.07403e-06
6.07386e-06
6.07374e-06
6.07718e-06
6.07718e-06
6.07711e-06
6.07694e-06
6.0769e-06
6.08031e-06
6.08043e-06
6.08056e-06
6.08064e-06
6.08069e-06
6.08366e-06
6.08384e-06
6.08385e-06
6.0837e-06
6.08604e-06
6.08679e-06
6.08775e-06
6.08876e-06
6.0972e-06
6.09771e-06
6.09823e-06
6.09842e-06
)
;

boundaryField
{
    inlet
    {
        type            freestream;
        freestreamValue uniform 1e-05;
        value           nonuniform List<scalar> 4(6.0972e-06 6.09771e-06 6.09823e-06 6.09842e-06);
    }
    outlet
    {
        type            freestream;
        freestreamValue nonuniform List<scalar> 0();
        value           nonuniform List<scalar> 0();
    }
    walls
    {
        type            nutUSpaldingWallFunction;
        value           nonuniform List<scalar> 
42
(
0.00317667
0.00340397
0.00364128
0.0038306
0.00400832
0.004165
0.00428777
0.00438276
0.00445233
0.00449482
0.00451695
0.00451919
0.00449528
0.00444723
0.00437103
0.0042649
0.0041229
0.00393948
0.00370259
0.00340293
0.00302502
0.00257006
0.00207124
0.00167997
0.00151251
0.00156543
0.00170763
0.00186002
0.00198559
0.00206816
0.0021098
0.00211753
0.00209087
0.00203418
0.00194512
0.00293574
0.00266335
0.00236379
0.00199385
0.0015912
0.00115645
0.000724838
)
;
    }
    frontAndBack
    {
        type            empty;
    }
    procBoundary5to0
    {
        type            processor;
        value           nonuniform List<scalar> 4(6.09226e-06 6.09232e-06 6.09246e-06 6.09273e-06);
    }
    procBoundary5to1
    {
        type            processor;
        value           nonuniform List<scalar> 
13
(
6.57761e-06
5.94025e-06
5.94025e-06
6.11915e-06
6.08665e-06
6.08665e-06
6.09409e-06
6.09163e-06
6.09163e-06
6.09151e-06
6.09116e-06
6.09162e-06
6.09162e-06
)
;
    }
    procBoundary5to4
    {
        type            processor;
        value           nonuniform List<scalar> 
95
(
6.09167e-06
6.09191e-06
6.09219e-06
6.09219e-06
6.09318e-06
6.09359e-06
6.09359e-06
6.09437e-06
6.0946e-06
6.0946e-06
6.09487e-06
6.09487e-06
6.09491e-06
6.09491e-06
6.09483e-06
6.09484e-06
6.09484e-06
6.09486e-06
6.09486e-06
6.09476e-06
6.09472e-06
6.09472e-06
6.09465e-06
6.09472e-06
6.09472e-06
6.0948e-06
6.09504e-06
6.09504e-06
6.09527e-06
6.09554e-06
6.09591e-06
6.09591e-06
6.09624e-06
6.09658e-06
6.09694e-06
6.09694e-06
6.0973e-06
6.09766e-06
6.09802e-06
6.09802e-06
6.09842e-06
6.09885e-06
6.09926e-06
6.09926e-06
6.09969e-06
6.1001e-06
6.10049e-06
6.10085e-06
6.10129e-06
6.10129e-06
6.10162e-06
6.10192e-06
6.10218e-06
6.1024e-06
6.10278e-06
6.10278e-06
6.10292e-06
6.10301e-06
6.10305e-06
6.10301e-06
6.10322e-06
6.10322e-06
6.10306e-06
6.10282e-06
6.10248e-06
6.10205e-06
6.10151e-06
6.10086e-06
6.10054e-06
6.10054e-06
6.09969e-06
6.0987e-06
6.09751e-06
6.09603e-06
6.0942e-06
6.09208e-06
6.08983e-06
6.08796e-06
6.08796e-06
6.0856e-06
6.08308e-06
6.08063e-06
6.0784e-06
6.07617e-06
6.07391e-06
6.0718e-06
6.07046e-06
6.07176e-06
6.07425e-06
6.07425e-06
6.07718e-06
6.08016e-06
6.08349e-06
6.08525e-06
6.09657e-06
)
;
    }
    procBoundary5to6
    {
        type            processor;
        value           nonuniform List<scalar> 
86
(
0.0878826
0.147133
0.191629
0.193627
0.146856
0.0673392
0.0123452
2.32752e-06
7.32319e-09
0
5.69492e-16
1.57559e-08
3.66518e-06
1.00021e-05
7.91498e-06
5.79628e-06
5.32126e-06
5.62301e-06
5.99423e-06
6.17148e-06
6.19136e-06
6.15674e-06
6.12556e-06
6.11046e-06
6.10586e-06
6.10503e-06
6.10459e-06
6.10376e-06
6.10271e-06
6.10171e-06
6.10088e-06
6.10021e-06
6.09964e-06
6.09861e-06
6.09861e-06
6.09836e-06
6.09818e-06
6.09805e-06
6.09801e-06
6.09818e-06
6.0986e-06
6.0993e-06
6.10023e-06
6.10124e-06
6.1022e-06
6.10305e-06
6.10392e-06
6.10392e-06
6.10454e-06
6.10509e-06
6.10554e-06
6.1059e-06
6.10618e-06
6.10637e-06
6.10644e-06
6.1064e-06
6.1058e-06
6.1058e-06
6.10545e-06
6.10496e-06
6.10436e-06
6.10363e-06
6.10273e-06
6.10157e-06
6.09929e-06
6.09929e-06
6.09723e-06
6.09487e-06
6.09239e-06
6.08986e-06
6.08737e-06
6.08498e-06
6.08181e-06
6.08181e-06
6.0792e-06
6.07654e-06
6.07387e-06
6.07132e-06
6.07105e-06
6.07357e-06
6.07675e-06
6.08075e-06
6.08393e-06
6.08393e-06
6.08941e-06
6.09869e-06
)
;
    }
}


// ************************************************************************* //
