/*--------------------------------*- C++ -*----------------------------------*\
| =========                 |                                                 |
| \\      /  F ield         | OpenFOAM: The Open Source CFD Toolbox           |
|  \\    /   O peration     | Version:  2306                                  |
|   \\  /    A nd           | Website:  www.openfoam.com                      |
|    \\/     M anipulation  |                                                 |
\*---------------------------------------------------------------------------*/
FoamFile
{
    version     2.0;
    format      ascii;
    arch        "LSB;label=32;scalar=64";
    class       volScalarField;
    location    "175";
    object      turbulenceProperties:k;
}
// * * * * * * * * * * * * * * * * * * * * * * * * * * * * * * * * * * * * * //

dimensions      [0 2 -2 0 0 0 0];

internalField   nonuniform List<scalar> 
1340
(
0.0193037
0.0224869
0.0265386
0.0320148
0.0384622
0.0466265
0.0570128
0.0698301
0.0860688
0.106789
0.133528
0.169008
0.216655
0.282279
0.375466
0.512459
0.72058
1.04962
1.59645
2.53501
4.3377
7.75632
16.3293
35.1986
42.3633
41.5069
40.5103
40.7287
41.2437
41.1946
40.3813
38.913
36.799
34.0656
30.6508
0.0164507
0.0141276
0.0115156
0.00926718
0.00713936
0.00521835
0.00367926
0.00308076
0.00306483
0.0030304
0.002944
0.00281009
0.00265547
0.00247259
0.00226667
0.00206247
0.00186133
0.00167113
0.00152663
0.00148707
0.00160665
0.00203066
0.0031043
0.00569173
0.0117331
0.0269721
0.0676569
0.184135
0.540749
1.52243
4.96856
10.105
15.4998
20.6529
24.6363
26.0828
24.6043
21.3095
17.6807
14.6371
12.2904
10.5015
0.00305217
0.00300959
0.00292474
0.00279934
0.00262749
0.00240071
0.00206527
0.00204763
0.00200027
0.00192838
0.00185306
0.00177016
0.00168615
0.00161043
0.00154518
0.00149416
0.00145502
0.00143012
0.00142213
0.00142997
0.0014394
0.00140851
0.00120868
0.000990003
4.60129e-05
0.000987788
0.00102477
0.00183674
0.00015602
0.00418092
0.0864145
0.368572
1.02635
2.47017
5.18235
9.11322
13.1706
15.7477
16.0757
14.8042
12.9908
0.00208213
0.0020802
0.0020749
0.00203847
0.00197245
0.00185967
0.00173965
0.00174331
0.00173457
0.00171994
0.00169013
0.00164579
0.00159053
0.00152163
0.00144293
0.00135589
0.00126259
0.00116472
0.00106294
0.000958484
0.000853111
0.000742572
0.000628512
0.000532897
0.000412153
0.000323666
3.86799e-06
0.000163583
2.51578e-05
0.0012714
0.0141449
0.0348906
0.0156753
0.0129645
0.00909187
0.147159
0.851632
2.72164
5.76538
8.83062
10.6291
0.00172108
0.00169311
0.00164935
0.00159655
0.00152988
0.00130783
0.00130534
0.00129492
0.00127647
0.00124818
0.00120987
0.00116354
0.00110991
0.00105075
0.000989587
0.000928466
0.000869757
0.000815956
0.000768916
0.000729427
0.000697249
0.000664313
0.000623251
0.000574395
0.000510817
0.000378889
0.000265942
7.31552e-06
1.25925e-05
1.20317e-08
0
0.00396165
0.00584866
0.0142346
0.0520701
0.0111957
0.0499451
0.0957155
0.993229
3.2433
0.00130436
0.00129509
0.0012767
0.0012472
0.00120538
0.00107081
0.00107524
0.00107469
0.00107064
0.00106003
0.00104289
0.00101996
0.000990388
0.000954775
0.000914079
0.000868668
0.000819598
0.000768048
0.000714925
0.000661217
0.000606159
0.000546247
0.000483956
0.000425486
0.000373119
0.000330847
0.000294251
0.000241475
0.000149643
1.42264e-07
6.46864e-06
3.17852e-06
1.67465e-07
0
0
0.00195135
0.0186681
0.0795943
0.0625494
0.0922392
0.00106119
0.00104793
0.00102863
0.00100293
0.000866557
0.000870247
0.000870769
0.000868434
0.000861464
0.000849452
0.000832668
0.000810645
0.000783557
0.000752144
0.000716945
0.000678837
0.000638977
0.000598463
0.000558299
0.000519682
0.000484644
0.000452335
0.000419709
0.00038554
0.000352131
0.000320786
0.000302231
0.000273319
0.000203164
0.000122045
5.25755e-05
2.31184e-06
3.86225e-06
1.07804e-06
0
0
0
0.013784
0.00545027
0.00085947
0.000849904
0.000835985
0.000816609
0.00071793
0.000722734
0.000725572
0.000726632
0.000724636
0.000719205
0.000710528
0.000698007
0.000681624
0.000661727
0.000638294
0.000611776
0.000582694
0.000551523
0.000518822
0.000485284
0.000450698
0.000413965
0.000376502
0.000340747
0.000308519
0.000281107
0.000261448
0.000246691
0.000230687
0.000199017
0.000158726
0.000111145
7.02501e-05
1.87002e-05
3.71359e-06
8.07075e-07
0
0
0.000593747
0.000710654
0.000701891
0.000690133
0.000674271
0.000598825
0.000603474
0.000606897
0.00060898
0.000608911
0.000606333
0.000601266
0.000593172
0.000581971
0.000567768
0.000550521
0.000530472
0.000507971
0.000483381
0.000457237
0.000429979
0.00040217
0.000374854
0.000348221
0.000322163
0.000297001
0.000273422
0.000252283
0.000233254
0.000214892
0.00019417
0.000171579
0.000150332
0.000129009
0.000100267
6.9722e-05
1.69336e-05
2.61143e-06
0
0
0.000592425
0.000585027
0.000575471
0.000517518
0.000517179
0.000515043
0.000510634
0.000503884
0.000494785
0.000483178
0.000469187
0.000452984
0.000434744
0.000414756
0.000393306
0.000370838
0.000347366
0.000322939
0.000298475
0.000275191
0.00025397
0.000235019
0.000217244
0.000198621
0.000178231
0.000157512
0.000139587
0.000125698
0.000114568
0.000104476
8.37965e-05
4.76555e-05
3.78979e-06
4.11953e-08
0.000442458
0.000440247
0.000436196
0.000430263
0.000422265
0.00041222
0.000400205
0.000386295
0.000370688
0.000353616
0.000335324
0.000316211
0.000296678
0.000277075
0.000257965
0.000239799
0.0002228
0.000206341
0.000188895
0.000169629
0.000149714
0.000131606
0.00011701
0.000106108
9.81966e-05
9.27142e-05
8.48543e-05
6.34191e-05
8.45969e-07
0.000379521
0.000375936
0.000370751
0.000363851
0.00035526
0.000345013
0.000333199
0.000319951
0.000305455
0.000290016
0.000273715
0.000256856
0.000240117
0.000224048
0.00020884
0.00019402
0.000178434
0.000161323
0.000143449
0.000126696
0.000112469
0.000100945
9.15898e-05
8.49129e-05
8.05411e-05
8.07024e-05
6.41308e-05
0.000329119
0.000325818
0.000321187
0.000315086
0.000307531
0.000298577
0.000288297
0.000276799
0.000264328
0.000251053
0.000237201
0.000223177
0.000209393
0.000195977
0.00018264
0.000168619
0.000153365
0.000137424
0.000122277
0.000109113
9.80774e-05
8.86984e-05
8.0882e-05
7.47794e-05
7.12529e-05
7.9386e-05
0.000287013
0.00028401
0.000279849
0.000274423
0.000267774
0.000259934
0.000250958
0.000241022
0.000230257
0.000218778
0.000206885
0.000194995
0.000183219
0.000171359
0.000158875
0.000145359
0.00013121
0.000117592
0.000105551
9.52953e-05
8.65005e-05
7.89057e-05
7.25586e-05
6.71003e-05
6.58389e-05
0.000253261
0.000251451
0.000248715
0.000244902
0.000240018
0.000234092
0.00022715
0.000219278
0.000210624
0.000201259
0.000191341
0.000181223
0.000171006
0.000160553
0.000149501
0.000137562
0.000125026
0.000112805
0.000101801
9.22885e-05
8.40739e-05
7.6982e-05
7.09221e-05
6.61368e-05
6.03e-05
0.000222944
0.000221217
0.000218661
0.000215172
0.000210773
0.000205475
0.000199311
0.000192418
0.000184814
0.000176586
0.000168016
0.000159212
0.00015009
0.000140385
0.000129898
0.000118847
0.000107942
9.79383e-05
8.91463e-05
8.14698e-05
7.48203e-05
6.91018e-05
6.47102e-05
6.01824e-05
0.000196937
0.000195291
0.000192896
0.000189691
0.000185699
0.000180929
0.000175482
0.000169368
0.000162618
0.000155429
0.000147913
0.000140024
0.000131573
0.000122413
0.000112716
0.000103033
9.39929e-05
8.59124e-05
7.87718e-05
7.25225e-05
6.71558e-05
6.27492e-05
5.9857e-05
0.000175488
0.000174507
0.000172945
0.000170675
0.000167727
0.000164093
0.000159837
0.000154968
0.000149485
0.000143498
0.000137136
0.000130374
0.00012307
0.000115117
0.00010665
9.80977e-05
8.99773e-05
8.25962e-05
7.59944e-05
7.01469e-05
6.5112e-05
6.07926e-05
5.81921e-05
0.000156009
0.000155052
0.000153533
0.000151408
0.000148691
0.000145405
0.000141571
0.00013716
0.000132223
0.00012689
0.000121149
0.000114888
0.000108027
0.000100672
9.31585e-05
8.5908e-05
7.92074e-05
7.31377e-05
6.7704e-05
6.29716e-05
5.89058e-05
5.59886e-05
0.000139562
0.000139044
0.000138102
0.000136624
0.000134634
0.000132133
0.00012915
0.000125644
0.000121618
0.000117187
0.000112356
0.000107033
0.000101155
9.48052e-05
8.82417e-05
8.18074e-05
7.57623e-05
7.02117e-05
6.51927e-05
6.0753e-05
5.69757e-05
5.38382e-05
0.000124718
0.000124185
0.000123228
0.000121814
0.000119952
0.000117672
0.00011492
0.000111675
0.00010803
0.000104002
9.95163e-05
9.45165e-05
8.90666e-05
8.33668e-05
7.76932e-05
7.22751e-05
6.72293e-05
6.26171e-05
5.84746e-05
5.49459e-05
5.18266e-05
0.000111902
0.000111665
0.000111112
0.000110155
0.000108807
0.000107094
0.000104963
0.000102382
9.94174e-05
9.60903e-05
9.23439e-05
8.81243e-05
8.34766e-05
7.85572e-05
7.35862e-05
6.87611e-05
6.42028e-05
5.99854e-05
5.61473e-05
5.28317e-05
4.98598e-05
0.000100417
0.000100149
9.95585e-05
9.86184e-05
9.73585e-05
9.57384e-05
9.37178e-05
9.13351e-05
8.86169e-05
8.55182e-05
8.19857e-05
7.80497e-05
7.38316e-05
6.95049e-05
6.52371e-05
6.11446e-05
5.73076e-05
5.37718e-05
5.06581e-05
4.78618e-05
9.02994e-05
9.02446e-05
8.99319e-05
8.93154e-05
8.84197e-05
8.7216e-05
8.56638e-05
8.37738e-05
8.15792e-05
7.90401e-05
7.61072e-05
7.27985e-05
6.92068e-05
6.54662e-05
6.17177e-05
5.80673e-05
5.45973e-05
5.13558e-05
4.84448e-05
4.58103e-05
8.11995e-05
8.1299e-05
8.12071e-05
8.08463e-05
8.02395e-05
7.93763e-05
7.8208e-05
7.67302e-05
7.49782e-05
7.29211e-05
7.05084e-05
6.77478e-05
6.47091e-05
6.14962e-05
5.82236e-05
5.4988e-05
5.18671e-05
4.89094e-05
4.62037e-05
4.37168e-05
7.32362e-05
7.32918e-05
7.31354e-05
7.27562e-05
7.2162e-05
7.1309e-05
7.01762e-05
6.88006e-05
6.71539e-05
6.51883e-05
6.29034e-05
6.03512e-05
5.76115e-05
5.47741e-05
5.19232e-05
4.91311e-05
4.64461e-05
4.39399e-05
4.15979e-05
6.59628e-05
6.61231e-05
6.6118e-05
6.59171e-05
6.5534e-05
6.49331e-05
6.40867e-05
6.30238e-05
6.17234e-05
6.01397e-05
5.82667e-05
5.61409e-05
5.3822e-05
5.13804e-05
4.88856e-05
4.64019e-05
4.39764e-05
4.1668e-05
3.94667e-05
5.93986e-05
5.96305e-05
5.97464e-05
5.96847e-05
5.94693e-05
5.90694e-05
5.84566e-05
5.76504e-05
5.66374e-05
5.53761e-05
5.38535e-05
5.20959e-05
5.01463e-05
4.80584e-05
4.58895e-05
4.3694e-05
4.15113e-05
3.93966e-05
3.73365e-05
5.37687e-05
5.39572e-05
5.40069e-05
5.39202e-05
5.36785e-05
5.32534e-05
5.26603e-05
5.18857e-05
5.08931e-05
4.9668e-05
4.82269e-05
4.65996e-05
4.48257e-05
4.29505e-05
4.102e-05
3.90674e-05
3.71352e-05
3.52183e-05
4.84697e-05
4.87053e-05
4.88343e-05
4.88444e-05
4.87241e-05
4.84488e-05
4.8027e-05
4.74481e-05
4.66798e-05
4.57062e-05
4.45355e-05
4.31881e-05
4.16921e-05
4.00815e-05
3.83924e-05
3.66538e-05
3.48983e-05
3.31206e-05
4.36771e-05
4.39412e-05
4.41336e-05
4.42167e-05
4.41897e-05
4.40322e-05
4.3747e-05
4.3325e-05
4.27395e-05
4.19744e-05
4.10312e-05
3.99232e-05
3.86694e-05
3.7294e-05
3.5825e-05
3.42833e-05
3.26954e-05
3.10543e-05
3.96346e-05
3.98599e-05
4e-05
4.00434e-05
3.99761e-05
3.97984e-05
3.95026e-05
3.90661e-05
3.84724e-05
3.77201e-05
3.68155e-05
3.57705e-05
3.46017e-05
3.33291e-05
3.19688e-05
3.05379e-05
2.90305e-05
3.57386e-05
3.59795e-05
3.61565e-05
3.62503e-05
3.62508e-05
3.6156e-05
3.59602e-05
3.56432e-05
3.51905e-05
3.45973e-05
3.38651e-05
3.30002e-05
3.20127e-05
3.09157e-05
2.97198e-05
2.84366e-05
2.7058e-05
3.22085e-05
3.24556e-05
3.26616e-05
3.27915e-05
3.28416e-05
3.28095e-05
3.2691e-05
3.24689e-05
3.2129e-05
3.16655e-05
3.1077e-05
3.03652e-05
2.95346e-05
2.85931e-05
2.75462e-05
2.64001e-05
2.92697e-05
2.94841e-05
2.96407e-05
2.9727e-05
2.97418e-05
2.96822e-05
2.95337e-05
2.92835e-05
2.89252e-05
2.84551e-05
2.78719e-05
2.71759e-05
2.63703e-05
2.54571e-05
2.44373e-05
2.63855e-05
2.65998e-05
2.6771e-05
2.68818e-05
2.69297e-05
2.69139e-05
2.68224e-05
2.66436e-05
2.63705e-05
2.5998e-05
2.55224e-05
2.49412e-05
2.42541e-05
2.34597e-05
2.25558e-05
2.3769e-05
2.3983e-05
2.41614e-05
2.42868e-05
2.43577e-05
2.43739e-05
2.43252e-05
2.42016e-05
2.39962e-05
2.3703e-05
2.33167e-05
2.28329e-05
2.22487e-05
2.15598e-05
2.07615e-05
2.14026e-05
2.16113e-05
2.17901e-05
2.19225e-05
2.20079e-05
2.20464e-05
2.20296e-05
2.19484e-05
2.17962e-05
2.15669e-05
2.12541e-05
2.08525e-05
2.03566e-05
1.9761e-05
1.90586e-05
1.92648e-05
1.94609e-05
1.96389e-05
1.97732e-05
1.98668e-05
1.99201e-05
1.99259e-05
1.98763e-05
1.97654e-05
1.95869e-05
1.93341e-05
1.90008e-05
1.85806e-05
1.80665e-05
1.74507e-05
1.75196e-05
1.76885e-05
1.78227e-05
1.792e-05
1.7982e-05
1.8003e-05
1.79766e-05
1.78973e-05
1.77588e-05
1.75545e-05
1.72778e-05
1.69218e-05
1.64788e-05
1.59401e-05
1.57664e-05
1.59228e-05
1.60527e-05
1.61498e-05
1.6216e-05
1.62471e-05
1.62375e-05
1.61821e-05
1.60752e-05
1.59102e-05
1.56805e-05
1.53789e-05
1.49976e-05
1.45277e-05
1.41785e-05
1.43252e-05
1.44489e-05
1.45431e-05
1.461e-05
1.46469e-05
1.46487e-05
1.4611e-05
1.45285e-05
1.43952e-05
1.42044e-05
1.39491e-05
1.36214e-05
1.32127e-05
1.27458e-05
1.28814e-05
1.2997e-05
1.30861e-05
1.31514e-05
1.31909e-05
1.32003e-05
1.31754e-05
1.31118e-05
1.30038e-05
1.28449e-05
1.26286e-05
1.23474e-05
1.19928e-05
1.14542e-05
1.15761e-05
1.16847e-05
1.17678e-05
1.18297e-05
1.18695e-05
1.18834e-05
1.18676e-05
1.18182e-05
1.17301e-05
1.15973e-05
1.14138e-05
1.11726e-05
1.08656e-05
1.04013e-05
1.04997e-05
1.0577e-05
1.06348e-05
1.06732e-05
1.06892e-05
1.06796e-05
1.06408e-05
1.05684e-05
1.04568e-05
1.03008e-05
1.00937e-05
9.82831e-06
9.34372e-06
9.4311e-06
9.50175e-06
9.555e-06
9.59107e-06
9.60775e-06
9.60232e-06
9.57157e-06
9.51145e-06
9.41733e-06
9.2843e-06
9.10643e-06
8.38944e-06
8.46809e-06
8.53197e-06
8.58027e-06
8.61339e-06
8.62969e-06
8.62689e-06
8.60213e-06
8.55188e-06
8.47216e-06
8.35848e-06
8.20569e-06
7.53098e-06
7.60126e-06
7.65834e-06
7.70142e-06
7.73124e-06
7.74653e-06
7.74529e-06
7.72495e-06
7.68256e-06
7.6147e-06
7.51737e-06
7.38606e-06
6.75943e-06
6.82072e-06
6.87231e-06
6.91023e-06
6.93654e-06
6.95037e-06
6.94985e-06
6.9328e-06
6.89668e-06
6.83856e-06
6.75502e-06
6.64209e-06
6.12065e-06
6.16574e-06
6.19922e-06
6.2222e-06
6.23428e-06
6.23389e-06
6.2192e-06
6.18803e-06
6.13787e-06
6.06587e-06
5.96864e-06
5.49289e-06
5.53141e-06
5.56068e-06
5.58067e-06
5.59098e-06
5.59041e-06
5.57745e-06
5.55025e-06
5.50672e-06
5.44439e-06
5.36047e-06
4.92858e-06
4.96208e-06
4.98747e-06
5.00462e-06
5.01323e-06
5.01234e-06
5.00071e-06
4.97681e-06
4.93885e-06
4.88481e-06
4.81225e-06
4.42278e-06
4.45172e-06
4.47346e-06
4.48794e-06
4.49491e-06
4.49362e-06
4.48302e-06
4.46183e-06
4.4286e-06
4.38159e-06
4.31878e-06
3.96955e-06
3.99441e-06
4.0129e-06
4.02499e-06
4.03046e-06
4.02873e-06
4.01893e-06
4e-06
3.97073e-06
3.9297e-06
3.8752e-06
3.56368e-06
3.58501e-06
3.60062e-06
3.61051e-06
3.61459e-06
3.61244e-06
3.60329e-06
3.58626e-06
3.56037e-06
3.52443e-06
3.20039e-06
3.21824e-06
3.23161e-06
3.23955e-06
3.2424e-06
3.23984e-06
3.23124e-06
3.21584e-06
3.19283e-06
3.16126e-06
2.89057e-06
2.9016e-06
2.90796e-06
2.90978e-06
2.90684e-06
2.89865e-06
2.8846e-06
2.86403e-06
2.83619e-06
2.59804e-06
2.60682e-06
2.61181e-06
2.61279e-06
2.60954e-06
2.60169e-06
2.58878e-06
2.57028e-06
2.54558e-06
2.3361e-06
2.34326e-06
2.3471e-06
2.34738e-06
2.34391e-06
2.33642e-06
2.32455e-06
2.30786e-06
2.28587e-06
2.10147e-06
2.10724e-06
2.11009e-06
2.10979e-06
2.1062e-06
2.0991e-06
2.0882e-06
2.07315e-06
2.05356e-06
1.8905e-06
1.8951e-06
1.89714e-06
1.89642e-06
1.89282e-06
1.88617e-06
1.87621e-06
1.86272e-06
1.84531e-06
1.70026e-06
1.70386e-06
1.70523e-06
1.7042e-06
1.70064e-06
1.69444e-06
1.6854e-06
1.67332e-06
1.52912e-06
1.53188e-06
1.53264e-06
1.53128e-06
1.52773e-06
1.52188e-06
1.51361e-06
1.50275e-06
1.37605e-06
1.37797e-06
1.37824e-06
1.37652e-06
1.37287e-06
1.36724e-06
1.35953e-06
1.34961e-06
1.24133e-06
1.24105e-06
1.239e-06
1.2352e-06
1.22967e-06
1.2223e-06
1.21307e-06
1.11982e-06
1.11896e-06
1.11658e-06
1.11263e-06
1.10708e-06
1.09991e-06
1.09114e-06
1.01283e-06
1.0119e-06
1.0096e-06
1.00605e-06
1.00089e-06
9.94173e-07
9.86344e-07
9.28239e-07
9.27089e-07
9.24612e-07
9.21302e-07
9.16268e-07
9.09627e-07
9.0259e-07
8.59799e-07
8.58244e-07
8.5524e-07
8.51495e-07
8.45961e-07
8.3864e-07
7.95417e-07
7.94101e-07
7.91305e-07
7.87727e-07
7.82443e-07
7.75252e-07
7.32169e-07
7.30382e-07
7.27049e-07
7.22905e-07
7.17317e-07
7.09566e-07
6.73358e-07
6.7235e-07
6.69882e-07
6.66443e-07
6.61812e-07
6.55486e-07
6.09928e-07
6.06829e-07
6.02219e-07
5.96957e-07
5.90913e-07
5.81748e-07
5.68695e-07
5.68833e-07
5.67468e-07
5.64201e-07
5.60452e-07
5.56952e-07
4.83954e-07
4.77471e-07
4.71992e-07
4.6555e-07
4.51662e-07
5.11205e-07
5.13922e-07
5.10773e-07
5.09786e-07
5.19018e-07
4.02693e-07
4.03398e-07
4.09233e-07
4.06709e-07
3.90554e-07
6.08594e-07
6.25476e-07
6.23803e-07
6.31025e-07
6.63459e-07
6.80246e-07
7.00232e-07
7.28516e-07
9.74227e-07
1.03097e-06
9.941e-07
9.43836e-07
)
;

boundaryField
{
    inlet
    {
        type            calculated;
        value           nonuniform List<scalar> 4(4.28829e-06 4.56271e-06 4.62074e-06 4.67424e-06);
    }
    outlet
    {
        type            calculated;
        value           nonuniform List<scalar> 0();
    }
    walls
    {
        type            calculated;
        value           uniform 0;
    }
    frontAndBack
    {
        type            empty;
    }
    procBoundary5to0
    {
        type            processor;
        value           nonuniform List<scalar> 4(0.000504742 0.000498863 0.000492418 0.000484406);
    }
    procBoundary5to1
    {
        type            processor;
        value           nonuniform List<scalar> 
13
(
0.00278955
0.00213898
0.00213898
0.00170639
0.00144182
0.00144182
0.00114637
0.000969633
0.000969633
0.000791293
0.00065429
0.000562543
0.000562543
)
;
    }
    procBoundary5to4
    {
        type            processor;
        value           nonuniform List<scalar> 
95
(
0.000509305
0.000513167
0.000516134
0.000516134
0.000442097
0.000442987
0.000442987
0.0003823
0.000381636
0.000381636
0.000331104
0.000331104
0.00028893
0.00028893
0.000254152
0.000223883
0.000223883
0.000197907
0.000197907
0.000175868
0.000156489
0.000156489
0.000139636
0.000124898
0.000124898
0.000111805
0.000100423
0.000100423
9.01213e-05
8.08929e-05
7.30227e-05
7.30227e-05
6.56581e-05
5.90349e-05
5.34852e-05
5.34852e-05
4.81428e-05
4.33286e-05
3.93507e-05
3.93507e-05
3.54375e-05
3.19049e-05
2.90198e-05
2.90198e-05
2.61322e-05
2.35237e-05
2.1168e-05
1.90415e-05
1.73348e-05
1.73348e-05
1.55897e-05
1.40153e-05
1.25958e-05
1.13165e-05
1.02909e-05
1.02909e-05
9.24195e-06
8.29821e-06
7.44946e-06
6.68652e-06
6.06684e-06
6.06684e-06
5.44457e-06
4.88639e-06
4.38598e-06
3.93756e-06
3.53592e-06
3.17624e-06
2.87555e-06
2.87555e-06
2.58502e-06
2.3252e-06
2.09235e-06
1.88289e-06
1.69399e-06
1.52399e-06
1.37191e-06
1.24015e-06
1.24015e-06
1.11919e-06
1.0124e-06
9.2803e-07
8.59877e-07
7.95287e-07
7.32449e-07
6.72988e-07
6.11752e-07
5.66882e-07
4.89197e-07
4.89197e-07
5.07222e-07
4.00327e-07
5.93639e-07
6.3839e-07
9.72296e-07
)
;
    }
    procBoundary5to6
    {
        type            processor;
        value           nonuniform List<scalar> 
86
(
26.6039
9.09493
11.1791
10.9283
6.10342
0.916958
0.0982605
0.000112161
2.72826e-06
0
6.43339e-10
3.22841e-06
4.89122e-05
8.04845e-05
6.92894e-05
5.72967e-05
5.32123e-05
5.30366e-05
5.29909e-05
5.18882e-05
5.00153e-05
4.78789e-05
4.57345e-05
4.36334e-05
4.15606e-05
3.94925e-05
3.74277e-05
3.53739e-05
3.33367e-05
3.13299e-05
2.93634e-05
2.74421e-05
2.55762e-05
2.51456e-05
2.51456e-05
2.33015e-05
2.15317e-05
1.98422e-05
1.82376e-05
1.67206e-05
1.52935e-05
1.39573e-05
1.27114e-05
1.1554e-05
1.04831e-05
9.49565e-06
8.87729e-06
8.87729e-06
8.00808e-06
7.21579e-06
6.4955e-06
5.84239e-06
5.25175e-06
4.7185e-06
4.23792e-06
3.80546e-06
3.47708e-06
3.47708e-06
3.12003e-06
2.80013e-06
2.51391e-06
2.25797e-06
2.02895e-06
1.82369e-06
1.65794e-06
1.65794e-06
1.48911e-06
1.33736e-06
1.20188e-06
1.08072e-06
9.76979e-07
8.94307e-07
8.31307e-07
8.31307e-07
7.67896e-07
7.01752e-07
6.48151e-07
5.73581e-07
5.49018e-07
4.45137e-07
5.08934e-07
3.96527e-07
6.83057e-07
6.83057e-07
7.31295e-07
1.24182e-06
)
;
    }
}


// ************************************************************************* //
