/*--------------------------------*- C++ -*----------------------------------*\
| =========                 |                                                 |
| \\      /  F ield         | OpenFOAM: The Open Source CFD Toolbox           |
|  \\    /   O peration     | Version:  2306                                  |
|   \\  /    A nd           | Website:  www.openfoam.com                      |
|    \\/     M anipulation  |                                                 |
\*---------------------------------------------------------------------------*/
FoamFile
{
    version     2.0;
    format      ascii;
    arch        "LSB;label=32;scalar=64";
    class       volScalarField;
    location    "175";
    object      turbulenceProperties:nuEff;
}
// * * * * * * * * * * * * * * * * * * * * * * * * * * * * * * * * * * * * * //

dimensions      [0 2 -1 0 0 0 0];

internalField   nonuniform List<scalar> 
1340
(
3.49814e-05
3.86059e-05
4.34602e-05
4.9757e-05
5.78859e-05
6.83762e-05
8.19458e-05
9.89608e-05
0.000120427
0.000147375
0.000181598
0.000226333
0.000285752
0.000367636
0.00048485
0.000659766
0.00093155
0.0013745
0.00214119
0.00353455
0.0064192
0.0125139
0.0296015
0.072334
0.0958828
0.0988691
0.0992274
0.101766
0.104821
0.106454
0.106263
0.104717
0.102105
0.0985163
0.0938156
3.18537e-05
2.9155e-05
2.65069e-05
2.40846e-05
2.18102e-05
1.97147e-05
1.78764e-05
1.51064e-05
1.50023e-05
1.49081e-05
1.48296e-05
1.47393e-05
1.46559e-05
1.45931e-05
1.45371e-05
1.45111e-05
1.45228e-05
1.4556e-05
1.47531e-05
1.56349e-05
1.80474e-05
2.4741e-05
4.28893e-05
8.56523e-05
0.000161896
0.000296774
0.000564553
0.00116059
0.00263726
0.00602984
0.0174796
0.0347216
0.0562493
0.0827367
0.111954
0.137398
0.153206
0.159668
0.160794
0.159436
0.156425
0.152293
1.51894e-05
1.53022e-05
1.5399e-05
1.553e-05
1.56647e-05
1.58026e-05
1.62402e-05
1.62574e-05
1.62754e-05
1.62948e-05
1.63184e-05
1.63445e-05
1.63743e-05
1.64089e-05
1.64495e-05
1.64969e-05
1.65531e-05
1.66213e-05
1.66999e-05
1.68216e-05
1.68819e-05
1.65744e-05
1.49027e-05
1.33797e-05
1.00079e-05
1.39662e-05
1.55998e-05
4.03164e-05
1.20114e-05
0.000251068
0.00190378
0.00537043
0.0117475
0.0241388
0.0459873
0.0777851
0.114247
0.146339
0.168325
0.181211
0.188467
1.62275e-05
1.62091e-05
1.61951e-05
1.61745e-05
1.61569e-05
1.61375e-05
1.6073e-05
1.60715e-05
1.60716e-05
1.60724e-05
1.60735e-05
1.60762e-05
1.60811e-05
1.60877e-05
1.60977e-05
1.61112e-05
1.61289e-05
1.61522e-05
1.61825e-05
1.62209e-05
1.62714e-05
1.63355e-05
1.62203e-05
1.60021e-05
1.43942e-05
1.27036e-05
1.00003e-05
1.03675e-05
1.00064e-05
2.35032e-05
0.000403444
0.0011771
0.000708146
0.000997039
0.00237785
0.0091338
0.0257967
0.0560129
0.0968359
0.138001
0.1708
1.60728e-05
1.6075e-05
1.60772e-05
1.60796e-05
1.60839e-05
1.60981e-05
1.60986e-05
1.60986e-05
1.60992e-05
1.61003e-05
1.61019e-05
1.61041e-05
1.61072e-05
1.61113e-05
1.61168e-05
1.61242e-05
1.61339e-05
1.61466e-05
1.61631e-05
1.61852e-05
1.62127e-05
1.62545e-05
1.62705e-05
1.62997e-05
1.60825e-05
1.41077e-05
1.22499e-05
1.00016e-05
1.00038e-05
1e-05
1e-05
0.000145173
0.000217056
0.000530376
0.00206294
0.000560902
0.00452894
0.0192801
0.0511106
0.0979143
1.60971e-05
1.60955e-05
1.60955e-05
1.60939e-05
1.60948e-05
1.6093e-05
1.60926e-05
1.60928e-05
1.6093e-05
1.6093e-05
1.60933e-05
1.60938e-05
1.60945e-05
1.60958e-05
1.60976e-05
1.61e-05
1.61035e-05
1.61082e-05
1.61144e-05
1.61229e-05
1.61344e-05
1.61503e-05
1.61619e-05
1.62048e-05
1.62756e-05
1.64613e-05
1.64757e-05
1.51097e-05
1.20869e-05
1e-05
1.00042e-05
1.00011e-05
1e-05
1e-05
1e-05
0.000114248
0.00103521
0.00455503
0.00499327
0.0241511
1.60921e-05
1.60915e-05
1.60917e-05
1.60905e-05
1.60929e-05
1.60924e-05
1.60923e-05
1.60921e-05
1.60919e-05
1.60917e-05
1.60917e-05
1.6092e-05
1.60925e-05
1.60932e-05
1.60942e-05
1.60955e-05
1.60973e-05
1.60999e-05
1.61033e-05
1.6108e-05
1.61145e-05
1.61216e-05
1.61299e-05
1.61335e-05
1.6197e-05
1.63112e-05
1.6872e-05
1.69598e-05
1.49637e-05
1.24284e-05
1.06243e-05
1.00016e-05
1.00054e-05
1.00004e-05
1e-05
1e-05
1e-05
0.00116837
0.000448604
1.60926e-05
1.60923e-05
1.60924e-05
1.6091e-05
1.60922e-05
1.60917e-05
1.60917e-05
1.60917e-05
1.60917e-05
1.6092e-05
1.60924e-05
1.60929e-05
1.60934e-05
1.6094e-05
1.60947e-05
1.60955e-05
1.60965e-05
1.60976e-05
1.60991e-05
1.61011e-05
1.61039e-05
1.61073e-05
1.61105e-05
1.61141e-05
1.61132e-05
1.61018e-05
1.62207e-05
1.6539e-05
1.70447e-05
1.69459e-05
1.62172e-05
1.43774e-05
1.24352e-05
1.02292e-05
1.0011e-05
1.00006e-05
1e-05
1e-05
8.70804e-05
1.60922e-05
1.60923e-05
1.60925e-05
1.60912e-05
1.60921e-05
1.60915e-05
1.60915e-05
1.60917e-05
1.60917e-05
1.6092e-05
1.60924e-05
1.60928e-05
1.60932e-05
1.60935e-05
1.60938e-05
1.60941e-05
1.60943e-05
1.60945e-05
1.60948e-05
1.60953e-05
1.60961e-05
1.60972e-05
1.60984e-05
1.60998e-05
1.61016e-05
1.60953e-05
1.60836e-05
1.61118e-05
1.62814e-05
1.65525e-05
1.68635e-05
1.7184e-05
1.71319e-05
1.57527e-05
1.3675e-05
1.0281e-05
1.00078e-05
1e-05
1e-05
1.60922e-05
1.60924e-05
1.60927e-05
1.60923e-05
1.60928e-05
1.60932e-05
1.60935e-05
1.6094e-05
1.60944e-05
1.60948e-05
1.60953e-05
1.60957e-05
1.60963e-05
1.60968e-05
1.60975e-05
1.60982e-05
1.60991e-05
1.61e-05
1.61006e-05
1.61014e-05
1.61018e-05
1.60961e-05
1.60839e-05
1.60834e-05
1.6124e-05
1.62237e-05
1.64306e-05
1.67466e-05
1.71123e-05
1.74478e-05
1.60763e-05
1.24955e-05
1.00188e-05
1e-05
1.60938e-05
1.60941e-05
1.60944e-05
1.60947e-05
1.60949e-05
1.60952e-05
1.60955e-05
1.60959e-05
1.60962e-05
1.60965e-05
1.60968e-05
1.6097e-05
1.60972e-05
1.60976e-05
1.60982e-05
1.60992e-05
1.60999e-05
1.60979e-05
1.60907e-05
1.60822e-05
1.60791e-05
1.60945e-05
1.61552e-05
1.6324e-05
1.6662e-05
1.72188e-05
1.73021e-05
1.49052e-05
1.0001e-05
1.60947e-05
1.60949e-05
1.60951e-05
1.60954e-05
1.60957e-05
1.6096e-05
1.60964e-05
1.60968e-05
1.60972e-05
1.60977e-05
1.60982e-05
1.60987e-05
1.60991e-05
1.60996e-05
1.61003e-05
1.6101e-05
1.61008e-05
1.60984e-05
1.60931e-05
1.60838e-05
1.60709e-05
1.60746e-05
1.61148e-05
1.63269e-05
1.67357e-05
1.7778e-05
1.57128e-05
1.6095e-05
1.60951e-05
1.60953e-05
1.60955e-05
1.60958e-05
1.60961e-05
1.60965e-05
1.60968e-05
1.60972e-05
1.60977e-05
1.60981e-05
1.60987e-05
1.60992e-05
1.60999e-05
1.61008e-05
1.61017e-05
1.61025e-05
1.61029e-05
1.61021e-05
1.60966e-05
1.60857e-05
1.60666e-05
1.6063e-05
1.61209e-05
1.63761e-05
1.88063e-05
1.6095e-05
1.60951e-05
1.60953e-05
1.60956e-05
1.60959e-05
1.60963e-05
1.60967e-05
1.60971e-05
1.60976e-05
1.6098e-05
1.60985e-05
1.60991e-05
1.60997e-05
1.61005e-05
1.61013e-05
1.61022e-05
1.61034e-05
1.61049e-05
1.61064e-05
1.61059e-05
1.61015e-05
1.60838e-05
1.60688e-05
1.59664e-05
1.64388e-05
1.60949e-05
1.6095e-05
1.60952e-05
1.60954e-05
1.60957e-05
1.6096e-05
1.60963e-05
1.60967e-05
1.60971e-05
1.60976e-05
1.60981e-05
1.60986e-05
1.60993e-05
1.61e-05
1.61008e-05
1.61016e-05
1.61026e-05
1.61038e-05
1.61057e-05
1.61079e-05
1.61109e-05
1.61118e-05
1.61019e-05
1.6094e-05
1.57072e-05
1.60949e-05
1.60951e-05
1.60952e-05
1.60955e-05
1.60957e-05
1.6096e-05
1.60964e-05
1.60968e-05
1.60972e-05
1.60977e-05
1.60982e-05
1.60988e-05
1.60995e-05
1.61002e-05
1.6101e-05
1.61019e-05
1.61029e-05
1.61042e-05
1.6106e-05
1.61085e-05
1.61144e-05
1.61124e-05
1.61452e-05
1.59801e-05
1.60949e-05
1.60951e-05
1.60953e-05
1.60955e-05
1.60958e-05
1.60961e-05
1.60965e-05
1.60969e-05
1.60973e-05
1.60978e-05
1.60984e-05
1.6099e-05
1.60997e-05
1.61005e-05
1.61013e-05
1.61023e-05
1.61034e-05
1.61048e-05
1.61065e-05
1.61098e-05
1.61154e-05
1.61101e-05
1.62425e-05
1.60948e-05
1.60949e-05
1.60951e-05
1.60953e-05
1.60955e-05
1.60958e-05
1.60961e-05
1.60965e-05
1.60969e-05
1.60974e-05
1.60979e-05
1.60985e-05
1.60992e-05
1.60999e-05
1.61007e-05
1.61016e-05
1.61027e-05
1.61039e-05
1.61057e-05
1.61066e-05
1.61161e-05
1.60882e-05
1.62599e-05
1.60948e-05
1.60949e-05
1.60951e-05
1.60953e-05
1.60955e-05
1.60958e-05
1.60962e-05
1.60965e-05
1.6097e-05
1.60975e-05
1.6098e-05
1.60987e-05
1.60993e-05
1.61001e-05
1.61009e-05
1.61019e-05
1.61031e-05
1.61048e-05
1.61053e-05
1.61133e-05
1.60942e-05
1.61779e-05
1.60947e-05
1.60948e-05
1.60949e-05
1.60951e-05
1.60953e-05
1.60956e-05
1.60959e-05
1.60962e-05
1.60966e-05
1.60971e-05
1.60976e-05
1.60981e-05
1.60987e-05
1.60994e-05
1.61002e-05
1.61011e-05
1.61022e-05
1.61038e-05
1.61048e-05
1.61091e-05
1.61061e-05
1.61164e-05
1.60948e-05
1.60949e-05
1.6095e-05
1.60952e-05
1.60955e-05
1.60957e-05
1.6096e-05
1.60963e-05
1.60967e-05
1.60972e-05
1.60976e-05
1.60982e-05
1.60988e-05
1.60995e-05
1.61004e-05
1.61014e-05
1.61027e-05
1.61042e-05
1.6106e-05
1.61112e-05
1.60962e-05
1.60948e-05
1.60949e-05
1.60951e-05
1.60952e-05
1.60954e-05
1.60957e-05
1.60959e-05
1.60962e-05
1.60965e-05
1.60969e-05
1.60973e-05
1.60978e-05
1.60983e-05
1.60989e-05
1.60997e-05
1.61006e-05
1.61017e-05
1.61033e-05
1.61042e-05
1.61104e-05
1.60977e-05
1.60951e-05
1.60952e-05
1.60953e-05
1.60955e-05
1.60957e-05
1.60959e-05
1.60961e-05
1.60964e-05
1.60967e-05
1.6097e-05
1.60974e-05
1.60979e-05
1.60984e-05
1.6099e-05
1.60998e-05
1.61008e-05
1.61022e-05
1.61032e-05
1.61074e-05
1.61031e-05
1.60953e-05
1.60953e-05
1.60955e-05
1.60956e-05
1.60958e-05
1.6096e-05
1.60962e-05
1.60964e-05
1.60967e-05
1.6097e-05
1.60973e-05
1.60977e-05
1.60981e-05
1.60986e-05
1.60993e-05
1.61001e-05
1.61012e-05
1.61024e-05
1.61049e-05
1.61058e-05
1.60955e-05
1.60956e-05
1.60957e-05
1.60958e-05
1.6096e-05
1.60961e-05
1.60963e-05
1.60965e-05
1.60967e-05
1.60969e-05
1.60972e-05
1.60975e-05
1.60979e-05
1.60983e-05
1.60989e-05
1.60996e-05
1.61005e-05
1.61017e-05
1.61032e-05
1.61057e-05
1.60959e-05
1.60959e-05
1.6096e-05
1.60961e-05
1.60962e-05
1.60964e-05
1.60965e-05
1.60967e-05
1.60969e-05
1.60971e-05
1.60973e-05
1.60977e-05
1.6098e-05
1.60985e-05
1.60991e-05
1.60999e-05
1.61009e-05
1.61021e-05
1.61044e-05
1.60962e-05
1.60962e-05
1.60963e-05
1.60964e-05
1.60965e-05
1.60966e-05
1.60967e-05
1.60968e-05
1.60969e-05
1.60971e-05
1.60973e-05
1.60976e-05
1.60979e-05
1.60983e-05
1.60987e-05
1.60994e-05
1.61002e-05
1.61013e-05
1.6103e-05
1.60965e-05
1.60966e-05
1.60966e-05
1.60967e-05
1.60967e-05
1.60968e-05
1.60969e-05
1.6097e-05
1.60971e-05
1.60972e-05
1.60974e-05
1.60976e-05
1.60978e-05
1.60981e-05
1.60985e-05
1.6099e-05
1.60997e-05
1.61006e-05
1.61019e-05
1.60969e-05
1.60969e-05
1.60969e-05
1.60969e-05
1.6097e-05
1.6097e-05
1.60971e-05
1.60971e-05
1.60972e-05
1.60974e-05
1.60975e-05
1.60977e-05
1.6098e-05
1.60983e-05
1.60987e-05
1.60993e-05
1.61e-05
1.6101e-05
1.60972e-05
1.60972e-05
1.60972e-05
1.60972e-05
1.60972e-05
1.60973e-05
1.60973e-05
1.60973e-05
1.60974e-05
1.60975e-05
1.60976e-05
1.60977e-05
1.60979e-05
1.60981e-05
1.60985e-05
1.60989e-05
1.60995e-05
1.61003e-05
1.60976e-05
1.60976e-05
1.60976e-05
1.60975e-05
1.60975e-05
1.60975e-05
1.60975e-05
1.60975e-05
1.60976e-05
1.60976e-05
1.60977e-05
1.60978e-05
1.60979e-05
1.6098e-05
1.60983e-05
1.60986e-05
1.60991e-05
1.60998e-05
1.60979e-05
1.60979e-05
1.60978e-05
1.60978e-05
1.60978e-05
1.60977e-05
1.60977e-05
1.60977e-05
1.60977e-05
1.60977e-05
1.60978e-05
1.60979e-05
1.6098e-05
1.60982e-05
1.60984e-05
1.60988e-05
1.60993e-05
1.60983e-05
1.60982e-05
1.60982e-05
1.60981e-05
1.60981e-05
1.6098e-05
1.6098e-05
1.60979e-05
1.60979e-05
1.60979e-05
1.60979e-05
1.60979e-05
1.6098e-05
1.60981e-05
1.60983e-05
1.60985e-05
1.60989e-05
1.60987e-05
1.60987e-05
1.60986e-05
1.60985e-05
1.60984e-05
1.60984e-05
1.60983e-05
1.60982e-05
1.60981e-05
1.60981e-05
1.6098e-05
1.6098e-05
1.6098e-05
1.60981e-05
1.60981e-05
1.60983e-05
1.60992e-05
1.60991e-05
1.6099e-05
1.60988e-05
1.60987e-05
1.60986e-05
1.60985e-05
1.60984e-05
1.60983e-05
1.60982e-05
1.60981e-05
1.60981e-05
1.60981e-05
1.60981e-05
1.60982e-05
1.60996e-05
1.60996e-05
1.60995e-05
1.60994e-05
1.60992e-05
1.6099e-05
1.60989e-05
1.60987e-05
1.60986e-05
1.60984e-05
1.60983e-05
1.60982e-05
1.60981e-05
1.60981e-05
1.60981e-05
1.61001e-05
1.61e-05
1.61e-05
1.60999e-05
1.60998e-05
1.60997e-05
1.60994e-05
1.60992e-05
1.6099e-05
1.60988e-05
1.60986e-05
1.60984e-05
1.60982e-05
1.60981e-05
1.60981e-05
1.61005e-05
1.61005e-05
1.61005e-05
1.61004e-05
1.61004e-05
1.61002e-05
1.61001e-05
1.60999e-05
1.60996e-05
1.60993e-05
1.6099e-05
1.60988e-05
1.60985e-05
1.60983e-05
1.60981e-05
1.61009e-05
1.61009e-05
1.61009e-05
1.61009e-05
1.61009e-05
1.61008e-05
1.61007e-05
1.61005e-05
1.61003e-05
1.61e-05
1.60997e-05
1.60994e-05
1.6099e-05
1.60987e-05
1.60984e-05
1.61013e-05
1.61014e-05
1.61014e-05
1.61014e-05
1.61013e-05
1.61012e-05
1.61011e-05
1.6101e-05
1.61008e-05
1.61005e-05
1.61002e-05
1.60998e-05
1.60994e-05
1.6099e-05
1.61017e-05
1.61018e-05
1.61018e-05
1.61018e-05
1.61018e-05
1.61018e-05
1.61017e-05
1.61016e-05
1.61014e-05
1.61012e-05
1.6101e-05
1.61006e-05
1.61002e-05
1.60998e-05
1.6102e-05
1.61021e-05
1.61022e-05
1.61022e-05
1.61023e-05
1.61023e-05
1.61022e-05
1.61022e-05
1.61021e-05
1.61019e-05
1.61017e-05
1.61015e-05
1.61012e-05
1.61007e-05
1.61023e-05
1.61024e-05
1.61025e-05
1.61026e-05
1.61027e-05
1.61027e-05
1.61027e-05
1.61027e-05
1.61026e-05
1.61025e-05
1.61024e-05
1.61022e-05
1.6102e-05
1.61017e-05
1.61026e-05
1.61027e-05
1.61028e-05
1.6103e-05
1.6103e-05
1.61031e-05
1.61031e-05
1.61031e-05
1.61031e-05
1.61031e-05
1.6103e-05
1.61029e-05
1.61027e-05
1.61025e-05
1.61029e-05
1.61031e-05
1.61032e-05
1.61034e-05
1.61034e-05
1.61035e-05
1.61036e-05
1.61036e-05
1.61036e-05
1.61035e-05
1.61035e-05
1.61034e-05
1.61032e-05
1.61031e-05
1.61033e-05
1.61035e-05
1.61036e-05
1.61037e-05
1.61038e-05
1.61039e-05
1.6104e-05
1.6104e-05
1.61041e-05
1.61041e-05
1.6104e-05
1.61032e-05
1.61035e-05
1.61037e-05
1.61038e-05
1.6104e-05
1.61041e-05
1.61042e-05
1.61044e-05
1.61044e-05
1.61045e-05
1.61046e-05
1.61046e-05
1.61033e-05
1.61035e-05
1.61038e-05
1.6104e-05
1.61041e-05
1.61043e-05
1.61045e-05
1.61046e-05
1.61048e-05
1.61049e-05
1.6105e-05
1.61051e-05
1.61033e-05
1.61036e-05
1.61038e-05
1.6104e-05
1.61042e-05
1.61044e-05
1.61046e-05
1.61048e-05
1.6105e-05
1.61052e-05
1.61053e-05
1.61054e-05
1.61035e-05
1.61038e-05
1.6104e-05
1.61043e-05
1.61045e-05
1.61047e-05
1.61049e-05
1.61052e-05
1.61054e-05
1.61056e-05
1.61057e-05
1.61034e-05
1.61037e-05
1.6104e-05
1.61042e-05
1.61045e-05
1.61047e-05
1.6105e-05
1.61052e-05
1.61055e-05
1.61057e-05
1.6106e-05
1.61032e-05
1.61035e-05
1.61038e-05
1.61041e-05
1.61044e-05
1.61047e-05
1.61049e-05
1.61052e-05
1.61055e-05
1.61058e-05
1.61061e-05
1.61028e-05
1.61032e-05
1.61035e-05
1.61038e-05
1.61041e-05
1.61045e-05
1.61048e-05
1.61051e-05
1.61055e-05
1.61058e-05
1.61061e-05
1.61024e-05
1.61028e-05
1.61031e-05
1.61035e-05
1.61038e-05
1.61042e-05
1.61045e-05
1.61049e-05
1.61053e-05
1.61056e-05
1.6106e-05
1.61019e-05
1.61023e-05
1.61027e-05
1.6103e-05
1.61034e-05
1.61038e-05
1.61042e-05
1.61046e-05
1.6105e-05
1.61054e-05
1.61013e-05
1.61017e-05
1.61021e-05
1.61025e-05
1.61028e-05
1.61032e-05
1.61037e-05
1.61041e-05
1.61045e-05
1.6105e-05
1.6101e-05
1.61014e-05
1.61018e-05
1.61022e-05
1.61026e-05
1.61031e-05
1.61035e-05
1.6104e-05
1.61045e-05
1.61001e-05
1.61006e-05
1.6101e-05
1.61014e-05
1.61019e-05
1.61023e-05
1.61028e-05
1.61033e-05
1.61038e-05
1.60992e-05
1.60996e-05
1.61e-05
1.61005e-05
1.6101e-05
1.61015e-05
1.6102e-05
1.61025e-05
1.61031e-05
1.6098e-05
1.60984e-05
1.60989e-05
1.60994e-05
1.60999e-05
1.61004e-05
1.6101e-05
1.61015e-05
1.61021e-05
1.60965e-05
1.6097e-05
1.60975e-05
1.6098e-05
1.60985e-05
1.60991e-05
1.60997e-05
1.61003e-05
1.61009e-05
1.60947e-05
1.60951e-05
1.60956e-05
1.60962e-05
1.60967e-05
1.60973e-05
1.60979e-05
1.60986e-05
1.60925e-05
1.6093e-05
1.60935e-05
1.6094e-05
1.60946e-05
1.60952e-05
1.60958e-05
1.60965e-05
1.60903e-05
1.60907e-05
1.60912e-05
1.60917e-05
1.60922e-05
1.60928e-05
1.60935e-05
1.60941e-05
1.60884e-05
1.60888e-05
1.60893e-05
1.60898e-05
1.60904e-05
1.6091e-05
1.60917e-05
1.6086e-05
1.60864e-05
1.60869e-05
1.60874e-05
1.6088e-05
1.60886e-05
1.60892e-05
1.60835e-05
1.60839e-05
1.60844e-05
1.60849e-05
1.60855e-05
1.60861e-05
1.60867e-05
1.6081e-05
1.60814e-05
1.60819e-05
1.60824e-05
1.6083e-05
1.60836e-05
1.60843e-05
1.60787e-05
1.60791e-05
1.60796e-05
1.60801e-05
1.60806e-05
1.60812e-05
1.60765e-05
1.60768e-05
1.60772e-05
1.60776e-05
1.60781e-05
1.60786e-05
1.60742e-05
1.60745e-05
1.60748e-05
1.60752e-05
1.60756e-05
1.6076e-05
1.6072e-05
1.60722e-05
1.60725e-05
1.60728e-05
1.60731e-05
1.60735e-05
1.60705e-05
1.60706e-05
1.60706e-05
1.60707e-05
1.60709e-05
1.60711e-05
1.60717e-05
1.60716e-05
1.60715e-05
1.60714e-05
1.60712e-05
1.60712e-05
1.60742e-05
1.60741e-05
1.6074e-05
1.60739e-05
1.60737e-05
1.60772e-05
1.60772e-05
1.60771e-05
1.60769e-05
1.60769e-05
1.60803e-05
1.60804e-05
1.60806e-05
1.60806e-05
1.60807e-05
1.60837e-05
1.60838e-05
1.60839e-05
1.60837e-05
1.6086e-05
1.60868e-05
1.60878e-05
1.60888e-05
1.60972e-05
1.60977e-05
1.60982e-05
1.60984e-05
)
;

boundaryField
{
    inlet
    {
        type            calculated;
        value           nonuniform List<scalar> 4(1.60972e-05 1.60977e-05 1.60982e-05 1.60984e-05);
    }
    outlet
    {
        type            calculated;
        value           nonuniform List<scalar> 0();
    }
    walls
    {
        type            calculated;
        value           nonuniform List<scalar> 
42
(
0.00318667
0.00341397
0.00365128
0.0038406
0.00401832
0.004175
0.00429777
0.00439276
0.00446233
0.00450482
0.00452695
0.00452919
0.00450528
0.00445723
0.00438103
0.0042749
0.0041329
0.00394948
0.00371259
0.00341293
0.00303502
0.00258006
0.00208124
0.00168997
0.00152251
0.00157543
0.00171763
0.00187002
0.00199559
0.00207816
0.0021198
0.00212753
0.00210087
0.00204418
0.00195512
0.00294574
0.00267335
0.00237379
0.00200385
0.0016012
0.00116645
0.000734838
)
;
    }
    frontAndBack
    {
        type            empty;
    }
    procBoundary5to0
    {
        type            processor;
        value           nonuniform List<scalar> 4(1.60923e-05 1.60923e-05 1.60925e-05 1.60927e-05);
    }
    procBoundary5to1
    {
        type            processor;
        value           nonuniform List<scalar> 
13
(
1.65776e-05
1.59402e-05
1.59402e-05
1.61192e-05
1.60866e-05
1.60866e-05
1.60941e-05
1.60916e-05
1.60916e-05
1.60915e-05
1.60912e-05
1.60916e-05
1.60916e-05
)
;
    }
    procBoundary5to4
    {
        type            processor;
        value           nonuniform List<scalar> 
95
(
1.60917e-05
1.60919e-05
1.60922e-05
1.60922e-05
1.60932e-05
1.60936e-05
1.60936e-05
1.60944e-05
1.60946e-05
1.60946e-05
1.60949e-05
1.60949e-05
1.60949e-05
1.60949e-05
1.60948e-05
1.60948e-05
1.60948e-05
1.60949e-05
1.60949e-05
1.60948e-05
1.60947e-05
1.60947e-05
1.60946e-05
1.60947e-05
1.60947e-05
1.60948e-05
1.6095e-05
1.6095e-05
1.60953e-05
1.60955e-05
1.60959e-05
1.60959e-05
1.60962e-05
1.60966e-05
1.60969e-05
1.60969e-05
1.60973e-05
1.60977e-05
1.6098e-05
1.6098e-05
1.60984e-05
1.60988e-05
1.60993e-05
1.60993e-05
1.60997e-05
1.61001e-05
1.61005e-05
1.61009e-05
1.61013e-05
1.61013e-05
1.61016e-05
1.61019e-05
1.61022e-05
1.61024e-05
1.61028e-05
1.61028e-05
1.61029e-05
1.6103e-05
1.6103e-05
1.6103e-05
1.61032e-05
1.61032e-05
1.61031e-05
1.61028e-05
1.61025e-05
1.61021e-05
1.61015e-05
1.61009e-05
1.61005e-05
1.61005e-05
1.60997e-05
1.60987e-05
1.60975e-05
1.6096e-05
1.60942e-05
1.60921e-05
1.60898e-05
1.6088e-05
1.6088e-05
1.60856e-05
1.60831e-05
1.60806e-05
1.60784e-05
1.60762e-05
1.60739e-05
1.60718e-05
1.60705e-05
1.60718e-05
1.60743e-05
1.60743e-05
1.60772e-05
1.60802e-05
1.60835e-05
1.60853e-05
1.60966e-05
)
;
    }
    procBoundary5to6
    {
        type            processor;
        value           nonuniform List<scalar> 
86
(
0.0878926
0.147143
0.191639
0.193637
0.146866
0.0673492
0.0123552
1.23275e-05
1.00073e-05
1e-05
1e-05
1.00158e-05
1.36652e-05
2.00021e-05
1.7915e-05
1.57963e-05
1.53213e-05
1.5623e-05
1.59942e-05
1.61715e-05
1.61914e-05
1.61567e-05
1.61256e-05
1.61105e-05
1.61059e-05
1.6105e-05
1.61046e-05
1.61038e-05
1.61027e-05
1.61017e-05
1.61009e-05
1.61002e-05
1.60996e-05
1.60986e-05
1.60986e-05
1.60984e-05
1.60982e-05
1.6098e-05
1.6098e-05
1.60982e-05
1.60986e-05
1.60993e-05
1.61002e-05
1.61012e-05
1.61022e-05
1.6103e-05
1.61039e-05
1.61039e-05
1.61045e-05
1.61051e-05
1.61055e-05
1.61059e-05
1.61062e-05
1.61064e-05
1.61064e-05
1.61064e-05
1.61058e-05
1.61058e-05
1.61054e-05
1.6105e-05
1.61044e-05
1.61036e-05
1.61027e-05
1.61016e-05
1.60993e-05
1.60993e-05
1.60972e-05
1.60949e-05
1.60924e-05
1.60899e-05
1.60874e-05
1.6085e-05
1.60818e-05
1.60818e-05
1.60792e-05
1.60765e-05
1.60739e-05
1.60713e-05
1.60711e-05
1.60736e-05
1.60768e-05
1.60807e-05
1.60839e-05
1.60839e-05
1.60894e-05
1.60987e-05
)
;
    }
}


// ************************************************************************* //
