# p  FACE_DATA 300
# x y z  p
0.29787915 -0.05 0.060005454 11864.238
0.29366024 -0.05 0.059998184 11881.598
0.28948669 -0.05 0.059982824 11900.978
0.28535801 -0.05 0.05995956 11920.223
0.28127374 -0.05 0.05992843 11940.614
0.27723342 -0.05 0.059889544 11960.892
0.27323659 -0.05 0.059843055 11981.781
0.2692828 -0.05 0.059789027 12003.042
0.26537161 -0.05 0.059727601 12024.291
0.26150257 -0.05 0.05965892 12046.012
0.25767524 -0.05 0.059583046 12068.334
0.2538892 -0.05 0.059500074 12091.082
0.25014401 -0.05 0.059410118 12114.223
0.24643926 -0.05 0.059313284 12137.746
0.24277452 -0.05 0.059209674 12161.619
0.23914938 -0.05 0.059099387 12185.821
0.23556344 -0.05 0.058982537 12210.112
0.23201627 -0.05 0.058859254 12234.688
0.2285075 -0.05 0.058729541 12260.28
0.22503671 -0.05 0.058593532 12285.336
0.22160352 -0.05 0.058451379 12311.23
0.21820754 -0.05 0.058303115 12337.335
0.21484838 -0.05 0.058148846 12363.843
0.21152567 -0.05 0.05798866 12390.666
0.20823903 -0.05 0.057822651 12417.928
0.20498809 -0.05 0.057650874 12445.682
0.20177248 -0.05 0.057473468 12473.162
0.19859184 -0.05 0.057290478 12501.768
0.1954458 -0.05 0.057101994 12529.634
0.19233402 -0.05 0.056908168 12558.188
0.18925614 -0.05 0.056708999 12587.257
0.18621181 -0.05 0.056504563 12616.683
0.1832007 -0.05 0.056294919 12646.521
0.18022246 -0.05 0.05608023 12675.831
0.17727675 -0.05 0.055860526 12706.595
0.17436324 -0.05 0.055635849 12736.601
0.1714816 -0.05 0.055406376 12767.048
0.16863151 -0.05 0.055172052 12798.704
0.16581265 -0.05 0.054932944 12830.081
0.16302469 -0.05 0.054689208 12862.006
0.16026733 -0.05 0.054440898 12894.441
0.15754024 -0.05 0.054188056 12927.438
0.15484313 -0.05 0.053930725 12960.614
0.15217569 -0.05 0.053668978 12993.953
0.14953762 -0.05 0.053402889 13027.667
0.14692863 -0.05 0.053132457 13062.098
0.14434842 -0.05 0.052857799 13095.671
0.14179669 -0.05 0.052579044 13130.168
0.13927317 -0.05 0.05229612 13166.125
0.13677757 -0.05 0.052009061 13202.17
0.13430961 -0.05 0.051717985 13238.305
0.13186901 -0.05 0.051422994 13274.371
0.1294555 -0.05 0.05112408 13311.878
0.12706881 -0.05 0.050821224 13349.756
0.12470868 -0.05 0.050514504 13387.813
0.12237483 -0.05 0.05020403 13425.543
0.12006701 -0.05 0.049889836 13464.42
0.11778495 -0.05 0.049571874 13503.826
0.11552842 -0.05 0.049250263 13542.917
0.11329715 -0.05 0.048924992 13583.512
0.1110909 -0.05 0.048596121 13623.53
0.10890943 -0.05 0.048263656 13666.043
0.10675251 -0.05 0.047927554 13708.011
0.10461987 -0.05 0.047587958 13750.114
0.1025113 -0.05 0.047244937 13792.515
0.10042655 -0.05 0.046898432 13837.066
0.098365405 -0.05 0.046548446 13881.499
0.096327639 -0.05 0.046195043 13926.777
0.094313028 -0.05 0.045838237 13972.131
0.092321357 -0.05 0.045478019 14018.895
0.090352417 -0.05 0.04511438 14065.464
0.088405979 -0.05 0.044747421 14112.441
0.086481845 -0.05 0.044377096 14160.956
0.084579815 -0.05 0.044003384 14209.538
0.082699669 -0.05 0.043626385 14258.799
0.080841229 -0.05 0.043246005 14309.94
0.0790043 -0.05 0.042862236 14360.398
0.077188666 -0.05 0.0424752 14411.451
0.07539416 -0.05 0.04208479 14464.393
0.073620599 -0.05 0.041690997 14517.424
0.071867788 -0.05 0.041293877 14572.156
0.070135557 -0.05 0.040893384 14628.13
0.068423743 -0.05 0.040489458 14685.287
0.066732169 -0.05 0.040082112 14741.935
0.065060663 -0.05 0.039671361 14800.043
0.063409062 -0.05 0.039257174 14858.978
0.061777219 -0.05 0.038839488 14920.118
0.060164984 -0.05 0.038418265 14981.526
0.058572196 -0.05 0.037993513 15044.527
0.056998721 -0.05 0.037565159 15108.638
0.055444419 -0.05 0.03713316 15173.646
0.053909142 -0.05 0.036697516 15239.429
0.052392764 -0.05 0.03625817 15308.297
0.050895177 -0.05 0.035815009 15379.362
0.049416244 -0.05 0.035368033 15450.774
0.047955856 -0.05 0.034917167 15522.425
0.046513915 -0.05 0.034462309 15594.333
0.045090302 -0.05 0.034003445 15669.823
0.043684931 -0.05 0.033540468 15750.17
0.042297731 -0.05 0.03307324 15833.327
0.040928604 -0.05 0.032601734 15918.263
0.039577476 -0.05 0.032125845 16006.736
0.038244291 -0.05 0.03164545 16097.187
0.036928981 -0.05 0.031160474 16190.878
0.0356315 -0.05 0.030670795 16288.721
0.03435181 -0.05 0.030176299 16393.51
0.033089918 -0.05 0.029676761 16507.468
0.031845783 -0.05 0.029172106 16627.674
0.030619394 -0.05 0.02866221 16759.92
0.029410776 -0.05 0.028146878 16903.299
0.028219949 -0.05 0.027625962 17054.077
0.027046957 -0.05 0.027099267 17207.495
0.025891857 -0.05 0.026566614 17367.086
0.02475474 -0.05 0.026027768 17532.965
0.023635681 -0.05 0.025482558 17703.611
0.022534817 -0.05 0.024930717 17879.614
0.021452274 -0.05 0.024372036 18059.965
0.020388213 -0.05 0.023806274 18246.451
0.019342865 -0.05 0.023233111 18439.269
0.018316468 -0.05 0.022652259 18643.763
0.017309264 -0.05 0.02206346 18862.239
0.016321577 -0.05 0.021466368 19096.353
0.015353757 -0.05 0.020860645 19339.455
0.014406156 -0.05 0.020245997 19593.952
0.013479274 -0.05 0.019622013 19861.752
0.012573638 -0.05 0.018988323 20147.59
0.0116898 -0.05 0.018344552 20458.742
0.010828378 -0.05 0.017690314 20797.818
0.0099901249 -0.05 0.017025149 21161.322
0.0091759198 -0.05 0.016348644 21546.772
0.008386597 -0.05 0.0156605 21955.953
0.0076231725 -0.05 0.014960218 22392.017
0.0068867853 -0.05 0.014247452 22852.63
0.0061787359 -0.05 0.013521944 23344.993
0.0055003792 -0.05 0.012783302 23867.635
0.0048530826 -0.05 0.012031363 24423.872
0.0042385571 -0.05 0.011266143 25021.15
0.0036585397 -0.05 0.010487553 25660.112
0.0031148319 -0.05 0.0096957287 26330.879
0.0026094399 -0.05 0.0088912322 27028.448
0.0021442246 -0.05 0.0080745628 27748.834
0.0017210465 -0.05 0.0072465895 28487.614
0.0013418093 -0.05 0.0064087151 29244.121
0.0010080919 -0.05 0.0055623679 30001.666
0.00072127228 -0.05 0.0047092571 30749.258
0.00048251081 -0.05 0.0038515496 31479.4
0.00029236329 -0.05 0.0029916287 32175.747
0.0001508317 -0.05 0.0021320102 32822.642
5.7495879e-05 -0.05 0.0012752716 33411.457
1.1394864e-05 -0.05 0.00042397109 33936.834
0.99768066 -0.05 0.00033611804 26621.55
0.99304169 -0.05 0.0010063364 26580.494
0.98840215 -0.05 0.0016726212 26512.708
0.98376207 -0.05 0.0023350721 26452.414
0.97912143 -0.05 0.0029936636 26390.058
0.97448026 -0.05 0.00364841 26328.894
0.96983855 -0.05 0.0042993733 26267.736
0.96519632 -0.05 0.0049465845 26206.937
0.96055356 -0.05 0.0055900577 26146.356
0.95591031 -0.05 0.0062298653 26085.98
0.95126654 -0.05 0.0068660327 26025.889
0.94662227 -0.05 0.0074985225 25966.086
0.94197753 -0.05 0.0081274235 25906.549
0.9373323 -0.05 0.008752761 25847.372
0.93268659 -0.05 0.0093745713 25788.481
0.92804042 -0.05 0.0099928964 25729.981
0.92339378 -0.05 0.010607714 25671.876
0.91874669 -0.05 0.011219031 25614.191
0.91409914 -0.05 0.011826962 25556.81
0.90945116 -0.05 0.012431486 25499.976
0.90480273 -0.05 0.013032571 25443.5
0.90015387 -0.05 0.013630361 25387.453
0.89550457 -0.05 0.014224739 25332.013
0.89085486 -0.05 0.014815813 25276.834
0.88620473 -0.05 0.01540363 25222.304
0.88155418 -0.05 0.0159881 25168.19
0.87690323 -0.05 0.016569356 25114.508
0.87225187 -0.05 0.017147383 25061.311
0.86760011 -0.05 0.017722168 25008.573
0.86294796 -0.05 0.018293719 24956.312
0.85829541 -0.05 0.018862095 24904.435
0.85364248 -0.05 0.019427289 24853.086
0.84898916 -0.05 0.01998931 24802.093
0.84433547 -0.05 0.020548224 24751.575
0.83968139 -0.05 0.021103928 24701.63
0.83502695 -0.05 0.021656533 24651.915
0.83037214 -0.05 0.022206072 24602.757
0.82571697 -0.05 0.022752481 24553.95
0.82106143 -0.05 0.023295768 24505.673
0.81640552 -0.05 0.023835961 24457.658
0.81174928 -0.05 0.024373126 24410.033
0.80709266 -0.05 0.024907211 24362.749
0.80243571 -0.05 0.025438235 24315.796
0.7977784 -0.05 0.025966147 24269.306
0.79312074 -0.05 0.026490982 24223.026
0.78846275 -0.05 0.027012845 24177.015
0.78380442 -0.05 0.027531686 24131.408
0.77914574 -0.05 0.028047403 24086.229
0.77448674 -0.05 0.028560079 24041.185
0.7698274 -0.05 0.029069753 23996.519
0.76516772 -0.05 0.02957633 23952.164
0.7605077 -0.05 0.030079852 23908.022
0.75584737 -0.05 0.030580367 23864.04
0.75118671 -0.05 0.03107785 23820.296
0.74652573 -0.05 0.031572241 23776.77
0.74186441 -0.05 0.032063551 23733.402
0.73720278 -0.05 0.032551782 23690.201
0.73254082 -0.05 0.03303698 23647.045
0.72787854 -0.05 0.033519069 23604.168
0.72321595 -0.05 0.033998064 23561.21
0.71855304 -0.05 0.034473962 23518.537
0.71388981 -0.05 0.03494667 23475.866
0.70922626 -0.05 0.035416302 23433.115
0.7045624 -0.05 0.035882849 23390.32
0.69989823 -0.05 0.036346252 23347.452
0.69523375 -0.05 0.036806454 23304.548
0.69056894 -0.05 0.037263403 23261.499
0.68590382 -0.05 0.037717206 23218.07
0.68123839 -0.05 0.038167801 23174.548
0.67657265 -0.05 0.038615123 23130.593
0.67190661 -0.05 0.039059237 23086.296
0.66724025 -0.05 0.039500049 23041.634
0.66257357 -0.05 0.039937521 22996.447
0.6579066 -0.05 0.040371712 22950.551
0.65323931 -0.05 0.040802591 22903.977
0.64857171 -0.05 0.041230085 22856.592
0.6439038 -0.05 0.041654149 22808.33
0.63923558 -0.05 0.042074786 22758.932
0.63456705 -0.05 0.042492 22708.355
0.62989822 -0.05 0.042905734 22656.456
0.62522907 -0.05 0.043315943 22603.136
0.6205596 -0.05 0.043722625 22548.177
0.61588983 -0.05 0.044125719 22491.507
0.61121975 -0.05 0.044525219 22432.791
0.60654937 -0.05 0.044921074 22372.023
0.60187867 -0.05 0.045313219 22308.823
0.59720766 -0.05 0.045701683 22243.049
0.59253634 -0.05 0.046086399 22174.476
0.58786471 -0.05 0.046467288 22102.922
0.58319277 -0.05 0.046844345 22028.076
0.57852051 -0.05 0.047217535 21949.793
0.57384795 -0.05 0.047586814 21867.783
0.56917507 -0.05 0.047952124 21781.934
0.56450189 -0.05 0.048313436 21691.901
0.55982839 -0.05 0.048670677 21597.495
0.55515457 -0.05 0.04902381 21498.364
0.55048045 -0.05 0.04937281 21394.645
0.54580601 -0.05 0.04971755 21286.254
0.54113126 -0.05 0.050058049 21172.999
0.5364562 -0.05 0.050394263 21054.642
0.53178083 -0.05 0.050726133 20931.052
0.52710515 -0.05 0.051053569 20802.369
0.52242915 -0.05 0.051376464 20668.48
0.51775284 -0.05 0.051694815 20529.311
0.51307623 -0.05 0.052008601 20385.054
0.5083993 -0.05 0.052317708 20236.215
0.50372205 -0.05 0.052622097 20082.744
0.4990445 -0.05 0.052921701 19924.653
0.49436664 -0.05 0.053216429 19761.511
0.48968848 -0.05 0.053506199 19593.23
0.48501001 -0.05 0.053790938 19420.797
0.48033122 -0.05 0.054070626 19245.534
0.47565213 -0.05 0.05434516 19068.421
0.47097274 -0.05 0.054614471 18890.59
0.46629305 -0.05 0.054878504 18712.964
0.46161306 -0.05 0.055137129 18535.565
0.45693276 -0.05 0.055390258 18353.009
0.45225217 -0.05 0.05563783 18148.77
0.44757129 -0.05 0.055879797 17900.441
0.44289011 -0.05 0.056116052 17601.647
0.43820865 -0.05 0.05634646 17166.354
0.43352689 -0.05 0.056570934 16311.081
0.42884485 -0.05 0.056789428 14999.956
0.42416254 -0.05 0.057001839 13665.045
0.41947995 -0.05 0.057208045 12687.177
0.41479707 -0.05 0.057407955 12119.105
0.41011393 -0.05 0.057601449 11843.813
0.40543053 -0.05 0.057788457 11703.943
0.40074687 -0.05 0.057968848 11644.354
0.39606296 -0.05 0.058142512 11617.968
0.3913788 -0.05 0.05830933 11608.343
0.38669439 -0.05 0.058469176 11605.954
0.38200975 -0.05 0.058621944 11607.78
0.37732488 -0.05 0.058767528 11613.747
0.37263978 -0.05 0.058905769 11622.388
0.36795448 -0.05 0.059036526 11632.181
0.36326896 -0.05 0.059159727 11642.894
0.35858325 -0.05 0.059275201 11654.543
0.35389736 -0.05 0.059382803 11666.701
0.34921128 -0.05 0.05948244 11679.42
0.34452504 -0.05 0.059573923 11693.126
0.33983865 -0.05 0.059657062 11707.356
0.33515211 -0.05 0.059731741 11722.068
0.33046544 -0.05 0.059797856 11737.166
0.32577866 -0.05 0.059855197 11753.385
0.32109177 -0.05 0.059903555 11770.003
0.31640481 -0.05 0.059942821 11787.153
0.31171778 -0.05 0.059972784 11804.639
0.30703069 -0.05 0.059993273 11822.764
0.30234357 -0.05 0.060004087 11843.299
