# p  FACE_DATA 150
# x y z  p
0.29576437 -0.05 0.059999701 95976.976
0.28738431 -0.05 0.059968924 95893.325
0.27918472 -0.05 0.059906283 95811.436
0.27116186 -0.05 0.05981265 95729.366
0.26331203 -0.05 0.059689027 95647.357
0.25563166 -0.05 0.059536266 95565.531
0.24811723 -0.05 0.059355154 95483.759
0.24076528 -0.05 0.059146557 95401.92
0.23357246 -0.05 0.058911358 95319.848
0.22653546 -0.05 0.058650341 95237.763
0.21965107 -0.05 0.058364202 95155.41
0.21291613 -0.05 0.058053757 95072.143
0.20632755 -0.05 0.057719714 94989.057
0.19988232 -0.05 0.057362758 94905.483
0.19357748 -0.05 0.056983702 94821.371
0.18741014 -0.05 0.056583118 94737.365
0.18137746 -0.05 0.056161624 94652.851
0.17547671 -0.05 0.055719844 94568.21
0.16970518 -0.05 0.055258362 94482.612
0.16406021 -0.05 0.05477783 94396.209
0.15853921 -0.05 0.054278745 94309.611
0.15313967 -0.05 0.053761636 94222.079
0.14785914 -0.05 0.053226963 94134.025
0.14269518 -0.05 0.052675259 94044.299
0.13764543 -0.05 0.052106992 93954.55
0.13270762 -0.05 0.051522466 93864.11
0.12787949 -0.05 0.050922169 93772.216
0.12315883 -0.05 0.050306449 93679.532
0.11854353 -0.05 0.049675628 93585.393
0.11403148 -0.05 0.04903008 93489.819
0.10962065 -0.05 0.04837006 93392.913
0.10530908 -0.05 0.047695796 93294.554
0.10109483 -0.05 0.047007509 93194.636
0.096976017 -0.05 0.046305459 93092.559
0.092950808 -0.05 0.04558984 92988.782
0.08901745 -0.05 0.044860715 92883.675
0.085174232 -0.05 0.044118143 92776.208
0.081419479 -0.05 0.043362243 92665.413
0.077751578 -0.05 0.042593081 92551.571
0.074168981 -0.05 0.041810614 92434.938
0.070670198 -0.05 0.041014781 92315.83
0.06725379 -0.05 0.040205491 92194.738
0.06391837 -0.05 0.039382651 92071.097
0.060662655 -0.05 0.038545988 91945.571
0.057485397 -0.05 0.037695273 91815.949
0.054385413 -0.05 0.036830261 91683.82
0.051361621 -0.05 0.035950545 91548.814
0.048412992 -0.05 0.035055749 91411.178
0.045538629 -0.05 0.034145316 91271.268
0.042737712 -0.05 0.03321865 91127.653
0.040009498 -0.05 0.032275149 90979.659
0.037353406 -0.05 0.031314032 90827.907
0.034768993 -0.05 0.030334375 90670.779
0.032255944 -0.05 0.02933521 90506.529
0.029814132 -0.05 0.028315426 90339.185
0.027443661 -0.05 0.027273729 90170.663
0.025144824 -0.05 0.026208776 89998.75
0.022918276 -0.05 0.02511886 89826.651
0.020764984 -0.05 0.02400217 89650.862
0.018686283 -0.05 0.022856725 89481.664
0.016684024 -0.05 0.021680228 89328.766
0.01476059 -0.05 0.020470219 89206.591
0.012919252 -0.05 0.019223865 89131.075
0.011164249 -0.05 0.017938283 89099.256
0.0095007128 -0.05 0.016610449 89117.532
0.0079348886 -0.05 0.015236971 89204.712
0.006474941 -0.05 0.013814774 89416.211
0.0051312596 -0.05 0.012341958 89796.664
0.0039150106 -0.05 0.010816511 90393.246
0.0028396284 -0.05 0.009238845 91238.352
0.0019206554 -0.05 0.007613688 92337.446
0.0011720639 -0.05 0.0059475212 93752.834
0.00060615611 -0.05 0.004252283 95420.801
0.00023063831 -0.05 0.0025452878 97214.305
4.5460517e-05 -0.05 0.0008455405 99010.823
0.99536103 -0.05 0.00067021835 101162.21
0.98608198 -0.05 0.0020028877 101068.97
0.97680071 -0.05 0.0033200849 100942.08
0.96751731 -0.05 0.0046220425 100831.39
0.95823181 -0.05 0.0059090613 100722.68
0.94894428 -0.05 0.0071813587 100620.06
0.93965479 -0.05 0.0084391859 100521.83
0.93036339 -0.05 0.0096828487 100427.88
0.92107012 -0.05 0.010912491 100337.97
0.91177504 -0.05 0.012128333 100251.53
0.90247819 -0.05 0.013330648 100168.45
0.89317963 -0.05 0.014519511 100088.49
0.88387936 -0.05 0.015695054 100011.48
0.87457746 -0.05 0.016857552 99937.01
0.86527394 -0.05 0.01800713 99865.107
0.85596885 -0.05 0.019143875 99795.298
0.84666223 -0.05 0.020267984 99727.491
0.8373541 -0.05 0.021379502 99661.506
0.82804448 -0.05 0.022478516 99596.968
0.8187334 -0.05 0.023565119 99533.803
0.8094209 -0.05 0.024639397 99471.799
0.80010698 -0.05 0.025701394 99411.023
0.79079168 -0.05 0.026751168 99351.156
0.78147501 -0.05 0.027788748 99292.343
0.77215699 -0.05 0.028814138 99234.274
0.76283764 -0.05 0.029827333 99177.1
0.75351698 -0.05 0.030828337 99120.454
0.74419501 -0.05 0.03181713 99064.656
0.73487174 -0.05 0.032793639 99009.098
0.72554719 -0.05 0.033757832 98953.987
0.71622136 -0.05 0.034709535 98899.331
0.70689427 -0.05 0.03564879 98844.619
0.69756592 -0.05 0.036575541 98790.002
0.68823633 -0.05 0.037489546 98735.497
0.67890547 -0.05 0.03839067 98681.063
0.66957337 -0.05 0.039278803 98626.685
0.66024004 -0.05 0.040153805 98572.208
0.65090546 -0.05 0.04101549 98517.598
0.64156964 -0.05 0.041863622 98462.967
0.63223258 -0.05 0.042697993 98408.222
0.62289428 -0.05 0.043518409 98353.327
0.61355475 -0.05 0.04432459 98298.259
0.60421397 -0.05 0.045116236 98243
0.59487195 -0.05 0.045893096 98187.265
0.58552869 -0.05 0.046654869 98130.979
0.57618419 -0.05 0.047401205 98074.061
0.56683843 -0.05 0.048131797 98016.578
0.55749143 -0.05 0.048846241 97958.725
0.54814318 -0.05 0.049544112 97900.402
0.53879368 -0.05 0.050225066 97841.358
0.52944294 -0.05 0.050888717 97781.685
0.52009095 -0.05 0.051534504 97721.757
0.51073771 -0.05 0.052161963 97661.137
0.50138323 -0.05 0.052770675 97599.834
0.49202751 -0.05 0.05336005 97537.713
0.48267057 -0.05 0.053929509 97474.558
0.47331239 -0.05 0.054478508 97410.348
0.46395301 -0.05 0.055006444 97345.25
0.45459243 -0.05 0.05551264 97279.257
0.44523065 -0.05 0.055996468 97212.241
0.43586772 -0.05 0.056457197 97144.535
0.42650365 -0.05 0.05689408 97075.807
0.41713847 -0.05 0.057306402 97006.117
0.4077722 -0.05 0.057693321 96935.511
0.39840488 -0.05 0.058053993 96863.541
0.38903656 -0.05 0.058387503 96789.985
0.37966728 -0.05 0.058692933 96714.783
0.3702971 -0.05 0.058969274 96638.509
0.36092607 -0.05 0.059215505 96560.55
0.35155429 -0.05 0.059430617 96481.135
0.34218182 -0.05 0.059613395 96400.853
0.33280876 -0.05 0.059762649 96319.599
0.3234352 -0.05 0.059877122 96236.322
0.31406128 -0.05 0.059955444 96148.891
0.30468712 -0.05 0.059996221 96059.024
