/*--------------------------------*- C++ -*----------------------------------*\
| =========                 |                                                 |
| \\      /  F ield         | OpenFOAM: The Open Source CFD Toolbox           |
|  \\    /   O peration     | Version:  2306                                  |
|   \\  /    A nd           | Website:  www.openfoam.com                      |
|    \\/     M anipulation  |                                                 |
\*---------------------------------------------------------------------------*/
FoamFile
{
    version     2.0;
    format      ascii;
    arch        "LSB;label=32;scalar=64";
    class       volScalarField;
    location    "325";
    object      turbulenceProperties:I;
}
// * * * * * * * * * * * * * * * * * * * * * * * * * * * * * * * * * * * * * //

dimensions      [0 0 0 0 0 0 0];

internalField   nonuniform List<scalar> 
1340
(
0.0170009
0.0134871
0.00874438
0.00732223
0.00706321
0.00731386
0.00787063
0.00865655
0.00966567
0.0109376
0.0125661
0.014696
0.0175302
0.0214021
0.0267175
0.0344041
0.0453559
0.0627063
0.0884356
0.130971
0.18682
0.221533
0.234697
0.238639
0.240293
0.241517
0.242567
0.243552
0.00583258
0.0071563
0.00638536
0.0044688
0.00313697
0.00234261
0.00183781
0.00149011
0.00123549
0.00104043
0.000884627
0.000756358
0.000645179
0.000542935
0.000438692
0.000325465
0.000185345
7.26325e-05
0.000112926
0.00129835
0.00295676
0.00829944
0.0151185
0.0210804
0.0257802
0.0293922
0.0322548
0.0347421
0.0371128
0.00405554
0.00446465
0.00424739
0.00349912
0.0027225
0.00212294
0.00168617
0.00136399
0.00112259
0.000938017
0.000796244
0.00068717
0.00060437
0.000541353
0.000494094
0.000459262
0.000434788
0.000416885
0.000406319
0.000396897
0.000402792
0.000306706
0.000797054
0.00202943
0.00340302
0.00491148
0.00734724
0.0106604
0.0142955
0.00268408
0.0029908
0.0031691
0.00308248
0.00273214
0.00229125
0.0018938
0.00157502
0.00132689
0.00113421
0.000982825
0.000863061
0.000767376
0.000690475
0.000627419
0.000575263
0.000531012
0.000491958
0.000454129
0.000417917
0.000387954
0.000364834
0.000347675
0.000328754
0.000305536
0.00026358
0.000208734
0.000577946
0.000761552
0.00145821
0.00216716
0.00233681
0.0024298
0.00238896
0.00220578
0.00194555
0.0016775
0.00143641
0.00123114
0.00106007
0.00091825
0.000800863
0.000703807
0.000623766
0.000557547
0.000502732
0.00045687
0.000417566
0.000381169
0.000345842
0.000313551
0.000287153
0.000267938
0.000258179
0.000246278
0.000270879
0.000131356
0.000334886
0.00072579
0.00114232
0.00167233
0.00179419
0.00189741
0.0019526
0.00193054
0.00182489
0.00166333
0.00148175
0.00130513
0.00114537
0.00100625
0.000887472
0.000787106
0.00070284
0.000632318
0.000573139
0.000523145
0.000480128
0.000441896
0.000405667
0.000370131
0.000337011
0.00030785
0.000282865
0.000261391
0.0002431
0.000227105
0.000212266
0.000188815
0.000151596
3.97944e-06
0.00143478
0.00151694
0.00158486
0.0016204
0.00160719
0.00154206
0.00143761
0.00131266
0.00118299
0.00105854
0.000944481
0.000842659
0.000753147
0.000675316
0.000608118
0.000550181
0.00050015
0.000456514
0.000417585
0.00038119
0.000346012
0.000313032
0.000283559
0.000257952
0.000235848
0.000217198
0.000202689
0.000192965
0.000187379
0.000181157
0.000174037
0.00124697
0.00130455
0.00135165
0.00137589
0.00136752
0.00132522
0.00125499
0.00116723
0.00107167
0.000975564
0.000883731
0.000798811
0.000721899
0.000653391
0.000593049
0.000540171
0.000493813
0.000452835
0.00041587
0.000381235
0.000347923
0.000316643
0.000288365
0.000263267
0.000240844
0.000220655
0.00020261
0.000186479
0.000172025
0.000159065
0.000149777
0.00104972
0.00109557
0.00113746
0.00117138
0.00118861
0.00118313
0.00115447
0.00110575
0.0010429
0.000971904
0.000897728
0.000824166
0.000753714
0.000687866
0.000627455
0.000572767
0.000523664
0.000479698
0.000440135
0.000403992
0.000370081
0.000337649
0.000307112
0.000279299
0.000254475
0.00023232
0.000212533
0.000195132
0.000180434
0.000168802
0.000160572
0.000156179
0.000971494
0.00100289
0.00102802
0.00104061
0.00103697
0.0010169
0.000982169
0.000936327
0.000883064
0.000825659
0.000766958
0.000709031
0.000653308
0.000600857
0.000552222
0.000507619
0.000466938
0.000429767
0.000395438
0.000363149
0.00033233
0.000303292
0.000276693
0.000252764
0.00023123
0.000211768
0.000194282
0.000178801
0.000165291
0.000154249
0.000146081
0.000892369
0.000911395
0.000920811
0.00091836
0.000903944
0.000878583
0.000844545
0.000804175
0.000759613
0.000712825
0.000665403
0.000618566
0.000573314
0.000530343
0.00049004
0.000452511
0.000417613
0.000384963
0.000354046
0.000324522
0.00029664
0.000270914
0.00024759
0.0002265
0.00020742
0.000190318
0.000175334
0.000162687
0.000152896
0.000146249
0.000814733
0.000821914
0.000820233
0.000809613
0.000790733
0.000765078
0.000734163
0.000699349
0.000662032
0.000623338
0.000584191
0.000545473
0.000507832
0.000471769
0.000437549
0.000405202
0.000374527
0.000345247
0.000317242
0.000290721
0.000266106
0.000243628
0.000223189
0.00020461
0.000187839
0.000172977
0.000160127
0.000149745
0.000142323
0.000738922
0.000737739
0.000729769
0.000715466
0.000695833
0.000671899
0.000644564
0.000614718
0.00058316
0.000550569
0.000517634
0.00048492
0.000452901
0.000421913
0.000392101
0.000363432
0.000335828
0.000309304
0.000284087
0.000260522
0.000238837
0.000218998
0.000200883
0.000184473
0.000169896
0.000157321
0.000147209
0.000140048
0.000667457
0.000661358
0.000650338
0.000635129
0.000616423
0.000594796
0.000570867
0.000545135
0.000518058
0.000490162
0.000461901
0.000433682
0.000405833
0.000378575
0.000351989
0.000326148
0.000301179
0.000277314
0.000254868
0.000234056
0.000214891
0.000197301
0.000181284
0.000166965
0.00015449
0.000144288
0.000136854
0.000602141
0.000593533
0.000581593
0.000566821
0.000549601
0.000530322
0.000509319
0.000486866
0.000463315
0.000439004
0.000414269
0.000389419
0.00036469
0.000340215
0.000316137
0.0002927
0.000270183
0.000248862
0.000228935
0.000210456
0.000193399
0.000177782
0.000163743
0.000151437
0.000141293
0.000133785
0.000550412
0.000543589
0.000534117
0.000522349
0.000508529
0.000492934
0.000475734
0.000457109
0.000437269
0.000416443
0.00039488
0.000372832
0.000350527
0.000328126
0.000305845
0.000283973
0.000262817
0.000242633
0.000223619
0.000205858
0.000189362
0.000174166
0.000160414
0.000148257
0.000138106
0.00013042
0.000499403
0.000491792
0.000482318
0.000471155
0.000458466
0.000444352
0.000428884
0.000412193
0.000394401
0.000375685
0.000356231
0.000336226
0.00031584
0.00029532
0.000275001
0.00025519
0.000236147
0.000218061
0.000201035
0.000185115
0.000170353
0.000156895
0.000144897
0.000134756
0.000126916
0.000460057
0.00045388
0.000446187
0.000437094
0.000426713
0.000415081
0.000402214
0.000388169
0.000373001
0.000356802
0.00033971
0.000321877
0.000303442
0.000284637
0.000265817
0.000247338
0.000229437
0.000212291
0.000196019
0.000180691
0.000166376
0.000153217
0.000141376
0.00013123
0.000123206
0.000419771
0.000413465
0.000406
0.000397451
0.000387826
0.000377096
0.000365266
0.000352343
0.000338368
0.000323405
0.000307557
0.000290946
0.000273804
0.000256477
0.000239307
0.000222531
0.000206323
0.000190811
0.000176084
0.000162223
0.000149368
0.000137686
0.000127529
0.00011931
0.000388958
0.000383735
0.000377563
0.000370479
0.000362471
0.000353495
0.00034352
0.000332509
0.00032046
0.000307402
0.000293384
0.000278484
0.000262916
0.000247019
0.000231117
0.000215446
0.000200172
0.000185426
0.000171308
0.000157909
0.000145363
0.000133839
0.000123661
0.000115228
0.000361017
0.000356654
0.000351505
0.000345598
0.000338901
0.000331359
0.000322927
0.000313544
0.000303168
0.000291784
0.000279416
0.000266108
0.000252028
0.000237483
0.000222803
0.000208213
0.000193863
0.000179882
0.000166376
0.000153443
0.000141207
0.000129838
0.000119626
0.000110963
0.000331924
0.00032759
0.000322622
0.000316992
0.00031063
0.000303479
0.000295466
0.000286529
0.000276625
0.000265734
0.000253871
0.000241172
0.00022792
0.000214417
0.00020087
0.000187424
0.000174198
0.000161302
0.000148835
0.000136912
0.000125693
0.000115437
0.000106522
0.000309277
0.0003056
0.000301397
0.000296628
0.000291233
0.000285149
0.000278292
0.000270585
0.000261968
0.000252394
0.000241845
0.000230426
0.000218383
0.000205997
0.000193448
0.000180878
0.000168396
0.000156108
0.000144107
0.000132496
0.000121422
0.000111108
0.000101918
0.000285351
0.00028176
0.000277696
0.000273098
0.0002679
0.000262015
0.000255361
0.000247864
0.000239454
0.000230088
0.000219838
0.000208915
0.000197571
0.000185983
0.00017426
0.000162505
0.000150816
0.000139278
0.000127978
0.000117047
0.000106664
9.71701e-05
0.000266672
0.000263584
0.000260095
0.00025615
0.000251688
0.000246622
0.000240862
0.000234329
0.00022694
0.000218634
0.000209449
0.000199566
0.0001892
0.000178517
0.000167604
0.000156555
0.000145453
0.000134372
0.000123384
0.000112592
0.00010213
9.23e-05
0.000249419
0.000246739
0.000243725
0.000240321
0.000236468
0.000232089
0.000227093
0.000221392
0.000214893
0.000207522
0.000199296
0.000190361
0.000180912
0.000171077
0.000160939
0.000150572
0.000140043
0.000129416
0.000118739
0.000108084
9.75357e-05
8.73386e-05
0.000231117
0.000228491
0.000225535
0.000222195
0.000218391
0.00021404
0.000209055
0.000203336
0.000196794
0.000189432
0.000181362
0.000172754
0.000163715
0.000154309
0.000144594
0.000134624
0.000124444
0.000114078
0.000103563
9.29261e-05
8.23282e-05
0.000216619
0.000214314
0.00021173
0.000208814
0.000205496
0.000201694
0.000197319
0.000192276
0.000186467
0.000179875
0.000172591
0.000164754
0.000156454
0.00014774
0.00013865
0.000129225
0.000119487
0.000109437
9.90735e-05
8.83532e-05
7.73263e-05
0.000203152
0.000201114
0.000198839
0.00019628
0.000193371
0.000190034
0.000186187
0.000181729
0.000176562
0.000170656
0.000164077
0.000156949
0.000149335
0.000141271
0.000132779
0.000123881
0.000114583
0.000104856
9.46607e-05
8.38763e-05
7.24082e-05
0.000188818
0.000186803
0.000184545
0.000181982
0.000179041
0.000175645
0.000171694
0.00016709
0.000161794
0.000155855
0.000149368
0.00014239
0.000134934
0.000127011
0.000118626
0.000109765
0.000100376
9.03765e-05
7.95697e-05
6.76805e-05
0.000177365
0.000175567
0.000173561
0.000171291
0.000168689
0.00016568
0.000162172
0.000158061
0.000153304
0.000147939
0.000142039
0.000135646
0.00012876
0.00012138
0.000113495
0.000105073
9.60429e-05
8.62792e-05
7.55169e-05
6.32812e-05
0.000165077
0.000163287
0.000161266
0.000158955
0.000156281
0.000153155
0.000149478
0.000145201
0.000140348
0.000134983
0.000129128
0.000122778
0.000115916
0.00010852
0.000100544
9.18955e-05
8.24221e-05
7.1802e-05
5.93795e-05
0.000155286
0.000153679
0.000151873
0.00014981
0.000147424
0.000144632
0.000141337
0.000137487
0.000133098
0.000128216
0.000122859
0.00011701
0.000110646
0.000103729
9.62066e-05
8.79728e-05
7.88569e-05
6.85098e-05
5.61617e-05
0.000146144
0.000144696
0.000143075
0.000141229
0.000139096
0.000136595
0.000133635
0.000130164
0.000126191
0.000121753
0.000116858
0.000111481
0.000105592
9.91479e-05
9.20894e-05
8.43066e-05
7.56242e-05
6.57018e-05
5.37787e-05
0.000136301
0.000134841
0.000133183
0.000131269
0.000129025
0.000126365
0.000123234
0.000119637
0.000115603
0.000111134
0.000106202
0.000100771
9.47968e-05
8.82136e-05
8.09189e-05
7.27487e-05
6.3408e-05
5.22823e-05
0.000128458
0.000127138
0.000125645
0.000123926
0.000121909
0.000119514
0.000116688
0.000113432
0.00010977
0.000105698
0.000101186
9.61979e-05
9.06863e-05
8.459e-05
7.78167e-05
7.02304e-05
6.16104e-05
5.15797e-05
0.00012113
0.000119936
0.000118589
0.000117041
0.000115226
0.000113069
0.000110518
0.000107574
0.000104254
0.000100552
9.64382e-05
9.18767e-05
8.68221e-05
8.12212e-05
7.49961e-05
6.8049e-05
6.02494e-05
5.14685e-05
0.000113203
0.000111987
0.000110592
0.000108959
0.000107016
0.000104715
0.000102054
9.90495e-05
9.56944e-05
9.19586e-05
8.7808e-05
8.32039e-05
7.80996e-05
7.24394e-05
6.61643e-05
5.9231e-05
5.17092e-05
0.000106911
0.000105812
0.000104555
0.000103085
0.000101336
9.92627e-05
9.6863e-05
9.4151e-05
9.11195e-05
8.77413e-05
8.39859e-05
7.98207e-05
7.52092e-05
7.01163e-05
6.45207e-05
5.84486e-05
0.000101031
0.000100038
9.89061e-05
9.75843e-05
9.60115e-05
9.41465e-05
9.19871e-05
8.9546e-05
8.68176e-05
8.37777e-05
8.04e-05
7.66582e-05
7.25278e-05
6.79915e-05
6.30579e-05
5.78008e-05
9.46395e-05
9.36212e-05
9.2434e-05
9.10222e-05
8.93479e-05
8.74099e-05
8.52212e-05
8.27758e-05
8.0054e-05
7.70343e-05
7.36972e-05
7.00279e-05
6.60244e-05
6.17163e-05
5.72021e-05
8.95912e-05
8.86761e-05
8.76121e-05
8.63484e-05
8.48497e-05
8.31159e-05
8.11601e-05
7.89782e-05
7.65542e-05
7.38711e-05
7.09159e-05
6.76815e-05
6.41769e-05
6.04441e-05
5.65885e-05
8.48675e-05
8.40487e-05
8.30982e-05
8.1969e-05
8.06312e-05
7.90859e-05
7.73458e-05
7.54087e-05
7.32612e-05
7.08916e-05
6.82914e-05
6.54605e-05
6.24141e-05
5.91989e-05
5.5916e-05
7.97162e-05
7.88679e-05
7.78632e-05
7.66741e-05
7.5302e-05
7.37603e-05
7.20482e-05
7.0156e-05
6.80753e-05
6.58018e-05
6.33393e-05
6.07066e-05
5.79497e-05
5.51585e-05
7.56559e-05
7.49033e-05
7.40124e-05
7.2959e-05
7.17457e-05
7.03856e-05
6.88799e-05
6.72214e-05
6.54045e-05
6.34275e-05
6.12971e-05
5.90327e-05
5.6676e-05
5.43033e-05
7.18493e-05
7.11833e-05
7.03958e-05
6.94666e-05
6.83987e-05
6.72047e-05
6.58869e-05
6.44403e-05
6.28616e-05
6.11512e-05
5.93165e-05
5.7376e-05
5.53658e-05
5.33474e-05
6.76894e-05
6.69972e-05
6.61807e-05
6.52448e-05
6.42014e-05
6.30534e-05
6.17976e-05
6.04323e-05
5.89589e-05
5.73848e-05
5.57267e-05
5.40142e-05
5.22955e-05
6.44048e-05
6.37986e-05
6.30849e-05
6.22684e-05
6.13608e-05
6.03651e-05
5.92797e-05
5.81038e-05
5.68394e-05
5.54932e-05
5.40793e-05
5.26211e-05
5.11557e-05
6.13131e-05
6.07851e-05
6.01642e-05
5.9455e-05
5.86686e-05
5.78089e-05
5.68745e-05
5.58653e-05
5.47837e-05
5.36353e-05
5.24312e-05
5.11897e-05
4.99381e-05
5.83996e-05
5.79415e-05
5.74036e-05
5.67903e-05
5.61122e-05
5.53726e-05
5.45708e-05
5.37076e-05
5.27845e-05
5.18064e-05
5.07819e-05
4.97246e-05
4.8654e-05
5.52537e-05
5.47898e-05
5.42614e-05
5.36782e-05
5.30437e-05
5.23579e-05
5.1621e-05
5.08346e-05
5.00026e-05
4.91311e-05
4.82298e-05
4.73127e-05
5.27072e-05
5.23078e-05
5.18537e-05
5.13534e-05
5.08104e-05
5.02246e-05
4.95962e-05
4.8927e-05
4.82194e-05
4.74778e-05
4.67088e-05
4.59219e-05
5.02864e-05
4.99432e-05
4.9553e-05
4.91241e-05
4.86594e-05
4.81591e-05
4.76235e-05
4.70537e-05
4.64516e-05
4.582e-05
4.51632e-05
4.79761e-05
4.76802e-05
4.73443e-05
4.69761e-05
4.65779e-05
4.615e-05
4.56931e-05
4.52075e-05
4.46945e-05
4.41559e-05
4.35942e-05
4.55044e-05
4.52144e-05
4.48971e-05
4.45549e-05
4.41883e-05
4.37978e-05
4.33835e-05
4.29459e-05
4.24861e-05
4.20052e-05
4.34052e-05
4.31534e-05
4.28792e-05
4.25847e-05
4.22702e-05
4.1936e-05
4.15821e-05
4.12086e-05
4.08159e-05
4.04039e-05
4.13774e-05
4.11588e-05
4.09216e-05
4.06682e-05
4.03986e-05
4.01128e-05
3.98107e-05
3.94922e-05
3.91568e-05
3.88041e-05
3.94241e-05
3.9235e-05
3.9031e-05
3.8814e-05
3.85837e-05
3.834e-05
3.80829e-05
3.78117e-05
3.75257e-05
3.72239e-05
3.75537e-05
3.73919e-05
3.72179e-05
3.70331e-05
3.68373e-05
3.66304e-05
3.64119e-05
3.61812e-05
3.59374e-05
3.56793e-05
3.56362e-05
3.54882e-05
3.53311e-05
3.51646e-05
3.49884e-05
3.48022e-05
3.46054e-05
3.43969e-05
3.41756e-05
3.39632e-05
3.38357e-05
3.37001e-05
3.35563e-05
3.34042e-05
3.32436e-05
3.30739e-05
3.28942e-05
3.27032e-05
3.23536e-05
3.22392e-05
3.21178e-05
3.19897e-05
3.18549e-05
3.17132e-05
3.15642e-05
3.14072e-05
3.07799e-05
3.06717e-05
3.05581e-05
3.04395e-05
3.03162e-05
3.01881e-05
3.00548e-05
2.99158e-05
2.92229e-05
2.9116e-05
2.90056e-05
2.88925e-05
2.87768e-05
2.86584e-05
2.85371e-05
2.84125e-05
2.76828e-05
2.75752e-05
2.74662e-05
2.73564e-05
2.72461e-05
2.71352e-05
2.70235e-05
2.6911e-05
2.60676e-05
2.5959e-05
2.58512e-05
2.57446e-05
2.5639e-05
2.55352e-05
2.54322e-05
2.46383e-05
2.45291e-05
2.4422e-05
2.43172e-05
2.42157e-05
2.41173e-05
2.40212e-05
2.34083e-05
2.32978e-05
2.31897e-05
2.30845e-05
2.29835e-05
2.2886e-05
2.27928e-05
2.23826e-05
2.22721e-05
2.21632e-05
2.20571e-05
2.19542e-05
2.18552e-05
2.17613e-05
2.14174e-05
2.13084e-05
2.12001e-05
2.10936e-05
2.09892e-05
2.08886e-05
2.07924e-05
2.04546e-05
2.03445e-05
2.02343e-05
2.01245e-05
2.00171e-05
1.99135e-05
1.98142e-05
1.95164e-05
1.93989e-05
1.9278e-05
1.91551e-05
1.90332e-05
1.89144e-05
1.85577e-05
1.84246e-05
1.82863e-05
1.81445e-05
1.80015e-05
1.7859e-05
1.74186e-05
1.72233e-05
1.70217e-05
1.68192e-05
1.66216e-05
1.64336e-05
1.57383e-05
1.54192e-05
1.50782e-05
1.47214e-05
1.43562e-05
1.39601e-05
1.36e-05
1.32597e-05
1.2955e-05
1.27023e-05
1.38769e-05
1.36462e-05
1.34693e-05
1.33446e-05
1.32664e-05
1.87958e-05
1.94799e-05
2.01228e-05
2.07153e-05
2.12492e-05
2.89541e-05
2.91979e-05
2.93893e-05
2.95307e-05
2.96296e-05
4.03722e-05
4.06296e-05
4.08177e-05
4.09411e-05
4.10121e-05
)
;

boundaryField
{
    inlet
    {
        type            calculated;
        value           nonuniform List<scalar> 5(7.09821e-05 7.19605e-05 7.283e-05 7.3596e-05 7.42633e-05);
    }
    outlet
    {
        type            calculated;
        value           nonuniform List<scalar> 0();
    }
    walls
    {
        type            calculated;
        value           uniform 0;
    }
    frontAndBack
    {
        type            empty;
    }
    procBoundary1to0
    {
        type            processor;
        value           nonuniform List<scalar> 
94
(
0.000936861
0.000936861
0.000868271
0.000868271
0.000800068
0.000800068
0.000733366
0.000733366
0.000668321
0.000668321
0.000606893
0.000606893
0.000554179
0.00050488
0.00050488
0.000464515
0.000424845
0.000424845
0.000393169
0.000364557
0.000335609
0.000335609
0.000312421
0.000288504
0.000288504
0.000269394
0.000251796
0.000233464
0.000233464
0.000218688
0.000204991
0.000190633
0.000190633
0.000178993
0.000166689
0.000166689
0.000156737
0.000147461
0.00013761
0.00013761
0.000129646
0.000122211
0.000114286
0.000114286
0.000107893
0.000101921
9.55346e-05
9.55346e-05
9.03982e-05
8.55933e-05
8.04483e-05
8.04483e-05
7.63074e-05
7.24269e-05
6.82759e-05
6.82759e-05
6.49188e-05
6.17614e-05
5.87888e-05
5.56489e-05
5.56489e-05
5.30474e-05
5.05787e-05
4.82279e-05
4.57606e-05
4.57606e-05
4.36281e-05
4.1572e-05
3.95933e-05
3.76991e-05
3.57738e-05
3.57738e-05
3.40816e-05
3.24598e-05
3.08812e-05
2.93244e-05
2.77867e-05
2.61765e-05
2.61765e-05
2.47491e-05
2.35212e-05
2.24941e-05
2.15259e-05
2.0563e-05
1.96293e-05
1.86839e-05
1.76016e-05
1.60309e-05
1.60309e-05
1.43276e-05
1.41573e-05
1.80641e-05
2.86688e-05
4.00367e-05
)
;
    }
    procBoundary1to2
    {
        type            processor;
        value           nonuniform List<scalar> 
84
(
0.244662
0.0396022
0.0179022
0.00340468
0.00161738
2.16952e-05
0.000118518
0.000141073
0.000157993
0.000145277
0.000146269
0.000141065
0.000138541
0.000134814
0.000131372
0.000127541
0.000123585
0.000119399
0.000115022
0.000110443
0.000105669
0.0001007
9.55422e-05
9.02041e-05
8.46913e-05
7.90159e-05
7.31939e-05
6.72496e-05
6.12252e-05
5.52055e-05
4.93623e-05
4.40575e-05
3.9967e-05
3.79348e-05
3.81842e-05
3.99208e-05
4.21707e-05
4.43589e-05
5.2092e-05
5.2092e-05
5.24649e-05
5.2731e-05
5.28369e-05
5.27578e-05
5.24887e-05
5.20365e-05
5.14147e-05
5.06407e-05
4.97341e-05
4.87132e-05
4.75957e-05
4.63965e-05
4.51272e-05
4.44869e-05
4.44869e-05
4.30123e-05
4.15043e-05
3.99727e-05
3.84332e-05
3.69051e-05
3.54052e-05
3.39396e-05
3.24993e-05
3.1241e-05
3.1241e-05
2.977e-05
2.82836e-05
2.67963e-05
2.53293e-05
2.3928e-05
2.27038e-05
2.16716e-05
2.07001e-05
1.97198e-05
1.88005e-05
1.88005e-05
1.77189e-05
1.626e-05
1.39917e-05
1.25149e-05
1.32204e-05
2.17164e-05
2.96971e-05
4.10416e-05
)
;
    }
    procBoundary1to5
    {
        type            processor;
        value           nonuniform List<scalar> 
13
(
0.0101819
0.0101819
0.00439698
0.00342246
0.00342246
0.00237221
0.00197613
0.00197613
0.00155019
0.00134883
0.00118506
0.00118506
0.00100279
)
;
    }
}


// ************************************************************************* //
