/*--------------------------------*- C++ -*----------------------------------*\
| =========                 |                                                 |
| \\      /  F ield         | OpenFOAM: The Open Source CFD Toolbox           |
|  \\    /   O peration     | Version:  2306                                  |
|   \\  /    A nd           | Website:  www.openfoam.com                      |
|    \\/     M anipulation  |                                                 |
\*---------------------------------------------------------------------------*/
FoamFile
{
    version     2.0;
    format      ascii;
    arch        "LSB;label=32;scalar=64";
    class       volScalarField;
    location    "325";
    object      turbulenceProperties:k;
}
// * * * * * * * * * * * * * * * * * * * * * * * * * * * * * * * * * * * * * //

dimensions      [0 2 -2 0 0 0 0];

internalField   nonuniform List<scalar> 
1340
(
0.00288544
0.00301459
0.00406888
0.00602982
0.00903097
0.0133949
0.019633
0.0284136
0.0408101
0.0586526
0.0853303
0.127048
0.195027
0.311574
0.51776
0.911092
1.66826
3.31896
6.78739
15.1702
31.2614
44.3016
49.898
51.4856
51.7454
51.4475
50.7198
49.5995
0.00215693
0.00189739
0.00165753
0.00141953
0.00119304
0.000996973
0.000831326
0.00069082
0.000571743
0.000471406
0.000386287
0.000314254
0.000251126
0.000193458
0.000136417
8.06521e-05
2.79562e-05
4.55922e-06
1.15917e-05
0.00159513
0.00853711
0.0688074
0.2314
0.451706
0.673346
0.867676
1.03104
1.1748
1.30933
0.00172494
0.00155025
0.0013879
0.00122092
0.00104123
0.000867232
0.000711511
0.000577421
0.000466718
0.000377337
0.000307682
0.000254852
0.000216427
0.000188826
0.000169809
0.000157467
0.000150687
0.000146969
0.000146796
0.000145853
0.000155147
9.22806e-05
0.00063542
0.0041752
0.011832
0.0247044
0.0551078
0.11498
0.203542
0.00145618
0.00135258
0.00124234
0.00112757
0.001003
0.000874252
0.000753544
0.000646899
0.00055499
0.000477334
0.000412232
0.000358672
0.000315051
0.000280041
0.00025154
0.000228381
0.000208929
0.000191497
0.000173165
0.000154331
0.000138676
0.000126851
0.000118352
0.000108055
9.47539e-05
7.12096e-05
4.48713e-05
0.000343974
0.000594309
0.00215602
0.00115758
0.00108662
0.00101044
0.000929212
0.000840054
0.000747301
0.00065654
0.000571302
0.000493071
0.000422895
0.000361221
0.000308197
0.000263591
0.000226883
0.000196957
0.000172796
0.000153096
0.000136457
0.000120588
0.000104461
8.95691e-05
7.77444e-05
6.95761e-05
6.59927e-05
6.09834e-05
7.45101e-05
1.76054e-05
0.000114428
0.00053498
0.00131228
0.000979267
0.000935399
0.000884908
0.000830734
0.00077183
0.000706711
0.000638513
0.000570633
0.000505675
0.000445152
0.000390118
0.000341258
0.000298786
0.000262582
0.000232223
0.00020693
0.000185818
0.000167766
0.000151533
0.000135381
0.00011861
0.000102642
8.87139e-05
7.70582e-05
6.72833e-05
5.91576e-05
5.21937e-05
4.58585e-05
3.63146e-05
2.33153e-05
1.59152e-08
0.000799178
0.000766735
0.000730275
0.000690535
0.000646772
0.000598784
0.000548344
0.000497358
0.000447372
0.000399452
0.000354493
0.000313213
0.000276008
0.00024312
0.000214549
0.000189958
0.000168873
0.000150591
0.000134207
0.000118463
0.000102698
8.77609e-05
7.46302e-05
6.35789e-05
5.4379e-05
4.69102e-05
4.13229e-05
3.76885e-05
3.55841e-05
3.31421e-05
3.03143e-05
0.000660888
0.000636121
0.000609065
0.00057924
0.000546216
0.000510389
0.000472565
0.00043393
0.000395437
0.000357807
0.000321775
0.000288039
0.000257024
0.000229103
0.000204414
0.000182815
0.000163958
0.000147314
0.000132158
0.000117542
0.000102967
8.90601e-05
7.65846e-05
6.57541e-05
5.63417e-05
4.8138e-05
4.10845e-05
3.50465e-05
2.98824e-05
2.54732e-05
2.23941e-05
0.000568123
0.000552294
0.000533184
0.000512585
0.000489769
0.00046454
0.000437418
0.000408783
0.000379311
0.000349573
0.000320012
0.000291138
0.000263481
0.000237455
0.000213405
0.000191546
0.00017191
0.000154349
0.000138527
0.000123939
0.000109947
9.62023e-05
8.31056e-05
7.12874e-05
6.09864e-05
5.20697e-05
4.43847e-05
3.78971e-05
3.26498e-05
2.86483e-05
2.58595e-05
2.42688e-05
0.000465673
0.000450759
0.000434709
0.000416944
0.000397483
0.000376703
0.000354794
0.00033216
0.000309096
0.000285839
0.000262764
0.000240258
0.00021864
0.000198258
0.000179332
0.000161972
0.000146144
0.000131645
0.000118129
0.000105173
9.25105e-05
8.04348e-05
6.9441e-05
5.97418e-05
5.12412e-05
4.37998e-05
3.73646e-05
3.19083e-05
2.73546e-05
2.37771e-05
2.11668e-05
0.000383837
0.000371112
0.000357076
0.000341909
0.000325833
0.000308904
0.00029138
0.000273419
0.000255126
0.000236709
0.000218441
0.000200557
0.000183328
0.000166986
0.000151666
0.000137388
0.000124066
0.000111492
9.93946e-05
8.76211e-05
7.63916e-05
6.60894e-05
5.69196e-05
4.88416e-05
4.17636e-05
3.56573e-05
3.05317e-05
2.63842e-05
2.32732e-05
2.11464e-05
0.000318633
0.000307417
0.000295475
0.000282896
0.000269707
0.000256057
0.000242008
0.000227566
0.000212873
0.000198091
0.000183361
0.000168903
0.000154897
0.000141503
0.000128792
0.000116737
0.000105211
9.40592e-05
8.32282e-05
7.28823e-05
6.33237e-05
5.47373e-05
4.71153e-05
4.03929e-05
3.45422e-05
2.95688e-05
2.54485e-05
2.22388e-05
1.99611e-05
0.000265882
0.000256383
0.000246459
0.000236099
0.000225383
0.000214331
0.000202917
0.000191179
0.00017922
0.000167127
0.000155053
0.000143134
0.000131506
0.000120256
0.000109399
9.88854e-05
8.86506e-05
7.8695e-05
6.91651e-05
6.02966e-05
5.22588e-05
4.50721e-05
3.86999e-05
3.31298e-05
2.83815e-05
2.44549e-05
2.14081e-05
1.92638e-05
0.00022326
0.000215356
0.000207148
0.000198688
0.000189957
0.000180893
0.000171515
0.000161852
0.000151943
0.000141893
0.000131805
0.00012178
0.000111896
0.0001022
9.26894e-05
8.33689e-05
7.42764e-05
6.55386e-05
5.73536e-05
4.98698e-05
4.3126e-05
3.71092e-05
3.18165e-05
2.72722e-05
2.34763e-05
2.04856e-05
1.83334e-05
0.000188682
0.000182134
0.000175403
0.000168463
0.000161245
0.000153729
0.000145923
0.000137823
0.000129485
0.000120976
0.000112373
0.000103752
9.5164e-05
8.66281e-05
7.81759e-05
6.9891e-05
6.19031e-05
5.43711e-05
4.74239e-05
4.11136e-05
3.54463e-05
3.04302e-05
2.60966e-05
2.2455e-05
1.95656e-05
1.74609e-05
0.0001657
0.000160433
0.00015505
0.000149507
0.00014373
0.000137696
0.000131374
0.000124754
0.000117851
0.000110704
0.000103363
9.58841e-05
8.832e-05
8.07036e-05
7.30968e-05
6.55939e-05
5.83218e-05
5.1415e-05
4.49904e-05
3.91074e-05
3.37866e-05
2.90452e-05
2.49193e-05
2.14233e-05
1.86175e-05
1.65371e-05
0.00014156
0.00013722
0.000132763
0.000128124
0.00012326
0.000118138
0.000112724
0.000107021
0.000101034
9.47967e-05
8.8346e-05
8.17215e-05
7.49648e-05
6.81505e-05
6.13864e-05
5.47869e-05
4.84758e-05
4.25555e-05
3.70886e-05
3.21078e-05
2.76378e-05
2.3718e-05
2.03695e-05
1.76536e-05
1.56065e-05
0.000125092
0.000121573
0.00011797
0.000114221
0.000110287
0.000106125
0.000101695
9.69825e-05
9.19796e-05
8.66949e-05
8.11553e-05
7.53928e-05
6.94405e-05
6.33658e-05
5.72827e-05
5.13173e-05
4.55726e-05
4.01373e-05
3.5075e-05
3.04267e-05
2.62233e-05
2.25066e-05
1.93033e-05
1.66742e-05
1.46571e-05
0.000107816
0.000104885
0.00010184
9.86417e-05
9.52505e-05
9.16192e-05
8.77241e-05
8.35482e-05
7.90883e-05
7.43486e-05
6.93501e-05
6.4123e-05
5.8739e-05
5.33045e-05
4.79332e-05
4.272e-05
3.77454e-05
3.30722e-05
2.8746e-05
2.48029e-05
2.12853e-05
1.8226e-05
1.56835e-05
1.36979e-05
9.57e-05
9.32987e-05
9.08124e-05
8.82018e-05
8.54268e-05
8.24441e-05
7.92238e-05
7.57386e-05
7.19769e-05
6.79368e-05
6.36238e-05
5.90566e-05
5.43022e-05
4.9463e-05
4.46418e-05
3.99266e-05
3.53892e-05
3.10895e-05
2.70751e-05
2.33854e-05
2.00628e-05
1.7145e-05
1.46876e-05
1.27336e-05
8.50123e-05
8.30334e-05
8.09901e-05
7.88487e-05
7.6569e-05
7.41102e-05
7.14432e-05
6.85369e-05
6.53698e-05
6.19292e-05
5.82179e-05
5.42464e-05
5.00663e-05
4.57684e-05
4.1455e-05
3.72053e-05
3.30806e-05
2.91368e-05
2.54218e-05
2.19769e-05
1.88442e-05
1.60648e-05
1.3691e-05
1.17692e-05
7.39334e-05
7.22421e-05
7.04735e-05
6.85933e-05
6.65608e-05
6.43458e-05
6.19179e-05
5.92523e-05
5.63311e-05
5.31444e-05
4.96973e-05
4.60328e-05
4.22334e-05
3.8389e-05
3.45695e-05
3.08307e-05
2.7223e-05
2.37936e-05
2.05842e-05
1.76362e-05
1.49917e-05
1.26998e-05
1.08107e-05
6.58567e-05
6.44493e-05
6.29821e-05
6.14212e-05
5.97333e-05
5.78899e-05
5.58587e-05
5.36135e-05
5.11338e-05
4.84041e-05
4.54209e-05
4.2219e-05
3.8869e-05
3.54525e-05
3.20281e-05
2.86479e-05
2.53568e-05
2.21994e-05
1.92161e-05
1.64465e-05
1.39328e-05
1.17213e-05
9.86516e-06
5.7508e-05
5.62801e-05
5.49785e-05
5.35713e-05
5.20316e-05
5.03288e-05
4.8437e-05
4.63333e-05
4.39978e-05
4.14213e-05
3.8629e-05
3.56815e-05
3.265e-05
2.95902e-05
2.65422e-05
2.35476e-05
2.06476e-05
1.78801e-05
1.52823e-05
1.2896e-05
1.07634e-05
8.94007e-06
5.13226e-05
5.02907e-05
4.91978e-05
4.80181e-05
4.67269e-05
4.52964e-05
4.36989e-05
4.19123e-05
3.99146e-05
3.7693e-05
3.52634e-05
3.26774e-05
2.99941e-05
2.72651e-05
2.45228e-05
2.18044e-05
1.9146e-05
1.65836e-05
1.41513e-05
1.18887e-05
9.83391e-06
8.04283e-06
4.58114e-05
4.49375e-05
4.40158e-05
4.3022e-05
4.19338e-05
4.07277e-05
3.93775e-05
3.78592e-05
3.61497e-05
3.42333e-05
3.21209e-05
2.98544e-05
2.74862e-05
2.50564e-05
2.2595e-05
2.01327e-05
1.77013e-05
1.53338e-05
1.30605e-05
1.09175e-05
8.93983e-06
7.18145e-06
4.01557e-05
3.93726e-05
3.85311e-05
3.76118e-05
3.65907e-05
3.54453e-05
3.41533e-05
3.26907e-05
3.10386e-05
2.92044e-05
2.72206e-05
2.51324e-05
2.29732e-05
2.07676e-05
1.8541e-05
1.63219e-05
1.41382e-05
1.20173e-05
9.99109e-06
8.09007e-06
6.36453e-06
3.58863e-05
3.52172e-05
3.45006e-05
3.37188e-05
3.28516e-05
3.18777e-05
3.07753e-05
2.95221e-05
2.8098e-05
2.65055e-05
2.4771e-05
2.29317e-05
2.10155e-05
1.90426e-05
1.70335e-05
1.50123e-05
1.30027e-05
1.10282e-05
9.11663e-06
7.29286e-06
5.60112e-06
3.20746e-05
3.14997e-05
3.0886e-05
3.02185e-05
2.9479e-05
2.86482e-05
2.77063e-05
2.66308e-05
2.54021e-05
2.40193e-05
2.25027e-05
2.08848e-05
1.91867e-05
1.74248e-05
1.56154e-05
1.37781e-05
1.19332e-05
1.00995e-05
8.30066e-06
6.5557e-06
4.90048e-06
2.81756e-05
2.76474e-05
2.70753e-05
2.64425e-05
2.57314e-05
2.49242e-05
2.39996e-05
2.29384e-05
2.17376e-05
2.0413e-05
1.89899e-05
1.7487e-05
1.59158e-05
1.42894e-05
1.26229e-05
1.09334e-05
9.23572e-06
7.5488e-06
5.88631e-06
4.27298e-06
2.5206e-05
2.47491e-05
2.42559e-05
2.3712e-05
2.31016e-05
2.24081e-05
2.16125e-05
2.0695e-05
1.96511e-05
1.8494e-05
1.72437e-05
1.59151e-05
1.45162e-05
1.3057e-05
1.15495e-05
1.00068e-05
8.4411e-06
6.86628e-06
5.29139e-06
3.72905e-06
2.21568e-05
2.17302e-05
2.12609e-05
2.07356e-05
2.01388e-05
1.94523e-05
1.86581e-05
1.77506e-05
1.67394e-05
1.56417e-05
1.44682e-05
1.32248e-05
1.19186e-05
1.0559e-05
9.15563e-06
7.7177e-06
6.25594e-06
4.77554e-06
3.27852e-06
1.984e-05
1.94697e-05
1.90636e-05
1.86098e-05
1.80944e-05
1.75014e-05
1.68136e-05
1.60244e-05
1.51413e-05
1.41778e-05
1.31425e-05
1.20395e-05
1.08736e-05
9.65112e-06
8.37977e-06
7.06638e-06
5.71921e-06
4.3417e-06
2.92926e-06
1.77705e-05
1.74478e-05
1.70956e-05
1.67029e-05
1.62578e-05
1.57446e-05
1.51477e-05
1.44608e-05
1.36896e-05
1.2845e-05
1.19336e-05
1.09572e-05
9.91936e-06
8.82428e-06
7.67817e-06
6.48624e-06
5.25517e-06
3.98892e-06
2.68342e-06
1.56414e-05
1.53351e-05
1.49945e-05
1.46089e-05
1.41644e-05
1.36469e-05
1.30492e-05
1.23759e-05
1.16362e-05
1.0835e-05
9.97295e-06
9.05221e-06
8.07595e-06
7.04841e-06
5.97452e-06
4.86052e-06
3.7126e-06
2.53448e-06
1.40283e-05
1.37613e-05
1.34657e-05
1.31315e-05
1.27463e-05
1.22969e-05
1.17771e-05
1.11899e-05
1.05432e-05
9.84034e-06
9.08153e-06
8.26799e-06
7.4017e-06
6.4863e-06
5.5264e-06
4.529e-06
3.50372e-06
2.46588e-06
1.25883e-05
1.23557e-05
1.20988e-05
1.18087e-05
1.14749e-05
1.10851e-05
1.06331e-05
1.01219e-05
9.55734e-06
8.94238e-06
8.27677e-06
7.561e-06
6.79647e-06
5.98665e-06
5.13596e-06
4.25272e-06
3.35041e-06
2.45502e-06
1.11008e-05
1.08773e-05
1.06259e-05
1.03367e-05
9.99861e-06
9.60609e-06
9.1614e-06
8.66993e-06
8.13366e-06
7.55205e-06
6.92525e-06
6.2547e-06
5.54327e-06
4.79608e-06
4.02243e-06
3.23892e-06
2.47848e-06
9.9806e-06
9.78651e-06
9.56862e-06
9.31814e-06
9.02531e-06
8.68516e-06
8.29936e-06
7.87253e-06
7.40636e-06
6.90025e-06
6.35428e-06
5.76976e-06
5.14944e-06
4.49886e-06
3.8282e-06
3.15566e-06
8.98094e-06
8.81243e-06
8.62379e-06
8.40728e-06
8.15422e-06
7.8599e-06
7.52601e-06
7.15647e-06
6.75282e-06
6.31449e-06
5.84151e-06
5.33514e-06
4.79834e-06
4.2367e-06
3.66066e-06
3.0887e-06
7.94272e-06
7.77966e-06
7.59279e-06
7.37445e-06
7.12046e-06
6.83232e-06
6.51365e-06
6.16557e-06
5.78773e-06
5.38025e-06
4.94445e-06
4.48322e-06
4.00218e-06
3.51143e-06
3.02843e-06
7.16586e-06
7.02513e-06
6.86426e-06
6.67649e-06
6.45797e-06
6.21013e-06
5.93625e-06
5.63738e-06
5.31332e-06
4.96428e-06
4.59158e-06
4.19801e-06
3.78892e-06
3.3737e-06
2.96786e-06
6.47138e-06
6.35049e-06
6.21247e-06
6.05131e-06
5.86385e-06
5.65148e-06
5.41711e-06
5.16173e-06
4.88517e-06
4.58783e-06
4.27097e-06
3.93728e-06
3.59158e-06
3.2422e-06
2.9024e-06
5.74677e-06
5.6285e-06
5.49076e-06
5.33065e-06
5.14936e-06
4.94961e-06
4.73234e-06
4.49751e-06
4.24558e-06
3.97776e-06
3.69645e-06
3.40593e-06
3.11328e-06
2.82942e-06
5.20582e-06
5.10509e-06
4.98778e-06
4.85147e-06
4.69734e-06
4.52781e-06
4.34382e-06
4.14544e-06
3.9331e-06
3.70788e-06
3.47196e-06
3.22894e-06
2.98466e-06
2.74785e-06
4.72079e-06
4.63519e-06
4.5356e-06
4.42006e-06
4.28962e-06
4.14642e-06
3.99134e-06
3.82452e-06
3.6464e-06
3.45794e-06
3.26096e-06
3.05847e-06
2.85514e-06
2.65771e-06
4.2128e-06
4.1287e-06
4.03113e-06
3.92121e-06
3.80078e-06
3.67066e-06
3.53102e-06
3.38228e-06
3.22525e-06
3.06143e-06
2.89326e-06
2.72436e-06
2.55984e-06
3.83261e-06
3.76185e-06
3.67988e-06
3.58764e-06
3.48682e-06
3.37812e-06
3.26173e-06
3.13803e-06
3.00769e-06
2.87191e-06
2.73261e-06
2.5925e-06
2.45543e-06
3.48986e-06
3.43065e-06
3.36209e-06
3.28502e-06
3.20095e-06
3.11053e-06
3.0139e-06
2.9114e-06
2.80358e-06
2.69136e-06
2.57619e-06
2.4601e-06
2.34587e-06
3.18041e-06
3.13105e-06
3.07394e-06
3.00983e-06
2.94004e-06
2.8651e-06
2.78516e-06
2.7005e-06
2.61154e-06
2.519e-06
2.42393e-06
2.32782e-06
2.23261e-06
2.8595e-06
2.81215e-06
2.75901e-06
2.70122e-06
2.63929e-06
2.57336e-06
2.50361e-06
2.43037e-06
2.35418e-06
2.27579e-06
2.19623e-06
2.11687e-06
2.61274e-06
2.57354e-06
2.5296e-06
2.48189e-06
2.43084e-06
2.37654e-06
2.31916e-06
2.25895e-06
2.19629e-06
2.13168e-06
2.06584e-06
1.99968e-06
2.38771e-06
2.35531e-06
2.319e-06
2.27962e-06
2.23755e-06
2.19287e-06
2.1457e-06
2.09623e-06
2.0447e-06
1.99147e-06
1.93699e-06
2.18167e-06
2.15482e-06
2.12475e-06
2.09223e-06
2.05753e-06
2.02073e-06
1.98194e-06
1.94128e-06
1.89891e-06
1.85505e-06
1.80998e-06
1.9698e-06
1.94483e-06
1.91789e-06
1.8892e-06
1.85886e-06
1.82694e-06
1.79351e-06
1.75867e-06
1.72254e-06
1.68526e-06
1.79852e-06
1.7777e-06
1.75532e-06
1.73159e-06
1.70655e-06
1.68028e-06
1.6528e-06
1.62417e-06
1.59443e-06
1.56364e-06
1.63989e-06
1.62253e-06
1.60394e-06
1.58433e-06
1.56372e-06
1.54213e-06
1.51958e-06
1.49609e-06
1.47165e-06
1.44626e-06
1.49348e-06
1.47908e-06
1.46374e-06
1.44762e-06
1.43072e-06
1.41305e-06
1.39461e-06
1.3754e-06
1.35536e-06
1.33447e-06
1.35929e-06
1.34746e-06
1.33491e-06
1.32174e-06
1.30796e-06
1.29355e-06
1.27852e-06
1.26282e-06
1.24641e-06
1.22924e-06
1.22744e-06
1.2172e-06
1.20646e-06
1.19522e-06
1.18346e-06
1.17116e-06
1.15831e-06
1.14484e-06
1.13069e-06
1.11799e-06
1.10953e-06
1.10064e-06
1.09132e-06
1.08159e-06
1.07141e-06
1.06078e-06
1.04964e-06
1.03792e-06
1.01722e-06
1.00994e-06
1.00232e-06
9.94369e-07
9.86094e-07
9.77495e-07
9.68549e-07
9.59219e-07
9.22986e-07
9.16411e-07
9.09589e-07
9.02545e-07
8.95305e-07
8.87866e-07
8.8021e-07
8.72306e-07
8.33949e-07
8.27757e-07
8.21436e-07
8.15028e-07
8.08545e-07
8.01984e-07
7.95333e-07
7.88575e-07
7.50028e-07
7.44103e-07
7.38167e-07
7.3225e-07
7.26373e-07
7.20519e-07
7.14692e-07
7.08884e-07
6.66325e-07
6.60715e-07
6.55199e-07
6.49802e-07
6.44515e-07
6.39367e-07
6.34316e-07
5.96371e-07
5.91025e-07
5.85833e-07
5.80802e-07
5.75974e-07
5.71345e-07
5.66875e-07
5.39093e-07
5.33945e-07
5.28953e-07
5.24144e-07
5.19569e-07
5.15201e-07
5.11066e-07
4.93438e-07
4.88507e-07
4.8369e-07
4.79045e-07
4.74582e-07
4.70333e-07
4.66341e-07
4.52303e-07
4.47635e-07
4.43047e-07
4.38577e-07
4.34237e-07
4.30097e-07
4.26177e-07
4.12995e-07
4.08491e-07
4.04025e-07
3.99621e-07
3.95352e-07
3.91277e-07
3.8741e-07
3.76375e-07
3.71788e-07
3.67117e-07
3.62417e-07
3.57804e-07
3.53352e-07
3.40657e-07
3.35721e-07
3.30649e-07
3.25506e-07
3.20375e-07
3.15318e-07
3.00411e-07
2.93648e-07
2.86765e-07
2.79947e-07
2.73385e-07
2.67228e-07
2.4538e-07
2.35481e-07
2.25145e-07
2.1459e-07
2.04061e-07
1.93156e-07
1.83267e-07
1.74171e-07
1.66225e-07
1.5978e-07
1.90848e-07
1.84499e-07
1.79702e-07
1.76355e-07
1.74267e-07
3.49815e-07
3.75574e-07
4.0062e-07
4.24422e-07
4.46464e-07
8.32537e-07
8.46547e-07
8.57641e-07
8.65902e-07
8.71717e-07
1.61859e-06
1.63906e-06
1.65418e-06
1.66423e-06
1.67019e-06
)
;

boundaryField
{
    inlet
    {
        type            calculated;
        value           nonuniform List<scalar> 5(5.06309e-06 5.20326e-06 5.32958e-06 5.44227e-06 5.54162e-06);
    }
    outlet
    {
        type            calculated;
        value           nonuniform List<scalar> 0();
    }
    walls
    {
        type            calculated;
        value           uniform 0;
    }
    frontAndBack
    {
        type            empty;
    }
    procBoundary1to0
    {
        type            processor;
        value           nonuniform List<scalar> 
94
(
0.000478434
0.000478434
0.000395617
0.000395617
0.000328859
0.000328859
0.000274934
0.000274934
0.00023089
0.00023089
0.000195031
0.000195031
0.000170839
0.000145825
0.000145825
0.000128572
0.000110692
0.000110692
9.80659e-05
8.69747e-05
7.55775e-05
7.55775e-05
6.72325e-05
5.86895e-05
5.86895e-05
5.23194e-05
4.666e-05
4.09017e-05
4.09017e-05
3.65259e-05
3.26265e-05
2.86728e-05
2.86728e-05
2.56382e-05
2.25535e-05
2.25535e-05
2.01856e-05
1.80733e-05
1.59229e-05
1.59229e-05
1.42745e-05
1.28041e-05
1.13036e-05
1.13036e-05
1.01576e-05
9.13518e-06
8.08864e-06
8.08864e-06
7.29217e-06
6.58039e-06
5.85053e-06
5.85053e-06
5.29444e-06
4.79618e-06
4.28517e-06
4.28517e-06
3.8935e-06
3.54087e-06
3.22295e-06
2.90043e-06
2.90043e-06
2.64661e-06
2.41568e-06
2.20484e-06
1.99214e-06
1.99214e-06
1.8172e-06
1.65554e-06
1.50654e-06
1.37005e-06
1.23709e-06
1.23709e-06
1.12595e-06
1.02406e-06
9.29221e-07
8.39898e-07
7.55807e-07
6.72006e-07
6.72006e-07
6.01852e-07
5.44409e-07
4.98471e-07
4.56996e-07
4.17481e-07
3.80834e-07
3.45394e-07
3.06838e-07
2.54654e-07
2.54654e-07
2.03522e-07
1.98706e-07
3.23269e-07
8.16305e-07
1.59224e-06
)
;
    }
    procBoundary1to2
    {
        type            processor;
        value           nonuniform List<scalar> 
84
(
48.1482
1.44793
0.312028
0.0115586
0.00259161
4.65989e-07
1.38542e-05
1.95856e-05
2.44953e-05
2.06568e-05
2.08821e-05
1.93698e-05
1.86313e-05
1.7594e-05
1.66611e-05
1.56605e-05
1.4664e-05
1.36507e-05
1.26346e-05
1.16185e-05
1.06088e-05
9.61089e-06
8.63112e-06
7.67621e-06
6.75211e-06
5.86564e-06
5.02367e-06
4.23353e-06
3.50354e-06
2.84454e-06
2.27154e-06
1.80774e-06
1.48647e-06
1.33837e-06
1.35554e-06
1.48143e-06
1.65325e-06
1.82982e-06
2.51645e-06
2.51645e-06
2.55443e-06
2.58289e-06
2.59638e-06
2.59228e-06
2.57005e-06
2.53052e-06
2.47527e-06
2.40638e-06
2.32619e-06
2.2369e-06
2.14066e-06
2.03925e-06
1.93416e-06
1.88184e-06
1.88184e-06
1.76401e-06
1.647e-06
1.53185e-06
1.41991e-06
1.31266e-06
1.21121e-06
1.11577e-06
1.02554e-06
9.49444e-07
9.49444e-07
8.64104e-07
7.81655e-07
7.03027e-07
6.29326e-07
5.62585e-07
5.07163e-07
4.6257e-07
4.22457e-07
3.83769e-07
3.49124e-07
3.49124e-07
3.104e-07
2.61612e-07
1.93826e-07
1.55083e-07
1.73039e-07
4.66224e-07
8.75713e-07
1.67294e-06
)
;
    }
    procBoundary1to5
    {
        type            processor;
        value           nonuniform List<scalar> 
13
(
0.00385319
0.00385319
0.00242456
0.0018779
0.0018779
0.00154491
0.00121687
0.00121687
0.00101264
0.000824462
0.000680873
0.000680873
0.000581104
)
;
    }
}


// ************************************************************************* //
