/*--------------------------------*- C++ -*----------------------------------*\
| =========                 |                                                 |
| \\      /  F ield         | OpenFOAM: The Open Source CFD Toolbox           |
|  \\    /   O peration     | Version:  2306                                  |
|   \\  /    A nd           | Website:  www.openfoam.com                      |
|    \\/     M anipulation  |                                                 |
\*---------------------------------------------------------------------------*/
FoamFile
{
    version     2.0;
    format      ascii;
    arch        "LSB;label=32;scalar=64";
    class       volScalarField;
    location    "325";
    object      turbulenceProperties:nuEff;
}
// * * * * * * * * * * * * * * * * * * * * * * * * * * * * * * * * * * * * * //

dimensions      [0 2 -1 0 0 0 0];

internalField   nonuniform List<scalar> 
1340
(
1.69634e-05
1.80967e-05
2.07898e-05
2.54791e-05
3.32232e-05
4.55702e-05
6.44457e-05
9.13762e-05
0.00012793
0.000177159
0.00024625
0.000349345
0.000511752
0.000783156
0.0012518
0.00212727
0.00377937
0.0073369
0.0147307
0.0324821
0.0663242
0.0934742
0.105032
0.10844
0.109382
0.109478
0.108982
0.107981
1.5911e-05
1.60215e-05
1.5959e-05
1.58177e-05
1.56247e-05
1.53904e-05
1.51242e-05
1.48295e-05
1.44958e-05
1.41198e-05
1.36768e-05
1.31625e-05
1.25483e-05
1.18436e-05
1.10741e-05
1.04206e-05
1.00541e-05
1.00015e-05
1.00093e-05
0.000103679
0.000549726
0.00416558
0.0141232
0.0287266
0.0437341
0.0550697
0.0618328
0.0656148
0.0680128
1.61416e-05
1.61276e-05
1.61324e-05
1.61473e-05
1.61669e-05
1.61909e-05
1.62203e-05
1.62531e-05
1.62902e-05
1.63311e-05
1.63776e-05
1.64309e-05
1.64946e-05
1.6572e-05
1.66715e-05
1.67991e-05
1.69803e-05
1.71737e-05
1.74361e-05
1.71569e-05
1.72477e-05
1.24848e-05
9.36311e-05
0.000800141
0.00302688
0.00755093
0.0142612
0.0224441
0.0311658
1.61003e-05
1.61017e-05
1.61026e-05
1.61005e-05
1.60978e-05
1.60943e-05
1.60905e-05
1.60871e-05
1.60837e-05
1.60803e-05
1.60768e-05
1.60732e-05
1.60692e-05
1.60641e-05
1.6059e-05
1.60537e-05
1.60479e-05
1.60411e-05
1.60348e-05
1.60281e-05
1.60304e-05
1.60231e-05
1.60825e-05
1.59992e-05
1.59509e-05
1.52105e-05
1.41629e-05
0.000236498
0.00105718
0.00306633
1.61092e-05
1.61071e-05
1.61052e-05
1.61042e-05
1.61039e-05
1.61039e-05
1.61038e-05
1.61042e-05
1.61047e-05
1.61057e-05
1.61069e-05
1.61084e-05
1.61103e-05
1.61125e-05
1.6115e-05
1.61177e-05
1.61207e-05
1.61242e-05
1.6128e-05
1.61329e-05
1.61372e-05
1.61504e-05
1.61301e-05
1.62727e-05
1.56953e-05
1.87071e-05
1.05818e-05
3.55537e-05
0.000255424
0.000725952
1.61064e-05
1.61061e-05
1.61047e-05
1.61035e-05
1.61025e-05
1.61019e-05
1.61015e-05
1.6101e-05
1.61008e-05
1.61006e-05
1.61006e-05
1.61006e-05
1.61007e-05
1.61009e-05
1.61012e-05
1.61014e-05
1.61017e-05
1.61018e-05
1.61019e-05
1.61015e-05
1.61014e-05
1.61018e-05
1.61022e-05
1.6104e-05
1.61036e-05
1.61129e-05
1.60958e-05
1.61857e-05
1.54513e-05
1.3431e-05
1e-05
1.61056e-05
1.61055e-05
1.61043e-05
1.61031e-05
1.61023e-05
1.61017e-05
1.61014e-05
1.61012e-05
1.61011e-05
1.61011e-05
1.61011e-05
1.61011e-05
1.61013e-05
1.61015e-05
1.61018e-05
1.61022e-05
1.61028e-05
1.61033e-05
1.6104e-05
1.61048e-05
1.61058e-05
1.61071e-05
1.61087e-05
1.61108e-05
1.61134e-05
1.61167e-05
1.61202e-05
1.61243e-05
1.61762e-05
1.58726e-05
1.53247e-05
1.61044e-05
1.61045e-05
1.61036e-05
1.61026e-05
1.61018e-05
1.61013e-05
1.6101e-05
1.61009e-05
1.61008e-05
1.61009e-05
1.6101e-05
1.61011e-05
1.61011e-05
1.61012e-05
1.61012e-05
1.61013e-05
1.61015e-05
1.61016e-05
1.61018e-05
1.61019e-05
1.6102e-05
1.61022e-05
1.61024e-05
1.61027e-05
1.6103e-05
1.6103e-05
1.61035e-05
1.61012e-05
1.61145e-05
1.60868e-05
1.62914e-05
1.61021e-05
1.61036e-05
1.61039e-05
1.61032e-05
1.61022e-05
1.61015e-05
1.61011e-05
1.61008e-05
1.61007e-05
1.61007e-05
1.61007e-05
1.61008e-05
1.6101e-05
1.61011e-05
1.61012e-05
1.61013e-05
1.61013e-05
1.61014e-05
1.61015e-05
1.61017e-05
1.61019e-05
1.61021e-05
1.61024e-05
1.61029e-05
1.61036e-05
1.61045e-05
1.61055e-05
1.61069e-05
1.61083e-05
1.61107e-05
1.61094e-05
1.61451e-05
1.6103e-05
1.61033e-05
1.61028e-05
1.61019e-05
1.61013e-05
1.61009e-05
1.61007e-05
1.61006e-05
1.61005e-05
1.61006e-05
1.61006e-05
1.61008e-05
1.61009e-05
1.61011e-05
1.61013e-05
1.61014e-05
1.61016e-05
1.61016e-05
1.61016e-05
1.61017e-05
1.61017e-05
1.61018e-05
1.6102e-05
1.61022e-05
1.61026e-05
1.6103e-05
1.61034e-05
1.61041e-05
1.61038e-05
1.61094e-05
1.6092e-05
1.61029e-05
1.61024e-05
1.61016e-05
1.61011e-05
1.61008e-05
1.61006e-05
1.61004e-05
1.61003e-05
1.61003e-05
1.61004e-05
1.61005e-05
1.61007e-05
1.61009e-05
1.61011e-05
1.61013e-05
1.61014e-05
1.61016e-05
1.61017e-05
1.61018e-05
1.61018e-05
1.61019e-05
1.61021e-05
1.61023e-05
1.61026e-05
1.61031e-05
1.61036e-05
1.61044e-05
1.61044e-05
1.61089e-05
1.60937e-05
1.61021e-05
1.61014e-05
1.61009e-05
1.61006e-05
1.61004e-05
1.61003e-05
1.61002e-05
1.61002e-05
1.61002e-05
1.61003e-05
1.61004e-05
1.61006e-05
1.61008e-05
1.6101e-05
1.61012e-05
1.61015e-05
1.61016e-05
1.61018e-05
1.6102e-05
1.6102e-05
1.61021e-05
1.61022e-05
1.61023e-05
1.61025e-05
1.61028e-05
1.61033e-05
1.61035e-05
1.61051e-05
1.61017e-05
1.61011e-05
1.61007e-05
1.61004e-05
1.61003e-05
1.61001e-05
1.61e-05
1.60999e-05
1.60999e-05
1.61e-05
1.61001e-05
1.61003e-05
1.61005e-05
1.61008e-05
1.6101e-05
1.61013e-05
1.61015e-05
1.61017e-05
1.61019e-05
1.61021e-05
1.61021e-05
1.61022e-05
1.61022e-05
1.61024e-05
1.61026e-05
1.61029e-05
1.61034e-05
1.61037e-05
1.61048e-05
1.61005e-05
1.61003e-05
1.61001e-05
1.61e-05
1.60998e-05
1.60997e-05
1.60997e-05
1.60998e-05
1.60999e-05
1.61001e-05
1.61003e-05
1.61005e-05
1.61008e-05
1.6101e-05
1.61013e-05
1.61015e-05
1.61018e-05
1.6102e-05
1.61021e-05
1.61022e-05
1.61022e-05
1.61022e-05
1.61024e-05
1.61026e-05
1.61029e-05
1.61031e-05
1.61042e-05
1.61001e-05
1.60999e-05
1.60998e-05
1.60996e-05
1.60995e-05
1.60995e-05
1.60996e-05
1.60997e-05
1.60998e-05
1.61e-05
1.61002e-05
1.61005e-05
1.61008e-05
1.61011e-05
1.61013e-05
1.61016e-05
1.61018e-05
1.6102e-05
1.61021e-05
1.61022e-05
1.61022e-05
1.61023e-05
1.61024e-05
1.61026e-05
1.61028e-05
1.61033e-05
1.60999e-05
1.60997e-05
1.60996e-05
1.60994e-05
1.60993e-05
1.60993e-05
1.60993e-05
1.60994e-05
1.60996e-05
1.60998e-05
1.61e-05
1.61003e-05
1.61005e-05
1.61008e-05
1.61011e-05
1.61014e-05
1.61017e-05
1.61019e-05
1.6102e-05
1.61022e-05
1.61022e-05
1.61022e-05
1.61023e-05
1.61024e-05
1.61026e-05
1.61028e-05
1.60995e-05
1.60994e-05
1.60993e-05
1.60992e-05
1.60991e-05
1.60992e-05
1.60992e-05
1.60994e-05
1.60995e-05
1.60998e-05
1.61e-05
1.61003e-05
1.61006e-05
1.61009e-05
1.61012e-05
1.61015e-05
1.61017e-05
1.61019e-05
1.61021e-05
1.61022e-05
1.61022e-05
1.61023e-05
1.61023e-05
1.61024e-05
1.61026e-05
1.60994e-05
1.60992e-05
1.60991e-05
1.6099e-05
1.60989e-05
1.6099e-05
1.6099e-05
1.60992e-05
1.60993e-05
1.60995e-05
1.60998e-05
1.61001e-05
1.61004e-05
1.61007e-05
1.6101e-05
1.61013e-05
1.61015e-05
1.61017e-05
1.61019e-05
1.61021e-05
1.61022e-05
1.61023e-05
1.61023e-05
1.61023e-05
1.61024e-05
1.60991e-05
1.60989e-05
1.60988e-05
1.60988e-05
1.60988e-05
1.60989e-05
1.6099e-05
1.60991e-05
1.60993e-05
1.60996e-05
1.60998e-05
1.61001e-05
1.61004e-05
1.61008e-05
1.6101e-05
1.61013e-05
1.61016e-05
1.61018e-05
1.6102e-05
1.61021e-05
1.61022e-05
1.61023e-05
1.61023e-05
1.61024e-05
1.60989e-05
1.60988e-05
1.60987e-05
1.60986e-05
1.60987e-05
1.60987e-05
1.60988e-05
1.6099e-05
1.60992e-05
1.60994e-05
1.60996e-05
1.60999e-05
1.61002e-05
1.61005e-05
1.61008e-05
1.61011e-05
1.61014e-05
1.61016e-05
1.61018e-05
1.6102e-05
1.61021e-05
1.61022e-05
1.61023e-05
1.61023e-05
1.60987e-05
1.60986e-05
1.60985e-05
1.60985e-05
1.60985e-05
1.60986e-05
1.60987e-05
1.60988e-05
1.6099e-05
1.60992e-05
1.60994e-05
1.60997e-05
1.61e-05
1.61003e-05
1.61006e-05
1.61009e-05
1.61011e-05
1.61014e-05
1.61016e-05
1.61018e-05
1.6102e-05
1.61021e-05
1.61022e-05
1.61022e-05
1.60985e-05
1.60984e-05
1.60984e-05
1.60984e-05
1.60985e-05
1.60985e-05
1.60987e-05
1.60988e-05
1.6099e-05
1.60992e-05
1.60995e-05
1.60998e-05
1.61e-05
1.61003e-05
1.61006e-05
1.61009e-05
1.61012e-05
1.61014e-05
1.61017e-05
1.61019e-05
1.6102e-05
1.61022e-05
1.61022e-05
1.60983e-05
1.60983e-05
1.60983e-05
1.60983e-05
1.60983e-05
1.60984e-05
1.60985e-05
1.60986e-05
1.60988e-05
1.6099e-05
1.60993e-05
1.60995e-05
1.60998e-05
1.61001e-05
1.61004e-05
1.61007e-05
1.61009e-05
1.61012e-05
1.61015e-05
1.61017e-05
1.61019e-05
1.61021e-05
1.61022e-05
1.60981e-05
1.60981e-05
1.60981e-05
1.60982e-05
1.60982e-05
1.60983e-05
1.60985e-05
1.60986e-05
1.60988e-05
1.6099e-05
1.60993e-05
1.60996e-05
1.60999e-05
1.61001e-05
1.61004e-05
1.61007e-05
1.6101e-05
1.61012e-05
1.61015e-05
1.61017e-05
1.61019e-05
1.61021e-05
1.6098e-05
1.6098e-05
1.6098e-05
1.6098e-05
1.60981e-05
1.60982e-05
1.60983e-05
1.60984e-05
1.60986e-05
1.60988e-05
1.60991e-05
1.60993e-05
1.60996e-05
1.60999e-05
1.61002e-05
1.61004e-05
1.61007e-05
1.6101e-05
1.61013e-05
1.61015e-05
1.61017e-05
1.61019e-05
1.60978e-05
1.60978e-05
1.60978e-05
1.60979e-05
1.60979e-05
1.6098e-05
1.60981e-05
1.60982e-05
1.60984e-05
1.60986e-05
1.60989e-05
1.60991e-05
1.60994e-05
1.60996e-05
1.60999e-05
1.61002e-05
1.61005e-05
1.61008e-05
1.6101e-05
1.61013e-05
1.61016e-05
1.61018e-05
1.60977e-05
1.60977e-05
1.60977e-05
1.60977e-05
1.60978e-05
1.60979e-05
1.6098e-05
1.60982e-05
1.60984e-05
1.60986e-05
1.60989e-05
1.60991e-05
1.60994e-05
1.60996e-05
1.60999e-05
1.61002e-05
1.61005e-05
1.61008e-05
1.61011e-05
1.61014e-05
1.61016e-05
1.60975e-05
1.60975e-05
1.60975e-05
1.60976e-05
1.60976e-05
1.60977e-05
1.60979e-05
1.6098e-05
1.60982e-05
1.60984e-05
1.60986e-05
1.60989e-05
1.60991e-05
1.60994e-05
1.60996e-05
1.60999e-05
1.61002e-05
1.61005e-05
1.61008e-05
1.61011e-05
1.61014e-05
1.60973e-05
1.60973e-05
1.60973e-05
1.60974e-05
1.60975e-05
1.60975e-05
1.60977e-05
1.60978e-05
1.6098e-05
1.60982e-05
1.60984e-05
1.60986e-05
1.60988e-05
1.60991e-05
1.60994e-05
1.60996e-05
1.60999e-05
1.61003e-05
1.61006e-05
1.61009e-05
1.61011e-05
1.60971e-05
1.60971e-05
1.60972e-05
1.60973e-05
1.60973e-05
1.60974e-05
1.60976e-05
1.60977e-05
1.60979e-05
1.60981e-05
1.60983e-05
1.60986e-05
1.60988e-05
1.60991e-05
1.60993e-05
1.60996e-05
1.61e-05
1.61003e-05
1.61006e-05
1.61009e-05
1.60969e-05
1.60969e-05
1.6097e-05
1.6097e-05
1.60971e-05
1.60972e-05
1.60973e-05
1.60975e-05
1.60977e-05
1.60979e-05
1.6098e-05
1.60983e-05
1.60985e-05
1.60988e-05
1.6099e-05
1.60993e-05
1.60996e-05
1.61e-05
1.61003e-05
1.61006e-05
1.60967e-05
1.60968e-05
1.60968e-05
1.60969e-05
1.6097e-05
1.60971e-05
1.60972e-05
1.60974e-05
1.60976e-05
1.60978e-05
1.6098e-05
1.60982e-05
1.60984e-05
1.60987e-05
1.6099e-05
1.60993e-05
1.60996e-05
1.60999e-05
1.61003e-05
1.60965e-05
1.60965e-05
1.60966e-05
1.60966e-05
1.60967e-05
1.60968e-05
1.60969e-05
1.60971e-05
1.60973e-05
1.60974e-05
1.60976e-05
1.60978e-05
1.60981e-05
1.60983e-05
1.60986e-05
1.60989e-05
1.60992e-05
1.60996e-05
1.60999e-05
1.60962e-05
1.60962e-05
1.60963e-05
1.60963e-05
1.60964e-05
1.60965e-05
1.60966e-05
1.60968e-05
1.60969e-05
1.60971e-05
1.60973e-05
1.60975e-05
1.60977e-05
1.60979e-05
1.60982e-05
1.60985e-05
1.60988e-05
1.60992e-05
1.60995e-05
1.60959e-05
1.6096e-05
1.6096e-05
1.60961e-05
1.60962e-05
1.60963e-05
1.60964e-05
1.60966e-05
1.60967e-05
1.60969e-05
1.60971e-05
1.60973e-05
1.60975e-05
1.60978e-05
1.60981e-05
1.60984e-05
1.60987e-05
1.60991e-05
1.60956e-05
1.60956e-05
1.60957e-05
1.60957e-05
1.60958e-05
1.60959e-05
1.6096e-05
1.60961e-05
1.60963e-05
1.60964e-05
1.60966e-05
1.60968e-05
1.60971e-05
1.60973e-05
1.60976e-05
1.60979e-05
1.60982e-05
1.60986e-05
1.60952e-05
1.60953e-05
1.60953e-05
1.60953e-05
1.60954e-05
1.60955e-05
1.60956e-05
1.60957e-05
1.60958e-05
1.6096e-05
1.60961e-05
1.60963e-05
1.60965e-05
1.60968e-05
1.60971e-05
1.60974e-05
1.60977e-05
1.6098e-05
1.60948e-05
1.60949e-05
1.60949e-05
1.6095e-05
1.6095e-05
1.60951e-05
1.60952e-05
1.60953e-05
1.60955e-05
1.60956e-05
1.60958e-05
1.6096e-05
1.60962e-05
1.60965e-05
1.60968e-05
1.60971e-05
1.60974e-05
1.60944e-05
1.60944e-05
1.60944e-05
1.60944e-05
1.60945e-05
1.60946e-05
1.60947e-05
1.60948e-05
1.60949e-05
1.6095e-05
1.60952e-05
1.60954e-05
1.60956e-05
1.60958e-05
1.60961e-05
1.60964e-05
1.60939e-05
1.60939e-05
1.60939e-05
1.60939e-05
1.60939e-05
1.6094e-05
1.60941e-05
1.60941e-05
1.60942e-05
1.60944e-05
1.60945e-05
1.60947e-05
1.60949e-05
1.60951e-05
1.60954e-05
1.60957e-05
1.60933e-05
1.60933e-05
1.60933e-05
1.60933e-05
1.60933e-05
1.60934e-05
1.60935e-05
1.60935e-05
1.60936e-05
1.60938e-05
1.60939e-05
1.60941e-05
1.60944e-05
1.60946e-05
1.60949e-05
1.60926e-05
1.60926e-05
1.60926e-05
1.60926e-05
1.60926e-05
1.60927e-05
1.60927e-05
1.60928e-05
1.60929e-05
1.6093e-05
1.60932e-05
1.60933e-05
1.60935e-05
1.60938e-05
1.60941e-05
1.60919e-05
1.60919e-05
1.60918e-05
1.60918e-05
1.60918e-05
1.60919e-05
1.60919e-05
1.6092e-05
1.60921e-05
1.60922e-05
1.60923e-05
1.60925e-05
1.60927e-05
1.60929e-05
1.60932e-05
1.60911e-05
1.6091e-05
1.6091e-05
1.6091e-05
1.6091e-05
1.60911e-05
1.60911e-05
1.60912e-05
1.60913e-05
1.60914e-05
1.60916e-05
1.60918e-05
1.6092e-05
1.60922e-05
1.60902e-05
1.60902e-05
1.60902e-05
1.60901e-05
1.60902e-05
1.60902e-05
1.60902e-05
1.60903e-05
1.60904e-05
1.60905e-05
1.60906e-05
1.60908e-05
1.6091e-05
1.60913e-05
1.60893e-05
1.60893e-05
1.60893e-05
1.60892e-05
1.60892e-05
1.60893e-05
1.60893e-05
1.60894e-05
1.60895e-05
1.60896e-05
1.60897e-05
1.60899e-05
1.60901e-05
1.60903e-05
1.60884e-05
1.60883e-05
1.60883e-05
1.60883e-05
1.60883e-05
1.60884e-05
1.60884e-05
1.60885e-05
1.60886e-05
1.60888e-05
1.60889e-05
1.60891e-05
1.60893e-05
1.60875e-05
1.60874e-05
1.60874e-05
1.60874e-05
1.60874e-05
1.60875e-05
1.60875e-05
1.60876e-05
1.60877e-05
1.60878e-05
1.6088e-05
1.60882e-05
1.60884e-05
1.60865e-05
1.60865e-05
1.60865e-05
1.60865e-05
1.60865e-05
1.60866e-05
1.60866e-05
1.60867e-05
1.60868e-05
1.60869e-05
1.60871e-05
1.60873e-05
1.60875e-05
1.60856e-05
1.60856e-05
1.60856e-05
1.60856e-05
1.60856e-05
1.60856e-05
1.60857e-05
1.60858e-05
1.60859e-05
1.6086e-05
1.60862e-05
1.60863e-05
1.60865e-05
1.60847e-05
1.60846e-05
1.60846e-05
1.60847e-05
1.60847e-05
1.60847e-05
1.60848e-05
1.60849e-05
1.6085e-05
1.60852e-05
1.60853e-05
1.60855e-05
1.60837e-05
1.60837e-05
1.60836e-05
1.60836e-05
1.60837e-05
1.60837e-05
1.60838e-05
1.60838e-05
1.6084e-05
1.60841e-05
1.60842e-05
1.60844e-05
1.60826e-05
1.60826e-05
1.60825e-05
1.60825e-05
1.60825e-05
1.60825e-05
1.60826e-05
1.60826e-05
1.60827e-05
1.60828e-05
1.60829e-05
1.60814e-05
1.60813e-05
1.60812e-05
1.60812e-05
1.60811e-05
1.60811e-05
1.60811e-05
1.60811e-05
1.60812e-05
1.60813e-05
1.60814e-05
1.60799e-05
1.60797e-05
1.60796e-05
1.60795e-05
1.60795e-05
1.60794e-05
1.60794e-05
1.60794e-05
1.60795e-05
1.60795e-05
1.60782e-05
1.6078e-05
1.60779e-05
1.60777e-05
1.60776e-05
1.60775e-05
1.60775e-05
1.60775e-05
1.60775e-05
1.60775e-05
1.60764e-05
1.60762e-05
1.6076e-05
1.60758e-05
1.60757e-05
1.60756e-05
1.60755e-05
1.60755e-05
1.60754e-05
1.60754e-05
1.60746e-05
1.60744e-05
1.60742e-05
1.6074e-05
1.60739e-05
1.60738e-05
1.60737e-05
1.60736e-05
1.60736e-05
1.60736e-05
1.6073e-05
1.60728e-05
1.60727e-05
1.60725e-05
1.60724e-05
1.60724e-05
1.60723e-05
1.60723e-05
1.60722e-05
1.60722e-05
1.60718e-05
1.60718e-05
1.60717e-05
1.60717e-05
1.60716e-05
1.60716e-05
1.60716e-05
1.60716e-05
1.60716e-05
1.60716e-05
1.60717e-05
1.60717e-05
1.60718e-05
1.60719e-05
1.6072e-05
1.6072e-05
1.60721e-05
1.60722e-05
1.60723e-05
1.60725e-05
1.60727e-05
1.60729e-05
1.60731e-05
1.60732e-05
1.60734e-05
1.60735e-05
1.60738e-05
1.60741e-05
1.60744e-05
1.60747e-05
1.6075e-05
1.60753e-05
1.60755e-05
1.60757e-05
1.6076e-05
1.60764e-05
1.60769e-05
1.60773e-05
1.60777e-05
1.6078e-05
1.60784e-05
1.60787e-05
1.60787e-05
1.60793e-05
1.60799e-05
1.60804e-05
1.60809e-05
1.60814e-05
1.60818e-05
1.60822e-05
1.60826e-05
1.60833e-05
1.60839e-05
1.60845e-05
1.6085e-05
1.60855e-05
1.6086e-05
1.60862e-05
1.60869e-05
1.60876e-05
1.60882e-05
1.60888e-05
1.60894e-05
1.60899e-05
1.60892e-05
1.60899e-05
1.60906e-05
1.60913e-05
1.60919e-05
1.60925e-05
1.60931e-05
1.60914e-05
1.60921e-05
1.60928e-05
1.60935e-05
1.60941e-05
1.60947e-05
1.60953e-05
1.60933e-05
1.6094e-05
1.60947e-05
1.60953e-05
1.60959e-05
1.60965e-05
1.60971e-05
1.60948e-05
1.60954e-05
1.60961e-05
1.60967e-05
1.60973e-05
1.60979e-05
1.60984e-05
1.60959e-05
1.60966e-05
1.60972e-05
1.60979e-05
1.60985e-05
1.60991e-05
1.60973e-05
1.6098e-05
1.60988e-05
1.60995e-05
1.61002e-05
1.6101e-05
1.60996e-05
1.61007e-05
1.61017e-05
1.61026e-05
1.61036e-05
1.61046e-05
1.61051e-05
1.61064e-05
1.61077e-05
1.6109e-05
1.61102e-05
1.61098e-05
1.61111e-05
1.61125e-05
1.61138e-05
1.61151e-05
1.611e-05
1.61109e-05
1.61118e-05
1.61126e-05
1.61134e-05
1.61027e-05
1.61035e-05
1.61043e-05
1.61051e-05
1.6106e-05
1.60998e-05
1.61024e-05
1.61051e-05
1.61078e-05
1.61107e-05
1.61021e-05
1.61039e-05
1.61057e-05
1.61073e-05
1.61088e-05
)
;

boundaryField
{
    inlet
    {
        type            calculated;
        value           uniform 2e-05;
    }
    outlet
    {
        type            calculated;
        value           nonuniform List<scalar> 0();
    }
    walls
    {
        type            calculated;
        value           nonuniform List<scalar> 
28
(
0.000457424
0.000560008
0.000898068
0.00121848
0.00148046
0.00169101
0.0018629
0.0020055
0.00212588
0.00222969
0.00232129
0.00240437
0.00248127
0.00255408
0.00262345
0.00268937
0.00274856
0.00279463
0.00282714
0.00284937
0.0028644
0.00287352
0.00287757
0.00287508
0.00286438
0.00284522
0.00281802
0.00278234
)
;
    }
    frontAndBack
    {
        type            empty;
    }
    procBoundary1to0
    {
        type            processor;
        value           nonuniform List<scalar> 
94
(
1.61016e-05
1.61016e-05
1.61025e-05
1.61025e-05
1.61025e-05
1.61025e-05
1.61018e-05
1.61018e-05
1.61009e-05
1.61009e-05
1.61004e-05
1.61004e-05
1.61002e-05
1.60997e-05
1.60997e-05
1.60996e-05
1.60992e-05
1.60992e-05
1.60991e-05
1.60989e-05
1.60986e-05
1.60986e-05
1.60984e-05
1.60982e-05
1.60982e-05
1.6098e-05
1.60979e-05
1.60977e-05
1.60977e-05
1.60975e-05
1.60973e-05
1.60971e-05
1.60971e-05
1.60969e-05
1.60967e-05
1.60967e-05
1.60964e-05
1.60962e-05
1.60959e-05
1.60959e-05
1.60956e-05
1.60952e-05
1.60948e-05
1.60948e-05
1.60944e-05
1.60939e-05
1.60933e-05
1.60933e-05
1.60926e-05
1.60919e-05
1.60911e-05
1.60911e-05
1.60903e-05
1.60894e-05
1.60884e-05
1.60884e-05
1.60875e-05
1.60866e-05
1.60857e-05
1.60847e-05
1.60847e-05
1.60837e-05
1.60827e-05
1.60815e-05
1.608e-05
1.608e-05
1.60784e-05
1.60766e-05
1.60748e-05
1.60732e-05
1.60719e-05
1.60719e-05
1.60716e-05
1.60721e-05
1.60735e-05
1.60755e-05
1.60781e-05
1.60819e-05
1.60819e-05
1.60854e-05
1.60884e-05
1.60906e-05
1.60925e-05
1.60941e-05
1.60953e-05
1.60965e-05
1.60986e-05
1.61038e-05
1.61038e-05
1.61084e-05
1.6109e-05
1.6102e-05
1.60974e-05
1.61001e-05
)
;
    }
    procBoundary1to2
    {
        type            processor;
        value           nonuniform List<scalar> 
84
(
0.106584
0.0700033
0.0396097
0.00693087
0.00165892
1.00031e-05
1.11688e-05
1.55852e-05
1.62149e-05
1.61944e-05
1.61653e-05
1.61195e-05
1.61029e-05
1.61021e-05
1.61032e-05
1.61032e-05
1.61029e-05
1.61026e-05
1.61025e-05
1.61024e-05
1.61023e-05
1.61023e-05
1.61022e-05
1.61022e-05
1.61021e-05
1.6102e-05
1.61018e-05
1.61016e-05
1.61014e-05
1.61012e-05
1.61009e-05
1.61006e-05
1.61002e-05
1.60999e-05
1.60994e-05
1.60989e-05
1.60984e-05
1.60978e-05
1.60968e-05
1.60968e-05
1.6096e-05
1.60952e-05
1.60944e-05
1.60935e-05
1.60925e-05
1.60916e-05
1.60906e-05
1.60896e-05
1.60887e-05
1.60877e-05
1.60868e-05
1.60858e-05
1.60846e-05
1.60831e-05
1.60831e-05
1.60815e-05
1.60796e-05
1.60776e-05
1.60755e-05
1.60736e-05
1.60722e-05
1.60716e-05
1.60722e-05
1.60737e-05
1.60737e-05
1.60759e-05
1.60789e-05
1.60825e-05
1.60864e-05
1.60903e-05
1.60936e-05
1.60959e-05
1.60976e-05
1.6099e-05
1.60997e-05
1.60997e-05
1.61017e-05
1.61056e-05
1.61115e-05
1.61163e-05
1.61142e-05
1.61069e-05
1.61136e-05
1.61102e-05
)
;
    }
    procBoundary1to5
    {
        type            processor;
        value           nonuniform List<scalar> 
13
(
1.82467e-05
1.82467e-05
1.57799e-05
1.61594e-05
1.61594e-05
1.60983e-05
1.61105e-05
1.61105e-05
1.61047e-05
1.61039e-05
1.61028e-05
1.61028e-05
1.61027e-05
)
;
    }
}


// ************************************************************************* //
