/*--------------------------------*- C++ -*----------------------------------*\
| =========                 |                                                 |
| \\      /  F ield         | OpenFOAM: The Open Source CFD Toolbox           |
|  \\    /   O peration     | Version:  2306                                  |
|   \\  /    A nd           | Website:  www.openfoam.com                      |
|    \\/     M anipulation  |                                                 |
\*---------------------------------------------------------------------------*/
FoamFile
{
    version     2.0;
    format      ascii;
    arch        "LSB;label=32;scalar=64";
    class       volScalarField;
    location    "175";
    object      nuTilda;
}
// * * * * * * * * * * * * * * * * * * * * * * * * * * * * * * * * * * * * * //

dimensions      [0 2 -1 0 0 0 0];

internalField   nonuniform List<scalar> 
1340
(
0.0878826
0.079561
0.0697924
0.0446002
0.147133
0.142161
0.134303
0.137274
0.191629
0.193198
0.188415
0.19734
0.193627
0.210612
0.219088
0.234827
0.146856
0.189199
0.221401
0.251469
0.0673392
0.128178
0.191107
0.245559
0.0123452
0.0529332
0.13055
0.214219
3.08103e-05
0.00734367
0.061668
0.160087
7.15698e-06
0.00201309
0.0141618
0.097381
0
0
0.00430786
0.0491064
1.19486e-07
0
0.000441357
0.0211338
8.66966e-06
0
0.000169291
0.00773016
3.47978e-05
4.76451e-06
5.32804e-05
0.00232052
4.62313e-05
1.74839e-05
1.14637e-05
0.000457205
4.31572e-05
3.98974e-05
1.26488e-06
6.49932e-06
3.94881e-05
4.76101e-05
5.77599e-06
1.49701e-06
3.85543e-05
4.63963e-05
2.03126e-05
1.39851e-06
3.91533e-05
4.25773e-05
3.77774e-05
3.8267e-06
3.9863e-05
4.00966e-05
4.36605e-05
2.16755e-05
4.01921e-05
3.94049e-05
4.32472e-05
3.39081e-05
4.02287e-05
3.95786e-05
4.15453e-05
3.91662e-05
4.01649e-05
3.98795e-05
4.04548e-05
4.05198e-05
4.01074e-05
4.00506e-05
4.00646e-05
4.04966e-05
4.00795e-05
4.01009e-05
4.00158e-05
4.0263e-05
4.0071e-05
4.00978e-05
4.00519e-05
4.0129e-05
4.00694e-05
4.00845e-05
4.00784e-05
4.00874e-05
4.00686e-05
4.00753e-05
4.00847e-05
4.00821e-05
4.00671e-05
4.00705e-05
4.00815e-05
4.00827e-05
4.00651e-05
4.00678e-05
4.00766e-05
4.00811e-05
4.00633e-05
4.00656e-05
4.00725e-05
4.00778e-05
4.00617e-05
4.00637e-05
4.00693e-05
4.00742e-05
4.00605e-05
4.0062e-05
4.00667e-05
4.00711e-05
4.00594e-05
4.00606e-05
4.00645e-05
4.00684e-05
4.00575e-05
4.00586e-05
4.00594e-05
4.00626e-05
4.00662e-05
4.00571e-05
4.00578e-05
4.00584e-05
4.0061e-05
4.00643e-05
4.00567e-05
4.00572e-05
4.00575e-05
4.00596e-05
4.00626e-05
4.00565e-05
4.00568e-05
4.00569e-05
4.00585e-05
4.00612e-05
4.00564e-05
4.00565e-05
4.00565e-05
4.00576e-05
4.006e-05
4.00567e-05
4.00564e-05
4.00564e-05
4.0057e-05
4.00591e-05
4.00575e-05
4.00569e-05
4.00566e-05
4.00567e-05
4.00584e-05
4.00588e-05
4.00579e-05
4.00573e-05
4.00569e-05
4.00582e-05
4.00605e-05
4.00595e-05
4.00586e-05
4.00576e-05
4.00583e-05
4.00624e-05
4.00613e-05
4.00604e-05
4.00589e-05
4.00591e-05
4.00642e-05
4.00633e-05
4.00624e-05
4.00606e-05
4.00604e-05
4.00657e-05
4.00651e-05
4.00645e-05
4.00626e-05
4.00621e-05
4.00674e-05
4.00671e-05
4.00667e-05
4.00664e-05
4.00648e-05
4.00642e-05
4.00685e-05
4.00684e-05
4.00681e-05
4.0068e-05
4.00668e-05
4.00664e-05
4.00695e-05
4.00696e-05
4.00694e-05
4.00694e-05
4.00686e-05
4.00685e-05
4.00704e-05
4.00705e-05
4.00705e-05
4.00707e-05
4.00701e-05
4.00703e-05
4.0071e-05
4.00713e-05
4.00715e-05
4.00718e-05
4.00714e-05
4.00719e-05
4.00715e-05
4.00719e-05
4.00722e-05
4.00727e-05
4.00725e-05
4.00732e-05
4.00719e-05
4.00724e-05
4.00728e-05
4.00734e-05
4.00734e-05
4.00743e-05
4.0072e-05
4.00726e-05
4.00732e-05
4.00739e-05
4.00741e-05
4.00752e-05
4.0072e-05
4.00727e-05
4.00733e-05
4.00742e-05
4.00746e-05
4.00758e-05
4.00708e-05
4.00716e-05
4.00725e-05
4.00732e-05
4.00742e-05
4.00748e-05
4.00762e-05
4.00702e-05
4.00711e-05
4.0072e-05
4.00729e-05
4.0074e-05
4.00747e-05
4.00762e-05
4.00693e-05
4.00702e-05
4.00712e-05
4.00723e-05
4.00734e-05
4.00744e-05
4.0076e-05
4.00682e-05
4.00692e-05
4.00703e-05
4.00714e-05
4.00726e-05
4.00737e-05
4.00754e-05
4.00668e-05
4.00679e-05
4.00691e-05
4.00702e-05
4.00716e-05
4.00728e-05
4.00746e-05
4.00652e-05
4.00663e-05
4.00676e-05
4.00688e-05
4.00703e-05
4.00716e-05
4.00734e-05
4.0063e-05
4.00643e-05
4.00656e-05
4.0067e-05
4.00686e-05
4.00701e-05
4.0072e-05
4.00588e-05
4.00601e-05
4.00615e-05
4.0063e-05
4.00645e-05
4.00663e-05
4.0068e-05
4.00701e-05
4.0055e-05
4.00564e-05
4.00579e-05
4.00595e-05
4.00612e-05
4.00631e-05
4.0065e-05
4.00674e-05
4.00506e-05
4.0052e-05
4.00536e-05
4.00552e-05
4.0057e-05
4.0059e-05
4.00611e-05
4.00637e-05
4.0046e-05
4.00474e-05
4.00489e-05
4.00505e-05
4.00523e-05
4.00543e-05
4.00565e-05
4.00591e-05
4.00413e-05
4.00426e-05
4.00441e-05
4.00456e-05
4.00473e-05
4.00492e-05
4.00513e-05
4.0054e-05
4.00367e-05
4.0038e-05
4.00394e-05
4.00409e-05
4.00425e-05
4.00444e-05
4.00464e-05
4.00488e-05
4.00322e-05
4.00336e-05
4.00351e-05
4.00366e-05
4.00383e-05
4.00402e-05
4.00422e-05
4.00445e-05
4.00264e-05
4.00276e-05
4.0029e-05
4.00305e-05
4.00321e-05
4.00338e-05
4.00357e-05
4.00378e-05
4.00402e-05
4.00215e-05
4.00226e-05
4.00239e-05
4.00253e-05
4.00267e-05
4.00284e-05
4.00303e-05
4.00323e-05
4.00348e-05
4.00166e-05
4.00176e-05
4.00186e-05
4.00198e-05
4.00211e-05
4.00226e-05
4.00243e-05
4.00261e-05
4.00284e-05
4.00116e-05
4.00125e-05
4.00134e-05
4.00144e-05
4.00156e-05
4.00168e-05
4.00183e-05
4.00199e-05
4.0022e-05
4.00069e-05
4.00074e-05
4.0008e-05
4.00087e-05
4.00095e-05
4.00105e-05
4.00117e-05
4.0013e-05
4.00147e-05
4.00064e-05
4.00062e-05
4.00061e-05
4.00062e-05
4.00063e-05
4.00066e-05
4.0007e-05
4.00077e-05
4.00087e-05
4.0011e-05
4.00107e-05
4.00103e-05
4.001e-05
4.00096e-05
4.00093e-05
4.0009e-05
4.00087e-05
4.00086e-05
4.0017e-05
4.00166e-05
4.00161e-05
4.00156e-05
4.0015e-05
4.00144e-05
4.00136e-05
4.00128e-05
4.0012e-05
4.00244e-05
4.00245e-05
4.00246e-05
4.00246e-05
4.00246e-05
4.00246e-05
4.00245e-05
4.00244e-05
4.00241e-05
4.00303e-05
4.00303e-05
4.00301e-05
4.00298e-05
4.00293e-05
4.00289e-05
4.00284e-05
4.0028e-05
4.00277e-05
4.00275e-05
4.00405e-05
4.0042e-05
4.00437e-05
4.00455e-05
4.00474e-05
4.00493e-05
4.00513e-05
4.00532e-05
4.00558e-05
4.00581e-05
4.00577e-05
4.00579e-05
4.0058e-05
4.0058e-05
4.00578e-05
4.00578e-05
4.00579e-05
4.00584e-05
4.00592e-05
4.00598e-05
0.159186
0.195548
0.231908
0.271358
0.292379
0.290293
0.263579
0.211646
0.13997
0.0687913
0.0260451
0.00883472
0.00246198
0.000452611
4.04968e-05
9.14278e-06
0
3.91074e-06
1.79872e-05
3.24939e-05
3.88467e-05
4.05908e-05
4.06145e-05
4.03362e-05
4.01642e-05
4.01061e-05
4.00964e-05
4.00962e-05
4.00939e-05
4.00896e-05
4.00849e-05
4.00807e-05
4.00771e-05
4.0074e-05
4.00713e-05
4.00689e-05
4.00668e-05
4.0065e-05
4.00635e-05
4.00623e-05
4.00614e-05
4.0061e-05
4.00611e-05
4.00619e-05
4.00631e-05
4.00648e-05
4.00668e-05
4.00688e-05
4.00706e-05
4.00721e-05
4.00734e-05
4.00744e-05
4.00751e-05
4.00758e-05
4.00763e-05
4.00766e-05
4.00765e-05
4.0076e-05
4.00753e-05
4.00743e-05
4.00729e-05
4.00711e-05
4.00686e-05
4.0065e-05
4.00605e-05
4.00553e-05
4.00501e-05
4.00457e-05
4.00414e-05
4.0036e-05
4.00296e-05
4.0023e-05
4.00156e-05
4.00092e-05
4.00085e-05
4.00116e-05
4.00238e-05
4.00272e-05
4.00595e-05
4.00601e-05
0.195158
0.23368
0.258604
0.28364
0.308128
0.315341
0.298414
0.255176
0.187211
0.10523
0.0396403
0.0109828
0.0029265
0.000510021
6.82336e-05
1.54937e-05
0
3.35325e-06
1.5783e-05
3.13131e-05
3.85959e-05
4.06119e-05
4.06831e-05
4.03872e-05
4.01927e-05
4.01229e-05
4.01093e-05
4.01077e-05
4.01044e-05
4.00989e-05
4.00931e-05
4.00878e-05
4.00833e-05
4.00795e-05
4.00761e-05
4.00731e-05
4.00705e-05
4.00682e-05
4.00662e-05
4.00645e-05
4.00632e-05
4.00624e-05
4.00621e-05
4.00624e-05
4.00633e-05
4.00647e-05
4.00665e-05
4.00683e-05
4.00703e-05
4.00719e-05
4.00733e-05
4.00744e-05
4.00752e-05
4.0076e-05
4.00766e-05
4.00769e-05
4.00769e-05
4.00766e-05
4.00759e-05
4.0075e-05
4.00737e-05
4.00719e-05
4.00694e-05
4.00659e-05
4.00614e-05
4.00562e-05
4.00509e-05
4.00465e-05
4.00422e-05
4.00368e-05
4.00303e-05
4.00236e-05
4.00162e-05
4.00095e-05
4.00085e-05
4.00115e-05
4.00235e-05
4.0027e-05
4.00605e-05
0.195993
0.241985
0.271571
0.290141
0.308042
0.322711
0.320566
0.294129
0.240845
0.163478
0.0786495
0.0209951
0.00259122
0.000611465
1.84108e-06
0
0
2.81918e-06
1.31889e-05
2.89299e-05
3.78304e-05
4.05907e-05
4.07877e-05
4.04603e-05
4.0231e-05
4.01428e-05
4.01224e-05
4.01191e-05
4.0115e-05
4.01083e-05
4.01012e-05
4.00948e-05
4.00893e-05
4.00846e-05
4.00805e-05
4.00769e-05
4.00737e-05
4.00709e-05
4.00684e-05
4.00663e-05
4.00646e-05
4.00633e-05
4.00627e-05
4.00626e-05
4.00631e-05
4.00642e-05
4.00659e-05
4.00678e-05
4.00698e-05
4.00717e-05
4.00732e-05
4.00744e-05
4.00754e-05
4.00762e-05
4.0077e-05
4.00774e-05
4.00775e-05
4.00772e-05
4.00766e-05
4.00757e-05
4.00745e-05
4.00728e-05
4.00704e-05
4.00669e-05
4.00624e-05
4.00571e-05
4.00518e-05
4.00474e-05
4.00431e-05
4.00376e-05
4.00311e-05
4.00243e-05
4.00168e-05
4.00098e-05
4.00084e-05
4.00114e-05
4.00232e-05
4.00268e-05
0.178256
0.229706
0.267389
0.290891
0.305156
0.318105
0.326713
0.319397
0.288476
0.230757
0.149717
0.065594
0.0121808
0.0030701
0
0
0
1.32049e-06
6.14202e-06
2.52085e-05
3.64155e-05
4.03224e-05
4.09233e-05
4.0596e-05
4.02899e-05
4.01657e-05
4.01368e-05
4.01315e-05
4.01263e-05
4.01186e-05
4.01101e-05
4.01024e-05
4.00958e-05
4.00902e-05
4.00853e-05
4.00809e-05
4.00771e-05
4.00737e-05
4.00708e-05
4.00682e-05
4.0066e-05
4.00643e-05
4.00633e-05
4.00628e-05
4.00629e-05
4.00637e-05
4.00652e-05
4.00672e-05
4.00694e-05
4.00715e-05
4.00732e-05
4.00746e-05
4.00757e-05
4.00766e-05
4.00774e-05
4.00779e-05
4.00781e-05
4.00779e-05
4.00774e-05
4.00765e-05
4.00753e-05
4.00737e-05
4.00713e-05
4.00679e-05
4.00634e-05
4.00581e-05
4.00527e-05
4.00482e-05
4.00439e-05
4.00385e-05
4.00319e-05
4.00249e-05
4.00174e-05
4.00101e-05
4.00085e-05
4.00113e-05
4.00229e-05
0.14641
0.202403
0.247984
0.280494
0.300428
0.312
0.321606
0.326729
0.316988
0.284518
0.225475
0.143874
0.0604495
0.0104056
0.00266718
0
0
0
2.96016e-06
1.29207e-05
3.30743e-05
4.01663e-05
4.10342e-05
4.07425e-05
4.04072e-05
4.02104e-05
4.01494e-05
4.0143e-05
4.01396e-05
4.01307e-05
4.01205e-05
4.01112e-05
4.01033e-05
4.00965e-05
4.00907e-05
4.00856e-05
4.0081e-05
4.0077e-05
4.00735e-05
4.00704e-05
4.00677e-05
4.00656e-05
4.0064e-05
4.00631e-05
4.00629e-05
4.00633e-05
4.00645e-05
4.00666e-05
4.00689e-05
4.00711e-05
4.00731e-05
4.00746e-05
4.00759e-05
4.00769e-05
4.00778e-05
4.00784e-05
4.00787e-05
4.00786e-05
4.00781e-05
4.00773e-05
4.00762e-05
4.00746e-05
4.00723e-05
4.00689e-05
4.00645e-05
4.00591e-05
4.00537e-05
4.00492e-05
4.00448e-05
4.00393e-05
4.00327e-05
4.00257e-05
4.00181e-05
4.00105e-05
4.00085e-05
4.00112e-05
0.102772
0.161868
0.214647
0.256797
0.286646
0.304818
0.314874
0.322173
0.325304
0.314691
0.282227
0.223579
0.142561
0.0603809
0.0107867
0.00280523
0
0
0
3.68859e-06
1.53676e-05
3.71841e-05
4.21209e-05
4.11329e-05
4.04436e-05
4.02794e-05
4.01998e-05
4.01592e-05
4.01503e-05
4.01442e-05
4.01333e-05
4.01219e-05
4.01122e-05
4.01041e-05
4.00971e-05
4.0091e-05
4.00856e-05
4.00809e-05
4.00767e-05
4.0073e-05
4.00698e-05
4.00671e-05
4.00651e-05
4.00638e-05
4.0063e-05
4.0063e-05
4.00638e-05
4.00658e-05
4.00682e-05
4.00707e-05
4.00729e-05
4.00746e-05
4.0076e-05
4.00772e-05
4.00782e-05
4.00789e-05
4.00793e-05
4.00793e-05
4.00789e-05
4.00782e-05
4.00771e-05
4.00756e-05
4.00733e-05
4.007e-05
4.00656e-05
4.00602e-05
4.00547e-05
4.00501e-05
4.00458e-05
4.00403e-05
4.00336e-05
4.00264e-05
4.00188e-05
4.0011e-05
0.0540989
0.110208
0.168008
0.219012
0.259692
0.288633
0.30631
0.315669
0.321285
0.32328
0.312719
0.281252
0.224055
0.144613
0.063529
0.0128921
0.00338594
0
0
0
3.51258e-06
1.42043e-05
3.88137e-05
4.34948e-05
4.12015e-05
4.01195e-05
4.01318e-05
4.01993e-05
4.01804e-05
4.01591e-05
4.0147e-05
4.01348e-05
4.01229e-05
4.0113e-05
4.01047e-05
4.00975e-05
4.00911e-05
4.00855e-05
4.00806e-05
4.00762e-05
4.00723e-05
4.00691e-05
4.00666e-05
4.00647e-05
4.00635e-05
4.0063e-05
4.00633e-05
4.0065e-05
4.00675e-05
4.00701e-05
4.00726e-05
4.00746e-05
4.00762e-05
4.00774e-05
4.00785e-05
4.00794e-05
4.008e-05
4.008e-05
4.00797e-05
4.00791e-05
4.00781e-05
4.00766e-05
4.00744e-05
4.00712e-05
4.00668e-05
4.00614e-05
4.00558e-05
4.00512e-05
4.00468e-05
4.00413e-05
4.00346e-05
4.00272e-05
0.0156606
0.054218
0.109599
0.166855
0.217617
0.258401
0.287762
0.305916
0.315211
0.319581
0.320968
0.311056
0.281286
0.226316
0.149147
0.0689245
0.0167966
0.0043755
3.32161e-05
0
0
2.17457e-06
8.13032e-06
3.79754e-05
4.47726e-05
4.18195e-05
4.00765e-05
4.00273e-05
4.01861e-05
4.01952e-05
4.01668e-05
4.01496e-05
4.01364e-05
4.0124e-05
4.01136e-05
4.01051e-05
4.00976e-05
4.00911e-05
4.00852e-05
4.008e-05
4.00755e-05
4.00716e-05
4.00684e-05
4.0066e-05
4.00642e-05
4.00632e-05
4.0063e-05
4.00641e-05
4.00666e-05
4.00694e-05
4.00721e-05
4.00744e-05
4.00762e-05
4.00777e-05
4.00789e-05
4.00799e-05
4.00806e-05
4.00808e-05
4.00806e-05
4.008e-05
4.0079e-05
4.00776e-05
4.00755e-05
4.00724e-05
4.0068e-05
4.00626e-05
4.00569e-05
4.00522e-05
4.00478e-05
0.000186908
0.0126356
0.048799
0.102528
0.1598
0.21153
0.253679
0.284548
0.304005
0.313791
0.317242
0.318285
0.309404
0.281838
0.229722
0.155226
0.0760779
0.0203619
0.00132759
0.00033057
0
0
2.47444e-07
8.22644e-06
3.29343e-05
4.41387e-05
4.2246e-05
4.01808e-05
3.99815e-05
4.01736e-05
4.02026e-05
4.01695e-05
4.01501e-05
4.0138e-05
4.01256e-05
4.01144e-05
4.01052e-05
4.00975e-05
4.00908e-05
4.00847e-05
4.00793e-05
4.00746e-05
4.00708e-05
4.00677e-05
4.00654e-05
4.00638e-05
4.0063e-05
4.00634e-05
4.00655e-05
4.00685e-05
4.00715e-05
4.00741e-05
4.00762e-05
4.00778e-05
4.00792e-05
4.00803e-05
4.00811e-05
4.00815e-05
4.00814e-05
4.00809e-05
4.008e-05
4.00787e-05
4.00767e-05
4.00736e-05
4.00693e-05
4.00638e-05
2.77962e-05
0.000110979
0.00926537
0.0398382
0.090557
0.147845
0.201292
0.245778
0.279073
0.300626
0.311662
0.315581
0.316103
0.308103
0.282854
0.233887
0.162417
0.0840937
0.0269919
0.00099078
0.00028117
0
0
0
7.58174e-06
3.06599e-05
4.34476e-05
4.25777e-05
4.0324e-05
3.99639e-05
4.01744e-05
4.02178e-05
4.01726e-05
4.0147e-05
4.01372e-05
4.01268e-05
4.01153e-05
4.01054e-05
4.00972e-05
4.00902e-05
4.00839e-05
4.00783e-05
4.00737e-05
4.00699e-05
4.00669e-05
4.00647e-05
4.00633e-05
4.0063e-05
4.00645e-05
4.00674e-05
4.00707e-05
4.00736e-05
4.0076e-05
4.00779e-05
4.00795e-05
4.00808e-05
4.00817e-05
4.00822e-05
4.00822e-05
4.00818e-05
4.0081e-05
4.00798e-05
0
1.08618e-06
0.00134417
0.00534725
0.0295422
0.075428
0.131942
0.187311
0.234799
0.271315
0.295815
0.309098
0.31409
0.314173
0.306998
0.284117
0.238468
0.17008
0.0931828
0.0318843
0.00210642
0.000599387
0
0
0
6.43289e-06
2.56015e-05
4.22402e-05
4.30135e-05
4.05129e-05
3.98991e-05
4.01483e-05
4.02443e-05
4.01903e-05
4.01474e-05
4.01342e-05
4.01262e-05
4.01159e-05
4.01056e-05
4.00968e-05
4.00892e-05
4.00828e-05
4.00773e-05
4.00727e-05
4.0069e-05
4.00661e-05
4.0064e-05
4.0063e-05
4.00636e-05
4.00662e-05
4.00697e-05
4.0073e-05
4.00757e-05
4.00779e-05
4.00797e-05
4.00811e-05
4.00822e-05
1.51642e-06
0
0
0.000454952
0.00171154
0.0189405
0.0583865
0.112784
0.169832
0.220783
0.261246
0.289467
0.305696
0.312213
0.31203
0.305651
0.285138
0.242918
0.17811
0.10241
0.0380549
0.00453264
0.00123389
0
0
0
4.7571e-06
1.84847e-05
4.03037e-05
4.36705e-05
4.09521e-05
3.98311e-05
4.00407e-05
4.02357e-05
4.02134e-05
4.01574e-05
4.01333e-05
4.01239e-05
4.01152e-05
4.01058e-05
4.00966e-05
4.00884e-05
4.00816e-05
4.00761e-05
4.00716e-05
4.0068e-05
4.00651e-05
4.00634e-05
4.00631e-05
4.0065e-05
1.43649e-05
3.72763e-06
0
0
0.000108482
0.000388485
0.0110556
0.0417531
0.0918406
0.149507
0.204004
0.249025
0.281713
0.301561
0.310065
0.309822
0.304052
0.285713
0.246926
0.185653
0.111086
0.0446218
0.00753646
0.00200549
0
0
0
2.65279e-06
9.66194e-06
3.65603e-05
4.42005e-05
4.17723e-05
3.99753e-05
3.99342e-05
4.01867e-05
4.02233e-05
4.01732e-05
4.01383e-05
)
;

boundaryField
{
    inlet
    {
        type            freestream;
        freestreamValue uniform 4e-05;
        value           nonuniform List<scalar> 
11
(
4.00577e-05
4.00579e-05
4.0058e-05
4.0058e-05
4.00578e-05
4.00578e-05
4.00579e-05
4.00584e-05
4.00592e-05
4.00598e-05
4.00601e-05
)
;
    }
    outlet
    {
        type            freestream;
        freestreamValue nonuniform List<scalar> 0();
        value           nonuniform List<scalar> 0();
    }
    walls
    {
        type            fixedValue;
        value           uniform 0;
    }
    frontAndBack
    {
        type            empty;
    }
    procBoundary6to2
    {
        type            processor;
        value           nonuniform List<scalar> 
13
(
0.121248
0.138787
0.136021
0.116887
0.0847486
0.0460995
0.0143211
0.000997397
5.52499e-05
0
4.31139e-07
5.80642e-06
3.87264e-05
)
;
    }
    procBoundary6to3
    {
        type            processor;
        value           uniform 4.17547e-05;
    }
    procBoundary6to5
    {
        type            processor;
        value           nonuniform List<scalar> 
86
(
0.0938056
0.152283
0.188457
0.17079
0.0979043
0.0241411
0.000440442
0.000102614
0
9.55217e-07
4.39761e-06
3.93276e-05
4.45216e-05
4.06775e-05
3.93168e-05
3.98365e-05
4.03223e-05
4.03541e-05
4.0204e-05
4.00904e-05
4.0053e-05
4.00558e-05
4.00658e-05
4.00708e-05
4.00706e-05
4.00683e-05
4.00657e-05
4.00636e-05
4.0062e-05
4.00607e-05
4.00597e-05
4.00588e-05
4.00581e-05
4.00581e-05
4.0057e-05
4.00568e-05
4.00566e-05
4.00565e-05
4.00566e-05
4.00572e-05
4.00582e-05
4.00597e-05
4.00614e-05
4.00632e-05
4.00647e-05
4.00661e-05
4.00661e-05
4.00675e-05
4.00686e-05
4.00695e-05
4.00702e-05
4.00707e-05
4.00711e-05
4.00714e-05
4.00714e-05
4.00713e-05
4.00713e-05
4.00701e-05
4.00693e-05
4.00684e-05
4.00672e-05
4.00658e-05
4.0064e-05
4.00618e-05
4.00618e-05
4.00575e-05
4.00536e-05
4.00492e-05
4.00447e-05
4.00401e-05
4.00354e-05
4.00309e-05
4.00309e-05
4.00252e-05
4.00204e-05
4.00156e-05
4.00108e-05
4.00064e-05
4.00066e-05
4.00114e-05
4.00172e-05
4.00243e-05
4.00243e-05
4.00299e-05
4.00393e-05
4.00572e-05
)
;
    }
    procBoundary6to7
    {
        type            processor;
        value           nonuniform List<scalar> 
91
(
4.00605e-05
4.00605e-05
4.00614e-05
4.00614e-05
4.00266e-05
4.00266e-05
4.00226e-05
4.00085e-05
4.00226e-05
4.0011e-05
4.00196e-05
4.00085e-05
4.00115e-05
4.00423e-05
4.00356e-05
4.00196e-05
4.00281e-05
4.00581e-05
4.00534e-05
4.00423e-05
4.00489e-05
4.00779e-05
4.00749e-05
4.00706e-05
4.00581e-05
4.00652e-05
4.00829e-05
4.0083e-05
4.00827e-05
4.0082e-05
4.00779e-05
4.00809e-05
4.00684e-05
4.00721e-05
4.00752e-05
4.00778e-05
4.00798e-05
4.00814e-05
4.00829e-05
4.00827e-05
4.01218e-05
4.01116e-05
4.01033e-05
4.00954e-05
4.00876e-05
4.00807e-05
4.0075e-05
4.00704e-05
4.00668e-05
4.00642e-05
4.0063e-05
4.00684e-05
4.00639e-05
1.98645e-05
5.13485e-06
0
0
4.05859e-06
0.00126429
0.00490739
0.0271889
0.0708117
0.127379
0.184969
0.235008
0.272995
0.297324
0.308628
0.309867
0.304115
0.287144
0.251196
0.192904
0.119532
0.0513118
0.0107071
0.00284877
0
0
0
9.90035e-07
3.1804e-06
3.24243e-05
4.35123e-05
4.25019e-05
4.0265e-05
3.98689e-05
4.01005e-05
4.02013e-05
4.01218e-05
4.01841e-05
)
;
    }
}


// ************************************************************************* //
