/*--------------------------------*- C++ -*----------------------------------*\
| =========                 |                                                 |
| \\      /  F ield         | OpenFOAM: The Open Source CFD Toolbox           |
|  \\    /   O peration     | Version:  2306                                  |
|   \\  /    A nd           | Website:  www.openfoam.com                      |
|    \\/     M anipulation  |                                                 |
\*---------------------------------------------------------------------------*/
FoamFile
{
    version     2.0;
    format      ascii;
    arch        "LSB;label=32;scalar=64";
    class       volScalarField;
    location    "175";
    object      p;
}
// * * * * * * * * * * * * * * * * * * * * * * * * * * * * * * * * * * * * * //

dimensions      [0 2 -2 0 0 0 0];

internalField   nonuniform List<scalar> 
1340
(
-89.9165
-51.5793
-7.20622
27.7467
-89.5273
-51.2791
-6.90259
27.4323
-89.0938
-50.9574
-6.66656
27.5302
-88.5959
-50.6568
-6.57878
27.6805
-87.9687
-50.3555
-6.62611
27.6635
-87.2997
-50.0837
-6.83822
27.4451
-86.6414
-49.8957
-7.24684
26.9968
-85.9593
-49.7595
-7.81905
26.2752
-85.2485
-49.6245
-8.46708
25.2872
-84.5122
-49.4725
-9.15673
24.1039
-83.7565
-49.3086
-9.90463
22.7816
-82.9873
-49.1533
-10.7217
21.3326
-82.2039
-49.0217
-11.6067
19.7649
-81.4036
-48.9166
-12.5581
18.0913
-80.5859
-48.8332
-13.5734
16.3211
-79.7506
-48.7697
-14.6453
14.4601
-78.8975
-48.7243
-15.7657
12.5158
-78.0251
-48.6962
-16.926
10.5
-77.1325
-48.6835
-18.1178
8.42459
-76.2179
-48.683
-19.3324
6.30234
-75.2793
-48.6904
-20.5603
4.14728
-74.3146
-48.7011
-21.7912
1.97401
-73.3215
-48.7097
-23.0158
-0.203722
-72.2976
-48.7096
-24.2231
-2.37073
-71.2397
-48.6945
-25.4027
-4.51253
-70.1461
-48.6566
-26.5436
-6.614
-69.0133
-48.5888
-27.6366
-8.66038
-67.8396
-48.4847
-28.6706
-10.6385
-66.6223
-48.3347
-29.6369
-12.5354
-65.3596
-48.1338
-30.5253
-14.3389
-64.0506
-47.8747
-31.3284
-16.0385
-62.6946
-47.5516
-32.0385
-17.6248
-61.2909
-47.1599
-32.649
-19.089
-72.0957
-59.841
-46.6951
-33.1544
-20.4246
-69.6667
-58.3458
-46.1553
-33.5511
-21.6261
-67.2313
-56.8076
-45.5389
-33.8358
-22.6895
-64.7953
-55.2297
-44.8451
-34.0072
-23.6126
-62.3658
-53.6158
-44.0755
-34.0649
-24.3941
-59.9491
-51.9702
-43.2321
-34.0104
-25.0351
-57.5519
-50.2981
-42.3185
-33.8461
-25.5372
-55.1803
-48.6052
-41.339
-33.5759
-25.9034
-52.8406
-46.8971
-40.2991
-33.2047
-26.1386
-50.5384
-45.18
-39.2047
-32.7385
-26.2481
-48.2791
-43.4601
-38.0627
-32.184
-26.2383
-46.0675
-41.7436
-36.8801
-31.5489
-26.1166
-47.2625
-43.908
-40.0366
-35.6641
-30.8411
-25.8909
-44.7952
-41.8041
-38.3447
-34.4222
-30.069
-25.5699
-42.4221
-39.7592
-36.6735
-33.1616
-29.2411
-25.1622
-40.1431
-37.7756
-35.0277
-31.8892
-28.3657
-24.6769
-37.9577
-35.8554
-33.4118
-30.6117
-27.4513
-24.123
-35.8647
-33.9997
-31.8295
-29.3353
-26.5057
-23.5094
-33.8626
-32.2096
-30.2844
-28.0656
-25.5365
-22.8449
-31.9492
-30.4852
-28.779
-26.8078
-24.5507
-22.1376
-30.1223
-28.8265
-27.3156
-25.5663
-23.5549
-21.3956
-29.3527
-28.3791
-27.2328
-25.896
-24.345
-22.555
-20.6262
-27.5789
-26.7169
-25.7033
-24.5212
-23.1474
-21.5563
-19.8362
-25.8956
-25.1326
-24.2367
-23.1919
-21.9762
-20.5634
-19.0318
-24.2983
-23.623
-22.8314
-21.9087
-20.8335
-19.5804
-18.2186
-22.7824
-22.185
-21.4858
-20.6712
-19.7211
-18.6107
-17.4016
-21.3437
-20.8153
-20.198
-19.4792
-18.6402
-17.6573
-16.5851
-19.9777
-19.5105
-18.9658
-18.332
-17.5916
-16.7223
-15.7729
-19.032
-18.6801
-18.2675
-17.787
-17.2285
-16.5757
-15.8078
-14.9681
-17.7584
-17.4471
-17.0828
-16.6594
-16.1677
-15.5928
-14.9151
-14.1735
-16.5492
-16.2742
-15.9531
-15.5805
-15.1482
-14.6424
-14.0452
-13.3912
-15.4005
-15.158
-14.8756
-14.5482
-14.1687
-13.7244
-13.199
-12.6234
-14.3073
-14.0942
-13.8464
-13.5595
-13.2271
-12.8377
-12.3763
-11.8707
-13.267
-13.0805
-12.8638
-12.613
-12.3227
-11.9824
-11.5783
-11.1356
-12.4291
-12.2609
-12.0658
-11.8401
-11.5789
-11.2728
-10.9094
-10.5114
-11.8661
-11.7323
-11.5769
-11.3965
-11.1879
-10.9469
-10.665
-10.33
-9.96334
-11.1457
-11.0224
-10.8805
-10.7154
-10.5243
-10.3037
-10.0458
-9.7393
-9.40619
-10.4064
-10.2926
-10.1634
-10.0129
-9.83848
-9.63763
-9.40316
-9.12357
-8.81753
-9.66926
-9.56787
-9.45349
-9.31932
-9.16286
-8.98211
-8.77119
-8.52081
-8.25485
-8.88391
-8.79035
-8.6868
-8.56586
-8.42532
-8.26359
-8.07418
-7.84474
-7.58583
-8.18174
-8.1065
-8.02238
-7.92095
-7.79998
-7.65909
-7.49569
-7.30636
-7.12435
-7.25447
-7.17994
-7.10106
-7.00937
-6.9026
-6.77934
-6.63095
-6.43823
-6.18896
-6.80303
-6.76273
-6.71522
-6.65107
-6.56889
-6.4713
-6.36444
-6.26058
-6.22305
-5.31336
-5.2542
-5.19744
-5.1347
-5.06282
-4.97738
-4.85919
-4.66787
-4.33723
-5.89324
-5.91999
-5.92306
-5.91947
-5.90308
-5.87053
-5.82945
-5.80792
-5.85618
-6.10626
-2.48818
-2.42225
-2.36543
-2.32462
-2.28732
-2.2469
-2.19513
-2.0881
-1.84642
-1.29281
-6.63148
-6.51569
-6.5365
-6.65944
-6.75001
-6.79335
-6.83484
-6.94731
-7.23444
-7.89491
107.51
106.664
105.569
104.16
102.202
99.4988
95.8368
91.0883
85.3949
79.2005
72.993
67.0357
61.3682
55.9496
50.7485
45.7584
40.9837
36.4269
32.0863
27.9562
24.0286
20.2961
16.7511
13.3865
10.1961
7.17334
4.3119
1.60579
-0.948634
-3.35432
-5.61273
-7.72411
-9.68876
-11.5058
-13.1743
-14.6938
-16.0638
-17.2845
-18.3567
-19.282
-20.0627
-20.7021
-21.2046
-21.5751
-21.8198
-21.9453
-21.9589
-21.8686
-21.6826
-21.4095
-21.0581
-20.6369
-20.1547
-19.6197
-19.0398
-18.4227
-17.7753
-17.1043
-16.4155
-15.7143
-15.0054
-14.2931
-13.5811
-12.8722
-12.1697
-11.4749
-10.7916
-10.2066
-9.6847
-9.15753
-8.58766
-8.06409
-7.38919
-7.00699
-5.99167
-6.22101
-4.0805
-6.29162
-0.94037
-8.36089
46.8337
46.3617
45.924
45.5259
45.1436
44.8171
44.565
44.3365
44.0118
43.4646
42.6485
41.576
40.25
38.6748
36.8736
34.878
32.7197
30.4277
28.0297
25.5519
23.0191
20.4548
17.8802
15.314
12.7732
10.2732
7.82905
5.45381
3.15887
0.952901
-1.15682
-3.16402
-5.06408
-6.85246
-8.52528
-10.0795
-11.5122
-12.8213
-14.0051
-15.0627
-15.9938
-16.7991
-17.48
-18.0387
-18.4784
-18.8034
-19.0184
-19.1289
-19.1412
-19.0619
-18.8982
-18.6574
-18.3472
-17.9749
-17.5481
-17.074
-16.5596
-16.0113
-15.4354
-14.8376
-14.2231
-13.5964
-12.9619
-12.3232
-11.6839
-11.0459
-10.4133
-9.86822
-9.37954
-8.88639
-8.34585
-7.85509
-7.204
-6.85323
-5.86125
-6.10527
-4.0248
-6.16602
-1.03407
28.2385
27.93
27.5956
27.2549
26.8696
26.4202
25.907
25.3338
24.7057
24.0285
23.3188
22.6079
21.9099
21.2145
20.5034
19.7564
18.9577
18.0946
17.1569
16.1376
15.0329
13.8422
12.5683
11.217
9.79673
8.31745
6.7905
5.22772
3.64249
2.04826
0.458551
-1.1132
-2.65473
-4.15429
-5.60103
-6.98533
-8.29854
-9.53301
-10.6821
-11.7403
-12.7031
-13.5671
-14.33
-14.9903
-15.548
-16.0037
-16.3593
-16.6174
-16.7816
-16.8563
-16.8464
-16.7574
-16.5952
-16.3662
-16.0766
-15.733
-15.3416
-14.9088
-14.4404
-13.9422
-13.4194
-12.877
-12.3196
-11.7511
-11.1755
-10.5953
-10.0147
-9.51099
-9.05681
-8.59816
-8.08951
-7.63001
-7.01069
-6.68013
-5.7363
-5.9571
-3.99985
-5.98277
27.0206
26.8324
26.6276
26.4146
26.179
25.9003
25.5595
25.1378
24.6149
23.9739
23.2118
22.3545
21.4437
20.5029
19.5394
18.5551
17.5524
16.5345
15.5035
14.459
13.4
12.3243
11.2296
10.1135
8.97417
7.81032
6.62179
5.40918
4.17503
2.92289
1.65786
0.386525
-0.883824
-2.14496
-3.38798
-4.60393
-5.78376
-6.91876
-8.00061
-9.02158
-9.97489
-10.8546
-11.6558
-12.3743
-13.0073
-13.5528
-14.0101
-14.3793
-14.6616
-14.8592
-14.9749
-15.0124
-14.976
-14.8705
-14.701
-14.473
-14.1921
-13.8639
-13.4941
-13.0879
-12.6508
-12.1875
-11.7029
-11.2011
-10.6863
-10.1616
-9.63095
-9.16713
-8.74535
-8.31876
-7.84008
-7.41019
-6.82022
-6.51151
-5.60669
-5.82149
-3.94885
23.0538
22.8522
22.6462
22.4494
22.2547
22.0549
21.841
21.604
21.3354
21.0228
20.6507
20.2071
19.6945
19.123
18.4971
17.8172
17.0837
16.2979
15.4627
14.5813
13.6577
12.6957
11.6992
10.6724
9.61919
8.54332
7.44849
6.33797
5.21526
4.08356
2.94621
1.80708
0.670099
-0.460263
-1.57889
-2.68031
-3.75856
-4.80737
-5.82022
-6.79058
-7.71216
-8.57898
-9.38548
-10.1267
-10.7984
-11.3971
-11.9205
-12.3667
-12.7352
-13.0262
-13.2407
-13.3806
-13.4486
-13.4479
-13.3825
-13.2566
-13.0748
-12.8419
-12.5629
-12.2428
-11.8866
-11.4989
-11.0844
-10.6474
-10.1922
-9.72214
-9.24114
-8.81684
-8.42729
-8.03263
-7.58401
-7.18403
-6.62271
-6.33862
-5.4671
-5.68863
18.4163
18.2383
18.0529
17.8747
17.6966
17.5158
17.3296
17.1314
16.9152
16.6755
16.4063
16.0999
15.752
15.3665
14.9491
14.5016
14.0239
13.5143
12.97
12.3888
11.7695
11.1109
10.4127
9.6748
8.89844
8.08524
7.23772
6.35883
5.45226
4.52197
3.57228
2.60795
1.63371
0.654535
-0.324384
-1.29782
-2.26035
-3.20648
-4.1305
-5.02675
-5.88954
-6.71331
-7.49266
-8.22243
-8.89801
-9.51522
-10.0705
-10.561
-10.9845
-11.3399
-11.6267
-11.845
-11.996
-12.0816
-12.104
-12.0664
-11.9722
-11.8252
-11.6296
-11.3896
-11.1098
-10.7944
-10.448
-10.0745
-9.67821
-9.26273
-8.83171
-8.44751
-8.09109
-7.72938
-7.3122
-6.94317
-6.41211
-6.15344
15.2971
15.1503
14.9942
14.8411
14.6859
14.5273
14.3662
14.1996
14.0219
13.8275
13.6112
13.3671
13.089
12.7743
12.4277
12.0548
11.6588
11.2413
10.8027
10.3418
9.85752
9.349
8.81538
8.25564
7.66904
7.05494
6.41308
5.74351
5.04691
4.32436
3.5776
2.80903
2.0215
1.21845
0.403907
-0.417784
-1.24184
-2.06328
-2.87678
-3.67695
-4.45834
-5.21552
-5.9431
-6.63582
-7.28881
-7.89745
-8.45749
-8.96531
-9.41776
-9.81242
-10.1476
-10.4221
-10.6359
-10.7891
-10.8831
-10.9193
-10.9003
-10.8286
-10.7076
-10.5406
-10.3314
-10.0839
-9.80204
-9.48959
-9.15064
-8.78874
-8.40732
-8.06329
-7.74035
-7.41194
-7.02701
-6.68935
13.1449
13.0216
12.8887
12.7558
12.6197
12.4802
12.339
12.1964
12.05
11.8956
11.7287
11.5448
11.3387
11.1044
10.8391
10.545
10.2262
9.88493
9.52285
9.14061
8.73768
8.31335
7.86744
7.39981
6.91041
6.39917
5.86614
5.31146
4.73555
4.13885
3.52211
2.88637
2.23296
1.56356
0.880413
0.186088
-0.51632
-1.22332
-1.93097
-2.635
-3.33089
-4.01391
-4.6792
-5.32183
-5.93703
-6.52012
-7.06667
-7.5726
-8.0342
-8.44833
-8.81236
-9.12423
-9.38259
-9.58669
-9.73647
-9.8325
-9.87594
-9.8685
-9.81236
-9.71012
-9.56476
-9.37945
-9.15764
-8.90272
-8.61836
-8.30811
-7.97492
-7.67036
-7.3805
11.3733
11.2685
11.1556
11.0412
10.9221
10.7981
10.6717
10.5443
10.4157
10.2844
10.1474
10.0008
9.8414
9.66482
9.46612
9.2424
8.99477
8.72598
8.43774
8.13131
7.80747
7.46553
7.10445
6.72357
6.32262
5.90132
5.45965
4.99768
4.51577
4.01436
3.49411
2.95594
2.4009
1.83027
1.24571
0.649046
0.0424469
-0.571588
-1.19023
-1.8103
-2.42837
-3.04071
-3.64334
-4.23209
-4.80273
-5.35099
-5.87265
-6.36366
-6.82016
-7.23866
-7.61604
-7.94959
-8.23722
-8.47731
-8.66888
-8.81153
-8.90542
-8.95129
-8.95039
-8.90446
-8.81564
-8.68642
-8.51959
-8.31808
-8.08507
-7.82393
9.88211
9.7931
9.69726
9.60006
9.49812
9.38985
9.27729
9.16249
9.04639
8.92909
8.80968
8.68578
8.55435
8.41256
8.25687
8.08302
7.88824
7.67302
7.4396
7.18949
6.92403
6.64414
6.34937
6.03859
5.71108
5.36644
5.00439
4.62469
4.22723
3.81199
3.37916
2.92917
2.46259
1.98028
1.48336
0.973192
0.451408
-0.0800739
-0.619042
-1.16302
-1.70925
-2.25475
-2.79627
-3.33033
-3.85333
-4.36153
-4.85112
-5.31832
-5.7594
-6.17085
-6.54938
-6.89195
-7.19601
-7.45935
-7.68031
-7.8577
-7.9909
-8.07978
-8.12478
-8.12678
-8.0872
-8.00771
8.6657
8.58971
8.50787
8.42453
8.33732
8.24457
8.14649
8.04426
7.93934
7.8328
7.72507
7.61564
7.50278
7.38403
7.25688
7.1183
6.96453
6.79281
6.60306
6.39699
6.17608
5.94153
5.69443
5.43458
5.16108
4.87332
4.57099
4.25382
3.92163
3.57422
3.21155
2.83374
2.44099
2.03368
1.61246
1.17809
0.731635
0.274379
-0.192079
-0.665912
-1.14501
-1.62703
-2.10933
-2.58905
-3.06316
-3.52845
-3.98154
-4.41905
-4.83751
-5.23356
-5.60394
-5.94553
-6.25553
-6.5314
-6.77101
-6.97265
-7.13503
7.65846
7.59332
7.52317
7.45153
7.37645
7.2968
7.21281
7.12422
7.03115
6.93485
6.83674
6.73745
6.63685
6.53371
6.42606
6.31165
6.18791
6.05155
5.89975
5.73188
5.54926
5.3532
5.14492
4.92553
4.69507
4.4527
4.19774
3.92984
3.64884
3.35456
3.04692
2.72596
2.39175
2.04448
1.68452
1.31232
0.928568
0.534099
0.13001
-0.282417
-0.701646
-1.12593
-1.55325
-1.98134
-2.40773
-2.82977
-3.24459
-3.64922
-4.04057
-4.41555
6.80313
6.74713
6.68693
6.62541
6.56088
6.49214
6.41951
6.34333
6.26305
6.17823
6.08979
5.99929
5.90765
5.81497
5.72045
5.62247
5.51907
5.40812
5.28675
5.15211
5.00314
4.84069
4.66598
4.48019
4.28452
4.07915
3.86332
3.63624
3.39765
3.1474
2.88543
2.61168
2.3261
2.02873
1.71977
1.39948
1.06833
0.726855
)
;

boundaryField
{
    inlet
    {
        type            freestreamPressure;
        freestreamValue uniform 0;
        value           nonuniform List<scalar> 
11
(
-3.11043
-2.85974
-2.87042
-2.92593
-2.96718
-2.98762
-3.00724
-3.05816
-3.18627
-3.34136
-3.68522
)
;
    }
    outlet
    {
        type            freestreamPressure;
        freestreamValue nonuniform List<scalar> 0();
        value           nonuniform List<scalar> 0();
    }
    walls
    {
        type            zeroGradient;
    }
    frontAndBack
    {
        type            empty;
    }
    procBoundary6to2
    {
        type            processor;
        value           nonuniform List<scalar> 
13
(
107.103
47.1065
28.4062
27.152
23.1992
18.5384
15.4021
13.2376
11.4539
9.9519
8.72645
7.71136
6.84918
)
;
    }
    procBoundary6to3
    {
        type            processor;
        value           uniform 6.0731;
    }
    procBoundary6to5
    {
        type            processor;
        value           nonuniform List<scalar> 
86
(
-127.117
-126.62
-126.047
-125.259
-124.217
-123.11
-121.983
-120.819
-119.611
-118.346
-117.023
-115.648
-114.22
-112.737
-111.199
-109.606
-107.956
-106.251
-104.489
-102.672
-100.798
-98.8694
-96.8863
-94.8499
-92.7621
-90.6236
-88.4386
-86.208
-83.9359
-81.6262
-79.2822
-76.9091
-74.5117
-74.5117
-83.1436
-79.835
-76.5582
-73.3229
-70.1373
-67.0101
-63.9485
-60.959
-58.0472
-55.2182
-52.4758
-49.8232
-49.8232
-50.1048
-47.3277
-44.6756
-42.1463
-39.7367
-37.4434
-35.2625
-33.19
-31.2216
-31.2216
-30.1679
-28.3025
-26.5377
-24.868
-23.2879
-21.7919
-20.375
-20.375
-19.3274
-18.0205
-16.7815
-15.6058
-14.4881
-13.4256
-12.5727
-12.5727
-11.9798
-11.2522
-10.5064
-9.75942
-8.96919
-8.24978
-7.3263
-6.83656
-5.37745
-5.37745
-5.80409
-2.52638
-6.22847
)
;
    }
    procBoundary6to7
    {
        type            processor;
        value           nonuniform List<scalar> 
91
(
-8.18069
-8.18069
-1.17877
-1.17877
-5.84362
-5.84362
-3.87682
-5.31723
-3.87682
-5.54532
-6.19004
-5.31723
-5.95656
-7.08502
-6.73242
-6.19004
-6.42592
-7.53714
-7.27083
-7.08502
-7.01333
-7.8905
-7.73792
-7.55262
-7.53714
-7.33773
-7.25737
-7.33936
-7.38119
-7.38346
-7.8905
-7.34726
-4.77107
-5.10412
-5.41182
-5.69151
-5.9408
-6.1576
-7.25737
-6.3402
0.375882
0.016291
-0.350767
-0.724006
-1.10187
-1.48262
-1.8643
-2.24477
-2.62163
-2.99241
-3.35443
-4.77107
-3.70494
6.02486
5.97303
5.91992
5.8641
5.80464
5.74163
5.67536
5.6059
5.53291
5.45567
5.37445
5.2906
5.20548
5.11953
5.03229
4.94242
4.84823
4.74786
4.63884
4.51843
4.38531
4.2399
4.08322
3.91628
3.7403
3.55574
3.36207
3.15859
2.945
2.72117
2.48703
2.24243
1.98731
1.72169
1.44574
1.1597
0.375882
0.863972
)
;
    }
}


// ************************************************************************* //
