/*--------------------------------*- C++ -*----------------------------------*\
| =========                 |                                                 |
| \\      /  F ield         | OpenFOAM: The Open Source CFD Toolbox           |
|  \\    /   O peration     | Version:  2306                                  |
|   \\  /    A nd           | Website:  www.openfoam.com                      |
|    \\/     M anipulation  |                                                 |
\*---------------------------------------------------------------------------*/
FoamFile
{
    version     2.0;
    format      ascii;
    arch        "LSB;label=32;scalar=64";
    class       volScalarField;
    location    "175";
    object      turbulenceProperties:k;
}
// * * * * * * * * * * * * * * * * * * * * * * * * * * * * * * * * * * * * * //

dimensions      [0 2 -2 0 0 0 0];

internalField   nonuniform List<scalar> 
1340
(
26.6039
21.2453
15.8528
5.14018
9.09493
8.11711
7.18908
7.96747
11.1791
9.73964
8.13719
9.19983
10.9283
10.5051
9.35224
10.1452
6.10342
8.32269
9.13838
10.4374
0.916958
3.47824
6.63328
9.56162
0.0982605
0.333917
2.77105
7.07781
0.000112161
0.0532991
0.438012
3.71284
2.72826e-06
0.0117261
0.0706679
1.23192
0
0
0.0211678
0.293332
6.43339e-10
0
0.00141776
0.0864754
3.22841e-06
0
0.0005013
0.0302884
4.89122e-05
9.53372e-07
0.000109778
0.00923766
8.04845e-05
1.22324e-05
5.41917e-06
0.00177681
6.92894e-05
5.86563e-05
6.23215e-08
2.15612e-06
5.72967e-05
7.84742e-05
1.23873e-06
1.04662e-07
5.32123e-05
7.2762e-05
1.46007e-05
8.37988e-08
5.30366e-05
6.02962e-05
4.66973e-05
5.79931e-07
5.29909e-05
5.20746e-05
5.85012e-05
1.71194e-05
5.18882e-05
4.84885e-05
5.50276e-05
3.79818e-05
5.00153e-05
4.68896e-05
4.88085e-05
4.62878e-05
4.78789e-05
4.54996e-05
4.42568e-05
4.57899e-05
4.57345e-05
4.37776e-05
4.13095e-05
4.24875e-05
4.36334e-05
4.17795e-05
3.90822e-05
3.90533e-05
4.15606e-05
3.96733e-05
3.70373e-05
3.6056e-05
3.94925e-05
3.75584e-05
3.50032e-05
3.34273e-05
3.74277e-05
3.54757e-05
3.29771e-05
3.10418e-05
3.53739e-05
3.34315e-05
3.0988e-05
2.88369e-05
3.33367e-05
3.1426e-05
2.90498e-05
2.67802e-05
3.13299e-05
2.94682e-05
2.71762e-05
2.48614e-05
2.93634e-05
2.75644e-05
2.53672e-05
2.30684e-05
2.74421e-05
2.57218e-05
2.36327e-05
2.13907e-05
2.55762e-05
2.39421e-05
2.19718e-05
1.98227e-05
2.51456e-05
2.37721e-05
2.22338e-05
2.03861e-05
1.83541e-05
2.33015e-05
2.20355e-05
2.05999e-05
1.88803e-05
1.6979e-05
2.15317e-05
2.03731e-05
1.90424e-05
1.74538e-05
1.56922e-05
1.98422e-05
1.8788e-05
1.75636e-05
1.61061e-05
1.44876e-05
1.82376e-05
1.72839e-05
1.61654e-05
1.48368e-05
1.33609e-05
1.67206e-05
1.58629e-05
1.48484e-05
1.36453e-05
1.23079e-05
1.52935e-05
1.45264e-05
1.36118e-05
1.25296e-05
1.13247e-05
1.39573e-05
1.32748e-05
1.24553e-05
1.14875e-05
1.04079e-05
1.27114e-05
1.21071e-05
1.13771e-05
1.05168e-05
9.55408e-06
1.1554e-05
1.10216e-05
1.03748e-05
9.61428e-06
8.75981e-06
1.04831e-05
1.00162e-05
9.44589e-06
8.77727e-06
8.02146e-06
9.49565e-06
9.08805e-06
8.58772e-06
8.00262e-06
7.33662e-06
8.87729e-06
8.58872e-06
8.23386e-06
7.79683e-06
7.28715e-06
6.70243e-06
8.00808e-06
7.75829e-06
7.45043e-06
7.06999e-06
6.62778e-06
6.11596e-06
7.21579e-06
7.00004e-06
6.73373e-06
6.40362e-06
6.02132e-06
5.57443e-06
6.4955e-06
6.30953e-06
6.07974e-06
5.79409e-06
5.46452e-06
5.07525e-06
5.84239e-06
5.68225e-06
5.48437e-06
5.23788e-06
4.95441e-06
4.61607e-06
5.25175e-06
5.11391e-06
4.94366e-06
4.7313e-06
4.48801e-06
4.19447e-06
4.7185e-06
4.59992e-06
4.45364e-06
4.27094e-06
4.06237e-06
3.80802e-06
4.23792e-06
4.1359e-06
4.01024e-06
3.8532e-06
3.67459e-06
3.45447e-06
3.80546e-06
3.7176e-06
3.60972e-06
3.47481e-06
3.32189e-06
3.13157e-06
3.47708e-06
3.41677e-06
3.34106e-06
3.24838e-06
3.13252e-06
3.00159e-06
2.83719e-06
3.12003e-06
3.06771e-06
3.00245e-06
2.92279e-06
2.82328e-06
2.71113e-06
2.5692e-06
2.80013e-06
2.75471e-06
2.69833e-06
2.62976e-06
2.54422e-06
2.44806e-06
2.32557e-06
2.51391e-06
2.47434e-06
2.42551e-06
2.36636e-06
2.2927e-06
2.21012e-06
2.10441e-06
2.25797e-06
2.22338e-06
2.18097e-06
2.12983e-06
2.06631e-06
1.99521e-06
1.90393e-06
2.02895e-06
1.99869e-06
1.96181e-06
1.91751e-06
1.86263e-06
1.80128e-06
1.72243e-06
1.82369e-06
1.79718e-06
1.76512e-06
1.72677e-06
1.67935e-06
1.62635e-06
1.55826e-06
1.65794e-06
1.63897e-06
1.61583e-06
1.58806e-06
1.55492e-06
1.51403e-06
1.46827e-06
1.40963e-06
1.48911e-06
1.4724e-06
1.45229e-06
1.42823e-06
1.39963e-06
1.36447e-06
1.32506e-06
1.27476e-06
1.33736e-06
1.32255e-06
1.30489e-06
1.28393e-06
1.2592e-06
1.22893e-06
1.19499e-06
1.15191e-06
1.20188e-06
1.18853e-06
1.1728e-06
1.15435e-06
1.13276e-06
1.10656e-06
1.0772e-06
1.04034e-06
1.08072e-06
1.06843e-06
1.05415e-06
1.03762e-06
1.01849e-06
9.95462e-07
9.69759e-07
9.37882e-07
9.76979e-07
9.6577e-07
9.52845e-07
9.37982e-07
9.2087e-07
9.00317e-07
8.77418e-07
8.49193e-07
8.94307e-07
8.83973e-07
8.72245e-07
8.58845e-07
8.43418e-07
8.24825e-07
8.04094e-07
7.79837e-07
8.31307e-07
8.2299e-07
8.1269e-07
8.0133e-07
7.88715e-07
7.74376e-07
7.57321e-07
7.3803e-07
7.16341e-07
7.67896e-07
7.59604e-07
7.49476e-07
7.3829e-07
7.26013e-07
7.12227e-07
6.96167e-07
6.78429e-07
6.60137e-07
7.01752e-07
6.93233e-07
6.83091e-07
6.71995e-07
6.59977e-07
6.46628e-07
6.31093e-07
6.13161e-07
5.93268e-07
6.48151e-07
6.404e-07
6.31039e-07
6.20599e-07
6.09145e-07
5.96497e-07
5.82294e-07
5.67603e-07
5.5514e-07
5.73581e-07
5.64981e-07
5.55266e-07
5.44876e-07
5.33829e-07
5.21594e-07
5.07011e-07
4.88607e-07
4.66878e-07
5.49018e-07
5.41872e-07
5.3325e-07
5.23514e-07
5.12944e-07
5.01797e-07
4.90734e-07
4.82356e-07
4.80526e-07
4.45137e-07
4.36974e-07
4.28066e-07
4.185e-07
4.08145e-07
3.96086e-07
3.80043e-07
3.57951e-07
3.30299e-07
5.08934e-07
5.03901e-07
4.97442e-07
4.89545e-07
4.81071e-07
4.73237e-07
4.69686e-07
4.75957e-07
4.90897e-07
3.96527e-07
3.95785e-07
3.92873e-07
3.87716e-07
3.80608e-07
3.70968e-07
3.57721e-07
3.49612e-07
3.3506e-07
6.83057e-07
6.67383e-07
6.67616e-07
6.67662e-07
6.668e-07
6.65796e-07
6.66816e-07
6.79483e-07
7.10289e-07
7.25037e-07
7.31295e-07
7.27221e-07
7.31501e-07
7.36651e-07
7.41003e-07
7.44879e-07
7.50385e-07
7.68977e-07
8.00588e-07
7.98838e-07
1.24182e-06
1.0496e-06
1.06443e-06
1.0771e-06
1.08462e-06
1.09332e-06
1.10499e-06
1.12795e-06
1.14809e-06
9.81218e-07
13.8375
5.98254
3.19399
8.57951
11.0117
11.1335
9.38165
6.11347
2.61504
0.60275
0.0946124
0.0255684
0.00819761
0.0015801
7.20235e-05
3.50648e-06
0
5.31245e-07
1.03472e-05
3.0577e-05
3.97573e-05
3.99863e-05
3.70947e-05
3.39482e-05
3.12218e-05
2.88798e-05
2.6781e-05
2.48552e-05
2.3069e-05
2.14122e-05
1.98746e-05
1.84465e-05
1.71207e-05
1.58864e-05
1.47356e-05
1.36625e-05
1.26596e-05
1.17218e-05
1.08446e-05
1.00236e-05
9.25553e-06
8.53721e-06
7.86626e-06
7.23868e-06
6.65309e-06
6.10754e-06
5.59979e-06
5.12786e-06
4.68986e-06
4.2842e-06
3.90931e-06
3.56341e-06
3.24496e-06
2.95232e-06
2.68395e-06
2.43829e-06
2.21377e-06
2.00892e-06
1.82231e-06
1.65259e-06
1.49845e-06
1.35842e-06
1.23101e-06
1.11458e-06
1.00861e-06
9.10713e-07
8.25222e-07
7.59367e-07
6.96608e-07
6.45746e-07
5.73936e-07
5.48727e-07
4.42128e-07
4.88435e-07
2.92586e-07
5.14074e-07
2.99391e-07
7.23239e-07
7.42462e-07
9.20531e-07
10.1659
9.48632
4.23561
2.74995
6.57367
8.46553
8.26426
6.31638
3.38211
0.965504
0.101101
0.0109212
0.0038003
0.000884096
9.50325e-05
5.62302e-06
0
2.3025e-07
4.86769e-06
1.79715e-05
2.55527e-05
2.67412e-05
2.54666e-05
2.37992e-05
2.23079e-05
2.10017e-05
1.9799e-05
1.86589e-05
1.75699e-05
1.65329e-05
1.55472e-05
1.46114e-05
1.37246e-05
1.28827e-05
1.20828e-05
1.13235e-05
1.06012e-05
9.91454e-06
9.26146e-06
8.64042e-06
8.05027e-06
7.49016e-06
6.95943e-06
6.45569e-06
5.97904e-06
5.52906e-06
5.10481e-06
4.70556e-06
4.33063e-06
3.97932e-06
3.65116e-06
3.34525e-06
3.06084e-06
2.7971e-06
2.55315e-06
2.32806e-06
2.12084e-06
1.93048e-06
1.75596e-06
1.59631e-06
1.45053e-06
1.31745e-06
1.19591e-06
1.08441e-06
9.82635e-07
8.88379e-07
8.05374e-07
7.41093e-07
6.78869e-07
6.30778e-07
5.58625e-07
5.37198e-07
4.28358e-07
4.79738e-07
2.80218e-07
5.04166e-07
2.8895e-07
7.04866e-07
7.21207e-07
6.55784
8.04306
6.3528
2.56864
2.32085
5.41302
6.90408
6.52538
4.60598
2.07975
0.417449
0.0207598
0.0015291
0.000609477
5.67572e-08
0
0
9.83868e-08
2.05904e-06
9.45093e-06
1.53536e-05
1.69943e-05
1.66172e-05
1.58439e-05
1.51569e-05
1.45771e-05
1.40464e-05
1.35274e-05
1.30059e-05
1.24814e-05
1.19544e-05
1.14269e-05
1.09021e-05
1.03808e-05
9.86452e-06
9.35557e-06
8.85472e-06
8.36433e-06
7.88498e-06
7.41814e-06
6.96505e-06
6.52725e-06
6.10561e-06
5.69934e-06
5.30976e-06
4.93755e-06
4.58286e-06
4.24585e-06
3.9264e-06
3.62454e-06
3.34032e-06
3.07341e-06
2.82358e-06
2.59033e-06
2.37327e-06
2.17184e-06
1.98537e-06
1.81319e-06
1.65453e-06
1.50869e-06
1.37492e-06
1.25228e-06
1.13986e-06
1.03632e-06
9.41423e-07
8.5326e-07
7.74958e-07
7.14357e-07
6.54399e-07
6.10402e-07
5.39719e-07
5.2199e-07
4.14491e-07
4.67604e-07
2.7355e-07
4.91657e-07
2.87358e-07
6.89813e-07
4.16659
5.92521
6.20229
4.54477
1.64426
1.90914
4.40963
5.62486
5.25746
3.56278
1.4742
0.258372
0.0104414
0.00189162
0
0
0
1.96778e-08
3.95552e-07
6.29659e-06
1.23055e-05
1.42844e-05
1.4069e-05
1.32883e-05
1.25739e-05
1.20097e-05
1.15322e-05
1.10924e-05
1.06711e-05
1.02621e-05
9.86079e-06
9.46473e-06
9.07309e-06
8.68423e-06
8.29758e-06
7.91326e-06
7.53157e-06
7.15384e-06
6.78041e-06
6.41255e-06
6.05173e-06
5.6997e-06
5.35737e-06
5.0246e-06
4.70267e-06
4.39247e-06
4.09472e-06
3.80993e-06
3.53806e-06
3.27944e-06
3.03445e-06
2.80298e-06
2.5851e-06
2.38053e-06
2.1891e-06
2.01056e-06
1.84445e-06
1.69033e-06
1.54765e-06
1.41586e-06
1.29445e-06
1.18266e-06
1.07981e-06
9.84706e-07
8.97132e-07
8.15486e-07
7.42327e-07
6.86163e-07
6.29139e-07
5.89395e-07
5.20514e-07
5.06407e-07
4.00829e-07
4.55524e-07
2.6759e-07
4.8032e-07
2.84906e-07
2.38067
3.98552
5.03221
4.92425
3.5123
1.24761
1.49274
3.52407
4.55717
4.27424
2.85804
1.15612
0.200026
0.00841993
0.00135232
0
0
0
7.73555e-08
1.40081e-06
8.69042e-06
1.2156e-05
1.21868e-05
1.15555e-05
1.09239e-05
1.0388e-05
9.94012e-06
9.53622e-06
9.15085e-06
8.77884e-06
8.41897e-06
8.07019e-06
7.73145e-06
7.40141e-06
7.07865e-06
6.76195e-06
6.45068e-06
6.14474e-06
5.84347e-06
5.54696e-06
5.25592e-06
4.97136e-06
4.69365e-06
4.42248e-06
4.15846e-06
3.90226e-06
3.65477e-06
3.41655e-06
3.18745e-06
2.9679e-06
2.75842e-06
2.55915e-06
2.37028e-06
2.19172e-06
2.02356e-06
1.86573e-06
1.71801e-06
1.58015e-06
1.45183e-06
1.33265e-06
1.22229e-06
1.12019e-06
1.02585e-06
9.38265e-07
8.57219e-07
7.81411e-07
7.12814e-07
6.6057e-07
6.0613e-07
5.70076e-07
5.02756e-07
4.91911e-07
3.87837e-07
4.44558e-07
2.6108e-07
4.71201e-07
1.04845
2.30712
3.54213
4.24652
4.06061
2.90883
1.092
1.10216
2.80735
3.73355
3.55633
2.40305
0.995306
0.186931
0.00944124
0.00119436
0
0
0
9.05801e-08
1.49549e-06
8.22483e-06
1.00816e-05
9.32564e-06
8.71999e-06
8.35209e-06
8.03448e-06
7.74364e-06
7.47366e-06
7.21194e-06
6.95345e-06
6.69818e-06
6.44642e-06
6.19827e-06
5.95328e-06
5.71092e-06
5.47118e-06
5.23423e-06
4.99963e-06
4.7674e-06
4.53825e-06
4.3129e-06
4.09181e-06
3.87462e-06
3.66145e-06
3.45291e-06
3.24996e-06
3.05318e-06
2.86241e-06
2.67804e-06
2.50071e-06
2.33073e-06
2.16837e-06
2.0137e-06
1.86699e-06
1.72832e-06
1.59768e-06
1.47499e-06
1.36008e-06
1.25275e-06
1.15279e-06
1.05984e-06
9.73546e-07
8.93094e-07
8.18278e-07
7.48073e-07
6.83837e-07
6.35252e-07
5.83251e-07
5.50679e-07
4.84962e-07
4.77304e-07
3.74679e-07
4.33648e-07
0.266053
0.990754
2.05506
3.05737
3.61564
3.46723
2.55086
1.06691
0.740916
2.21347
3.07904
3.01554
2.09811
0.917521
0.195428
0.0129705
0.00135145
0
0
0
6.84217e-08
1.05281e-06
7.25666e-06
8.62653e-06
7.49169e-06
6.83931e-06
6.57866e-06
6.35898e-06
6.13274e-06
5.921e-06
5.72254e-06
5.53091e-06
5.34377e-06
5.16036e-06
4.97937e-06
4.79953e-06
4.62033e-06
4.44165e-06
4.2631e-06
4.08462e-06
3.9067e-06
3.73018e-06
3.55572e-06
3.38301e-06
3.21191e-06
3.04309e-06
2.87747e-06
2.7157e-06
2.55773e-06
2.40384e-06
2.25465e-06
2.11061e-06
1.97206e-06
1.83914e-06
1.71216e-06
1.59132e-06
1.47678e-06
1.36856e-06
1.26661e-06
1.17081e-06
1.0811e-06
9.97239e-07
9.1902e-07
8.45788e-07
7.77324e-07
7.12876e-07
6.53174e-07
6.08402e-07
5.59006e-07
5.30031e-07
4.66162e-07
4.61828e-07
0.0187548
0.22387
0.832566
1.73333
2.59619
3.10444
3.03863
2.33101
1.11437
0.417667
1.70553
2.53587
2.58517
1.87668
0.879713
0.214254
0.0191591
0.00172615
5.08626e-06
0
0
2.29483e-08
2.99379e-07
5.96342e-06
7.72179e-06
6.50094e-06
5.73137e-06
5.47022e-06
5.2881e-06
5.08917e-06
4.89793e-06
4.72172e-06
4.55559e-06
4.39683e-06
4.24395e-06
4.09517e-06
3.949e-06
3.80471e-06
3.6614e-06
3.51845e-06
3.37579e-06
3.23401e-06
3.09367e-06
2.95434e-06
2.8156e-06
2.67786e-06
2.54192e-06
2.40847e-06
2.27748e-06
2.14907e-06
2.02378e-06
1.90206e-06
1.78434e-06
1.67069e-06
1.56144e-06
1.45686e-06
1.35716e-06
1.26245e-06
1.17275e-06
1.08799e-06
1.00819e-06
9.33213e-07
8.62948e-07
7.96907e-07
7.34817e-07
6.762e-07
6.21161e-07
5.8035e-07
5.33708e-07
6.50052e-05
0.00989357
0.15636
0.635461
1.39608
2.16854
2.67172
2.70283
2.18158
1.18968
0.177712
1.26635
2.07375
2.22811
1.70367
0.860775
0.239492
0.0258572
0.000544289
8.73983e-05
0
0
2.62371e-10
2.67878e-07
3.92714e-06
6.43844e-06
5.64219e-06
4.88893e-06
4.61966e-06
4.4617e-06
4.28889e-06
4.11891e-06
3.96311e-06
3.81778e-06
3.67979e-06
3.54767e-06
3.42003e-06
3.29587e-06
3.17407e-06
3.05371e-06
2.93437e-06
2.81637e-06
2.70011e-06
2.58512e-06
2.47069e-06
2.3568e-06
2.24411e-06
2.13324e-06
2.02412e-06
1.91674e-06
1.81145e-06
1.70869e-06
1.60886e-06
1.51201e-06
1.41838e-06
1.3283e-06
1.24198e-06
1.15959e-06
1.08117e-06
1.00669e-06
9.36206e-07
8.69647e-07
8.06988e-07
7.4789e-07
6.91998e-07
6.39118e-07
3.90989e-06
4.03523e-05
0.00360087
0.0910973
0.441078
1.0708
1.7721
2.28687
2.41594
2.06245
1.26623
0.235193
0.888203
1.67636
1.92331
1.55939
0.851165
0.267468
0.0376643
0.000444777
6.08178e-05
0
0
0
2.02075e-07
2.98689e-06
5.40056e-06
4.91164e-06
4.20465e-06
3.92857e-06
3.78549e-06
3.63212e-06
3.47892e-06
3.34071e-06
3.21429e-06
3.09511e-06
2.98133e-06
2.87207e-06
2.76625e-06
2.66275e-06
2.56083e-06
2.46057e-06
2.36238e-06
2.2659e-06
2.17022e-06
2.07498e-06
1.98066e-06
1.88785e-06
1.79646e-06
1.70635e-06
1.61771e-06
1.5309e-06
1.44631e-06
1.36394e-06
1.28395e-06
1.20663e-06
1.13223e-06
1.06092e-06
9.92757e-07
9.27719e-07
8.65882e-07
8.07203e-07
0
5.08299e-09
0.000551109
0.000570105
0.0433131
0.275598
0.775482
1.40579
1.93215
2.15233
1.95077
1.33072
0.432698
0.560488
1.32811
1.65409
1.43084
0.842883
0.297903
0.0482907
0.00106641
0.000114838
0
0
0
1.31733e-07
1.87101e-06
4.50104e-06
4.35957e-06
3.67705e-06
3.38e-06
3.24859e-06
3.1125e-06
2.97015e-06
2.842e-06
2.72781e-06
2.62198e-06
2.52185e-06
2.42637e-06
2.33439e-06
2.24489e-06
2.1576e-06
2.07279e-06
1.99023e-06
1.90891e-06
1.82819e-06
1.7483e-06
1.66979e-06
1.59261e-06
1.51653e-06
1.44158e-06
1.36805e-06
1.29629e-06
1.22625e-06
1.15802e-06
1.09184e-06
1.02795e-06
3.85947e-09
0
0
0.000179959
0.000365207
0.0150349
0.150518
0.521969
1.07151
1.5986
1.8975
1.83227
1.373
0.614599
0.278274
1.01744
1.40771
1.30769
0.832522
0.326982
0.061792
0.00261157
0.000227304
0
0
0
6.60443e-08
8.88238e-07
3.67163e-06
3.95364e-06
3.29299e-06
2.94425e-06
2.81145e-06
2.69417e-06
2.56468e-06
2.4442e-06
2.33771e-06
2.24088e-06
2.15045e-06
2.06477e-06
1.98264e-06
1.90353e-06
1.82759e-06
1.75464e-06
1.68369e-06
1.61377e-06
1.54481e-06
1.4773e-06
1.41123e-06
1.34631e-06
3.56813e-07
1.78229e-08
0
0
3.52332e-05
0.000129653
0.00325528
0.0696541
0.321278
0.776481
1.28616
1.64647
1.70102
1.38806
0.763514
0.0751918
0.740157
1.17806
1.1846
0.81427
0.351545
0.0767288
0.0049317
0.000387281
0
0
0
1.89451e-08
2.22279e-07
2.74884e-06
3.59568e-06
3.02272e-06
2.61099e-06
2.45258e-06
2.34587e-06
2.22997e-06
2.11786e-06
2.01775e-06
)
;

boundaryField
{
    inlet
    {
        type            calculated;
        value           nonuniform List<scalar> 
11
(
5.47737e-06
5.19123e-06
5.31528e-06
5.43032e-06
5.5322e-06
5.62273e-06
5.70758e-06
5.79299e-06
5.89437e-06
5.66466e-06
5.96655e-06
)
;
    }
    outlet
    {
        type            calculated;
        value           nonuniform List<scalar> 0();
    }
    walls
    {
        type            calculated;
        value           uniform 0;
    }
    frontAndBack
    {
        type            empty;
    }
    procBoundary6to2
    {
        type            processor;
        value           nonuniform List<scalar> 
13
(
9.9055
5.7779
3.50889
1.99315
0.885675
0.235497
0.0200055
0.000289069
1.47929e-05
0
3.29288e-10
5.97391e-08
2.60033e-06
)
;
    }
    procBoundary6to3
    {
        type            processor;
        value           uniform 2.90552e-06;
    }
    procBoundary6to5
    {
        type            processor;
        value           nonuniform List<scalar> 
86
(
30.6508
10.5015
12.9908
10.6291
3.2433
0.0922392
0.00545027
0.000593747
0
4.11953e-08
8.45969e-07
6.41308e-05
7.9386e-05
6.58389e-05
6.03e-05
6.01824e-05
5.9857e-05
5.81921e-05
5.59886e-05
5.38382e-05
5.18266e-05
4.98598e-05
4.78618e-05
4.58103e-05
4.37168e-05
4.15979e-05
3.94667e-05
3.73365e-05
3.52183e-05
3.31206e-05
3.10543e-05
2.90305e-05
2.7058e-05
2.7058e-05
2.64001e-05
2.44373e-05
2.25558e-05
2.07615e-05
1.90586e-05
1.74507e-05
1.59401e-05
1.45277e-05
1.32127e-05
1.19928e-05
1.08656e-05
9.82831e-06
9.82831e-06
9.10643e-06
8.20569e-06
7.38606e-06
6.64209e-06
5.96864e-06
5.36047e-06
4.81225e-06
4.31878e-06
3.8752e-06
3.8752e-06
3.52443e-06
3.16126e-06
2.83619e-06
2.54558e-06
2.28587e-06
2.05356e-06
1.84531e-06
1.84531e-06
1.67332e-06
1.50275e-06
1.34961e-06
1.21307e-06
1.09114e-06
9.86344e-07
9.0259e-07
9.0259e-07
8.3864e-07
7.75252e-07
7.09566e-07
6.55486e-07
5.81748e-07
5.56952e-07
4.51662e-07
5.19018e-07
3.90554e-07
3.90554e-07
6.31025e-07
7.28516e-07
9.43836e-07
)
;
    }
    procBoundary6to7
    {
        type            processor;
        value           nonuniform List<scalar> 
91
(
9.22832e-07
9.22832e-07
6.9801e-07
6.9801e-07
6.76425e-07
6.76425e-07
2.82596e-07
2.54002e-07
2.82596e-07
4.62713e-07
3.60834e-07
2.54002e-07
4.22257e-07
5.08413e-07
4.46592e-07
3.60834e-07
4.4567e-07
5.88724e-07
5.51867e-07
5.08413e-07
5.08018e-07
7.51722e-07
6.99231e-07
6.49297e-07
5.88724e-07
6.0199e-07
9.66518e-07
9.07604e-07
8.51176e-07
7.97298e-07
7.51722e-07
7.45958e-07
1.28242e-06
1.21976e-06
1.15861e-06
1.09893e-06
1.04072e-06
9.84128e-07
9.66518e-07
9.29389e-07
1.92767e-06
1.84456e-06
1.7664e-06
1.69214e-06
1.62163e-06
1.55484e-06
1.49092e-06
1.42872e-06
1.36781e-06
1.30851e-06
1.25092e-06
1.28242e-06
1.19468e-06
5.97175e-07
3.03639e-08
0
0
6.66328e-08
0.000472142
0.000416457
0.0256607
0.177239
0.52909
0.999603
1.4013
1.5588
1.37856
0.879473
0.198448
0.498299
0.96811
1.06342
0.788037
0.371531
0.0922441
0.00788671
0.000617537
0
0
0
2.44331e-09
2.21545e-08
1.98296e-06
3.13482e-06
2.78101e-06
2.34591e-06
2.15652e-06
2.05088e-06
1.94672e-06
1.92767e-06
1.84402e-06
)
;
    }
}


// ************************************************************************* //
