/*--------------------------------*- C++ -*----------------------------------*\
| =========                 |                                                 |
| \\      /  F ield         | OpenFOAM: The Open Source CFD Toolbox           |
|  \\    /   O peration     | Version:  2306                                  |
|   \\  /    A nd           | Website:  www.openfoam.com                      |
|    \\/     M anipulation  |                                                 |
\*---------------------------------------------------------------------------*/
FoamFile
{
    version     2.0;
    format      ascii;
    arch        "LSB;label=32;scalar=64";
    class       volScalarField;
    location    "900";
    object      div(phi);
}
// * * * * * * * * * * * * * * * * * * * * * * * * * * * * * * * * * * * * * //

dimensions      [0 0 -1 0 0 0 0];

internalField   nonuniform List<scalar> 
1340
(
2.7308e-05
7.78144e-05
-2.14372e-05
5.65453e-05
1.01769e-05
7.16058e-05
5.31964e-05
8.28488e-05
1.81786e-05
2.59706e-05
-4.12521e-05
1.14485e-05
6.65281e-06
4.7613e-05
3.46075e-05
6.36036e-05
1.89218e-05
1.76021e-05
-4.5006e-05
1.68904e-06
7.91496e-06
4.00111e-05
2.36669e-05
5.00895e-05
2.13946e-05
1.61336e-05
-4.86278e-05
4.15398e-07
9.79071e-06
3.65494e-05
1.59167e-05
3.88327e-05
2.08335e-05
1.3353e-05
-5.1144e-05
-2.57048e-07
1.00191e-05
2.92019e-05
1.04168e-05
2.97653e-05
1.76265e-05
1.13442e-05
-4.95975e-05
1.18936e-06
9.5442e-06
2.18398e-05
6.21011e-06
2.22131e-05
1.43044e-05
9.40322e-06
-4.47763e-05
1.48806e-06
8.80295e-06
1.5442e-05
3.23137e-06
1.6223e-05
1.11252e-05
9.48145e-06
-4.01041e-05
2.49434e-06
7.60366e-06
1.08168e-05
1.21213e-06
1.22868e-05
8.41899e-06
8.94914e-06
-3.46711e-05
2.78063e-06
6.05124e-06
6.76994e-06
-2.27215e-08
9.25928e-06
6.18894e-06
8.86811e-06
-3.00847e-05
3.07163e-06
4.42747e-06
3.74943e-06
-9.75581e-07
7.1446e-06
4.57374e-06
8.60141e-06
-2.47314e-05
3.04777e-06
3.16602e-06
1.67384e-06
-1.60187e-06
5.40331e-06
3.64822e-06
6.93016e-06
-2.05567e-05
3.17019e-06
2.19274e-06
4.66361e-07
-1.94493e-06
4.16463e-06
2.48579e-06
4.59107e-06
-1.53927e-05
3.025e-06
1.67092e-06
8.77367e-08
-1.65559e-06
3.20904e-06
1.72463e-06
2.46154e-06
-1.14519e-05
2.91503e-06
1.2557e-06
1.72501e-07
-1.14532e-06
2.50468e-06
1.17661e-06
6.63708e-07
-7.75415e-06
2.62434e-06
1.57765e-06
3.01592e-07
-4.05808e-07
1.87212e-06
3.31906e-08
-2.13382e-07
-4.72019e-06
1.9155e-06
1.40565e-06
4.46894e-07
1.13531e-07
1.37114e-06
-1.82701e-07
-4.47093e-07
-2.65141e-06
1.20002e-06
-2.76089e-06
9.30243e-07
4.35913e-07
3.98315e-07
9.49886e-07
1.63071e-06
-7.95834e-08
-3.85353e-07
-1.40633e-06
6.69037e-07
-1.0178e-06
6.18009e-07
3.91264e-07
4.62406e-07
6.49069e-07
1.2867e-06
-5.63779e-08
-2.8936e-07
-6.39284e-07
2.52877e-07
-9.02066e-07
3.84565e-07
3.17696e-07
4.01101e-07
4.38446e-07
1.08533e-06
-5.70512e-08
-1.53143e-07
-3.12258e-07
7.62234e-08
-8.00858e-07
2.3091e-07
2.29286e-07
2.96686e-07
2.97442e-07
9.03216e-07
-4.01123e-08
-7.71607e-08
-1.62525e-07
9.27893e-09
-4.08795e-07
1.56442e-07
1.5024e-07
2.02007e-07
2.02094e-07
3.55392e-07
-6.51471e-08
-3.3085e-08
-8.81524e-08
-5.59958e-09
-2.97189e-07
8.80224e-08
8.6136e-08
1.39189e-07
1.3252e-07
2.0163e-07
-2.48289e-08
4.58932e-09
-3.62468e-08
-4.46115e-09
-2.71795e-07
-2.22451e-07
7.19276e-08
6.32009e-08
9.18096e-08
9.83503e-08
6.01142e-08
2.25468e-07
1.55206e-08
3.21748e-08
2.20457e-09
-2.03781e-09
-3.02727e-08
-1.31944e-07
6.99163e-08
5.04522e-08
6.62049e-08
7.14733e-08
6.28973e-08
1.83849e-07
3.40686e-08
4.87942e-08
1.63517e-08
9.35628e-09
2.33443e-08
-7.51997e-08
6.28042e-08
3.58111e-08
4.99016e-08
5.18079e-08
-4.65954e-09
1.2578e-07
2.76819e-08
4.93411e-08
2.85922e-08
1.12012e-08
-2.88013e-09
-5.08285e-08
4.70402e-08
3.04158e-08
3.72257e-08
4.42601e-08
-9.02692e-09
6.70809e-08
2.01165e-08
4.21328e-08
3.80949e-08
1.30308e-08
2.67932e-08
-3.3627e-08
-4.30827e-09
1.54781e-08
2.17461e-08
4.20111e-08
-2.79863e-08
-5.76214e-08
-4.44104e-08
-3.90424e-10
9.20952e-09
4.59888e-08
2.34168e-08
-2.59437e-08
-4.50565e-08
-1.02983e-08
-3.07619e-08
1.136e-08
1.43794e-08
5.26197e-08
4.13235e-08
2.88425e-09
-3.91483e-08
6.11888e-09
2.39396e-09
3.93037e-08
2.46754e-08
-4.56831e-09
-1.28975e-08
1.88176e-08
-1.41113e-08
3.72503e-09
-9.19548e-09
3.82728e-08
3.81206e-08
2.04295e-08
-1.65299e-08
-3.47515e-09
-2.9884e-08
1.54646e-08
-5.36475e-09
3.68943e-09
-1.07319e-09
1.10745e-08
-2.65786e-08
1.00378e-08
-2.51454e-08
2.58578e-08
1.82064e-08
2.05535e-08
-2.258e-09
2.27396e-08
-1.40555e-08
2.37649e-08
7.99793e-09
2.26473e-08
1.63048e-08
1.41155e-08
2.6758e-08
-2.30685e-09
2.61061e-08
6.75181e-09
1.84518e-08
2.29678e-08
1.43252e-08
1.72158e-08
7.07427e-09
2.02266e-08
1.49012e-09
1.74837e-08
2.66316e-09
1.03984e-08
1.03531e-08
1.12867e-08
1.28079e-08
8.75977e-09
1.11228e-08
9.63703e-09
1.57079e-08
2.30273e-08
5.40616e-09
8.41559e-09
1.00069e-08
8.89766e-09
9.79582e-09
1.0584e-08
1.3714e-08
-1.52226e-08
1.94243e-09
3.16618e-09
6.12502e-09
4.81059e-09
1.64198e-08
7.82576e-09
1.10825e-08
6.88763e-09
-1.63852e-09
4.37436e-09
1.4218e-09
2.433e-08
6.04167e-09
1.55645e-08
1.20053e-08
-1.15558e-08
4.30819e-09
2.71043e-10
2.64117e-08
-1.24957e-09
2.78124e-08
3.87628e-09
8.17865e-09
-6.08133e-09
3.37151e-09
1.32653e-09
1.32082e-08
-2.19388e-09
1.83292e-08
-2.64528e-09
7.67137e-09
-1.33946e-09
1.69624e-09
1.87537e-09
5.76391e-09
1.06059e-09
8.31723e-09
-1.55127e-09
5.19515e-09
1.42394e-09
9.75788e-09
4.79507e-09
4.40568e-09
4.06051e-09
5.3473e-09
4.39786e-09
5.3446e-09
4.92057e-09
7.39618e-09
6.71438e-09
1.46215e-09
1.84978e-09
4.3889e-09
5.5279e-09
5.54144e-09
6.46674e-09
6.6405e-09
6.96817e-09
5.76769e-09
9.55008e-10
1.84461e-09
1.54106e-09
3.23424e-09
4.7604e-09
4.87283e-09
4.25275e-09
5.06971e-09
3.59758e-09
-3.59674e-09
-1.20448e-09
-1.46049e-10
1.15394e-09
8.0849e-10
1.84584e-09
1.95017e-09
1.54798e-09
7.06374e-10
-3.68689e-10
-4.229e-09
-3.47604e-09
-2.40253e-09
-1.52799e-09
-1.24938e-09
-2.11883e-09
-4.70378e-10
-1.62636e-09
-2.15486e-08
-6.79867e-09
-5.68123e-09
-4.65646e-09
-4.91688e-09
-4.39264e-09
-3.87508e-09
-3.21294e-09
-4.006e-09
-1.25479e-08
-6.3767e-09
-6.21111e-09
-5.73974e-09
-6.13991e-09
-5.04272e-09
-6.15481e-09
-3.62402e-09
-3.69056e-09
-1.14355e-08
-5.73011e-09
-5.80749e-09
-5.88245e-09
-6.12459e-09
-6.79304e-09
-7.21613e-09
-6.47208e-09
-5.51175e-09
-6.10473e-09
-9.49931e-09
-6.38563e-09
-5.73086e-09
-6.57947e-09
-6.89338e-09
-6.95902e-09
-6.79902e-09
-5.73034e-09
-4.58964e-09
-4.6882e-09
-1.06087e-08
-4.73166e-09
-4.98174e-09
-4.39063e-09
-4.50305e-09
-3.97023e-09
-3.71597e-09
-2.74571e-09
-2.61175e-09
-2.00806e-09
0.000150323
-7.7962e-05
3.58807e-05
-4.43426e-05
3.37271e-05
-1.80542e-05
2.47012e-05
-1.45244e-06
2.01199e-05
9.12118e-06
1.44473e-05
1.25107e-05
8.38343e-06
1.16203e-05
4.43104e-06
9.60148e-06
1.92002e-06
7.47926e-06
1.32627e-06
5.2308e-06
7.42082e-07
3.22466e-06
7.94341e-07
1.73875e-06
1.1226e-06
8.54156e-07
1.34336e-06
5.34314e-07
1.42387e-06
5.71875e-07
1.40021e-06
5.84021e-07
1.10792e-06
5.81743e-07
6.97562e-07
5.00791e-07
4.30925e-07
3.91303e-07
2.33326e-07
2.86397e-07
1.31196e-07
1.9457e-07
8.13782e-08
1.32095e-07
5.78599e-08
7.70214e-08
5.17462e-08
4.96569e-08
3.32284e-08
3.76769e-08
2.13794e-08
3.03737e-08
-1.2127e-08
2.86466e-08
1.59628e-09
4.24414e-08
3.65211e-08
3.79791e-08
4.09184e-08
-9.42733e-09
2.71153e-08
1.5942e-08
3.42433e-08
1.53689e-08
1.5485e-08
9.76902e-09
2.90246e-11
6.23379e-09
1.41652e-08
2.68416e-09
1.36789e-08
1.16923e-08
1.01194e-08
1.83588e-09
2.37007e-09
-3.06687e-09
-7.08604e-09
-9.50849e-09
-9.6588e-09
-6.16642e-09
6.67707e-05
-4.86569e-05
1.86112e-05
-3.69146e-05
2.08674e-05
-2.49893e-05
1.72043e-05
-1.47236e-05
1.57583e-05
-7.17922e-06
1.2458e-05
-2.49799e-06
9.02266e-06
2.47752e-08
5.00507e-06
9.68573e-07
2.53785e-06
1.13956e-06
8.22054e-07
1.01553e-06
7.22294e-08
7.8882e-07
-4.71931e-08
5.33068e-07
-9.06056e-08
3.2067e-07
1.33427e-07
1.66533e-07
3.17575e-07
4.10796e-08
2.96971e-07
8.24321e-08
2.66568e-07
1.4827e-07
2.55841e-07
2.20607e-07
1.87796e-07
2.48103e-07
1.54968e-07
2.21925e-07
1.17489e-07
1.70077e-07
8.86713e-08
1.08926e-07
6.90608e-08
7.52762e-08
4.77727e-08
4.54283e-08
4.12139e-08
2.46036e-08
2.77974e-08
3.28294e-09
1.59916e-08
-1.92557e-08
1.82986e-08
-6.04735e-09
2.69849e-08
1.67546e-08
3.72007e-09
4.41912e-08
1.14926e-08
2.37336e-08
2.12715e-09
2.45147e-08
1.85722e-08
1.30278e-08
1.52021e-08
5.58791e-09
-2.64968e-09
1.79589e-08
7.94922e-09
6.8253e-09
3.78631e-10
1.29109e-09
-1.32703e-09
-7.94429e-09
-2.34653e-09
-1.24771e-08
-5.59944e-09
1.62168e-05
-3.15948e-05
2.3829e-06
-2.99982e-05
4.48316e-06
-2.63269e-05
4.74584e-06
-2.13082e-05
5.62052e-06
-1.7291e-05
5.42421e-06
-1.3813e-05
6.08227e-06
-9.16633e-06
5.17201e-06
-5.20723e-06
4.24891e-06
-2.47588e-06
3.05962e-06
-1.1093e-06
2.12449e-06
-6.6684e-07
1.11714e-06
-6.62198e-07
6.70781e-07
-7.13601e-07
3.41611e-07
-6.31183e-07
1.75475e-07
-3.488e-07
2.29724e-07
-1.12223e-07
2.31863e-07
6.96923e-08
1.69168e-07
1.56823e-07
1.55423e-07
1.78629e-07
1.13884e-07
1.66703e-07
8.84335e-08
1.35604e-07
6.82814e-08
1.07857e-07
5.51214e-08
6.70807e-08
5.05343e-08
4.20807e-08
3.54012e-08
2.6711e-08
2.9024e-08
1.78189e-08
-8.16529e-10
1.19178e-08
-2.27841e-08
8.59829e-09
-1.65652e-08
1.24007e-08
2.65978e-08
-6.29633e-09
2.57097e-08
1.26415e-08
3.36771e-08
1.27579e-08
1.27759e-08
7.13709e-09
-5.3445e-09
3.66439e-09
1.51969e-08
5.90162e-09
1.24e-08
7.26179e-09
1.44272e-08
-1.20121e-08
2.26786e-09
-1.38975e-09
-9.27079e-09
-2.33389e-09
-1.61468e-05
-3.96706e-05
-6.08206e-06
-2.80002e-05
1.28123e-06
-2.11394e-05
4.70299e-06
-1.57309e-05
5.4733e-06
-1.20428e-05
6.27885e-06
-9.68271e-06
6.15315e-06
-7.48504e-06
5.98348e-06
-5.14347e-06
4.73448e-06
-3.36156e-06
3.92475e-06
-2.02728e-06
2.73294e-06
-1.08414e-06
2.12041e-06
-4.17771e-07
1.58256e-06
-3.73703e-08
1.16045e-06
1.5577e-07
9.553e-07
1.43342e-07
6.02841e-07
1.1845e-07
3.43071e-07
1.04867e-07
2.17599e-07
1.26543e-07
1.15151e-07
1.49036e-07
8.84044e-08
1.47719e-07
7.01315e-08
1.2713e-07
6.00261e-08
8.76686e-08
4.93881e-08
6.62097e-08
3.5662e-08
4.24027e-08
3.45651e-08
2.70206e-08
2.71776e-08
1.84141e-08
2.17754e-08
-6.4687e-10
6.12004e-09
-2.00608e-08
5.2807e-09
-1.36757e-08
-1.15597e-08
3.48149e-08
1.2385e-08
2.3137e-08
-1.20838e-09
2.02772e-08
1.08052e-08
9.91633e-09
1.6048e-08
3.81587e-09
1.89056e-09
1.07657e-08
6.14842e-09
7.25931e-09
2.15085e-09
3.75962e-10
-5.92306e-09
-1.00236e-08
4.41068e-09
2.40595e-05
-1.28415e-05
4.75545e-06
-1.18898e-05
4.6269e-06
-1.13566e-05
4.49229e-06
-1.01832e-05
4.023e-06
-8.68725e-06
3.97008e-06
-7.63562e-06
3.85485e-06
-6.63158e-06
4.02178e-06
-5.0899e-06
3.56799e-06
-3.59798e-06
3.17924e-06
-2.34199e-06
2.54315e-06
-1.48612e-06
2.13617e-06
-9.77982e-07
1.46113e-06
-7.26695e-07
1.10231e-06
-5.43763e-07
6.42354e-07
-3.18458e-07
4.54702e-07
-1.06266e-07
3.56706e-07
6.10847e-08
2.45887e-07
1.35904e-07
1.94889e-07
1.45184e-07
1.21671e-07
1.26603e-07
7.60575e-08
1.00562e-07
4.70809e-08
8.66537e-08
3.61221e-08
5.84409e-08
3.52807e-08
4.03081e-08
2.64316e-08
2.63355e-08
2.70221e-08
2.12245e-08
2.04583e-08
1.57209e-08
2.39836e-09
7.49216e-09
-2.40241e-08
-1.4453e-09
1.86168e-08
-6.91924e-09
1.7031e-08
1.39897e-09
3.06014e-08
5.17108e-09
1.25434e-08
1.85539e-08
-3.59639e-09
9.262e-09
-1.81034e-09
6.48934e-09
7.88606e-09
1.0466e-08
9.66938e-09
-1.7642e-08
6.6935e-09
5.07899e-09
2.03231e-05
-9.10094e-06
5.16295e-06
-6.85694e-06
4.97904e-06
-5.95594e-06
4.62097e-06
-5.26349e-06
4.1917e-06
-4.49899e-06
3.63173e-06
-3.94408e-06
3.46067e-06
-3.58209e-06
3.15999e-06
-3.18084e-06
2.93963e-06
-2.56824e-06
2.42341e-06
-1.97596e-06
2.18521e-06
-1.37295e-06
1.7225e-06
-8.04668e-07
1.57795e-06
-2.77825e-07
1.35661e-06
6.08764e-08
1.19097e-06
1.8181e-07
9.02042e-07
1.82739e-07
5.82846e-07
1.22699e-07
3.6063e-07
9.20877e-08
1.80428e-07
9.07935e-08
1.05756e-07
9.50382e-08
6.54375e-08
9.18571e-08
4.8923e-08
6.76486e-08
3.55463e-08
5.56294e-08
2.3471e-08
3.85569e-08
2.43495e-08
2.73878e-08
2.09109e-08
1.90383e-08
2.49594e-08
1.75264e-08
1.84135e-08
-7.56862e-10
1.11332e-08
-9.74017e-09
-1.94085e-08
1.15319e-08
-3.43476e-09
2.00833e-08
-8.88611e-09
1.63287e-08
7.18418e-09
-4.47139e-09
2.36192e-08
-2.964e-09
9.26151e-09
-2.29929e-09
2.70118e-09
-6.04795e-12
3.04504e-09
1.02291e-08
1.47574e-05
-6.1846e-06
3.62325e-06
-4.95726e-06
3.23855e-06
-4.54037e-06
2.97062e-06
-4.25587e-06
2.72813e-06
-3.88053e-06
2.424e-06
-3.42219e-06
2.28255e-06
-3.11661e-06
2.19869e-06
-2.82996e-06
2.19284e-06
-2.3333e-06
1.97933e-06
-1.782e-06
1.80575e-06
-1.25171e-06
1.53543e-06
-8.33934e-07
1.4034e-06
-5.67307e-07
1.07608e-06
-4.08133e-07
8.13278e-07
-2.43957e-07
6.03597e-07
-1.26085e-07
4.44648e-07
-1.53315e-08
3.00494e-07
4.63062e-08
2.2611e-07
6.50427e-08
1.38797e-07
6.24132e-08
8.11339e-08
5.37149e-08
4.13634e-08
5.74435e-08
2.65324e-08
4.53849e-08
2.47672e-08
3.61543e-08
1.80532e-08
2.47796e-08
2.05869e-08
2.17387e-08
2.03561e-08
2.16457e-08
1.6656e-08
1.8396e-08
-1.55381e-08
-1.28231e-08
-7.18733e-09
-2.69701e-08
-5.24529e-09
-2.46101e-08
1.89964e-08
-1.79025e-09
-2.8651e-09
2.1711e-08
-7.42425e-09
1.42053e-08
-9.28178e-09
1.1275e-08
7.30809e-09
1.77202e-08
1.10027e-05
-6.67924e-06
2.19005e-06
-4.1542e-06
2.79134e-06
-3.2062e-06
2.82314e-06
-2.74981e-06
2.70986e-06
-2.42898e-06
2.4925e-06
-2.08593e-06
2.24186e-06
-1.81618e-06
2.1473e-06
-1.64842e-06
2.00149e-06
-1.50591e-06
1.8535e-06
-1.2802e-06
1.54081e-06
-1.04692e-06
1.38041e-06
-7.71717e-07
1.09693e-06
-4.57983e-07
1.02092e-06
-1.64925e-07
9.62795e-07
-3.40825e-08
7.69099e-07
7.79266e-09
5.58971e-07
-2.34215e-08
3.6309e-07
-4.87475e-08
1.79443e-07
-3.75879e-08
9.60183e-08
-4.18066e-09
5.43869e-08
2.80305e-08
4.1744e-08
3.33511e-08
2.95348e-08
3.82958e-08
1.78806e-08
3.22033e-08
1.79113e-08
2.78497e-08
1.65084e-08
2.11059e-08
2.30393e-08
1.48654e-08
2.16498e-08
1.59819e-09
-1.16787e-09
-1.50347e-08
-3.98584e-08
-1.64994e-08
-4.05031e-08
1.23925e-08
-1.41267e-08
6.79632e-09
9.80848e-09
-1.95168e-08
3.61954e-08
-1.40552e-09
1.63699e-08
1.26881e-05
-4.21639e-06
2.88217e-06
-3.17329e-06
2.66432e-06
-2.69249e-06
2.35311e-06
-2.43671e-06
2.10126e-06
-2.25753e-06
1.87341e-06
-2.04451e-06
1.65994e-06
-1.79204e-06
1.51651e-06
-1.62245e-06
1.43829e-06
-1.49648e-06
1.37215e-06
-1.30443e-06
1.21375e-06
-1.07705e-06
1.07802e-06
-8.37272e-07
9.09576e-07
-6.49968e-07
8.58417e-07
-5.11978e-07
6.01528e-07
-3.77369e-07
5.33951e-07
-2.63969e-07
4.09524e-07
-1.72505e-07
2.77945e-07
-1.00459e-07
2.12409e-07
-5.30381e-08
1.37494e-07
-2.46482e-08
8.60186e-08
-6.49414e-09
4.49102e-08
1.85675e-08
2.69837e-08
2.59834e-08
2.24485e-08
2.92273e-08
1.54203e-08
2.46251e-08
1.68008e-08
2.36433e-08
1.42653e-08
2.21465e-08
1.85357e-08
2.55809e-09
6.27808e-09
-3.0409e-08
-2.2597e-09
-4.46229e-08
1.6637e-08
-2.85805e-08
3.65238e-08
-2.49183e-09
-1.30965e-08
3.54443e-08
7.03249e-06
-2.87375e-06
2.14065e-06
-2.29401e-06
1.93889e-06
-1.93525e-06
1.78632e-06
-1.6627e-06
1.65715e-06
-1.5067e-06
1.55105e-06
-1.40654e-06
1.38707e-06
-1.30386e-06
1.21866e-06
-1.22938e-06
1.11659e-06
-1.20285e-06
1.01176e-06
-1.16589e-06
9.39839e-07
-1.0526e-06
7.82847e-07
-9.12824e-07
7.1056e-07
-7.08762e-07
5.6859e-07
-4.83699e-07
6.268e-07
-3.15784e-07
5.3919e-07
-2.31523e-07
4.1982e-07
-1.98801e-07
3.10618e-07
-1.83046e-07
1.68567e-07
-1.503e-07
9.42915e-08
-9.31448e-08
5.68232e-08
-3.25055e-08
4.75999e-08
-1.42632e-09
3.54734e-08
1.85485e-08
2.08605e-08
2.18156e-08
1.84359e-08
2.43181e-08
1.70766e-08
1.98466e-08
2.30509e-08
2.40477e-08
5.78065e-09
2.91214e-08
-1.88035e-08
3.19378e-08
-2.9892e-08
4.20469e-08
-4.25431e-08
4.82711e-08
7.39273e-06
-1.47104e-06
2.407e-06
-1.39756e-06
2.02146e-06
-1.35114e-06
1.72842e-06
-1.22679e-06
1.48679e-06
-1.16646e-06
1.32461e-06
-1.14232e-06
1.15328e-06
-1.11854e-06
1.00547e-06
-1.06745e-06
8.77898e-07
-1.04658e-06
7.96066e-07
-1.03033e-06
7.32951e-07
-9.54762e-07
6.41672e-07
-8.33381e-07
5.71451e-07
-6.99821e-07
4.94208e-07
-5.76074e-07
4.54515e-07
-4.43374e-07
3.79272e-07
-3.32063e-07
3.65328e-07
-2.37525e-07
2.77289e-07
-1.68772e-07
2.17678e-07
-1.09554e-07
1.59666e-07
-6.23149e-08
1.17768e-07
-3.37131e-08
7.23416e-08
-5.13869e-09
4.26906e-08
6.73482e-09
2.74552e-08
1.94732e-08
1.84441e-08
2.48469e-08
1.33485e-08
2.24653e-08
1.97051e-08
1.45887e-08
3.11833e-08
-8.78026e-09
4.92042e-08
2.46328e-06
-3.00948e-06
6.12881e-08
-2.07085e-06
7.05789e-07
-1.59499e-06
8.64662e-07
-1.28151e-06
8.91728e-07
-1.07849e-06
8.55376e-07
-9.63962e-07
8.21662e-07
-8.87345e-07
7.56512e-07
-8.11624e-07
6.81535e-07
-7.45471e-07
6.28993e-07
-7.01137e-07
5.80431e-07
-6.56394e-07
5.36575e-07
-5.79695e-07
4.69455e-07
-4.97511e-07
4.1585e-07
-4.07396e-07
3.57121e-07
-3.38032e-07
3.47316e-07
-2.89511e-07
2.69445e-07
-2.59909e-07
2.18756e-07
-2.22228e-07
1.57036e-07
-1.59498e-07
1.0624e-07
-1.14203e-07
8.16729e-08
-5.09886e-08
6.57336e-08
-1.89389e-08
4.29226e-08
3.25731e-10
2.56887e-08
1.2241e-08
2.18075e-08
3.3499e-09
5.25778e-06
-1.54989e-06
1.68311e-06
-1.13391e-06
1.84255e-06
-1.01027e-06
1.71651e-06
-9.10095e-07
1.51842e-06
-7.84255e-07
1.33066e-06
-6.96307e-07
1.19777e-06
-6.31571e-07
1.08333e-06
-5.80601e-07
9.63787e-07
-5.2605e-07
8.64479e-07
-4.90117e-07
7.791e-07
-4.63135e-07
7.07154e-07
-4.30373e-07
6.00566e-07
-3.85301e-07
5.16217e-07
-3.40623e-07
4.26917e-07
-2.95366e-07
3.65597e-07
-2.54293e-07
2.90064e-07
-1.99173e-07
2.40308e-07
-1.57943e-07
2.82745e-07
-3.37897e-07
)
;

boundaryField
{
    inlet
    {
        type            extrapolatedCalculated;
        value           nonuniform List<scalar> 
11
(
-1.06087e-08
-4.73166e-09
-4.98174e-09
-4.39063e-09
-4.50305e-09
-3.97023e-09
-3.71597e-09
-2.74571e-09
-2.61175e-09
-2.00806e-09
-6.16642e-09
)
;
    }
    outlet
    {
        type            extrapolatedCalculated;
        value           nonuniform List<scalar> 0();
    }
    walls
    {
        type            extrapolatedCalculated;
        value           nonuniform List<scalar> 4(2.7308e-05 7.78144e-05 -2.14372e-05 5.65453e-05);
    }
    frontAndBack
    {
        type            empty;
    }
    procBoundary6to2
    {
        type            processor;
        value           nonuniform List<scalar> 
13
(
-0.000132914
-8.85132e-05
-5.03861e-05
-8.14721e-05
-8.08497e-06
-2.28074e-05
-1.42242e-05
-1.24679e-05
-3.59517e-06
-6.48434e-06
-2.80316e-06
-6.06607e-06
-1.51349e-06
)
;
    }
    procBoundary6to3
    {
        type            processor;
        value           uniform -4.8426e-06;
    }
    procBoundary6to5
    {
        type            processor;
        value           nonuniform List<scalar> 
86
(
-8.06886e-06
-2.27482e-07
-6.80155e-06
7.2298e-07
-7.21973e-06
9.09389e-07
-8.37338e-06
1.04595e-06
-7.96408e-06
1.2469e-06
-7.37644e-06
1.48997e-06
-6.63233e-06
1.48353e-06
-6.08419e-06
1.51283e-06
-6.53567e-06
1.4178e-06
-6.34503e-06
1.22204e-06
-6.1142e-06
1.01294e-06
-5.3531e-06
1.0714e-06
-3.90028e-06
1.57645e-06
-2.66647e-06
2.15321e-06
-2.20534e-07
-3.52712e-08
1.14475e-06
-2.11713e-06
2.63483e-06
2.63483e-06
1.34442e-06
-9.46983e-07
1.03484e-06
-7.93861e-07
8.78e-07
-6.92669e-07
8.14988e-07
-3.48051e-07
4.13357e-07
-1.06565e-07
-1.1077e-07
1.08469e-07
1.08469e-07
2.48677e-07
-1.86829e-07
1.68083e-07
-1.13784e-07
1.13846e-07
-8.22918e-08
2.63694e-08
-4.37842e-08
9.39472e-08
9.39472e-08
1.06576e-07
2.41842e-08
-3.00844e-08
5.70047e-08
-1.74548e-08
2.01145e-08
9.04254e-09
9.04254e-09
1.40747e-08
5.68128e-09
2.30247e-08
-1.31515e-08
1.57365e-08
-1.44218e-08
-1.31338e-09
-1.31338e-09
-1.93971e-09
4.48588e-09
-2.89704e-10
2.78448e-09
-2.56318e-09
3.98534e-09
-1.13498e-08
-5.2674e-09
-9.43044e-09
-9.43044e-09
-6.78025e-09
-6.08352e-09
-5.52247e-09
)
;
    }
    procBoundary6to7
    {
        type            processor;
        value           nonuniform List<scalar> 
91
(
-1.24872e-08
-1.24872e-08
-1.926e-08
-1.926e-08
-2.06483e-08
-2.06483e-08
-1.38099e-08
-8.91521e-09
-1.38099e-08
-1.49756e-08
1.16144e-08
-8.91521e-09
-2.08499e-08
-1.59642e-09
9.30859e-09
1.16144e-08
-2.34524e-09
-6.5157e-09
2.14581e-08
-1.59642e-09
-7.6117e-09
-3.27185e-08
1.31218e-08
1.48037e-08
-6.5157e-09
-1.80857e-08
-2.07722e-08
5.30219e-08
-5.12708e-08
4.52918e-08
-3.27185e-08
-3.04512e-08
2.62973e-08
2.04937e-08
2.43906e-08
3.33257e-08
1.52907e-08
3.41281e-08
-2.07722e-08
1.35798e-08
2.96575e-07
-9.10049e-08
1.2212e-07
-4.83739e-08
9.38939e-08
-3.05347e-08
5.57889e-08
-1.68176e-08
4.72623e-08
1.36894e-09
4.06833e-08
2.62973e-08
9.29067e-09
7.54611e-07
-1.33386e-06
-3.6184e-07
-9.15101e-07
-1.53686e-07
-7.46455e-07
-4.26188e-08
-6.14909e-07
5.88054e-08
-5.09027e-07
8.87894e-08
-4.52422e-07
1.20027e-07
-4.17741e-07
1.21889e-07
-3.97687e-07
1.42335e-07
-3.79466e-07
1.43339e-07
-3.77965e-07
1.58989e-07
-3.78586e-07
1.72941e-07
-3.63934e-07
1.80036e-07
-3.3128e-07
1.93407e-07
-2.88358e-07
1.82791e-07
-2.24935e-07
2.05111e-07
-1.58078e-07
2.15813e-07
-1.13565e-07
1.99927e-07
-7.44794e-08
2.96575e-07
1.58807e-07
)
;
    }
}


// ************************************************************************* //
