/*--------------------------------*- C++ -*----------------------------------*\
| =========                 |                                                 |
| \\      /  F ield         | OpenFOAM: The Open Source CFD Toolbox           |
|  \\    /   O peration     | Version:  2306                                  |
|   \\  /    A nd           | Website:  www.openfoam.com                      |
|    \\/     M anipulation  |                                                 |
\*---------------------------------------------------------------------------*/
FoamFile
{
    version     2.0;
    format      ascii;
    arch        "LSB;label=32;scalar=64";
    class       volVectorField;
    location    "900";
    object      momentError;
}
// * * * * * * * * * * * * * * * * * * * * * * * * * * * * * * * * * * * * * //

dimensions      [0 1 -2 0 0 0 0];

internalField   nonuniform List<vector> 
1340
(
(-0.000621591 0.00131951 1.15494e-13)
(0.000761698 0.0115814 -1.13954e-14)
(0.052441 0.0722284 -4.53999e-16)
(1.09065 -0.120057 -6.74683e-14)
(-0.000904019 0.00044649 -3.94941e-14)
(-0.00166 0.00232315 3.30534e-14)
(-0.0321342 0.0143184 -1.41197e-14)
(-0.892591 0.108502 -3.85081e-14)
(-0.00132915 0.00034167 -3.61652e-14)
(-0.00303995 0.00131005 -9.98043e-14)
(-0.0163926 0.00204568 2.77746e-14)
(-0.112718 0.00973135 9.91175e-15)
(-0.00167565 0.000273866 -1.16595e-13)
(-0.00197991 0.000650707 1.66337e-14)
(-0.00660461 -0.000249768 -2.82966e-14)
(-0.0330367 0.00904813 4.56587e-14)
(-0.00249671 0.000220885 1.18028e-13)
(-0.00153791 0.00032212 -3.96436e-14)
(-0.00366145 -0.000750877 -1.662e-14)
(-0.0196109 0.00936504 -5.31817e-16)
(-0.000978341 -0.00045869 7.32787e-14)
(-0.00112838 0.000250648 8.46272e-14)
(-0.00325021 -0.000739426 3.84848e-14)
(-0.0164374 0.00992003 2.85625e-14)
(0.0237042 -0.00766112 -1.01837e-13)
(-0.00733787 0.00262788 -5.77943e-14)
(-0.00300754 -0.00128093 6.50702e-15)
(-0.0126316 0.00919199 -2.58425e-14)
(-0.0132168 0.00204631 6.94173e-14)
(-0.00335777 -0.00172219 5.85341e-14)
(-0.00186142 4.04638e-05 -3.50454e-14)
(-0.00729092 0.00821381 -2.77325e-14)
(-0.00861469 0.00538356 -8.2352e-14)
(0.00617936 -0.00278663 -1.57879e-14)
(-0.013979 0.00946739 2.61612e-14)
(-0.00349943 0.00683936 -4.96357e-15)
(0.000955022 -0.000589913 3.04295e-14)
(-0.00125828 -0.000782098 5.40655e-15)
(-0.00279901 0.000623373 -1.68841e-14)
(0.000676555 0.00368042 4.25687e-14)
(-0.000449949 0.000278422 -2.02335e-14)
(-0.000234838 -0.000198115 2.06736e-14)
(0.00625482 -0.00778222 1.50911e-14)
(0.00239303 0.00245912 7.6027e-15)
(-0.000171182 -4.68516e-06 5.97704e-14)
(-0.000189474 -0.000290206 3.4706e-14)
(-0.00176925 -0.000770918 1.5039e-14)
(0.000827093 0.00410368 -3.5586e-14)
(-0.000223796 -1.70802e-06 -5.60543e-14)
(-0.000551038 -5.98315e-05 -4.43367e-14)
(-0.00167678 0.000383855 3.17837e-15)
(0.000757644 0.00314447 1.54584e-15)
(-0.000211661 -1.65151e-05 4.06994e-14)
(-0.00055023 -5.70755e-05 5.33803e-14)
(-0.00109411 0.000118182 -3.67086e-14)
(0.00073589 0.00260781 1.99759e-15)
(-0.000205684 -9.47405e-06 3.92951e-15)
(-0.000552686 -6.02509e-06 -6.59995e-14)
(-0.00101484 0.00037908 2.42854e-14)
(0.000683691 0.00234436 1.06458e-15)
(-0.000205613 3.87878e-06 -6.65102e-14)
(-0.000525564 3.524e-05 2.33759e-14)
(-0.0008231 0.000439411 -1.72113e-15)
(0.000664028 0.00202985 9.70018e-15)
(-0.00020545 1.70176e-05 1.19832e-14)
(-0.000490435 7.16489e-05 6.26857e-15)
(-0.000665896 0.000494397 -1.69638e-14)
(0.000622951 0.0017569 -6.5747e-15)
(-0.00020573 2.89806e-05 1.63918e-14)
(-0.000452399 0.000103076 -5.47978e-15)
(-0.000529204 0.000521334 4.63674e-15)
(0.000572513 0.0015091 7.86104e-15)
(-0.000201928 4.06706e-05 9.1205e-15)
(-0.000412472 0.00012832 -2.65002e-14)
(-0.000413775 0.000526966 2.60767e-14)
(0.000520105 0.00128619 -6.30421e-15)
(-0.000197063 5.24944e-05 -7.04782e-15)
(-0.000371109 0.000148482 7.41982e-15)
(-0.000314253 0.000518274 2.22065e-15)
(0.000468021 0.00108835 -4.58364e-15)
(-0.000187906 6.49229e-05 -1.26023e-14)
(-0.000329706 0.000164676 -4.9342e-15)
(-0.000233463 0.000498151 -1.86645e-14)
(0.000419277 0.000914646 -2.96302e-15)
(-0.000178526 7.70635e-05 -1.59414e-14)
(-0.000289522 0.000176493 -1.05187e-14)
(-0.000165145 0.000471565 4.47033e-15)
(0.000374241 0.000765775 3.0825e-15)
(-0.00016583 8.81995e-05 3.96839e-14)
(-0.000250704 0.000185119 2.06253e-14)
(-0.000111701 0.00044197 -1.04227e-14)
(0.000333069 0.00063919 -6.60997e-16)
(-0.000153849 9.81318e-05 -9.38216e-15)
(-0.000214537 0.000189852 -2.36001e-15)
(-6.71362e-05 0.000410682 6.01608e-15)
(0.000295534 0.000534217 2.02942e-15)
(-0.000139552 0.000106119 -1.58346e-14)
(-0.000180348 0.000192393 -6.53379e-15)
(-3.40279e-05 0.000378952 -1.41014e-14)
(0.000261452 0.000446184 -2.5405e-15)
(-0.0001265 0.000112522 1.0934e-14)
(-0.00014983 0.00019127 -1.87187e-14)
(-7.29912e-06 0.000346063 9.63734e-15)
(0.000231396 0.000375658 8.39689e-15)
(-0.000112076 0.000116584 -8.5677e-15)
(-0.000121841 0.000188139 2.79151e-14)
(1.13787e-05 0.000315231 2.3524e-14)
(0.000204797 0.000317337 -1.29424e-15)
(-9.92849e-05 0.000118621 -3.35905e-15)
(-9.76282e-05 0.000182318 1.2138e-14)
(2.60704e-05 0.000284707 -6.794e-15)
(0.000180975 0.000270936 1.43692e-15)
(-8.60958e-05 0.000117116 8.39482e-15)
(-7.57626e-05 0.000175885 -2.55934e-14)
(3.52248e-05 0.000256813 -1.03704e-14)
(0.000159759 0.000231518 -4.82194e-15)
(-7.33117e-05 0.000116309 1.56398e-15)
(-5.71398e-05 0.000166395 1.49039e-14)
(4.17361e-05 0.000230104 5.03127e-15)
(0.000140625 0.000199851 -2.62772e-15)
(-6.15433e-05 0.000112389 -1.22344e-14)
(-4.11457e-05 0.000157664 -1.42127e-14)
(4.47782e-05 0.000205487 -1.53639e-14)
(0.000123678 0.000172558 -2.148e-15)
(-4.97187e-05 0.000110578 2.87532e-15)
(-2.75893e-05 0.000146626 3.185e-15)
(4.58979e-05 0.000182483 3.17361e-15)
(0.000108472 0.000150589 9.70909e-15)
(-4.05416e-05 0.000104919 2.95557e-15)
(-1.7518e-05 0.000136172 1.41166e-15)
(4.53967e-05 0.000161587 -4.31663e-16)
(9.50941e-05 0.000131239 1.29274e-15)
(-4.29025e-05 8.16259e-05 -1.97103e-14)
(-3.11463e-05 0.000100351 -1.93896e-14)
(-8.12954e-06 0.000125197 -6.15371e-15)
(4.35532e-05 0.000142571 -4.9281e-15)
(8.32152e-05 0.000115549 -9.69923e-15)
(-3.45959e-05 7.98651e-05 5.06115e-16)
(-2.38741e-05 9.59916e-05 7.17222e-15)
(-2.75169e-06 0.000113889 3.05123e-15)
(4.12024e-05 0.000125633 9.99527e-15)
(7.2839e-05 0.0001015 8.02812e-15)
(-2.94067e-05 7.62713e-05 1.21921e-14)
(-1.79985e-05 8.88567e-05 -1.76859e-15)
(2.53675e-06 0.000103484 1.26576e-14)
(3.82691e-05 0.000110488 3.10562e-15)
(6.36872e-05 8.98948e-05 4.04367e-15)
(-2.33965e-05 7.13097e-05 -2.57708e-15)
(-1.31058e-05 8.23928e-05 8.36209e-15)
(5.21482e-06 9.34268e-05 -1.09722e-14)
(3.52195e-05 9.70918e-05 -9.65506e-15)
(5.57636e-05 7.94203e-05 -1.0254e-14)
(-1.96588e-05 6.68248e-05 -6.76971e-15)
(-8.94197e-06 7.56318e-05 -9.61805e-15)
(8.01458e-06 8.40212e-05 6.82864e-15)
(3.19879e-05 8.53707e-05 3.87746e-16)
(4.8876e-05 7.07243e-05 -8.13547e-15)
(-1.5034e-05 6.2019e-05 5.88254e-15)
(-5.79313e-06 6.92157e-05 1.06237e-14)
(8.75668e-06 7.52376e-05 -5.77731e-15)
(2.90012e-05 7.50504e-05 -1.18705e-14)
(4.29088e-05 6.28317e-05 1.84192e-15)
(-1.26341e-05 5.72981e-05 4.73077e-15)
(-3.25964e-06 6.28289e-05 8.08504e-15)
(1.00186e-05 6.71599e-05 2.49883e-15)
(2.60251e-05 6.61525e-05 1.35837e-14)
(3.77426e-05 5.61148e-05 1.1274e-14)
(-9.37808e-06 5.20786e-05 -2.57358e-15)
(-1.38585e-06 5.70503e-05 3.51221e-16)
(9.64824e-06 5.97735e-05 3.7444e-15)
(2.34477e-05 5.83062e-05 2.6112e-16)
(3.3219e-05 4.99902e-05 -9.84171e-17)
(-7.6586e-06 4.732e-05 -2.10059e-15)
(8.72103e-08 5.07686e-05 -1.30006e-14)
(1.00587e-05 5.32955e-05 -1.04391e-14)
(2.09426e-05 5.15561e-05 -6.33844e-15)
(2.92957e-05 4.4705e-05 -1.92e-15)
(-5.29409e-06 4.25043e-05 -5.32633e-15)
(1.36523e-06 4.60989e-05 -6.09503e-16)
(9.50676e-06 4.73786e-05 7.86425e-15)
(1.87709e-05 4.56381e-05 2.50865e-15)
(2.58158e-05 3.98985e-05 -6.70935e-15)
(-3.77118e-06 3.92025e-05 1.45765e-14)
(2.45624e-06 4.12541e-05 8.57736e-15)
(9.3073e-06 4.22765e-05 -5.60721e-15)
(1.67082e-05 4.05074e-05 -9.32789e-16)
(2.27631e-05 3.57106e-05 5.34818e-15)
(-2.11801e-06 3.54087e-05 3.09157e-15)
(2.78849e-06 3.73463e-05 -5.72133e-15)
(8.59186e-06 3.7628e-05 -6.92772e-15)
(1.48551e-05 3.5946e-05 -7.29542e-16)
(2.00193e-05 3.19024e-05 1.54369e-15)
(-5.58507e-06 3.06788e-05 -3.78293e-15)
(-1.3176e-06 3.23901e-05 2.57783e-16)
(3.41705e-06 3.34992e-05 1.66663e-15)
(8.03411e-06 3.35321e-05 -3.90779e-15)
(1.31252e-05 3.19586e-05 -2.75812e-15)
(1.76014e-05 2.85545e-05 -1.06555e-15)
(-4.01834e-06 2.81168e-05 -5.4941e-15)
(-2.86454e-07 2.95341e-05 -4.78827e-16)
(3.07891e-06 3.00204e-05 -2.67702e-15)
(7.17775e-06 2.98299e-05 1.37367e-15)
(1.15672e-05 2.83777e-05 7.65639e-15)
(1.54026e-05 2.5496e-05 -1.86013e-16)
(-3.20439e-06 2.55325e-05 -4.31248e-15)
(-2.68342e-07 2.63889e-05 -8.37702e-16)
(3.1693e-06 2.67384e-05 -4.39821e-15)
(6.55521e-06 2.65107e-05 6.74972e-15)
(1.01208e-05 2.52117e-05 -9.32125e-16)
(1.34832e-05 2.27981e-05 -2.95272e-15)
(-2.38065e-06 2.27871e-05 3.83207e-15)
(3.15843e-07 2.3575e-05 3.20934e-15)
(2.76236e-06 2.38309e-05 5.00278e-15)
(5.72261e-06 2.34941e-05 -3.17269e-16)
(8.84483e-06 2.23677e-05 -2.12917e-15)
(1.17271e-05 2.03438e-05 6.37827e-15)
(-1.95714e-06 2.0343e-05 -3.49101e-15)
(2.0174e-07 2.08272e-05 -2.69835e-15)
(2.68655e-06 2.10491e-05 -2.41893e-15)
(5.14691e-06 2.0786e-05 -2.5737e-15)
(7.68774e-06 1.98477e-05 7.96873e-15)
(1.02113e-05 1.81579e-05 -1.1881e-16)
(-1.47913e-06 1.80525e-05 -1.36026e-15)
(6.07712e-07 1.8496e-05 6.04794e-16)
(2.36115e-06 1.86451e-05 -3.90067e-15)
(4.46709e-06 1.83521e-05 1.55228e-15)
(6.68415e-06 1.75684e-05 -1.03101e-15)
(8.81119e-06 1.61803e-05 -5.31542e-15)
(-1.18617e-06 1.62495e-05 2.53369e-15)
(4.32224e-07 1.63825e-05 -1.21748e-15)
(2.20597e-06 1.63754e-05 1.44273e-15)
(3.9881e-06 1.61571e-05 4.04515e-16)
(5.78377e-06 1.55265e-05 -7.24592e-16)
(7.63378e-06 1.44165e-05 2.24735e-15)
(-1.13241e-06 1.45096e-05 5.40615e-15)
(4.81629e-07 1.44786e-05 7.24418e-15)
(1.86711e-06 1.43983e-05 1.71375e-16)
(3.46225e-06 1.41551e-05 -1.12137e-15)
(5.03649e-06 1.36888e-05 -3.9414e-15)
(6.53832e-06 1.28279e-05 -1.80422e-15)
(-1.18293e-06 1.27118e-05 -1.00206e-15)
(9.29759e-08 1.26625e-05 -1.0394e-15)
(1.66302e-06 1.26123e-05 -2.22141e-16)
(3.12917e-06 1.24631e-05 5.71442e-16)
(4.41286e-06 1.20698e-05 3.77162e-15)
(5.70468e-06 1.14334e-05 3.55409e-15)
(-2.34042e-06 1.10992e-05 5.26507e-16)
(-1.26757e-06 1.11261e-05 2.38452e-15)
(1.54344e-07 1.13514e-05 2.19318e-15)
(1.6046e-06 1.12417e-05 -1.9519e-15)
(2.78243e-06 1.101e-05 -1.5207e-15)
(3.88608e-06 1.06762e-05 -6.27467e-16)
(4.91302e-06 1.01578e-05 -2.49757e-15)
(-2.04217e-06 9.78903e-06 -1.97567e-15)
(-9.93797e-07 1.02125e-05 -7.87514e-17)
(1.57246e-07 1.02228e-05 5.91043e-16)
(1.34944e-06 1.00148e-05 -3.25811e-15)
(2.42757e-06 9.77879e-06 -7.85783e-16)
(3.3941e-06 9.40762e-06 1.43118e-15)
(4.29368e-06 8.98246e-06 -6.14606e-16)
(-1.59168e-06 8.80934e-06 5.98291e-17)
(-8.39886e-07 9.03623e-06 1.782e-16)
(-2.39496e-08 9.14066e-06 -4.70594e-15)
(1.13954e-06 8.92268e-06 3.58627e-15)
(2.06561e-06 8.64361e-06 1.30017e-15)
(2.90616e-06 8.27879e-06 -2.44771e-15)
(3.70047e-06 7.91124e-06 3.88545e-15)
(-1.35468e-06 7.71297e-06 3.17928e-15)
(-7.43109e-07 7.94134e-06 1.56857e-15)
(1.01739e-09 8.07531e-06 6.76202e-16)
(8.36929e-07 7.8805e-06 -1.42894e-15)
(1.65348e-06 7.62066e-06 -5.36099e-15)
(2.48047e-06 7.30803e-06 3.45823e-15)
(3.23653e-06 6.98972e-06 -5.07547e-16)
(-1.03015e-06 6.7144e-06 1.04153e-15)
(-5.74265e-07 6.97301e-06 2.15003e-16)
(-1.51229e-07 7.10302e-06 -1.23471e-15)
(6.32534e-07 6.95374e-06 -4.72933e-16)
(1.38813e-06 6.8036e-06 -2.6662e-16)
(2.13414e-06 6.5477e-06 2.48604e-16)
(2.79536e-06 6.26101e-06 1.27748e-16)
(-8.24016e-07 5.92284e-06 -1.36053e-16)
(-4.75045e-07 6.08214e-06 1.1142e-15)
(-8.04745e-08 6.26374e-06 1.0616e-15)
(5.2676e-07 6.21167e-06 7.57898e-16)
(1.17347e-06 6.10914e-06 -1.23198e-16)
(1.80344e-06 5.89155e-06 1.49559e-15)
(2.39977e-06 5.67259e-06 6.59424e-16)
(-6.17209e-07 5.16523e-06 -2.19076e-15)
(-3.38467e-07 5.35101e-06 -2.93147e-16)
(-5.23464e-08 5.50247e-06 1.8639e-15)
(4.64945e-07 5.46681e-06 -9.87128e-16)
(9.64378e-07 5.40518e-06 -4.85203e-15)
(1.52684e-06 5.25899e-06 -5.82486e-17)
(2.03497e-06 5.07015e-06 7.55425e-16)
(-6.71712e-07 4.31888e-06 -9.42019e-16)
(-4.45434e-07 4.45438e-06 -8.33242e-16)
(-3.58939e-07 4.69305e-06 -3.75403e-16)
(2.9918e-08 4.68882e-06 4.39306e-16)
(3.70914e-07 4.72057e-06 -1.89487e-15)
(8.19439e-07 4.68273e-06 -6.34756e-16)
(1.25462e-06 4.58671e-06 2.87665e-16)
(1.68515e-06 4.43582e-06 -1.68531e-16)
(-5.21843e-07 3.69512e-06 5.58476e-16)
(-3.72482e-07 3.81547e-06 1.88142e-15)
(-2.72187e-07 3.99667e-06 1.1529e-15)
(4.15006e-08 3.9856e-06 -2.97251e-15)
(3.36887e-07 4.02783e-06 -1.58564e-15)
(6.69023e-07 4.01908e-06 1.09782e-15)
(1.03641e-06 3.94881e-06 4.98006e-16)
(1.43947e-06 3.87389e-06 -2.80238e-16)
(-4.27211e-07 3.13481e-06 1.2232e-15)
(-2.84085e-07 3.2473e-06 3.12104e-16)
(-1.83677e-07 3.40126e-06 -1.59625e-15)
(7.39697e-08 3.39611e-06 1.13548e-15)
(2.97656e-07 3.43655e-06 1.23028e-15)
(5.74077e-07 3.4365e-06 -1.01586e-15)
(8.85192e-07 3.41259e-06 -1.08834e-15)
(1.20664e-06 3.34823e-06 -1.43832e-16)
(-3.02774e-07 2.66285e-06 -2.14931e-16)
(-1.69248e-07 2.74045e-06 6.00605e-16)
(-1.35726e-07 2.94273e-06 -7.16241e-16)
(1.10074e-07 2.898e-06 2.276e-15)
(2.83318e-07 2.93826e-06 -1.97666e-15)
(5.03471e-07 2.95643e-06 -2.48292e-15)
(7.43601e-07 2.92869e-06 3.28713e-15)
(9.95316e-07 2.87334e-06 3.49245e-16)
(-2.4337e-07 2.31465e-06 -9.87349e-16)
(-8.76854e-08 2.37978e-06 -9.28725e-16)
(-2.67941e-08 2.56243e-06 -1.95347e-16)
(1.39523e-07 2.50076e-06 2.23536e-16)
(2.87554e-07 2.53973e-06 8.72015e-16)
(4.40889e-07 2.54035e-06 7.91887e-16)
(6.01825e-07 2.50808e-06 -3.2511e-16)
(7.9752e-07 2.46768e-06 -7.14592e-16)
(-1.39387e-07 2.06293e-06 1.04477e-15)
(-4.08075e-09 2.13762e-06 -1.16523e-15)
(3.08068e-09 2.27893e-06 1.08291e-15)
(1.84686e-07 2.20749e-06 1.7215e-15)
(2.70945e-07 2.20989e-06 -1.06537e-15)
(3.40776e-07 2.18829e-06 1.44383e-16)
(4.81258e-07 2.16882e-06 1.42403e-15)
(6.35304e-07 2.11543e-06 -1.72767e-16)
(-6.50576e-08 1.90955e-06 -1.03061e-15)
(2.76196e-08 1.9728e-06 1.05954e-16)
(6.36937e-08 2.0713e-06 3.59371e-16)
(1.63827e-07 1.97764e-06 -1.86535e-15)
(1.96176e-07 1.94807e-06 7.7484e-16)
(2.83165e-07 1.92993e-06 1.69239e-15)
(3.82491e-07 1.89309e-06 -1.04774e-15)
(4.95756e-07 1.8243e-06 -5.94044e-16)
(-1.31564e-07 1.71424e-06 5.5652e-16)
(1.04232e-08 1.70922e-06 3.61931e-16)
(-6.32384e-08 1.9325e-06 6.44841e-16)
(5.83992e-08 1.77757e-06 -1.10245e-15)
(9.15273e-08 1.7381e-06 5.20709e-16)
(1.53407e-07 1.70149e-06 1.1002e-15)
(2.07734e-07 1.68012e-06 -2.15654e-15)
(3.01704e-07 1.65448e-06 -3.79947e-16)
(4.2913e-07 1.64923e-06 1.79402e-15)
(-9.02396e-08 1.51182e-06 1.33327e-16)
(-1.90416e-08 1.54964e-06 -1.08538e-16)
(-6.76933e-08 1.67281e-06 6.60706e-16)
(1.90515e-08 1.54901e-06 8.97303e-16)
(5.55342e-08 1.52821e-06 -9.21411e-16)
(1.01311e-07 1.50146e-06 -8.5622e-16)
(1.69797e-07 1.48107e-06 4.83292e-16)
(2.65862e-07 1.47669e-06 1.54897e-15)
(3.50177e-07 1.45596e-06 -2.14005e-15)
(-5.88728e-08 1.29164e-06 -2.57375e-16)
(3.8658e-10 1.30554e-06 -4.27565e-16)
(-7.36743e-08 1.44337e-06 -1.51641e-15)
(5.0768e-09 1.33316e-06 -5.20008e-16)
(2.70072e-08 1.32513e-06 1.58963e-16)
(7.29567e-08 1.30163e-06 2.31971e-16)
(1.3116e-07 1.29507e-06 -2.94379e-16)
(1.98756e-07 1.26911e-06 9.66338e-16)
(2.71236e-07 1.24428e-06 2.32825e-15)
(-4.47357e-08 1.08804e-06 8.98996e-16)
(7.23562e-09 1.09212e-06 -1.228e-15)
(-5.93828e-08 1.22559e-06 9.97349e-17)
(-1.53117e-09 1.12211e-06 2.44981e-15)
(8.41646e-09 1.11941e-06 -1.2335e-15)
(4.02162e-08 1.10416e-06 3.07783e-16)
(7.7079e-08 1.09089e-06 -6.31059e-16)
(1.27238e-07 1.07109e-06 1.52895e-16)
(1.81608e-07 1.03899e-06 7.00608e-16)
(-3.52878e-08 9.14087e-07 -4.9029e-17)
(1.45125e-08 9.04901e-07 7.01137e-16)
(-5.95781e-08 1.03446e-06 4.34094e-16)
(-8.70259e-09 9.31454e-07 -1.78028e-15)
(-6.59083e-09 9.30187e-07 1.29109e-15)
(6.32561e-09 9.16073e-07 1.91716e-15)
(2.8458e-08 9.10026e-07 -3.08795e-15)
(6.56578e-08 8.95683e-07 -4.89166e-16)
(9.85035e-08 8.68066e-07 1.14767e-15)
(-4.48821e-08 7.65756e-07 2.36386e-16)
(7.934e-09 7.57924e-07 3.93652e-16)
(-4.9255e-08 8.80048e-07 -2.84328e-16)
(-1.64717e-08 7.85956e-07 -7.3079e-16)
(-2.33117e-08 7.85927e-07 6.82148e-16)
(-1.5779e-08 7.7495e-07 1.19007e-15)
(-3.96716e-09 7.74122e-07 -1.70864e-16)
(1.60271e-08 7.70567e-07 -1.14178e-15)
(1.77719e-08 7.54659e-07 4.61154e-16)
(-2.73578e-08 6.61479e-07 -5.18652e-16)
(3.25232e-08 6.56119e-07 -1.91219e-16)
(-5.5887e-08 8.12642e-07 6.00467e-16)
(-1.284e-08 7.04802e-07 8.63566e-16)
(-2.73111e-08 7.10347e-07 -6.36447e-18)
(-2.84169e-08 7.01655e-07 -3.38265e-17)
(-2.36535e-08 7.04247e-07 -3.78385e-16)
(-1.04009e-08 7.08104e-07 7.09021e-17)
(-2.11775e-08 7.05259e-07 -1.08981e-16)
(-3.16924e-08 6.55658e-07 2.78213e-16)
(6.7975e-08 6.40325e-07 2.64151e-16)
(-1.08674e-08 7.86931e-07 6.16538e-16)
(-7.91156e-09 6.79573e-07 -1.08046e-16)
(-2.75506e-08 6.8609e-07 -5.41491e-16)
(-3.22225e-08 6.79987e-07 1.17602e-16)
(-3.1663e-08 6.87145e-07 -3.56963e-16)
(-3.25047e-08 7.0099e-07 -5.41394e-16)
(-6.76757e-08 7.19988e-07 8.30237e-16)
(-2.62564e-08 6.86256e-07 -1.21447e-15)
(6.46851e-08 6.82798e-07 -6.19574e-16)
(-2.0368e-08 7.89799e-07 2.60058e-16)
(-3.75554e-09 6.8229e-07 4.19368e-16)
(-2.41372e-08 6.88174e-07 1.67542e-15)
(-3.13708e-08 6.85061e-07 -4.30973e-16)
(-3.63062e-08 6.96489e-07 -1.90535e-15)
(-4.3703e-08 7.24602e-07 4.09589e-17)
(-9.86569e-08 7.74046e-07 1.22756e-15)
(-1.70793e-08 6.70606e-07 -1.6843e-16)
(-9.23402e-09 6.95533e-07 -3.89375e-16)
(-2.19568e-09 8.49016e-07 1.08123e-16)
(5.91882e-10 7.00571e-07 -6.00878e-16)
(-6.73869e-09 7.02307e-07 8.88664e-17)
(-1.48647e-08 6.96716e-07 3.67238e-16)
(-2.10968e-08 7.03777e-07 -1.35317e-15)
(-2.63042e-08 7.2353e-07 6.93582e-16)
(-4.99336e-08 7.73375e-07 1.16813e-15)
(-1.22967e-07 8.45412e-07 1.09955e-16)
(-2.68282e-08 7.15136e-07 2.82653e-16)
(-3.384e-08 7.46734e-07 -1.23913e-16)
(1.91562e-08 8.67929e-07 -6.96388e-17)
(5.54121e-09 7.37455e-07 1.5406e-16)
(4.83989e-09 7.42427e-07 4.99819e-16)
(4.75862e-09 7.35501e-07 9.74524e-18)
(2.07124e-09 7.39673e-07 -7.42976e-17)
(-5.23802e-09 7.55785e-07 3.37758e-16)
(-3.5024e-08 8.12384e-07 6.09362e-17)
(-1.00686e-07 9.1856e-07 -5.4559e-16)
(-3.21119e-08 8.43817e-07 1.4332e-17)
(-4.24149e-08 8.60331e-07 3.06157e-16)
(4.40552e-08 1.01166e-06 5.72173e-16)
(1.53674e-08 8.59098e-07 -1.43785e-15)
(1.50961e-08 8.65738e-07 2.64091e-16)
(1.24223e-08 8.50419e-07 2.48938e-15)
(9.95696e-09 8.44892e-07 -2.66416e-15)
(2.22246e-09 8.50686e-07 -7.81144e-16)
(-2.11511e-08 9.0103e-07 1.89202e-15)
(-5.23981e-08 1.04782e-06 -7.50624e-16)
(-0.0322923 -0.024778 -5.98674e-14)
(0.0298228 -0.0329746 -1.63585e-14)
(0.0468132 -0.0188513 2.72081e-14)
(0.0335192 -0.0123274 -1.54361e-14)
(0.0256102 -0.0089998 2.45633e-14)
(0.0220488 -0.00681893 -7.79216e-15)
(0.0186847 -0.00504337 -5.75052e-15)
(0.014184 -0.00360653 -1.74072e-14)
(0.00835378 -0.00266933 1.24253e-14)
(0.00697519 -0.00118682 1.77066e-14)
(0.00401013 -0.000177764 -7.49635e-15)
(0.00250855 -0.000204248 -1.68082e-14)
(0.0021687 -9.07804e-05 1.74993e-14)
(0.00188057 2.71728e-05 -1.7166e-14)
(0.00159703 0.000101935 1.55476e-14)
(0.00133047 0.000156912 -3.35747e-15)
(0.00111052 0.000194149 1.46512e-15)
(0.000924546 0.000217423 -5.20728e-15)
(0.000768483 0.000226507 -6.52724e-15)
(0.000635987 0.000226977 1.51619e-15)
(0.000526458 0.000219784 3.74365e-15)
(0.000434397 0.000208825 -3.62533e-16)
(0.000359557 0.000194568 1.15425e-15)
(0.000296888 0.00017989 -1.2674e-15)
(0.000246998 0.000165648 3.45612e-15)
(0.000205997 0.0001539 -3.87003e-15)
(0.000173878 0.000143812 1.64563e-15)
(0.000146549 0.000134185 -3.60103e-15)
(0.00012487 0.000124666 4.44555e-15)
(0.000106247 0.000115255 -7.2375e-15)
(9.15663e-05 0.00010642 1.39576e-14)
(7.87019e-05 9.76693e-05 -6.13972e-15)
(6.85714e-05 8.97863e-05 1.98205e-15)
(5.94978e-05 8.20266e-05 6.70156e-16)
(5.22963e-05 7.51435e-05 4.12647e-15)
(4.57148e-05 6.84624e-05 -2.09363e-15)
(4.04519e-05 6.25482e-05 -6.2159e-15)
(3.55535e-05 5.69139e-05 3.91945e-15)
(3.1551e-05 5.17953e-05 -2.62754e-16)
(2.77789e-05 4.70278e-05 7.41961e-16)
(2.46419e-05 4.26141e-05 3.82647e-15)
(2.16699e-05 3.85852e-05 3.04648e-15)
(1.91715e-05 3.48321e-05 -6.0741e-15)
(1.67992e-05 3.14648e-05 5.36772e-15)
(1.47967e-05 2.83355e-05 4.82788e-16)
(1.28831e-05 2.55443e-05 -7.41925e-15)
(1.12733e-05 2.29538e-05 4.18187e-15)
(9.73559e-06 2.06415e-05 -1.28079e-15)
(8.44682e-06 1.84985e-05 9.43562e-16)
(7.21829e-06 1.65832e-05 -1.81596e-15)
(6.18651e-06 1.48281e-05 -3.48366e-15)
(5.20075e-06 1.32472e-05 2.41659e-15)
(4.37996e-06 1.18738e-05 4.72563e-17)
(3.64308e-06 1.06516e-05 2.57524e-15)
(3.03634e-06 9.52749e-06 -3.94596e-15)
(2.52988e-06 8.47964e-06 -2.18954e-15)
(2.1392e-06 7.46664e-06 1.60618e-15)
(1.82319e-06 6.58847e-06 -5.17203e-15)
(1.5526e-06 5.84722e-06 -1.25226e-15)
(1.29968e-06 5.2674e-06 -3.37042e-15)
(1.0275e-06 4.69939e-06 1.70978e-15)
(8.36238e-07 4.13239e-06 -1.62623e-15)
(6.71063e-07 3.58981e-06 3.26227e-15)
(5.31928e-07 3.09303e-06 5.53054e-16)
(3.98451e-07 2.63271e-06 1.46337e-15)
(2.79366e-07 2.24099e-06 -1.41036e-15)
(1.72383e-07 1.93e-06 1.71674e-15)
(1.15857e-07 1.677e-06 1.4192e-15)
(8.48618e-08 1.52624e-06 -2.03758e-15)
(7.2539e-08 1.32432e-06 1.60392e-15)
(4.01768e-08 1.10102e-06 -2.49077e-15)
(-1.9138e-09 8.93257e-07 -4.35045e-15)
(-5.50834e-08 7.18756e-07 1.72318e-16)
(-1.26005e-07 6.1385e-07 -6.58519e-16)
(-1.45707e-07 5.69021e-07 -9.67793e-16)
(-1.98038e-07 5.67913e-07 8.71798e-16)
(-2.26724e-07 5.97618e-07 -1.1572e-15)
(-2.46541e-07 6.19221e-07 -3.8274e-16)
(-1.93711e-07 6.7781e-07 -2.52915e-16)
(-1.261e-07 8.54649e-07 4.6862e-16)
(0.0806103 -0.00856751 1.85695e-14)
(-0.0392993 0.00460952 4.29929e-15)
(-0.00554066 -0.0010346 -5.81915e-15)
(-0.00314498 -0.00239675 2.64652e-15)
(-0.00089068 -0.0029711 -4.28783e-15)
(0.000288375 -0.00315554 1.0708e-15)
(0.00107241 -0.00318276 6.67201e-16)
(0.00185289 -0.00310339 3.01921e-15)
(0.00271412 -0.00278628 -1.79356e-15)
(0.000913603 -0.00258694 -2.38726e-15)
(0.00107577 -0.00251235 1.42387e-15)
(0.00115907 -0.00210995 2.92354e-15)
(0.0011142 -0.0017691 -2.81058e-15)
(0.00113281 -0.00146792 3.1357e-15)
(0.00103997 -0.00119462 -3.00073e-15)
(0.000923858 -0.00096605 8.08237e-16)
(0.00084527 -0.000766227 -3.12449e-16)
(0.000759089 -0.000591368 7.06995e-16)
(0.000680118 -0.000443667 1.09041e-15)
(0.000605882 -0.000320477 -1.60458e-16)
(0.000536644 -0.00021952 -1.63564e-16)
(0.000472809 -0.00013786 -2.63917e-16)
(0.000414481 -7.29998e-05 1.53551e-16)
(0.000362165 -2.1833e-05 -1.58871e-16)
(0.000314076 1.73714e-05 -7.62366e-17)
(0.00026928 4.64724e-05 1.90938e-16)
(0.000228676 6.6349e-05 -1.72545e-16)
(0.000194492 7.92867e-05 6.52171e-16)
(0.000165023 8.63255e-05 -3.2501e-16)
(0.00014048 8.91111e-05 1.44918e-15)
(0.000119341 8.87068e-05 -1.87726e-15)
(0.000101879 8.61029e-05 7.71559e-16)
(8.68371e-05 8.21422e-05 -3.52684e-16)
(7.44031e-05 7.71574e-05 3.26097e-16)
(6.37014e-05 7.1897e-05 -1.40602e-15)
(5.47729e-05 6.63416e-05 1.57095e-16)
(4.70788e-05 6.09257e-05 1.34698e-15)
(4.05344e-05 5.56271e-05 -4.78536e-17)
(3.49014e-05 5.06511e-05 1.88524e-16)
(3.00146e-05 4.5958e-05 -1.1753e-15)
(2.58124e-05 4.16041e-05 -1.72212e-16)
(2.21191e-05 3.76047e-05 7.30206e-16)
(1.89497e-05 3.39067e-05 6.85822e-16)
(1.61427e-05 3.05516e-05 -1.53318e-15)
(1.37421e-05 2.74622e-05 2.46042e-16)
(1.16073e-05 2.46869e-05 1.61504e-15)
(9.79104e-06 2.21337e-05 -1.32353e-15)
(8.1766e-06 1.98404e-05 9.19104e-16)
(6.82134e-06 1.77487e-05 -7.35854e-16)
(5.60367e-06 1.5851e-05 -1.78356e-16)
(4.59683e-06 1.41175e-05 1.20734e-15)
(3.66372e-06 1.25649e-05 -2.58734e-15)
(2.9244e-06 1.121e-05 -2.34135e-16)
(2.17779e-06 1.00513e-05 -5.2514e-16)
(1.62497e-06 8.98326e-06 2.11038e-15)
(1.08825e-06 8.02528e-06 7.36531e-16)
(7.60479e-07 7.09012e-06 -1.5883e-16)
(4.98416e-07 6.24128e-06 1.24679e-15)
(3.49455e-07 5.49665e-06 1.28939e-16)
(2.13115e-07 4.86623e-06 3.66482e-16)
(4.90222e-08 4.30882e-06 1.84649e-15)
(-6.78024e-08 3.76673e-06 2.8062e-16)
(-1.5164e-07 3.26757e-06 -2.69329e-15)
(-1.95497e-07 2.78951e-06 -5.02219e-16)
(-2.3618e-07 2.36199e-06 2.91818e-15)
(-2.60718e-07 1.99675e-06 -8.10175e-16)
(-2.75082e-07 1.70202e-06 -2.49366e-16)
(-2.61022e-07 1.56202e-06 -2.46509e-16)
(-2.37964e-07 1.37524e-06 2.3123e-16)
(-1.9966e-07 1.16158e-06 2.39668e-15)
(-1.9132e-07 9.4327e-07 1.01818e-15)
(-1.75082e-07 7.40149e-07 3.80046e-16)
(-1.60815e-07 5.69468e-07 -6.66454e-16)
(-1.97498e-07 4.7739e-07 8.45606e-16)
(-1.70411e-07 4.20371e-07 6.25751e-16)
(-1.74798e-07 3.76312e-07 -3.2558e-17)
(-1.74621e-07 3.44803e-07 -1.99362e-16)
(-1.69797e-07 3.107e-07 -3.09696e-16)
(-1.4767e-07 3.24182e-07 4.28201e-16)
(-0.00178579 -0.000332871 2.67419e-16)
(-0.00469457 -0.000523797 4.79779e-17)
(-0.000865271 -0.00073065 -2.31196e-16)
(-0.000402618 -0.00059962 9.1406e-17)
(-0.000104769 -0.000504861 2.52576e-16)
(1.889e-05 -0.000441273 7.81102e-18)
(3.9624e-05 -0.000401746 1.78176e-17)
(-2.70402e-05 -0.000363642 7.5738e-17)
(-0.000258251 -0.000350936 3.72774e-16)
(-0.000151665 -0.000423544 3.44218e-16)
(-0.000117661 -0.00038295 -2.29345e-16)
(-0.000230224 -0.000393906 3.95258e-16)
(-0.00027683 -0.000421963 4.35814e-17)
(-0.000114841 -0.000444573 -2.66826e-18)
(-5.88242e-05 -0.00042081 -3.06269e-16)
(-3.61219e-05 -0.000400582 2.45178e-16)
(7.56996e-05 -0.000390708 3.26765e-16)
(0.000115996 -0.000363721 -1.40847e-16)
(0.000151193 -0.000333374 -4.84452e-16)
(0.00017461 -0.000300772 3.2045e-17)
(0.00018962 -0.000266624 -8.82071e-18)
(0.000196823 -0.000232203 1.69169e-17)
(0.000198337 -0.000197561 -1.44324e-16)
(0.000194935 -0.00016396 3.12977e-16)
(0.000188879 -0.000131774 -1.67375e-16)
(0.000181265 -0.000101687 -8.38863e-17)
(0.00017204 -7.46549e-05 -1.8895e-16)
(0.000160637 -5.12391e-05 4.96076e-17)
(0.00014815 -3.13886e-05 -6.69459e-18)
(0.000135097 -1.49612e-05 -4.74094e-17)
(0.000122125 -1.74599e-06 2.86936e-17)
(0.000109563 8.5368e-06 -9.27345e-17)
(9.76725e-05 1.62994e-05 2.64643e-16)
(8.66524e-05 2.18559e-05 -2.35244e-18)
(7.65333e-05 2.56282e-05 -1.8275e-16)
(6.73898e-05 2.79025e-05 -1.17689e-16)
(5.91559e-05 2.90969e-05 7.08648e-17)
(5.18259e-05 2.93648e-05 1.59873e-16)
(4.52978e-05 2.90007e-05 -2.91956e-17)
(3.95278e-05 2.81584e-05 -3.12301e-16)
(3.44201e-05 2.7003e-05 2.87507e-16)
(2.99215e-05 2.56456e-05 -1.43797e-15)
(2.59494e-05 2.41561e-05 5.86303e-17)
(2.24668e-05 2.26312e-05 -5.82167e-16)
(1.93928e-05 2.10773e-05 -1.9371e-17)
(1.67093e-05 1.95551e-05 9.48448e-16)
(1.43418e-05 1.80686e-05 1.00413e-15)
(1.22878e-05 1.66512e-05 1.86099e-16)
(1.04804e-05 1.52775e-05 -2.23615e-16)
(8.91626e-06 1.39787e-05 -8.72683e-17)
(7.54852e-06 1.273e-05 -4.91661e-16)
(6.3615e-06 1.15665e-05 -2.50406e-17)
(5.31236e-06 1.05083e-05 -5.10697e-16)
(4.37443e-06 9.56586e-06 9.64028e-16)
(3.50391e-06 8.7437e-06 4.6789e-16)
(2.77534e-06 7.97254e-06 1.00892e-15)
(2.14263e-06 7.2741e-06 -2.40978e-16)
(1.6934e-06 6.58775e-06 3.02526e-16)
(1.35308e-06 5.96006e-06 1.00363e-16)
(1.08076e-06 5.35927e-06 1.61418e-16)
(8.3183e-07 4.79651e-06 -2.57146e-15)
(6.09853e-07 4.28353e-06 1.16241e-15)
(4.36504e-07 3.79052e-06 5.65199e-16)
(2.91279e-07 3.31623e-06 1.09683e-15)
(1.86843e-07 2.86559e-06 -1.54283e-15)
(1.23818e-07 2.47522e-06 -2.74727e-17)
(6.33543e-08 2.1611e-06 -2.07296e-16)
(3.09502e-08 1.94237e-06 -9.75089e-17)
(2.01044e-08 1.76588e-06 8.46588e-19)
(-7.77251e-09 1.55139e-06 -3.06953e-15)
(-1.60429e-08 1.31299e-06 -2.58206e-15)
(-2.00619e-08 1.09875e-06 2.5979e-16)
(-2.12708e-08 8.92861e-07 1.52522e-15)
(-8.08552e-08 7.94462e-07 -1.81492e-16)
(-6.46114e-08 7.50888e-07 7.56045e-16)
(-5.88527e-08 7.10066e-07 -1.61783e-15)
(-6.30742e-08 7.13019e-07 5.7219e-16)
(-7.213e-08 7.42343e-07 6.99688e-17)
(0.00212082 -0.00052679 -4.87523e-17)
(-0.0010903 -0.000189608 -4.75475e-18)
(-0.000323517 -0.000312765 1.55656e-16)
(-0.000319864 -0.000298505 1.17033e-16)
(-0.000261733 -0.00029554 -6.21095e-18)
(-0.000252991 -0.000289157 -1.97911e-17)
(-0.000243201 -0.000284472 7.60852e-18)
(-0.000230082 -0.000277395 -1.0644e-17)
(-0.000194669 -0.000257874 -8.3153e-17)
(-0.000167143 -0.000230706 -1.79703e-16)
(-0.000113489 -0.000235974 1.86229e-16)
(1.98939e-05 -0.000212776 -4.40842e-17)
(2.07076e-05 -0.000212271 -2.84232e-16)
(-1.50339e-05 -0.000227322 5.19777e-17)
(-2.97055e-06 -0.00015148 -2.056e-17)
(-2.37038e-05 -0.000191971 3.56626e-16)
(2.51858e-05 -0.000201592 1.20076e-16)
(3.99668e-05 -0.000196197 -1.57339e-16)
(6.1085e-05 -0.000190908 -1.78576e-16)
(7.71978e-05 -0.000183447 -3.55885e-18)
(9.11211e-05 -0.000174063 -1.53104e-16)
(0.000102359 -0.000163081 2.30579e-16)
(0.000111165 -0.000149799 -1.11884e-17)
(0.000117227 -0.000135251 3.22171e-16)
(0.00012083 -0.000119729 -3.28726e-16)
(0.000121862 -0.000104093 -3.71691e-17)
(0.000120945 -8.84558e-05 7.96217e-17)
(0.000118228 -7.34019e-05 -1.22477e-16)
(0.000114103 -5.91199e-05 4.78989e-17)
(0.000108703 -4.61097e-05 -5.60485e-19)
(0.000102437 -3.42861e-05 4.06974e-17)
(9.54972e-05 -2.39023e-05 -2.36148e-18)
(8.82203e-05 -1.48295e-05 -6.52398e-17)
(8.07747e-05 -7.22407e-06 6.18103e-19)
(7.34034e-05 -8.47447e-07 -8.15725e-17)
(6.62269e-05 4.22111e-06 2.90756e-16)
(5.93874e-05 8.21577e-06 -2.50996e-16)
(5.2945e-05 1.11893e-05 -3.96331e-18)
(4.69695e-05 1.33448e-05 2.02289e-16)
(4.14712e-05 1.47713e-05 7.64939e-16)
(3.64682e-05 1.56287e-05 2.64398e-16)
(3.19439e-05 1.60237e-05 1.63827e-15)
(2.78825e-05 1.60494e-05 -1.05084e-16)
(2.42565e-05 1.5812e-05 -2.21265e-16)
(2.10299e-05 1.53592e-05 -1.33119e-16)
(1.81788e-05 1.47806e-05 -1.75664e-16)
(1.56574e-05 1.40782e-05 -1.31419e-15)
(1.34503e-05 1.33234e-05 2.86947e-16)
(1.15073e-05 1.25152e-05 -2.61563e-16)
(9.82088e-06 1.16807e-05 -6.54256e-17)
(8.33989e-06 1.0825e-05 2.77083e-16)
(7.0681e-06 9.9612e-06 2.82145e-16)
(5.94107e-06 9.15479e-06 3.23186e-16)
(4.94386e-06 8.38666e-06 6.33922e-16)
(4.04184e-06 7.72021e-06 1.71189e-16)
(3.2313e-06 7.1378e-06 -9.73668e-16)
(2.53588e-06 6.5925e-06 2.09942e-16)