/*--------------------------------*- C++ -*----------------------------------*\
| =========                 |                                                 |
| \\      /  F ield         | OpenFOAM: The Open Source CFD Toolbox           |
|  \\    /   O peration     | Version:  2306                                  |
|   \\  /    A nd           | Website:  www.openfoam.com                      |
|    \\/     M anipulation  |                                                 |
\*---------------------------------------------------------------------------*/
FoamFile
{
    version     2.0;
    format      ascii;
    arch        "LSB;label=32;scalar=64";
    class       volScalarField;
    location    "900";
    object      turbulenceProperties:L;
}
// * * * * * * * * * * * * * * * * * * * * * * * * * * * * * * * * * * * * * //

dimensions      [0 1 0 0 0 0 0];

internalField   nonuniform List<scalar> 
1340
(
0.0629525
0.0638515
0.0646815
0.0652122
0.182077
0.186333
0.187503
0.181469
0.21653
0.233688
0.249297
0.245443
0.222861
0.247518
0.272782
0.280548
0.224489
0.249917
0.280359
0.298113
0.250151
0.257442
0.283148
0.30524
0.22224
0.309864
0.294227
0.308942
0.0852563
0.187664
0.335857
0.316468
0
0.0915311
0.307186
0.333244
0
0.163557
0.0338706
0.355602
0
0
0.0542017
0.321907
0.241045
0
0.0367208
0.215362
0.0345757
3.93685
0.0226605
0.123795
0.0246366
2.52447
0.0428894
0.062903
0.0253276
0.0353962
0.917644
0.0205466
0.0278521
0.026053
2.03053
0.0504213
0.0296911
0.025253
1.0349
0.978213
0.0301043
0.0268631
0.0446708
0.78347
0.0300233
0.0292504
0.0301803
0.120023
0.0301498
0.0310087
0.0293675
0.0438395
0.0305895
0.0318426
0.0307864
0.0338758
0.0312269
0.0323213
0.0325173
0.0326418
0.0319536
0.0328637
0.0338884
0.0335177
0.0327225
0.0335737
0.0349248
0.0349319
0.0335298
0.0344199
0.0358599
0.0363938
0.0343911
0.0353601
0.0368422
0.0378098
0.0353184
0.0363718
0.0379154
0.0392177
0.0363199
0.0374545
0.0390795
0.0406587
0.0374036
0.0386161
0.0403323
0.0421573
0.0385732
0.0398622
0.0416704
0.0437195
0.0398337
0.0411992
0.0431013
0.0453518
0.041194
0.0426325
0.0446255
0.0470601
0.0426592
0.0441716
0.0462522
0.0488482
0.0429502
0.0442366
0.0458195
0.0479882
0.0507262
0.0446097
0.0459344
0.0475838
0.049836
0.0527009
0.0463988
0.0477591
0.049473
0.0518034
0.0547791
0.0483253
0.0497199
0.0514946
0.0538978
0.0569702
0.0503973
0.0518246
0.053656
0.0561265
0.0592825
0.0526244
0.0540819
0.0559653
0.0584959
0.0617248
0.0550153
0.056501
0.0584327
0.0610152
0.0643063
0.0575793
0.0590909
0.061066
0.0636936
0.0670375
0.0603259
0.0618613
0.0638749
0.0665397
0.0699287
0.0632653
0.0648221
0.0668698
0.0695644
0.07299
0.0664071
0.0679828
0.0700608
0.0727771
0.0762348
0.0697621
0.0713541
0.0734578
0.0761894
0.079673
0.0721076
0.0733402
0.0749472
0.0770725
0.0798133
0.0833175
0.0759099
0.0771519
0.0787717
0.0809154
0.0836599
0.0871811
0.079957
0.0812087
0.0828395
0.0849981
0.0877412
0.0912766
0.0842599
0.0855208
0.0871614
0.0893327
0.0920707
0.0956175
0.0888292
0.0900999
0.0917492
0.0939303
0.0966607
0.100216
0.0936758
0.0949561
0.0966141
0.0988041
0.101525
0.105087
0.0988115
0.100102
0.101768
0.103965
0.106675
0.110244
0.104247
0.105548
0.107222
0.109427
0.112125
0.1157
0.109993
0.111306
0.112989
0.115201
0.11789
0.121468
0.115034
0.116061
0.117388
0.119081
0.1213
0.123981
0.127564
0.121419
0.122464
0.123806
0.12551
0.127738
0.130413
0.133999
0.128146
0.129211
0.13057
0.132288
0.134527
0.137199
0.140789
0.135225
0.136312
0.137692
0.139426
0.141678
0.144352
0.147946
0.142664
0.143777
0.14518
0.146934
0.149204
0.151885
0.155484
0.15048
0.15162
0.15305
0.154826
0.157115
0.159809
0.163414
0.158704
0.159871
0.161325
0.163124
0.165434
0.168144
0.171751
0.166429
0.167389
0.16858
0.170056
0.171872
0.174199
0.176923
0.180524
0.175593
0.176581
0.177797
0.179293
0.181126
0.183465
0.186201
0.189781
0.185271
0.186297
0.187548
0.189074
0.190931
0.193286
0.196036
0.199592
0.195421
0.196505
0.19781
0.199384
0.201281
0.203668
0.206444
0.209975
0.20607
0.207238
0.208626
0.210277
0.212247
0.214704
0.217547
0.221097
0.216747
0.217984
0.219444
0.22117
0.223215
0.225764
0.228701
0.232329
0.226564
0.227861
0.229378
0.231157
0.233261
0.235892
0.238917
0.242436
0.234994
0.236169
0.237637
0.239308
0.241215
0.243442
0.246189
0.249392
0.252952
0.244496
0.245801
0.247436
0.249291
0.251388
0.253814
0.256754
0.260096
0.263454
0.255804
0.257345
0.259223
0.261334
0.263695
0.266405
0.269696
0.273628
0.277945
0.266167
0.267746
0.269698
0.271935
0.27447
0.277365
0.280757
0.284369
0.287236
0.283074
0.285199
0.287661
0.290374
0.293359
0.296791
0.301085
0.306751
0.313507
0.289198
0.291074
0.293393
0.29609
0.299121
0.302432
0.305861
0.308499
0.308674
0.321555
0.324533
0.327879
0.331601
0.335802
0.340923
0.348171
0.358868
0.373199
0.300159
0.301625
0.303548
0.305958
0.308626
0.311161
0.312347
0.310243
0.305084
0.340155
0.340419
0.341649
0.343892
0.347076
0.351547
0.35795
0.361799
0.36918
0.258797
0.261814
0.261754
0.261729
0.261883
0.262073
0.26187
0.259422
0.25373
0.250962
0.249875
0.250626
0.249886
0.248987
0.248228
0.247553
0.246607
0.243534
0.238612
0.238877
0.192089
0.20899
0.207517
0.206286
0.205571
0.204754
0.203672
0.201586
0.199813
0.216073
0.161926
0.297273
0.530064
0.365239
0.343844
0.338611
0.334545
0.331632
0.333727
0.343764
0.348472
0.274185
0.147629
0.0678649
0.0206169
0.0879256
0
2.93471
0.297015
0.0539622
0.0375067
0.0353148
0.03612
0.0376901
0.0393436
0.0409212
0.0424671
0.0440346
0.0456567
0.0473399
0.0490866
0.0508995
0.0527802
0.0547379
0.0567801
0.0589118
0.0611442
0.0634857
0.0659454
0.068534
0.0712633
0.0741449
0.077187
0.0804077
0.0838157
0.0874242
0.0912478
0.0952996
0.0995937
0.104144
0.108963
0.114068
0.119471
0.125187
0.13123
0.137614
0.144355
0.151464
0.158957
0.166845
0.175142
0.183874
0.193083
0.202844
0.213167
0.224257
0.235536
0.245505
0.256312
0.266126
0.282327
0.288544
0.3218
0.305678
0.396044
0.297705
0.390316
0.251091
0.247823
0.223099
0.235671
0.29294
0.472078
0.695187
0.480261
0.42742
0.406781
0.395673
0.392644
0.4056
0.453355
0.508199
0.275178
0.113522
0.0297872
0.0800373
0
6.55409
0.663519
0.0762183
0.0479828
0.0437867
0.0440367
0.0454027
0.0469113
0.0483355
0.0497203
0.0511326
0.0526069
0.0541482
0.0557563
0.0574323
0.0591765
0.0609978
0.0629036
0.064898
0.0669927
0.0691948
0.0715139
0.0739606
0.0765469
0.0792842
0.082181
0.0852566
0.0885195
0.0919826
0.0956625
0.0995725
0.103727
0.10814
0.112827
0.117803
0.123083
0.128682
0.134615
0.140897
0.147543
0.154568
0.161986
0.169812
0.178058
0.186753
0.195934
0.205677
0.215991
0.227076
0.238429
0.248503
0.259622
0.269232
0.28613
0.291553
0.326841
0.30833
0.404554
0.300504
0.397402
0.254274
0.251495
0.297553
0.334689
0.421699
0.683745
0.837886
0.559436
0.485146
0.453985
0.438724
0.437001
0.457645
0.531383
0.422048
0.122882
1.02681
9.19426
0
6.55935
5.28267
0.125594
0.0647223
0.0560547
0.0553028
0.0563312
0.0575571
0.0586307
0.0596073
0.0605905
0.0616424
0.0627813
0.0640139
0.065343
0.0667689
0.0683009
0.0699453
0.0717058
0.0735923
0.075608
0.0777632
0.0800649
0.0825237
0.0851477
0.0879446
0.0909323
0.0941164
0.0975092
0.101126
0.104979
0.109081
0.113446
0.118088
0.123023
0.128262
0.133822
0.139718
0.145963
0.152572
0.159559
0.16694
0.174728
0.182936
0.19159
0.200726
0.210422
0.220691
0.23172
0.243078
0.253116
0.264438
0.273694
0.291109
0.295772
0.33227
0.312307
0.40945
0.304297
0.398523
0.257026
0.341882
0.373522
0.427439
0.54211
0.912919
0.955097
0.63092
0.539425
0.499469
0.48052
0.478545
0.496539
0.528102
0.138547
0.0611289
0
0
0
1.82049
0.191022
0.0781525
0.0629005
0.0610372
0.0622054
0.0638689
0.0652928
0.0664777
0.067578
0.0686877
0.0698402
0.0710526
0.0723359
0.0736977
0.0751533
0.0767148
0.078392
0.0801956
0.0821324
0.0842141
0.0864487
0.0888464
0.0914153
0.0941644
0.097109
0.100255
0.103614
0.107201
0.111026
0.115103
0.119445
0.124063
0.128975
0.13419
0.139726
0.145595
0.15181
0.158388
0.16534
0.172682
0.180428
0.188589
0.197192
0.206267
0.215895
0.226097
0.237045
0.248379
0.258271
0.269708
0.278543
0.296456
0.300304
0.33792
0.316441
0.414023
0.307884
0.400213
0.37394
0.403635
0.443676
0.510099
0.64758
1.10401
1.08225
0.707948
0.59826
0.549549
0.527076
0.52381
0.536158
0.52
0.229345
0.102278
0
0
0
0.952617
0.115592
0.0712076
0.0668848
0.0677619
0.0694719
0.0711092
0.0724976
0.0737502
0.0749993
0.0762932
0.0776402
0.0790417
0.0805027
0.0820342
0.0836488
0.0853586
0.0871751
0.0891078
0.0911707
0.0933747
0.0957311
0.0982509
0.100946
0.10383
0.106912
0.110207
0.113727
0.117483
0.121491
0.125764
0.130313
0.135155
0.140302
0.145769
0.151568
0.157715
0.164223
0.171105
0.178377
0.186052
0.194142
0.202673
0.21167
0.221215
0.231336
0.24219
0.253498
0.263247
0.274805
0.283246
0.301681
0.30472
0.343578
0.320342
0.419209
0.310866
0.398969
0.426703
0.460006
0.506077
0.581371
0.734169
1.23461
1.24485
0.790985
0.659387
0.600901
0.57377
0.566512
0.566153
0.540863
0.316109
0.150698
0
0
0
0.857379
0.112016
0.0775327
0.0769888
0.0793595
0.081017
0.0822252
0.0832988
0.0843311
0.0854077
0.0865684
0.0878122
0.0891359
0.0905441
0.0920472
0.0936548
0.0953738
0.0972112
0.0991794
0.101288
0.103546
0.105967
0.108561
0.111342
0.11432
0.11751
0.120925
0.124576
0.128481
0.132651
0.137098
0.14184
0.146888
0.152258
0.157962
0.164015
0.17043
0.177221
0.184403
0.191989
0.199993
0.208437
0.217346
0.226795
0.236825
0.24757
0.258851
0.26847
0.280175
0.28822
0.307206
0.309374
0.349608
0.324368
0.420123
0.44611
0.474899
0.510607
0.560453
0.640895
0.800099
1.29435
1.47814
0.884945
0.724423
0.653981
0.620324
0.606027
0.594066
0.564617
0.170475
0.107709
0
0
0
0.842993
0.11505
0.0853781
0.0872187
0.0913516
0.0931572
0.0941256
0.0951247
0.0961286
0.0971342
0.0981957
0.0993306
0.100542
0.101846
0.103259
0.104791
0.106453
0.108255
0.110206
0.112316
0.114597
0.117058
0.119712
0.122569
0.125642
0.128943
0.132484
0.136282
0.140347
0.144692
0.149334
0.154283
0.159556
0.165164
0.171121
0.177441
0.184137
0.191223
0.198714
0.206622
0.214969
0.223778
0.233116
0.243041
0.253656
0.2649
0.274361
0.286221
0.293808
0.313382
0.314541
0.438355
0.46408
0.489434
0.518584
0.555577
0.607286
0.689401
0.846855
1.29518
1.85735
0.997199
0.796137
0.71019
0.667809
0.645422
0.626625
0.574073
0.216224
0.181731
0
0
0
0.989169
0.136972
0.0938605
0.0961402
0.10209
0.104277
0.105021
0.106054
0.107234
0.108369
0.109502
0.110683
0.111933
0.113269
0.114708
0.116264
0.117954
0.119789
0.121782
0.123948
0.126295
0.128838
0.131587
0.134555
0.137755
0.141197
0.144898
0.148868
0.15312
0.157669
0.162526
0.167707
0.173223
0.179087
0.185312
0.19191
0.198897
0.206287
0.214091
0.22233
0.231025
0.240236
0.250037
0.260497
0.271687
0.280949
0.292963
0.506728
0.483751
0.504264
0.52888
0.558137
0.595583
0.647659
0.728861
0.878881
1.26645
2.57941
1.1371
0.876621
0.770132
0.716761
0.686507
0.660142
0.599596
0.338972
0.355601
0
0
0
1.47051
0.202352
0.105666
0.105413
0.113264
0.116438
0.116781
0.117519
0.118719
0.119939
0.121125
0.122351
0.123657
0.125058
0.126565
0.128195
0.129964
0.131884
0.133971
0.136236
0.138693
0.141355
0.144234
0.147346
0.150698
0.15431
0.158191
0.162353
0.166813
0.171578
0.176667
0.18209
0.187857
0.193983
0.200479
0.207358
0.214637
0.222326
0.230444
0.239012
0.248076
0.257734
0.268011
0.134753
0.427286
0.525317
0.539902
0.564517
0.593873
0.631301
0.682793
0.76134
0.900912
1.2295
3.27506
1.32161
0.968853
0.834701
0.767907
0.728871
0.694745
0.631816
0.4433
0.572523
0
0
0
3.3689
0.492074
0.123176
0.114464
0.123332
0.12906
0.129881
0.130343
0.131426
0.132648
0.133835
0.135057
0.136372
0.137794
0.139338
0.141019
0.142853
0.144853
0.147032
0.149402
0.151978
0.154771
0.157796
0.161061
0.164585
0.168379
0.172452
0.176822
0.181497
0.186492
0.191818
0.197486
0.203507
0.209893
0.216657
0.223813
0.231373
0.239356
0
0.0734603
0.149127
0.587014
0.573912
0.59679
0.626125
0.663292
0.713631
0.788609
0.916776
1.19461
2.44531
1.58628
1.07798
0.905654
0.822076
0.772809
0.731335
0.667973
0.528395
0.782709
0.400007
0
0
1.21851
0.00751178
0.165681
0.128509
0.134411
0.141684
0.143518
0.143986
0.144997
0.146237
0.147454
0.148699
0.150038
0.151492
0.153077
0.154814
0.156717
0.158802
0.16108
0.163565
0.166271
0.169209
0.17239
0.175829
0.179539
0.183528
0.187812
0.192398
0.197302
0.202533
0.2081
0.214014
0
0
3.05126
0.351024
0.699646
0.608818
0.626585
0.655385
0.692061
0.740988
0.812081
0.929218
1.16553
1.9569
2.01864
1.21147
0.985135
0.8801
0.818956
0.770128
0.706548
0.601277
0.36215
0.261045
0
0
2.29414e-07
1.46127
0.209497
0.144227
0.146869
0.154971
0.157766
0.158311
0.159274
0.160554
0.16183
0.163128
0.164524
0.166047
0.167714
0.169542
0.17155
0.173751
0.176159
0.178789
0.181654
0.184761
0.188128
0.191765
1.43574
6.85693e-05
0
0
0.238549
0.989482
0.650201
0.655123
0.682412
0.718356
0.765731
0.833009
0.940005
1.14282
1.70069
2.93333
1.38158
1.07574
0.942977
0.867858
0.811144
0.748056
0.660203
0.584656
0.401761
0
0
0
1.95208
0.274997
0.161349
0.159888
0.169021
0.172968
0.173565
0.174446
0.175796
0.177165
)
;

boundaryField
{
    inlet
    {
        type            calculated;
        value           nonuniform List<scalar> 
11
(
0.091316
0.0937932
0.0926877
0.0916962
0.0908435
0.0901053
0.0894296
0.088765
0.0879969
0.0897589
0.0874484
)
;
    }
    outlet
    {
        type            calculated;
        value           nonuniform List<scalar> 0();
    }
    walls
    {
        type            calculated;
        value           uniform 0;
    }
    frontAndBack
    {
        type            empty;
    }
    procBoundary6to2
    {
        type            processor;
        value           nonuniform List<scalar> 
13
(
0.143069
0.218335
0.277314
0.319307
0.350689
0.376235
0.393883
0.445693
0.18156
0
0
1.64056
0.223768
)
;
    }
    procBoundary6to3
    {
        type            processor;
        value           uniform 0.206888;
    }
    procBoundary6to5
    {
        type            processor;
        value           nonuniform List<scalar> 
86
(
0.0625864
0.175304
0.197618
0.1985
0.202618
0.312503
0.041626
0.0253408
0
0
0.205349
0.0295567
0.0246806
0.0263719
0.0278188
0.0279756
0.0279431
0.0282316
0.0287587
0.0293569
0.029953
0.0305517
0.0311823
0.0318672
0.0326155
0.0334314
0.0343181
0.0352793
0.0363201
0.0374474
0.0386673
0.0399863
0.0414115
0.0414115
0.0418746
0.0435192
0.045293
0.0472044
0.0492621
0.0514749
0.0538521
0.056403
0.0591373
0.0620648
0.0651956
0.0685398
0.0685398
0.0711708
0.0749672
0.0790076
0.0833028
0.0878634
0.0927008
0.0978254
0.103248
0.108981
0.108981
0.114248
0.120614
0.12732
0.134375
0.141786
0.149573
0.15777
0.15777
0.165668
0.174802
0.184438
0.194529
0.2051
0.215734
0.225531
0.225531
0.233984
0.243358
0.25442
0.264703
0.281106
0.287159
0.319262
0.297256
0.342814
0.342814
0.269308
0.250444
0.220388
)
;
    }
    procBoundary6to7
    {
        type            processor;
        value           nonuniform List<scalar> 
91
(
0.222829
0.222829
0.255623
0.255623
0.259563
0.259563
0.401815
0.425065
0.401815
0.313719
0.356302
0.425065
0.328734
0.300019
0.320219
0.356302
0.32022
0.279127
0.288149
0.300019
0.300322
0.24778
0.256676
0.26617
0.279127
0.27623
0.220285
0.226924
0.233948
0.241366
0.24778
0.249196
0.195681
0.199888
0.204395
0.209216
0.214356
0.219826
0.220285
0.225632
0.178533
0.180001
0.181612
0.183383
0.185331
0.187474
0.189825
0.192399
0.195208
0.198261
0.201573
0.195681
0.205154
6.33217
1.56173
0
0
0.0911486
0.186144
0.706427
0.680127
0.706028
0.741822
0.788063
0.85195
0.950058
1.12593
1.54696
4.83415
1.61119
1.18102
1.01173
0.919858
0.854711
0.791144
0.716064
0.416215
0.342606
0
0
0
2.87211
0.40543
0.181835
0.173632
0.184126
0.189868
0.19041
0.190931
0.178533
0.192235
)
;
    }
}


// ************************************************************************* //
